G2.5Ocore-PETIM in water
87833
    1aaa     O1    1   0.382   9.387   7.250 -0.1705 -0.0464  0.0911
    1aaa     C1    2   0.293   9.291   7.177  0.3340  0.1479 -0.2355
    1aaa     H1    3   0.276   9.192   7.220  2.2826  0.0580  0.4048
    1aaa     H2    4   0.329   9.288   7.074  2.5097 -0.8246  0.5066
    1aaa     C2    5   0.511   9.329   7.274  0.2038 -0.3731  0.0401
    1aaa     H3    6   0.574   9.320   7.185  0.0683  0.1646 -0.1136
    1aaa     H4    7   0.497   9.230   7.319  2.4868 -0.8208 -0.1453
    1aaa     C3    8   0.157   9.363   7.162  1.0981  0.1469 -0.0527
    1aaa     H5    9   0.109   9.328   7.070 -1.1298  0.6559  0.8599
    1aaa     H6   10   0.177   9.470   7.149 -1.0474  0.7171  0.9153
    1aaa     C4   11   0.572   9.415   7.386  0.3984  0.6074  0.2425
    1aaa     H7   12   0.594   9.514   7.346 -1.2053  0.9851  0.2329
    1aaa     H8   13   0.667   9.378   7.428  1.4023  3.3515  0.5812
    1aaa     C5   14   0.057   9.350   7.281 -0.1572  0.4848 -0.1938
    1aaa     H9   15   0.050   9.244   7.306  0.1857  0.1962 -1.2539
    1aaa    H10   16   0.086   9.412   7.365  1.0147 -0.1117 -0.1358
    1aaa     C6   17   0.467   9.434   7.502 -0.0094 -0.1413 -0.0349
    1aaa    H11   18   0.427   9.341   7.542 -2.9773  1.6155  1.4381
    1aaa    H12   19   0.382   9.496   7.475 -1.3175 -1.9128 -0.1280
    1aaa     N1   20  -0.091   9.381   7.243  0.0132  0.7747  0.0382
    1aaa     N2   21   0.527   9.502   7.619  0.6367 -0.0186 -0.2338
    1aaa     C7   22   0.418   9.536   7.728 -0.1122 -0.0625 -0.0371
    1aaa    H13   23   0.462   9.610   7.795  2.2042 -0.4233 -1.0586
    1aaa    H14   24   0.334   9.587   7.679  1.5887  3.1532  0.1501
    1aaa     C8   25   0.583   9.643   7.581 -1.1079 -0.0024 -0.3433
    1aaa    H15   26   0.628   9.636   7.483 -0.4267  0.8917 -0.1080
    1aaa    H16   27   0.494   9.702   7.560  0.7204  2.3634 -1.9574
    1aaa     C9   28  -0.164   9.264   7.166 -1.0007  0.2231 -0.1556
    1aaa    H17   29  -0.267   9.297   7.150 -1.0614  0.2479  0.2917
    1aaa    H18   30  -0.122   9.256   7.066  2.0982 -1.4477  1.1736
    1aaa    C10   31  -0.166   9.416   7.372 -0.4431 -0.2908  0.5525
    1aaa    H19   32  -0.191   9.321   7.418 -0.5671 -0.6965 -0.3489
    1aaa    H20   33  -0.103   9.483   7.431 -3.0555  1.8283  1.1379
    1aaa    C11   34   0.379   9.405   7.803 -0.4137 -0.0953 -0.1058
    1aaa    H21   35   0.321   9.332   7.745 -1.4816  0.9933 -0.4406
    1aaa    H22   36   0.475   9.366   7.841 -0.3161 -1.1911 -1.3745
    1aaa    C12   37   0.695   9.709   7.673  0.5030 -0.3703 -0.2109
    1aaa    H23   38   0.729   9.801   7.623 -0.0514  0.4719  0.9200
    1aaa    H24   39   0.648   9.724   7.771  1.4460  0.9921  0.0610
    1aaa    C13   40  -0.161   9.120   7.237  0.0858 -0.1139 -0.1161
    1aaa    H25   41  -0.064   9.078   7.266  0.8844  1.1957 -0.7647
    1aaa    H26   42  -0.214   9.137   7.332 -1.6890  0.6104 -1.1859
    1aaa    C14   43  -0.298   9.487   7.360 -0.1275  0.6988 -0.1834
    1aaa    H27   44  -0.286   9.564   7.282 -0.4331 -0.4764 -1.4295
    1aaa    H28   45  -0.378   9.417   7.334 -0.2195  0.2682  1.1843
    1aaa    C15   46  -0.332   9.575   7.481  0.6102 -0.0552 -0.7292
    1aaa    H29   47  -0.299   9.536   7.578  1.2257 -1.4533 -1.4820
    1aaa    H30   48  -0.271   9.665   7.469  0.7996 -0.2925 -1.5877
    1aaa    C16   49  -0.229   9.009   7.169  0.6012 -0.2251  0.1538
    1aaa    H31   50  -0.194   8.996   7.066 -0.4582  0.9214 -0.3767
    1aaa    H32   51  -0.225   8.915   7.225  0.1666 -0.4453 -0.1762
    1aaa    C17   52   0.822   9.615   7.690  0.1673 -0.3519  0.4850
    1aaa    H33   53   0.899   9.652   7.759 -0.4172  0.9051  0.4817
    1aaa    H34   54   0.786   9.527   7.743 -2.4592  1.0773  1.2518
    1aaa    C18   55   0.294   9.442   7.915  0.1085 -0.1067  0.1277
    1aaa    H35   56   0.258   9.544   7.897 -0.3270 -0.7985 -3.9829
    1aaa    H36   57   0.206   9.378   7.905  0.5304 -0.7311  0.3635
    1aaa    H38   58  -0.104   9.466   7.187 -1.6672  0.4753 -0.0797
    1aaa    H37   59   0.608   9.447   7.653  0.6477  0.1859  0.0714
    2bbb     N1   60  -0.852   9.729   7.233  0.4812 -0.0233 -0.5427
    2bbb     C1   61  -0.904   9.870   7.232 -0.2753 -0.7335  0.2043
    2bbb     H1   62  -0.870   9.929   7.147 -0.3749  1.5872  1.7023
    2bbb     H2   63  -0.859   9.925   7.314 -1.1577 -1.5302  1.2582
    2bbb     C2   64  -0.877   9.657   7.100  0.4552  0.1443 -0.3229
    2bbb     H3   65  -0.975   9.676   7.054  0.5737 -2.0165 -1.5777
    2bbb     H4   66  -0.874   9.554   7.134 -0.3018  0.8273  2.0181
    2bbb     C3   67  -0.702   9.721   7.276 -0.2012 -0.0117 -0.2565
    2bbb     H5   68  -0.642   9.798   7.227  1.2935 -1.6723 -1.1463
    2bbb     H6   69  -0.671   9.620   7.251 -0.2843 -0.6369  1.9386
    2bbb     C4   70  -0.670   9.752   7.420 -0.2827 -0.2833  0.6140
    2bbb     H7   71  -0.723   9.686   7.489  1.8256 -1.4234  1.2309
    2bbb     H8   72  -0.685   9.860   7.435  2.8681  0.1296  1.5120
    2bbb     C5   73  -1.057   9.882   7.265 -0.2339  0.6525  0.9685
    2bbb     H9   74  -1.110   9.822   7.189 -0.8051 -1.4034  2.8791
    2bbb    H10   75  -1.101   9.982   7.254 -1.0421  0.1483 -1.0552
    2bbb     C6   76  -0.770   9.689   6.996 -0.1161 -0.0504  0.2133
    2bbb    H11   77  -0.682   9.626   7.014 -0.7450 -1.1376 -0.3633
    2bbb    H12   78  -0.730   9.791   7.002  2.6697 -0.7859 -2.9439
    2bbb     C7   79  -0.513   9.742   7.443 -0.1765  0.0931  0.4859
    2bbb    H13   80  -0.488   9.811   7.525 -0.3464  0.2743  0.3866
    2bbb    H14   81  -0.458   9.776   7.355  1.5830  0.0335  1.5243
    2bbb     C8   82  -0.818   9.663   6.849 -1.1261  0.2699 -0.4315
    2bbb    H15   83  -0.787   9.566   6.808  0.0270  0.8567 -0.9793
    2bbb    H16   84  -0.925   9.688   6.846 -0.5437  3.2096  0.1062
    2bbb     C9   85  -1.093   9.819   7.407  0.1705  0.4374 -0.0230
    2bbb    H17   86  -1.108   9.710   7.403 -0.0158  0.3811  1.4352
    2bbb    H18   87  -1.196   9.848   7.431 -0.9377 -2.5896 -0.5861
    2bbb     O1   88  -0.477   9.600   7.475  0.2825  0.0703  0.1779
    2bbb    H19   89  -0.913   9.682   7.302  0.2824 -2.3243 -2.1743
    3bbb     N1   90  -0.542   8.858   7.057 -0.5032 -0.2475  0.8932
    3bbb     C1   91  -0.544   8.709   7.018 -0.5488  0.0640  0.2436
    3bbb     H1   92  -0.533   8.695   6.911 -0.8825 -0.7228  0.3003
    3bbb     H2   93  -0.643   8.675   7.050 -1.5865  2.2227 -0.5055
    3bbb     C2   94  -0.614   8.938   6.948  0.4511 -0.0388  0.5844
    3bbb     H3   95  -0.555   8.938   6.856  0.4723  1.4424  0.5678
    3bbb     H4   96  -0.602   9.037   6.993 -1.4880  0.8577 -0.7022
    3bbb     C3   97  -0.622   8.870   7.181  0.1446 -0.5450 -0.4464
    3bbb     H5   98  -0.601   8.793   7.255  0.3517  0.4319  0.5391
    3bbb     H6   99  -0.728   8.882   7.158  0.5079  2.8834 -0.8409
    3bbb     C4  100  -0.590   9.005   7.254  0.0734  0.0933 -0.3324
    3bbb     H7  101  -0.656   9.007   7.342 -2.9983 -1.0568 -2.4306
    3bbb     H8  102  -0.623   9.085   7.187  0.8197  0.2631 -0.5088
    3bbb     C5  103  -0.429   8.625   7.087  0.3483 -0.4334  0.2480
    3bbb     H9  104  -0.435   8.643   7.195 -1.9746  0.1224  0.0803
    3bbb    H10  105  -0.329   8.662   7.058  0.1761 -1.0547 -1.2464
    3bbb     C6  106  -0.763   8.909   6.916 -0.4645 -0.2316 -0.3690
    3bbb    H11  107  -0.835   8.920   6.998 -1.3770 -0.1565 -1.1723
    3bbb    H12  108  -0.779   8.805   6.887  0.6830  0.2073 -2.7973
    3bbb     C7  109  -0.445   9.024   7.287  0.7508 -0.3395 -0.0859
    3bbb    H13  110  -0.417   8.936   7.347  0.0184 -1.9578 -1.9720
    3bbb    H14  111  -0.444   9.117   7.344 -0.3107 -0.8628  0.8272
    3bbb     C8  112  -0.823   8.995   6.799 -0.2367  0.9446 -0.0750
    3bbb    H15  113  -0.777   9.094   6.787 -1.1206  1.1558 -2.1463
    3bbb    H16  114  -0.803   8.940   6.706 -0.5975  2.0300 -0.8177
    3bbb     C9  115  -0.416   8.482   7.044  0.0053  0.2142 -0.3176
    3bbb    H17  116  -0.313   8.457   7.019  0.1017  1.1904 -0.9582
    3bbb    H18  117  -0.472   8.473   6.950 -0.2579  0.7340 -0.2189
    3bbb     O1  118  -0.370   9.042   7.158  0.1703  0.0888 -0.7067
    3bbb    H19  119  -0.445   8.892   7.062 -0.1711 -1.0919  0.4333
    4bbb     N1  120   1.290   9.688   7.618 -0.1723 -0.0188 -0.9523
    4bbb     C1  121   1.407   9.595   7.594 -0.4355  0.2553 -0.0143
    4bbb     H1  122   1.435   9.584   7.489  0.4455 -1.6989  0.3814
    4bbb     H2  123   1.378   9.494   7.622  1.3563  0.0381  1.2109
    4bbb     C2  124   1.311   9.838   7.588 -0.0663  0.2744  0.2111
    4bbb     H3  125   1.396   9.876   7.645  1.8917  0.5494 -2.6841
    4bbb     H4  126   1.221   9.885   7.627  0.4125 -0.1060  1.8273
    4bbb     C3  127   1.167   9.648   7.543 -0.4194  1.6089 -0.5905
    4bbb     H5  128   1.185   9.631   7.436 -0.6642 -2.1289 -0.1752
    4bbb     H6  129   1.092   9.722   7.571 -3.9344 -1.9531  0.3380
    4bbb     C4  130   1.103   9.512   7.592 -0.7919 -0.2040 -0.1260
    4bbb     H7  131   1.085   9.517   7.700  1.5237  1.4326  0.2624
    4bbb     H8  132   1.170   9.431   7.558  0.2745  1.4699 -2.2366
    4bbb     C5  133   1.527   9.620   7.688 -0.7382 -0.1320 -0.0098
    4bbb     H9  134   1.572   9.521   7.706 -2.0348 -0.4610  1.6736
    4bbb    H10  135   1.496   9.659   7.786  1.9626  1.4569  0.3323
    4bbb     C6  136   1.343   9.873   7.441  0.1073  0.3116 -0.5393
    4bbb    H11  137   1.410   9.795   7.402 -0.8319 -1.3757  1.1256
    4bbb    H12  138   1.403   9.966   7.437  3.3740 -1.5295  1.1518
    4bbb     C7  139   0.968   9.478   7.532 -0.2491  0.0577  0.1788
    4bbb    H13  140   0.937   9.380   7.570  0.5596 -0.4763 -0.5137
    4bbb    H14  141   0.987   9.472   7.425  1.5167  1.8977  0.3332
    4bbb     C8  142   1.221   9.903   7.354 -0.5952 -0.0159  0.3845
    4bbb    H15  143   1.180   9.809   7.315  2.0859 -1.2185  0.2613
    4bbb    H16  144   1.143   9.950   7.416 -1.1265 -0.6808  0.2290
    4bbb     C9  145   1.639   9.705   7.623  0.0274 -0.3899 -0.1955
    4bbb    H17  146   1.709   9.748   7.695 -1.0656  0.4191  0.4169
    4bbb    H18  147   1.583   9.791   7.583 -0.9201 -0.4957  0.8727
    4bbb     O1  148   0.870   9.584   7.554 -0.1728  0.2564 -0.6544
    4bbb    H19  149   1.270   9.672   7.718 -2.8680 -0.3918 -1.4792
    5bbb     N1  150   0.527   9.314   8.434  0.3973 -0.2242 -0.1287
    5bbb     C1  151   0.546   9.168   8.480 -0.1678 -0.4795  0.5969
    5bbb     H1  152   0.588   9.176   8.581  1.6091 -1.3742 -0.0290
    5bbb     H2  153   0.623   9.118   8.422  0.2868 -0.8577  1.4988
    5bbb     C2  154   0.656   9.389   8.455  0.4000 -0.4811  0.7644
    5bbb     H3  155   0.633   9.490   8.420 -0.1046 -1.9701 -3.9846
    5bbb     H4  156   0.731   9.355   8.383  1.0100  1.0872  0.6294
    5bbb     C3  157   0.469   9.329   8.297  0.1325  0.6538 -0.2064
    5bbb     H5  158   0.401   9.246   8.280 -1.0511  1.6102 -0.2974
    5bbb     H6  159   0.549   9.343   8.225 -1.5536  2.2910 -1.8726
    5bbb     C4  160   0.378   9.453   8.278 -0.1343  0.0414  0.3226
    5bbb     H7  161   0.444   9.539   8.263 -0.3008 -0.1517 -1.7437
    5bbb     H8  162   0.318   9.452   8.370  0.4501 -2.2387  0.7493
    5bbb     C5  163   0.412   9.081   8.486 -0.1095 -0.3023  0.8300
    5bbb     H9  164   0.394   9.044   8.384 -1.5520  1.5140  0.3756
    5bbb    H10  165   0.326   9.141   8.518 -0.2306 -0.8263  1.5102
    5bbb     C6  166   0.709   9.403   8.599  0.4117  0.4582 -0.4637
    5bbb    H11  167   0.765   9.313   8.628 -1.5517 -1.4780 -2.2834
    5bbb    H12  168   0.625   9.411   8.670  1.0937 -1.1405  0.5804
    5bbb     C7  169   0.281   9.433   8.161  0.0423 -0.0949  0.0814
    5bbb    H13  170   0.215   9.518   8.143 -1.5230 -1.0544  1.0450
    5bbb    H14  171   0.221   9.342   8.174  0.3632 -0.1417  1.4028
    5bbb     C8  172   0.802   9.521   8.615  0.2345 -0.2824 -0.3562
    5bbb    H15  173   0.884   9.529   8.543  1.0417 -1.5003  0.3895
    5bbb    H16  174   0.753   9.619   8.610  0.1948 -0.3560 -1.5936
    5bbb     C9  175   0.419   8.952   8.573 -0.2839  0.8990  0.3968
    5bbb    H17  176   0.326   8.898   8.550  0.6901 -0.8937  0.5473
    5bbb    H18  177   0.407   8.990   8.675 -0.4317  0.7257  0.4442
    5bbb     O1  178   0.354   9.410   8.035  0.7170  0.5978 -0.2182
    5bbb    H19  179   0.459   9.352   8.501  1.6963  1.9214  0.0478
    6bbb     N1  180  -0.632   9.915   6.316  0.0632 -0.3115  0.9162
    6bbb     C1  181  -0.651   9.882   6.165  0.1608  0.7652 -0.1947
    6bbb     H1  182  -0.617   9.969   6.108  1.0529  0.5662  0.0083
    6bbb     H2  183  -0.758   9.887   6.145 -0.0376 -0.5741  0.4728
    6bbb     C2  184  -0.652  10.073   6.337  0.1364  0.1376 -0.3328
    6bbb     H3  185  -0.678  10.089   6.442 -0.8832 -0.3291 -0.4997
    6bbb     H4  186  -0.736  10.108   6.278 -1.3433  0.8851  2.0675
    6bbb     C3  187  -0.730   9.838   6.403 -0.2170 -0.3051  0.8913
    6bbb     H5  188  -0.711   9.737   6.366  0.5659  0.5476 -1.1946
    6bbb     H6  189  -0.836   9.859   6.390  0.5312  3.1307 -0.9279
    6bbb     C4  190  -0.705   9.856   6.553  0.1529 -0.2847 -0.1356
    6bbb     H7  191  -0.744   9.957   6.572 -0.9990 -0.7667  0.1155
    6bbb     H8  192  -0.599   9.867   6.581  0.0755  1.5924 -0.4948
    6bbb     C5  193  -0.608   9.744   6.109  0.3957 -0.2252  0.5891
    6bbb     H9  194  -0.688   9.677   6.142 -0.5040  0.7528  0.4363
    6bbb    H10  195  -0.514   9.714   6.158 -0.6100 -3.1934  0.9359
    6bbb     C6  196  -0.534  10.173   6.306 -0.2017  0.2330 -0.5299
    6bbb    H11  197  -0.476  10.174   6.400 -2.0600 -3.7468  0.9046
    6bbb    H12  198  -0.566  10.277   6.301 -1.4142 -0.0465  0.7213
    6bbb     C7  199  -0.787   9.758   6.633  0.3824  0.7711  0.5274
    6bbb    H13  200  -0.767   9.657   6.596  0.2948  0.8959  0.1369
    6bbb    H14  201  -0.885   9.802   6.610  0.8859  1.2354 -0.8042
    6bbb     C8  202  -0.436  10.126   6.189  0.3498  0.6278 -0.1466
    6bbb    H15  203  -0.337  10.174   6.196  0.5184  0.3767 -0.6708
    6bbb    H16  204  -0.421  10.018   6.197 -0.8144  0.5453  1.3680
    6bbb     C9  205  -0.615   9.743   5.951 -0.1887 -0.1334  0.5967
    6bbb    H17  206  -0.574   9.835   5.910 -1.6509  1.4702  2.5499
    6bbb    H18  207  -0.720   9.744   5.919  0.0977  1.7390 -0.4500
    6bbb     O1  208  -0.764   9.773   6.772  0.3667  0.1670  0.1049
    6bbb    H19  209  -0.540   9.891   6.355 -0.5430 -0.1698  2.5373
    7bbb     N1  210  -0.918  10.092   7.745 -0.7614 -0.3379 -0.4176
    7bbb     C1  211  -0.976  10.111   7.883 -0.0548 -0.2832  0.1584
    7bbb     H1  212  -0.902  10.138   7.959 -2.5515  1.7116  2.0623
    7bbb     H2  213  -1.017  10.013   7.908  1.0233 -0.8113 -0.0759
    7bbb     C2  214  -0.836  10.213   7.728 -0.0820 -0.0382  0.1187
    7bbb     H3  215  -0.750  10.213   7.796 -0.1940  0.7127  0.2657
    7bbb     H4  216  -0.898  10.301   7.742 -2.0650 -1.1608 -1.1378
    7bbb     C3  217  -0.845   9.968   7.719  0.4371  0.2183  0.5640
    7bbb     H5  218  -0.764   9.955   7.791  0.7211 -2.6206 -0.1389
    7bbb     H6  219  -0.806   9.967   7.617 -0.2351 -1.6801  0.2873
    7bbb     C4  220  -0.924   9.832   7.734  0.6304  0.0052  0.0972
    7bbb     H7  221  -0.958   9.814   7.837 -0.8835  0.0799 -0.3669
    7bbb     H8  222  -0.851   9.754   7.708  1.5794  0.9101 -0.0076
    7bbb     C5  223  -1.092  10.207   7.902  0.4790 -0.4355  0.4059
    7bbb     H9  224  -1.066  10.313   7.903 -2.1350  0.2905  2.1790
    7bbb    H10  225  -1.130  10.195   8.004 -2.7530  0.6954 -0.5348
    7bbb     C6  226  -0.775  10.237   7.587 -0.4756  0.2830 -0.4157
    7bbb    H11  227  -0.698  10.159   7.577 -1.0934 -0.2071 -1.4961
    7bbb    H12  228  -0.721  10.332   7.581 -0.7366  0.5654  1.1758
    7bbb     C7  229  -1.043   9.813   7.632 -0.5020 -0.1884  0.2574
    7bbb    H13  230  -1.122   9.883   7.661  0.5794  0.5994  1.4718
    7bbb    H14  231  -1.071   9.708   7.642 -0.5083  0.0096  4.5675
    7bbb     C8  232  -0.882  10.230   7.478  0.8046 -0.0884  0.0623
    7bbb    H15  233  -0.840  10.277   7.388  1.5343  0.5030  0.6924
    7bbb    H16  234  -0.894  10.122   7.464 -3.2992  0.4330 -1.5382
    7bbb     C9  235  -1.219  10.189   7.811  0.1797  0.4105  0.6635
    7bbb    H17  236  -1.186  10.188   7.707 -0.3336  1.5758  0.4747
    7bbb    H18  237  -1.290  10.273   7.815  1.9571  2.0338 -0.3779
    7bbb     O1  238  -1.001   9.856   7.501  0.1943 -0.0816  0.5690
    7bbb    H19  239  -0.988  10.107   7.671  0.2773  0.3231 -1.2815
    8bbb     N1  240  -1.378   9.136   6.803  0.1318 -0.3928  0.0797
    8bbb     C1  241  -1.456   9.007   6.823 -0.1599  0.1502 -0.3590
    8bbb     H1  242  -1.437   8.985   6.928 -1.5933  0.7253  0.0543
    8bbb     H2  243  -1.397   8.932   6.770  1.2527  0.6144  0.5041
    8bbb     C2  244  -1.419   9.224   6.925 -0.3694  0.2890  0.3307
    8bbb     H3  245  -1.354   9.211   7.011 -0.8200 -2.2343  0.3662
    8bbb     H4  246  -1.510   9.188   6.974 -0.7081  3.3698  2.2113
    8bbb     C3  247  -1.231   9.110   6.800 -0.0857 -0.3258 -0.2794
    8bbb     H5  248  -1.206   9.046   6.885 -2.1435 -0.6998  0.0921
    8bbb     H6  249  -1.179   9.206   6.805 -2.9267  1.3678 -0.8730
    8bbb     C4  250  -1.180   9.040   6.672  0.4993  0.0603  0.7727
    8bbb     H7  251  -1.206   9.092   6.579  1.2743  0.6888  0.8965
    8bbb     H8  252  -1.217   8.937   6.667 -1.4767  0.7533  0.2748
    8bbb     C5  253  -1.606   9.014   6.797  0.2185 -0.8862  0.1214
    8bbb     H9  254  -1.629   9.037   6.692 -0.4867  1.6037  0.7494
    8bbb    H10  255  -1.656   9.092   6.856  0.6688 -0.4148 -0.1098
    8bbb     C6  256  -1.434   9.375   6.885 -0.0634 -1.0669 -0.1946
    8bbb    H11  257  -1.341   9.413   6.841 -0.8206 -0.1635 -1.0603
    8bbb    H12  258  -1.452   9.433   6.976  0.0522  0.3804 -1.0790
    8bbb     C7  259  -1.023   9.042   6.671 -0.5511  0.1153 -0.0721
    8bbb    H13  260  -0.980   9.142   6.656 -0.4177 -0.0682 -0.9283
    8bbb    H14  261  -0.984   8.969   6.599  0.1756  0.3417  0.0855
    8bbb     C8  262  -1.547   9.402   6.781 -0.8079  0.2336  0.3670
    8bbb    H15  263  -1.639   9.360   6.824 -1.5639  1.4389 -0.0230
    8bbb    H16  264  -1.565   9.509   6.768  2.5790  0.7667 -0.9409
    8bbb     C9  265  -1.675   8.883   6.839  0.1730 -0.2260  0.3197
    8bbb    H17  266  -1.683   8.868   6.947 -0.6305 -2.5099  0.0030
    8bbb    H18  267  -1.612   8.801   6.800 -0.7336  0.4117 -2.7785
    8bbb     O1  268  -0.966   9.003   6.806  0.5647 -0.5074  0.5570
    8bbb    H19  269  -1.413   9.188   6.721 -2.3513  0.2190  1.4239
    9bbb     N1  270  -0.569   8.175   7.494  0.5704  0.3033 -0.4848
    9bbb     C1  271  -0.451   8.143   7.565 -0.5527 -0.0698 -0.5987
    9bbb     H1  272  -0.480   8.063   7.633 -0.1966 -0.9058 -1.4055
    9bbb     H2  273  -0.422   8.224   7.632 -0.6206 -0.5085 -0.0282
    9bbb     C2  274  -0.692   8.178   7.584 -0.3221  0.6218 -0.4077
    9bbb     H3  275  -0.703   8.073   7.610 -0.8368  0.5544 -0.8661
    9bbb     H4  276  -0.786   8.201   7.533 -1.3229  1.3209  1.6389
    9bbb     C3  277  -0.550   8.309   7.416  0.4043 -0.4117 -0.1214
    9bbb     H5  278  -0.446   8.304   7.383  0.0209 -2.9794 -1.2075
    9bbb     H6  279  -0.566   8.395   7.481  1.0024 -1.5905  1.6680
    9bbb     C4  280  -0.636   8.307   7.288 -0.6434  0.1365 -0.5072
    9bbb     H7  281  -0.741   8.320   7.317  0.0924 -1.0368  3.3271
    9bbb     H8  282  -0.633   8.209   7.240 -2.7878 -0.5376  0.5865
    9bbb     C5  283  -0.340   8.096   7.465  0.5457  0.2385  0.3707
    9bbb     H9  284  -0.245   8.091   7.519  1.1888  1.5554 -0.5893
    9bbb    H10  285  -0.314   8.163   7.382 -0.5431  1.4978  1.0151
    9bbb     C6  286  -0.688   8.271   7.703 -0.3765  0.2277 -0.0645
    9bbb    H11  287  -0.653   8.370   7.672  2.5077 -1.1304 -1.5579
    9bbb    H12  288  -0.609   8.230   7.766  0.2653 -1.7434 -2.0211
    9bbb     C7  289  -0.609   8.409   7.184 -0.9643 -0.7324 -0.0273
    9bbb    H13  290  -0.618   8.506   7.235 -2.3585 -1.2980  0.8603
    9bbb    H14  291  -0.677   8.399   7.099 -0.2695 -0.2924 -0.6426
    9bbb     C8  292  -0.829   8.280   7.783  0.6062 -0.7491  0.6181
    9bbb    H15  293  -0.891   8.344   7.720  1.7396 -0.6678 -0.4584
    9bbb    H16  294  -0.882   8.184   7.793 -1.2890  0.1020 -0.5663
    9bbb     C9  295  -0.387   7.957   7.409 -0.2567  0.5205  0.2887
    9bbb    H17  296  -0.420   7.898   7.495  0.1129  0.1322  0.1686
    9bbb    H18  297  -0.304   7.901   7.365 -0.7133 -0.1315  0.2598
    9bbb     O1  298  -0.470   8.382   7.142 -0.4780  0.3280 -0.2285
    9bbb    H19  299  -0.577   8.108   7.416  1.9584  1.5451 -1.7680
   10bbb     N1  300   1.328  10.322   6.962  0.3081  0.0666  1.0175
   10bbb     C1  301   1.231  10.334   6.835 -0.1893  0.5043 -0.2045
   10bbb     H1  302   1.238  10.231   6.800  2.9068  1.6179 -3.5387
   10bbb     H2  303   1.275  10.397   6.757 -0.5486 -0.1211 -0.9229
   10bbb     C2  304   1.348  10.458   6.997 -0.8858 -0.1090 -0.0770
   10bbb     H3  305   1.252  10.508   7.013 -1.5192  0.2043 -3.8427
   10bbb     H4  306   1.385  10.497   6.902  1.3927 -1.5000  0.1564
   10bbb     C3  307   1.259  10.235   7.072 -0.0626  0.2459 -0.0503
   10bbb     H5  308   1.178  10.290   7.119 -1.4331 -2.1504  0.5380
   10bbb     H6  309   1.346  10.230   7.138  1.5799  2.5183 -1.8688
   10bbb     C4  310   1.197  10.096   7.031 -0.2616 -0.6123 -0.2747
   10bbb     H7  311   1.271  10.031   6.982  0.5502  1.1050 -1.4784
   10bbb     H8  312   1.116  10.109   6.959 -1.0585 -0.3457  0.6517
   10bbb     C5  313   1.087  10.381   6.862 -0.0120 -0.0910 -0.0038
   10bbb     H9  314   1.094  10.490   6.869  0.0737 -0.0379 -0.8439
   10bbb    H10  315   1.042  10.342   6.954  1.5761  1.9937  1.7801
   10bbb     C6  316   1.448  10.486   7.112  0.3637  0.0086 -0.3994
   10bbb    H11  317   1.542  10.441   7.076  0.6070  1.1131 -1.1843
   10bbb    H12  318   1.421  10.431   7.203 -0.8337  1.4503  0.1558
   10bbb     C7  319   1.143  10.019   7.152  0.4379 -0.5008  0.6325
   10bbb    H13  320   1.109   9.922   7.113 -1.7197  0.2550  0.4895
   10bbb    H14  321   1.062  10.072   7.204 -2.3095 -0.2030 -3.4810
   10bbb     C8  322   1.489  10.635   7.134 -0.0918  0.5830 -0.3882
   10bbb    H15  323   1.544  10.629   7.229  0.8105 -0.2534 -0.9488
   10bbb    H16  324   1.557  10.661   7.052  2.4676 -0.5310  1.2451
   10bbb     C9  325   0.996  10.356   6.744 -0.3090 -1.0541  0.3594
   10bbb    H17  326   0.909  10.421   6.759  1.6042  1.9913 -0.7401
   10bbb    H18  327   0.952  10.256   6.745 -1.8577 -0.5381 -2.6191
   10bbb     O1  328   1.256   9.989   7.241  0.2286 -0.5622  0.3742
   10bbb    H19  329   1.423  10.289   6.939 -0.2146 -0.0649 -1.1969
   11bbb     N1  330   1.853   9.535   7.080  0.7081 -0.5071  0.0211
   11bbb     C1  331   1.976   9.457   7.100  0.2179  0.6560 -0.0922
   11bbb     H1  332   1.949   9.367   7.156  1.6014  1.0238  1.2412
   11bbb     H2  333   2.041   9.518   7.162  1.9110 -1.2605  0.1493
   11bbb     C2  334   1.756   9.449   7.009  1.0844 -0.0294  0.2812
   11bbb     H3  335   1.704   9.386   7.082 -1.7478  0.0906 -1.4991
   11bbb     H4  336   1.803   9.390   6.930 -1.1655 -0.3953 -0.8770
   11bbb     C3  337   1.787   9.572   7.212 -0.5879  0.1179  0.2834
   11bbb     H5  338   1.756   9.477   7.254 -0.5659 -0.5604 -1.1580
   11bbb     H6  339   1.701   9.637   7.193 -1.4240 -0.5192  1.7822
   11bbb     C4  340   1.874   9.647   7.317  0.1358 -0.8072 -0.6511
   11bbb     H7  341   1.940   9.716   7.261 -1.8621  1.1883 -0.7041
   11bbb     H8  342   1.926   9.574   7.379 -1.8847 -1.2302  0.6165
   11bbb     C5  343   2.066   9.424   6.974 -0.2603  0.3869  0.0542
   11bbb     H9  344   2.116   9.518   6.949 -1.2779  0.7585 -0.6814
   11bbb    H10  345   2.013   9.381   6.888  0.7301  1.5215 -1.1689
   11bbb     C6  346   1.656   9.531   6.929 -0.0360  0.1641 -0.1228
   11bbb    H11  347   1.705   9.569   6.838 -0.0368  2.1036  0.6429
   11bbb    H12  348   1.643   9.627   6.982  1.8387 -0.6146  1.9051
   11bbb     C7  349   1.794   9.727   7.428  0.0301  0.0487  0.6106
   11bbb    H13  350   1.727   9.785   7.363  0.9913 -1.1497 -1.5253
   11bbb    H14  351   1.853   9.799   7.487  0.7078 -0.7110  0.8792
   11bbb     C8  352   1.521   9.465   6.909  0.4985 -0.5387  0.4133
   11bbb    H15  353   1.478   9.420   6.999  1.1364 -0.5154  0.7313
   11bbb    H16  354   1.454   9.544   6.872 -0.6575 -2.0107 -0.8211
   11bbb     C9  355   2.174   9.314   7.010  0.1862 -0.1465  0.1441
   11bbb    H17  356   2.248   9.368   7.070  0.0291  0.6600 -0.3605
   11bbb    H18  357   2.224   9.282   6.918 -0.2417 -0.5824  0.0596
   11bbb     O1  358   1.715   9.641   7.512  0.8272  0.1967 -0.2063
   11bbb    H19  359   1.879   9.620   7.028  0.6329  0.0385  0.8388
   12bbb     N1  360   0.883   9.735   9.073  0.0488  0.2122  0.4535
   12bbb     C1  361   0.754   9.710   9.162  0.1997  0.0811  0.7421
   12bbb     H1  362   0.717   9.809   9.191 -0.0582  1.4506 -3.6049
   12bbb     H2  363   0.776   9.658   9.255 -0.7948 -0.6365  0.5846
   12bbb     C2  364   0.984   9.809   9.155 -0.0490  0.0404  0.1366
   12bbb     H3  365   1.083   9.790   9.115 -0.5852 -0.8503 -0.8202
   12bbb     H4  366   0.985   9.756   9.250  1.6117  0.7619  0.5548
   12bbb     C3  367   0.945   9.600   9.036  0.5462 -0.1870 -0.2562
   12bbb     H5  368   0.855   9.539   9.025  1.6296 -1.5921 -1.7742
   12bbb     H6  369   1.007   9.564   9.118 -0.0708 -0.2695  0.1789
   12bbb     C4  370   1.033   9.602   8.904 -0.0918  0.1426 -1.5713
   12bbb     H7  371   1.091   9.509   8.895  0.4078  0.2538  0.0964
   12bbb     H8  372   1.111   9.679   8.901  1.8923 -1.7862 -2.0824
   12bbb     C5  373   0.638   9.629   9.097 -0.4201  0.6992 -0.3670
   12bbb     H9  374   0.549   9.622   9.162 -1.5059 -0.2137 -1.8875
   12bbb    H10  375   0.671   9.524   9.095  0.3863  0.8594  1.7749
   12bbb     C6  376   0.968   9.956   9.196 -0.2527  0.0433  0.0880
   12bbb    H11  377   0.881   9.961   9.262 -1.8980 -1.4986 -1.8227
   12bbb    H12  378   0.950  10.019   9.108  3.1241  0.7423 -0.2333
   12bbb     C7  379   0.942   9.622   8.785 -0.3387 -0.7102 -0.1459
   12bbb    H13  380   1.007   9.647   8.701  0.6163  1.2797  1.0896
   12bbb    H14  381   0.887   9.717   8.796 -0.2209 -0.5533 -0.8486
   12bbb     C8  382   1.089  10.018   9.267 -0.0802  0.0986 -0.1129
   12bbb    H15  383   1.170  10.026   9.194  1.2401 -2.5821  0.9436
   12bbb    H16  384   1.059  10.115   9.308  0.4832  0.9363 -1.5987
   12bbb     C9  385   0.588   9.671   8.953  0.3543 -0.4414  0.1921
   12bbb    H17  386   0.500   9.614   8.920  1.4381 -1.9186 -0.2770
   12bbb    H18  387   0.665   9.638   8.882  0.1426  1.2711 -0.8932
   12bbb     O1  388   0.864   9.511   8.745 -0.0629 -0.1022 -0.5162
   12bbb    H19  389   0.850   9.782   8.988 -0.2507  3.1378  2.0891
   13bbb     N1  390   0.261   8.571   8.491  0.1252 -0.4804 -0.1639
   13bbb     C1  391   0.198   8.572   8.353  1.1324 -0.0339  0.3752
   13bbb     H1  392   0.111   8.506   8.360  0.1903  1.3406  2.3188
   13bbb     H2  393   0.271   8.535   8.280  0.9542  1.4512 -0.6072
   13bbb     C2  394   0.271   8.434   8.546 -0.1869  1.1063 -0.2446
   13bbb     H3  395   0.338   8.438   8.632  1.7254 -1.8412 -1.4386
   13bbb     H4  396   0.317   8.366   8.474 -3.0140 -0.8132 -0.4014
   13bbb     C3  397   0.399   8.634   8.490  0.1253 -0.7449 -0.0525
   13bbb     H5  398   0.391   8.730   8.440 -0.2303 -1.1896 -0.8761
   13bbb     H6  399   0.470   8.567   8.439  0.9431 -0.2681  0.4350
   13bbb     C4  400   0.458   8.668   8.635 -0.1968 -0.4151  0.0682
   13bbb     H7  401   0.502   8.581   8.686  1.8218  0.6580  0.2425
   13bbb     H8  402   0.378   8.693   8.706 -0.4106  1.3151 -0.7454
   13bbb     C5  403   0.167   8.710   8.294  0.6482  0.5843 -0.2482
   13bbb     H9  404   0.245   8.784   8.317  0.4399  0.1091  2.3260
   13bbb    H10  405   0.077   8.742   8.348  0.4674 -1.6007  0.8687
   13bbb     C6  406   0.138   8.368   8.588 -0.3692  0.2388  0.2845
   13bbb    H11  407   0.134   8.265   8.551  2.0320  0.1105  0.2191
   13bbb    H12  408   0.050   8.423   8.552  0.5962  0.3676 -2.0405
   13bbb     C7  409   0.576   8.772   8.627 -0.5233 -0.3274 -0.1481
   13bbb    H13  410   0.664   8.720   8.585 -1.7156 -1.5571 -1.2216
   13bbb    H14  411   0.595   8.816   8.725 -1.4280 -0.3829  0.0596
   13bbb     C8  412   0.110   8.357   8.741 -1.0143  0.0730  0.7833
   13bbb    H15  413   0.130   8.458   8.778  0.0583  0.1977 -0.0939
   13bbb    H16  414   0.009   8.320   8.765 -0.2708 -2.2660  0.5845
   13bbb     C9  415   0.123   8.707   8.147  0.5532 -0.4659  0.0949
   13bbb    H17  416   0.088   8.808   8.124  2.1498  0.1756  0.3622
   13bbb    H18  417   0.034   8.645   8.130 -0.6395  1.4896 -1.1905
   13bbb     O1  418   0.536   8.879   8.540 -0.5118  0.2053  0.7950
   13bbb    H19  419   0.195   8.627   8.547 -0.5227 -1.1893 -0.1918
   14bbb     N1  420  -0.483  10.434   5.828 -0.1608 -0.1494  0.0244
   14bbb     C1  421  -0.366  10.421   5.735 -0.2906  0.3686 -0.1135
   14bbb     H1  422  -0.401  10.415   5.632  0.3750  1.4693 -0.4232
   14bbb     H2  423  -0.320  10.325   5.757  0.8147 -0.7110 -5.6838
   14bbb     C2  424  -0.559  10.567   5.803 -0.5127 -0.1397 -0.6402
   14bbb     H3  425  -0.489  10.648   5.820 -0.3737  0.1655 -2.5023
   14bbb     H4  426  -0.633  10.571   5.884  0.4226  3.1399  0.1977
   14bbb     C3  427  -0.568  10.311   5.804  0.1962  0.0425  1.1246
   14bbb     H5  428  -0.595  10.324   5.699  0.6019 -0.1343  0.9919
   14bbb     H6  429  -0.657  10.308   5.866  0.3370  1.1086  1.3941
   14bbb     C4  430  -0.501  10.167   5.826  0.4932 -0.8868  0.1558
   14bbb     H7  431  -0.440  10.133   5.741  0.4032 -2.0900  0.5514
   14bbb     H8  432  -0.586  10.098   5.826 -1.3472  1.2443 -1.3438
   14bbb     C5  433  -0.252  10.526   5.744 -1.2447  0.2704 -0.1984
   14bbb     H9  434  -0.220  10.539   5.848  2.0331 -2.9834 -0.5874
   14bbb    H10  435  -0.292  10.620   5.706 -1.4430 -0.7966 -2.9285
   14bbb     C6  436  -0.624  10.591   5.666  0.2622 -0.6471  0.1938
   14bbb    H11  437  -0.713  10.528   5.668  1.2735 -2.1471 -0.3105
   14bbb    H12  438  -0.552  10.549   5.594 -0.3604 -0.8356 -0.3367
   14bbb     C7  439  -0.422  10.142   5.954 -0.6285 -0.1925  0.1370
   14bbb    H13  440  -0.343  10.219   5.960 -1.1632  0.2980  1.2177
   14bbb    H14  441  -0.389  10.038   5.961 -1.6696 -0.5500 -0.0828
   14bbb     C8  442  -0.659  10.743   5.646 -0.2473  0.4988 -1.1287
   14bbb    H15  443  -0.692  10.755   5.542 -0.9422  0.3317 -0.9341
   14bbb    H16  444  -0.747  10.774   5.703 -0.8019 -1.2549 -0.9872
   14bbb     C9  445  -0.122  10.475   5.667 -0.2244  0.1001 -0.1644
   14bbb    H17  446  -0.129  10.525   5.570 -0.0690 -1.5705 -1.0750
   14bbb    H18  447  -0.134  10.367   5.649  1.0977  0.0006 -0.5560
   14bbb     O1  448  -0.506  10.156   6.067  0.1585  0.1473  0.5377
   14bbb    H19  449  -0.446  10.434   5.924 -1.5852  1.1946  0.6292
   15bbb     N1  450  -0.242   9.365   5.687 -0.2450 -0.4501  0.8114
   15bbb     C1  451  -0.250   9.339   5.538 -0.2822  0.1825 -0.1643
   15bbb     H1  452  -0.233   9.435   5.488  0.6357  0.2858  0.3242
   15bbb     H2  453  -0.355   9.318   5.517  0.3727 -1.2570 -2.4293
   15bbb     C2  454  -0.097   9.392   5.721 -0.1719  0.1565  0.1790
   15bbb     H3  455  -0.083   9.497   5.696 -0.5757  0.4333  1.0434
   15bbb     H4  456  -0.046   9.315   5.664 -1.9432 -0.5378 -0.5534
   15bbb     C3  457  -0.328   9.488   5.733  0.3329 -0.2572  0.1269
   15bbb     H5  458  -0.292   9.573   5.676 -0.1685 -0.1292 -0.0048
   15bbb     H6  459  -0.304   9.502   5.839 -2.1712  0.6333  0.6400
   15bbb     C4  460  -0.482   9.483   5.713 -0.6908 -0.1907  0.4415
   15bbb     H7  461  -0.529   9.396   5.761 -1.2599  0.1898  0.5932
   15bbb     H8  462  -0.489   9.471   5.605  2.6667  0.7587  0.0201
   15bbb     C5  463  -0.174   9.211   5.485 -0.6328  0.2957  1.0025
   15bbb     H9  464  -0.186   9.117   5.540  0.7008 -0.8501 -0.5519
   15bbb    H10  465  -0.066   9.231   5.491 -0.3095 -1.6536  3.7087
   15bbb     C6  466  -0.052   9.362   5.867  0.0930  0.0689  0.1471
   15bbb    H11  467  -0.121   9.428   5.922 -2.4130 -1.5032 -0.9055
   15bbb    H12  468   0.053   9.388   5.881  0.3187 -1.5266  1.6476
   15bbb     C7  469  -0.553   9.614   5.758  0.3699  0.2117  0.5701
   15bbb    H13  470  -0.654   9.606   5.716  1.5788  0.8346 -2.7507
   15bbb    H14  471  -0.502   9.701   5.715  1.2602  0.4406  2.0148
   15bbb     C8  472  -0.090   9.221   5.917 -0.7174  0.2128 -0.1133
   15bbb    H15  473  -0.195   9.222   5.948 -1.2253  1.3554 -1.7868
   15bbb    H16  474  -0.029   9.201   6.006 -0.3587  1.4072 -0.0766
   15bbb     C9  475  -0.208   9.188   5.337 -0.1193  0.2179 -0.5245
   15bbb    H17  476  -0.186   9.277   5.278  0.1210  1.2134  0.9978
   15bbb    H18  477  -0.151   9.100   5.305 -0.6887 -0.0627 -0.7803
   15bbb     O1  478  -0.554   9.624   5.899  0.1463 -1.0327  0.4871
   15bbb    H19  479  -0.265   9.283   5.744  0.3589 -3.1263 -2.4605
   16bbb     N1  480  -1.253  10.636   7.471  0.3025  0.5155 -0.2767
   16bbb     C1  481  -1.197  10.758   7.411 -0.3631  0.1254 -0.2686
   16bbb     H1  482  -1.278  10.830   7.402  0.1196  0.5244 -1.8093
   16bbb     H2  483  -1.171  10.732   7.308 -0.2526 -1.2504  0.0919
   16bbb     C2  484  -1.402  10.620   7.435  0.3228 -0.3850  0.6527
   16bbb     H3  485  -1.406  10.512   7.418  1.7045 -0.1291 -1.9084
   16bbb     H4  486  -1.418  10.665   7.337 -1.6554  0.0433  1.1234
   16bbb     C3  487  -1.179  10.515   7.409  0.7130 -0.1526 -0.3009
   16bbb     H5  488  -1.077  10.524   7.447  0.9983  0.6542 -1.2124
   16bbb     H6  489  -1.165  10.523   7.301 -0.5086  1.0893 -0.3938
   16bbb     C4  490  -1.223  10.370   7.455  0.0760  0.2682  0.3489
   16bbb     H7  491  -1.317  10.335   7.411  1.2241 -2.7942  0.0717
   16bbb     H8  492  -1.253  10.378   7.561  1.3429  0.9703  0.6637
   16bbb     C5  493  -1.074  10.830   7.477  0.5017 -0.0339 -0.2198
   16bbb     H9  494  -0.987  10.764   7.474 -0.1913 -0.9881  0.1684
   16bbb    H10  495  -1.098  10.859   7.580  0.4097 -0.8675 -0.0036
   16bbb     C6  496  -1.511  10.671   7.530  0.0835  0.9666  0.3462
   16bbb    H11  497  -1.505  10.622   7.628  1.6870  1.0884  0.3377
   16bbb    H12  498  -1.609  10.637   7.495  0.6754 -0.4303 -0.0419
   16bbb     C7  499  -1.117  10.266   7.421  1.1075 -0.1673 -0.3693
   16bbb    H13  500  -1.081  10.297   7.322 -2.2794 -2.7526 -2.6370
   16bbb    H14  501  -1.166  10.169   7.415 -0.6444  0.4355  2.6456
   16bbb     C8  502  -1.505  10.818   7.556 -0.1644 -0.2796 -0.1661
   16bbb    H15  503  -1.597  10.842   7.612  1.5670  0.9154  2.3447
   16bbb    H16  504  -1.420  10.836   7.623 -0.3999  0.9601 -0.1696
   16bbb     C9  505  -1.049  10.966   7.398 -0.5375  0.0369 -0.6021
   16bbb    H17  506  -1.018  10.950   7.294 -0.5570  0.2426 -0.6390
   16bbb    H18  507  -0.964  11.006   7.455  1.4603 -3.0904 -1.1239
   16bbb     O1  508  -1.009  10.289   7.521 -0.5448 -0.2268  0.6918
   16bbb    H19  509  -1.231  10.630   7.571  1.0399  1.1732 -0.3906
   17bbb     N1  510  -1.722   9.802   7.927  0.6731  0.4633 -0.4155
   17bbb     C1  511  -1.872   9.810   7.897 -0.0450  0.7187  0.1637
   17bbb     H1  512  -1.915   9.709   7.892 -1.5489  1.1102  2.8318
   17bbb     H2  513  -1.864   9.834   7.791  0.4790  1.9294  0.4705
   17bbb     C2  514  -1.670   9.678   7.864 -0.1033  0.4066 -0.1693
   17bbb     H3  515  -1.564   9.681   7.889  0.0163  0.9214 -0.7049
   17bbb     H4  516  -1.678   9.686   7.756 -1.3711  0.3684 -0.0868
   17bbb     C3  517  -1.650   9.927   7.872  0.1201  0.6551  0.2141
   17bbb     H5  518  -1.708  10.012   7.909  0.8136  0.4292  1.9362
   17bbb     H6  519  -1.666   9.929   7.764 -0.4744  2.0768  0.2954
   17bbb     C4  520  -1.491   9.949   7.886  0.0126 -0.1972 -0.7019
   17bbb     H7  521  -1.435   9.855   7.874  2.0456  1.0576 -1.4227
   17bbb     H8  522  -1.476   9.970   7.992 -3.1521  0.1798 -0.2213
   17bbb     C5  523  -1.956   9.914   7.968  0.5966 -0.7767 -0.4537
   17bbb     H9  524  -2.057   9.885   7.937  0.9600 -2.1124 -0.4507
   17bbb    H10  525  -1.949  10.020   7.938 -0.7492  0.1116  2.0557
   17bbb     C6  526  -1.718   9.543   7.935 -0.5234 -0.4127  0.1021
   17bbb    H11  527  -1.696   9.458   7.869 -1.2990 -0.2640 -0.3590
   17bbb    H12  528  -1.826   9.538   7.954 -0.4865  0.9812  0.7928
   17bbb     C7  529  -1.419  10.056   7.796  0.5070  0.8630  0.1233
   17bbb    H13  530  -1.477  10.148   7.808 -2.1510 -0.5679 -0.9122
   17bbb    H14  531  -1.431  10.039   7.689 -2.8740  4.1219 -0.2137
   17bbb     C8  532  -1.636   9.518   8.069  0.4465  0.0693 -0.0115
   17bbb    H15  533  -1.665   9.601   8.134 -3.2645 -0.8505 -0.3164
   17bbb    H16  534  -1.690   9.438   8.120 -1.8162  0.2368 -1.9622
   17bbb     C9  535  -1.958   9.900   8.124  0.1045  0.1914  0.4216
   17bbb    H17  536  -1.897   9.980   8.168 -1.1290  1.3649  0.0874
   17bbb    H18  537  -1.916   9.803   8.153  1.5052  0.7163  0.2290
   17bbb     O1  538  -1.277  10.064   7.846 -0.4317  0.3676 -0.0969
   17bbb    H19  539  -1.700   9.795   8.028  4.8348 -3.1334 -1.2387
   18bbb     N1  540  -1.537   9.281   6.229 -0.6748  0.2096 -0.1924
   18bbb     C1  541  -1.403   9.266   6.167 -0.2720 -0.4386 -0.2110
   18bbb     H1  542  -1.358   9.192   6.234  1.5433 -0.3713 -1.3055
   18bbb     H2  543  -1.358   9.364   6.182  0.3496 -0.9926  1.8366
   18bbb     C2  544  -1.593   9.139   6.256 -0.2770 -0.1448  0.0680
   18bbb     H3  545  -1.518   9.098   6.325 -1.5955  0.5328  1.9955
   18bbb     H4  546  -1.589   9.085   6.162  0.7209 -3.1686  1.7010
   18bbb     C3  547  -1.529   9.361   6.352 -0.1213 -0.5961 -0.5131
   18bbb     H5  548  -1.626   9.365   6.402  1.6314  0.8007  3.1537
   18bbb     H6  549  -1.523   9.463   6.312 -0.7008 -1.2931 -2.4953
   18bbb     C4  550  -1.408   9.325   6.445 -0.0931  0.1714  0.4294
   18bbb     H7  551  -1.312   9.350   6.397 -1.5707  1.8395 -1.8277
   18bbb     H8  552  -1.418   9.220   6.473 -0.5204 -0.3502 -1.5698
   18bbb     C5  553  -1.397   9.217   6.020  0.9109 -0.1382  0.6983
   18bbb     H9  554  -1.449   9.290   5.957 -1.2305  0.2099  2.7533
   18bbb    H10  555  -1.458   9.126   6.021 -1.0211  1.1008  2.5205
   18bbb     C6  556  -1.729   9.129   6.317  0.7956 -1.2406  0.1770
   18bbb    H11  557  -1.728   9.156   6.424  2.5117 -1.4056  0.2346
   18bbb    H12  558  -1.765   9.026   6.319  2.3114 -1.7924  0.3087
   18bbb     C7  559  -1.421   9.402   6.575  0.2498  0.2265 -0.2116
   18bbb    H13  560  -1.455   9.505   6.560  0.6665  0.3421 -0.3823
   18bbb    H14  561  -1.322   9.404   6.622  0.8811 -0.6380 -1.4448
   18bbb     C8  562  -1.847   9.209   6.247 -0.4162  0.2257 -0.2145
   18bbb    H15  563  -1.852   9.194   6.138 -0.8305  2.1485 -0.5067
   18bbb    H16  564  -1.937   9.166   6.292  0.9060  0.2176  2.6174
   18bbb     C9  565  -1.246   9.199   5.972 -0.1066  0.6837 -0.4828
   18bbb    H17  566  -1.201   9.118   6.030 -0.5250  0.2944 -0.6928
   18bbb    H18  567  -1.191   9.289   6.001 -1.1960  1.1342  0.2841
   18bbb     O1  568  -1.516   9.335   6.652  0.1209  0.1922 -0.2709
   18bbb    H19  569  -1.601   9.330   6.165  0.4729  1.2239 -0.6045
   19bbb     N1  570  -2.240   8.639   6.715 -0.0201  0.2129 -0.1157
   19bbb     C1  571  -2.262   8.697   6.580  0.4441  0.0013 -0.0914
   19bbb     H1  572  -2.195   8.632   6.523 -0.6294 -1.0211 -0.2410
   19bbb     H2  573  -2.226   8.799   6.589  3.5455 -0.9749 -0.2667
   19bbb     C2  574  -2.307   8.506   6.737 -0.4242 -0.3301  0.4306
   19bbb     H3  575  -2.415   8.522   6.729 -0.4492 -0.4253  0.5670
   19bbb     H4  576  -2.286   8.487   6.843 -0.3310 -1.2286  0.2650
   19bbb     C3  577  -2.092   8.634   6.743 -0.1209 -0.0200  0.1681
   19bbb     H5  578  -2.038   8.562   6.680  0.9733 -0.6722  1.7878
   19bbb     H6  579  -2.091   8.602   6.847 -3.5721 -1.7050 -0.1834
   19bbb     C4  580  -2.007   8.765   6.731 -0.1703  0.0514  0.4519
   19bbb     H7  581  -2.055   8.854   6.773 -0.7977  0.1987 -0.5364
   19bbb     H8  582  -2.004   8.785   6.623 -1.1591  1.4294  0.6454
   19bbb     C5  583  -2.405   8.684   6.512 -0.4589  0.2420 -0.1494
   19bbb     H9  584  -2.480   8.691   6.592  0.5275 -3.4487  1.3238
   19bbb    H10  585  -2.417   8.583   6.471 -2.0984  1.2496 -2.3517
   19bbb     C6  586  -2.272   8.388   6.648 -0.0061  0.5767  0.5388
   19bbb    H11  587  -2.166   8.362   6.662  0.0388  1.1271  1.2547
   19bbb    H12  588  -2.284   8.409   6.541 -0.3821 -1.2998  0.1799
   19bbb     C7  589  -1.863   8.751   6.782 -0.6386 -0.3621 -0.1523
   19bbb    H13  590  -1.799   8.685   6.723 -0.3524 -0.6372  0.4545
   19bbb    H14  591  -1.867   8.724   6.888  0.4445 -1.3161 -0.3404
   19bbb     C8  592  -2.361   8.269   6.681  0.0736  0.0396  0.3381
   19bbb    H15  593  -2.463   8.295   6.651  0.3310 -1.1930 -1.7785
   19bbb    H16  594  -2.330   8.177   6.629 -1.3592 -1.6603  2.3078
   19bbb     C9  595  -2.435   8.791   6.411  0.7490 -0.0315 -0.1743
   19bbb    H17  596  -2.383   8.774   6.316 -1.0206 -0.6040 -1.0811
   19bbb    H18  597  -2.414   8.889   6.456  1.7960  0.1345 -0.9904
   19bbb     O1  598  -1.808   8.885   6.780 -0.4121  0.0270 -0.1187
   19bbb    H19  599  -2.276   8.706   6.784  0.5925 -0.8879  1.3123
   20bbb     N1  600  -1.013   8.342   8.140  0.6349 -0.0742 -0.2834
   20bbb     C1  601  -1.037   8.222   8.242  0.2719 -0.1643 -0.0587
   20bbb     H1  602  -0.962   8.143   8.230  0.2283 -0.2013 -0.0785
   20bbb     H2  603  -1.125   8.164   8.214 -0.5200 -1.0861  3.6894
   20bbb     C2  604  -1.123   8.439   8.151  0.1848  0.1156 -0.5066
   20bbb     H3  605  -1.121   8.483   8.250  0.0291 -0.8738 -0.0456
   20bbb     H4  606  -1.218   8.385   8.139  0.5403 -1.1252  1.7333
   20bbb     C3  607  -0.883   8.405   8.177  0.1513  0.2839  0.3025
   20bbb     H5  608  -0.876   8.425   8.284  0.7252 -0.3184  0.3873
   20bbb     H6  609  -0.882   8.494   8.114 -0.2076  1.0921  1.4004
   20bbb     C4  610  -0.766   8.307   8.145 -0.2571 -0.3130 -0.0643
   20bbb     H7  611  -0.765   8.223   8.215  0.2393  0.1153  0.4435
   20bbb     H8  612  -0.674   8.365   8.156  1.5133 -2.4776 -2.2334
   20bbb     C5  613  -1.052   8.254   8.393  1.0991  0.1707  0.3541
   20bbb     H9  614  -1.124   8.337   8.404 -1.0668 -1.4300 -0.8132
   20bbb    H10  615  -0.960   8.297   8.433  1.5564 -2.0020  1.7473
   20bbb     C6  616  -1.122   8.555   8.045 -0.2622  1.0959  0.5885
   20bbb    H11  617  -1.026   8.609   8.044  0.2969  0.1195 -0.3556
   20bbb    H12  618  -1.202   8.628   8.060 -0.5106  0.8132  0.6343
   20bbb     C7  619  -0.766   8.249   8.005  0.0740  0.2601  0.5229
   20bbb    H13  620  -0.813   8.150   8.013  0.3293  0.1888  1.2746
   20bbb    H14  621  -0.659   8.238   7.982 -0.0265  2.2921 -1.1920
   20bbb     C8  622  -1.155   8.499   7.907  0.1318 -0.5430  0.1479
   20bbb    H15  623  -1.170   8.581   7.835  2.4870  2.0546  2.3728
   20bbb    H16  624  -1.066   8.447   7.868 -0.2091 -0.7865 -0.3101
   20bbb     C9  625  -1.107   8.136   8.481 -0.1157  0.4167  0.3191
   20bbb    H17  626  -1.144   8.177   8.575 -1.9950  0.1427 -0.2604
   20bbb    H18  627  -1.025   8.065   8.495 -0.2149  0.3268  0.4333
   20bbb     O1  628  -0.820   8.341   7.911  0.1674  0.1337 -0.1462
   20bbb    H19  629  -1.020   8.307   8.043 -1.1151  0.1839 -0.2836
   21bbb     N1  630  -0.690   7.914   6.881  0.0936  0.4322  0.2606
   21bbb     C1  631  -0.594   7.948   6.768  0.3982  0.0664  0.1425
   21bbb     H1  632  -0.655   7.953   6.677  0.1519 -1.7171  0.1726
   21bbb     H2  633  -0.516   7.875   6.744  0.8379  0.8433 -0.9153
   21bbb     C2  634  -0.760   7.791   6.853 -0.0645 -0.2599  0.0574
   21bbb     H3  635  -0.812   7.765   6.945  0.9460 -0.7785  0.4966
   21bbb     H4  636  -0.689   7.711   6.831  0.1549 -0.1238  0.2765
   21bbb     C3  637  -0.601   7.883   6.999 -0.0575  0.6167 -0.2314
   21bbb     H5  638  -0.530   7.966   7.001 -0.6089  1.1600  3.2349
   21bbb     H6  639  -0.563   7.781   6.991  0.5888  0.9680 -1.8851
   21bbb     C4  640  -0.664   7.907   7.140 -0.4761 -0.0033 -0.0285
   21bbb     H7  641  -0.763   7.860   7.152 -1.9629  2.7856 -0.4251
   21bbb     H8  642  -0.689   8.014   7.144  1.1980  0.4125 -0.0152
   21bbb     C5  643  -0.540   8.089   6.786 -0.1743  0.0400 -0.2946
   21bbb     H9  644  -0.462   8.089   6.863 -1.0812 -2.0612  0.6930
   21bbb    H10  645  -0.620   8.157   6.817 -0.8698  1.2478 -4.1096
   21bbb     C6  646  -0.851   7.796   6.729 -0.0622 -0.2532  0.4435
   21bbb    H11  647  -0.903   7.700   6.719 -0.2379 -0.1175  0.0212
   21bbb    H12  648  -0.789   7.812   6.640  1.1111  1.0538  1.4559
   21bbb     C7  649  -0.569   7.867   7.260  0.4123  0.0871 -0.5305
   21bbb    H13  650  -0.503   7.785   7.230  0.6759 -0.7358  2.0877
   21bbb    H14  651  -0.625   7.823   7.343 -0.0374  4.8415  2.0682
   21bbb     C8  652  -0.958   7.903   6.738  0.1880 -0.0218 -0.3288
   21bbb    H15  653  -0.927   8.006   6.719 -4.1853  1.3559 -1.3056
   21bbb    H16  654  -1.033   7.885   6.660  0.7016 -0.4827 -0.7261
   21bbb     C9  655  -0.471   8.140   6.659 -0.4399  0.3816  0.6911
   21bbb    H17  656  -0.389   8.069   6.642 -1.1608 -0.0863 -0.9672
   21bbb    H18  657  -0.416   8.233   6.677  0.4049 -0.0982  0.6424
   21bbb     O1  658  -0.493   7.979   7.313  0.0600 -0.3373 -0.1312
   21bbb    H19  659  -0.759   7.988   6.896  1.3369  1.5149  0.9139
   22bbb     N1  660   1.461  11.008   7.554  0.0859 -0.1143 -0.1630
   22bbb     C1  661   1.516  11.158   7.558  0.1497 -0.1535  0.4421
   22bbb     H1  662   1.546  11.179   7.661 -0.2062  5.2749 -0.2521
   22bbb     H2  663   1.435  11.230   7.550 -0.9171 -1.4766 -1.3032
   22bbb     C2  664   1.350  10.981   7.658  0.1039  0.0965  0.0613
   22bbb     H3  665   1.319  10.877   7.651  1.2316 -0.3104  0.8239
   22bbb     H4  666   1.267  11.042   7.623  0.1576  0.3193  0.3199
   22bbb     C3  667   1.403  10.984   7.414 -0.0205 -0.5690 -0.0250
   22bbb     H5  668   1.452  11.062   7.355  0.2991  0.1893  1.2074
   22bbb     H6  669   1.300  11.020   7.411 -1.1778 -3.6217 -0.2749
   22bbb     C4  670   1.417  10.846   7.345 -0.0005  0.5085 -0.4923
   22bbb     H7  671   1.343  10.783   7.395  0.2073  0.9605  0.3890
   22bbb     H8  672   1.517  10.802   7.361  0.2750  0.8778 -1.1439
   22bbb     C5  673   1.628  11.196   7.460  0.5611  0.2086  0.6163
   22bbb     H9  674   1.580  11.214   7.363 -0.7829  1.3125  1.4545
   22bbb    H10  675   1.697  11.113   7.438 -0.4668 -0.7131  0.7946
   22bbb     C6  676   1.373  11.028   7.806 -0.3608 -0.3740  0.1451
   22bbb    H11  677   1.384  11.136   7.816 -0.6975 -0.4060  0.9292
   22bbb    H12  678   1.470  10.991   7.842  0.4383  1.5155  0.0221
   22bbb     C7  679   1.384  10.846   7.190  0.0701 -0.6362 -0.4172
   22bbb    H13  680   1.461  10.901   7.136 -0.8900  0.3982 -0.7763
   22bbb    H14  681   1.291  10.902   7.174 -0.4137 -0.7937  1.5248
   22bbb     C8  682   1.258  10.979   7.893 -0.6083 -0.3685  0.1628
   22bbb    H15  683   1.250  10.870   7.900  1.3521 -0.4763  1.5738
   22bbb    H16  684   1.283  11.010   7.995 -0.6694 -1.5656  0.5543
   22bbb     C9  685   1.695  11.332   7.498  0.0955  0.3871  0.3203
   22bbb    H17  686   1.741  11.325   7.597  0.9758 -0.1675 -0.1037
   22bbb    H18  687   1.627  11.417   7.502 -0.8999 -0.4280  1.0484
   22bbb     O1  688   1.371  10.713   7.134 -0.9748 -1.2753 -0.6639
   22bbb    H19  689   1.536  10.941   7.577  2.0779  2.3880  1.1867
   23bbb     N1  690   1.008  10.376   6.113 -0.8172  0.3839  0.1407
   23bbb     C1  691   0.901  10.344   6.008  0.1870  0.6780  0.4451
   23bbb     H1  692   0.956  10.356   5.914  0.7253 -1.1816  0.4812
   23bbb     H2  693   0.825  10.421   5.998 -1.7469 -1.0178  1.3949
   23bbb     C2  694   1.094  10.499   6.072 -0.6265  0.0580  0.0280
   23bbb     H3  695   1.148  10.474   5.980 -2.0732 -0.7815 -0.6362
   23bbb     H4  696   1.162  10.505   6.157  0.1530 -2.4625 -0.3341
   23bbb     C3  697   0.953  10.398   6.252  0.0317 -0.0224  0.0951
   23bbb     H5  698   0.869  10.328   6.260 -0.2900  0.1330 -1.5734
   23bbb     H6  699   0.903  10.495   6.252 -0.4424 -0.1296 -3.6878
   23bbb     C4  700   1.051  10.392   6.373  0.2218  0.1462 -1.4514
   23bbb     H7  701   1.098  10.489   6.390 -0.2154 -0.0250  1.0437
   23bbb     H8  702   1.134  10.321   6.362  0.5237  0.3772 -0.6662
   23bbb     C5  703   0.823  10.209   6.006 -0.1893  0.3873  0.5606
   23bbb     H9  704   0.751  10.200   5.923 -0.6985  2.1002  0.7888
   23bbb    H10  705   0.784  10.200   6.108  1.2820  3.0715  1.4480
   23bbb     C6  706   1.017  10.631   6.048 -0.5824 -0.6446  0.2836
   23bbb    H11  707   0.994  10.677   6.144 -3.8211  0.4796 -0.8992
   23bbb    H12  708   0.925  10.620   5.989  0.6119 -0.8617 -1.6373
   23bbb     C7  709   0.970  10.364   6.505  0.5382 -0.1063  0.7241
   23bbb    H13  710   0.931  10.263   6.491 -2.2648  1.1061 -1.4836
   23bbb    H14  711   0.881  10.428   6.514 -1.1463 -1.8757 -1.9571
   23bbb     C8  712   1.114  10.720   5.968 -0.7654 -0.6720  0.1726
   23bbb    H15  713   1.075  10.821   5.952 -0.8307 -0.3060  2.3891
   23bbb    H16  714   1.207  10.738   6.025  0.2582 -1.0869 -1.3077
   23bbb     C9  715   0.917  10.081   5.990 -0.1875 -0.0164  0.2121
   23bbb    H17  716   0.964  10.080   5.890  0.7628  1.6880  0.5974
   23bbb    H18  717   0.870   9.983   6.004  0.4918 -0.1413  1.7076
   23bbb     O1  718   1.063  10.375   6.618  0.1694  0.0447  0.3661
   23bbb    H19  719   1.071  10.295   6.107 -1.1537  0.2232 -1.4567
   24bbb     N1  720   1.503   9.080   6.448 -0.7024  0.5050  0.4441
   24bbb     C1  721   1.386   8.986   6.407  0.0172 -0.1540  0.4176
   24bbb     H1  722   1.372   8.912   6.486 -1.9575 -0.5469 -0.2521
   24bbb     H2  723   1.431   8.933   6.322  2.3747 -2.0596  2.6505
   24bbb     C2  724   1.580   9.136   6.325  0.3085 -0.0167  0.2988
   24bbb     H3  725   1.511   9.211   6.284 -1.2201 -1.9272 -0.7930
   24bbb     H4  726   1.576   9.053   6.254 -1.4693  0.6635 -0.4616
   24bbb     C3  727   1.476   9.189   6.553  0.1280 -0.0434  0.6482
   24bbb     H5  728   1.416   9.274   6.521  1.2112  0.9137  1.1013
   24bbb     H6  729   1.570   9.244   6.562 -0.4222  1.1744 -0.6361
   24bbb     C4  730   1.416   9.161   6.693 -0.1038 -0.3945  0.8093
   24bbb     H7  731   1.497   9.101   6.737  0.2714 -0.9469 -0.5782
   24bbb     H8  732   1.325   9.100   6.686 -2.3686  2.9099 -1.7976
   24bbb     C5  733   1.249   9.056   6.378 -0.4160  0.1806 -0.6602
   24bbb     H9  734   1.270   9.138   6.308 -0.8586  0.1093 -0.8757
   24bbb    H10  735   1.213   9.090   6.475 -1.5629  1.0322 -1.3646
   24bbb     C6  736   1.728   9.179   6.337  0.6876 -0.2398  0.0044
   24bbb    H11  737   1.779   9.105   6.401  0.6116 -1.6926 -1.5334
   24bbb    H12  738   1.729   9.274   6.392 -0.5115 -0.1293 -0.1314
   24bbb     C7  739   1.396   9.290   6.792 -0.5913  0.9082  0.5092
   24bbb    H13  740   1.366   9.255   6.891 -1.7805  0.0568 -0.1369
   24bbb    H14  741   1.326   9.361   6.747 -0.7121  0.1172 -0.5917
   24bbb     C8  742   1.782   9.179   6.192  0.5102 -0.0357 -0.1439
   24bbb    H15  743   1.784   9.071   6.169  0.0815 -0.2729  0.8578
   24bbb    H16  744   1.709   9.233   6.131 -0.2962 -1.3625 -0.4108
   24bbb     C9  745   1.138   8.971   6.316  0.5118 -0.6926 -0.0281
   24bbb    H17  746   1.047   9.032   6.309 -1.1471 -3.0090  0.2990
   24bbb    H18  747   1.111   8.887   6.381  0.8332 -0.4502  0.4366
   24bbb     O1  748   1.525   9.359   6.807  0.2784 -0.3621 -0.8824
   24bbb    H19  749   1.573   9.012   6.483 -0.1776  0.8982  0.1710
   25bbb     N1  750   2.099   8.798   7.235 -0.0470  0.6118  0.0096
   25bbb     C1  751   2.014   8.679   7.178 -0.0478 -0.0088 -0.1256
   25bbb     H1  752   2.075   8.614   7.115  2.2477 -0.2069  2.1662
   25bbb     H2  753   1.948   8.735   7.111 -1.2587 -0.5768  0.5666
   25bbb     C2  754   2.226   8.740   7.284  0.1798  0.0012 -0.3394
   25bbb     H3  755   2.271   8.711   7.190  0.7631  1.4526 -0.5347
   25bbb     H4  756   2.203   8.650   7.343  1.5410 -0.9173 -1.1725
   25bbb     C3  757   2.129   8.906   7.127 -0.5994  0.7351 -0.3455
   25bbb     H5  758   2.160   8.846   7.042  2.1866  0.3565  0.8387
   25bbb     H6  759   2.222   8.957   7.152  1.9627 -3.2058 -1.0021
   25bbb     C4  760   2.007   8.990   7.101  0.4243  0.6329 -0.1888
   25bbb     H7  761   1.980   9.019   7.203  0.8620  1.1584 -0.2143
   25bbb     H8  762   1.928   8.931   7.053 -0.5864  2.0658 -0.3292
   25bbb     C5  763   1.937   8.589   7.274  0.3728  0.2914 -0.2624
   25bbb     H9  764   1.854   8.648   7.314  0.8202  1.1346 -0.5383
   25bbb    H10  765   2.015   8.560   7.347  0.4567  1.3243  0.0820
   25bbb     C6  766   2.325   8.829   7.370  0.2817 -0.0273  0.2429
   25bbb    H11  767   2.275   8.918   7.411  0.1505 -0.1960  0.4482
   25bbb    H12  768   2.407   8.868   7.308 -0.0719  0.7705  0.2630
   25bbb     C7  769   2.034   9.113   7.010  0.3997 -0.1473 -0.2341
   25bbb    H13  770   1.940   9.164   6.987  0.2698 -0.6831 -0.9267
   25bbb    H14  771   2.084   9.077   6.919  2.5249  1.1117  0.3517
   25bbb     C8  772   2.380   8.740   7.488  0.3424  0.2076  0.9478
   25bbb    H15  773   2.435   8.812   7.550  2.3734 -0.2218 -0.2523
   25bbb    H16  774   2.297   8.690   7.541 -1.0366  0.8113 -0.5636
   25bbb     C9  775   1.888   8.457   7.211  0.3640  0.0027 -0.4349
   25bbb    H17  776   1.810   8.484   7.140  0.7041  0.0226 -0.8016
   25bbb    H18  777   1.845   8.392   7.289 -1.3500 -0.1161 -1.4333
   25bbb     O1  778   2.114   9.205   7.087  0.2678 -0.0415 -0.1983
   25bbb    H19  779   2.047   8.832   7.318  1.3786  1.0733  0.7560
   26bbb     N1  780   1.262   9.743   9.755 -0.3322 -0.4727  0.0766
   26bbb     C1  781   1.174   9.729   9.879  0.1704 -0.7341 -0.4894
   26bbb     H1  782   1.138   9.626   9.880  1.1308 -1.0727 -0.3485
   26bbb     H2  783   1.096   9.804   9.863  3.1861  2.4749 -1.3352
   26bbb     C2  784   1.361   9.626   9.746  0.0603  0.1084  0.4328
   26bbb     H3  785   1.306   9.537   9.717 -0.1194  0.2899  0.2137
   26bbb     H4  786   1.413   9.610   9.841  0.6664  0.6635  0.2007
   26bbb     C3  787   1.170   9.745   9.631 -0.3496 -0.0335  0.7368
   26bbb     H5  788   1.098   9.664   9.635  0.0926 -0.4271  0.8218
   26bbb     H6  789   1.235   9.740   9.543  0.7712  0.0288  1.5336
   26bbb     C4  790   1.104   9.883   9.612  0.0895 -0.0056 -0.8939
   26bbb     H7  791   1.177   9.961   9.637 -0.7759  0.0411  1.8016
   26bbb     H8  792   1.027   9.904   9.687  0.9381  1.1498 -0.3046
   26bbb     C5  793   1.235   9.770  10.009 -0.1792  0.5032 -0.0959
   26bbb     H9  794   1.307   9.692  10.038  0.5272  1.7458  1.6145
   26bbb    H10  795   1.153   9.757  10.080 -1.7966 -0.0934 -1.9546
   26bbb     C6  796   1.483   9.649   9.650  0.1769  0.0149  0.1213
   26bbb    H11  797   1.452   9.681   9.550 -1.3999  3.5785  1.6066
   26bbb    H12  798   1.526   9.549   9.633 -0.1782  0.0814 -1.3593
   26bbb     C7  799   1.037   9.899   9.474  0.1386 -0.1816 -0.5700
   26bbb    H13  800   0.964   9.980   9.471  0.7198  0.3357 -1.9662
   26bbb    H14  801   0.982   9.808   9.447  1.9722 -1.8127  0.8110
   26bbb     C8  802   1.582   9.746   9.705 -0.2310 -0.6027 -0.4145
   26bbb    H15  803   1.609   9.714   9.806 -0.5272  1.6936  0.4701
   26bbb    H16  804   1.665   9.736   9.635  0.1949  0.0427 -0.0141
   26bbb     C9  805   1.301   9.909  10.012  0.3850 -0.1730 -0.2378
   26bbb    H17  806   1.396   9.916   9.956  0.1946  1.7192 -0.4146
   26bbb    H18  807   1.324   9.940  10.115  0.4084 -0.1628 -0.2459
   26bbb     O1  808   1.134   9.930   9.376  0.0810  0.8289  0.3139
   26bbb    H19  809   1.314   9.831   9.750 -2.5644  0.8767 -3.2190
   27bbb     N1  810   0.668  10.255   8.880  1.1522  0.0105 -0.3204
   27bbb     C1  811   0.591  10.307   9.003  0.1637 -0.6026  1.0522
   27bbb     H1  812   0.648  10.272   9.090 -2.9469 -1.8013  2.7705
   27bbb     H2  813   0.497  10.255   9.017  1.4231 -3.3536  0.0034
   27bbb     C2  814   0.811  10.294   8.890  0.3136 -0.2798 -0.7081
   27bbb     H3  815   0.865  10.230   8.960 -1.6332  0.5082  1.6511
   27bbb     H4  816   0.816  10.399   8.920  2.0300 -0.3674 -0.5909
   27bbb     C3  817   0.665  10.103   8.879  0.2171 -0.0241 -0.3055
   27bbb     H5  818   0.694  10.066   8.978  0.6334 -0.4973 -0.6025
   27bbb     H6  819   0.742  10.077   8.807 -0.3065  0.6337 -1.1176
   27bbb     C4  820   0.545  10.029   8.828  0.5276  0.6999 -0.2951
   27bbb     H7  821   0.527  10.063   8.725  2.2240 -1.8668 -1.5500
   27bbb     H8  822   0.465  10.041   8.902  0.8160 -3.6328  0.9636
   27bbb     C5  823   0.562  10.458   8.994 -0.5438 -0.3375  0.3356
   27bbb     H9  824   0.513  10.492   8.903 -0.0571  1.6107  0.7662
   27bbb    H10  825   0.658  10.510   8.990 -1.9474  2.3761 -2.4705
   27bbb     C6  826   0.881  10.293   8.753 -0.2131  0.1031 -0.2454
   27bbb    H11  827   0.824  10.356   8.683  0.3919 -0.2810 -1.1009
   27bbb    H12  828   0.888  10.194   8.708  1.0986  0.6594 -1.3616
   27bbb     C7  829   0.561   9.869   8.819  1.0380 -0.2545 -0.4074
   27bbb    H13  830   0.635   9.834   8.746  2.5508 -1.3202  1.5250
   27bbb    H14  831   0.467   9.820   8.790  0.4634  0.4091  0.3066
   27bbb     C8  832   1.021  10.358   8.767  0.0752 -0.2645  0.1466
   27bbb    H15  833   1.075  10.353   8.672 -2.5691  0.3490 -1.5075
   27bbb    H16  834   1.070  10.305   8.849  0.8813 -0.0412 -0.1785
   27bbb     C9  835   0.514  10.513   9.126  0.3190 -0.2504  0.1500
   27bbb    H17  836   0.587  10.498   9.207 -1.0777 -1.5103  1.2204
   27bbb    H18  837   0.498  10.621   9.124 -1.8360 -0.5316 -1.3972
   27bbb     O1  838   0.578   9.818   8.957  0.2605  0.5231  0.4271
   27bbb    H19  839   0.636  10.294   8.791  0.5112 -0.8709 -0.4939
   28bbb     N1  840   0.257   7.910   9.050  0.1009  0.5427 -0.2256
   28bbb     C1  841   0.187   7.841   9.169 -0.0184 -0.1545 -0.1580
   28bbb     H1  842   0.222   7.880   9.265  1.3350  0.7218 -0.9817
   28bbb     H2  843   0.220   7.737   9.176 -1.7883 -0.7662 -0.2755
   28bbb     C2  844   0.220   7.827   8.923 -0.2633  0.0936 -0.3212
   28bbb     H3  845   0.116   7.850   8.901 -1.6638 -1.3433  3.7728
   28bbb     H4  846   0.232   7.724   8.958  1.5286  0.0914 -0.8514
   28bbb     C3  847   0.202   8.045   9.022 -0.0768 -0.7824  0.1282
   28bbb     H5  848   0.142   8.081   9.105 -0.5861  0.0282 -0.5757
   28bbb     H6  849   0.126   8.042   8.944 -1.4012  0.7177  1.3046
   28bbb     C4  850   0.304   8.156   8.997 -0.1161 -0.3633  0.0812
   28bbb     H7  851   0.388   8.127   8.933 -0.5436  0.2068 -0.7592
   28bbb     H8  852   0.345   8.193   9.091  1.6489  1.5293 -1.3374
   28bbb     C5  853   0.037   7.858   9.181  0.4351 -0.2228  0.2592
   28bbb     H9  854  -0.007   7.843   9.082  1.1590 -1.2539  0.0756
   28bbb    H10  855   0.013   7.959   9.218 -0.9868 -1.3874  2.8109
   28bbb     C6  856   0.307   7.857   8.804 -0.1467 -0.4578  0.6057
   28bbb    H11  857   0.314   7.965   8.784  0.0423 -0.4207  0.8687
   28bbb    H12  858   0.274   7.821   8.706  1.8969  0.6422 -0.5749
   28bbb     C7  859   0.235   8.278   8.927  0.6403  0.1142 -0.0870
   28bbb    H13  860   0.305   8.362   8.934  0.9075 -0.1623  0.7084
   28bbb    H14  861   0.146   8.312   8.981  0.0561  0.3907 -1.2139
   28bbb     C8  862   0.459   7.831   8.821  0.0282 -0.3728  0.0689
   28bbb    H15  863   0.514   7.877   8.738  0.2800  0.0139  0.4487
   28bbb    H16  864   0.502   7.870   8.914 -1.1302  1.6728 -0.1990
   28bbb     C9  865  -0.006   7.750   9.284  0.0467  0.5765 -0.5363
   28bbb    H17  866  -0.115   7.755   9.295  0.0222 -0.1232 -0.4739
   28bbb    H18  867   0.032   7.767   9.386  0.7693 -2.0494 -0.3177
   28bbb     O1  868   0.209   8.259   8.785 -0.1588 -0.5408 -0.3201
   28bbb    H19  869   0.358   7.911   9.068  0.2769 -0.1652 -1.1260
   29bbb     N1  870   0.351   8.298   7.851  0.3922  0.3095 -0.5767
   29bbb     C1  871   0.280   8.177   7.905 -0.5780 -0.7532  0.0355
   29bbb     H1  872   0.238   8.189   8.005 -1.0830  0.3517 -0.3023
   29bbb     H2  873   0.358   8.099   7.905 -0.5854 -0.8122  1.9183
   29bbb     C2  874   0.374   8.300   7.700 -0.5682  0.3384  0.3722
   29bbb     H3  875   0.407   8.402   7.678  1.6883  0.0644  2.1574
   29bbb     H4  876   0.282   8.273   7.648 -0.6484  0.0556  0.6553
   29bbb     C3  877   0.264   8.413   7.894 -0.2448 -0.1022  0.5305
   29bbb     H5  878   0.256   8.416   8.002  0.3084 -1.1969  0.6187
   29bbb     H6  879   0.163   8.394   7.857 -1.1159  1.5570  1.9057
   29bbb     C4  880   0.302   8.559   7.851  0.2088  0.6586 -0.0505
   29bbb     H7  881   0.286   8.563   7.743 -0.8311  1.5240  0.1144
   29bbb     H8  882   0.406   8.576   7.882  0.5353 -0.7046 -0.3527
   29bbb     C5  883   0.161   8.122   7.818  0.3788 -0.4238 -0.0643
   29bbb     H9  884   0.192   8.059   7.734 -1.5201 -3.1506  1.1156
   29bbb    H10  885   0.098   8.202   7.778  1.1229 -0.4969 -1.4451
   29bbb     C6  886   0.478   8.197   7.649  0.0311 -0.7834  0.0729
   29bbb    H11  887   0.456   8.095   7.681  0.0841 -0.8388 -0.0693
   29bbb    H12  888   0.578   8.225   7.683  1.0033 -1.5932 -1.9749
   29bbb     C7  889   0.204   8.654   7.916 -0.6637 -0.0798 -0.8080
   29bbb    H13  890   0.101   8.621   7.899 -0.8959  0.0813  0.2288
   29bbb    H14  891   0.215   8.749   7.863 -2.8214 -0.9745 -3.0682
   29bbb     C8  892   0.475   8.199   7.490  0.1032  0.3370  1.3024
   29bbb    H15  893   0.370   8.194   7.460  0.5669  0.2406 -0.3854
   29bbb    H16  894   0.522   8.284   7.439 -0.2499  0.0376  0.4598
   29bbb     C9  895   0.053   8.040   7.888  0.2196  0.4520 -0.3775
   29bbb    H17  896  -0.031   8.029   7.819  0.0415 -1.8294  0.1247
   29bbb    H18  897   0.027   8.081   7.986  1.0227 -3.5353  1.7065
   29bbb     O1  898   0.233   8.656   8.062 -0.1845  0.5165  0.0528
   29bbb    H19  899   0.445   8.309   7.891  0.6933  0.5217 -1.3417
   30ccc     C1  900  -0.570  10.958   5.625 -0.3510  0.8632 -0.2973
   30ccc     H1  901  -0.602  10.947   5.521 -1.7547 -1.8050  0.3209
   30ccc     H2  902  -0.656  11.001   5.678 -0.9138 -0.0050 -0.4722
   30ccc     C2  903  -0.445  11.044   5.641 -0.5278  0.3593  0.2883
   30ccc     H3  904  -0.424  11.049   5.749  0.4133 -1.6242  0.2389
   30ccc     H4  905  -0.477  11.138   5.596 -1.3115 -0.5090 -1.0597
   30ccc     C3  906  -0.331  10.983   5.560  0.7357  0.3961  0.4351
   30ccc     H5  907  -0.360  10.978   5.455 -0.4314 -2.6814  0.8052
   30ccc     H6  908  -0.312  10.879   5.585  0.3640  0.1615 -0.2219
   30ccc     N1  909  -0.199  11.062   5.549 -0.1172  0.4098 -0.1412
   30ccc     C4  910  -0.088  10.982   5.490  0.4831  0.5776  0.5857
   30ccc     H7  911   0.005  11.037   5.473  0.8730  0.1053  1.1475
   30ccc     H8  912  -0.132  10.950   5.395 -0.8934 -1.2494  1.7728
   30ccc     C5  913  -0.047  10.856   5.577 -0.3619 -0.8625  0.5933
   30ccc     H9  914  -0.056  10.884   5.683 -2.1111 -0.8351  0.4619
   30ccc    H10  915  -0.108  10.769   5.552 -0.4966 -0.4098 -0.7408
   30ccc     C6  916   0.097  10.821   5.540  0.1616 -0.2314  1.3779
   30ccc     O1  917   0.146  10.862   5.435  0.3533 -0.2140  0.2986
   30ccc     O2  918   0.186  10.789   5.630  0.1705 -0.2514 -0.1087
   30ccc    H11  919   0.272  10.803   5.586 -1.5461  2.3470 -3.0611
   30ccc     C7  920  -0.237  11.183   5.466 -0.5995 -0.5429  0.6909
   30ccc    H12  921  -0.169  11.197   5.382 -2.2325  0.7009 -0.4959
   30ccc    H13  922  -0.337  11.171   5.423 -0.7509  0.9211  0.5584
   30ccc     C8  923  -0.244  11.310   5.551 -0.0182  0.0061  0.6944
   30ccc    H14  924  -0.286  11.289   5.650  0.7910  0.8754  1.2514
   30ccc    H15  925  -0.138  11.340   5.555  0.5721 -1.9184  0.4521
   30ccc     C9  926  -0.323  11.416   5.479 -0.6753  0.3963 -0.1228
   30ccc     O3  927  -0.422  11.401   5.410  0.1149 -0.1277 -0.0325
   30ccc     O4  928  -0.282  11.541   5.498  0.5054  0.5085  0.1862
   30ccc    H16  929  -0.339  11.599   5.443  1.3961  1.7134  0.4785
   30ccc     O5  930  -0.543  10.822   5.667  0.2055  0.3470 -0.5942
   30ccc    H17  931  -0.177  11.084   5.647  2.1985 -2.7402  0.1983
   31ccc     C1  932   0.126  10.465   5.704 -0.2886 -0.0054  0.1423
   31ccc     H1  933   0.142  10.357   5.697  1.2777  0.2905 -1.3878
   31ccc     H2  934   0.158  10.516   5.612  2.3856  0.4081  1.2115
   31ccc     C2  935   0.209  10.530   5.818 -0.8263  0.0011  0.4250
   31ccc     H3  936   0.228  10.638   5.815  1.2748 -0.2648  1.7841
   31ccc     H4  937   0.310  10.487   5.811 -1.6477 -2.3398  1.7356
   31ccc     C3  938   0.149  10.499   5.958  0.4906 -0.8891  0.1838
   31ccc     H5  939   0.149  10.392   5.976  0.2155 -0.9697 -0.2962
   31ccc     H6  940   0.048  10.539   5.967  1.0256  0.5431  0.0810
   31ccc     N1  941   0.224  10.560   6.073 -0.1519 -0.3845  0.1117
   31ccc     C4  942   0.148  10.529   6.203  0.9276 -0.6070 -0.2120
   31ccc     H7  943   0.183  10.604   6.275  0.9472 -0.2966 -0.5419
   31ccc     H8  944   0.169  10.428   6.238  2.2855  0.3497  1.9491
   31ccc     C5  945  -0.006  10.569   6.208  0.2941 -0.0343 -0.4496
   31ccc     H9  946  -0.020  10.608   6.309  0.8910  0.1267 -0.4251
   31ccc    H10  947  -0.030  10.650   6.138  1.2520 -1.1041 -2.1003
   31ccc     C6  948  -0.098  10.452   6.178  0.3302 -0.4582 -0.1202
   31ccc     O1  949  -0.070  10.355   6.111 -0.3201 -0.1533 -0.3711
   31ccc     O2  950  -0.220  10.468   6.223  0.5540 -0.0648 -0.4014
   31ccc    H11  951  -0.224  10.543   6.286 -2.4884  1.1041 -1.7833
   31ccc     C7  952   0.370  10.511   6.083 -0.1102 -0.3634  1.2581
   31ccc    H12  953   0.364  10.403   6.071 -1.2585 -0.2358  0.4181
   31ccc    H13  954   0.420  10.554   5.996 -2.7795  1.0079  0.2781
   31ccc     C8  955   0.440  10.549   6.211  0.0859  0.2121  0.9510
   31ccc    H14  956   0.443  10.658   6.221  1.0597  0.3132 -0.1738
   31ccc    H15  957   0.384  10.504   6.293  0.2456 -0.6931  0.5735
   31ccc     C9  958   0.578  10.495   6.211 -0.3947 -0.4258 -0.7218
   31ccc     O3  959   0.622  10.426   6.124 -0.4409  0.2696  0.2291
   31ccc     O4  960   0.629  10.489   6.341 -0.4376  0.8261  0.5605
   31ccc    H16  961   0.566  10.541   6.394 -0.5378  0.3432  0.9272
   31ccc     O5  962  -0.009  10.511   5.741 -0.4920 -0.4357 -0.4460
   31ccc    H17  963   0.220  10.661   6.058  0.5915 -0.7471 -3.3513
   32ccc     C1  964   0.037   9.025   5.827  0.2063 -0.0517  0.1172
   32ccc     H1  965   0.132   9.073   5.799 -0.9955  0.4079 -3.9223
   32ccc     H2  966   0.037   8.982   5.928  0.4180 -2.3226 -0.7748
   32ccc     C2  967   0.022   8.906   5.723  0.4182 -0.2926  0.0015
   32ccc     H3  968   0.087   8.823   5.752 -0.7055 -1.0400  0.4314
   32ccc     H4  969   0.059   8.929   5.622  0.2830 -1.2225 -0.2711
   32ccc     C3  970  -0.120   8.849   5.712  0.1219 -0.1799 -0.8232
   32ccc     H5  971  -0.189   8.915   5.659  0.6965  3.1494  2.1770
   32ccc     H6  972  -0.160   8.831   5.812 -0.4358  2.7036 -0.4387
   32ccc     N1  973  -0.141   8.711   5.643  0.2386 -0.1348 -0.9649
   32ccc     C4  974  -0.100   8.612   5.750  0.6534 -0.5427 -0.3376
   32ccc     H7  975  -0.171   8.604   5.833  1.2472  0.7097  0.3255
   32ccc     H8  976  -0.011   8.658   5.794  0.7983  0.9512 -2.0483
   32ccc     C5  977  -0.071   8.466   5.706  0.4940 -0.1358 -0.0764
   32ccc     H9  978  -0.155   8.428   5.647 -0.6210 -0.5067  1.6576
   32ccc    H10  979   0.017   8.456   5.641  0.7129  2.7532 -0.3620
   32ccc     C6  980  -0.055   8.375   5.819 -0.2022 -0.6798 -0.7584
   32ccc     O1  981   0.047   8.390   5.887 -0.1369  0.2978 -0.2441
   32ccc     O2  982  -0.127   8.264   5.826  0.1029 -0.0007 -0.0216
   32ccc    H11  983  -0.083   8.227   5.904  0.2796  2.1126  0.9543
   32ccc     C7  984  -0.292   8.686   5.609 -0.6566 -0.4184 -0.9696
   32ccc    H12  985  -0.298   8.579   5.594 -1.1410 -0.3467 -1.3060
   32ccc    H13  986  -0.360   8.718   5.687 -0.3070  0.4171 -0.9913
   32ccc     C8  987  -0.341   8.756   5.478 -0.0884 -0.1239 -0.1539
   32ccc    H14  988  -0.291   8.853   5.470  0.2625 -0.3325 -0.5016
   32ccc    H15  989  -0.317   8.695   5.390 -0.1610 -0.3815  0.0031
   32ccc     C9  990  -0.488   8.785   5.472  0.1095  0.4626  0.3691
   32ccc     O3  991  -0.545   8.844   5.558  0.0254  0.0493 -0.0263
   32ccc     O4  992  -0.547   8.770   5.352  0.2340  0.5217 -0.7504
   32ccc    H16  993  -0.489   8.706   5.307  1.4162  0.5711  0.6124
   32ccc     O5  994  -0.066   9.123   5.810 -0.1115  0.2971  0.2913
   32ccc    H17  995  -0.076   8.714   5.562  1.1980 -0.1364 -0.2176
   33ccc     C1  996  -0.392   9.121   5.190  0.9749 -0.5861 -0.8798
   33ccc     H1  997  -0.357   9.200   5.123 -0.7711 -0.4185 -1.6206
   33ccc     H2  998  -0.342   9.028   5.159  0.4861 -1.9978  2.1825
   33ccc     C2  999  -0.549   9.123   5.173 -0.9958 -0.1794 -0.0840
   33ccc     H3 1000  -0.574   9.059   5.259  1.1904  0.3231  0.9737
   33ccc     H4 1001  -0.580   9.075   5.079 -2.6479  3.2150 -1.4303
   33ccc     C3 1002  -0.618   9.266   5.184  0.2398  0.6073  0.2467
   33ccc     H5 1003  -0.561   9.316   5.106  2.8354 -0.9029  1.0581
   33ccc     H6 1004  -0.597   9.310   5.282 -0.8625  0.4798  0.5554
   33ccc     N1 1005  -0.768   9.260   5.137 -0.0525 -0.6284  0.0348
   33ccc     C4 1006  -0.852   9.179   5.233 -0.2653  0.3779 -0.0919
   33ccc     H7 1007  -0.850   9.236   5.326  0.5177  0.4121 -0.1221
   33ccc     H8 1008  -0.792   9.090   5.253 -0.0600  0.8798  1.7260
   33ccc     C5 1009  -0.988   9.126   5.190  0.3297  0.8973 -0.1192
   33ccc     H9 1010  -1.033   9.167   5.099 -0.2908 -1.1331 -0.7828
   33ccc    H10 1011  -0.965   9.024   5.159 -0.4910  1.4049 -2.6127
   33ccc     C6 1012  -1.084   9.129   5.304  0.0307 -0.0901 -0.1205
   33ccc     O1 1013  -1.057   9.169   5.420 -0.2971  0.6045  0.1927
   33ccc     O2 1014  -1.201   9.080   5.267  0.1131 -0.1488 -0.1158
   33ccc    H11 1015  -1.198   9.065   5.171 -0.7934 -2.4711  0.1279
   33ccc     C7 1016  -0.814   9.401   5.140  0.3330 -0.4134 -0.6617
   33ccc    H12 1017  -0.923   9.404   5.140  0.2278  0.9062  2.9443
   33ccc    H13 1018  -0.790   9.442   5.238  2.6866 -0.7114 -1.0567
   33ccc     C8 1019  -0.748   9.484   5.025  0.7001 -0.1497 -0.2550
   33ccc    H14 1020  -0.641   9.498   5.041  0.9182  0.4593 -2.0445
   33ccc    H15 1021  -0.756   9.420   4.936  2.2067 -0.8014  0.0495
   33ccc     C9 1022  -0.820   9.620   5.014  0.3604  0.8717  0.3498
   33ccc     O3 1023  -0.905   9.651   4.931 -0.1259  0.1077 -0.3371
   33ccc     O4 1024  -0.790   9.700   5.119 -0.1896  0.0412 -0.0504
   33ccc    H16 1025  -0.845   9.778   5.101 -0.7842  0.4729  3.0603
   33ccc     O5 1026  -0.352   9.161   5.324  0.6936 -0.0623  0.2573
   33ccc    H17 1027  -0.773   9.220   5.042 -1.5687 -0.8266  0.1754
   34ccc     C1 1028  -1.495  11.034   7.448  0.5363 -0.3388 -0.5463
   34ccc     H1 1029  -1.582  11.071   7.503  0.3717  1.7996 -2.1207
   34ccc     H2 1030  -1.400  11.063   7.495  1.3715  1.8150 -3.2907
   34ccc     C2 1031  -1.496  11.088   7.302 -0.0914 -0.3127 -0.0779
   34ccc     H3 1032  -1.438  11.017   7.241 -0.1987 -0.9428  0.5459
   34ccc     H4 1033  -1.443  11.184   7.301  1.8706 -1.3427 -0.9210
   34ccc     C3 1034  -1.646  11.097   7.257 -0.0403  0.1936 -0.2163
   34ccc     H5 1035  -1.669  11.200   7.228  2.1035  0.2466 -2.0011
   34ccc     H6 1036  -1.703  11.055   7.339 -0.3417 -0.5525 -0.7995
   34ccc     N1 1037  -1.680  11.010   7.131  0.6114 -0.1809  0.2004
   34ccc     C4 1038  -1.591  11.040   7.011 -0.3606  0.2333 -0.5758
   34ccc     H7 1039  -1.486  11.028   7.039 -0.0680  2.0909 -0.7750
   34ccc     H8 1040  -1.610  11.145   6.989  1.0386  0.4222 -0.9505
   34ccc     C5 1041  -1.608  10.958   6.877  0.4091  0.1159 -0.9728
   34ccc     H9 1042  -1.564  10.859   6.893 -0.8761 -0.2258  0.6663
   34ccc    H10 1043  -1.714  10.960   6.848 -0.0754  0.7993  0.7148
   34ccc     C6 1044  -1.520  11.015   6.764 -0.2721 -0.2299 -0.2103
   34ccc     O1 1045  -1.408  11.051   6.799  0.2101  0.0382  0.8042
   34ccc     O2 1046  -1.552  10.975   6.639 -0.7287  0.3974 -0.0508
   34ccc    H11 1047  -1.632  10.920   6.636 -1.3437  1.0134  2.6153
   34ccc     C7 1048  -1.673  10.862   7.163  1.0364  0.3560  0.1515
   34ccc    H12 1049  -1.685  10.803   7.072 -1.0095  0.1239  0.5162
   34ccc    H13 1050  -1.570  10.847   7.195  0.4887 -2.5762  0.7768
   34ccc     C8 1051  -1.781  10.822   7.267 -0.0716 -0.2954  0.2528
   34ccc    H14 1052  -1.742  10.844   7.367  1.2050 -2.3458  0.2677
   34ccc    H15 1053  -1.873  10.878   7.244 -0.6750 -1.4267 -0.1754
   34ccc     C9 1054  -1.829  10.677   7.262  1.0869 -0.8242 -0.4669
   34ccc     O3 1055  -1.770  10.581   7.219  0.0268  0.2746 -0.2245
   34ccc     O4 1056  -1.960  10.671   7.276  0.4626  0.6057  0.3717
   34ccc    H16 1057  -1.986  10.581   7.251 -0.7191  0.7759  0.9185
   34ccc     O5 1058  -1.501  10.884   7.434  0.4700  0.1791  0.2674
   34ccc    H17 1059  -1.776  11.032   7.102 -0.8259  0.8670  4.8921
   35ccc     C1 1060  -1.155  11.184   7.398 -0.3209 -0.2341  0.0881
   35ccc     H1 1061  -1.252  11.232   7.414  0.2869  0.7636  1.0114
   35ccc     H2 1062  -1.089  11.222   7.478 -0.1397 -0.2423 -0.0564
   35ccc     C2 1063  -1.098  11.222   7.268 -0.6950  0.2834  0.7149
   35ccc     H3 1064  -1.180  11.204   7.197 -0.7601  0.0864  0.8389
   35ccc     H4 1065  -1.012  11.162   7.238  0.1578  2.5527 -1.9063
   35ccc     C3 1066  -1.057  11.366   7.252 -0.4389 -0.2306 -0.9069
   35ccc     H5 1067  -0.993  11.398   7.335  0.1221 -0.9943 -1.0325
   35ccc     H6 1068  -1.148  11.424   7.265  1.2759  2.4014  0.3174
   35ccc     N1 1069  -0.979  11.394   7.125  0.3857  0.2274 -0.8075
   35ccc     C4 1070  -0.987  11.550   7.110 -0.0121  0.4105 -0.1113
   35ccc     H7 1071  -0.914  11.597   7.044 -0.5339  1.7314  0.2143
   35ccc     H8 1072  -0.958  11.584   7.210  2.3742 -1.0813 -0.2073
   35ccc     C5 1073  -1.123  11.601   7.070  0.1776 -0.0986 -0.1017
   35ccc     H9 1074  -1.138  11.601   6.961 -1.7700  0.4166  0.1416
   35ccc    H10 1075  -1.207  11.548   7.116  1.0137 -2.1857 -0.8230
   35ccc     C6 1076  -1.128  11.747   7.120 -0.1618 -0.1258 -0.3054
   35ccc     O1 1077  -1.125  11.774   7.238 -0.4372  0.1965 -0.2270
   35ccc     O2 1078  -1.125  11.842   7.031 -0.2625  0.4767 -0.1800
   35ccc    H11 1079  -1.139  11.919   7.090 -1.4004 -0.3760  0.7079
   35ccc     C7 1080  -0.839  11.353   7.126 -0.0336  0.1372 -1.4295
   35ccc    H12 1081  -0.778  11.438   7.094 -0.4370  1.6663  1.5532
   35ccc    H13 1082  -0.812  11.320   7.226 -0.9169 -1.0928 -1.5663
   35ccc     C8 1083  -0.810  11.229   7.036 -0.1669  0.1790 -0.1820
   35ccc    H14 1084  -0.881  11.155   7.075 -0.0587  0.1233 -0.0922
   35ccc    H15 1085  -0.828  11.244   6.929  0.4808  0.8398 -0.2080
   35ccc     C9 1086  -0.669  11.167   7.060  0.2123 -0.1484 -0.4216
   35ccc     O3 1087  -0.579  11.231   7.117  0.1168 -0.1281 -0.2991
   35ccc     O4 1088  -0.648  11.057   6.986  0.6169 -0.0041  0.4177
   35ccc    H16 1089  -0.551  11.059   6.988  0.6083  0.3087  0.7783
   35ccc     O5 1090  -1.165  11.039   7.411  0.1278  0.0610  0.3607
   35ccc    H17 1091  -1.037  11.358   7.048  0.4705  0.2824 -0.8973
   36ccc     C1 1092  -1.421   9.510   8.171  0.1066  0.0592  0.1117
   36ccc     H1 1093  -1.331   9.569   8.152 -1.2730  1.6936 -1.7878
   36ccc     H2 1094  -1.471   9.565   8.252  0.1447  0.8620 -0.3972
   36ccc     C2 1095  -1.373   9.368   8.213  0.5479  0.4080 -0.4938
   36ccc     H3 1096  -1.462   9.306   8.226  1.7724 -2.1125 -3.1471
   36ccc     H4 1097  -1.322   9.365   8.310 -0.2931 -0.2332 -0.0623
   36ccc     C3 1098  -1.299   9.310   8.092  0.4817 -0.1045 -0.4492
   36ccc     H5 1099  -1.249   9.390   8.038  0.3042 -0.0905 -0.5971
   36ccc     H6 1100  -1.370   9.264   8.023  0.3264 -0.8128  0.1696
   36ccc     N1 1101  -1.188   9.213   8.116 -0.0117 -0.4222 -0.0683
   36ccc     C4 1102  -1.254   9.093   8.187  0.4854 -0.4830 -0.4943
   36ccc     H7 1103  -1.306   9.129   8.276  0.3257 -4.0762  1.0746
   36ccc     H8 1104  -1.172   9.028   8.219  1.5014  0.4366 -1.1469
   36ccc     C5 1105  -1.358   9.014   8.102 -0.0966  0.1430  1.1567
   36ccc     H9 1106  -1.449   9.074   8.095 -1.6183 -2.1321 -4.0767
   36ccc    H10 1107  -1.330   8.993   7.998 -1.4736 -0.2665  0.8504
   36ccc     C6 1108  -1.404   8.888   8.168 -1.0910  0.3289  0.0014
   36ccc     O1 1109  -1.350   8.841   8.268  0.2931  0.4492  0.2058
   36ccc     O2 1110  -1.490   8.819   8.099  0.2187 -0.0875 -0.2697
   36ccc    H11 1111  -1.502   8.741   8.156 -0.9911 -0.1569 -0.5811
   36ccc     C7 1112  -1.114   9.168   7.980  0.5117 -0.1496 -0.2196
   36ccc    H12 1113  -1.178   9.113   7.911  0.0291 -0.2264  0.2788
   36ccc    H13 1114  -1.092   9.260   7.926 -0.4167 -0.2598 -0.8064
   36ccc     C8 1115  -0.978   9.089   7.997  0.3093  0.0101  0.9703
   36ccc    H14 1116  -0.930   9.084   7.899 -1.0886  0.2530  0.2338
   36ccc    H15 1117  -0.917   9.151   8.064  0.9724  2.6139 -1.8067
   36ccc     C9 1118  -0.983   8.947   8.046 -0.2602  0.7176 -0.6969
   36ccc     O3 1119  -1.079   8.891   8.088  0.0506 -0.8294  0.0287
   36ccc     O4 1120  -0.863   8.888   8.053 -0.2138  0.3087 -0.1624
   36ccc    H16 1121  -0.800   8.958   8.027 -1.9286  1.0577 -2.6128
   36ccc     O5 1122  -1.498   9.504   8.047  0.0868 -0.0329 -0.0547
   36ccc    H17 1123  -1.120   9.256   8.180  0.8694 -0.3513 -1.0259
   37ccc     C1 1124  -2.101   9.906   8.318 -0.5910 -0.1618  0.5831
   37ccc     H1 1125  -2.088   9.802   8.352  0.5188 -1.5495 -3.5227
   37ccc     H2 1126  -2.013   9.955   8.360  0.6282 -1.2588 -0.5838
   37ccc     C2 1127  -2.242   9.958   8.362  0.0861  0.4606  0.3086
   37ccc     H3 1128  -2.259   9.945   8.470  0.4703  0.4859  0.3768
   37ccc     H4 1129  -2.310   9.890   8.309  2.1518 -0.4472 -1.3164
   37ccc     C3 1130  -2.267  10.100   8.302 -0.9123  0.0663  0.4024
   37ccc     H5 1131  -2.244  10.113   8.196  1.7395 -0.8470  0.8024
   37ccc     H6 1132  -2.189  10.153   8.358 -1.3501  0.1181  0.9703
   37ccc     N1 1133  -2.402  10.157   8.348  0.1007  0.6149  0.2144
   37ccc     C4 1134  -2.407  10.306   8.313  0.2195 -0.8960 -0.4986
   37ccc     H7 1135  -2.508  10.338   8.340  0.1777 -0.8787 -0.6708
   37ccc     H8 1136  -2.407  10.305   8.204 -1.6399  0.8048 -0.5828
   37ccc     C5 1137  -2.307  10.391   8.384 -0.0307 -0.7333  0.4394
   37ccc     H9 1138  -2.311  10.376   8.492 -0.5114  1.7323  0.8329
   37ccc    H10 1139  -2.205  10.375   8.348 -0.4921 -1.3205 -0.6559
   37ccc     C6 1140  -2.340  10.540   8.356 -0.4950  0.9399  1.0043
   37ccc     O1 1141  -2.394  10.584   8.259  0.0243  0.0977 -0.3588
   37ccc     O2 1142  -2.290  10.619   8.450  0.1291 -0.3117  0.5540
   37ccc    H11 1143  -2.347  10.696   8.433  1.1483  0.4639  0.5970
   37ccc     C7 1144  -2.507  10.080   8.270  0.0141 -0.3113  0.2447
   37ccc    H12 1145  -2.493  10.093   8.162  1.5605  1.6365  0.6115
   37ccc    H13 1146  -2.511   9.973   8.287 -4.5619 -0.2006  1.1745
   37ccc     C8 1147  -2.655  10.119   8.300  0.1891 -0.0131  0.0765
   37ccc    H14 1148  -2.695  10.071   8.390 -2.5332 -0.2011 -1.1324
   37ccc    H15 1149  -2.664  10.225   8.327 -0.6088 -0.1679  0.4433
   37ccc     C9 1150  -2.749  10.083   8.191 -0.4336 -1.2292 -0.7443
   37ccc     O3 1151  -2.709  10.063   8.078 -0.2711 -0.3910 -0.5605
   37ccc     O4 1152  -2.878  10.090   8.221 -0.0854  0.0071 -0.0250
   37ccc    H16 1153  -2.929  10.058   8.145 -3.5580  0.1790  2.0060
   37ccc     O5 1154  -2.092   9.918   8.175 -0.1823 -0.1446  0.1230
   37ccc    H17 1155  -2.411  10.135   8.449 -0.3214  0.0791  0.0707
   38ccc     C1 1156  -1.951   9.431   6.252 -0.1569 -0.3078 -0.3299
   38ccc     H1 1157  -1.959   9.441   6.143  0.4858  1.3890 -0.2518
   38ccc     H2 1158  -2.035   9.375   6.295  0.4530 -1.4278 -0.5556
   38ccc     C2 1159  -1.943   9.571   6.326  0.4307  0.1814  0.6109
   38ccc     H3 1160  -1.927   9.556   6.433 -0.0788  1.5954  0.9104
   38ccc     H4 1161  -2.035   9.626   6.301  2.1756  1.5296 -4.0324
   38ccc     C3 1162  -1.826   9.658   6.281  0.3792  0.3081 -0.1519
   38ccc     H5 1163  -1.839   9.683   6.176  0.9196  1.0461 -0.0546
   38ccc     H6 1164  -1.737   9.595   6.285 -2.4653 -4.2846 -1.1154
   38ccc     N1 1165  -1.805   9.788   6.364  0.7012  0.4488  0.3118
   38ccc     C4 1166  -1.742   9.758   6.500 -0.2229  0.3376  1.3585
   38ccc     H7 1167  -1.633   9.760   6.492 -0.2329  1.2669  1.3004
   38ccc     H8 1168  -1.764   9.654   6.525 -0.5729 -0.6916 -2.6476
   38ccc     C5 1169  -1.793   9.854   6.612 -0.3386 -0.1623  0.3381
   38ccc     H9 1170  -1.783   9.954   6.569  1.9612 -1.3451 -2.1717
   38ccc    H10 1171  -1.901   9.836   6.622 -0.3303 -1.6632 -1.5078
   38ccc     C6 1172  -1.727   9.834   6.746  0.3426  0.1609  1.1484
   38ccc     O1 1173  -1.643   9.746   6.769 -0.0922  0.2174  0.6892
   38ccc     O2 1174  -1.773   9.902   6.853  0.4836 -0.1620  0.2475
   38ccc    H11 1175  -1.845   9.955   6.816 -0.9369 -1.3821  1.1922
   38ccc     C7 1176  -1.747   9.914   6.297  0.3555 -0.1082  0.1796
   38ccc    H12 1177  -1.725   9.990   6.371 -2.4397  1.4492 -0.4680
   38ccc    H13 1178  -1.653   9.884   6.249 -0.4031  0.1679 -1.5273
   38ccc     C8 1179  -1.842   9.968   6.190  0.5902 -1.1480 -0.1786
   38ccc    H14 1180  -1.884   9.887   6.129 -0.9170  0.0418 -0.8094
   38ccc    H15 1181  -1.928  10.028   6.223  1.5513  0.5229 -0.5987
   38ccc     C9 1182  -1.771  10.067   6.094  0.1621 -0.2198 -0.6655
   38ccc     O3 1183  -1.663  10.116   6.114 -0.4525  0.2867 -0.0206
   38ccc     O4 1184  -1.814  10.054   5.970  0.3405  0.1570  0.0749
   38ccc    H16 1185  -1.747  10.114   5.932  1.4841 -1.1252 -0.0454
   38ccc     O5 1186  -1.835   9.348   6.285 -0.1105 -0.4851 -0.1675
   38ccc    H17 1187  -1.899   9.828   6.381  1.1671  2.0821 -0.6568
   39ccc     C1 1188  -1.281   9.039   5.784  0.0847  0.0388  0.1879
   39ccc     H1 1189  -1.369   9.004   5.840 -0.1936  2.0729  1.0989
   39ccc     H2 1190  -1.305   9.051   5.678 -1.8092  1.3237  0.7128
   39ccc     C2 1191  -1.150   8.954   5.813 -0.6763 -0.3588  0.0722
   39ccc     H3 1192  -1.150   8.864   5.750  0.9418  0.7595 -1.6427
   39ccc     H4 1193  -1.132   8.937   5.920 -0.2026  0.6849  0.1753
   39ccc     C3 1194  -1.021   9.027   5.765  0.1891  0.3523  1.4070
   39ccc     H5 1195  -1.029   9.132   5.793 -2.0749  0.4886  0.4702
   39ccc     H6 1196  -1.016   9.029   5.656 -1.1402  0.4634  1.3291
   39ccc     N1 1197  -0.888   8.958   5.807  0.1264 -0.0289 -0.0343
   39ccc     C4 1198  -0.876   8.813   5.748  0.2928  0.6477 -0.5434
   39ccc     H7 1199  -0.962   8.766   5.797  0.7383 -0.4878 -0.8064
   39ccc     H8 1200  -0.781   8.773   5.786 -0.8346 -1.2260  0.4682
   39ccc     C5 1201  -0.894   8.785   5.600  0.2205  0.3467  0.0813
   39ccc     H9 1202  -0.991   8.819   5.561 -0.2822 -2.5366 -1.4680
   39ccc    H10 1203  -0.812   8.834   5.545  0.4412 -0.8216 -0.6743
   39ccc     C6 1204  -0.872   8.634   5.580 -0.4338 -0.0651  0.2048
   39ccc     O1 1205  -0.876   8.547   5.663  1.0368 -0.0457  0.3474
   39ccc     O2 1206  -0.816   8.606   5.466 -0.1939 -0.3240 -0.0119
   39ccc    H11 1207  -0.821   8.685   5.409 -0.2367 -1.0788 -1.0900
   39ccc     C7 1208  -0.763   9.034   5.750 -0.0694  0.5128 -0.2341
   39ccc    H12 1209  -0.750   8.989   5.651 -0.6625  4.3814 -2.2746
   39ccc    H13 1210  -0.795   9.138   5.740 -0.3654  0.3400 -1.2262
   39ccc     C8 1211  -0.625   9.021   5.833 -0.4177 -0.5624  0.6680
   39ccc    H14 1212  -0.634   9.076   5.927 -1.2519  2.0768 -0.8566
   39ccc    H15 1213  -0.599   8.917   5.858 -2.4322 -0.9203  1.4543
   39ccc     C9 1214  -0.509   9.093   5.765  0.1250  0.0144 -0.3127
   39ccc     O3 1215  -0.514   9.173   5.668  0.3778  0.3592 -0.1389
   39ccc     O4 1216  -0.387   9.075   5.820 -0.0465  0.1684  0.2167
   39ccc    H16 1217  -0.399   9.012   5.894 -0.4467 -1.9120 -1.5156
   39ccc     O5 1218  -1.255   9.174   5.829  0.2745 -0.3060 -0.0050
   39ccc    H17 1219  -0.872   8.958   5.908 -0.1195  0.4065  0.0064
   40ccc     C1 1220  -2.429   8.135   6.879 -0.4378 -0.8715 -0.2827
   40ccc     H1 1221  -2.529   8.177   6.862  0.1653  0.9670  0.4811
   40ccc     H2 1222  -2.424   8.041   6.822  2.1958  0.0681 -1.7701
   40ccc     C2 1223  -2.407   8.128   7.030 -0.0119  0.1441 -0.2349
   40ccc     H3 1224  -2.485   8.078   7.087  2.5193 -1.5538  1.9954
   40ccc     H4 1225  -2.397   8.230   7.069  2.2932  0.0851 -0.4887
   40ccc     C3 1226  -2.291   8.035   7.065 -0.1055  0.1745  0.0224
   40ccc     H5 1227  -2.237   8.017   6.972  1.9547  1.6407  0.8715
   40ccc     H6 1228  -2.327   7.938   7.099  0.9031 -0.6973 -1.2995
   40ccc     N1 1229  -2.199   8.089   7.176  0.4301 -0.2949 -0.2384
   40ccc     C4 1230  -2.147   8.225   7.141  0.0540 -0.3810 -0.0690
   40ccc     H7 1231  -2.104   8.280   7.225 -1.2070 -0.4083  0.6136
   40ccc     H8 1232  -2.228   8.286   7.103  1.7958  1.0712 -1.6644
   40ccc     C5 1233  -2.044   8.228   7.024  0.4536 -0.3538 -0.1118
   40ccc     H9 1234  -1.948   8.186   7.057  0.2440  0.5639  1.7984
   40ccc    H10 1235  -2.089   8.172   6.941 -0.0637  1.5914 -1.2081
   40ccc     C6 1236  -2.020   8.364   6.965  0.1300  0.0197 -0.5163
   40ccc     O1 1237  -2.054   8.470   7.022 -0.7367 -1.3297  0.3660
   40ccc     O2 1238  -1.976   8.357   6.839  0.2887 -0.0526 -0.0412
   40ccc    H11 1239  -1.941   8.267   6.828 -0.3834 -0.5718  1.7458
   40ccc     C7 1240  -2.275   8.089   7.311  0.2223  0.1902  1.1006
   40ccc    H12 1241  -2.348   8.168   7.291  0.2181  0.6223  2.6670
   40ccc    H13 1242  -2.318   7.989   7.313  1.4805 -0.4897 -1.5693
   40ccc     C8 1243  -2.183   8.100   7.433 -0.2504  0.2116  0.0713
   40ccc    H14 1244  -2.118   8.013   7.440  2.9252  2.5226  1.7512
   40ccc    H15 1245  -2.107   8.178   7.423 -0.0571 -0.0718 -0.6758
   40ccc     C9 1246  -2.256   8.134   7.566 -0.8931  0.9915 -0.0724
   40ccc     O3 1247  -2.357   8.201   7.573  0.0090  0.2784 -0.1682
   40ccc     O4 1248  -2.171   8.131   7.674 -0.2373  0.7942  0.4127
   40ccc    H16 1249  -2.223   8.190   7.730  0.2541 -0.8385  2.7369
   40ccc     O5 1250  -2.336   8.236   6.826  0.1585 -0.2794  0.4458
   40ccc    H17 1251  -2.116   8.029   7.192 -1.1303 -2.1418  1.4396
   41ccc     C1 1252  -2.600   8.836   6.245 -0.0914  0.4861  0.4748
   41ccc     H1 1253  -2.569   8.940   6.238  2.2493 -0.2842 -2.0959
   41ccc     H2 1254  -2.557   8.782   6.160 -0.5657  0.1529  0.4390
   41ccc     C2 1255  -2.751   8.815   6.218 -0.5594 -0.7343 -0.8216
   41ccc     H3 1256  -2.771   8.709   6.202 -1.2200 -0.5061 -1.5197
   41ccc     H4 1257  -2.778   8.881   6.135 -0.7795 -2.3338 -2.0516
   41ccc     C3 1258  -2.823   8.870   6.343 -0.2860  0.8269  0.3181
   41ccc     H5 1259  -2.807   8.977   6.356 -0.8823  1.2165 -1.8419
   41ccc     H6 1260  -2.790   8.813   6.431  1.7663 -0.5833 -1.2758
   41ccc     N1 1261  -2.973   8.853   6.344  0.8767 -0.0438 -0.3216
   41ccc     C4 1262  -3.032   8.860   6.490  0.4623 -0.5098  0.1848
   41ccc     H7 1263  -3.131   8.903   6.474  1.1574  0.8594 -0.6571
   41ccc     H8 1264  -2.976   8.939   6.541 -1.6503  0.5678  0.9705
   41ccc     C5 1265  -3.035   8.733   6.571  0.6004  0.1260  0.2820
   41ccc     H9 1266  -3.101   8.661   6.522 -0.9245  0.5924  1.5531
   41ccc    H10 1267  -2.936   8.684   6.574  0.1408 -1.0770 -2.1069
   41ccc     C6 1268  -3.096   8.746   6.709  0.1724 -0.7807  0.0208
   41ccc     O1 1269  -3.113   8.855   6.759  0.0442 -0.2077 -0.0094
   41ccc     O2 1270  -3.092   8.638   6.790  0.3401 -0.4783  0.3888
   41ccc    H11 1271  -3.075   8.560   6.734 -0.8728 -1.4842  1.3765
   41ccc     C7 1272  -3.035   8.957   6.255  0.4106 -0.2640 -0.3597
   41ccc    H12 1273  -3.127   8.992   6.303  0.8780 -0.9108  1.0450
   41ccc    H13 1274  -2.960   9.035   6.248 -0.6350  0.8391  0.2997
   41ccc     C8 1275  -3.075   8.910   6.114  0.1332 -0.0407 -0.3936
   41ccc    H14 1276  -3.022   8.817   6.091 -1.2128 -0.9719  0.1951
   41ccc    H15 1277  -3.176   8.871   6.099  0.7099 -0.7272 -2.8522
   41ccc     C9 1278  -3.054   9.008   6.008  0.2937  0.1713  0.3380
   41ccc     O3 1279  -3.017   9.122   6.030 -0.7242  0.1806 -0.1783
   41ccc     O4 1280  -3.108   8.984   5.892  0.0920  0.8729 -0.1516
   41ccc    H16 1281  -3.130   8.889   5.900 -0.7932  1.2032  1.6481
   41ccc     O5 1282  -2.566   8.777   6.371 -0.1863  0.1624  0.1921
   41ccc    H17 1283  -2.990   8.755   6.317  3.7766 -0.3891 -1.2707
   42ccc     C1 1284  -1.282   8.335   7.781  0.1704  0.5150  0.5459
   42ccc     H1 1285  -1.274   8.401   7.693  1.5835 -2.6609 -1.9224
   42ccc     H2 1286  -1.214   8.252   7.756  0.1687  0.8873 -0.7581
   42ccc     C2 1287  -1.420   8.277   7.785  0.2059  0.2286 -0.0506
   42ccc     H3 1288  -1.403   8.171   7.808 -0.2505  0.4300  1.3446
   42ccc     H4 1289  -1.469   8.277   7.687 -0.1003 -0.8112  0.0819
   42ccc     C3 1290  -1.539   8.342   7.871 -0.7666 -0.4013  0.5770
   42ccc     H5 1291  -1.504   8.368   7.971 -0.4272  2.4871 -0.2168
   42ccc     H6 1292  -1.618   8.267   7.878  0.2675 -1.5435  0.3060
   42ccc     N1 1293  -1.592   8.468   7.804  0.4565 -0.3876  0.2278
   42ccc     C4 1294  -1.729   8.484   7.862 -0.0136 -0.5112 -0.4669
   42ccc     H7 1295  -1.725   8.568   7.931  1.9708  0.3142 -1.5267
   42ccc     H8 1296  -1.745   8.407   7.937  2.3418  0.3427  1.0010
   42ccc     C5 1297  -1.847   8.504   7.757  0.4380 -0.9602 -0.7350
   42ccc     H9 1298  -1.837   8.605   7.714 -0.5711 -0.7699 -0.5395
   42ccc    H10 1299  -1.845   8.434   7.673 -0.4489 -1.4697 -0.3354
   42ccc     C6 1300  -1.984   8.488   7.828  0.9643 -0.3802  0.2536
   42ccc     O1 1301  -2.010   8.468   7.948  0.0409  0.2016  0.0136
   42ccc     O2 1302  -2.082   8.515   7.739  0.3803 -0.2475 -0.2573
   42ccc    H11 1303  -2.053   8.507   7.646 -1.9454  1.7307 -1.2700
   42ccc     C7 1304  -1.491   8.583   7.832  0.3218  0.5679  0.6884
   42ccc    H12 1305  -1.456   8.574   7.935  1.5160 -0.8361  0.1978
   42ccc    H13 1306  -1.403   8.570   7.769  1.8603 -0.5737  2.9061
   42ccc     C8 1307  -1.546   8.717   7.806  0.3472 -0.3686 -0.3230
   42ccc    H14 1308  -1.586   8.719   7.704 -0.9569  0.5440  0.1805
   42ccc    H15 1309  -1.632   8.746   7.868  0.7600 -1.1140  0.6210
   42ccc     C9 1310  -1.444   8.824   7.815  0.6030  0.3258 -0.3919
   42ccc     O3 1311  -1.330   8.803   7.839  0.4276  0.4669  0.1500
   42ccc     O4 1312  -1.490   8.951   7.800 -0.1679  0.5956 -0.0781
   42ccc    H16 1313  -1.582   8.939   7.770 -0.1066  1.1459 -0.4966
   42ccc     O5 1314  -1.262   8.405   7.902 -0.2221  0.8485 -0.6649
   42ccc    H17 1315  -1.601   8.457   7.702 -0.1791 -1.0249  0.3455
   43ccc     C1 1316  -1.241   7.945   8.429  0.2487  0.2956 -0.1373
   43ccc     H1 1317  -1.160   7.888   8.382 -0.2135  0.3035 -0.9772
   43ccc     H2 1318  -1.243   7.932   8.538 -2.3056 -1.8706 -0.3636
   43ccc     C2 1319  -1.382   7.906   8.377  0.2554 -0.0796  0.2743
   43ccc     H3 1320  -1.386   7.798   8.399  1.8601  0.3033  2.8846
   43ccc     H4 1321  -1.388   7.934   8.271  3.3154  1.0912  0.3088
   43ccc     C3 1322  -1.495   7.978   8.451  0.0981  0.1286  0.5926
   43ccc     H5 1323  -1.482   8.086   8.438  1.3788 -0.1292 -0.5100
   43ccc     H6 1324  -1.495   7.958   8.558 -0.6186  2.0893  1.0018
   43ccc     N1 1325  -1.639   7.934   8.404 -0.0018  0.1889 -0.3154
   43ccc     C4 1326  -1.670   7.975   8.263  0.3750 -0.6656 -0.3675
   43ccc     H7 1327  -1.622   7.914   8.186  0.6469  1.1640 -1.7094
   43ccc     H8 1328  -1.623   8.072   8.245  1.8017 -1.1631  0.5223
   43ccc     C5 1329  -1.824   7.984   8.218 -0.1207  0.2729  0.5876
   43ccc     H9 1330  -1.865   7.883   8.205  1.5852 -0.3533 -0.2898
   43ccc    H10 1331  -1.890   8.025   8.296 -0.8124 -1.0353  0.7175
   43ccc     C6 1332  -1.847   8.073   8.100  0.8059  0.4609 -0.2329
   43ccc     O1 1333  -1.761   8.148   8.068  0.1255 -0.3615 -0.4983
   43ccc     O2 1334  -1.916   8.013   8.000  0.1747  0.3426 -0.2046
   43ccc    H11 1335  -1.948   7.930   8.040 -2.0965  1.9567  1.5767
   43ccc     C7 1336  -1.649   7.783   8.423  0.1281 -0.7508 -0.0382
   43ccc    H12 1337  -1.736   7.758   8.363 -0.3336  3.1160 -1.2017
   43ccc    H13 1338  -1.558   7.735   8.384 -0.3268 -0.6544 -1.2443
   43ccc     C8 1339  -1.656   7.743   8.572  0.6779 -0.1077  0.3555
   43ccc    H14 1340  -1.566   7.771   8.629 -0.4982  1.1636  1.6578
   43ccc    H15 1341  -1.741   7.798   8.614 -0.0036 -1.0238  0.1928
   43ccc     C9 1342  -1.675   7.596   8.583 -0.2098  0.7830 -0.3941
   43ccc     O3 1343  -1.674   7.516   8.490 -0.2578  0.6602  0.3196
   43ccc     O4 1344  -1.700   7.553   8.707 -0.0076  0.2592  0.2380
   43ccc    H16 1345  -1.737   7.629   8.755 -0.4181  0.2382 -0.0407
   43ccc     O5 1346  -1.213   8.082   8.399  0.2037  0.1904 -0.4472
   43ccc    H17 1347  -1.704   7.986   8.464  0.8254  1.4567 -0.4790
   44ccc     C1 1348  -1.132   7.977   6.893 -0.1504 -0.7402 -0.2568
   44ccc     H1 1349  -1.102   8.081   6.873  3.7365 -1.6290  0.0436
   44ccc     H2 1350  -1.216   7.948   6.828 -0.8136  0.4981  0.0270
   44ccc     C2 1351  -1.183   7.968   7.036 -1.1521  0.5833 -0.5395
   44ccc     H3 1352  -1.288   8.001   7.033 -1.0204  1.1344  0.4561
   44ccc     H4 1353  -1.116   8.028   7.098 -0.5218 -0.3187 -0.3281
   44ccc     C3 1354  -1.184   7.832   7.101 -0.0015 -0.7116 -0.0021
   44ccc     H5 1355  -1.082   7.795   7.109  0.1958 -0.3220 -0.6683
   44ccc     H6 1356  -1.250   7.767   7.043 -0.9994 -1.2272  1.6382
   44ccc     N1 1357  -1.239   7.822   7.247  0.3952  0.6377 -0.0479
   44ccc     C4 1358  -1.237   7.678   7.298  0.0249  0.0750  0.8032
   44ccc     H7 1359  -1.276   7.672   7.400  1.0451 -0.1587  1.1960
   44ccc     H8 1360  -1.134   7.642   7.295  0.0779  0.1721  1.3168
   44ccc     C5 1361  -1.322   7.586   7.212  0.8387 -0.6086  0.0876
   44ccc     H9 1362  -1.408   7.630   7.159  1.0721  0.3342  0.4671
   44ccc    H10 1363  -1.252   7.550   7.135  0.6134 -0.8568 -0.0035
   44ccc     C6 1364  -1.368   7.458   7.284 -0.0099  0.6373 -0.4750
   44ccc     O1 1365  -1.356   7.438   7.404 -0.4500  0.0743  0.0943
   44ccc     O2 1366  -1.426   7.366   7.202  0.0471 -0.0479 -0.2597
   44ccc    H11 1367  -1.442   7.303   7.274 -0.0190  0.6670  0.3533
   44ccc     C7 1368  -1.157   7.912   7.340 -0.2370 -0.1099 -0.5380
   44ccc    H12 1369  -1.051   7.894   7.317  0.7377  0.8181  2.6839
   44ccc    H13 1370  -1.185   8.012   7.306  0.9113  0.1212 -0.8624
   44ccc     C8 1371  -1.184   7.906   7.490 -0.5255 -0.6200 -0.2241
   44ccc    H14 1372  -1.288   7.927   7.516 -0.7680 -1.8259 -0.2010
   44ccc    H15 1373  -1.146   7.810   7.527  3.2223  0.6255 -0.4139
   44ccc     C9 1374  -1.106   8.012   7.568  0.1270  0.4741 -0.7214
   44ccc     O3 1375  -1.058   8.113   7.516 -0.6740 -0.0657 -0.5568
   44ccc     O4 1376  -1.095   7.988   7.698  0.3062 -0.2195  0.4974
   44ccc    H16 1377  -1.151   7.912   7.721 -0.3563 -0.5619 -1.9578
   44ccc     O5 1378  -1.015   7.893   6.869 -0.0396  0.1427  0.2042
   44ccc    H17 1379  -1.333   7.865   7.245  0.5644  1.0713  0.8434
   45ccc     C1 1380  -0.499   8.140   6.424  0.8119  0.2185 -0.3223
   45ccc     H1 1381  -0.416   8.211   6.430 -1.3954  2.8510  2.2602
   45ccc     H2 1382  -0.461   8.038   6.417  1.9815  0.6160  0.0129
   45ccc     C2 1383  -0.597   8.172   6.312  0.6326  0.1792 -0.2215
   45ccc     H3 1384  -0.641   8.271   6.332 -2.3960 -0.9733 -0.7366
   45ccc     H4 1385  -0.677   8.098   6.307 -0.2651  1.1814 -1.3232
   45ccc     C3 1386  -0.526   8.180   6.175 -0.3266  0.1863 -0.0527
   45ccc     H5 1387  -0.454   8.099   6.174  0.0845  0.5511 -0.3502
   45ccc     H6 1388  -0.485   8.281   6.179  1.1233 -0.3242 -1.0780
   45ccc     N1 1389  -0.616   8.170   6.049 -0.3269  0.2376  0.2663
   45ccc     C4 1390  -0.561   8.270   5.945 -0.1920  0.8928 -0.0785
   45ccc     H7 1391  -0.645   8.279   5.877  0.2440  0.9864 -0.6114
   45ccc     H8 1392  -0.467   8.239   5.898 -0.0996  1.2072 -0.1041
   45ccc     C5 1393  -0.536   8.409   5.995  0.4222  0.3856  0.3460
   45ccc     H9 1394  -0.615   8.443   6.064 -0.7664 -1.3143 -0.1142
   45ccc    H10 1395  -0.440   8.420   6.046  1.9709 -0.8211 -2.1254
   45ccc     C6 1396  -0.518   8.502   5.880 -0.0204 -0.1546  0.4547
   45ccc     O1 1397  -0.435   8.489   5.790  0.5642 -0.2037 -0.8134
   45ccc     O2 1398  -0.615   8.591   5.857 -0.2147 -0.6913  0.4432
   45ccc    H11 1399  -0.667   8.605   5.938 -0.7856  1.0220 -0.1782
   45ccc     C7 1400  -0.597   8.040   5.987 -0.2339  0.0464  0.2116
   45ccc    H12 1401  -0.514   8.055   5.918 -1.1867 -0.1104 -0.9879
   45ccc    H13 1402  -0.567   7.977   6.072 -0.8601 -1.4821 -0.6555
   45ccc     C8 1403  -0.713   7.971   5.919  0.5779  0.1625  0.9151
   45ccc    H14 1404  -0.745   8.034   5.835  1.2802  0.1289  0.6117
   45ccc    H15 1405  -0.674   7.872   5.891  1.8918  0.1814  2.5393
   45ccc     C9 1406  -0.828   7.949   6.009 -0.7242 -0.0031  0.2344
   45ccc     O3 1407  -0.829   7.982   6.124  0.5588  0.0915  0.1187
   45ccc     O4 1408  -0.935   7.891   5.952  0.1404 -0.1087 -0.0689
   45ccc    H16 1409  -1.005   7.912   6.018 -1.3575 -0.3413 -1.5138
   45ccc     O5 1410  -0.563   8.156   6.550  0.0261  0.3791  0.0745
   45ccc    H17 1411  -0.712   8.194   6.077 -0.5429  0.4188 -0.5814
   46ccc     C1 1412   1.019  11.011   7.896  0.0820  0.4959  0.2436
   46ccc     H1 1413   1.006  10.903   7.887 -1.7464  0.7719 -0.9789
   46ccc     H2 1414   1.027  11.032   8.003 -3.1976 -0.6732  0.8317
   46ccc     C2 1415   0.901  11.099   7.832 -0.9529  0.1290 -0.0891
   46ccc     H3 1416   0.917  11.208   7.830 -2.6567  0.3950 -0.3484
   46ccc     H4 1417   0.810  11.081   7.890 -1.2907 -0.7925 -0.8748
   46ccc     C3 1418   0.881  11.053   7.685  0.4826  0.0499 -0.6666
   46ccc     H5 1419   0.978  11.037   7.636 -0.5369 -1.5152 -2.3228
   46ccc     H6 1420   0.824  11.129   7.633 -2.2080 -1.5474 -0.2465
   46ccc     N1 1421   0.799  10.924   7.663 -0.5506  0.3796  0.4989
   46ccc     C4 1422   0.876  10.797   7.709 -0.0649 -0.1029 -0.1468
   46ccc     H7 1423   0.866  10.795   7.818  0.9105  0.1311 -0.0451
   46ccc     H8 1424   0.980  10.812   7.681  0.2955 -1.5332  0.3752
   46ccc     C5 1425   0.813  10.668   7.654  0.4407  0.2294 -0.4597
   46ccc     H9 1426   0.715  10.639   7.693  0.7571 -2.7584 -1.6014
   46ccc    H10 1427   0.791  10.702   7.552 -2.6002  0.4922  0.1764
   46ccc     C6 1428   0.906  10.550   7.667 -0.1999  1.4257  0.4568
   46ccc     O1 1429   1.001  10.541   7.746 -0.5246  0.2994 -0.0218
   46ccc     O2 1430   0.910  10.476   7.550 -0.4886  0.6560  0.2713
   46ccc    H11 1431   0.837  10.501   7.490 -0.5222 -0.6496 -0.2689
   46ccc     C7 1432   0.662  10.932   7.725 -0.2831  0.6561 -0.1211
   46ccc    H12 1433   0.619  10.832   7.733 -1.1584  1.0362  0.0390
   46ccc    H13 1434   0.685  10.969   7.825  0.0620  2.1272 -0.7227
   46ccc     C8 1435   0.566  11.036   7.659 -0.5046  0.3199 -0.2125
   46ccc    H14 1436   0.616  11.134   7.651  0.9956 -0.2817  1.3239
   46ccc    H15 1437   0.545  11.007   7.555  1.1031 -1.2970 -0.1406
   46ccc     C9 1438   0.429  11.052   7.723  1.1611 -0.6695  0.6310
   46ccc     O3 1439   0.396  11.007   7.830  0.2871 -0.3780 -0.1892
   46ccc     O4 1440   0.365  11.154   7.670 -0.7307  0.2089 -0.2908
   46ccc    H16 1441   0.404  11.180   7.585 -1.2269  2.0190 -0.0134
   46ccc     O5 1442   1.143  11.049   7.839 -0.7675  0.2897 -0.2735
   46ccc    H17 1443   0.790  10.909   7.561 -1.1845  0.0309  0.6014
   47ccc     C1 1444   1.861  11.480   7.399 -0.1968 -0.0432  0.0231
   47ccc     H1 1445   1.897  11.493   7.296 -0.4574  2.3666  0.1947
   47ccc     H2 1446   1.783  11.557   7.407 -1.4184 -1.1026 -1.1431
   47ccc     C2 1447   1.978  11.490   7.500 -0.5316 -0.2006  0.4125
   47ccc     H3 1448   1.951  11.490   7.606  2.6385  0.5971  1.3026
   47ccc     H4 1449   2.046  11.573   7.483  1.3773 -1.9275 -0.8478
   47ccc     C3 1450   2.061  11.360   7.486 -0.4746  0.4006  0.1779
   47ccc     H5 1451   2.093  11.351   7.382 -0.4561  2.5453 -0.0465
   47ccc     H6 1452   2.002  11.274   7.516 -0.1429  0.5198  1.2093
   47ccc     N1 1453   2.181  11.348   7.571  0.1562  0.3050 -0.7108
   47ccc     C4 1454   2.237  11.201   7.565  0.3465 -0.6895  0.6624
   47ccc     H7 1455   2.160  11.128   7.591  0.1603 -1.6745 -2.2653
   47ccc     H8 1456   2.325  11.192   7.630  0.6058 -2.9259  0.1054
   47ccc     C5 1457   2.297  11.155   7.435  0.5000  0.5354  0.2386
   47ccc     H9 1458   2.305  11.243   7.369  1.1728  0.8331  0.6992
   47ccc    H10 1459   2.392  11.102   7.445  0.9709  1.3051 -0.0818
   47ccc     C6 1460   2.195  11.064   7.367  0.4224  0.4333 -0.1859
   47ccc     O1 1461   2.101  11.102   7.297  0.2873 -0.4611  0.8362
   47ccc     O2 1462   2.208  10.935   7.398 -0.3349 -0.0884 -0.4742
   47ccc    H11 1463   2.152  10.888   7.334 -0.8125 -1.3819  0.8338
   47ccc     C7 1464   2.291  11.445   7.540  0.2359 -0.2772  0.4794
   47ccc    H12 1465   2.336  11.399   7.452 -1.4589 -1.0195 -0.0394
   47ccc    H13 1466   2.261  11.534   7.486  0.1896 -1.1715 -1.0197
   47ccc     C8 1467   2.387  11.467   7.653  0.2690  0.2516 -0.2065
   47ccc    H14 1468   2.341  11.520   7.737 -0.6050 -0.3751 -0.2748
   47ccc    H15 1469   2.418  11.372   7.699  1.0980  0.1376 -0.9643
   47ccc     C9 1470   2.507  11.551   7.618 -0.4149 -0.2091 -0.0781
   47ccc     O3 1471   2.499  11.651   7.554 -0.0591 -0.5136 -0.3789
   47ccc     O4 1472   2.625  11.498   7.654  0.4044  0.2344 -0.1381
   47ccc    H16 1473   2.697  11.556   7.624  1.1020 -0.5175  0.0395
   47ccc     O5 1474   1.795  11.350   7.398  0.2719  0.0159 -0.3384
   47ccc    H17 1475   2.158  11.355   7.672  1.3879  0.0453 -0.3945
   48ccc     C1 1476   1.271  10.705   5.779 -0.0856  0.4219 -0.7097
   48ccc     H1 1477   1.272  10.812   5.759  0.0576  0.7230  0.8153
   48ccc     H2 1478   1.362  10.682   5.836 -0.2907 -1.7947 -1.1702
   48ccc     C2 1479   1.290  10.632   5.642  0.0269 -0.2084  0.7844
   48ccc     H3 1480   1.357  10.686   5.574 -2.0854 -2.0260 -3.0650
   48ccc     H4 1481   1.194  10.646   5.591  1.4456  1.7914 -1.5372
   48ccc     C3 1482   1.342  10.488   5.667 -0.2146  0.3124  0.6897
   48ccc     H5 1483   1.299  10.438   5.753  2.4608  0.2500  2.0878
   48ccc     H6 1484   1.450  10.491   5.686 -0.0677  1.1982 -0.1745
   48ccc     N1 1485   1.314  10.387   5.556  0.2516  0.2958  0.4002
   48ccc     C4 1486   1.164  10.360   5.550  0.0725 -0.2883  0.4439
   48ccc     H7 1487   1.125  10.432   5.479 -0.8510 -1.7285 -0.5704
   48ccc     H8 1488   1.128  10.386   5.650 -1.2017  0.3966 -0.1770
   48ccc     C5 1489   1.122  10.217   5.520 -0.2345  0.0648  0.1978
   48ccc     H9 1490   1.118  10.190   5.414  2.0466  0.7316 -0.1076
   48ccc    H10 1491   1.185  10.146   5.574  0.4525  0.6106  0.1260
   48ccc     C6 1492   0.981  10.184   5.579 -0.8563  0.0959  0.1831
   48ccc     O1 1493   0.934  10.203   5.695 -0.0581 -0.1380  0.6540
   48ccc     O2 1494   0.907  10.101   5.503 -0.1751 -0.7707  0.7979
   48ccc    H11 1495   0.825  10.086   5.554 -1.2394  0.5198 -0.4371
   48ccc     C7 1496   1.371  10.439   5.426  0.0246 -0.0277 -0.0343
   48ccc    H12 1497   1.308  10.522   5.392  0.7553 -0.1867 -1.9024
   48ccc    H13 1498   1.463  10.491   5.452 -0.7882 -0.0871  3.4010
   48ccc     C8 1499   1.376  10.335   5.308  0.3235  0.5919 -0.0571
   48ccc    H14 1500   1.431  10.249   5.348  0.0086 -0.4233 -1.7028
   48ccc    H15 1501   1.275  10.303   5.281  0.9241  0.2308 -2.0138
   48ccc     C9 1502   1.458  10.381   5.183 -0.1838  0.0426  0.5480
   48ccc     O3 1503   1.556  10.447   5.177 -0.8069 -0.1962 -0.1222
   48ccc     O4 1504   1.407  10.337   5.071 -0.0782 -0.0211 -0.0395
   48ccc    H16 1505   1.436  10.403   5.005 -0.0369 -1.2715 -1.3185
   48ccc     O5 1506   1.147  10.654   5.845  0.0303 -0.0141  0.6242
   48ccc    H17 1507   1.366  10.302   5.581  1.9692  1.4146  0.8217
   49ccc     C1 1508   1.039   9.976   6.189 -0.3950 -0.2232 -0.1648
   49ccc     H1 1509   1.119  10.020   6.250 -1.8505  2.7780 -0.2030
   49ccc     H2 1510   0.948   9.961   6.248 -0.2295 -1.6468 -0.2371
   49ccc     C2 1511   1.073   9.846   6.112 -0.4269 -0.0058  0.0068
   49ccc     H3 1512   1.118   9.861   6.014  0.4331 -1.8390  0.0895
   49ccc     H4 1513   0.974   9.798   6.111 -0.8984  0.9627 -0.4193
   49ccc     C3 1514   1.166   9.756   6.196  0.5485  0.2829  0.2978
   49ccc     H5 1515   1.119   9.745   6.294  0.2852 -0.4747  0.0932
   49ccc     H6 1516   1.260   9.811   6.200 -0.8930  2.9802 -0.5657
   49ccc     N1 1517   1.196   9.623   6.139 -0.1033  0.8935 -0.0060
   49ccc     C4 1518   1.318   9.561   6.200  0.2048 -0.3768 -0.0984
   49ccc     H7 1519   1.321   9.454   6.178 -0.2186 -0.0834 -1.7200
   49ccc     H8 1520   1.317   9.571   6.309  1.3959 -1.3916  0.0434
   49ccc     C5 1521   1.446   9.626   6.149 -0.7211  0.5721  0.1919
   49ccc     H9 1522   1.447   9.618   6.040  0.5477 -0.0344  0.2389
   49ccc    H10 1523   1.444   9.734   6.171 -0.6119  0.7503 -0.6471
   49ccc     C6 1524   1.574   9.561   6.198 -0.2341  0.1305  0.4095
   49ccc     O1 1525   1.581   9.457   6.267 -0.2891 -0.7014  0.7700
   49ccc     O2 1526   1.691   9.624   6.174 -0.2407  0.1684  0.6348
   49ccc    H11 1527   1.674   9.677   6.094  2.0583 -1.4468 -1.0647
   49ccc     C7 1528   1.074   9.530   6.135 -0.3326  0.0734 -0.0193
   49ccc    H12 1529   1.029   9.523   6.234 -2.0572  2.1806 -0.5625
   49ccc    H13 1530   0.995   9.570   6.070 -0.2676 -1.9366 -1.4377
   49ccc     C8 1531   1.106   9.389   6.084 -0.3640 -0.1113  0.8506
   49ccc    H14 1532   1.176   9.407   6.002  2.3901  1.4310  3.3624
   49ccc    H15 1533   1.162   9.329   6.157 -0.2384 -0.7700  0.2332
   49ccc     C9 1534   0.986   9.314   6.041 -0.0204 -0.6905  0.5705
   49ccc     O3 1535   0.878   9.366   6.015  0.6179  0.4480 -0.1134
   49ccc     O4 1536   0.999   9.178   6.060  0.2930 -0.3288 -0.2683
   49ccc    H16 1537   0.922   9.126   6.032  1.7415 -2.1693 -1.0526
   49ccc     O5 1538   1.029  10.086   6.089 -0.4427  1.1625  0.4551
   49ccc    H17 1539   1.211   9.634   6.037 -2.9235  1.6754 -0.4229
   50ccc     C1 1540   1.915   9.380   6.183  0.7587  0.0634  0.0605
   50ccc     H1 1541   1.842   9.416   6.110  2.3543  2.3642 -0.5222
   50ccc     H2 1542   1.886   9.433   6.275 -1.1377  0.9084 -0.9648
   50ccc     C2 1543   2.058   9.419   6.131  0.2446  0.0250  0.2813
   50ccc     H3 1544   2.136   9.391   6.203 -0.2427 -0.3163  0.6824
   50ccc     H4 1545   2.058   9.528   6.120 -0.2300 -0.1516 -2.0471
   50ccc     C3 1546   2.102   9.354   5.997  0.1331  0.1956  0.6015
   50ccc     H5 1547   2.104   9.246   6.009 -3.8616  0.0618  1.7578
   50ccc     H6 1548   2.204   9.386   5.976  0.5548 -0.7585  1.1156
   50ccc     N1 1549   2.008   9.389   5.881 -0.4330  0.0465  0.6114
   50ccc     C4 1550   2.006   9.540   5.853 -0.0756  0.0575  1.1606
   50ccc     H7 1551   2.108   9.569   5.828 -0.1421 -1.4486 -1.1188
   50ccc     H8 1552   1.971   9.584   5.947 -1.8302 -1.2767  1.1790
   50ccc     C5 1553   1.907   9.588   5.740  0.2903 -0.9788  0.3447
   50ccc     H9 1554   1.952   9.572   5.641 -1.3949 -1.6230 -0.3483
   50ccc    H10 1555   1.809   9.540   5.745 -0.0430 -0.2317  1.6136
   50ccc     C6 1556   1.893   9.738   5.752  0.0801  1.0615  0.7364
   50ccc     O1 1557   1.926   9.809   5.841 -0.4888 -0.0089 -0.1297
   50ccc     O2 1558   1.805   9.786   5.664  0.5839 -0.0224  0.0244
   50ccc    H11 1559   1.785   9.716   5.598 -0.5040  1.0101 -0.7889
   50ccc     C7 1560   2.050   9.315   5.750 -0.2946  0.2569 -0.2052
   50ccc    H12 1561   1.996   9.342   5.659  1.1266  0.4890 -1.0161
   50ccc    H13 1562   2.155   9.337   5.728 -0.3978  0.0190 -0.9584
   50ccc     C8 1563   2.027   9.162   5.752 -0.6775  0.1804 -0.0509
   50ccc    H14 1564   2.089   9.123   5.834  1.1685  0.7073 -1.1158
   50ccc    H15 1565   1.921   9.146   5.770 -1.1701  4.2063  1.6818
   50ccc     C9 1566   2.079   9.092   5.625  0.2097  0.2176 -0.3054
   50ccc     O3 1567   2.124   9.145   5.523  0.0199 -0.2484  0.4676
   50ccc     O4 1568   2.044   8.965   5.626 -0.4093 -0.4294 -0.1227
   50ccc    H16 1569   2.014   8.939   5.714 -0.9146 -1.9704 -0.7200
   50ccc     O5 1570   1.911   9.241   6.184  0.1038  0.5663  0.3476
   50ccc    H17 1571   1.913   9.354   5.902 -0.1961 -0.1102  1.4487
   51ccc     C1 1572   1.119   8.803   6.150 -0.3703  0.9175 -0.2686
   51ccc     H1 1573   1.145   8.722   6.218  0.4241  0.7876 -0.7123
   51ccc     H2 1574   1.009   8.803   6.157 -0.3571 -0.2911  0.1655
   51ccc     C2 1575   1.146   8.761   5.998  0.4902 -0.3507 -0.1468
   51ccc     H3 1576   1.098   8.665   5.977  0.5342  0.0710 -2.4251
   51ccc     H4 1577   1.254   8.754   5.981  0.6464 -1.0704  1.0302
   51ccc     C3 1578   1.086   8.865   5.900  0.0053  0.0811 -0.0714
   51ccc     H5 1579   1.012   8.928   5.951  0.5330 -0.7462  1.8140
   51ccc     H6 1580   1.044   8.788   5.835  1.2349 -1.4870  0.9169
   51ccc     N1 1581   1.188   8.946   5.810  0.6285  0.3109  0.0214
   51ccc     C4 1582   1.115   9.024   5.703  0.2387 -0.0573 -0.4691
   51ccc     H7 1583   1.181   9.088   5.645  1.7061 -0.5788  0.5775
   51ccc     H8 1584   1.047   9.090   5.756  0.9312 -0.7689  1.3825
   51ccc     C5 1585   1.034   8.934   5.607 -1.1713  0.1857 -0.5478
   51ccc     H9 1586   1.054   8.967   5.504  1.5085 -2.2796 -0.9205
   51ccc    H10 1587   1.063   8.829   5.609  0.2203  0.5662  0.1315
   51ccc     C6 1588   0.885   8.952   5.654  0.2819 -0.4687 -0.2185
   51ccc     O1 1589   0.838   8.864   5.725  0.6473 -0.3792 -0.7091
   51ccc     O2 1590   0.831   9.078   5.643 -0.5744 -0.0428  0.0327
   51ccc    H11 1591   0.873   9.119   5.565 -0.7787 -1.0236 -0.6142
   51ccc     C7 1592   1.273   9.037   5.903 -0.1129  0.1375  0.4724
   51ccc    H12 1593   1.200   9.082   5.970 -0.9211 -0.5764  0.0839
   51ccc    H13 1594   1.340   8.972   5.960  0.2741 -0.3313 -0.4994
   51ccc     C8 1595   1.359   9.148   5.836  0.1715  0.0379  0.7721
   51ccc    H14 1596   1.439   9.113   5.769 -1.0550 -0.8720 -0.2659
   51ccc    H15 1597   1.294   9.217   5.781 -0.3956 -0.1569  1.2010
   51ccc     C9 1598   1.423   9.231   5.950  0.2323  0.3213  0.0096
   51ccc     O3 1599   1.426   9.198   6.068  0.1708 -0.5134 -0.2265
   51ccc     O4 1600   1.434   9.358   5.915  0.2588  0.4377  0.9480
   51ccc    H16 1601   1.430   9.351   5.818  0.8248 -1.9875  1.0383
   51ccc     O5 1602   1.183   8.925   6.192 -0.1287 -0.0210 -0.6510
   51ccc    H17 1603   1.250   8.879   5.762  0.6413  0.1931  0.1997
   52ccc     C1 1604   2.552   8.574   7.526 -0.0505 -0.7759 -0.2509
   52ccc     H1 1605   2.615   8.642   7.584  1.5078 -0.3321 -2.3654
   52ccc     H2 1606   2.481   8.531   7.598  0.3874  0.6460  1.0799
   52ccc     C2 1607   2.647   8.474   7.461  0.7755 -0.2377 -0.2776
   52ccc     H3 1608   2.682   8.514   7.365  1.2491  0.3666  0.1377
   52ccc     H4 1609   2.584   8.389   7.433 -0.5205  0.0218  1.6722
   52ccc     C3 1610   2.767   8.439   7.551 -0.2138 -0.0018  0.0118
   52ccc     H5 1611   2.730   8.409   7.650  1.1738 -2.1835 -0.0641
   52ccc     H6 1612   2.827   8.530   7.550  3.1619 -1.9275  3.0230
   52ccc     N1 1613   2.854   8.334   7.492  0.5949 -0.3064  0.1495
   52ccc     C4 1614   2.989   8.358   7.560  0.6035  0.4843 -0.3151
   52ccc     H7 1615   3.045   8.265   7.565 -0.6107 -0.2886 -0.7829
   52ccc     H8 1616   2.966   8.375   7.665 -0.8292 -0.1031 -0.5184
   52ccc     C5 1617   3.071   8.468   7.493  0.2161  0.5675  0.1049
   52ccc     H9 1618   3.101   8.437   7.392 -0.0700 -2.6082  0.8772
   52ccc    H10 1619   3.005   8.555   7.484 -1.9554 -1.0674 -0.3851
   52ccc     C6 1620   3.189   8.506   7.588  0.1050  0.2080 -0.1372
   52ccc     O1 1621   3.244   8.425   7.659  0.6438 -0.0069  0.8557
   52ccc     O2 1622   3.215   8.632   7.600 -0.7296  0.4546 -0.2023
   52ccc    H11 1623   3.151   8.683   7.548  0.7788  0.6975 -1.9234
   52ccc     C7 1624   2.785   8.196   7.521  0.3242  0.0470  0.3403
   52ccc    H12 1625   2.816   8.170   7.623  2.8231 -1.5704 -0.7218
   52ccc    H13 1626   2.677   8.200   7.506  0.3357 -1.6050 -0.3355
   52ccc     C8 1627   2.832   8.087   7.427 -0.2436 -0.0929 -0.2123
   52ccc    H14 1628   2.783   8.110   7.332 -1.0726 -0.6346  0.0798
   52ccc    H15 1629   2.942   8.084   7.427 -0.2104  0.7579 -0.1443
   52ccc     C9 1630   2.788   7.945   7.469  0.5114 -1.0518  0.2611
   52ccc     O3 1631   2.704   7.923   7.551 -0.2816 -0.4434  0.3292
   52ccc     O4 1632   2.844   7.841   7.407 -0.1923 -0.1747  0.3084
   52ccc    H16 1633   2.893   7.874   7.329  0.3692 -0.8564  0.3665
   52ccc     O5 1634   2.472   8.648   7.423 -0.0090 -0.4292  0.4696
   52ccc    H17 1635   2.860   8.353   7.391  0.2247 -0.6069  0.0723
   53ccc     C1 1636   1.958   8.299   7.038  0.0302 -0.2350 -0.1217
   53ccc     H1 1637   1.886   8.227   7.080 -0.3024 -0.8388 -1.6453
   53ccc     H2 1638   1.914   8.339   6.946  0.6728  0.1671 -0.2570
   53ccc     C2 1639   2.076   8.219   6.999 -0.2519  0.6058 -0.1253
   53ccc     H3 1640   2.043   8.148   6.922 -0.3759  0.9697 -0.4146
   53ccc     H4 1641   2.128   8.168   7.080 -0.2219 -0.3070 -0.7039
   53ccc     C3 1642   2.182   8.301   6.926 -0.3134 -1.0519  0.0787
   53ccc     H5 1643   2.219   8.387   6.982 -1.2792 -0.0921 -0.7148
   53ccc     H6 1644   2.128   8.336   6.838  1.5221  1.6919 -0.1094
   53ccc     N1 1645   2.302   8.227   6.878  0.0616  0.3704 -0.4389
   53ccc     C4 1646   2.390   8.188   6.991 -0.0944  0.0780  0.2085
   53ccc     H7 1647   2.337   8.099   7.026 -1.3146 -1.0559 -3.9085
   53ccc     H8 1648   2.382   8.262   7.071  0.3719  0.8644 -0.4486
   53ccc     C5 1649   2.532   8.144   6.952  0.1889  0.1004  0.1721
   53ccc     H9 1650   2.524   8.058   6.884  0.6280 -0.2013  0.4980
   53ccc    H10 1651   2.596   8.227   6.918  0.5112 -0.0621  0.3731
   53ccc     C6 1652   2.607   8.102   7.071  0.2491  0.7543 -0.0556
   53ccc     O1 1653   2.552   8.056   7.171 -0.1616  0.0913 -0.2395
   53ccc     O2 1654   2.744   8.104   7.065 -0.0450  0.2756 -0.4262
   53ccc    H11 1655   2.772   8.131   6.976  1.1761 -1.0705 -0.4867
   53ccc     C7 1656   2.260   8.111   6.775 -0.7590 -0.0034  0.3903
   53ccc    H12 1657   2.355   8.065   6.746 -1.3730 -0.7209 -0.5830
   53ccc    H13 1658   2.210   8.030   6.829 -1.9652 -0.6313 -1.5472
   53ccc     C8 1659   2.170   8.150   6.654  0.1710  0.3955 -0.1552
   53ccc    H14 1660   2.068   8.178   6.681 -0.3518  1.3419 -2.8018
   53ccc    H15 1661   2.212   8.238   6.602  0.9823 -0.5582 -1.1747
   53ccc     C9 1662   2.159   8.041   6.553 -0.6228  0.8689 -0.0549
   53ccc     O3 1663   2.241   7.955   6.533 -0.3401 -0.3774 -0.1969
   53ccc     O4 1664   2.035   8.021   6.510  0.1062  0.5658  0.0488
   53ccc    H16 1665   2.045   7.942   6.454 -0.2719  0.7143 -0.2322
   53ccc     O5 1666   1.997   8.400   7.138 -0.6565 -0.1406  0.5413
   53ccc    H17 1667   2.353   8.302   6.829 -0.8711  1.2504 -0.0945
   54ccc     C1 1668   1.613   9.984   9.738  0.3806  0.3338  0.0681
   54ccc     H1 1669   1.633   9.978   9.846  1.8402 -2.3467 -0.2458
   54ccc     H2 1670   1.709   9.970   9.688  0.2973  0.3085 -0.0847
   54ccc     C2 1671   1.538  10.120   9.718  0.1874  0.3001 -0.7641
   54ccc     H3 1672   1.592  10.198   9.774  1.5099  0.0428 -1.6188
   54ccc     H4 1673   1.435  10.122   9.755 -0.0131  2.3412 -1.3011
   54ccc     C3 1674   1.534  10.148   9.567 -0.0023 -0.2972 -0.4239
   54ccc     H5 1675   1.471  10.075   9.516 -2.3453  1.9899 -1.0207
   54ccc     H6 1676   1.635  10.133   9.530  1.2028  1.7625  1.7906
   54ccc     N1 1677   1.480  10.287   9.523  0.1276  0.5164  0.2957
   54ccc     C4 1678   1.326  10.294   9.555 -0.2334 -0.0268 -0.0941
   54ccc     H7 1679   1.314  10.284   9.662  1.5464 -2.3455 -0.0288
   54ccc     H8 1680   1.276  10.207   9.513  0.3673 -0.1332 -0.6045
   54ccc     C5 1681   1.254  10.430   9.517 -0.0150 -0.0290  0.6525
   54ccc     H9 1682   1.301  10.511   9.575 -0.1549 -0.0994  0.8594
   54ccc    H10 1683   1.260  10.446   9.408  2.5052  0.4515  0.7852
   54ccc     C6 1684   1.106  10.429   9.544  0.0216  0.3637 -1.1452
   54ccc     O1 1685   1.046  10.340   9.599  0.4547 -0.1302 -0.6798
   54ccc     O2 1686   1.035  10.514   9.469 -0.7729 -0.4599 -0.1112
   54ccc    H11 1687   1.097  10.588   9.459 -0.7796 -0.3009  0.9056
   54ccc     C7 1688   1.562  10.404   9.591  0.0211  0.1320  0.1118
   54ccc    H12 1689   1.530  10.500   9.550  2.0363  1.1051  0.6882
   54ccc    H13 1690   1.532  10.399   9.696  2.3793  0.8925  0.8785
   54ccc     C8 1691   1.715  10.391   9.577 -1.0624  0.1818  0.1371
   54ccc    H14 1692   1.758  10.302   9.625 -2.1033 -0.5961 -0.3456
   54ccc    H15 1693   1.748  10.401   9.473  0.7320  0.6184  0.7053
   54ccc     C9 1694   1.795  10.508   9.641  0.0693 -0.2025  0.1019
   54ccc     O3 1695   1.756  10.618   9.676 -0.3127 -0.2024 -0.6864
   54ccc     O4 1696   1.922  10.491   9.655  0.6411 -0.0668 -0.8254
   54ccc    H16 1697   1.935  10.398   9.629 -1.0674 -0.6768  0.3709
   54ccc     O5 1698   1.522   9.872   9.699  0.0856  0.5980  0.3270
   54ccc    H17 1699   1.497  10.287   9.422  0.2883 -1.6320  0.2789
   55ccc     C1 1700   1.228  10.124   9.953 -0.3046 -0.5706  0.1698
   55ccc     H1 1701   1.225  10.138  10.062  1.0057 -2.7532  0.5505
   55ccc     H2 1702   1.322  10.157   9.908 -0.6495  0.1927 -0.0023
   55ccc     C2 1703   1.102  10.187   9.885 -0.2775 -0.7454  0.3699
   55ccc     H3 1704   1.107  10.158   9.779 -0.4832  2.2974 -0.5439
   55ccc     H4 1705   1.107  10.296   9.888 -0.3178 -0.6442 -1.6724
   55ccc     C3 1706   0.963  10.147   9.948  0.0118  0.0315 -0.3283
   55ccc     H5 1707   0.969  10.135  10.056  0.6538 -3.1294 -0.6178
   55ccc     H6 1708   0.927  10.047   9.924 -0.6292  0.3081 -0.5526
   55ccc     N1 1709   0.848  10.249   9.908  0.1509 -0.1871 -0.4280
   55ccc     C4 1710   0.808  10.229   9.761 -0.0447 -0.3534 -0.1446
   55ccc     H7 1711   0.759  10.132   9.745  0.2006 -0.5758  0.4353
   55ccc     H8 1712   0.905  10.222   9.711  0.0951 -0.8247  0.1820
   55ccc     C5 1713   0.735  10.345   9.695 -0.3998 -0.0226  0.9639
   55ccc     H9 1714   0.631  10.343   9.730 -1.6888 -2.3253 -2.4243
   55ccc    H10 1715   0.788  10.439   9.714  2.2965 -0.6281 -2.4413
   55ccc     C6 1716   0.735  10.326   9.542  0.1654  0.0195  0.2731
   55ccc     O1 1717   0.775  10.225   9.486 -0.4794 -0.1185  0.5024
   55ccc     O2 1718   0.674  10.422   9.467 -0.0386 -0.4132 -0.1417
   55ccc    H11 1719   0.653  10.495   9.528  0.2019  0.6955 -1.3458
   55ccc     C7 1720   0.734  10.200   9.988  0.3162  0.2580 -0.9606
   55ccc    H12 1721   0.639  10.215   9.936 -0.0699  0.8112 -0.1223
   55ccc    H13 1722   0.731  10.093  10.009 -1.9160  0.0298 -2.0607
   55ccc     C8 1723   0.729  10.262  10.132 -0.1342 -0.2631 -0.2120
   55ccc    H14 1724   0.810  10.226  10.196 -0.5732  1.3992  1.4050
   55ccc    H15 1725   0.720  10.370  10.116 -0.6498 -0.5846 -2.3011
   55ccc     C9 1726   0.599  10.216  10.195  0.4029  0.1068 -0.5805
   55ccc     O3 1727   0.564  10.099  10.211  0.2300 -0.2245  0.2668
   55ccc     O4 1728   0.535  10.313  10.262  0.1378  0.0452 -0.3742
   55ccc    H16 1729   0.451  10.285  10.304 -0.1481 -0.2756 -1.1527
   55ccc     O5 1730   1.203   9.986   9.946 -0.3645 -0.7019  0.5457
   55ccc    H17 1731   0.876  10.347   9.922  0.1016 -0.3248  0.6777
   56ccc     C1 1732   1.085  10.581   8.825 -0.2565  0.3339  0.5609
   56ccc     H1 1733   1.095  10.597   8.933  1.5187  0.9359  0.3399
   56ccc     H2 1734   1.179  10.540   8.786 -0.3616  1.9414 -1.5562
   56ccc     C2 1735   1.067  10.717   8.753  0.3720 -0.1204 -0.3460
   56ccc     H3 1736   1.055  10.688   8.648 -0.8582 -2.3059  0.3216
   56ccc     H4 1737   1.154  10.778   8.779 -0.1575  0.1966  0.7595
   56ccc     C3 1738   0.937  10.786   8.802  0.0748 -0.2477  0.0825
   56ccc     H5 1739   0.926  10.779   8.910 -0.0971  1.2736  0.1889
   56ccc     H6 1740   0.842  10.744   8.767 -0.3485  1.8028 -1.4796
   56ccc     N1 1741   0.928  10.937   8.778 -0.4735 -0.2727  0.2696
   56ccc     C4 1742   0.948  10.968   8.627  0.0781  0.6074  0.1021
   56ccc     H7 1743   1.034  10.905   8.606 -0.6625 -0.3296 -0.1715
   56ccc     H8 1744   0.989  11.068   8.613  2.0634 -0.1682  0.1569
   56ccc     C5 1745   0.841  10.940   8.528  0.3954  0.5507  0.6790
   56ccc     H9 1746   0.900  10.891   8.449  1.2643 -1.3920  2.4508
   56ccc    H10 1747   0.769  10.880   8.585  0.7794 -0.3105  0.2701
   56ccc     C6 1748   0.773  11.070   8.479 -0.2221 -0.3039 -0.0023
   56ccc     O1 1749   0.811  11.184   8.505 -0.3337  0.4664 -0.5841
   56ccc     O2 1750   0.659  11.052   8.410 -0.4560 -0.1442  0.0415
   56ccc    H11 1751   0.649  10.955   8.414  3.3088 -0.7711 -1.6065
   56ccc     C7 1752   0.807  10.997   8.847  0.5248 -0.9937  0.2730
   56ccc    H12 1753   0.723  10.981   8.779  1.2880 -0.6317 -0.7855
   56ccc    H13 1754   0.777  10.943   8.937 -2.1357 -2.5171 -1.3722
   56ccc     C8 1755   0.797  11.148   8.857  0.4001 -0.5803 -0.3134
   56ccc    H14 1756   0.883  11.183   8.915  0.7122 -0.2261 -0.9809
   56ccc    H15 1757   0.806  11.189   8.756  3.6305  1.8222  0.7837
   56ccc     C9 1758   0.664  11.194   8.916 -0.4298  0.3465 -0.3633
   56ccc     O3 1759   0.582  11.113   8.958  0.6153  0.0736  0.6835
   56ccc     O4 1760   0.647  11.327   8.912 -0.1680  0.0914  0.3819
   56ccc    H16 1761   0.732  11.366   8.885  0.9931 -0.1019  3.4119
   56ccc     O5 1762   0.980  10.491   8.804 -0.6835 -0.8074  0.3387
   56ccc    H17 1763   1.006  10.979   8.830  0.6535 -2.0493  0.0935
   57ccc     C1 1764   0.329  10.500   9.287 -0.4734  0.5143  0.3678
   57ccc     H1 1765   0.379  10.464   9.378 -4.1811 -1.2900  1.8800
   57ccc     H2 1766   0.329  10.610   9.282 -0.7771  0.4852 -0.5100
   57ccc     C2 1767   0.184  10.454   9.291  0.2284  0.3369  0.1136
   57ccc     H3 1768   0.141  10.508   9.206  1.0974 -0.1631 -0.6524
   57ccc     H4 1769   0.135  10.486   9.384  0.1418 -1.5596  0.7608
   57ccc     C3 1770   0.166  10.305   9.271 -0.5178  0.5299 -0.0135
   57ccc     H5 1771   0.212  10.276   9.176 -4.5994 -3.8230 -1.0291
   57ccc     H6 1772   0.060  10.283   9.270  0.1501 -3.6737  0.1931
   57ccc     N1 1773   0.227  10.213   9.377  0.6976  0.1702 -0.6284
   57ccc     C4 1774   0.115  10.113   9.418 -0.6630 -0.6696 -0.3598
   57ccc     H7 1775   0.036  10.162   9.475  0.1197  1.3101 -0.8774
   57ccc     H8 1776   0.158  10.045   9.491 -0.0959 -0.0412 -0.1101
   57ccc     C5 1777   0.055  10.027   9.308 -0.0891 -0.2253 -0.2184
   57ccc     H9 1778  -0.025  10.078   9.252  0.1356 -1.3648 -1.6267
   57ccc    H10 1779   0.135  10.008   9.236 -2.1688  2.5510 -3.5987
   57ccc     C6 1780  -0.005   9.897   9.352  0.1146  0.1745 -0.8448
   57ccc     O1 1781  -0.053   9.863   9.460  0.0580 -0.2013  0.1025
   57ccc     O2 1782  -0.041   9.824   9.245  0.1718 -0.1239 -0.4950
   57ccc    H11 1783  -0.089   9.754   9.293 -0.7757  0.8656  0.0131
   57ccc     C7 1784   0.358  10.154   9.323 -0.0461 -0.7284 -0.2853
   57ccc    H12 1785   0.333  10.095   9.235  0.3864 -3.1890  1.1515
   57ccc    H13 1786   0.414  10.243   9.293  0.5004 -0.9552  0.0394
   57ccc     C8 1787   0.445  10.074   9.408  0.0982  0.7824  0.9776
   57ccc    H14 1788   0.470  10.126   9.501  1.6194 -0.0402  1.0540
   57ccc    H15 1789   0.397   9.985   9.452 -1.4270  0.2661 -1.5009
   57ccc     C9 1790   0.584  10.051   9.340 -0.1150  0.2499 -0.4420
   57ccc     O3 1791   0.642  10.130   9.265  0.1634 -0.0613 -0.0625
   57ccc     O4 1792   0.641   9.933   9.374 -0.4745 -0.2123 -0.1579
   57ccc    H16 1793   0.590   9.870   9.428  0.2746 -0.5458  0.1751
   57ccc     O5 1794   0.386  10.448   9.158 -0.8246  0.4032  0.3918
   57ccc    H17 1795   0.263  10.269   9.457  0.8806 -0.9080  0.0644
   58ccc     C1 1796   0.557   7.641   8.703 -0.3081  0.3571 -0.4943
   58ccc     H1 1797   0.519   7.681   8.608 -0.6548 -0.4885 -0.7184
   58ccc     H2 1798   0.653   7.688   8.728  1.6680 -2.7750 -1.5753
   58ccc     C2 1799   0.563   7.492   8.696  0.6033  0.4298  0.5761
   58ccc     H3 1800   0.639   7.467   8.771 -1.6277 -1.3572  2.3865
   58ccc     H4 1801   0.612   7.463   8.601 -5.3139 -0.7512 -2.5839
   58ccc     C3 1802   0.424   7.434   8.699  0.3330 -0.1688  0.1051
   58ccc     H5 1803   0.365   7.472   8.616  0.8089 -0.3448 -0.3207
   58ccc     H6 1804   0.387   7.477   8.792 -2.7063  2.5113 -2.1158
   58ccc     N1 1805   0.416   7.279   8.688  0.2982 -0.3214  0.1919
   58ccc     C4 1806   0.437   7.241   8.543 -0.2039 -0.0272  1.2135
   58ccc     H7 1807   0.544   7.242   8.522 -0.1963  0.1656  1.2616
   58ccc     H8 1808   0.393   7.317   8.479 -1.8387 -0.1550  2.1411
   58ccc     C5 1809   0.396   7.100   8.510 -0.5116 -0.6897 -0.3370
   58ccc     H9 1810   0.467   7.023   8.542  0.9269 -0.8215 -3.5283
   58ccc    H10 1811   0.302   7.078   8.563  1.3743 -0.3990  3.5410
   58ccc     C6 1812   0.380   7.085   8.354 -0.4759  0.1027 -0.4010
   58ccc     O1 1813   0.406   7.175   8.278 -0.3644 -0.0317 -0.1370
   58ccc     O2 1814   0.354   6.961   8.312 -0.3744 -0.2121  0.1009
   58ccc    H11 1815   0.379   6.980   8.220 -0.4629 -1.7051 -0.2455
   58ccc     C7 1816   0.516   7.211   8.780  0.3501  0.2510 -0.1556
   58ccc    H12 1817   0.553   7.116   8.739 -2.1873 -1.6135  1.6035
   58ccc    H13 1818   0.594   7.284   8.803 -0.4355  0.9139  0.4538
   58ccc     C8 1819   0.458   7.171   8.914  0.8512 -0.1312 -0.2382
   58ccc    H14 1820   0.540   7.142   8.980 -0.3081  1.2305  1.9300
   58ccc    H15 1821   0.401   7.250   8.964 -0.6182  0.6203 -2.8829
   58ccc     C9 1822   0.363   7.054   8.908  0.5999  0.4902 -0.2508
   58ccc     O3 1823   0.363   6.973   8.821  0.0959  0.5905  0.3167
   58ccc     O4 1824   0.290   7.050   9.027 -0.1533  0.0839  0.6480
   58ccc    H16 1825   0.238   6.968   9.017  1.2615 -0.8050  0.3216
   58ccc     O5 1826   0.476   7.686   8.816 -0.1325  0.6253 -0.0735
   58ccc    H17 1827   0.321   7.247   8.712  0.0907 -0.4779 -0.8177
   59ccc     C1 1828  -0.014   7.506   9.315 -0.0238  0.2363 -0.0810
   59ccc     H1 1829   0.064   7.494   9.391  0.3399  0.9211 -0.3353
   59ccc     H2 1830  -0.113   7.519   9.360 -0.5894 -0.4513 -1.0999
   59ccc     C2 1831  -0.029   7.384   9.226  0.2949 -0.0861  0.0779
   59ccc     H3 1832  -0.019   7.289   9.281  1.2297 -0.4973 -0.7563
   59ccc     H4 1833   0.052   7.384   9.153 -1.9663 -0.0574 -2.5815
   59ccc     C3 1834  -0.162   7.384   9.140 -0.2206  0.6418 -1.0932
   59ccc     H5 1835  -0.162   7.479   9.087  0.3709  0.4272 -1.5025
   59ccc     H6 1836  -0.245   7.374   9.209  2.3133 -0.4860  2.0527
   59ccc     N1 1837  -0.175   7.260   9.039  0.3387  0.0156  0.6845
   59ccc     C4 1838  -0.306   7.286   8.966 -0.6840 -0.4344 -1.3150
   59ccc     H7 1839  -0.294   7.226   8.876 -0.6328 -0.2878 -1.4047
   59ccc     H8 1840  -0.309   7.386   8.924  0.2811  0.0729 -0.2321
   59ccc     C5 1841  -0.438   7.254   9.047 -0.2776 -0.1815 -0.3453
   59ccc     H9 1842  -0.422   7.159   9.100 -2.4468 -0.6890 -0.4965
   59ccc    H10 1843  -0.460   7.328   9.125 -0.4075 -1.5789  1.0028
   59ccc     C6 1844  -0.558   7.232   8.952  0.6016  0.4029  0.2738
   59ccc     O1 1845  -0.562   7.251   8.834  0.3502 -0.3932  0.4574
   59ccc     O2 1846  -0.657   7.162   9.007  0.1592 -0.1619  0.6008
   59ccc    H11 1847  -0.719   7.147   8.934  0.0540 -0.1091  0.6803
   59ccc     C7 1848  -0.067   7.270   8.940  0.2214  0.2560 -0.2834
   59ccc    H12 1849  -0.081   7.358   8.877  0.0351  0.5430  0.1536
   59ccc    H13 1850   0.023   7.294   8.997 -0.8214  1.7033  0.8408
   59ccc     C8 1851  -0.054   7.140   8.858 -0.5605 -0.0079  0.2618
   59ccc    H14 1852  -0.056   7.057   8.929  1.1442  1.5454  2.2673
   59ccc    H15 1853  -0.137   7.126   8.789 -0.5682  0.1036  0.2472
   59ccc     C9 1854   0.066   7.146   8.762 -0.1246 -0.5659 -0.8360
   59ccc     O3 1855   0.165   7.213   8.793 -0.0331  0.8050  0.6970
   59ccc     O4 1856   0.089   7.032   8.700  0.0545  0.3263  0.0972
   59ccc    H16 1857   0.000   6.994   8.690 -1.0851  2.0573  2.4794
   59ccc     O5 1858   0.017   7.612   9.236 -0.3851 -0.2614  0.1546
   59ccc    H17 1859  -0.174   7.174   9.095  1.0952  0.2032  0.9849
   60ccc     C1 1860   0.619   8.069   7.324 -0.3247 -0.3962 -0.0507
   60ccc     H1 1861   0.577   8.095   7.226  0.2237 -2.4950 -0.8932
   60ccc     H2 1862   0.702   8.137   7.348 -0.8947 -0.4444  2.2484
   60ccc     C2 1863   0.672   7.923   7.314  0.4361  0.1323 -0.0515
   60ccc     H3 1864   0.705   7.895   7.213 -0.0534 -0.5623 -0.0308
   60ccc     H4 1865   0.584   7.857   7.314  0.4302  0.0185 -2.7977
   60ccc     C3 1866   0.777   7.877   7.421  0.6904  0.3358 -0.1635
   60ccc     H5 1867   0.743   7.916   7.517  0.4785 -0.9292  0.2965
   60ccc     H6 1868   0.876   7.913   7.395  1.0297 -0.3738  0.1147
   60ccc     N1 1869   0.771   7.721   7.437 -0.5285 -0.7951  0.8591
   60ccc     C4 1870   0.893   7.664   7.503  0.3003  0.5431 -0.1049
   60ccc     H7 1871   0.869   7.562   7.534 -2.2698  1.3864  0.8718
   60ccc     H8 1872   0.897   7.725   7.592 -2.2007  1.6855 -0.6978
   60ccc     C5 1873   1.030   7.677   7.423  0.2940  1.0145 -0.6310
   60ccc     H9 1874   1.025   7.606   7.340 -1.7234  0.2809  0.0514
   60ccc    H10 1875   1.048   7.776   7.379  0.5892  1.0583 -0.4122
   60ccc     C6 1876   1.150   7.644   7.518  0.0186  0.1931  0.5348
   60ccc     O1 1877   1.203   7.724   7.593  0.0117 -0.1861 -0.2832
   60ccc     O2 1878   1.209   7.522   7.496 -0.1176  0.0116  0.3832
   60ccc    H11 1879   1.144   7.456   7.467  2.0982 -1.6895 -1.0530
   60ccc     C7 1880   0.640   7.666   7.502 -0.3494 -0.3596 -0.5707
   60ccc    H12 1881   0.554   7.690   7.440 -0.1866  0.5077 -0.4791
   60ccc    H13 1882   0.644   7.558   7.507 -1.1908 -0.4364 -1.3812
   60ccc     C8 1883   0.608   7.723   7.644  0.0176 -0.4313  0.2838
   60ccc    H14 1884   0.690   7.686   7.706 -1.3486 -2.3439  1.0633
   60ccc    H15 1885   0.609   7.832   7.655  1.4540 -0.5502  1.5539
   60ccc     C9 1886   0.483   7.657   7.709  0.1348 -0.6254  0.3753
   60ccc     O3 1887   0.405   7.574   7.661 -0.1343 -0.4189 -0.2747
   60ccc     O4 1888   0.436   7.735   7.813  0.7716  0.7116 -0.3020
   60ccc    H16 1889   0.500   7.806   7.829 -0.6256  1.6754  1.2502
   60ccc     O5 1890   0.526   8.068   7.439 -0.4683 -0.6906 -0.8786
   60ccc    H17 1891   0.775   7.679   7.343  0.1293  1.1327 -0.0264
   61ccc     C1 1892   0.029   7.811   7.964  0.1997 -0.4038  0.5153
   61ccc     H1 1893  -0.011   7.831   8.064  1.6413  1.5251  0.7733
   61ccc     H2 1894  -0.054   7.796   7.893  0.1598 -1.0897  0.7058
   61ccc     C2 1895   0.109   7.683   7.968 -0.6571  0.4283  0.1904
   61ccc     H3 1896   0.211   7.691   7.931 -1.1741 -0.9272 -1.6716
   61ccc     H4 1897   0.053   7.612   7.906 -2.5924  2.0182  0.0240
   61ccc     C3 1898   0.137   7.622   8.105  0.4733 -0.9301  0.8859
   61ccc     H5 1899   0.041   7.584   8.139  0.0496 -2.1246 -1.4292
   61ccc     H6 1900   0.173   7.702   8.170 -0.3481 -0.6510  1.0202
   61ccc     N1 1901   0.228   7.504   8.091  0.2235 -0.5376 -0.8265
   61ccc     C4 1902   0.375   7.555   8.075 -0.3388  0.5104  0.4666
   61ccc     H7 1903   0.415   7.595   8.169 -0.4674 -0.5428  0.9840
   61ccc     H8 1904   0.378   7.631   7.997 -2.0120  0.7247  0.5831
   61ccc     C5 1905   0.477   7.440   8.043 -0.4337 -0.4077  0.5476
   61ccc     H9 1906   0.484   7.363   8.121 -0.8403  0.1071  1.1016
   61ccc    H10 1907   0.452   7.397   7.945  1.3581 -0.9721  0.3016
   61ccc     C6 1908   0.619   7.499   8.040  0.0365  0.0042  0.2629
   61ccc     O1 1909   0.642   7.618   8.018 -0.9094  0.1107 -0.1510
   61ccc     O2 1910   0.721   7.414   8.052 -0.1307 -0.1840 -0.0422
   61ccc    H11 1911   0.693   7.322   8.068  4.7662 -1.6741  1.6091
   61ccc     C7 1912   0.228   7.434   8.226  0.5896  0.0271 -0.1434
   61ccc    H12 1913   0.323   7.384   8.246  1.4031  1.8400  0.7851
   61ccc    H13 1914   0.216   7.509   8.305  0.2273  0.1658 -0.3298
   61ccc     C8 1915   0.114   7.330   8.239 -0.4600  0.4401  0.1015
   61ccc    H14 1916   0.017   7.381   8.230 -1.1526 -0.9651 -0.7379
   61ccc    H15 1917   0.126   7.250   8.165  0.2722  0.5388  0.1036
   61ccc     C9 1918   0.120   7.266   8.379  0.4389 -0.0409 -0.7243
   61ccc     O3 1919   0.163   7.332   8.477 -0.0100 -0.2875  0.1724
   61ccc     O4 1920   0.061   7.147   8.393  0.1942  0.1740 -0.1355
   61ccc    H16 1921   0.010   7.123   8.314  0.7738  0.3999 -0.5872
   61ccc     O5 1922   0.115   7.911   7.908  0.4279 -0.1657 -0.2670
   61ccc    H17 1923   0.198   7.446   8.012 -0.4938 -0.1849 -0.8184
   62SOL     OW 1924   0.598   4.741   8.517 -0.3653  0.1039  0.3195
   62SOL    HW1 1925   0.690   4.759   8.536 -0.3453 -1.1929  1.6060
   62SOL    HW2 1926   0.595   4.648   8.497 -1.1312  0.5220 -1.6885
   63SOL     OW 1927   2.992   0.700   4.793 -0.4865  0.2424  0.0561
   63SOL    HW1 1928   2.975   0.754   4.871  2.6872 -0.8022  1.6234
   63SOL    HW2 1929   3.038   0.758   4.733  1.7449 -0.2426  1.2017
   64SOL     OW 1930   2.572   2.637   9.479  0.8976 -0.6594  0.2084
   64SOL    HW1 1931   2.617   2.553   9.486  0.1857 -0.9187  3.3307
   64SOL    HW2 1932   2.629   2.697   9.528 -0.6569 -0.3641  1.7455
   65SOL     OW 1933   3.952   3.925   1.999  0.3464 -0.0231  0.1177
   65SOL    HW1 1934   3.991   3.900   2.083  1.4089  0.9731 -0.0586
   65SOL    HW2 1935   3.864   3.888   2.002  1.1636 -2.0834  0.6697
   66SOL     OW 1936   0.584   2.238   7.107  0.1298  0.4226  0.4498
   66SOL    HW1 1937   0.596   2.333   7.113  1.9480  0.2829 -0.3878
   66SOL    HW2 1938   0.503   2.221   7.156 -0.5996  2.4658  0.0603
   67SOL     OW 1939   2.407   6.339   3.364 -0.2283 -0.6630  0.6151
   67SOL    HW1 1940   2.332   6.321   3.420  0.1817  0.1790  1.4654
   67SOL    HW2 1941   2.407   6.434   3.354  0.1313 -0.7430 -0.2282
   68SOL     OW 1942   6.157   9.606   3.641  0.1100 -0.3160  0.4206
   68SOL    HW1 1943   6.158   9.570   3.729  3.6489  0.3602  0.8170
   68SOL    HW2 1944   6.148   9.700   3.653  2.9286  0.0535  0.3769
   69SOL     OW 1945   3.690   1.485   7.786  0.9384 -0.4675 -0.4420
   69SOL    HW1 1946   3.766   1.499   7.842  0.6606 -0.3447 -0.0910
   69SOL    HW2 1947   3.640   1.415   7.829  0.6534 -0.2771 -0.4586
   70SOL     OW 1948   1.410   1.008   3.858  0.1347  0.4473 -0.2283
   70SOL    HW1 1949   1.332   1.064   3.868 -0.7471 -0.5878 -0.9984
   70SOL    HW2 1950   1.378   0.933   3.807  1.7090  0.1196 -0.7692
   71SOL     OW 1951   0.443   1.387   8.104 -0.0445 -0.6990 -0.3623
   71SOL    HW1 1952   0.434   1.386   8.009  0.1199  0.1591 -0.4006
   71SOL    HW2 1953   0.417   1.476   8.129  0.5636 -0.7080  0.3248
   72SOL     OW 1954   5.412   3.685   0.508 -0.6567 -0.2437 -0.4562
   72SOL    HW1 1955   5.464   3.765   0.518 -0.5731 -0.2082 -1.1837
   72SOL    HW2 1956   5.421   3.661   0.416 -0.2491 -1.3952 -0.1309
   73SOL     OW 1957   8.875   8.553   4.255 -0.2928 -0.2047 -0.3476
   73SOL    HW1 1958   8.956   8.586   4.217  0.0812 -0.9599 -0.2182
   73SOL    HW2 1959   8.900   8.471   4.297 -0.8049  0.3036  1.0142
   74SOL     OW 1960   9.295   4.913   3.951 -0.6039 -0.3953  0.4531
   74SOL    HW1 1961   9.255   4.827   3.963  0.0601 -0.9734 -1.1862
   74SOL    HW2 1962   9.389   4.895   3.948 -0.5036  0.2641 -0.7697
   75SOL     OW 1963   1.062   0.145   3.180 -0.3233  0.1403 -0.0136
   75SOL    HW1 1964   0.991   0.205   3.160 -0.8689 -0.4959 -0.0396
   75SOL    HW2 1965   1.024   0.058   3.169 -0.0330 -0.2389  1.6695
   76SOL     OW 1966   5.404   6.691   4.375 -0.4631  0.2345 -0.3682
   76SOL    HW1 1967   5.441   6.619   4.322 -0.6969 -1.2891  1.4340
   76SOL    HW2 1968   5.477   6.749   4.391  0.4033 -0.9991  0.3342
   77SOL     OW 1969   2.117   3.354   2.837 -0.1693  0.1476 -0.3111
   77SOL    HW1 1970   2.051   3.368   2.905 -0.2416  0.6444 -0.4822
   77SOL    HW2 1971   2.067   3.351   2.755  0.0638  1.0040 -0.4921
   78SOL     OW 1972   9.255   4.892   1.801 -0.0569  0.1991  0.3776
   78SOL    HW1 1973   9.218   4.844   1.727  1.2643 -0.1053 -0.1086
   78SOL    HW2 1974   9.345   4.913   1.775  0.8487 -0.9248  2.3219
   79SOL     OW 1975   5.255   7.113   5.593  0.5307 -0.0972 -0.0758
   79SOL    HW1 1976   5.273   7.022   5.569  0.0313 -0.1402 -0.3041
   79SOL    HW2 1977   5.340   7.156   5.591  0.8995 -0.7417  0.8279
   80SOL     OW 1978   6.456   8.971   4.141  0.2209  0.4240  0.5632
   80SOL    HW1 1979   6.514   8.908   4.098 -1.1040 -1.1903  1.0422
   80SOL    HW2 1980   6.471   8.958   4.235  0.1445  1.0302  0.6640
   81SOL     OW 1981   7.559   5.017   3.936  0.1567 -0.3392 -0.1818
   81SOL    HW1 1982   7.467   4.990   3.927  0.2405 -0.0226 -2.4570
   81SOL    HW2 1983   7.607   4.935   3.947 -0.4696 -0.4382  2.6616
   82SOL     OW 1984   5.499   3.968   8.302  0.3895  0.0813  0.5322
   82SOL    HW1 1985   5.558   4.030   8.260  0.3313  0.0315  0.3778
   82SOL    HW2 1986   5.549   3.886   8.306 -0.1777 -0.3692 -0.9228
   83SOL     OW 1987   6.614   1.859   2.359  0.1314 -0.1191  0.2376
   83SOL    HW1 1988   6.617   1.922   2.287 -1.1536 -0.8815 -0.5113
   83SOL    HW2 1989   6.692   1.880   2.412 -0.3846  2.2422  0.1736
   84SOL     OW 1990   8.811   4.696   1.330  0.0070  0.3175 -0.0717
   84SOL    HW1 1991   8.873   4.770   1.326  1.2277 -0.7131 -2.7250
   84SOL    HW2 1992   8.866   4.619   1.319 -1.4390 -0.8896  0.8655
   85SOL     OW 1993   9.406   7.023   9.183 -0.3798  0.4184  0.0781
   85SOL    HW1 1994   9.338   6.984   9.237  0.1698 -0.1421  0.3701
   85SOL    HW2 1995   9.437   6.951   9.128  1.0197  0.2822  1.0050
   86SOL     OW 1996   5.458   0.044   3.649  0.2144 -0.1198 -0.0290
   86SOL    HW1 1997   5.532  -0.015   3.631 -1.4299 -1.9186 -1.3813
   86SOL    HW2 1998   5.397   0.027   3.578 -2.0415  0.3967  1.6790
   87SOL     OW 1999   1.213   4.231   2.055  0.6097  0.0066 -0.6942
   87SOL    HW1 2000   1.160   4.182   1.992 -1.7567  0.3151  0.9414
   87SOL    HW2 2001   1.284   4.268   2.002  0.1606 -1.7657 -2.7030
   88SOL     OW 2002   7.281   8.950   8.659  0.0982 -0.0479  0.0423
   88SOL    HW1 2003   7.273   9.014   8.730  1.0126 -0.7759  0.8161
   88SOL    HW2 2004   7.227   8.987   8.588 -2.8090 -0.4674  1.8861
   89SOL     OW 2005   5.191   4.713   5.343 -0.0152  0.0805 -0.0693
   89SOL    HW1 2006   5.101   4.681   5.339 -1.1228  2.8920 -0.5336
   89SOL    HW2 2007   5.202   4.744   5.433  0.4921 -0.2184 -0.0223
   90SOL     OW 2008   2.988   8.144   9.131  0.2517  0.3141 -0.0928
   90SOL    HW1 2009   3.040   8.118   9.207 -0.5298  2.1309  1.1302
   90SOL    HW2 2010   3.048   8.134   9.056  0.7767 -2.2962  0.5902
   91SOL     OW 2011   8.604   6.818   4.768  0.2476 -0.2915  0.1249
   91SOL    HW1 2012   8.617   6.904   4.808  1.7683 -0.6485  0.4742
   91SOL    HW2 2013   8.539   6.833   4.699  1.0470  1.3035 -0.3313
   92SOL     OW 2014   3.475   7.243   0.656  0.7599 -0.1726  0.0058
   92SOL    HW1 2015   3.530   7.307   0.612  0.6129  0.1188  0.2390
   92SOL    HW2 2016   3.498   7.251   0.749  1.5813 -1.2801 -0.0880
   93SOL     OW 2017   4.729   5.841   3.120  0.3051  0.1270 -0.2040
   93SOL    HW1 2018   4.817   5.809   3.141 -0.3143 -1.1675  0.5828
   93SOL    HW2 2019   4.743   5.909   3.054  1.9638  0.6615  0.6351
   94SOL     OW 2020   7.561   6.716   2.341  0.5876  0.4483 -0.2161
   94SOL    HW1 2021   7.511   6.777   2.287  1.1541  1.2861  0.1839
   94SOL    HW2 2022   7.567   6.759   2.426  0.0438 -0.6666  0.4221
   95SOL     OW 2023   3.270   4.027   2.293 -0.4714  1.0246  0.5216
   95SOL    HW1 2024   3.321   3.998   2.217 -1.6283  1.6747 -0.5479
   95SOL    HW2 2025   3.221   3.950   2.320  0.0627  0.7486  0.7306
   96SOL     OW 2026   8.662   0.664   6.559  0.1380  0.4396 -0.1231
   96SOL    HW1 2027   8.738   0.715   6.530 -0.6391  0.4353 -2.3095
   96SOL    HW2 2028   8.601   0.667   6.486 -1.2056 -1.1430  0.8540
   97SOL     OW 2029   7.179   5.385   7.445  0.0655  0.4869 -0.1986
   97SOL    HW1 2030   7.223   5.451   7.391  0.7646  1.1927  1.1717
   97SOL    HW2 2031   7.250   5.339   7.489 -0.4956  0.0488  0.2559
   98SOL     OW 2032   2.426   4.726   1.504 -0.1155 -0.6280 -0.2017
   98SOL    HW1 2033   2.372   4.704   1.579  2.3915 -0.4035  1.8070
   98SOL    HW2 2034   2.403   4.661   1.437  0.5897 -3.6488  2.2887
   99SOL     OW 2035   4.128   9.421   1.577 -0.0312 -0.7311  0.2528
   99SOL    HW1 2036   4.052   9.422   1.518  1.0038 -0.3679 -1.1413
   99SOL    HW2 2037   4.201   9.447   1.521  1.1000 -0.9168  1.6002
  100SOL     OW 2038   3.424   4.321   2.001  0.5102 -0.7944 -0.4819
  100SOL    HW1 2039   3.435   4.266   1.924 -1.8797  0.3565 -1.7716
  100SOL    HW2 2040   3.424   4.411   1.966 -0.9212 -0.2584  0.7809
  101SOL     OW 2041   0.808   3.572   7.033 -0.0458  0.1068 -0.0872
  101SOL    HW1 2042   0.862   3.551   7.109 -1.3028 -0.7825  0.5757
  101SOL    HW2 2043   0.845   3.519   6.962  0.7748  0.5143  0.0218
  102SOL     OW 2044   9.398   8.817   3.588 -0.3852  0.1910 -0.3461
  102SOL    HW1 2045   9.313   8.858   3.576 -0.3298  0.1330 -0.9445
  102SOL    HW2 2046   9.446   8.835   3.507 -0.0050 -0.1955 -0.2129
  103SOL     OW 2047   4.468   0.411   1.503 -0.8883  0.0706  0.7946
  103SOL    HW1 2048   4.376   0.434   1.501 -1.7733 -2.9959 -1.9982
  103SOL    HW2 2049   4.509   0.468   1.438 -0.7057  1.5833  2.1910
  104SOL     OW 2050   7.632   3.859   0.875 -0.2152  0.3327 -0.4371
  104SOL    HW1 2051   7.594   3.908   0.801  0.5825 -0.3507 -1.3181
  104SOL    HW2 2052   7.704   3.809   0.837 -0.5249 -0.9549  0.5877
  105SOL     OW 2053   8.624   8.643   4.248  0.5544 -0.1854  0.0569
  105SOL    HW1 2054   8.563   8.569   4.253  0.0581  0.2395  0.4005
  105SOL    HW2 2055   8.710   8.603   4.238  0.1361 -0.7853 -1.4059
  106SOL     OW 2056   4.195   4.498   5.640  0.4653 -0.2718  0.3585
  106SOL    HW1 2057   4.102   4.521   5.645  0.5678  0.9513 -1.7537
  106SOL    HW2 2058   4.207   4.431   5.707 -2.1781 -1.2848 -0.0431
  107SOL     OW 2059   6.933   0.331   4.953  0.5391  0.4547  0.1666
  107SOL    HW1 2060   6.942   0.300   4.863 -0.7327  0.5893 -0.0257
  107SOL    HW2 2061   6.894   0.418   4.945 -0.3793  0.1207  0.8759
  108SOL     OW 2062   0.479   1.391   1.209  0.0490 -0.1361 -0.1011
  108SOL    HW1 2063   0.409   1.366   1.270 -0.3027  0.8092 -0.0993
  108SOL    HW2 2064   0.435   1.395   1.123 -0.2752  1.8734  0.1068
  109SOL     OW 2065   0.641   2.560   2.027  0.1471 -0.0117  0.2005
  109SOL    HW1 2066   0.621   2.644   2.068  2.6028  0.5192  0.4923
  109SOL    HW2 2067   0.587   2.559   1.948  0.1505  1.9240  0.1088
  110SOL     OW 2068   0.835   3.495   8.852  0.1684 -0.6511  0.2484
  110SOL    HW1 2069   0.821   3.473   8.760  1.1537  0.1389 -0.1103
  110SOL    HW2 2070   0.749   3.484   8.892 -1.7080  3.9189 -1.8186
  111SOL     OW 2071   2.658   0.708   3.397  0.2099 -0.0393  0.0535
  111SOL    HW1 2072   2.615   0.646   3.456  2.3591 -1.0648  0.6200
  111SOL    HW2 2073   2.747   0.675   3.388  1.4582  2.9681  0.3310
  112SOL     OW 2074   5.967   0.567   6.424 -0.1848 -0.7510 -0.3894
  112SOL    HW1 2075   5.970   0.623   6.347 -0.0218  0.7917  0.7002
  112SOL    HW2 2076   5.884   0.520   6.416  0.9283 -2.5833 -2.7586
  113SOL     OW 2077   1.876   3.971   7.703 -0.2553  0.5008  0.3202
  113SOL    HW1 2078   1.791   3.978   7.747 -1.0284  1.1116 -1.1802
  113SOL    HW2 2079   1.897   4.061   7.677 -0.4877  0.0390 -1.6567
  114SOL     OW 2080   6.725   3.111   1.249 -0.1617  0.3572  0.9017
  114SOL    HW1 2081   6.724   3.135   1.156  0.0771 -0.1177  0.7707
  114SOL    HW2 2082   6.732   3.194   1.296  0.4980  0.5525  0.4686
  115SOL     OW 2083   1.187   2.927   3.023  0.3438  1.0446 -0.5819
  115SOL    HW1 2084   1.204   2.866   2.952  0.3262  0.1098  0.2012
  115SOL    HW2 2085   1.243   3.002   3.003  2.9919 -0.5793  0.1730
  116SOL     OW 2086   8.926   3.670   4.001 -0.1178  0.2849  0.0859
  116SOL    HW1 2087   8.997   3.647   4.061 -0.5215  1.3549  1.0168
  116SOL    HW2 2088   8.867   3.595   4.004  1.0956 -0.7358 -0.9159
  117SOL     OW 2089   8.085   4.854   4.861  0.6454 -0.2349 -0.2877
  117SOL    HW1 2090   8.014   4.795   4.886 -0.4032  0.6487 -1.0699
  117SOL    HW2 2091   8.159   4.827   4.916 -0.3956 -0.9339  0.8270
  118SOL     OW 2092   7.094   0.568   1.435 -0.6398  0.2297  0.2535
  118SOL    HW1 2093   7.162   0.633   1.451  0.0857 -0.4299 -0.0460
  118SOL    HW2 2094   7.127   0.488   1.477 -1.7241  0.1619  1.0220
  119SOL     OW 2095   1.867   8.994   9.008 -0.2891 -0.0846  0.3119
  119SOL    HW1 2096   1.802   9.039   9.062 -1.0012  0.0656 -0.6274
  119SOL    HW2 2097   1.814   8.946   8.943  0.5367  0.1504 -0.5607
  120SOL     OW 2098   7.035   3.660   6.654  1.1468  0.1321 -0.0008
  120SOL    HW1 2099   7.059   3.750   6.679 -0.5599  0.5694  0.1707
  120SOL    HW2 2100   6.970   3.671   6.584 -0.3661 -0.8999  1.1724
  121SOL     OW 2101   6.306   1.435   9.466 -0.0766  0.4583  0.0837
  121SOL    HW1 2102   6.390   1.406   9.431 -0.3592  2.3507 -2.5066
  121SOL    HW2 2103   6.253   1.355   9.473 -0.1958 -0.1850 -4.7659
  122SOL     OW 2104   6.423   6.882   8.341 -0.2411  0.3869  0.0370
  122SOL    HW1 2105   6.372   6.814   8.299  0.2887  1.1089 -1.8633
  122SOL    HW2 2106   6.417   6.957   8.282 -3.0751  3.0510  3.2318
  123SOL     OW 2107   3.532   6.193   2.666  0.1785  0.7486 -0.2894
  123SOL    HW1 2108   3.621   6.164   2.646 -0.0539 -1.8952  1.8316
  123SOL    HW2 2109   3.488   6.195   2.581  1.6578 -0.2029 -1.1303
  124SOL     OW 2110   1.863   0.639   1.832 -0.2873 -0.2886  0.1858
  124SOL    HW1 2111   1.932   0.608   1.891 -0.2591  0.2782  0.4622
  124SOL    HW2 2112   1.812   0.700   1.885 -1.5224 -1.3277  0.2333
  125SOL     OW 2113   7.083   4.316   5.532  0.4267  0.3023 -0.3850
  125SOL    HW1 2114   7.028   4.279   5.464 -0.5772 -0.2349  0.6983
  125SOL    HW2 2115   7.167   4.332   5.488  0.0430 -0.7224 -1.5530
  126SOL     OW 2116   3.543   5.700   5.192  0.2116 -0.3237 -0.6435
  126SOL    HW1 2117   3.521   5.610   5.168 -0.0603 -0.1956 -0.8788
  126SOL    HW2 2118   3.464   5.750   5.173  0.7906  0.1928 -1.8067
  127SOL     OW 2119   7.325   1.682   0.276 -0.2431  0.2695 -0.0929
  127SOL    HW1 2120   7.379   1.610   0.244 -0.9897 -0.3760  0.0499
  127SOL    HW2 2121   7.291   1.724   0.198 -1.1200 -0.5693 -0.1795
  128SOL     OW 2122   0.155   2.470   7.540 -0.4450 -0.0401  0.0991
  128SOL    HW1 2123   0.232   2.488   7.486 -0.4124  0.4957  0.3138
  128SOL    HW2 2124   0.180   2.499   7.627 -1.0471  0.5695  0.0784
  129SOL     OW 2125   8.227   5.050   2.735  0.1339 -0.0907  0.0565
  129SOL    HW1 2126   8.173   5.034   2.658  0.3855 -2.5860  0.3147
  129SOL    HW2 2127   8.175   5.016   2.808  0.6477  0.5908  0.7483
  130SOL     OW 2128   4.336   6.346   4.462 -0.2424  0.4863 -0.1668
  130SOL    HW1 2129   4.311   6.380   4.548  0.3257  1.1337 -0.2541
  130SOL    HW2 2130   4.410   6.401   4.435 -0.4497  0.3245 -1.0884
  131SOL     OW 2131   0.815   1.296   8.125 -0.3296 -0.1976 -0.7132
  131SOL    HW1 2132   0.741   1.250   8.084 -1.8452  0.7053  0.8804
  131SOL    HW2 2133   0.782   1.385   8.139 -0.6990 -0.8381  4.0886
  132SOL     OW 2134   6.432   8.644   4.299 -0.1797 -0.4067  0.3097
  132SOL    HW1 2135   6.409   8.682   4.384 -1.4457  0.0817 -0.2203
  132SOL    HW2 2136   6.527   8.656   4.293 -0.4092  2.2080  0.4343
  133SOL     OW 2137   9.052   1.435   8.977  0.0154  0.9410 -0.2446
  133SOL    HW1 2138   9.116   1.502   8.952  0.7694  0.5028  0.4529
  133SOL    HW2 2139   9.068   1.363   8.916 -1.1234  1.5638 -1.3093
  134SOL     OW 2140   4.694   3.142   0.047  0.2636 -0.0084 -0.8156
  134SOL    HW1 2141   4.788   3.133   0.058  0.5923  0.4445 -2.7740
  134SOL    HW2 2142   4.667   3.061   0.003 -0.3737 -0.3744  0.2144
  135SOL     OW 2143   4.875   1.200   1.967  0.4985 -0.1396 -0.3705
  135SOL    HW1 2144   4.927   1.178   2.044  0.5266  0.4362 -0.2179
  135SOL    HW2 2145   4.909   1.143   1.898  0.5847 -0.5431 -0.0034
  136SOL     OW 2146   7.198   9.126   1.569 -0.6556  0.0069  0.4930
  136SOL    HW1 2147   7.252   9.193   1.612 -1.1951  0.6461  0.1891
  136SOL    HW2 2148   7.254   9.090   1.500 -0.5274  0.4834  0.3482
  137SOL     OW 2149   0.327   3.944   3.609  0.6507  0.1401  0.1689
  137SOL    HW1 2150   0.372   4.020   3.647  1.8768 -0.1330 -0.6746
  137SOL    HW2 2151   0.244   3.979   3.577  1.7299  1.4683 -1.3754
  138SOL     OW 2152   2.933   0.560   6.701  0.4035  0.0008 -0.2675
  138SOL    HW1 2153   2.973   0.647   6.709 -0.2949  0.2798  0.2693
  138SOL    HW2 2154   2.936   0.541   6.607  1.8642 -0.0314 -0.2407
  139SOL     OW 2155   5.349   7.832   3.306 -0.3210 -0.2602  0.2496
  139SOL    HW1 2156   5.392   7.893   3.246 -3.3157  1.0279 -0.8173
  139SOL    HW2 2157   5.380   7.746   3.280  1.3354  0.5396 -0.5854
  140SOL     OW 2158   9.406   7.848   2.159  0.6273 -0.0353 -0.0106
  140SOL    HW1 2159   9.340   7.799   2.209  2.9160 -1.1816  2.0990
  140SOL    HW2 2160   9.389   7.826   2.068 -1.7095 -0.4820  0.4708
  141SOL     OW 2161   4.539   6.257   0.364 -0.0776  1.3426 -0.1821
  141SOL    HW1 2162   4.575   6.290   0.282  0.2012  1.4334 -0.0237
  141SOL    HW2 2163   4.552   6.163   0.360 -0.2558  1.3221 -0.3328
  142SOL     OW 2164   4.732   8.108   3.946 -0.5652  0.3566  0.1729
  142SOL    HW1 2165   4.701   8.194   3.974 -2.1296 -0.9766  3.0076
  142SOL    HW2 2166   4.656   8.069   3.901  0.6744  0.9694 -2.6823
  143SOL     OW 2167   6.890   0.209   7.791 -0.5135  0.1722  0.1583
  143SOL    HW1 2168   6.835   0.285   7.770 -1.9235 -0.8323  0.0922
  143SOL    HW2 2169   6.829   0.145   7.827  0.4792 -1.2897 -0.6906
  144SOL     OW 2170   6.614   6.361   9.379 -0.3345 -0.6496  0.5211
  144SOL    HW1 2171   6.608   6.404   9.294 -0.4702  0.5526  1.1050
  144SOL    HW2 2172   6.530   6.380   9.422  0.7733  1.3517  2.0308
  145SOL     OW 2173   0.861   3.705   7.419 -0.5060  0.0909 -0.1566
  145SOL    HW1 2174   0.866   3.797   7.444  0.2416  0.2619 -0.8928
  145SOL    HW2 2175   0.904   3.659   7.491  1.2112  0.5417 -0.8272
  146SOL     OW 2176   1.952   2.378   2.447  0.2648  0.3068  0.5733
  146SOL    HW1 2177   1.979   2.286   2.457 -0.9157 -0.0426  0.7424
  146SOL    HW2 2178   2.017   2.427   2.497  1.1416 -0.4038  0.1515
  147SOL     OW 2179   8.543   6.991   2.415  0.0108 -0.3626  0.2474
  147SOL    HW1 2180   8.516   6.963   2.502 -2.7377  0.3719 -0.2775
  147SOL    HW2 2181   8.478   6.953   2.356 -0.9207  2.8086 -0.9780
  148SOL     OW 2182   0.127   4.142   4.608 -0.3870 -0.6441  0.4679
  148SOL    HW1 2183   0.143   4.077   4.540 -0.0301 -0.9604  0.8418
  148SOL    HW2 2184   0.086   4.093   4.679  0.1074 -0.5142  0.8495
  149SOL     OW 2185   3.307   0.353   8.679  0.0121 -0.3147 -0.2412
  149SOL    HW1 2186   3.362   0.422   8.715 -0.3647 -0.1455  0.0279
  149SOL    HW2 2187   3.322   0.278   8.738  0.7720 -0.6144 -0.8056
  150SOL     OW 2188   6.066   4.260   6.865 -0.0574 -0.7572  0.2560
  150SOL    HW1 2189   5.991   4.262   6.926  0.3636  1.7688  0.7940
  150SOL    HW2 2190   6.124   4.328   6.897  1.3155 -0.9727 -1.6518
  151SOL     OW 2191   8.639   8.053   0.513 -0.2297 -0.0646 -0.0970
  151SOL    HW1 2192   8.723   8.099   0.515 -0.1040 -0.2894 -0.1625
  151SOL    HW2 2193   8.589   8.091   0.586 -0.8428  1.5056 -1.2722
  152SOL     OW 2194   7.851   5.435   5.509  0.3204 -0.3028 -0.0102
  152SOL    HW1 2195   7.906   5.473   5.441  1.0776 -0.4970  0.4877
  152SOL    HW2 2196   7.761   5.448   5.478  0.5505  1.8317  0.1110
  153SOL     OW 2197   4.364   3.750   1.203 -0.4649  0.2287  0.2260
  153SOL    HW1 2198   4.344   3.796   1.122 -1.2193 -0.3320  0.0788
  153SOL    HW2 2199   4.459   3.747   1.207 -0.3507  2.6395  0.7280
  154SOL     OW 2200   7.263   3.129   6.704  0.3144  0.4625 -0.5696
  154SOL    HW1 2201   7.249   3.079   6.623  0.1403 -0.7476  0.1912
  154SOL    HW2 2202   7.220   3.213   6.687 -0.4738 -0.0897 -1.4286
  155SOL     OW 2203   7.067   9.088   3.246  0.3486  0.5709  0.0284
  155SOL    HW1 2204   6.976   9.089   3.275  0.6140 -1.6806  1.0912
  155SOL    HW2 2205   7.090   8.996   3.240  1.6592  0.9546 -3.3096
  156SOL     OW 2206   8.257   0.278   8.320 -0.9043  0.1389  0.4316
  156SOL    HW1 2207   8.279   0.250   8.409 -0.9065  1.8932  1.0168
  156SOL    HW2 2208   8.333   0.252   8.268 -0.9367 -0.9764  0.9035
  157SOL     OW 2209   1.646   7.435   2.073 -0.5855 -0.2954 -0.3466
  157SOL    HW1 2210   1.594   7.405   2.148 -3.1987  1.8377 -1.1276
  157SOL    HW2 2211   1.581   7.453   2.005  1.0235  3.0702 -1.2174
  158SOL     OW 2212   5.309   2.717   8.528  0.1163  0.1428  0.0780
  158SOL    HW1 2213   5.254   2.685   8.599  0.7028  0.8184  0.8560
  158SOL    HW2 2214   5.289   2.659   8.454 -0.5988 -0.4864  0.7470
  159SOL     OW 2215   2.937   8.446   2.303 -0.2834  0.1772 -0.3734
  159SOL    HW1 2216   2.900   8.525   2.264  0.5723  0.9993  0.4397
  159SOL    HW2 2217   2.897   8.441   2.390  2.0164  1.5431  0.8631
  160SOL     OW 2218   4.950   7.071   7.041  0.0548 -0.6434  0.2094
  160SOL    HW1 2219   4.960   7.002   6.976  1.1728 -1.6815  1.4271
  160SOL    HW2 2220   4.860   7.061   7.074 -0.8217  0.4195 -1.6793
  161SOL     OW 2221   2.201   9.250   8.750 -0.1226  0.3568  0.0472
  161SOL    HW1 2222   2.270   9.207   8.800  0.7275 -0.8623 -2.0481
  161SOL    HW2 2223   2.181   9.189   8.679 -0.0757  2.6717 -2.0988
  162SOL     OW 2224   9.380   3.632   1.908 -0.4558 -0.0358  0.1026
  162SOL    HW1 2225   9.360   3.717   1.869  1.1242  0.3292  0.0527
  162SOL    HW2 2226   9.312   3.620   1.974 -0.1874  1.6777  0.7293
  163SOL     OW 2227   2.092   5.414   2.209 -0.0829 -0.1500  0.0756
  163SOL    HW1 2228   2.022   5.451   2.155  0.7046  2.9944  1.0226
  163SOL    HW2 2229   2.046   5.363   2.276 -1.3036 -0.1889 -0.7626
  164SOL     OW 2230   6.462   9.182   0.705  0.0495  0.2349  0.5581
  164SOL    HW1 2231   6.503   9.097   0.722 -2.1788 -0.9964  0.0906
  164SOL    HW2 2232   6.535   9.244   0.706  1.9064 -1.8213 -0.2355
  165SOL     OW 2233   8.782   5.118   9.187 -0.6356 -0.0825 -0.7051
  165SOL    HW1 2234   8.762   5.177   9.259 -1.1469  0.1606 -1.0446
  165SOL    HW2 2235   8.869   5.083   9.209 -0.6585  0.2089 -0.1227
  166SOL     OW 2236   6.673   6.757   2.346 -0.5311  0.2665 -0.1135
  166SOL    HW1 2237   6.709   6.835   2.388 -0.0365 -0.2910  0.5086
  166SOL    HW2 2238   6.749   6.714   2.306 -1.0235  0.9499 -1.8935
  167SOL     OW 2239   1.183   5.807   9.196  0.0906  0.4167 -0.0519
  167SOL    HW1 2240   1.104   5.811   9.251  0.4660  0.9452  0.4517
  167SOL    HW2 2241   1.151   5.775   9.111 -0.4770 -0.5153  0.4937
  168SOL     OW 2242   8.640   2.889   8.652 -0.1549 -0.4269  0.1107
  168SOL    HW1 2243   8.618   2.832   8.725 -0.6852 -1.3350 -0.7383
  168SOL    HW2 2244   8.598   2.849   8.576  0.0011  0.7425 -0.6247
  169SOL     OW 2245   1.921   9.241   9.137 -0.5436  0.1372  0.3647
  169SOL    HW1 2246   1.946   9.161   9.092 -1.2692 -0.6185  1.2682
  169SOL    HW2 2247   1.950   9.312   9.079 -0.7025 -0.7857 -0.8718
  170SOL     OW 2248   1.506   7.634   5.689  0.3347  0.1383  0.2231
  170SOL    HW1 2249   1.482   7.551   5.729 -0.7880  0.3082 -0.0695
  170SOL    HW2 2250   1.442   7.697   5.723  0.3055  0.5947 -0.6342
  171SOL     OW 2251   4.693   0.566   7.302 -0.2462 -0.0182 -0.5219
  171SOL    HW1 2252   4.647   0.553   7.385  2.1649 -2.4143  0.5582
  171SOL    HW2 2253   4.735   0.651   7.312 -1.9593  0.8709 -0.3742
  172SOL     OW 2254   2.575   4.462   4.614  0.6996  0.1968 -0.1594
  172SOL    HW1 2255   2.613   4.548   4.596  1.6858 -0.1219  0.3136
  172SOL    HW2 2256   2.564   4.422   4.528 -0.6249  1.1368 -0.4495
  173SOL     OW 2257   3.106   2.469   8.775  0.1999 -0.3803  0.1829
  173SOL    HW1 2258   3.162   2.500   8.847 -0.8836 -0.4724  1.0992
  173SOL    HW2 2259   3.037   2.535   8.769  0.2896 -0.3712 -0.7996
  174SOL     OW 2260   1.785   4.099   7.193  0.3942 -0.1094 -0.0118
  174SOL    HW1 2261   1.730   4.033   7.236 -0.6652  0.6376 -0.1897
  174SOL    HW2 2262   1.788   4.072   7.101 -0.7154  0.5248 -0.2433
  175SOL     OW 2263   3.631   3.660   3.074  0.3835  0.3040  0.2415
  175SOL    HW1 2264   3.666   3.655   2.985  2.1866 -0.5156  0.9389
  175SOL    HW2 2265   3.702   3.698   3.125 -0.0925 -0.5264  1.5751
  176SOL     OW 2266   0.135   0.880   1.254  0.2935  0.5676 -0.1160
  176SOL    HW1 2267   0.086   0.823   1.314  1.4184  0.2156  0.4903
  176SOL    HW2 2268   0.219   0.836   1.243  0.6685  1.4252 -0.7382
  177SOL     OW 2269   4.584   7.836   0.420  0.2484 -0.3529  0.2031
  177SOL    HW1 2270   4.505   7.826   0.473  0.4564 -2.0086  0.2560
  177SOL    HW2 2271   4.653   7.794   0.470  0.3510 -2.4379 -1.5310
  178SOL     OW 2272   3.433   0.077   8.571 -0.2910 -0.5767  0.6657
  178SOL    HW1 2273   3.428   0.160   8.522  2.1152 -0.5563  0.3443
  178SOL    HW2 2274   3.372   0.019   8.525  0.2466  0.1216 -1.0239
  179SOL     OW 2275   4.683   1.042   7.508 -0.2488 -0.1267  0.2338
  179SOL    HW1 2276   4.637   1.115   7.468 -0.5015  0.1098  0.9394
  179SOL    HW2 2277   4.714   1.077   7.592  0.2155 -0.6281  0.2769
  180SOL     OW 2278   2.854   3.589   8.777 -0.1594  0.0994 -0.3987
  180SOL    HW1 2279   2.867   3.578   8.682  1.2483 -0.7551 -0.1338
  180SOL    HW2 2280   2.887   3.507   8.815 -0.2771  0.6269  0.8643
  181SOL     OW 2281   6.716   1.535   9.468  0.5103 -0.3000 -0.0233
  181SOL    HW1 2282   6.800   1.559   9.429  0.3449 -0.1668 -0.2969
  181SOL    HW2 2283   6.672   1.618   9.486 -0.6187 -0.3613 -2.1759
  182SOL     OW 2284   0.865   2.027   2.836 -0.1002  0.1279 -0.2085
  182SOL    HW1 2285   0.867   1.971   2.758 -1.4159 -0.6067  0.2587
  182SOL    HW2 2286   0.809   1.980   2.898  2.3958 -0.2358  1.9246
  183SOL     OW 2287   8.408   2.644   0.539 -0.7910 -0.2015  0.0509
  183SOL    HW1 2288   8.347   2.658   0.612 -0.8301 -1.2221  0.2289
  183SOL    HW2 2289   8.464   2.721   0.539 -0.8431 -0.1557  1.1212
  184SOL     OW 2290   7.172   8.734   3.675 -0.7017  0.2128 -0.7560
  184SOL    HW1 2291   7.180   8.829   3.659 -0.4530  0.0747 -1.5055
  184SOL    HW2 2292   7.096   8.726   3.732 -1.8908  0.7167 -2.2162
  185SOL     OW 2293   6.949   7.797   9.487 -0.5928  0.0448 -1.0301
  185SOL    HW1 2294   6.882   7.836   9.431  0.3414  1.8777 -0.9427
  185SOL    HW2 2295   7.025   7.855   9.478  0.6347 -1.3886 -0.3169
  186SOL     OW 2296   5.560   3.708   2.630  0.6826  0.0704 -0.4678
  186SOL    HW1 2297   5.467   3.715   2.606  0.3308 -2.3585 -0.0678
  186SOL    HW2 2298   5.581   3.615   2.615  2.5693  0.1926  1.1271
  187SOL     OW 2299   5.202   5.807   3.181  0.2815  0.3962  0.1737
  187SOL    HW1 2300   5.278   5.753   3.156  0.5547 -0.0399  1.8081
  187SOL    HW2 2301   5.181   5.856   3.102  0.5375 -1.4970 -1.1599
  188SOL     OW 2302   6.349   3.667   5.290 -0.1795  0.3757  0.1510
  188SOL    HW1 2303   6.417   3.600   5.303  0.6642  0.4346 -3.1202
  188SOL    HW2 2304   6.281   3.644   5.353  1.7745 -1.1850  1.8405
  189SOL     OW 2305   4.085   4.885   9.465 -0.0165  0.2173 -0.2002
  189SOL    HW1 2306   4.079   4.830   9.543 -1.8487  1.1390  0.3724
  189SOL    HW2 2307   4.178   4.902   9.454  0.5505 -2.2664  0.0820
  190SOL     OW 2308   1.667   6.518   5.795 -0.3919 -0.2065 -0.3589
  190SOL    HW1 2309   1.725   6.448   5.764 -0.3146 -0.5776  0.5963
  190SOL    HW2 2310   1.716   6.598   5.778  0.6910 -0.5442  0.9716
  191SOL     OW 2311   5.137   0.801   3.535 -0.2409 -0.9728  0.4603
  191SOL    HW1 2312   5.196   0.729   3.557 -0.7500 -0.9749  1.9992
  191SOL    HW2 2313   5.112   0.786   3.444  1.5785 -1.3423 -0.0188
  192SOL     OW 2314   8.134   5.851   1.272  0.3103 -0.0668 -0.5334
  192SOL    HW1 2315   8.064   5.788   1.256  0.6880 -0.8051  0.6078
  192SOL    HW2 2316   8.092   5.921   1.323  0.6187 -1.1227  1.2854
  193SOL     OW 2317   2.832   3.337   3.437  0.2628  0.3327 -0.2907
  193SOL    HW1 2318   2.817   3.431   3.436  0.9937  0.4492 -0.8814
  193SOL    HW2 2319   2.818   3.309   3.347 -1.3596 -0.3752  0.1354
  194SOL     OW 2320   5.632   1.004   8.369  0.5764 -0.0867 -0.2511
  194SOL    HW1 2321   5.548   0.987   8.412  0.7804 -0.9559 -0.1832
  194SOL    HW2 2322   5.610   1.062   8.296 -0.5198 -2.2604 -1.7794
  195SOL     OW 2323   3.994   6.489   4.934  0.0895  0.1391 -0.1465
  195SOL    HW1 2324   4.031   6.425   4.995  0.4406  1.4441  1.0414
  195SOL    HW2 2325   4.017   6.574   4.971 -0.2468  0.9725 -1.7701
  196SOL     OW 2326   6.473   7.712   8.341 -0.3408 -0.2941  0.2444
  196SOL    HW1 2327   6.567   7.725   8.350 -0.3453 -0.6996  0.9448
  196SOL    HW2 2328   6.465   7.631   8.291 -0.3231  1.3936 -2.7172
  197SOL     OW 2329   1.261   2.735   7.971 -0.3215 -0.3030 -0.1312
  197SOL    HW1 2330   1.235   2.826   7.987 -1.5262 -0.7488  0.5842
  197SOL    HW2 2331   1.210   2.684   8.035  2.0199 -1.2851  1.0580
  198SOL     OW 2332   0.232   5.473   5.751 -0.7932 -0.4107 -0.1067
  198SOL    HW1 2333   0.146   5.484   5.710 -0.9680 -0.4921  0.2344
  198SOL    HW2 2334   0.294   5.498   5.683 -1.0878 -0.3408 -0.3530
  199SOL     OW 2335   4.109   3.874   7.840  0.2046  0.0386 -0.4492
  199SOL    HW1 2336   4.034   3.824   7.871 -0.3635  0.2274 -1.4949
  199SOL    HW2 2337   4.156   3.813   7.783  1.7281 -0.6001  1.3750
  200SOL     OW 2338   8.427   8.269   0.143  0.7296 -0.3790 -0.6813
  200SOL    HW1 2339   8.402   8.272   0.235  0.5686  0.9649 -0.7581
  200SOL    HW2 2340   8.492   8.199   0.139  0.8329 -0.3718  0.4676
  201SOL     OW 2341   0.200   4.527   9.212  0.3182  0.4884 -0.3419
  201SOL    HW1 2342   0.282   4.520   9.163  0.9497  1.8612  0.4598
  201SOL    HW2 2343   0.148   4.590   9.163 -0.7400 -1.1655 -1.4351
  202SOL     OW 2344   5.717   9.073   1.903 -0.4938  0.0885  0.6084
  202SOL    HW1 2345   5.702   9.167   1.892  0.2567 -0.0180 -2.0283
  202SOL    HW2 2346   5.639   9.032   1.867 -0.5485 -0.3196  1.1862
  203SOL     OW 2347   7.487   3.511   2.842 -0.1258 -0.1242 -0.3707
  203SOL    HW1 2348   7.530   3.522   2.927  0.4147 -2.2557 -0.3310
  203SOL    HW2 2349   7.538   3.444   2.798 -1.5955 -0.4817 -1.5831
  204SOL     OW 2350   1.254   2.032   0.258 -0.0432 -0.0631 -0.0195
  204SOL    HW1 2351   1.240   2.076   0.341  0.3510 -0.2778  0.1625
  204SOL    HW2 2352   1.347   2.046   0.239  0.1282 -0.9670  0.1293
  205SOL     OW 2353   3.502   4.058   0.152  0.1899 -0.2445  0.8364
  205SOL    HW1 2354   3.478   4.078   0.062 -1.0124  0.6186  1.3241
  205SOL    HW2 2355   3.432   4.002   0.185  1.1576 -1.4527  0.9433
  206SOL     OW 2356   2.740   0.782   4.241 -0.6276  0.1845 -0.0420
  206SOL    HW1 2357   2.820   0.786   4.293 -0.6692  0.7088 -0.0187
  206SOL    HW2 2358   2.739   0.692   4.207  0.0889  0.2446 -0.2385
  207SOL     OW 2359   6.898   5.459   6.831 -0.1944 -0.3936  0.8437
  207SOL    HW1 2360   6.806   5.470   6.807 -0.3563  0.7027  1.8956
  207SOL    HW2 2361   6.942   5.536   6.795  0.4977 -1.3259 -0.3995
  208SOL     OW 2362   8.172   4.819   4.523  0.0601  0.1567 -0.7136
  208SOL    HW1 2363   8.124   4.743   4.555 -0.7157  0.4623 -1.1011
  208SOL    HW2 2364   8.134   4.893   4.571  1.2980  0.2346  0.1796
  209SOL     OW 2365   3.899   8.536   3.522 -0.0415  0.1678  0.2510
  209SOL    HW1 2366   3.810   8.507   3.542 -0.0496  1.5219  2.6691
  209SOL    HW2 2367   3.956   8.473   3.567  0.0721  1.1068  1.4860
  210SOL     OW 2368   5.778   2.690   1.884 -0.0121 -0.0862  0.1186
  210SOL    HW1 2369   5.752   2.780   1.900  0.8508  0.3211 -0.6475
  210SOL    HW2 2370   5.756   2.643   1.964 -0.1009  0.8870  0.6733
  211SOL     OW 2371   1.199   6.934   1.611 -0.1176 -0.1148  0.3998
  211SOL    HW1 2372   1.240   6.982   1.539 -1.0844 -0.6242 -0.5227
  211SOL    HW2 2373   1.233   6.976   1.690  2.7307 -0.9782 -0.2610
  212SOL     OW 2374   0.646   4.803   4.305 -0.6078 -0.6691  0.3068
  212SOL    HW1 2375   0.693   4.726   4.275 -0.4419 -0.2157 -0.6297
  212SOL    HW2 2376   0.684   4.822   4.391  0.1403 -0.9744  0.0526
  213SOL     OW 2377   1.936   9.049   3.915 -0.1208  0.0568  0.1239
  213SOL    HW1 2378   2.026   9.055   3.885  0.0787  0.3637  0.7702
  213SOL    HW2 2379   1.930   8.964   3.958 -0.4653 -0.4782 -0.9541
  214SOL     OW 2380   2.415   1.158   2.565  0.3651  0.1565 -0.2781
  214SOL    HW1 2381   2.362   1.168   2.645  0.4433 -0.2108 -0.1797
  214SOL    HW2 2382   2.368   1.209   2.499  0.8895  1.3972  0.2820
  215SOL     OW 2383   1.446   3.604   6.513  0.5383  0.9035  0.1776
  215SOL    HW1 2384   1.413   3.583   6.600  2.1648 -2.4599  0.1377
  215SOL    HW2 2385   1.369   3.634   6.464 -1.1016 -0.4203  1.8238
  216SOL     OW 2386   2.122   3.020   5.549 -0.0028 -0.4613  0.2446
  216SOL    HW1 2387   2.148   2.931   5.573 -1.6501 -0.9385  0.4483
  216SOL    HW2 2388   2.047   3.039   5.606 -1.0158  0.2087 -1.2409
  217SOL     OW 2389   1.345   6.650   5.357  0.3492 -0.5634  0.0814
  217SOL    HW1 2390   1.312   6.733   5.322  0.1458 -0.8486 -0.4282
  217SOL    HW2 2391   1.372   6.670   5.446  2.4429  0.5915 -0.7293
  218SOL     OW 2392   0.016   0.236   7.410 -0.3917  0.0580  0.3269
  218SOL    HW1 2393  -0.071   0.261   7.376  0.1225 -0.0066 -1.1155
  218SOL    HW2 2394   0.075   0.300   7.372  0.1090  0.6864  2.0753
  219SOL     OW 2395   7.553   9.329   4.400  0.2184 -0.0963  0.4430
  219SOL    HW1 2396   7.638   9.346   4.438  0.7107  0.0211 -0.6730
  219SOL    HW2 2397   7.527   9.244   4.436  0.2319  0.4322  1.7404
  220SOL     OW 2398   8.182   8.792   0.025 -0.2739 -1.1785 -0.1032
  220SOL    HW1 2399   8.139   8.850  -0.038 -0.4276 -2.8960 -1.6586
  220SOL    HW2 2400   8.158   8.828   0.110 -1.3865  0.2961 -0.9792
  221SOL     OW 2401   5.149   7.287   4.825 -0.0571 -0.2952  0.5970
  221SOL    HW1 2402   5.163   7.254   4.914  1.1718 -1.3425  0.0505
  221SOL    HW2 2403   5.223   7.347   4.810  1.3921 -2.2797 -0.6670
  222SOL     OW 2404   2.217   2.233   4.507  0.0647 -0.4416 -0.2482
  222SOL    HW1 2405   2.195   2.157   4.561  1.7137  0.5521  1.9567
  222SOL    HW2 2406   2.265   2.196   4.432 -0.0589 -1.6467  0.2437
  223SOL     OW 2407   9.085   6.030   5.720  0.3383 -0.0465 -0.1352
  223SOL    HW1 2408   9.112   6.114   5.684  2.2101 -1.3086 -1.9050
  223SOL    HW2 2409   9.022   5.996   5.657  0.8051 -0.6473 -0.2906
  224SOL     OW 2410   6.125   5.271   7.495  0.4323 -0.3954 -0.1901
  224SOL    HW1 2411   6.199   5.332   7.496  0.7681 -0.7892  1.8547
  224SOL    HW2 2412   6.166   5.185   7.495 -0.0561 -0.6775 -1.9131
  225SOL     OW 2413   5.997   4.899   7.776  0.0716 -0.1483 -0.1466
  225SOL    HW1 2414   5.955   4.813   7.780 -0.7360  0.1899 -1.0204
  225SOL    HW2 2415   6.065   4.889   7.709 -0.8615  0.2328 -1.1679
  226SOL     OW 2416   0.450   6.340   6.653 -0.7323  0.1793  0.3115
  226SOL    HW1 2417   0.432   6.335   6.746  2.0828 -0.6417  0.9043
  226SOL    HW2 2418   0.452   6.249   6.623 -1.0148  0.4010 -0.4141
  227SOL     OW 2419   0.920   1.358   2.827  0.3782 -0.2483 -0.4052
  227SOL    HW1 2420   0.864   1.412   2.883  2.9155  0.5733  1.5246
  227SOL    HW2 2421   0.949   1.418   2.757 -0.6663 -0.5425 -1.1213
  228SOL     OW 2422   6.150   8.828   6.005 -0.5857  0.0463  0.0208
  228SOL    HW1 2423   6.197   8.776   6.070  0.3762  0.5071 -0.2714
  228SOL    HW2 2424   6.136   8.913   6.048 -0.1475  0.2767 -0.2746
  229SOL     OW 2425   1.378   2.341   0.791  0.0087  0.3443  0.0773
  229SOL    HW1 2426   1.283   2.332   0.801  0.0356 -0.2602 -0.1881
  229SOL    HW2 2427   1.399   2.422   0.837 -0.4585 -0.1967  1.2835
  230SOL     OW 2428   9.122   6.901   8.192 -0.8788  0.3288 -0.6951
  230SOL    HW1 2429   9.118   6.902   8.096 -0.8888 -0.4367 -0.7054
  230SOL    HW2 2430   9.051   6.842   8.219  1.2804 -2.2806 -0.3676
  231SOL     OW 2431   3.236   7.881   1.473  0.3832  0.2761 -0.7902
  231SOL    HW1 2432   3.279   7.916   1.551 -1.9152  3.6105 -0.8078
  231SOL    HW2 2433   3.184   7.808   1.505  0.5986  0.6782  0.5248
  232SOL     OW 2434   1.819   3.180   3.052  0.0539 -0.4275 -0.0359
  232SOL    HW1 2435   1.807   3.091   3.021  1.0408  0.0153 -1.7881
  232SOL    HW2 2436   1.901   3.178   3.102 -1.4290 -1.0938  2.5546
  233SOL     OW 2437   7.835   7.276   8.518 -0.0462 -0.6119 -0.4048
  233SOL    HW1 2438   7.769   7.271   8.448  0.0133  0.2077 -0.5261
  233SOL    HW2 2439   7.868   7.366   8.514  1.6794 -1.2137 -0.8903
  234SOL     OW 2440   6.418   7.198   0.911 -0.0567 -0.0512  0.6815
  234SOL    HW1 2441   6.382   7.116   0.878 -2.0815  1.2187 -0.4840
  234SOL    HW2 2442   6.484   7.171   0.975 -1.8700 -2.5800  1.6670
  235SOL     OW 2443   4.462   3.340   5.741  0.5721 -0.1302  0.6589
  235SOL    HW1 2444   4.471   3.261   5.687 -2.8809  1.0550 -1.9702
  235SOL    HW2 2445   4.397   3.317   5.807 -0.9139  0.6092 -0.4995
  236SOL     OW 2446   4.544   6.023   5.926 -0.1963  0.2106 -0.4025
  236SOL    HW1 2447   4.604   6.039   5.999 -0.5669 -2.1147  0.5048
  236SOL    HW2 2448   4.457   6.028   5.966 -0.4504  0.1597 -0.9501
  237SOL     OW 2449   2.405   2.902   1.370 -0.1365 -0.2421  0.1958
  237SOL    HW1 2450   2.311   2.886   1.365 -0.1376 -0.4379  0.7558
  237SOL    HW2 2451   2.423   2.912   1.464  0.5057 -0.8388  0.1497
  238SOL     OW 2452   3.664   4.279   2.265  0.3210  0.1158  0.2242
  238SOL    HW1 2453   3.664   4.370   2.234  1.9639  0.3783  0.9172
  238SOL    HW2 2454   3.629   4.285   2.354 -0.8465 -0.1336 -0.2030
  239SOL     OW 2455   0.569   6.743   6.112  0.0303  0.0114 -0.3700
  239SOL    HW1 2456   0.630   6.671   6.126  0.7409  0.5021 -0.8430
  239SOL    HW2 2457   0.553   6.778   6.200  0.5082 -0.0694 -0.2485
  240SOL     OW 2458   1.528   8.150   3.431  0.5095  0.2645  0.1749
  240SOL    HW1 2459   1.539   8.211   3.359  0.2384 -1.1351 -1.1018
  240SOL    HW2 2460   1.615   8.113   3.444  0.2456 -0.6318 -0.5214
  241SOL     OW 2461   7.037   7.319   3.278  0.0941 -0.3710  0.5223
  241SOL    HW1 2462   7.019   7.408   3.249  2.4155  0.3275  1.0435
  241SOL    HW2 2463   6.958   7.270   3.256 -1.1235  1.7419 -0.0246
  242SOL     OW 2464   5.403   9.340   2.110  0.2359 -0.4817  0.7385
  242SOL    HW1 2465   5.478   9.281   2.101 -1.1094 -2.1916  0.3003
  242SOL    HW2 2466   5.437   9.425   2.081  2.3038 -0.9280  1.6487
  243SOL     OW 2467   1.521   7.915   4.567  0.1044 -0.2012  0.2202
  243SOL    HW1 2468   1.560   7.947   4.648  1.6522  0.4076 -0.7156
  243SOL    HW2 2469   1.572   7.837   4.544  0.6347  0.4295 -0.8625
  244SOL     OW 2470   0.812   1.062   3.840  0.0273 -0.2202 -0.1324
  244SOL    HW1 2471   0.864   1.027   3.768  0.0529 -2.3287  0.8386
  244SOL    HW2 2472   0.726   1.077   3.801  0.5302  0.4602 -1.0305
  245SOL     OW 2473   2.647   5.671   1.594  0.1404 -0.0436  0.1593
  245SOL    HW1 2474   2.646   5.582   1.561 -0.6865 -0.3633  1.0159
  245SOL    HW2 2475   2.725   5.711   1.554  1.2378 -1.5179  0.7442
  246SOL     OW 2476   2.734   6.230   1.530 -0.6145 -0.2104 -0.2507
  246SOL    HW1 2477   2.712   6.279   1.609  0.3846 -1.7059  1.0274
  246SOL    HW2 2478   2.651   6.221   1.483 -1.2899  0.4413  0.7684
  247SOL     OW 2479   2.285   5.768   2.828  0.0022 -0.1949 -0.6268
  247SOL    HW1 2480   2.377   5.790   2.837 -0.2320  0.9139 -0.7325
  247SOL    HW2 2481   2.264   5.719   2.908  0.3732  0.7086  0.0443
  248SOL     OW 2482   7.857   0.385   3.206  0.0157  0.2969  0.7375
  248SOL    HW1 2483   7.814   0.367   3.122 -0.4792  0.8325  0.8680
  248SOL    HW2 2484   7.949   0.397   3.185  0.3143 -1.8445  0.5687
  249SOL     OW 2485   0.610   1.078   5.974  0.1396 -0.2485  0.6673
  249SOL    HW1 2486   0.575   1.156   5.932 -1.2780 -0.0899  2.0486
  249SOL    HW2 2487   0.675   1.110   6.036  0.9742 -0.3552 -0.1178
  250SOL     OW 2488   1.133   2.388   1.278  0.2278 -0.2993  0.0724
  250SOL    HW1 2489   1.173   2.470   1.305 -2.2528  0.5085  1.7651
  250SOL    HW2 2490   1.041   2.410   1.261 -0.2652 -2.5115 -0.5744
  251SOL     OW 2491   5.534   1.806   5.495  0.2206 -0.1166  0.1929
  251SOL    HW1 2492   5.594   1.880   5.488 -0.1532  0.1249 -0.5569
  251SOL    HW2 2493   5.447   1.846   5.496  0.0819 -0.3876  2.4240
  252SOL     OW 2494   5.985   0.915   3.591  0.5964  0.5977 -0.4399
  252SOL    HW1 2495   5.964   0.980   3.524 -1.9887 -1.6205 -1.9733
  252SOL    HW2 2496   6.025   0.843   3.543  1.1613  0.0258  0.8412
  253SOL     OW 2497   6.557   9.113   3.601  0.3647  0.1396  0.3777
  253SOL    HW1 2498   6.546   9.190   3.657  0.3171 -0.6073  1.4392
  253SOL    HW2 2499   6.651   9.097   3.601  0.3849  0.2628  0.0702
  254SOL     OW 2500   7.813   6.620   5.829  0.7652  0.2279 -0.1429
  254SOL    HW1 2501   7.890   6.579   5.869  0.6624  0.2791  0.1097
  254SOL    HW2 2502   7.775   6.674   5.899 -0.3403 -0.9430  0.2147
  255SOL     OW 2503   1.814   8.642   5.959  0.0318  0.0786 -0.1821
  255SOL    HW1 2504   1.852   8.567   6.005  1.0705  0.1128 -0.9496
  255SOL    HW2 2505   1.724   8.615   5.940  0.2938 -0.8416 -0.1618
  256SOL     OW 2506   0.353   6.862   6.414  0.0928 -0.5804  0.0122
  256SOL    HW1 2507   0.446   6.884   6.420 -0.3365  1.5660 -0.2812
  256SOL    HW2 2508   0.339   6.843   6.321  0.0368  0.1857 -0.1409
  257SOL     OW 2509   7.496   5.228   4.094 -0.4302 -0.1588  0.2265
  257SOL    HW1 2510   7.534   5.168   4.029 -1.1383 -0.4355  0.0551
  257SOL    HW2 2511   7.498   5.178   4.176  0.7781  0.3144  0.5106
  258SOL     OW 2512   5.595   2.710   8.676  0.0792  0.2523 -0.0879
  258SOL    HW1 2513   5.646   2.629   8.679  0.9699  0.7183 -1.5404
  258SOL    HW2 2514   5.513   2.685   8.633  1.2402  0.5002 -2.6014
  259SOL     OW 2515   6.682   8.215   7.837  0.3604 -0.3323 -0.4252
  259SOL    HW1 2516   6.763   8.168   7.816 -0.0520 -1.8582  1.2072
  259SOL    HW2 2517   6.620   8.147   7.860  0.0024  0.9653  2.9621
  260SOL     OW 2518   5.346   6.833   6.571  0.3772  0.1182 -0.6863
  260SOL    HW1 2519   5.323   6.857   6.481 -0.3751  1.2504 -0.2196
  260SOL    HW2 2520   5.425   6.780   6.562 -1.7007 -2.9636 -2.2728
  261SOL     OW 2521   5.596   8.716   7.554  0.1844 -0.2930  0.4583
  261SOL    HW1 2522   5.648   8.790   7.587 -3.2848  0.8921  3.9601
  261SOL    HW2 2523   5.560   8.748   7.471  0.7217  0.9534  0.6743
  262SOL     OW 2524   5.755   1.511   1.431  0.1753 -0.3962 -0.0926
  262SOL    HW1 2525   5.694   1.437   1.434  0.0238 -0.3442 -1.4252
  262SOL    HW2 2526   5.717   1.575   1.493 -0.6135 -0.7469 -0.1976
  263SOL     OW 2527   0.880   7.034   7.902  0.0774  0.6986  0.0327
  263SOL    HW1 2528   0.903   6.953   7.856  0.9727  0.3353  1.1004
  263SOL    HW2 2529   0.836   7.087   7.835 -1.5677 -1.0928 -0.4077
  264SOL     OW 2530   2.393   5.733   5.528 -0.4981  0.4222  0.3671
  264SOL    HW1 2531   2.416   5.731   5.621  0.0095 -1.3560  0.2208
  264SOL    HW2 2532   2.424   5.819   5.498  1.2393  0.1775  1.3577
  265SOL     OW 2533   2.061   1.757   7.829 -0.1875  0.6282 -0.3705
  265SOL    HW1 2534   2.001   1.688   7.859 -1.3323  0.8421 -2.0506
  265SOL    HW2 2535   2.029   1.836   7.873 -2.0727  1.0047 -2.2768
  266SOL     OW 2536   5.344   4.574   1.655 -0.4096  0.4043 -0.1182
  266SOL    HW1 2537   5.306   4.656   1.686 -1.1534  0.0897 -0.1923
  266SOL    HW2 2538   5.272   4.511   1.658  0.3317 -0.4529  0.7075
  267SOL     OW 2539   6.634   9.235   5.552 -0.4381  0.2052 -0.9201
  267SOL    HW1 2540   6.609   9.217   5.642  1.7198 -1.2934 -0.5608
  267SOL    HW2 2541   6.570   9.186   5.499  0.2228 -1.6293 -0.0942
  268SOL     OW 2542   7.863   2.452   7.008  0.5144  0.0136 -0.7357
  268SOL    HW1 2543   7.852   2.358   6.994  0.7311 -0.0155 -0.7178
  268SOL    HW2 2544   7.774   2.487   7.008  0.2624 -0.4741  1.2264
  269SOL     OW 2545   5.774   6.069   6.707  0.2431 -0.6526 -0.4514
  269SOL    HW1 2546   5.831   6.105   6.639  2.6298  1.3919  2.3375
  269SOL    HW2 2547   5.833   6.016   6.762 -0.5287  1.0542  2.2137
  270SOL     OW 2548   8.470   1.199   1.068 -0.1827 -0.1320 -0.5205
  270SOL    HW1 2549   8.530   1.137   1.026  0.1793 -0.0933 -0.0713
  270SOL    HW2 2550   8.394   1.147   1.092 -0.0724 -0.3072 -0.5535
  271SOL     OW 2551   9.273   1.615   8.945  0.5856  0.1170  0.7033
  271SOL    HW1 2552   9.349   1.596   8.890 -0.4493 -0.0064 -0.7436
  271SOL    HW2 2553   9.307   1.615   9.034  2.3382  0.4132  0.0657
  272SOL     OW 2554   8.957   6.788   0.907 -0.3415 -0.7996 -0.5110
  272SOL    HW1 2555   8.898   6.857   0.938 -0.2312 -0.7168 -0.4852
  272SOL    HW2 2556   8.983   6.741   0.986 -1.8751 -2.0485 -0.7021
  273SOL     OW 2557   7.906   4.508   5.642  0.2192 -0.8789  0.1358
  273SOL    HW1 2558   7.946   4.465   5.717 -0.0706 -3.0392 -0.8746
  273SOL    HW2 2559   7.817   4.473   5.639  0.0240 -0.3474 -0.8583
  274SOL     OW 2560   3.309   4.238   5.199 -0.6669  0.4596  0.5715
  274SOL    HW1 2561   3.240   4.294   5.165 -2.6914  0.0556  3.5343
  274SOL    HW2 2562   3.388   4.291   5.197 -0.9640  0.9564 -2.9173
  275SOL     OW 2563   6.383   7.721   0.713  0.1772 -0.2269  0.2841
  275SOL    HW1 2564   6.371   7.647   0.773  0.9868  0.5159  1.4099
  275SOL    HW2 2565   6.473   7.749   0.728  0.0865  0.5656 -0.6166
  276SOL     OW 2566   3.231   2.865   3.259  0.0904 -0.6612 -0.0184
  276SOL    HW1 2567   3.287   2.927   3.213 -0.2179 -1.1392 -1.0690
  276SOL    HW2 2568   3.176   2.827   3.190  0.0332 -1.8388  0.6574
  277SOL     OW 2569   8.267   4.209   3.342  0.2366 -0.3156  0.7303
  277SOL    HW1 2570   8.172   4.193   3.346  0.5348 -2.0163  1.8382
  277SOL    HW2 2571   8.289   4.203   3.249 -0.4482 -1.8153  0.6474
  278SOL     OW 2572   7.236   6.933   0.434 -0.1714  0.3924  0.3620
  278SOL    HW1 2573   7.263   7.012   0.480 -1.0615  1.0566 -0.2109
  278SOL    HW2 2574   7.195   6.965   0.353 -0.2334 -0.6640 -0.0435
  279SOL     OW 2575   1.782   6.617   4.355  0.6405 -0.0911  0.8314
  279SOL    HW1 2576   1.730   6.544   4.323 -3.0346  1.9559  1.5514
  279SOL    HW2 2577   1.802   6.668   4.276 -0.7056  0.3860  0.7760
  280SOL     OW 2578   2.521   2.695   2.609 -0.2993  0.3899 -0.0824
  280SOL    HW1 2579   2.564   2.671   2.691 -2.1006  0.7480  1.0220
  280SOL    HW2 2580   2.549   2.785   2.593 -1.7603  1.1751  1.4642
  281SOL     OW 2581   2.313   5.631   3.728  0.4778  0.4827 -0.0422
  281SOL    HW1 2582   2.395   5.678   3.714 -0.3716  2.0596  0.0592
  281SOL    HW2 2583   2.334   5.567   3.796  0.9632  2.8492  2.2213
  282SOL     OW 2584   4.748   1.448   5.013  0.3926  0.1326  0.0058
  282SOL    HW1 2585   4.741   1.488   4.927 -1.6756  1.2189  0.6083
  282SOL    HW2 2586   4.713   1.359   5.001  1.1263 -0.0944 -0.4817
  283SOL     OW 2587   0.400   0.767   4.711 -0.0027 -0.4051 -0.1850
  283SOL    HW1 2588   0.338   0.841   4.710 -0.9106 -1.1354 -1.8365
  283SOL    HW2 2589   0.483   0.805   4.682  0.4512  0.6131  2.1609
  284SOL     OW 2590   4.826   6.674   5.355 -0.8054 -0.3803  0.0687
  284SOL    HW1 2591   4.909   6.716   5.333 -0.7700 -1.1571 -1.4362
  284SOL    HW2 2592   4.830   6.659   5.449  1.4590 -1.8299 -0.1956
  285SOL     OW 2593   3.646   2.631   5.594  0.0577  0.0093  0.1739
  285SOL    HW1 2594   3.664   2.627   5.688 -0.9099 -0.2026  0.3631
  285SOL    HW2 2595   3.731   2.647   5.554  0.6507 -0.9283  1.0040
  286SOL     OW 2596   2.216   2.125   7.322  0.5537 -0.2568  0.0692
  286SOL    HW1 2597   2.193   2.138   7.415  1.0235  0.0329  0.1479
  286SOL    HW2 2598   2.301   2.168   7.312  0.6073 -0.4769 -0.4489
  287SOL     OW 2599   5.967   2.522   0.406 -0.3935  0.1436  0.2383
  287SOL    HW1 2600   5.912   2.449   0.435 -0.2225  0.3359  1.0874
  287SOL    HW2 2601   6.004   2.493   0.323 -2.0004  0.1263 -0.5063
  288SOL     OW 2602   8.234   9.366   7.791 -0.4807 -0.2635 -0.0609
  288SOL    HW1 2603   8.208   9.356   7.699 -1.0401  1.1895 -0.0857
  288SOL    HW2 2604   8.160   9.332   7.841 -0.8584  0.4329 -0.1452
  289SOL     OW 2605   1.919   5.752   5.909 -0.2665  0.0710  0.1475
  289SOL    HW1 2606   1.979   5.827   5.911  0.3227 -0.3500 -1.0348
  289SOL    HW2 2607   1.861   5.766   5.984  0.6548  1.0272  0.7106
  290SOL     OW 2608   5.211   8.427   2.271  0.3396  0.4137  0.2976
  290SOL    HW1 2609   5.257   8.344   2.286  1.3349  1.1457  1.5195
  290SOL    HW2 2610   5.279   8.485   2.236  0.5064  1.6078  2.4155
  291SOL     OW 2611   4.759   5.366   6.938 -0.4076 -0.1975 -0.9475
  291SOL    HW1 2612   4.830   5.409   6.889 -0.6393  1.2620 -0.0486
  291SOL    HW2 2613   4.703   5.329   6.870  0.5456 -0.2959 -1.7095
  292SOL     OW 2614   7.840   9.197   8.143  0.5978 -0.0785  0.9048
  292SOL    HW1 2615   7.800   9.246   8.215 -0.2850  0.5571  0.0073
  292SOL    HW2 2616   7.846   9.107   8.175 -0.2109  0.1073  1.5944
  293SOL     OW 2617   3.629   7.033   8.075 -0.2994 -0.8257  0.2692
  293SOL    HW1 2618   3.610   7.115   8.030 -1.6001 -1.3498 -0.2002
  293SOL    HW2 2619   3.722   7.038   8.097  0.0141  0.1078 -1.1457
  294SOL     OW 2620   1.278   4.748   1.443 -0.4264  0.0628 -0.2946
  294SOL    HW1 2621   1.189   4.719   1.422 -0.2386  0.3230 -1.5666
  294SOL    HW2 2622   1.277   4.766   1.537 -1.5126 -0.6352 -0.1578
  295SOL     OW 2623   3.815   8.162   7.820  0.0776  0.0181 -0.3383
  295SOL    HW1 2624   3.885   8.097   7.825  0.0580  0.0410  0.3251
  295SOL    HW2 2625   3.744   8.125   7.873  0.4719  1.0662  0.9788
  296SOL     OW 2626   4.666   7.582   1.774  0.1823  0.1644  0.1010
  296SOL    HW1 2627   4.670   7.618   1.863  1.9523 -1.0424  0.5629
  296SOL    HW2 2628   4.757   7.584   1.743 -0.4824  1.2160 -1.9913
  297SOL     OW 2629   6.358   3.567   8.462 -1.0684 -0.2010 -0.4098
  297SOL    HW1 2630   6.396   3.484   8.433  0.1057  0.4674 -0.8584
  297SOL    HW2 2631   6.422   3.602   8.524 -0.6500  1.1897 -1.5532
  298SOL     OW 2632   3.432   8.232   6.312 -0.3042 -0.3831  0.2714
  298SOL    HW1 2633   3.514   8.265   6.348 -0.9949  1.6509  0.0998
  298SOL    HW2 2634   3.387   8.193   6.387 -0.3528  0.9627  0.9673
  299SOL     OW 2635   5.899   1.033   9.466  0.1835  0.1018  0.2766
  299SOL    HW1 2636   5.859   0.983   9.395  1.1296  0.8843 -0.8367
  299SOL    HW2 2637   5.841   1.108   9.479 -0.7762 -0.7891  1.3662
  300SOL     OW 2638   6.760   8.364   1.334  0.1542 -0.4100 -0.4513
  300SOL    HW1 2639   6.785   8.362   1.242 -1.0903  1.5951 -0.8918
  300SOL    HW2 2640   6.670   8.396   1.334 -0.4007 -1.7896  1.3912
  301SOL     OW 2641   7.733   1.458   7.518 -0.3084 -0.0278 -0.4170
  301SOL    HW1 2642   7.786   1.511   7.579  0.6630 -0.3864 -0.9386
  301SOL    HW2 2643   7.707   1.382   7.570  0.5754 -0.3682 -0.4527
  302SOL     OW 2644   6.536   6.277   8.762 -0.1980 -0.3115 -0.6255
  302SOL    HW1 2645   6.605   6.210   8.762 -1.7653 -2.0326  0.1086
  302SOL    HW2 2646   6.468   6.241   8.705 -1.2130  0.5246  0.0220
  303SOL     OW 2647   0.178   0.991   4.706  0.5430 -0.4414 -0.6134
  303SOL    HW1 2648   0.108   1.034   4.657  1.1210  0.8889 -0.3091
  303SOL    HW2 2649   0.248   1.056   4.710  1.1436 -1.1271  0.5638
  304SOL     OW 2650   8.736   1.772   8.601  0.0309 -0.1969  0.2934
  304SOL    HW1 2651   8.778   1.829   8.665  0.3246 -0.0919  0.0092
  304SOL    HW2 2652   8.719   1.691   8.649 -1.1756  0.4152  0.9486
  305SOL     OW 2653   7.937   9.539   0.897 -0.6112  0.8792  0.2019
  305SOL    HW1 2654   7.898   9.470   0.950 -0.0906 -1.1359 -1.8695
  305SOL    HW2 2655   7.868   9.565   0.837  0.2568 -0.6512 -1.5608
  306SOL     OW 2656   2.379   0.017   4.947 -0.7663  0.0236 -0.6827
  306SOL    HW1 2657   2.453   0.074   4.967 -0.4225 -0.4799 -0.5225
  306SOL    HW2 2658   2.402  -0.067   4.986 -0.9478 -0.4322 -1.5457
  307SOL     OW 2659   3.978   3.679   1.658  0.3175 -0.0834 -0.0161
  307SOL    HW1 2660   4.056   3.691   1.712  0.7057 -0.6740 -0.4386
  307SOL    HW2 2661   3.920   3.752   1.683  1.2189  0.6723 -0.0770
  308SOL     OW 2662   4.291   5.377   8.357  0.3235  0.1661  0.1826
  308SOL    HW1 2663   4.338   5.306   8.401  1.4966  1.1930  0.6366
  308SOL    HW2 2664   4.240   5.419   8.426  0.9510  0.8055  0.2662
  309SOL     OW 2665   3.540   6.652   7.821  0.1758  0.8349 -0.0051
  309SOL    HW1 2666   3.597   6.659   7.744  0.3509 -0.1818  0.0248
  309SOL    HW2 2667   3.451   6.657   7.786 -0.0103 -4.3215 -0.9840
  310SOL     OW 2668   5.532   7.835   8.113 -0.1983 -0.2417 -0.1198
  310SOL    HW1 2669   5.544   7.859   8.022 -0.8301 -1.4252 -0.5402
  310SOL    HW2 2670   5.439   7.852   8.130 -0.4029 -1.2904 -0.1151
  311SOL     OW 2671   8.741   6.022   3.336 -0.0196  0.1257 -0.1446
  311SOL    HW1 2672   8.725   6.053   3.425 -1.3333 -0.8739  0.0004
  311SOL    HW2 2673   8.807   5.954   3.346  0.3518  0.4989 -0.0332
  312SOL     OW 2674   4.026   1.805   9.254  0.0271 -0.1989 -0.2132
  312SOL    HW1 2675   4.102   1.852   9.221 -0.0287 -0.6733 -1.0496
  312SOL    HW2 2676   3.957   1.871   9.261  0.0106 -0.1074 -1.1702
  313SOL     OW 2677   1.299   6.584   2.699 -0.4759  0.3104  0.7205
  313SOL    HW1 2678   1.387   6.605   2.730 -0.2113 -0.2725  0.3794
  313SOL    HW2 2679   1.298   6.614   2.608 -0.7732  0.7046  0.8521
  314SOL     OW 2680   6.448   9.144   1.516  0.2096 -0.0242  0.3466
  314SOL    HW1 2681   6.521   9.204   1.503 -0.3384  0.3923 -1.0372
  314SOL    HW2 2682   6.435   9.103   1.430 -1.6661  0.5028  0.3239
  315SOL     OW 2683   6.003   7.716   3.713  0.3863 -0.1802 -0.1991
  315SOL    HW1 2684   6.032   7.664   3.788 -0.2109  1.3583  1.1644
  315SOL    HW2 2685   5.908   7.700   3.708  0.3412  0.1113 -0.3066
  316SOL     OW 2686   3.248   4.785   3.264 -0.8928 -0.5112 -0.4899
  316SOL    HW1 2687   3.179   4.850   3.253  0.1382  0.8744  0.8080
  316SOL    HW2 2688   3.298   4.789   3.182 -1.4399 -0.4331 -0.8266
  317SOL     OW 2689   0.304   7.915   5.033 -0.2421 -0.3989 -0.7764
  317SOL    HW1 2690   0.218   7.875   5.039  0.0041 -0.7800  0.5282
  317SOL    HW2 2691   0.296   7.997   5.082 -0.0446 -0.0987 -1.2390
  318SOL     OW 2692   4.810   5.332   4.687 -0.2058  0.7096 -0.3472
  318SOL    HW1 2693   4.883   5.353   4.628  0.5390  1.5433  0.8365
  318SOL    HW2 2694   4.851   5.324   4.773 -1.1226 -1.4593 -0.0504
  319SOL     OW 2695   0.008   9.412   7.648  0.0253  0.3317 -0.2576
  319SOL    HW1 2696   0.077   9.479   7.642 -0.4531  0.7876 -0.8862
  319SOL    HW2 2697  -0.037   9.431   7.730  1.1897 -0.5241  0.6144
  320SOL     OW 2698   1.054   2.423   5.905 -0.2120  0.4881 -0.1233
  320SOL    HW1 2699   1.023   2.351   5.960  1.5478  0.9114  1.5091
  320SOL    HW2 2700   0.985   2.435   5.840 -1.4150 -1.4013  0.7386
  321SOL     OW 2701   4.230   1.204   0.173  0.2213 -0.0815  0.3930
  321SOL    HW1 2702   4.194   1.168   0.092 -0.8091 -0.8779  1.1751
  321SOL    HW2 2703   4.323   1.183   0.169 -0.1126 -1.6205  0.1868
  322SOL     OW 2704   2.603   0.172   8.463  0.5263 -0.3109 -0.0996
  322SOL    HW1 2705   2.674   0.164   8.399 -0.2105 -0.6221 -0.9030
  322SOL    HW2 2706   2.596   0.266   8.480  1.8740 -0.3581  0.8655
  323SOL     OW 2707   8.022   0.405   0.330 -0.0326 -0.2559 -0.2858
  323SOL    HW1 2708   7.936   0.365   0.317 -0.4481  0.5889 -0.2601
  323SOL    HW2 2709   8.084   0.333   0.324 -0.8097 -1.0193  0.5133
  324SOL     OW 2710   4.212   7.894   0.462  0.0920 -0.5018 -0.2605
  324SOL    HW1 2711   4.206   7.955   0.535 -0.9454 -0.1783 -0.6027
  324SOL    HW2 2712   4.162   7.818   0.491 -1.2137  0.0397 -1.0174
  325SOL     OW 2713   0.458   2.095   7.718  0.9581 -0.2015  0.1550
  325SOL    HW1 2714   0.461   2.183   7.755 -0.1513  1.0113 -2.3536
  325SOL    HW2 2715   0.511   2.100   7.638 -0.7763 -1.1487 -1.1463
  326SOL     OW 2716   5.302   4.101   3.630  0.1788 -0.3412  0.0275
  326SOL    HW1 2717   5.347   4.122   3.712 -0.3952 -1.0842  0.5426
  326SOL    HW2 2718   5.335   4.166   3.567  0.0850  0.6991  1.0181
  327SOL     OW 2719   7.898   5.157   0.790  0.2555  0.3879  0.0864
  327SOL    HW1 2720   7.828   5.111   0.744  1.6977 -0.7458 -1.0793
  327SOL    HW2 2721   7.894   5.122   0.879  0.8768 -1.5725 -0.5996
  328SOL     OW 2722   3.590   1.115   8.645  0.3886 -0.1728 -0.5247
  328SOL    HW1 2723   3.671   1.153   8.679 -0.4679  0.2712  1.1292
  328SOL    HW2 2724   3.558   1.179   8.581  0.1737  0.7839  0.5095
  329SOL     OW 2725   1.662   0.440   9.050 -0.3757 -0.1860  0.3062
  329SOL    HW1 2726   1.749   0.466   9.021  0.1230 -0.1487  1.7613
  329SOL    HW2 2727   1.674   0.414   9.142 -1.3125 -3.1716 -0.3209
  330SOL     OW 2728   5.647   4.020   4.439 -0.4031 -0.0749 -0.0167
  330SOL    HW1 2729   5.571   4.078   4.438  0.6108  1.3030 -0.4075
  330SOL    HW2 2730   5.657   3.994   4.530 -1.2440 -0.1539  0.0622
  331SOL     OW 2731   8.541   3.724   7.888 -0.0147  0.3980 -0.0521
  331SOL    HW1 2732   8.553   3.804   7.939 -1.8269  1.7427 -1.6168
  331SOL    HW2 2733   8.446   3.716   7.878  0.0962 -2.1625  0.3184
  332SOL     OW 2734   0.862   8.597   5.465 -0.2220  0.4955  0.1517
  332SOL    HW1 2735   0.830   8.589   5.556 -0.9157  2.8896  0.1950
  332SOL    HW2 2736   0.784   8.619   5.415  0.1392 -0.9320 -1.0955
  333SOL     OW 2737   8.397   7.766   4.686 -0.5982 -0.2199  0.3438
  333SOL    HW1 2738   8.360   7.697   4.630 -1.1862 -0.5806  1.1524
  333SOL    HW2 2739   8.322   7.801   4.734 -0.0913  0.0205  0.9760
  334SOL     OW 2740   3.390   2.107   3.316 -0.0538 -0.3702 -0.0206
  334SOL    HW1 2741   3.414   2.155   3.395 -0.8983 -0.6835  0.4338
  334SOL    HW2 2742   3.376   2.017   3.345 -0.5930 -0.4410 -0.4832
  335SOL     OW 2743   1.963   6.740   3.025 -0.3054  0.0554  0.1071
  335SOL    HW1 2744   1.910   6.817   3.006  0.9392  1.0759  0.6313
  335SOL    HW2 2745   1.901   6.667   3.026 -1.6104  1.1444  0.2576
  336SOL     OW 2746   7.247   2.828   0.043  0.7175  0.5379  0.0756
  336SOL    HW1 2747   7.289   2.764  -0.015  2.2054  1.5122  0.0325
  336SOL    HW2 2748   7.175   2.863  -0.009 -1.2000 -2.2121  0.6668
  337SOL     OW 2749   3.077   6.783   6.244  0.0094  0.2842 -0.0207
  337SOL    HW1 2750   3.032   6.743   6.170 -1.0549  0.3921  0.5508
  337SOL    HW2 2751   3.055   6.726   6.318  1.1090  0.1401  0.2137
  338SOL     OW 2752   3.389   8.377   7.125  0.7381 -0.2681  0.2527
  338SOL    HW1 2753   3.410   8.471   7.120  0.3205 -0.2352 -1.2233
  338SOL    HW2 2754   3.461   8.334   7.080 -0.2542 -0.4529 -1.2291
  339SOL     OW 2755   8.633   0.186   3.969 -0.0362  0.5038  0.4157
  339SOL    HW1 2756   8.654   0.255   4.032  0.3037 -0.1985  1.0800
  339SOL    HW2 2757   8.549   0.152   3.997 -0.4851  1.0343 -0.2582
  340SOL     OW 2758   9.348   8.247   1.081  0.1982 -0.0501 -0.1830
  340SOL    HW1 2759   9.292   8.199   1.143 -1.0341  1.7363  0.1774
  340SOL    HW2 2760   9.429   8.196   1.077 -1.0011 -2.0894  0.2041
  341SOL     OW 2761   6.437   7.355   4.702  0.2515 -0.1141 -0.2619
  341SOL    HW1 2762   6.462   7.369   4.793  1.0260  0.0748 -0.4909
  341SOL    HW2 2763   6.501   7.406   4.652 -1.4056  1.4923 -0.8535
  342SOL     OW 2764   5.323   4.555   3.428 -0.1036 -0.7366  0.3479
  342SOL    HW1 2765   5.284   4.474   3.462 -2.0060 -0.8665 -1.8263
  342SOL    HW2 2766   5.316   4.546   3.333 -1.4750  2.4317  0.0197
  343SOL     OW 2767   5.916   1.031   8.196  0.3919  0.0029  0.2358
  343SOL    HW1 2768   5.829   1.014   8.231 -0.0061 -0.7090 -1.0384
  343SOL    HW2 2769   5.935   0.956   8.139  1.6293  0.3883  0.0955
  344SOL     OW 2770   8.171   0.516   2.773  0.0236  0.5205  0.7146
  344SOL    HW1 2771   8.163   0.543   2.682  0.0088  3.0532  1.3900
  344SOL    HW2 2772   8.092   0.549   2.816  0.4631  0.2025  1.8332
  345SOL     OW 2773   5.448   7.766   1.157 -0.4500 -0.1468  0.1006
  345SOL    HW1 2774   5.418   7.847   1.198  1.9081  1.2769 -0.7463
  345SOL    HW2 2775   5.441   7.783   1.063  2.6215  0.2732 -0.1588
  346SOL     OW 2776   4.427   9.457   5.161  0.1805 -0.4948 -0.2247
  346SOL    HW1 2777   4.359   9.411   5.210  0.9909  0.5525  2.0385
  346SOL    HW2 2778   4.381   9.528   5.117 -0.6678 -1.8317 -1.5997
  347SOL     OW 2779   1.904   3.221   0.850 -0.5953  0.8837  0.1485
  347SOL    HW1 2780   1.908   3.307   0.891 -2.1222  0.3633  1.4853
  347SOL    HW2 2781   1.816   3.215   0.814 -0.8784 -0.4688  0.9666
  348SOL     OW 2782   1.089   6.225   7.890 -0.9177 -0.3117 -0.1434
  348SOL    HW1 2783   1.081   6.231   7.985  1.7755 -0.7619  0.2002
  348SOL    HW2 2784   1.165   6.168   7.876  0.4921  1.9233 -2.4613
  349SOL     OW 2785   7.422   7.093   8.099 -0.3094 -0.0953 -0.3756
  349SOL    HW1 2786   7.461   7.092   8.186 -1.4496 -0.7963  0.1505
  349SOL    HW2 2787   7.328   7.085   8.114 -0.4158 -2.9164 -1.7148
  350SOL     OW 2788   1.221   1.139   4.763 -0.0050  0.0613 -0.3008
  350SOL    HW1 2789   1.287   1.209   4.762 -0.2082  0.2583 -0.1346
  350SOL    HW2 2790   1.138   1.185   4.745 -0.6473  0.3998  2.9340
  351SOL     OW 2791   4.778   0.230   0.363  0.2526 -0.2129 -0.1231
  351SOL    HW1 2792   4.846   0.164   0.352  0.9493  0.5759 -0.7341
  351SOL    HW2 2793   4.753   0.254   0.273  1.0502  1.3624  0.0250
  352SOL     OW 2794   8.850   5.979   4.989  0.3648 -0.0019 -0.0733
  352SOL    HW1 2795   8.785   6.045   4.967  0.9309  0.3988 -0.5678
  352SOL    HW2 2796   8.801   5.896   4.989 -0.3293  0.3918  0.4766
  353SOL     OW 2797   0.515   6.551   3.936  0.7276  0.5942  0.2059
  353SOL    HW1 2798   0.467   6.469   3.946 -0.7288  1.3098 -0.5694
  353SOL    HW2 2799   0.502   6.597   4.020 -0.0708  0.8389 -0.0458
  354SOL     OW 2800   9.411   8.009   4.368  0.1719  0.6353 -0.1892
  354SOL    HW1 2801   9.329   7.993   4.414  0.1919 -0.8553 -0.6270
  354SOL    HW2 2802   9.458   8.070   4.424  0.5660 -1.7442  2.2727
  355SOL     OW 2803   4.993   2.239   7.591  0.0825  0.1546 -0.3620
  355SOL    HW1 2804   4.967   2.184   7.666 -1.6271  0.4427 -0.6889
  355SOL    HW2 2805   4.967   2.188   7.514  0.0654  0.6863 -0.7121
  356SOL     OW 2806   0.475   6.308   5.726 -0.1800  0.1598  0.2506
  356SOL    HW1 2807   0.540   6.274   5.665 -0.6467  1.2756 -0.9138
  356SOL    HW2 2808   0.410   6.238   5.735 -0.1844  0.0463 -0.6490
  357SOL     OW 2809   5.395   3.984   0.411 -0.2988 -0.2222 -0.5260
  357SOL    HW1 2810   5.470   4.011   0.359 -0.2620  2.2968  0.6995
  357SOL    HW2 2811   5.319   4.013   0.360 -0.2555  3.0654  1.0231
  358SOL     OW 2812   8.780   7.822   3.862 -0.0727 -0.3672  0.0089
  358SOL    HW1 2813   8.773   7.912   3.894  0.2423  0.0377 -1.0174
  358SOL    HW2 2814   8.702   7.778   3.895 -0.5145  0.4312  0.0447
  359SOL     OW 2815   1.411   4.190   2.475 -0.2127  0.1069  0.1254
  359SOL    HW1 2816   1.415   4.283   2.498 -0.9181 -0.0178  0.7811
  359SOL    HW2 2817   1.335   4.184   2.416 -0.3127 -0.0935  0.2753
  360SOL     OW 2818   2.200   8.798   4.978  0.1882 -0.1459 -0.2989
  360SOL    HW1 2819   2.202   8.842   4.894 -0.5626 -1.1206 -0.8502
  360SOL    HW2 2820   2.232   8.709   4.960  1.9406  0.1951  0.8282
  361SOL     OW 2821   3.547   3.215   1.552 -0.1968  0.2608  0.4464
  361SOL    HW1 2822   3.452   3.205   1.542 -0.3811  1.0678  1.2603
  361SOL    HW2 2823   3.573   3.265   1.475 -0.3899 -0.1710  0.0949
  362SOL     OW 2824   8.094   0.635   2.555 -0.1172 -0.0451  0.1410
  362SOL    HW1 2825   8.141   0.717   2.540  0.4106 -0.2942  0.3973
  362SOL    HW2 2826   8.002   0.657   2.544 -0.0247  0.7338  0.8743
  363SOL     OW 2827   7.282   8.996   3.630  0.0533  0.0156 -0.2318
  363SOL    HW1 2828   7.352   8.976   3.567 -0.2673 -1.6557 -0.1036
  363SOL    HW2 2829   7.216   9.042   3.578  2.4045  4.4989  0.2319
  364SOL     OW 2830   3.546   2.787   3.960 -0.4426  0.0531  0.1929
  364SOL    HW1 2831   3.503   2.873   3.959  1.5847  1.1110  0.0973
  364SOL    HW2 2832   3.513   2.744   3.881  0.2683  1.6720 -1.0480
  365SOL     OW 2833   5.975   5.992   2.843  0.0154 -0.4855 -0.1930
  365SOL    HW1 2834   6.061   5.998   2.886  0.3620 -0.5698 -0.8669
  365SOL    HW2 2835   5.938   6.079   2.852 -0.1641 -0.6569  0.7939
  366SOL     OW 2836   6.739   4.528   7.264  0.1396 -0.9400 -0.1850
  366SOL    HW1 2837   6.833   4.542   7.253  0.3706 -2.3479 -0.2357
  366SOL    HW2 2838   6.705   4.523   7.174 -0.2460  0.9616 -0.1829
  367SOL     OW 2839   6.731   2.037   4.063 -0.7091 -0.3692  0.4080
  367SOL    HW1 2840   6.682   1.965   4.024 -1.7364  0.2517  0.5137
  367SOL    HW2 2841   6.731   2.017   4.157 -0.9394 -0.2727  0.4302
  368SOL     OW 2842   8.340   5.847   7.378  0.7963 -0.0641 -0.5194
  368SOL    HW1 2843   8.298   5.928   7.349  0.2681 -0.3785 -0.6428
  368SOL    HW2 2844   8.428   5.873   7.403  0.1270  0.8423  1.0305
  369SOL     OW 2845   3.791   5.692   8.692 -0.1237 -0.2120  0.2070
  369SOL    HW1 2846   3.874   5.645   8.691  0.0783  0.1470 -0.0307
  369SOL    HW2 2847   3.775   5.710   8.785 -0.1950 -0.7300  0.2987
  370SOL     OW 2848   4.913   4.275   2.827  0.4579  0.0548 -0.0745
  370SOL    HW1 2849   4.907   4.365   2.859  2.9060 -0.2840  1.5542
  370SOL    HW2 2850   4.824   4.241   2.834 -0.6916  2.4985 -1.4108
  371SOL     OW 2851   2.094   6.921   6.136 -0.1774 -0.0706  0.6370
  371SOL    HW1 2852   2.099   6.831   6.168 -0.1560 -0.5108 -0.5501
  371SOL    HW2 2853   2.135   6.974   6.204 -0.7055 -0.8930  1.6093
  372SOL     OW 2854   4.872   7.368   6.443  0.2510 -0.4762  0.0160
  372SOL    HW1 2855   4.961   7.402   6.432 -0.1143  0.2822 -0.7643
  372SOL    HW2 2856   4.840   7.357   6.353 -0.6540 -0.1431  0.2849
  373SOL     OW 2857   1.687   0.424   7.999  0.5125 -0.1079 -0.2615
  373SOL    HW1 2858   1.730   0.348   7.959 -0.9827 -0.7255 -0.7692
  373SOL    HW2 2859   1.662   0.479   7.924  1.5674  0.9097  0.0982
  374SOL     OW 2860   4.863   0.417   1.251  0.1163  0.0155  0.1094
  374SOL    HW1 2861   4.838   0.493   1.198  1.2313 -0.1166 -0.6664
  374SOL    HW2 2862   4.800   0.349   1.227  0.3925  0.0690 -0.8118
  375SOL     OW 2863   6.183   2.369   5.155  0.1943  0.0059 -0.2646
  375SOL    HW1 2864   6.215   2.409   5.075 -0.8553  1.4775  0.0106
  375SOL    HW2 2865   6.150   2.284   5.127  0.6291  0.1413 -1.2355
  376SOL     OW 2866   8.976   4.030   2.924 -0.2811  0.2417  0.0036
  376SOL    HW1 2867   8.976   3.946   2.969 -0.4505  1.9153  3.5088
  376SOL    HW2 2868   8.889   4.066   2.940  0.1552  1.5472 -0.3876
  377SOL     OW 2869   8.578   5.579   7.500 -0.2206 -0.2757 -0.4945
  377SOL    HW1 2870   8.661   5.554   7.540  0.5848  1.9348 -0.6775
  377SOL    HW2 2871   8.544   5.649   7.555 -1.7079 -0.7660 -0.7428
  378SOL     OW 2872   1.048   2.745   8.937  0.0372  0.8372 -0.5848
  378SOL    HW1 2873   1.003   2.678   8.886  0.8405  1.0826 -1.6481
  378SOL    HW2 2874   1.046   2.823   8.881 -2.0232  2.1449  1.1253
  379SOL     OW 2875   8.420   5.567   0.515 -0.3833 -0.1890 -0.3894
  379SOL    HW1 2876   8.483   5.508   0.473  0.0921 -0.4335  0.6515
  379SOL    HW2 2877   8.455   5.582   0.602 -1.3727  0.3059 -0.0606
  380SOL     OW 2878   0.911   8.533   6.135  0.0787 -0.6805 -0.0350
  380SOL    HW1 2879   0.909   8.512   6.228 -1.5459 -1.1240 -0.1346
  380SOL    HW2 2880   0.941   8.452   6.093 -0.5691 -0.9543  0.0140
  381SOL     OW 2881   6.057   1.903   6.252  0.4098  0.5656  0.4314
  381SOL    HW1 2882   6.144   1.890   6.214  0.3360  1.1306  0.0616
  381SOL    HW2 2883   6.008   1.826   6.224  0.8463  0.1390  0.8140
  382SOL     OW 2884   7.827   7.609   5.304 -0.5491  0.3977  0.5238
  382SOL    HW1 2885   7.906   7.555   5.307 -0.6661  0.2396  0.8244
  382SOL    HW2 2886   7.819   7.636   5.213  1.2701  2.4967  0.8792
  383SOL     OW 2887   0.082   3.515   0.400  0.1675  0.4476 -0.6508
  383SOL    HW1 2888   0.057   3.426   0.374  0.0433 -0.1071  1.1881
  383SOL    HW2 2889   0.046   3.571   0.331  0.1630 -0.9083 -1.8062
  384SOL     OW 2890   7.095   8.579   2.849  0.2650  0.6301 -0.1351
  384SOL    HW1 2891   7.044   8.563   2.770 -2.6481  0.7020  1.5866
  384SOL    HW2 2892   7.105   8.674   2.852  1.8380  0.5353 -1.1858
  385SOL     OW 2893   0.806   4.165   7.160  0.0767 -0.7416  0.4549
  385SOL    HW1 2894   0.777   4.081   7.196  0.7024 -1.0807  0.1935
  385SOL    HW2 2895   0.899   4.169   7.183  0.4873 -0.9604 -1.0949
  386SOL     OW 2896   3.437   9.182   2.265 -0.1608  0.3150 -0.7778
  386SOL    HW1 2897   3.505   9.126   2.306  1.3076  1.7657 -1.1342
  386SOL    HW2 2898   3.417   9.247   2.332  2.0519  2.5389 -2.0750
  387SOL     OW 2899   1.156   2.421   2.072 -0.4478  0.3522  0.3701
  387SOL    HW1 2900   1.174   2.434   2.165  0.8251  0.2367  0.1539
  387SOL    HW2 2901   1.060   2.421   2.067 -0.5433  0.7054  1.6234
  388SOL     OW 2902   2.723   0.639   4.777 -0.2283  0.8208  0.2059
  388SOL    HW1 2903   2.818   0.648   4.774 -0.3436  2.2380  0.0318
  388SOL    HW2 2904   2.694   0.706   4.839 -1.0458 -0.4123  1.2230
  389SOL     OW 2905   2.388   4.318   8.309  0.0953 -0.1061 -0.6548
  389SOL    HW1 2906   2.414   4.272   8.389  1.4947  0.2086 -0.9174
  389SOL    HW2 2907   2.293   4.329   8.319  0.2027 -0.2821  0.8486
  390SOL     OW 2908   6.303   1.058   8.345  0.0894 -0.6071  0.0638
  390SOL    HW1 2909   6.275   0.974   8.310  0.1048 -0.8375  0.5851
  390SOL    HW2 2910   6.226   1.113   8.341  0.5300 -0.0651 -1.9531
  391SOL     OW 2911   2.091   2.747   6.711  0.4722 -0.3554  0.0037
  391SOL    HW1 2912   2.133   2.662   6.721  1.3440  0.1404  0.7583
  391SOL    HW2 2913   2.161   2.806   6.682 -0.1953  0.0412 -0.8413
  392SOL     OW 2914   4.195   3.239   5.891 -0.0437  0.3046 -0.5643
  392SOL    HW1 2915   4.199   3.195   5.976 -0.8012 -0.4207 -0.8938
  392SOL    HW2 2916   4.182   3.168   5.828 -3.5416  1.1079 -0.9216
  393SOL     OW 2917   4.844   2.499   0.003 -0.2372 -0.1127 -0.1252
  393SOL    HW1 2918   4.917   2.465   0.055 -0.6908 -0.1280  0.5173
  393SOL    HW2 2919   4.800   2.562   0.061 -1.1686 -0.6516 -0.2235
  394SOL     OW 2920   3.064   7.686   8.940  0.1474 -0.5546 -0.4895
  394SOL    HW1 2921   3.014   7.642   8.872  0.2691  0.5301 -1.3085
  394SOL    HW2 2922   3.039   7.642   9.021 -1.1390 -0.8865 -1.0425
  395SOL     OW 2923   9.454   1.141   2.890  0.1831 -0.2488  0.2749
  395SOL    HW1 2924   9.411   1.175   2.811  0.4297  0.3731  0.4010
  395SOL    HW2 2925   9.394   1.074   2.922 -0.2851  0.0141 -0.0299
  396SOL     OW 2926   0.649   2.280   3.345  0.7294 -0.0347  0.3688
  396SOL    HW1 2927   0.592   2.356   3.334 -0.0889 -0.5298  1.1022
  396SOL    HW2 2928   0.659   2.272   3.440  0.5305 -1.0443  0.3108
  397SOL     OW 2929   5.820   8.267   1.672  0.4130 -0.3237 -0.1414
  397SOL    HW1 2930   5.837   8.360   1.688 -0.3739  0.0931 -1.5908
  397SOL    HW2 2931   5.756   8.243   1.740 -0.9090  0.7401 -0.9530
  398SOL     OW 2932   9.362   8.276   2.602  0.4550 -0.0925  0.0722
  398SOL    HW1 2933   9.379   8.355   2.552  0.6706  1.1669  2.0169
  398SOL    HW2 2934   9.270   8.280   2.625  0.6421  0.0424  0.8508
  399SOL     OW 2935   9.527   5.247   5.459  0.6884  0.7397 -0.0235
  399SOL    HW1 2936   9.446   5.280   5.498  0.5167  0.4332 -0.1160
  399SOL    HW2 2937   9.536   5.296   5.378  0.9722  1.2827  0.3330
  400SOL     OW 2938   4.858   0.760   8.023 -0.2205 -0.4679  0.6628
  400SOL    HW1 2939   4.934   0.702   8.013  0.0256  0.0270 -0.3685
  400SOL    HW2 2940   4.791   0.722   7.966  0.7011  1.5284 -1.8840
  401SOL     OW 2941   9.321   4.631   9.268 -0.3184  0.2934 -0.3617
  401SOL    HW1 2942   9.282   4.551   9.305  1.7624 -0.2870  0.7599
  401SOL    HW2 2943   9.249   4.675   9.224 -1.3150 -2.7847 -2.0696
  402SOL     OW 2944   2.531   2.202   9.521  0.0425 -0.4566  0.0475
  402SOL    HW1 2945   2.440   2.215   9.547  0.4291 -1.0512  1.8255
  402SOL    HW2 2946   2.535   2.233   9.431 -2.0209 -0.8358 -0.2135
  403SOL     OW 2947   9.088   5.224   4.992 -0.0870  0.5098  0.0663
  403SOL    HW1 2948   9.005   5.272   4.995  0.0921  1.0289 -1.8535
  403SOL    HW2 2949   9.074   5.156   4.926  0.7600  0.0685  0.3282
  404SOL     OW 2950   0.844   9.365   0.238 -0.4078 -0.4194 -0.0386
  404SOL    HW1 2951   0.775   9.348   0.174 -0.6088 -1.9902  0.5610
  404SOL    HW2 2952   0.799   9.407   0.311 -0.4900 -0.3056 -0.1529
  405SOL     OW 2953   0.792   2.357   0.067 -0.3058  0.1926 -0.1070
  405SOL    HW1 2954   0.782   2.344   0.161 -0.2042 -0.5897 -0.2021
  405SOL    HW2 2955   0.789   2.452   0.056  0.3171  0.3231  0.7557
  406SOL     OW 2956   8.703   0.463   3.749 -0.2011  0.2482 -0.1697
  406SOL    HW1 2957   8.629   0.402   3.756 -0.1149  0.3410  3.4849
  406SOL    HW2 2958   8.667   0.547   3.775  0.9895  0.4209  1.0455
  407SOL     OW 2959   5.877   8.895   2.809  0.0994  0.4203 -0.2170
  407SOL    HW1 2960   5.965   8.867   2.785  0.1862  1.2864 -0.9512
  407SOL    HW2 2961   5.886   8.932   2.897  0.0081 -1.6489  0.7236
  408SOL     OW 2962   7.319   9.200   3.825 -0.2195 -0.5200 -0.0502
  408SOL    HW1 2963   7.291   9.166   3.740 -2.8360  1.8796 -0.2863
  408SOL    HW2 2964   7.367   9.127   3.865 -1.3539 -2.7094 -2.3825
  409SOL     OW 2965   2.414   5.130   7.354 -0.4809 -0.4051 -0.2437
  409SOL    HW1 2966   2.356   5.202   7.378 -1.3590 -0.7281 -1.2895
  409SOL    HW2 2967   2.370   5.051   7.387 -0.0254 -0.5494  0.0262
  410SOL     OW 2968   5.130   3.780   7.312  0.3812  0.4390 -0.2189
  410SOL    HW1 2969   5.046   3.759   7.354  1.0553 -0.6811  0.6407
  410SOL    HW2 2970   5.106   3.826   7.232 -0.9930  1.6720  0.8522
  411SOL     OW 2971   8.079   1.062   8.172  0.1291 -0.4565 -0.0088
  411SOL    HW1 2972   8.158   1.011   8.156  1.1401  0.3943  1.9297
  411SOL    HW2 2973   8.059   1.046   8.264 -0.6742  1.0851  0.1112
  412SOL     OW 2974   4.476   1.199   2.872 -0.3443 -0.1386  0.1228
  412SOL    HW1 2975   4.522   1.238   2.798  1.2164 -1.8057  0.1577
  412SOL    HW2 2976   4.435   1.274   2.916 -0.4056  1.0048 -1.7802
  413SOL     OW 2977   6.906   6.589   7.301  0.2150 -0.1182  0.3368
  413SOL    HW1 2978   6.983   6.572   7.354 -0.0427  0.6064  0.9550
  413SOL    HW2 2979   6.931   6.561   7.213  0.9763 -0.4308  0.6483
  414SOL     OW 2980   9.262   4.811   7.772 -0.6321  0.1336  0.0984
  414SOL    HW1 2981   9.290   4.775   7.687  0.9981  0.2297  0.5636
  414SOL    HW2 2982   9.232   4.734   7.821 -0.9647 -0.0133 -0.3210
  415SOL     OW 2983   5.259   1.707   0.065  0.8607  0.2324  0.2949
  415SOL    HW1 2984   5.323   1.730  -0.003  0.5976  2.2794  0.6719
  415SOL    HW2 2985   5.250   1.787   0.117 -0.8268 -0.5093  1.2141
  416SOL     OW 2986   6.997   5.107   0.895 -0.1025 -0.2563 -0.2673
  416SOL    HW1 2987   7.008   5.195   0.931  0.1217 -0.1994 -0.4739
  416SOL    HW2 2988   7.086   5.079   0.873 -0.0839 -0.8224  0.4829
  417SOL     OW 2989   1.970   2.623   2.155 -0.6371  0.4845 -0.1078
  417SOL    HW1 2990   2.001   2.629   2.064 -2.4007  0.8958 -0.7254
  417SOL    HW2 2991   1.961   2.529   2.170  0.7658  0.3523  0.0751
  418SOL     OW 2992   8.939   5.990   6.818 -0.1383  0.4236  0.1707
  418SOL    HW1 2993   8.896   6.075   6.826  1.5172  1.2706  0.5672
  418SOL    HW2 2994   8.964   5.966   6.907  0.7345  0.2616 -0.1021
  419SOL     OW 2995   0.444   3.655   1.838  1.0064  0.0455  0.0894
  419SOL    HW1 2996   0.401   3.698   1.765  0.6167 -1.7971 -0.8291
  419SOL    HW2 2997   0.535   3.645   1.809  0.9028 -0.4878 -0.0531
  420SOL     OW 2998   2.915   4.092   5.947 -0.2815 -0.4850  0.3961
  420SOL    HW1 2999   2.906   4.148   6.024 -0.3655  0.9720 -0.6270
  420SOL    HW2 3000   3.006   4.105   5.919 -1.3277  2.3460 -2.1375
  421SOL     OW 3001   0.725   5.437   9.073  0.3267 -0.1845 -0.3050
  421SOL    HW1 3002   0.658   5.369   9.081  1.2515 -1.2403 -1.3259
  421SOL    HW2 3003   0.767   5.440   9.158 -1.8077  1.4130  0.8163
  422SOL     OW 3004   1.714   0.343   3.087 -0.1876  0.4249  0.4642
  422SOL    HW1 3005   1.682   0.348   3.177  2.6592  1.8026  1.5435
  422SOL    HW2 3006   1.689   0.256   3.057 -2.9449  0.6392  1.8082
  423SOL     OW 3007   9.493   9.421   0.185  0.2621 -0.2039  0.3555
  423SOL    HW1 3008   9.453   9.408   0.272 -0.7900 -0.9247 -0.2109
  423SOL    HW2 3009   9.483   9.336   0.142  0.0409  0.3789 -0.7646
  424SOL     OW 3010   6.200   2.544   0.548 -0.3892  0.4414 -0.2487
  424SOL    HW1 3011   6.189   2.511   0.637  0.4039 -0.6178 -0.5226
  424SOL    HW2 3012   6.117   2.525   0.504 -0.2245 -0.4770 -0.1737
  425SOL     OW 3013   3.988   5.259   1.922  0.9121 -0.0086  0.2158
  425SOL    HW1 3014   4.033   5.341   1.902  0.2388  0.3208  0.0402
  425SOL    HW2 3015   3.994   5.208   1.841  2.9430 -0.9129  0.8697
  426SOL     OW 3016   5.053   1.510   3.511  0.2992  0.3015 -0.1365
  426SOL    HW1 3017   4.982   1.545   3.565 -0.5152 -0.8929 -0.3918
  426SOL    HW2 3018   5.084   1.433   3.558  0.5562  0.0793 -0.6532
  427SOL     OW 3019   5.977   7.324   7.551 -0.0486 -0.0282  0.6091
  427SOL    HW1 3020   5.948   7.410   7.584  0.1330  1.5668 -2.8978
  427SOL    HW2 3021   6.045   7.296   7.613 -1.3025  1.4712  2.8194
  428SOL     OW 3022   9.050   8.835   0.450 -0.1937 -0.4247 -0.1038
  428SOL    HW1 3023   9.038   8.887   0.370 -0.9899 -1.0329 -0.3919
  428SOL    HW2 3024   8.985   8.765   0.443  0.6092 -1.2373  0.4657
  429SOL     OW 3025   1.350   5.891   3.820  0.5312  0.1315 -0.8623
  429SOL    HW1 3026   1.400   5.897   3.902  0.0131  1.6111 -0.6313
  429SOL    HW2 3027   1.262   5.866   3.847 -0.1571  2.5292 -0.7326
  430SOL     OW 3028   4.121   1.771   1.068  0.2852 -0.4073 -0.8994
  430SOL    HW1 3029   4.197   1.765   1.010  0.3235 -0.6853 -0.8200
  430SOL    HW2 3030   4.154   1.814   1.147  0.5616 -1.2935 -0.5230
  431SOL     OW 3031   7.291   6.647   9.600 -0.2093  0.4218 -0.1118
  431SOL    HW1 3032   7.382   6.617   9.610  0.2065  1.6816  0.0920
  431SOL    HW2 3033   7.238   6.571   9.625  0.7535 -0.8162 -1.5888
  432SOL     OW 3034   8.037   6.600   2.119 -0.4286  0.5951 -0.1689
  432SOL    HW1 3035   7.995   6.516   2.100 -0.9999  0.9322 -0.4466
  432SOL    HW2 3036   7.992   6.632   2.198 -1.3327  1.3705 -0.9725
  433SOL     OW 3037   5.596   1.061   7.720 -0.6144 -0.5687 -0.0105
  433SOL    HW1 3038   5.658   1.032   7.787 -0.3723 -0.3425 -0.1325
  433SOL    HW2 3039   5.517   1.011   7.737 -0.1489 -1.4394 -0.3284
  434SOL     OW 3040   0.754   3.956   3.429 -0.0365  0.4833  0.4255
  434SOL    HW1 3041   0.748   3.862   3.447 -1.4178  0.2143 -1.2407
  434SOL    HW2 3042   0.813   3.989   3.496 -0.3723 -1.3897  1.7190
  435SOL     OW 3043   9.301   3.143   2.914 -0.4030 -0.0197  0.2099
  435SOL    HW1 3044   9.345   3.069   2.870  0.1929 -0.0884  0.8895
  435SOL    HW2 3045   9.217   3.151   2.870 -0.2410 -0.7492 -0.2508
  436SOL     OW 3046   7.757   9.312   1.351  0.1395  0.5267  0.5999
  436SOL    HW1 3047   7.670   9.348   1.370 -0.0461  0.4250 -0.0531
  436SOL    HW2 3048   7.776   9.255   1.426 -0.1833  0.8617  0.9396
  437SOL     OW 3049   6.351   1.644   3.302  0.2854 -0.4252 -0.7616
  437SOL    HW1 3050   6.387   1.579   3.363 -0.1132 -1.2348 -1.3683
  437SOL    HW2 3051   6.264   1.663   3.336  0.2309 -0.5506 -0.8280
  438SOL     OW 3052   3.698   0.036   9.376  0.0595  0.3438 -0.2924
  438SOL    HW1 3053   3.646   0.114   9.396 -1.3436 -1.1889  2.4811
  438SOL    HW2 3054   3.665   0.007   9.291  1.7367  3.5353 -2.2309
  439SOL     OW 3055   6.107   4.714   2.409  0.0141 -0.0898 -0.0972
  439SOL    HW1 3056   6.128   4.803   2.437 -0.1698 -0.3023  0.7430
  439SOL    HW2 3057   6.180   4.661   2.440 -0.0278 -0.2852 -0.3243
  440SOL     OW 3058   2.637   8.973   0.120  0.3048 -0.2167 -0.2300
  440SOL    HW1 3059   2.656   9.067   0.111 -2.5769  0.9060  3.0377
  440SOL    HW2 3060   2.570   8.957   0.053  1.4536 -0.2591 -1.4150
  441SOL     OW 3061   0.123   2.025   3.215 -0.2980 -0.7084 -0.4905
  441SOL    HW1 3062   0.130   1.959   3.145 -0.6321 -0.2006 -1.0089
  441SOL    HW2 3063   0.109   1.974   3.295  0.5914 -1.3256 -0.7084
  442SOL     OW 3064   8.435   2.861   9.077 -0.0281 -0.1348 -0.2097
  442SOL    HW1 3065   8.353   2.849   9.126 -0.5968 -0.2209 -1.1570
  442SOL    HW2 3066   8.456   2.954   9.088 -0.2215 -0.1223  0.0791
  443SOL     OW 3067   0.224   2.692   9.282 -0.7439 -0.5849  0.0144
  443SOL    HW1 3068   0.147   2.724   9.328  0.1700 -0.5131  1.5821
  443SOL    HW2 3069   0.205   2.600   9.265 -1.3654 -0.4488 -0.0532
  444SOL     OW 3070   8.908   6.895   0.516 -0.3061 -0.5072  0.0272
  444SOL    HW1 3071   8.898   6.848   0.432 -0.4260 -0.9238  0.2693
  444SOL    HW2 3072   8.886   6.829   0.582  2.0042 -0.8611  0.5124
  445SOL     OW 3073   6.712   8.491   2.804  0.0027 -0.1203 -0.7246
  445SOL    HW1 3074   6.685   8.400   2.799  0.3558 -0.1630 -2.6830
  445SOL    HW2 3075   6.745   8.502   2.894  0.7375 -2.1338 -0.7127
  446SOL     OW 3076   0.747   3.569   6.704  0.2177  0.4075 -0.0852
  446SOL    HW1 3077   0.822   3.588   6.761 -0.5102 -0.3388  1.1677
  446SOL    HW2 3078   0.768   3.613   6.622  2.7588 -1.0514 -0.3164
  447SOL     OW 3079   6.431   3.260   7.823  0.5805  0.0630 -0.1833
  447SOL    HW1 3080   6.464   3.261   7.913 -0.5151 -0.1269  0.2346
  447SOL    HW2 3081   6.424   3.352   7.798 -0.3598  0.1659  0.4118
  448SOL     OW 3082   5.385   9.144   0.067  0.0274  0.1517  0.5387
  448SOL    HW1 3083   5.426   9.227   0.042 -1.4032  0.4945 -0.8310
  448SOL    HW2 3084   5.458   9.082   0.072  1.1807  1.5634  2.0541
  449SOL     OW 3085   6.904   0.814   4.479  0.4338  0.0180 -0.6304
  449SOL    HW1 3086   6.922   0.784   4.390 -0.4086  1.6914 -1.4182
  449SOL    HW2 3087   6.817   0.853   4.473 -0.4943 -1.5406  1.3998
  450SOL     OW 3088   0.268   4.586   8.684 -0.1963  0.2813  0.4091
  450SOL    HW1 3089   0.266   4.496   8.714  1.3060  0.3263  0.7634
  450SOL    HW2 3090   0.263   4.579   8.589 -0.9167 -0.1179  0.4720
  451SOL     OW 3091   3.390   6.732   7.493 -0.1446  0.3688  0.6334
  451SOL    HW1 3092   3.407   6.824   7.514 -0.0449  0.2529  1.0636
  451SOL    HW2 3093   3.351   6.696   7.572  0.3419 -0.1031  0.6598
  452SOL     OW 3094   8.836   7.220   0.117  0.2042 -0.2633  0.1037
  452SOL    HW1 3095   8.864   7.131   0.137 -0.8053 -0.8350 -0.9296
  452SOL    HW2 3096   8.740   7.217   0.121  0.0923  0.3805 -1.4775
  453SOL     OW 3097   9.379   7.419   8.694  0.4806 -0.2714 -0.8061
  453SOL    HW1 3098   9.356   7.341   8.643 -2.5963  0.4837 -0.7702
  453SOL    HW2 3099   9.341   7.491   8.645  0.4041  0.8378  0.8193
  454SOL     OW 3100   5.897   2.001   3.797  0.4075  0.8699  0.0689
  454SOL    HW1 3101   5.872   2.001   3.889 -0.7627  0.0947 -0.2300
  454SOL    HW2 3102   5.870   2.087   3.765  0.7936  1.1321  0.4240
  455SOL     OW 3103   5.164   7.595   2.140  0.5034 -0.1656  0.0741
  455SOL    HW1 3104   5.196   7.670   2.191 -0.9902  1.1120 -0.7429
  455SOL    HW2 3105   5.242   7.558   2.100  1.3747  0.4777  1.1189
  456SOL     OW 3106   8.163   1.564   0.920  0.1912  0.0299 -0.5316
  456SOL    HW1 3107   8.222   1.575   0.845 -0.0947  0.9865 -0.6241
  456SOL    HW2 3108   8.210   1.504   0.978  0.4232 -0.7260 -1.4705
  457SOL     OW 3109   6.251   3.119   2.579 -0.3879  0.4537 -0.3022
  457SOL    HW1 3110   6.213   3.127   2.667 -1.8294  1.9892 -1.0250
  457SOL    HW2 3111   6.271   3.209   2.553 -1.2568  0.1746 -2.0684
  458SOL     OW 3112   6.396   1.252   3.769 -0.4871  0.0003  0.3618
  458SOL    HW1 3113   6.465   1.319   3.768 -1.0478  0.6164  1.1831
  458SOL    HW2 3114   6.423   1.190   3.836  0.3515 -0.9668 -0.8398
  459SOL     OW 3115   0.722   5.826   2.271 -0.3087  0.2957  0.1367
  459SOL    HW1 3116   0.716   5.768   2.347 -0.3226  1.9176  1.4198
  459SOL    HW2 3117   0.800   5.796   2.225 -0.0686 -0.4685  0.9970
  460SOL     OW 3118   5.828   7.226   1.623  0.1141  0.1839 -0.3607
  460SOL    HW1 3119   5.864   7.308   1.658  0.3962  0.0706 -0.3836
  460SOL    HW2 3120   5.874   7.213   1.540  0.8652 -0.5617  0.1563
  461SOL     OW 3121   7.861   9.243   0.289  0.3110  0.1407 -0.0495
  461SOL    HW1 3122   7.880   9.196   0.208 -0.7105 -0.1486 -0.1250
  461SOL    HW2 3123   7.938   9.227   0.344 -0.0063 -1.6346 -0.0654
  462SOL     OW 3124   3.239   7.289   2.637 -0.4924  1.1260 -0.0004
  462SOL    HW1 3125   3.240   7.343   2.558  0.3644  1.1279 -0.0011
  462SOL    HW2 3126   3.217   7.350   2.707  2.3751  1.9852  0.3054
  463SOL     OW 3127   4.484   7.254   0.363 -0.3543 -0.2208  0.2862
  463SOL    HW1 3128   4.449   7.179   0.314 -1.1754  0.6831 -0.5652
  463SOL    HW2 3129   4.521   7.216   0.442  0.7211 -1.7040 -0.8767
  464SOL     OW 3130   3.925   2.508   6.941  0.2118 -0.5602  0.0013
  464SOL    HW1 3131   3.838   2.520   6.978  1.0411 -1.2868  2.3721
  464SOL    HW2 3132   3.947   2.417   6.958  1.9208 -0.0784  0.6378
  465SOL     OW 3133   6.570   4.790   6.711  0.3214  0.5054 -0.0182
  465SOL    HW1 3134   6.538   4.699   6.713  0.8500  0.2960  2.7249
  465SOL    HW2 3135   6.614   4.798   6.626  0.0177 -1.7103 -0.4459
  466SOL     OW 3136   9.507   2.261   7.867  0.5269  0.0559 -0.6255
  466SOL    HW1 3137   9.532   2.258   7.960  1.8939  1.7372 -0.8691
  466SOL    HW2 3138   9.413   2.279   7.868  0.5971  0.4519  0.4559
  467SOL     OW 3139   3.632   8.949   7.354 -0.5822  0.0319  0.3596
  467SOL    HW1 3140   3.543   8.921   7.373 -0.6552  1.0968  1.7798
  467SOL    HW2 3141   3.622   9.021   7.292 -0.6931  0.0146  0.3572
  468SOL     OW 3142   8.481   8.771   3.919  0.2120 -0.2794  0.0424
  468SOL    HW1 3143   8.565   8.774   3.963  0.3546  0.9214 -0.2773
  468SOL    HW2 3144   8.463   8.862   3.893 -0.5792 -0.7012 -1.0106
  469SOL     OW 3145   6.981   6.721   2.187  0.0536 -0.5973  0.4004
  469SOL    HW1 3146   7.070   6.699   2.158  0.3704  1.9279 -0.8304
  469SOL    HW2 3147   6.926   6.657   2.142  1.1681 -1.8155  0.6852
  470SOL     OW 3148   0.313   5.361   2.123 -0.2635 -0.1454  0.2896
  470SOL    HW1 3149   0.385   5.342   2.184 -0.3838 -0.5100  0.3211
  470SOL    HW2 3150   0.332   5.306   2.047 -0.8792 -0.7638  0.5765
  471SOL     OW 3151   2.572   3.209   0.179  0.1858 -0.4116  0.1674
  471SOL    HW1 3152   2.531   3.291   0.150 -0.8311 -1.4947 -1.5900
  471SOL    HW2 3153   2.627   3.182   0.106 -0.6208 -2.0311  0.1166
  472SOL     OW 3154   6.317   6.844   5.575 -0.1259 -0.5921 -0.4858
  472SOL    HW1 3155   6.258   6.796   5.517 -0.8908 -0.9065  0.5107
  472SOL    HW2 3156   6.260   6.875   5.646  0.9288 -1.0770  0.6218
  473SOL     OW 3157   8.504   2.520   4.534  0.6237 -0.4788 -0.3293
  473SOL    HW1 3158   8.571   2.503   4.468  2.3134  1.0724  0.8990
  473SOL    HW2 3159   8.551   2.564   4.605 -1.2264 -1.5500  1.6660
  474SOL     OW 3160   3.492   5.138   3.248 -0.1424  0.1261 -0.1062
  474SOL    HW1 3161   3.508   5.047   3.274  2.1369 -0.3146 -2.5380
  474SOL    HW2 3162   3.401   5.154   3.271 -0.9019 -3.0903 -0.3794
  475SOL     OW 3163   0.366   0.109   7.320 -0.5591 -0.2999  0.5028
  475SOL    HW1 3164   0.414   0.188   7.347 -1.7495  0.4680  0.4106
  475SOL    HW2 3165   0.333   0.071   7.401 -1.5753  0.3426  0.4002
  476SOL     OW 3166   1.728   6.579   7.651  0.4961  0.0843  0.3050
  476SOL    HW1 3167   1.662   6.593   7.583 -1.1555  0.5014  1.9181
  476SOL    HW2 3168   1.792   6.649   7.637  0.2919  0.0511 -0.9105
  477SOL     OW 3169   4.476   4.835   7.803  0.1543 -0.1066 -0.5638
  477SOL    HW1 3170   4.532   4.851   7.878 -1.0729  1.1448  0.1533
  477SOL    HW2 3171   4.506   4.898   7.737  0.5838 -0.5134 -0.7606
  478SOL     OW 3172   1.023   4.268   1.672  0.0973  0.0404  0.2597
  478SOL    HW1 3173   1.101   4.311   1.706  0.4864 -0.0021 -0.5369
  478SOL    HW2 3174   1.035   4.176   1.693  0.5123 -0.0385 -0.2929
  479SOL     OW 3175   8.802   8.653   2.827 -0.0967 -0.5324 -0.1295
  479SOL    HW1 3176   8.754   8.619   2.903 -0.4896  0.4002  0.0516
  479SOL    HW2 3177   8.771   8.743   2.817  2.2757  0.4397  0.5539
  480SOL     OW 3178   8.312   2.444   3.794  0.3939  0.0139  0.2280
  480SOL    HW1 3179   8.363   2.435   3.874  1.1987  1.3575 -0.1011
  480SOL    HW2 3180   8.249   2.513   3.814 -0.2417 -0.5165  0.0986
  481SOL     OW 3181   2.221   2.707   9.103  0.2721  0.2572  0.6906
  481SOL    HW1 3182   2.166   2.703   9.181 -1.9282 -0.4198 -0.8061
  481SOL    HW2 3183   2.240   2.615   9.083 -0.0011  0.3759 -0.1277
  482SOL     OW 3184   3.679   4.538   3.157  0.0527  0.8245 -0.5957
  482SOL    HW1 3185   3.650   4.623   3.123 -1.1424  0.3770 -0.7540
  482SOL    HW2 3186   3.772   4.550   3.174 -0.1959  2.3421 -0.0974
  483SOL     OW 3187   1.263   4.981   9.108  0.3631 -0.2698  0.1323
  483SOL    HW1 3188   1.234   5.067   9.076  1.0824 -0.3871 -0.8564
  483SOL    HW2 3189   1.332   5.001   9.171 -0.5814 -0.0716  1.1459
  484SOL     OW 3190   3.411   0.362   0.100  0.1251 -0.1970 -0.3588
  484SOL    HW1 3191   3.389   0.363   0.193  0.5495  0.1532 -0.2587
  484SOL    HW2 3192   3.354   0.294   0.062 -0.3981  0.0006  0.0644
  485SOL     OW 3193   2.415   7.129   8.402  0.0827  0.1154 -0.2274
  485SOL    HW1 3194   2.476   7.195   8.433  0.9380 -0.0395 -1.5101
  485SOL    HW2 3195   2.411   7.065   8.473  0.7415  0.5699  0.2276
  486SOL     OW 3196   6.034   2.824   5.764  0.7406  0.0631 -0.1646
  486SOL    HW1 3197   6.101   2.856   5.704 -1.4847 -0.5721 -3.2577
  486SOL    HW2 3198   6.016   2.735   5.735 -1.5450  0.2718  0.3788
  487SOL     OW 3199   2.037   8.473   8.150 -0.5557  0.0045 -0.0043
  487SOL    HW1 3200   2.130   8.486   8.170 -0.6303  1.1456 -0.3214
  487SOL    HW2 3201   2.020   8.382   8.173  0.3841  0.0796  1.0772
  488SOL     OW 3202   1.030   2.086   3.996  0.3776 -0.1117  0.3881
  488SOL    HW1 3203   1.023   2.028   3.920  0.7477 -0.2618  0.4663
  488SOL    HW2 3204   0.942   2.121   4.007  0.4315  0.3293 -0.4448
  489SOL     OW 3205   8.813   1.118   1.132 -0.2340  0.1507 -0.3552
  489SOL    HW1 3206   8.771   1.201   1.153 -0.3591 -0.2229  0.9852
  489SOL    HW2 3207   8.864   1.136   1.053 -0.8796  1.2867 -0.5337
  490SOL     OW 3208   7.494   8.405   5.276 -0.3979  0.3830 -0.1503
  490SOL    HW1 3209   7.485   8.439   5.187 -1.5043  0.8353  0.1117
  490SOL    HW2 3210   7.408   8.367   5.296 -0.1016  0.1129  0.6559
  491SOL     OW 3211   9.320   6.658   7.864 -0.2454  0.4736  0.1936
  491SOL    HW1 3212   9.357   6.746   7.872 -0.0276  0.2152  3.2220
  491SOL    HW2 3213   9.382   6.611   7.808 -0.8419  2.4039 -2.2660
  492SOL     OW 3214   6.601   4.749   5.409 -0.0591  0.5252 -0.0810
  492SOL    HW1 3215   6.607   4.722   5.501 -2.1231  1.1361  0.2764
  492SOL    HW2 3216   6.513   4.784   5.400  0.1646  0.6482 -2.2739
  493SOL     OW 3217   3.411   8.339   4.332  0.4026  0.3375  0.0267
  493SOL    HW1 3218   3.394   8.268   4.270  3.0759 -0.0434 -0.3675
  493SOL    HW2 3219   3.476   8.303   4.393 -2.0625  0.6890  3.1410
  494SOL     OW 3220   5.859   7.806   7.408  0.2075  0.0577 -0.4776
  494SOL    HW1 3221   5.831   7.714   7.414 -1.8165  0.6706  0.7026
  494SOL    HW2 3222   5.793   7.848   7.354  0.7563  0.9394 -0.4843
  495SOL     OW 3223   0.119   1.657   2.755 -0.1402  0.4773 -0.4785
  495SOL    HW1 3224   0.103   1.722   2.686  1.1200  1.7152  0.3396
  495SOL    HW2 3225   0.088   1.700   2.835  0.7307  0.0890  0.0729
  496SOL     OW 3226   1.785   5.032   4.063  0.2494 -0.0638 -0.2946
  496SOL    HW1 3227   1.782   4.948   4.110  0.5336 -0.1345 -0.4033
  496SOL    HW2 3228   1.693   5.051   4.043  0.3298 -1.6118 -2.5337
  497SOL     OW 3229   4.990   4.827   0.884 -0.2942  0.5217  0.3198
  497SOL    HW1 3230   5.065   4.875   0.848  0.6403  0.2073  1.7871
  497SOL    HW2 3231   4.916   4.887   0.873 -0.1238  0.3875 -2.2370
  498SOL     OW 3232   8.371   0.671   8.544 -0.1386  0.1422  0.3301
  498SOL    HW1 3233   8.427   0.609   8.497 -0.3112  0.3556 -0.1761
  498SOL    HW2 3234   8.413   0.756   8.529  1.5750 -0.0852  3.1916
  499SOL     OW 3235   4.583   6.010   8.601  0.0357 -0.2758 -0.0782
  499SOL    HW1 3236   4.642   6.000   8.527 -0.7075 -0.9135 -0.6080
  499SOL    HW2 3237   4.576   6.105   8.615  1.7003 -0.2027  0.4477
  500SOL     OW 3238   6.682   2.339   4.300  0.2677  0.1077 -0.1607
  500SOL    HW1 3239   6.638   2.254   4.291 -0.0594  0.1942  0.5298
  500SOL    HW2 3240   6.737   2.346   4.222 -0.3916 -0.3292 -0.6783
  501SOL     OW 3241   0.362   9.371   8.653 -0.3235  0.4568 -0.0533
  501SOL    HW1 3242   0.346   9.402   8.742 -0.1273 -0.0410  0.1626
  501SOL    HW2 3243   0.280   9.387   8.607  0.1092  2.2913 -0.2635
  502SOL     OW 3244   0.133   2.074   5.554  0.2591  0.8505 -0.7924
  502SOL    HW1 3245   0.059   2.128   5.584 -1.5399 -0.8829 -1.8414
  502SOL    HW2 3246   0.210   2.129   5.567 -0.9474  2.0380  2.2220
  503SOL     OW 3247   6.647   3.557   3.145  0.3115  0.1420 -0.2955
  503SOL    HW1 3248   6.552   3.548   3.140  0.0857  2.2947 -0.8086
  503SOL    HW2 3249   6.677   3.549   3.054  0.3875  1.2867 -0.3900
  504SOL     OW 3250   2.242   7.700   7.906 -0.2256 -0.1443 -0.4913
  504SOL    HW1 3251   2.235   7.794   7.921 -2.6617 -0.1727 -1.0838
  504SOL    HW2 3252   2.320   7.690   7.852  0.5738  1.4246  0.3186
  505SOL     OW 3253   5.924   6.151   7.279  0.5134 -0.4894 -0.1679
  505SOL    HW1 3254   5.939   6.144   7.374 -1.1544 -0.2079  0.1473
  505SOL    HW2 3255   5.870   6.075   7.258  2.4373 -1.6280 -1.2950
  506SOL     OW 3256   3.777   5.307   7.406  0.2920  0.1069 -0.0019
  506SOL    HW1 3257   3.707   5.250   7.373 -0.6219  0.1041  1.8146
  506SOL    HW2 3258   3.858   5.258   7.391 -0.1337 -0.1996 -1.4813
  507SOL     OW 3259   8.501   5.180   9.428  0.0029  0.4187  0.1749
  507SOL    HW1 3260   8.513   5.104   9.371  0.2930  0.8335 -0.3304
  507SOL    HW2 3261   8.514   5.255   9.370 -1.4852  0.8703  0.3892
  508SOL     OW 3262   8.166   5.370   8.113 -0.3838 -0.2549  1.0901
  508SOL    HW1 3263   8.201   5.377   8.024 -1.3951 -0.3979  0.6649
  508SOL    HW2 3264   8.229   5.316   8.160  0.4559  0.2886  0.6242
  509SOL     OW 3265   8.718   5.580   2.813 -0.0033  0.0297  0.2418
  509SOL    HW1 3266   8.725   5.485   2.822 -0.4099 -0.0117  0.1669
  509SOL    HW2 3267   8.667   5.607   2.889 -0.7441  0.0615 -0.2515
  510SOL     OW 3268   1.061   3.566   2.891 -0.0115 -0.6032  0.4950
  510SOL    HW1 3269   1.146   3.524   2.882  0.4697  0.3764  0.3090
  510SOL    HW2 3270   1.022   3.525   2.968 -0.1250 -2.2883 -0.4095
  511SOL     OW 3271   9.433   0.805   1.360  0.8577 -0.0531  0.8424
  511SOL    HW1 3272   9.361   0.866   1.373 -0.5828 -1.9349  2.2364
  511SOL    HW2 3273   9.401   0.742   1.295  1.6851 -0.2760  0.6295
  512SOL     OW 3274   5.852   3.331   5.434 -0.4516  0.1572  0.1769
  512SOL    HW1 3275   5.934   3.333   5.385 -1.8420  2.3822 -2.2463
  512SOL    HW2 3276   5.847   3.241   5.467  1.3194 -1.0336 -2.4775
  513SOL     OW 3277   8.888   5.968   5.535 -0.6514 -0.1882 -0.3902
  513SOL    HW1 3278   8.891   6.053   5.491 -0.3625  0.3842  0.7048
  513SOL    HW2 3279   8.796   5.955   5.558 -0.6637 -0.0967 -0.3906
  514SOL     OW 3280   7.975   4.086   4.619  0.7064 -0.8531 -0.0609
  514SOL    HW1 3281   8.050   4.139   4.591  0.2388 -0.3321 -0.3527
  514SOL    HW2 3282   8.012   4.000   4.637  1.6093 -0.2337  1.1434
  515SOL     OW 3283   8.569   1.187   5.351  0.2934 -0.4885 -0.4545
  515SOL    HW1 3284   8.502   1.210   5.415  1.1881  0.5031  0.1605
  515SOL    HW2 3285   8.636   1.255   5.361  0.1622  0.1072 -2.9224
  516SOL     OW 3286   8.930   3.473   4.609  0.1788 -0.3993  0.6985
  516SOL    HW1 3287   8.861   3.410   4.589  0.2606  0.0219 -1.0762
  516SOL    HW2 3288   8.921   3.489   4.703 -1.6257 -0.9433  0.6574
  517SOL     OW 3289   9.183   0.540   4.458 -0.0825  0.1490 -0.0168
  517SOL    HW1 3290   9.164   0.510   4.547 -0.7796  0.8876  0.0852
  517SOL    HW2 3291   9.179   0.635   4.462  5.9758  0.7720  0.5988
  518SOL     OW 3292   1.619   9.462   9.019  0.1025 -0.1611 -0.4215
  518SOL    HW1 3293   1.661   9.406   8.954  1.2501  0.5216 -0.3093
  518SOL    HW2 3294   1.692   9.512   9.058 -0.7917  0.8740 -0.0234
  519SOL     OW 3295   0.278   6.012   8.957  0.2522 -0.4420 -0.0917
  519SOL    HW1 3296   0.355   6.043   8.909 -0.8274 -0.9258 -2.2514
  519SOL    HW2 3297   0.217   6.085   8.954  0.4145 -0.2353  1.1978
  520SOL     OW 3298   6.781   8.578   5.601 -0.0648 -0.5170  0.0148
  520SOL    HW1 3299   6.741   8.616   5.679 -1.7061 -0.0621 -1.0095
  520SOL    HW2 3300   6.787   8.651   5.539 -0.8111 -1.3220 -1.0527
  521SOL     OW 3301   1.586   4.305   1.977  0.7503  0.3572 -0.3475
  521SOL    HW1 3302   1.630   4.353   1.907  0.6830  2.1544  0.7690
  521SOL    HW2 3303   1.633   4.332   2.056 -2.0780  2.0751  0.8673
  522SOL     OW 3304   8.161   3.382   5.719 -0.7839  0.2887  0.2189
  522SOL    HW1 3305   8.238   3.425   5.682 -1.3251  0.9003 -0.2148
  522SOL    HW2 3306   8.167   3.400   5.813  0.2010 -0.6450  0.3517
  523SOL     OW 3307   7.265   1.148   7.914  0.1518  0.1849  0.0869
  523SOL    HW1 3308   7.263   1.112   8.003 -0.4433 -0.6126 -0.2289
  523SOL    HW2 3309   7.288   1.240   7.926  0.9725 -0.1167  0.9882
  524SOL     OW 3310   1.506   5.346   6.437  0.5570  0.4292 -0.0412
  524SOL    HW1 3311   1.567   5.419   6.446  1.2382  0.0567 -1.4491
  524SOL    HW2 3312   1.561   5.268   6.438  0.0160  0.0369 -0.4474
  525SOL     OW 3313   2.666   5.731   1.198  0.5455 -0.7693 -0.0619
  525SOL    HW1 3314   2.637   5.791   1.267  0.4787  1.1187 -1.6420
  525SOL    HW2 3315   2.611   5.653   1.209 -0.1295 -0.1227  1.3957
  526SOL     OW 3316   6.316   3.597   7.951 -0.0731 -0.0977 -0.5229
  526SOL    HW1 3317   6.347   3.614   8.039 -0.3546 -1.2859 -0.1740
  526SOL    HW2 3318   6.310   3.684   7.910 -0.2963  0.5065  0.7355
  527SOL     OW 3319   8.132   0.035   7.622  0.0290  0.0117 -0.2098
  527SOL    HW1 3320   8.045  -0.001   7.607 -1.2144  0.7485  3.8358
  527SOL    HW2 3321   8.127   0.125   7.590 -0.1751 -0.3794 -1.3067
  528SOL     OW 3322   0.398   2.145   1.640  0.2421 -0.1319 -0.0403
  528SOL    HW1 3323   0.453   2.080   1.596  0.4210 -0.8933  1.2649
  528SOL    HW2 3324   0.348   2.186   1.569 -0.6343 -2.3912 -0.8384
  529SOL     OW 3325   5.983   2.671   5.342  0.2960 -0.3459 -0.2755
  529SOL    HW1 3326   5.953   2.694   5.255 -0.1037 -0.8516 -0.2746
  529SOL    HW2 3327   5.905   2.677   5.397  0.9409  2.0798  0.4920
  530SOL     OW 3328   6.718   7.628   1.700  0.0359  0.1886 -0.0658
  530SOL    HW1 3329   6.771   7.617   1.779  4.2685  0.3105 -2.5580
  530SOL    HW2 3330   6.712   7.723   1.688 -0.0102  0.1673 -0.2148
  531SOL     OW 3331   0.170   5.470   2.860 -0.3319  0.5786  0.3091
  531SOL    HW1 3332   0.263   5.479   2.840 -0.3534 -0.8350 -0.5176
  531SOL    HW2 3333   0.133   5.424   2.785 -1.8001  1.4908  0.4228
  532SOL     OW 3334   3.649   2.656   8.765  0.1894  0.4345  0.2908
  532SOL    HW1 3335   3.615   2.580   8.718 -0.4465  0.3018  0.9455
  532SOL    HW2 3336   3.714   2.621   8.825  0.5701  0.5301 -0.0599
  533SOL     OW 3337   4.832   4.591   3.813 -0.2101  0.1039  0.1089
  533SOL    HW1 3338   4.783   4.581   3.731 -0.4129  1.8020 -0.0204
  533SOL    HW2 3339   4.765   4.606   3.879  0.0057 -0.3282  0.4309
  534SOL     OW 3340   8.056   2.323   2.676 -0.5963 -0.1186  0.5512
  534SOL    HW1 3341   8.096   2.341   2.591 -2.1803  2.8550  0.2999
  534SOL    HW2 3342   7.999   2.398   2.692 -2.3748 -1.8300  3.0567
  535SOL     OW 3343   0.697   8.826   4.895 -0.4976 -0.1487  0.1460
  535SOL    HW1 3344   0.721   8.737   4.871  1.0057  0.5957 -1.2924
  535SOL    HW2 3345   0.613   8.842   4.851 -0.0884 -0.3944 -0.7326
  536SOL     OW 3346   6.716   6.462   0.008  0.2992 -0.4322  0.2268
  536SOL    HW1 3347   6.687   6.427  -0.077 -0.8317 -0.4317  0.5927
  536SOL    HW2 3348   6.642   6.444   0.067  1.2126 -0.7466  1.2962
  537SOL     OW 3349   7.874   1.778   7.346 -0.0401 -0.2659  0.3559
  537SOL    HW1 3350   7.855   1.756   7.255  1.7285  1.2070 -0.4406
  537SOL    HW2 3351   7.807   1.843   7.369 -0.1404 -0.1963 -0.1208
  538SOL     OW 3352   2.734   0.460   2.962  0.1679  0.5762  0.0661
  538SOL    HW1 3353   2.816   0.413   2.978 -0.8507 -1.4039 -0.1919
  538SOL    HW2 3354   2.739   0.489   2.872 -0.2475 -1.4849 -0.6885
  539SOL     OW 3355   4.540   8.632   7.852 -0.3173  0.2408 -0.4391
  539SOL    HW1 3356   4.620   8.668   7.815  1.5685  3.0361  5.2587
  539SOL    HW2 3357   4.552   8.537   7.847  1.9565  0.5411 -2.1941
  540SOL     OW 3358   8.922   5.001   7.763  1.2169  0.0198  0.1569
  540SOL    HW1 3359   8.921   4.906   7.755  0.4173  0.0303  0.0017
  540SOL    HW2 3360   8.951   5.017   7.853 -0.8901 -0.4602  0.9849
  541SOL     OW 3361   3.774   2.210   6.579  0.2189  0.6196  0.2994
  541SOL    HW1 3362   3.716   2.240   6.649  0.6595  1.3801  0.3391
  541SOL    HW2 3363   3.839   2.280   6.569 -0.6111  1.1701 -1.7670
  542SOL     OW 3364   0.485   1.823   1.261  0.4320 -0.3466  0.5407
  542SOL    HW1 3365   0.528   1.740   1.285 -0.5342 -0.8483  0.5800
  542SOL    HW2 3366   0.463   1.812   1.168  0.9166  0.1498  0.3612
  543SOL     OW 3367   2.147   2.382   6.488 -0.1976  0.1790  0.2938
  543SOL    HW1 3368   2.092   2.312   6.451 -1.8205  1.2517  0.5810
  543SOL    HW2 3369   2.149   2.449   6.420  2.0924 -0.4552 -0.3446
  544SOL     OW 3370   9.285   3.238   7.204 -0.2600  0.3817 -0.1898
  544SOL    HW1 3371   9.358   3.228   7.143 -1.9739  0.9861 -2.4360
  544SOL    HW2 3372   9.324   3.282   7.280  1.8254  0.0947 -1.0185
  545SOL     OW 3373   2.866   3.053   6.096 -0.4320 -0.2962  0.1120
  545SOL    HW1 3374   2.822   3.097   6.023  1.0433  1.7837  0.4011
  545SOL    HW2 3375   2.840   2.961   6.087 -0.7314 -0.0333 -2.6875
  546SOL     OW 3376   7.199   6.940   2.682  0.1123 -0.1845 -0.5927
  546SOL    HW1 3377   7.164   6.888   2.609 -1.8008  1.3368 -0.8403
  546SOL    HW2 3378   7.262   7.000   2.641  1.9581 -1.8675 -0.3738
  547SOL     OW 3379   9.428   4.447   2.342 -0.9705 -0.3508  0.3513
  547SOL    HW1 3380   9.439   4.406   2.428 -0.6434  0.7633  0.8640
  547SOL    HW2 3381   9.338   4.428   2.318 -1.0351 -0.7602  0.8956
  548SOL     OW 3382   2.705   8.019   1.852  0.0848  0.5141  0.3028
  548SOL    HW1 3383   2.727   7.931   1.882  0.0521  0.1909 -0.6063
  548SOL    HW2 3384   2.624   8.008   1.803  2.1560  0.3071 -3.4001
  549SOL     OW 3385   8.515   3.905   1.035 -0.4036 -0.3043  0.2300
  549SOL    HW1 3386   8.575   3.834   1.012 -1.2170 -1.4867  1.6185
  549SOL    HW2 3387   8.449   3.864   1.090 -1.2662  1.4186  0.5454
  550SOL     OW 3388   2.321   0.187   7.371  0.1791  0.0996  0.4241
  550SOL    HW1 3389   2.413   0.205   7.392  0.4970 -1.6123  0.6325
  550SOL    HW2 3390   2.281   0.274   7.366  1.9240  0.9235 -0.2841
  551SOL     OW 3391   2.931   2.977   3.626  0.8133  0.4730 -0.4983
  551SOL    HW1 3392   3.007   2.973   3.567 -0.0612 -0.3858 -1.6105
  551SOL    HW2 3393   2.858   2.947   3.572 -0.0313 -0.3027  1.0389
  552SOL     OW 3394   3.921   7.769   4.524  0.1672 -0.0612 -0.3839
  552SOL    HW1 3395   3.886   7.763   4.612 -0.8885  0.5565 -0.7461
  552SOL    HW2 3396   4.015   7.785   4.536  0.4383 -2.0534  0.5981
  553SOL     OW 3397   4.334   2.597   6.287 -0.4406  0.0387  0.2521
  553SOL    HW1 3398   4.267   2.628   6.226  0.4412 -0.7765 -1.2011
  553SOL    HW2 3399   4.387   2.536   6.235  1.3222  0.5149  1.3790
  554SOL     OW 3400   4.419   3.106   2.786 -1.2314  0.2056  0.7396
  554SOL    HW1 3401   4.482   3.083   2.717 -0.9428  1.4140  0.5744
  554SOL    HW2 3402   4.335   3.072   2.754 -0.8886 -0.3218  0.3766
  555SOL     OW 3403   4.693   7.504   8.282 -0.1534  0.6286 -0.1549
  555SOL    HW1 3404   4.777   7.476   8.245 -0.3465 -0.0311 -0.1144
  555SOL    HW2 3405   4.674   7.438   8.349 -1.6473 -0.3678 -1.5029
  556SOL     OW 3406   5.664   0.844   6.079  0.4440 -0.4740 -0.1035
  556SOL    HW1 3407   5.610   0.787   6.133 -3.0557  2.4359 -0.1299
  556SOL    HW2 3408   5.673   0.924   6.130  1.5570  0.4820 -1.7070
  557SOL     OW 3409   2.469   6.292   4.402 -0.3953  0.5435  0.1376
  557SOL    HW1 3410   2.496   6.269   4.313 -0.2532  0.4833  0.1952
  557SOL    HW2 3411   2.496   6.383   4.413  1.8665 -0.1527  0.9729
  558SOL     OW 3412   6.097   7.285   9.139  0.0570  0.0059 -0.0556
  558SOL    HW1 3413   6.160   7.301   9.068 -0.7280  0.1085 -0.7570
  558SOL    HW2 3414   6.069   7.373   9.167 -0.8959 -0.0337 -0.8082
  559SOL     OW 3415   6.120   8.644   5.467  0.0642 -0.2790 -0.0877
  559SOL    HW1 3416   6.182   8.707   5.504  1.3057 -1.2175 -0.4605
  559SOL    HW2 3417   6.162   8.559   5.483 -2.4994 -1.2342  2.2719
  560SOL     OW 3418   1.163   4.551   0.286 -0.3165 -0.7890 -0.1971
  560SOL    HW1 3419   1.254   4.522   0.291  0.0565  0.4209  0.3879
  560SOL    HW2 3420   1.161   4.613   0.213 -1.0624 -2.0763 -1.3146
  561SOL     OW 3421   8.546   8.495   5.320  0.5471  0.0571  0.6851
  561SOL    HW1 3422   8.597   8.418   5.295  2.8705  0.8975  2.5376
  561SOL    HW2 3423   8.464   8.459   5.356  0.7087 -1.4151 -0.3332
  562SOL     OW 3424   6.397   9.056   7.878 -0.1142 -0.2058 -1.0492
  562SOL    HW1 3425   6.343   8.986   7.914  0.5629 -0.5142 -0.6016
  562SOL    HW2 3426   6.437   9.017   7.800  1.3491 -0.8165 -0.0415
  563SOL     OW 3427   2.141   0.346   2.152  0.3901 -0.4571 -0.0905
  563SOL    HW1 3428   2.157   0.290   2.227 -0.1818  0.3583  0.6574
  563SOL    HW2 3429   2.069   0.304   2.105  2.0379 -2.0610 -1.3480
  564SOL     OW 3430   0.836   4.865   5.247 -0.2062  0.4195 -0.1057
  564SOL    HW1 3431   0.778   4.864   5.324  0.4444 -1.0181  0.3996
  564SOL    HW2 3432   0.863   4.774   5.237  1.1407  0.8930 -0.9726
  565SOL     OW 3433   0.556   3.296   5.120 -0.4999  0.3041  0.2565
  565SOL    HW1 3434   0.483   3.309   5.059 -0.5248 -2.5698 -0.4863
  565SOL    HW2 3435   0.567   3.201   5.123  1.1375  0.4954  2.8696
  566SOL     OW 3436   4.803   7.451   4.455  0.0534  0.0999 -0.4590
  566SOL    HW1 3437   4.898   7.465   4.462  0.1228 -0.1307 -0.8859
  566SOL    HW2 3438   4.787   7.447   4.361 -0.5724  1.3934 -0.4131
  567SOL     OW 3439   6.186   9.347   6.597 -0.2450 -0.2693  0.1388
  567SOL    HW1 3440   6.137   9.304   6.668  0.3701  0.1698  0.8434
  567SOL    HW2 3441   6.224   9.425   6.637 -1.2802  0.9288 -1.1048
  568SOL     OW 3442   1.853   4.952   7.076  0.3597  0.2669 -0.3480
  568SOL    HW1 3443   1.835   4.935   6.984  0.6191  2.0936 -0.7694
  568SOL    HW2 3444   1.790   5.019   7.102 -0.8714 -1.4181  1.3215
  569SOL     OW 3445   2.426   9.096   3.991 -0.1757  0.0436 -0.0258
  569SOL    HW1 3446   2.362   9.029   4.016  0.4674 -0.3955  0.4786
  569SOL    HW2 3447   2.373   9.174   3.973 -0.8433 -0.2739  0.5162
  570SOL     OW 3448   7.734   0.829   0.933 -0.1197  0.4490  0.3236
  570SOL    HW1 3449   7.699   0.908   0.974 -0.2108  0.3105  0.5151
  570SOL    HW2 3450   7.791   0.791   0.999 -0.0446  0.3757  0.2174
  571SOL     OW 3451   7.961   3.060   5.966 -0.0569 -0.3710 -0.2477
  571SOL    HW1 3452   8.039   3.045   5.913  0.0438 -0.7573  0.0040
  571SOL    HW2 3453   7.889   3.065   5.903  0.1687  0.0142 -0.4841
  572SOL     OW 3454   3.841   7.172   8.771 -0.3685  0.1949  0.1187
  572SOL    HW1 3455   3.877   7.147   8.685  1.1468 -0.4291  0.8976
  572SOL    HW2 3456   3.829   7.089   8.817 -0.6726  0.5550  0.7015
  573SOL     OW 3457   6.817   8.348   6.981  0.1093 -0.0923 -0.3313
  573SOL    HW1 3458   6.818   8.368   6.888  0.7417 -0.4416 -0.4046
  573SOL    HW2 3459   6.845   8.257   6.987  0.4271  0.0345  0.2241
  574SOL     OW 3460   5.062   5.021   8.444 -0.4520  0.3813 -0.0522
  574SOL    HW1 3461   5.065   5.044   8.351 -1.4621  0.8201  0.0089
  574SOL    HW2 3462   5.123   5.082   8.485 -1.0439  1.1171 -0.2532
  575SOL     OW 3463   1.628   0.416   1.090  0.6061 -0.0603  0.4598
  575SOL    HW1 3464   1.581   0.424   1.173 -0.2170  0.1323 -0.0183
  575SOL    HW2 3465   1.567   0.372   1.031  0.4769  1.4131 -0.5773
  576SOL     OW 3466   5.151   5.909   6.373  0.4885 -0.4501 -0.2373
  576SOL    HW1 3467   5.145   5.937   6.464  2.5274 -1.2058  0.1732
  576SOL    HW2 3468   5.067   5.867   6.355 -1.0406  2.1177  0.3952
  577SOL     OW 3469   9.461   0.051   6.513 -0.4820  0.3169  0.2101
  577SOL    HW1 3470   9.425  -0.015   6.572  0.5650  0.2290  0.7632
  577SOL    HW2 3471   9.532   0.092   6.562 -0.5757  1.2831 -0.4365
  578SOL     OW 3472   5.469   6.215   6.902 -0.4925 -0.6024 -0.2709
  578SOL    HW1 3473   5.504   6.126   6.913  0.0078 -0.5844 -1.4746
  578SOL    HW2 3474   5.469   6.253   6.989  3.7526 -0.1479 -0.2745
  579SOL     OW 3475   0.346   9.375   5.095 -0.5195 -0.6812  0.0596
  579SOL    HW1 3476   0.271   9.433   5.108 -0.7663 -0.9803  0.0067
  579SOL    HW2 3477   0.374   9.391   5.005  1.2817  1.4998  0.9260
  580SOL     OW 3478   3.881   0.621   8.122  0.5232 -0.0841 -0.4283
  580SOL    HW1 3479   3.856   0.637   8.030  1.7829 -0.6228 -0.8905
  580SOL    HW2 3480   3.921   0.703   8.150  0.2641  0.0344 -0.4016
  581SOL     OW 3481   3.807   5.828   5.137  0.2606 -0.1747  0.5922
  581SOL    HW1 3482   3.812   5.802   5.046  0.2488  0.3835  0.4284
  581SOL    HW2 3483   3.723   5.795   5.168  0.0089  0.1385  0.2403
  582SOL     OW 3484   0.512   4.689   1.404  0.4302  0.1304 -0.0644
  582SOL    HW1 3485   0.466   4.611   1.374  1.9382 -0.6530 -0.4730
  582SOL    HW2 3486   0.589   4.655   1.450  1.3597  1.3584 -0.6373
  583SOL     OW 3487   4.348   8.360   8.908 -0.1258  0.1808  0.7378
  583SOL    HW1 3488   4.411   8.320   8.848 -0.9737  0.6287 -0.4981
  583SOL    HW2 3489   4.283   8.291   8.924 -1.0648  0.6858 -0.6274
  584SOL     OW 3490   9.010   2.181   4.748 -0.3007  0.8265  0.5176
  584SOL    HW1 3491   8.952   2.121   4.796 -0.5365  0.9106  0.3377
  584SOL    HW2 3492   9.098   2.148   4.765 -0.4616  0.1062 -0.0229
  585SOL     OW 3493   6.761   3.061   5.478 -0.5028  0.6651 -0.0466
  585SOL    HW1 3494   6.732   3.130   5.538 -0.5619 -0.1463  0.8700
  585SOL    HW2 3495   6.686   3.003   5.470  0.7425 -1.4216  2.2888
  586SOL     OW 3496   4.555   8.138   4.230 -0.1444  0.0540  0.3414
  586SOL    HW1 3497   4.501   8.167   4.303  1.5234 -1.2509  2.1786
  586SOL    HW2 3498   4.539   8.044   4.223  0.4634 -0.0086 -0.3589
  587SOL     OW 3499   5.748   3.448   7.757  0.2715 -0.5062  0.1616
  587SOL    HW1 3500   5.804   3.514   7.715  1.3170  0.1337  2.3694
  587SOL    HW2 3501   5.668   3.448   7.706 -0.4794  3.7810  0.9399
  588SOL     OW 3502   2.180   2.188   9.173 -0.3961 -0.4898  0.6844
  588SOL    HW1 3503   2.108   2.168   9.233  1.0694 -1.7212  2.1560
  588SOL    HW2 3504   2.206   2.103   9.137  1.1007 -0.2725  1.1720
  589SOL     OW 3505   0.273   4.925   1.723  0.4238 -0.0652 -0.3820
  589SOL    HW1 3506   0.327   4.847   1.712  0.2800 -0.2010 -0.1478
  589SOL    HW2 3507   0.234   4.915   1.810 -2.4652 -1.5768 -1.6698
  590SOL     OW 3508   1.491   1.697   5.917 -0.0962 -0.4971 -0.2493
  590SOL    HW1 3509   1.485   1.755   5.993 -0.9236 -0.1741 -0.5384
  590SOL    HW2 3510   1.577   1.715   5.879  0.7031 -1.3330  1.1174
  591SOL     OW 3511   8.580   0.234   8.990  0.4776  0.5872  0.3134
  591SOL    HW1 3512   8.586   0.165   9.055 -0.3932  1.1471  1.0237
  591SOL    HW2 3513   8.666   0.275   8.990  1.4101 -1.2326 -1.0050
  592SOL     OW 3514   1.903   4.510   4.584  0.1916  0.1421  0.4793
  592SOL    HW1 3515   1.892   4.605   4.587  1.0571  0.2339  2.5069
  592SOL    HW2 3516   1.950   4.493   4.503 -0.6254  1.3375 -0.2807
  593SOL     OW 3517   6.862   2.623   1.027 -0.3199  0.0368 -0.7426
  593SOL    HW1 3518   6.830   2.533   1.038  2.1141 -0.9384 -0.9081
  593SOL    HW2 3519   6.843   2.644   0.936 -1.2848 -0.1403 -0.5899
  594SOL     OW 3520   3.872   6.183   5.707 -0.3622  0.3020 -0.1186
  594SOL    HW1 3521   3.818   6.114   5.667 -0.9042  0.2368  0.6978
  594SOL    HW2 3522   3.858   6.172   5.801  0.9122  0.4288  0.0997
  595SOL     OW 3523   8.565   5.875   2.259  0.9059  0.3824 -0.3543
  595SOL    HW1 3524   8.654   5.849   2.283  0.9181  0.5725 -0.1872
  595SOL    HW2 3525   8.574   5.915   2.172  1.1868  1.5677  0.2065
  596SOL     OW 3526   1.158   9.163   9.568 -0.1651 -0.2063  0.0486
  596SOL    HW1 3527   1.211   9.090   9.600 -0.7122 -0.5847  0.1130
  596SOL    HW2 3528   1.097   9.123   9.505 -0.0571  0.2963 -0.3850
  597SOL     OW 3529   4.249   8.830   3.231  0.8211  0.0537 -0.5552
  597SOL    HW1 3530   4.285   8.828   3.319 -0.0633 -0.7167 -0.1968
  597SOL    HW2 3531   4.281   8.749   3.190  1.2923  0.4447 -0.9729
  598SOL     OW 3532   8.217   8.985   1.990  0.3991 -0.2977  0.1154
  598SOL    HW1 3533   8.190   8.933   2.066 -1.5989  2.3975  1.4207
  598SOL    HW2 3534   8.146   8.974   1.927  1.5299 -1.6462 -0.9832
  599SOL     OW 3535   4.167   3.410   3.120  0.1842  0.0741 -0.1356
  599SOL    HW1 3536   4.077   3.378   3.119  0.2102 -0.0017 -0.0485
  599SOL    HW2 3537   4.202   3.381   3.204  0.0559  0.7461  0.1590
  600SOL     OW 3538   7.658   3.448   3.080  0.3009 -0.0770  0.2908
  600SOL    HW1 3539   7.673   3.483   3.167  3.4815  1.5571 -0.7738
  600SOL    HW2 3540   7.655   3.353   3.092 -0.4529  0.1616  2.2519
  601SOL     OW 3541   5.576   4.302   0.760  0.3565 -0.2324 -0.5681
  601SOL    HW1 3542   5.614   4.252   0.832 -0.6976  0.5105  0.5607
  601SOL    HW2 3543   5.516   4.241   0.717  1.2887 -0.7978 -1.0778
  602SOL     OW 3544   6.916   0.136   6.326  0.4669 -0.2133  0.1331
  602SOL    HW1 3545   6.828   0.114   6.356  0.5028 -0.9013 -0.2513
  602SOL    HW2 3546   6.903   0.205   6.261  0.3355  0.7881  1.1882
  603SOL     OW 3547   4.748   4.183   6.692 -0.2531 -0.0173 -0.5978
  603SOL    HW1 3548   4.757   4.096   6.653 -0.8786 -0.6638  0.6312
  603SOL    HW2 3549   4.654   4.200   6.691 -0.2608  0.0768  0.3033
  604SOL     OW 3550   8.807   4.280   8.492 -0.3116  0.2521 -0.1277
  604SOL    HW1 3551   8.858   4.204   8.520  0.2254  0.8851  0.6418
  604SOL    HW2 3552   8.850   4.355   8.533  0.0176  1.1479 -1.9837
  605SOL     OW 3553   0.981   3.873   1.590  0.3881 -0.2650 -0.4232
  605SOL    HW1 3554   0.985   3.777   1.591 -1.1585 -0.3418  0.0148
  605SOL    HW2 3555   1.014   3.899   1.676 -2.4297 -0.6137  0.8846
  606SOL     OW 3556   6.275   8.389   7.327 -0.2751 -0.2267  0.6382
  606SOL    HW1 3557   6.316   8.427   7.405  0.9972  0.7091 -0.4457
  606SOL    HW2 3558   6.347   8.349   7.279 -0.7468  0.7087 -0.9072
  607SOL     OW 3559   2.364   9.395   4.166 -0.4788  0.3541  0.7450
  607SOL    HW1 3560   2.352   9.377   4.073  0.9842  1.4196  0.3112
  607SOL    HW2 3561   2.373   9.491   4.171  1.9024  0.1585  1.6285
  608SOL     OW 3562   4.850   6.006   0.759 -0.1259 -0.3244  0.1104
  608SOL    HW1 3563   4.842   5.978   0.668  0.9491 -0.4641  0.0454
  608SOL    HW2 3564   4.932   5.967   0.789 -0.2887  0.0113  1.0343
  609SOL     OW 3565   5.360   1.483   4.418  0.0721  0.1039  0.4666
  609SOL    HW1 3566   5.401   1.399   4.437 -0.7574 -0.1717  1.0948
  609SOL    HW2 3567   5.333   1.517   4.504  0.0061  0.8014  0.1785
  610SOL     OW 3568   6.045   8.212   6.928  0.1207 -0.3165  0.0854
  610SOL    HW1 3569   5.978   8.251   6.872 -0.5062 -1.1034  0.2610
  610SOL    HW2 3570   6.053   8.271   7.003 -1.1096 -0.7233  0.5522
  611SOL     OW 3571   0.331   7.789   2.497 -0.2448 -0.4998 -0.4204
  611SOL    HW1 3572   0.375   7.859   2.449 -0.2921 -0.5812 -0.5865
  611SOL    HW2 3573   0.396   7.755   2.557 -0.6319  0.6410  0.6971
  612SOL     OW 3574   8.232   5.684   5.783 -0.6317  0.2907 -0.2338
  612SOL    HW1 3575   8.249   5.708   5.692 -0.8095  1.0695 -0.0667
  612SOL    HW2 3576   8.202   5.593   5.778 -0.3636  0.2322 -0.9221
  613SOL     OW 3577   2.453   5.498   4.145  0.2459 -0.2828 -0.3169
  613SOL    HW1 3578   2.544   5.474   4.127  0.5755 -0.2126  1.1447
  613SOL    HW2 3579   2.446   5.589   4.117  0.7047 -0.2115 -0.2094
  614SOL     OW 3580   0.070   5.975   7.659  0.5600  0.0598 -0.0563
  614SOL    HW1 3581   0.062   6.069   7.673 -3.1011  0.2087 -1.8725
  614SOL    HW2 3582   0.036   5.962   7.570  1.6142 -2.9411 -0.1196
  615SOL     OW 3583   2.206   0.912   6.090 -0.3646  0.3975  0.0195
  615SOL    HW1 3584   2.202   0.990   6.146 -0.3053 -0.2672  0.9705
  615SOL    HW2 3585   2.163   0.844   6.141  1.6951 -0.8051  0.2276
  616SOL     OW 3586   8.139   8.651   6.997 -0.4123 -0.5668  0.0004
  616SOL    HW1 3587   8.178   8.628   6.913  1.2063  1.8810  0.0010
  616SOL    HW2 3588   8.208   8.632   7.061 -1.6710 -2.5414  0.8967
  617SOL     OW 3589   0.281   1.836   3.365 -0.8290  0.6739  0.2595
  617SOL    HW1 3590   0.278   1.802   3.276 -1.1561  1.9541 -0.2457
  617SOL    HW2 3591   0.359   1.797   3.403 -0.6591  0.1432 -0.6083
  618SOL     OW 3592   9.370   3.271   7.821  0.0450 -0.1351  0.2477
  618SOL    HW1 3593   9.297   3.232   7.772 -0.8635  1.5935  0.1328
  618SOL    HW2 3594   9.331   3.346   7.866  1.5029  0.0690  1.2345
  619SOL     OW 3595   9.016   7.881   2.970 -0.0836  0.5576 -0.6646
  619SOL    HW1 3596   9.025   7.959   2.914 -0.9306  1.0408 -0.1399
  619SOL    HW2 3597   8.926   7.853   2.957  0.1332 -0.1743 -0.6176
  620SOL     OW 3598   1.765   9.577   5.467 -0.0498 -0.1708 -0.4644
  620SOL    HW1 3599   1.682   9.536   5.443 -0.4473  0.2175  0.2270
  620SOL    HW2 3600   1.829   9.538   5.407 -0.8143 -0.0979 -1.3530
  621SOL     OW 3601   4.304   9.552   3.213  0.2204  0.4532 -0.0990
  621SOL    HW1 3602   4.329   9.476   3.162 -0.8834  0.7662 -1.1539
  621SOL    HW2 3603   4.321   9.527   3.304  1.1376 -0.5354 -0.5286
  622SOL     OW 3604   3.993   2.703   6.007  0.6200 -0.1615  0.0224
  622SOL    HW1 3605   4.084   2.701   5.980  0.8145  0.1744  0.6257
  622SOL    HW2 3606   3.995   2.736   6.097 -0.0375 -0.7697  0.2770
  623SOL     OW 3607   0.408   7.896   0.422  0.0668  0.3941 -0.1492
  623SOL    HW1 3608   0.333   7.954   0.408 -0.5369  0.1479  1.7657
  623SOL    HW2 3609   0.441   7.878   0.334  0.7214  4.1322 -0.8287
  624SOL     OW 3610   4.743   0.980   2.415  0.1385 -0.3277  0.5784
  624SOL    HW1 3611   4.830   1.001   2.450  0.2437 -0.1085  0.1981
  624SOL    HW2 3612   4.760   0.919   2.344  0.0088 -0.0693  0.3210
  625SOL     OW 3613   7.918   6.949   7.363 -0.2512 -0.0278  0.4339
  625SOL    HW1 3614   8.002   6.911   7.389  0.5725 -0.1204 -2.0740
  625SOL    HW2 3615   7.853   6.885   7.392  0.6352 -0.5456  1.3458
  626SOL     OW 3616   6.880   6.678   6.536  0.0611  0.0250 -0.2368
  626SOL    HW1 3617   6.921   6.742   6.594 -1.4624 -0.3541  1.3346
  626SOL    HW2 3618   6.887   6.595   6.582 -2.1576 -0.1022 -0.0021
  627SOL     OW 3619   4.784   5.030   1.346  0.5114  0.5583  0.1304
  627SOL    HW1 3620   4.735   5.006   1.268  1.2732 -0.2970 -0.1038
  627SOL    HW2 3621   4.722   5.078   1.400 -0.6901 -0.7579 -0.0276
  628SOL     OW 3622   8.428   8.121   1.321  0.4381 -0.0578  0.4748
  628SOL    HW1 3623   8.406   8.032   1.294 -1.6130  0.6519 -0.3124
  628SOL    HW2 3624   8.457   8.111   1.412  1.3632 -1.6475  0.0514
  629SOL     OW 3625   7.658   4.485   5.434 -0.1280 -0.3722 -0.1930
  629SOL    HW1 3626   7.737   4.492   5.380  0.9463  0.2300  1.3971
  629SOL    HW2 3627   7.594   4.543   5.390  1.0980  1.0323 -0.2047
  630SOL     OW 3628   9.018   8.765   8.086  0.5077  0.3641 -0.0051
  630SOL    HW1 3629   8.977   8.711   8.018 -1.3865 -0.6319  1.8002
  630SOL    HW2 3630   8.999   8.855   8.060 -0.9750 -0.0214 -0.3662
  631SOL     OW 3631   3.328   1.814   5.652  0.5584 -0.1324  0.3924
  631SOL    HW1 3632   3.286   1.812   5.566  0.0237 -1.2427  0.6491
  631SOL    HW2 3633   3.313   1.726   5.687  0.2891  0.4653  1.8425
  632SOL     OW 3634   7.915   0.034   8.731 -0.2510  0.2160  0.0965
  632SOL    HW1 3635   7.958  -0.002   8.809  1.2570  2.0495  0.1814
  632SOL    HW2 3636   7.944   0.125   8.728 -0.7081  0.3323 -2.3420
  633SOL     OW 3637   2.823   0.805   3.118  0.1926 -0.2400 -0.3429
  633SOL    HW1 3638   2.825   0.868   3.191  1.4733 -1.2316  0.5270
  633SOL    HW2 3639   2.730   0.790   3.102 -0.1316 -0.7321  1.7553
  634SOL     OW 3640   0.087   3.414   7.487  0.0216  0.4497 -0.6207
  634SOL    HW1 3641   0.092   3.358   7.564 -1.1628  1.2140  0.0541
  634SOL    HW2 3642   0.176   3.447   7.475  0.1454  0.6792  0.7220
  635SOL     OW 3643   7.352   1.150   6.964  0.5433  0.1406  0.1211
  635SOL    HW1 3644   7.307   1.163   7.047 -0.4104 -1.4588 -0.1254
  635SOL    HW2 3645   7.283   1.129   6.901  1.4158 -0.2384 -0.7393
  636SOL     OW 3646   8.235   2.412   0.391  0.1746 -0.1498 -0.3359
  636SOL    HW1 3647   8.185   2.356   0.331  0.6299 -1.1782  0.2142
  636SOL    HW2 3648   8.316   2.364   0.406  1.0362  1.1528 -0.6470
  637SOL     OW 3649   6.918   5.866   8.365 -0.0652 -0.5222 -0.0731
  637SOL    HW1 3650   6.924   5.956   8.397 -0.3204  0.2360 -2.0709
  637SOL    HW2 3651   6.825   5.844   8.372  0.0045 -0.6698  0.4615
  638SOL     OW 3652   8.248   4.357   5.376  0.0997  0.2205  0.5858
  638SOL    HW1 3653   8.328   4.332   5.330 -0.4917 -0.1278 -0.2778
  638SOL    HW2 3654   8.238   4.292   5.445  1.7786  1.5695  2.2027
  639SOL     OW 3655   7.838   2.859   2.433  0.0645  0.8250 -0.4845
  639SOL    HW1 3656   7.829   2.872   2.338 -0.7851  0.8590 -0.4051
  639SOL    HW2 3657   7.766   2.801   2.456  3.5416 -4.1926 -0.7767
  640SOL     OW 3658   4.106   5.632   6.657 -0.0315  0.1275  0.1003
  640SOL    HW1 3659   4.143   5.551   6.689 -0.2700  0.6152  1.6775
  640SOL    HW2 3660   4.117   5.694   6.729 -0.8395  1.1939 -0.6551
  641SOL     OW 3661   3.023   5.820   7.158  0.0919 -0.5903 -0.2664
  641SOL    HW1 3662   2.971   5.805   7.237  0.6542 -1.2524 -0.0110
  641SOL    HW2 3663   2.969   5.879   7.105 -1.1058 -1.5698 -0.1961
  642SOL     OW 3664   4.977   2.010   5.807  0.1256 -0.2167 -0.1216
  642SOL    HW1 3665   5.049   2.040   5.862 -1.6570 -0.7022  2.6402
  642SOL    HW2 3666   4.989   1.915   5.801 -0.4752 -0.3555  0.7037
  643SOL     OW 3667   3.153   5.139   7.266 -0.1342  0.1060 -0.0698
  643SOL    HW1 3668   3.060   5.144   7.288 -0.0431 -0.6267  0.5264
  643SOL    HW2 3669   3.157   5.083   7.189 -0.1108 -0.7546  0.5388
  644SOL     OW 3670   5.353   8.470   2.518 -0.0910  0.2547  0.1878
  644SOL    HW1 3671   5.330   8.558   2.550 -1.0724  0.0289  0.1416
  644SOL    HW2 3672   5.280   8.446   2.461  0.2402 -0.5361  0.0873
  645SOL     OW 3673   1.660   1.192   7.617  0.0877 -0.0187  0.9623
  645SOL    HW1 3674   1.633   1.109   7.657  0.9646 -0.9640 -0.3301
  645SOL    HW2 3675   1.754   1.182   7.603 -0.0043  0.7262 -0.2888
  646SOL     OW 3676   3.801   5.634   6.323  0.4122 -0.0365 -0.4032
  646SOL    HW1 3677   3.795   5.577   6.399 -1.8476  2.3152  1.3621
  646SOL    HW2 3678   3.872   5.695   6.343 -0.7492  1.1271  0.2866
  647SOL     OW 3679   2.435   0.409   9.043 -0.3097  0.1035  0.4941
  647SOL    HW1 3680   2.529   0.394   9.055  0.4071  3.0579 -0.6743
  647SOL    HW2 3681   2.403   0.429   9.131  0.1178 -0.8959  0.8958
  648SOL     OW 3682   4.514   6.975   6.162 -0.1554  0.0635  0.1977
  648SOL    HW1 3683   4.515   7.064   6.197  1.2538  0.1103  0.1172
  648SOL    HW2 3684   4.429   6.939   6.188  0.1134  0.6985  2.1267
  649SOL     OW 3685   0.240   9.543   9.155  0.1122 -0.0286 -0.2719
  649SOL    HW1 3686   0.201   9.515   9.238  0.0174  0.4476 -0.1523
  649SOL    HW2 3687   0.188   9.619   9.129 -0.8276 -1.0777 -1.5444
  650SOL     OW 3688   7.230   1.002   9.422  0.1010 -0.7650  0.0652
  650SOL    HW1 3689   7.165   1.029   9.487  0.4594  0.9852 -0.2439
  650SOL    HW2 3690   7.246   0.909   9.441 -1.6739 -0.9569  0.8210
  651SOL     OW 3691   0.308   3.193   2.322  0.1966 -0.7206 -0.5605
  651SOL    HW1 3692   0.318   3.192   2.227 -0.1305  1.4810 -0.6793
  651SOL    HW2 3693   0.319   3.285   2.346  0.8770 -1.3056  1.6153
  652SOL     OW 3694   3.478   8.962   6.347  0.1854 -0.9437 -0.3102
  652SOL    HW1 3695   3.573   8.971   6.356  0.0871 -0.8446  0.7958
  652SOL    HW2 3696   3.465   8.933   6.256  1.2775 -1.1280 -0.4242
  653SOL     OW 3697   1.820   9.078   7.774 -0.2188 -0.1577 -0.1050
  653SOL    HW1 3698   1.841   9.033   7.855  1.6261 -0.6621 -0.7940
  653SOL    HW2 3699   1.747   9.030   7.737 -1.3333  0.3124  1.4131
  654SOL     OW 3700   7.975   8.306   8.398 -0.5897 -0.0495 -0.2371
  654SOL    HW1 3701   7.893   8.268   8.427 -0.1848  0.3372  1.5140
  654SOL    HW2 3702   7.993   8.377   8.460  0.4982  0.6215 -1.2633
  655SOL     OW 3703   8.666   9.500   0.983  0.1732 -0.0135 -0.4804
  655SOL    HW1 3704   8.644   9.438   1.053  3.6666 -0.5843  0.3428
  655SOL    HW2 3705   8.622   9.581   1.008  1.2803 -0.1954  2.5237
  656SOL     OW 3706   5.573   4.866   3.654 -0.3111 -0.6029  0.3387
  656SOL    HW1 3707   5.487   4.826   3.669  0.3906 -2.1166  0.4539
  656SOL    HW2 3708   5.635   4.793   3.660  0.9030  0.3104 -0.6630
  657SOL     OW 3709   0.239   0.584   8.589 -0.1220 -0.3587 -0.3135
  657SOL    HW1 3710   0.237   0.658   8.649  1.8991 -1.5621  1.3579
  657SOL    HW2 3711   0.284   0.616   8.512  1.4826 -0.0243  0.7269
  658SOL     OW 3712   2.553   6.371   1.296  0.6071 -0.3373 -0.0758
  658SOL    HW1 3713   2.585   6.461   1.285 -1.0454  0.5277  1.6895
  658SOL    HW2 3714   2.479   6.379   1.355 -0.4021 -2.7407 -0.9041
  659SOL     OW 3715   5.151   2.358   0.255 -0.1980 -0.1183  0.1769
  659SOL    HW1 3716   5.173   2.288   0.193  1.8278 -1.1846  1.9627
  659SOL    HW2 3717   5.087   2.319   0.314 -0.5377  0.1928  0.0179
  660SOL     OW 3718   9.570   8.905   1.062  0.3154 -0.2390 -0.0875
  660SOL    HW1 3719   9.478   8.882   1.071 -0.9859  4.6006  2.4331
  660SOL    HW2 3720   9.610   8.878   1.145  0.4573  0.2281 -0.0009
  661SOL     OW 3721   2.474   8.203   3.503  0.1801 -0.1590 -0.3598
  661SOL    HW1 3722   2.494   8.216   3.410 -0.0357 -0.3636 -0.4362
  661SOL    HW2 3723   2.497   8.112   3.519  0.5360 -0.0282 -0.1285
  662SOL     OW 3724   2.770   3.500   7.544  0.2503 -0.3241  0.3390
  662SOL    HW1 3725   2.805   3.417   7.510 -0.8272 -1.6594  2.2551
  662SOL    HW2 3726   2.710   3.530   7.477  0.6706 -1.0852 -0.4055
  663SOL     OW 3727   9.399   5.445   0.032 -0.2832 -0.0960 -0.1811
  663SOL    HW1 3728   9.369   5.536   0.032 -0.1377  0.0083 -2.5707
  663SOL    HW2 3729   9.474   5.444  -0.027 -0.9032 -1.9216 -1.0249
  664SOL     OW 3730   8.110   6.447   1.712  0.7592 -0.3845 -0.0612
  664SOL    HW1 3731   8.138   6.521   1.659 -1.8152  1.4232  0.8909
  664SOL    HW2 3732   8.047   6.400   1.656 -0.2518  0.2280  0.5222
  665SOL     OW 3733   3.176   5.854   7.973  0.0440 -0.2783  0.2389
  665SOL    HW1 3734   3.108   5.919   7.988 -0.0011  0.0791 -1.3469
  665SOL    HW2 3735   3.230   5.857   8.052  0.1281  1.7928  0.1626
  666SOL     OW 3736   0.113   5.653   9.342  0.0567 -0.3841  0.0468
  666SOL    HW1 3737   0.113   5.670   9.248  1.6961  0.1266  0.0954
  666SOL    HW2 3738   0.046   5.712   9.377  0.4193  0.4763 -0.6554
  667SOL     OW 3739   1.474   2.626   1.273  0.2274  0.4526  0.3062
  667SOL    HW1 3740   1.517   2.553   1.318 -0.0501  1.1007  1.6709
  667SOL    HW2 3741   1.516   2.704   1.308 -1.3633  1.0544  0.9859
  668SOL     OW 3742   6.148   2.130   8.723 -0.2870 -0.2371 -0.5128
  668SOL    HW1 3743   6.168   2.175   8.641  1.4874  0.7185  0.3778
  668SOL    HW2 3744   6.206   2.054   8.724  1.1715  0.8379  0.6990
  669SOL     OW 3745   5.130   5.038   3.062  0.0138 -0.3980 -0.1243
  669SOL    HW1 3746   5.040   5.049   3.032 -0.2592  0.9047  1.0901
  669SOL    HW2 3747   5.129   4.957   3.113 -0.9368  0.6049  1.4978
  670SOL     OW 3748   3.941   8.846   3.056  0.1463 -0.6157  0.5909
  670SOL    HW1 3749   3.888   8.846   2.976  0.9821 -1.3733  0.0154
  670SOL    HW2 3750   3.994   8.767   3.050  1.6570  0.3160  0.9223
  671SOL     OW 3751   6.989   3.146   1.387  0.2527  0.0811 -0.1904
  671SOL    HW1 3752   6.937   3.214   1.344  0.5351  1.1717  1.1261
  671SOL    HW2 3753   7.059   3.125   1.325 -0.0925  0.6881 -0.7854
  672SOL     OW 3754   0.706   3.113   6.361 -0.0087  0.0877 -0.6947
  672SOL    HW1 3755   0.785   3.167   6.355 -0.1131  0.1760 -1.4198
  672SOL    HW2 3756   0.707   3.078   6.450  0.1304  1.1830 -0.2494
  673SOL     OW 3757   3.112   3.438   5.596  0.0874  0.5972  0.6795
  673SOL    HW1 3758   3.102   3.476   5.509  0.3016 -2.5280 -0.8441
  673SOL    HW2 3759   3.183   3.374   5.587 -0.4028 -0.3878  2.9571
  674SOL     OW 3760   9.534   0.207   8.950 -0.0719  0.2061  0.2609
  674SOL    HW1 3761   9.452   0.226   8.996  0.3084  0.9278  0.6728
  674SOL    HW2 3762   9.576   0.293   8.942 -0.2912  0.1587 -1.7772
  675SOL     OW 3763   4.440   3.809   6.236  0.5102  0.1723 -0.0560
  675SOL    HW1 3764   4.519   3.830   6.186  0.7803 -1.4329 -0.3555
  675SOL    HW2 3765   4.464   3.822   6.327  2.1087 -2.9403  0.1137
  676SOL     OW 3766   9.241   4.913   6.960  0.5440 -0.2119 -0.2723
  676SOL    HW1 3767   9.183   4.951   7.027 -0.5832 -1.3791 -0.5462
  676SOL    HW2 3768   9.237   4.819   6.977  1.8785 -0.3558 -0.7137
  677SOL     OW 3769   7.156   5.985   4.833  0.8430 -0.1531  0.1036
  677SOL    HW1 3770   7.075   6.028   4.859  0.0463 -0.2065 -2.1125
  677SOL    HW2 3771   7.149   5.897   4.870 -0.3817 -0.3373 -0.5301
  678SOL     OW 3772   8.111   5.417   5.729  0.3978 -0.4157  0.3656
  678SOL    HW1 3773   8.031   5.469   5.722  0.6908  0.2786  1.7852
  678SOL    HW2 3774   8.080   5.326   5.732 -0.0909 -0.4554 -2.5890
  679SOL     OW 3775   3.747   0.270   0.936 -0.1894 -0.1722  0.5457
  679SOL    HW1 3776   3.724   0.335   1.003  0.4652 -0.1734  0.7797
  679SOL    HW2 3777   3.716   0.187   0.972 -0.3654 -0.0930  0.5800
  680SOL     OW 3778   0.416   9.087   2.491 -0.3323  0.2815 -0.3767
  680SOL    HW1 3779   0.328   9.090   2.529 -0.8845  0.9077 -1.6361
  680SOL    HW2 3780   0.455   9.172   2.513  0.0122 -0.0315  0.2619
  681SOL     OW 3781   0.410   0.034   1.855 -0.1182  0.2150  0.1764
  681SOL    HW1 3782   0.457   0.068   1.779  2.5612 -1.7759  0.7896
  681SOL    HW2 3783   0.432   0.094   1.926 -1.7789  1.4866 -0.3302
  682SOL     OW 3784   1.890   6.514   3.614 -0.7086 -0.0609 -0.0544
  682SOL    HW1 3785   1.904   6.598   3.570 -0.7834  0.1156  0.2594
  682SOL    HW2 3786   1.945   6.517   3.692 -0.6058 -0.3609 -0.1126
  683SOL     OW 3787   3.338   7.202   6.481  0.5837 -0.4036  0.1222
  683SOL    HW1 3788   3.276   7.262   6.521 -1.1528 -1.3295 -1.0573
  683SOL    HW2 3789   3.288   7.122   6.465  2.0048 -1.1079 -1.1293
  684SOL     OW 3790   2.521   0.972   0.176 -0.6024  0.5455  0.2259
  684SOL    HW1 3791   2.427   0.986   0.189 -0.7327 -1.0803  1.4681
  684SOL    HW2 3792   2.563   1.045   0.221 -1.2572  1.2766 -0.3264
  685SOL     OW 3793   1.770   1.557   4.008 -0.4697 -0.1448 -0.0890
  685SOL    HW1 3794   1.776   1.462   4.000  0.0057 -0.2148  1.0492
  685SOL    HW2 3795   1.822   1.590   3.935 -0.9721 -0.7439 -0.7397
  686SOL     OW 3796   0.810   9.013   6.024  0.0854 -0.4279 -0.0053
  686SOL    HW1 3797   0.772   9.046   6.106 -2.4384 -0.3490 -1.1009
  686SOL    HW2 3798   0.772   8.926   6.013  0.0398 -0.2652 -1.2866
  687SOL     OW 3799   0.731   0.831   1.268  0.1851 -0.2636 -0.4536
  687SOL    HW1 3800   0.819   0.867   1.264  0.6191 -1.3725 -2.2465
  687SOL    HW2 3801   0.740   0.752   1.322 -0.4223  1.2514  2.0350
  688SOL     OW 3802   1.142   3.100   5.773  0.2678  0.9057  0.2548
  688SOL    HW1 3803   1.210   3.032   5.770 -0.2877  0.3859 -1.6224
  688SOL    HW2 3804   1.190   3.182   5.758  0.6006  0.6450 -0.1321
  689SOL     OW 3805   4.885   4.086   8.690 -0.2625 -0.2124 -0.1557
  689SOL    HW1 3806   4.892   4.110   8.598  1.8095 -2.3517 -0.6472
  689SOL    HW2 3807   4.836   4.158   8.730  0.8840  2.0051 -2.4566
  690SOL     OW 3808   1.437   0.418   6.158  0.5940 -0.2675 -0.0358
  690SOL    HW1 3809   1.440   0.513   6.169  0.7128 -0.1842 -0.7789
  690SOL    HW2 3810   1.411   0.405   6.067  1.4605 -0.9418 -0.2005
  691SOL     OW 3811   1.530   4.070   5.129 -0.6063  0.1698  0.1757
  691SOL    HW1 3812   1.457   4.127   5.153 -1.9383 -0.1683 -2.5908
  691SOL    HW2 3813   1.487   3.993   5.090  1.1317 -2.5822  3.2720
  692SOL     OW 3814   8.616   6.968   6.487  0.5680 -0.1048  0.2116
  692SOL    HW1 3815   8.625   7.046   6.433  1.8343 -0.5507 -0.2661
  692SOL    HW2 3816   8.633   6.997   6.576 -1.1226  0.5565  0.3577
  693SOL     OW 3817   2.261   7.811   2.205 -0.3893  0.0654  0.5250
  693SOL    HW1 3818   2.323   7.803   2.277  1.5526  1.3000 -0.9146
  693SOL    HW2 3819   2.210   7.890   2.225  0.3910  0.6108  0.3911
  694SOL     OW 3820   4.563   1.269   4.894  0.1464 -0.4996  0.2626
  694SOL    HW1 3821   4.646   1.252   4.849  0.9083 -1.9034  2.1017
  694SOL    HW2 3822   4.508   1.195   4.869  0.3482 -0.9358  1.0954
  695SOL     OW 3823   7.634   3.264   2.804  0.5459 -0.0209  0.1083
  695SOL    HW1 3824   7.613   3.184   2.757  0.2618  1.0572 -1.7255
  695SOL    HW2 3825   7.663   3.235   2.890  0.6744 -2.0853 -0.5786
  696SOL     OW 3826   7.485   9.478   5.862  0.1370 -0.2294 -0.1088
  696SOL    HW1 3827   7.520   9.389   5.864 -0.2250 -0.3650  0.4382
  696SOL    HW2 3828   7.438   9.484   5.779 -0.1033 -0.6512 -0.0043
  697SOL     OW 3829   1.746   6.417   2.637 -0.0819  0.1897  0.3558
  697SOL    HW1 3830   1.658   6.385   2.620 -0.2865  0.6117  0.6243
  697SOL    HW2 3831   1.803   6.356   2.589 -0.5312  0.0992 -0.0693
  698SOL     OW 3832   3.114   6.282   4.495  0.0236  0.2153 -0.2482
  698SOL    HW1 3833   3.074   6.344   4.435 -2.6852 -1.9215 -0.8907
  698SOL    HW2 3834   3.066   6.294   4.577 -0.6761 -1.0699 -0.4389
  699SOL     OW 3835   4.066   5.717   6.405 -0.4518 -0.0909  0.5395
  699SOL    HW1 3836   3.993   5.777   6.416 -2.3217 -2.1713  0.1667
  699SOL    HW2 3837   4.082   5.682   6.492  1.2999  1.5593  0.9534
  700SOL     OW 3838   6.335   0.418   9.345  0.2001 -0.8553  0.7668
  700SOL    HW1 3839   6.311   0.453   9.259  0.4638 -0.0140  1.0313
  700SOL    HW2 3840   6.264   0.446   9.403  0.2137 -1.0999  0.9039
  701SOL     OW 3841   3.321   8.960   1.172  0.3452  0.1761  0.4520
  701SOL    HW1 3842   3.286   9.043   1.140 -1.2141 -1.2219 -1.8008
  701SOL    HW2 3843   3.401   8.946   1.121 -1.1146 -1.1234 -1.6980
  702SOL     OW 3844   7.187   1.725   2.907  0.1377 -0.0267 -0.1686
  702SOL    HW1 3845   7.171   1.814   2.876  0.1308 -0.4269 -1.3252
  702SOL    HW2 3846   7.270   1.731   2.955  1.0887  0.2439 -1.8052
  703SOL     OW 3847   5.436   5.856   2.798 -0.3322  0.4571 -0.3925
  703SOL    HW1 3848   5.467   5.947   2.800 -0.9897  0.6968 -0.9695
  703SOL    HW2 3849   5.510   5.807   2.763 -0.9641  1.2117 -3.0424
  704SOL     OW 3850   2.784   5.740   0.367  0.5356  0.1870  0.1161
  704SOL    HW1 3851   2.744   5.824   0.347  0.8445  0.0951 -0.9420
  704SOL    HW2 3852   2.733   5.676   0.316 -0.6419 -0.4888  2.0203
  705SOL     OW 3853   7.056   9.600   1.947  0.3485  0.1122 -0.3858
  705SOL    HW1 3854   6.962   9.592   1.931 -0.3763 -1.6362  3.5784
  705SOL    HW2 3855   7.073   9.694   1.940 -1.8696  0.5707 -0.4157
  706SOL     OW 3856   5.720   5.578   7.198  0.2466 -0.4323  0.0859
  706SOL    HW1 3857   5.715   5.514   7.269  2.0098 -1.0108 -0.2631
  706SOL    HW2 3858   5.699   5.529   7.119 -2.2742  0.3350  0.2027
  707SOL     OW 3859   9.404   7.643   7.510 -0.4588 -0.0725 -0.0529
  707SOL    HW1 3860   9.448   7.706   7.568 -2.0732  0.8870  0.1866
  707SOL    HW2 3861   9.466   7.628   7.439  0.4446  0.8716  0.5141
  708SOL     OW 3862   5.382   3.300   9.004  0.0823 -0.3186 -0.1581
  708SOL    HW1 3863   5.357   3.386   9.038  0.9500  0.4387 -1.3362
  708SOL    HW2 3864   5.374   3.241   9.079 -1.0904  0.6637  0.5365
  709SOL     OW 3865   5.258   4.810   2.846 -0.0100 -0.2433  0.6718
  709SOL    HW1 3866   5.214   4.862   2.779  0.3119 -1.7194 -0.7231
  709SOL    HW2 3867   5.348   4.842   2.847  0.2173 -0.8407 -0.2642
  710SOL     OW 3868   0.607   8.188   7.963  0.5145 -0.2303 -0.3097
  710SOL    HW1 3869   0.678   8.240   7.926 -0.4886  0.6028 -1.1177
  710SOL    HW2 3870   0.643   8.152   8.044  1.6992  0.5449 -0.4777
  711SOL     OW 3871   2.152   3.949   0.164  0.2450 -0.5767 -0.2069
  711SOL    HW1 3872   2.089   4.000   0.216  1.1142  0.7816 -0.4296
  711SOL    HW2 3873   2.221   3.926   0.227  1.3208  1.1087 -0.7209
  712SOL     OW 3874   2.836   3.564   6.291 -0.5338 -0.5686  0.0451
  712SOL    HW1 3875   2.744   3.576   6.314 -0.2152  1.6490  0.4615
  712SOL    HW2 3876   2.882   3.631   6.342  0.9374  0.3736 -2.3263
  713SOL     OW 3877   6.340   1.055   0.006 -0.3395  0.5365 -0.4711
  713SOL    HW1 3878   6.331   1.002   0.085 -2.7754  2.1848  0.4566
  713SOL    HW2 3879   6.276   1.017  -0.055  2.0452 -1.2189 -2.0812
  714SOL     OW 3880   8.363   4.937   6.755 -0.1864  0.3967  0.4659
  714SOL    HW1 3881   8.389   4.846   6.759  0.7326  0.5505 -1.0607
  714SOL    HW2 3882   8.307   4.943   6.677 -2.2990  0.6950  1.9155
  715SOL     OW 3883   0.745   7.381   7.395  0.1677 -0.3729  0.3795
  715SOL    HW1 3884   0.769   7.326   7.469 -0.3243 -1.1491 -0.0284
  715SOL    HW2 3885   0.729   7.320   7.324  2.1330  0.4127 -0.8286
  716SOL     OW 3886   9.499   1.969   3.908 -0.5290  0.2291 -0.1767
  716SOL    HW1 3887   9.472   1.955   3.999  0.4475  0.8949  0.2390
  716SOL    HW2 3888   9.417   1.972   3.858 -1.0091 -1.6350  0.4399
  717SOL     OW 3889   4.364   1.708   4.475 -0.6906 -0.2837 -0.4694
  717SOL    HW1 3890   4.288   1.751   4.514  0.4403  1.8813 -0.5203
  717SOL    HW2 3891   4.410   1.669   4.549 -0.9644 -0.1721 -0.2390
  718SOL     OW 3892   1.142   0.822   9.130  0.5073  0.3607  0.7185
  718SOL    HW1 3893   1.052   0.788   9.128  0.8716 -0.6102  0.0302
  718SOL    HW2 3894   1.135   0.907   9.174 -0.9174  0.8129 -0.3103
  719SOL     OW 3895   7.897   8.053   8.931  0.0207 -0.2966  0.4276
  719SOL    HW1 3896   7.928   8.027   9.017  0.6347 -2.0007 -0.2736
  719SOL    HW2 3897   7.967   8.026   8.871 -1.7788 -2.1949 -0.9508
  720SOL     OW 3898   4.079   3.555   2.057 -0.2230 -0.7548  0.3398
  720SOL    HW1 3899   4.137   3.479   2.054 -0.7912 -1.1728 -0.1571
  720SOL    HW2 3900   4.095   3.600   1.974 -1.5818 -1.6130 -0.4260
  721SOL     OW 3901   1.559   9.113   5.446  0.6326 -0.8671  0.0083
  721SOL    HW1 3902   1.584   9.084   5.358 -0.4826  1.5990 -1.2326
  721SOL    HW2 3903   1.463   9.112   5.445  0.6064 -0.6319  1.1506
  722SOL     OW 3904   7.738   0.542   4.009  0.7166  0.6916 -0.0573
  722SOL    HW1 3905   7.736   0.603   3.935 -0.8636  0.4010 -0.2827
  722SOL    HW2 3906   7.669   0.572   4.068  1.0648  0.1258  0.6603
  723SOL     OW 3907   0.701   8.196   2.959  0.1140  0.0155  0.3297
  723SOL    HW1 3908   0.656   8.220   2.878 -0.4318  0.2546  0.6978
  723SOL    HW2 3909   0.731   8.280   2.995  1.4310 -0.1918 -0.2332
  724SOL     OW 3910   5.268   5.196   5.976  0.3587  0.2807  0.0132
  724SOL    HW1 3911   5.213   5.230   5.905 -2.9802 -1.0999  1.7087
  724SOL    HW2 3912   5.296   5.110   5.945 -0.8723 -0.2083  0.1740
  725SOL     OW 3913   2.140   0.329   7.083 -0.6708 -0.7393 -0.6049
  725SOL    HW1 3914   2.201   0.403   7.077 -2.5040  0.7932 -1.4532
  725SOL    HW2 3915   2.062   0.365   7.125 -1.2368 -2.4958 -0.0642
  726SOL     OW 3916   0.216   5.757   2.653  0.1354  0.3461  0.2795
  726SOL    HW1 3917   0.289   5.708   2.690 -0.6395 -0.8922  0.2070
  726SOL    HW2 3918   0.156   5.770   2.727 -1.4263 -2.1516 -0.4167
  727SOL     OW 3919   5.485   1.192   5.209  0.1742  0.0671  0.3067
  727SOL    HW1 3920   5.532   1.271   5.233  1.0046 -0.4378  0.3809
  727SOL    HW2 3921   5.467   1.201   5.115 -1.2153  1.0824  0.6319
  728SOL     OW 3922   9.237   3.952   0.588  0.4695 -0.5612  0.1024
  728SOL    HW1 3923   9.169   3.894   0.554  0.7112 -1.1860  0.6668
  728SOL    HW2 3924   9.319   3.911   0.563  0.6667 -1.4083  1.9883
  729SOL     OW 3925   9.138   6.565   8.389  0.3358  0.3371 -0.0806
  729SOL    HW1 3926   9.072   6.632   8.371  0.7523  0.8015  0.1007
  729SOL    HW2 3927   9.088   6.485   8.401 -0.2425  0.7869  0.5874
  730SOL     OW 3928   8.230   1.141   7.117  0.1023  0.9850  0.3322
  730SOL    HW1 3929   8.325   1.150   7.120  0.2785  0.2487 -1.8892
  730SOL    HW2 3930   8.214   1.068   7.057 -1.8855  1.3033  0.4068
  731SOL     OW 3931   0.354   6.270   8.345  0.0354 -0.0789  0.2528
  731SOL    HW1 3932   0.373   6.333   8.414 -0.4403  0.5935 -0.2287
  731SOL    HW2 3933   0.264   6.242   8.362 -0.0550  0.0288 -0.0569
  732SOL     OW 3934   4.830   0.056   7.845  0.0282  0.0211 -0.0517
  732SOL    HW1 3935   4.861   0.146   7.848 -0.5228  0.1984  0.7740
  732SOL    HW2 3936   4.759   0.053   7.909 -1.3815 -0.4786 -1.5724
  733SOL     OW 3937   4.986   4.526   7.075  0.4703  0.3632  0.0900
  733SOL    HW1 3938   4.930   4.450   7.058  1.0679 -0.1740  0.4917
  733SOL    HW2 3939   4.925   4.592   7.109  0.1311 -0.3482  0.9003
  734SOL     OW 3940   9.251   0.033   5.081 -0.1393  0.8933  0.0289
  734SOL    HW1 3941   9.181   0.036   5.146  2.1564  3.2696  2.6387
  734SOL    HW2 3942   9.220   0.087   5.009 -1.2175  1.4034  0.8546
  735SOL     OW 3943   2.749   1.774   9.078  0.2837 -0.1689  0.7626
  735SOL    HW1 3944   2.768   1.694   9.029  0.1745 -0.4254  1.1290
  735SOL    HW2 3945   2.835   1.813   9.094  0.2434  0.5666 -0.6820
  736SOL     OW 3946   5.524   2.159   2.036 -0.4425  0.2421  0.3624
  736SOL    HW1 3947   5.573   2.210   1.971 -2.2939  0.5954 -0.8149
  736SOL    HW2 3948   5.437   2.197   2.036 -0.4392  0.4090  3.3093
  737SOL     OW 3949   7.226   5.221   6.607  0.0634  0.3862  0.6751
  737SOL    HW1 3950   7.231   5.127   6.627  0.8464  0.2334 -0.1593
  737SOL    HW2 3951   7.133   5.238   6.597 -0.0115 -0.7296 -1.0194
  738SOL     OW 3952   2.654   7.848   7.882  0.0057  0.1761 -0.5525
  738SOL    HW1 3953   2.665   7.763   7.840 -0.7498  0.3419 -1.1138
  738SOL    HW2 3954   2.736   7.863   7.929  1.1653  0.2596 -2.4942
  739SOL     OW 3955   0.736   2.344   6.031  0.4631 -0.1405  0.3846
  739SOL    HW1 3956   0.771   2.381   5.951 -0.6481 -0.1346 -0.1227
  739SOL    HW2 3957   0.789   2.381   6.101  2.4915 -1.3506 -0.4153
  740SOL     OW 3958   5.321   4.534   8.486 -0.1820 -0.4905 -0.3283
  740SOL    HW1 3959   5.298   4.483   8.407 -0.9053 -1.7317  0.6415
  740SOL    HW2 3960   5.246   4.592   8.499  1.7372  2.9521 -2.9607
  741SOL     OW 3961   9.313   0.802   8.927 -0.1192 -0.1020  0.1085
  741SOL    HW1 3962   9.263   0.841   8.856 -0.8390 -0.4296  0.4202
  741SOL    HW2 3963   9.263   0.823   9.006  0.2540 -0.4073  0.4314
  742SOL     OW 3964   0.079   4.306   9.334 -0.1864 -0.1656 -0.0502
  742SOL    HW1 3965   0.006   4.319   9.273  0.6428  0.2871 -0.9525
  742SOL    HW2 3966   0.142   4.373   9.312  1.2532 -1.5817 -0.3837
  743SOL     OW 3967   1.613   5.503   0.004 -0.6063 -0.6843 -0.1584
  743SOL    HW1 3968   1.656   5.557   0.070  0.0460 -0.8954 -0.4000
  743SOL    HW2 3969   1.557   5.563  -0.044  2.3372  0.5087 -2.4347
  744SOL     OW 3970   0.491   5.266   7.194 -0.4857  0.2955  0.7960
  744SOL    HW1 3971   0.580   5.294   7.218  0.0811 -0.3454 -0.4400
  744SOL    HW2 3972   0.491   5.266   7.098 -2.1811  1.3573  0.7539
  745SOL     OW 3973   6.347   0.539   5.602  0.3451 -0.1420  0.5255
  745SOL    HW1 3974   6.255   0.514   5.598  0.2894 -0.0140  0.9438
  745SOL    HW2 3975   6.395   0.455   5.599  0.2820 -0.1505 -1.1705
  746SOL     OW 3976   4.585   0.211   5.263 -0.6010  0.4462  0.0804
  746SOL    HW1 3977   4.489   0.218   5.272 -0.6277 -0.0431  0.1812
  746SOL    HW2 3978   4.607   0.128   5.305 -0.2815 -0.1041 -1.1540
  747SOL     OW 3979   5.084   7.550   6.191 -0.3093  0.2821 -0.0537
  747SOL    HW1 3980   4.990   7.567   6.181 -0.2694  0.3525 -0.3384
  747SOL    HW2 3981   5.115   7.535   6.101  0.4247  2.8135 -0.3224
  748SOL     OW 3982   4.353   5.450   9.035 -0.4031 -0.4713  0.1291
  748SOL    HW1 3983   4.329   5.418   9.121 -0.3492  0.5920  0.5539
  748SOL    HW2 3984   4.412   5.523   9.052  0.5495 -0.9919 -0.8384
  749SOL     OW 3985   1.613   5.609   3.775  0.4356  0.4777 -0.0357
  749SOL    HW1 3986   1.670   5.637   3.846 -0.5300  2.5387 -0.0020
  749SOL    HW2 3987   1.630   5.671   3.704 -0.4755  0.0291 -0.6728
  750SOL     OW 3988   3.446   4.651   1.976 -0.1979 -0.4246  0.7182
  750SOL    HW1 3989   3.422   4.605   1.895 -0.1157 -0.0057  0.4540
  750SOL    HW2 3990   3.362   4.670   2.018 -0.2014 -1.7470  1.3605
  751SOL     OW 3991   1.093   3.180   4.279  0.1388 -0.0564 -0.6978
  751SOL    HW1 3992   1.031   3.229   4.334  0.0557  0.1988 -1.0202
  751SOL    HW2 3993   1.170   3.169   4.334  0.2561  0.6625 -0.7159
  752SOL     OW 3994   3.524   6.330   1.451  0.1882 -0.5322  0.6387
  752SOL    HW1 3995   3.585   6.394   1.413  0.4243  0.0801  1.9726
  752SOL    HW2 3996   3.441   6.376   1.454  0.1282 -0.6443  0.6920
  753SOL     OW 3997   6.204   8.092   7.947  0.6129 -0.2550  0.1782
  753SOL    HW1 3998   6.183   8.166   7.889 -1.6348 -0.5837  0.4573
  753SOL    HW2 3999   6.146   8.022   7.918  0.9309 -1.0972  1.4835
  754SOL     OW 4000   1.846   7.251   1.576  0.1729 -0.4837  0.4556
  754SOL    HW1 4001   1.874   7.159   1.579  0.1314 -0.4923  0.5616
  754SOL    HW2 4002   1.757   7.250   1.611 -0.1658 -0.5390 -0.3758
  755SOL     OW 4003   2.759   6.479   2.907  0.0975  0.0263  0.0326
  755SOL    HW1 4004   2.666   6.498   2.907  0.2925  1.1055  1.1305
  755SOL    HW2 4005   2.766   6.390   2.943 -0.5301 -0.2419 -0.5022
  756SOL     OW 4006   7.589   1.562   8.809  0.2149 -0.5282 -0.1276
  756SOL    HW1 4007   7.553   1.567   8.721  0.1667 -0.0309 -0.0860
  756SOL    HW2 4008   7.519   1.525   8.862 -0.9380  2.0034  0.2916
  757SOL     OW 4009   9.198   0.363   5.552  0.3808 -0.2752  0.1673
  757SOL    HW1 4010   9.254   0.333   5.480  1.2636  0.8104  0.3815
  757SOL    HW2 4011   9.255   0.364   5.628 -0.2651 -0.3544  0.6615
  758SOL     OW 4012   2.918   7.979   5.104 -0.0694 -0.0388  0.2236
  758SOL    HW1 4013   2.926   7.982   5.200  0.9138  0.5344  0.1300
  758SOL    HW2 4014   2.934   7.888   5.082  0.9064  0.0494  0.5145
  759SOL     OW 4015   8.877   3.520   1.427  0.1230  0.0548  0.0264
  759SOL    HW1 4016   8.970   3.534   1.408 -0.3228  4.3099  0.1356
  759SOL    HW2 4017   8.875   3.499   1.520  0.9695 -0.1926 -0.0041
  760SOL     OW 4018   8.529   6.411   6.977 -0.3935  0.7125 -0.1496
  760SOL    HW1 4019   8.503   6.345   7.041  1.1829  1.1548  1.0038
  760SOL    HW2 4020   8.563   6.361   6.903  0.7489  0.1987  0.6962
  761SOL     OW 4021   8.419   9.293   1.188  0.1471 -0.2767 -0.0632
  761SOL    HW1 4022   8.506   9.321   1.159  0.2625 -1.0450 -0.5052
  761SOL    HW2 4023   8.389   9.362   1.246 -0.0095  1.2331 -1.8592
  762SOL     OW 4024   6.135   5.149   3.135 -0.0269  0.2983 -0.3423
  762SOL    HW1 4025   6.102   5.210   3.070 -1.0737 -1.3578 -1.4629
  762SOL    HW2 4026   6.087   5.170   3.215 -1.2065  0.2187 -1.0126
  763SOL     OW 4027   2.867   7.783   5.433  0.3413 -0.3619  0.3069
  763SOL    HW1 4028   2.907   7.868   5.449  0.0047  0.1140 -1.2630
  763SOL    HW2 4029   2.940   7.726   5.410  0.5167 -0.4111  0.9539
  764SOL     OW 4030   1.133   5.427   3.951 -0.2821  0.2137  0.2128
  764SOL    HW1 4031   1.165   5.339   3.971 -0.0677  0.4422  0.9038
  764SOL    HW2 4032   1.038   5.418   3.948 -0.2039 -0.5930 -2.4323
  765SOL     OW 4033   6.843   4.811   1.079  0.4922  0.2135 -0.0489
  765SOL    HW1 4034   6.795   4.871   1.023  1.0654  1.5357  0.8179
  765SOL    HW2 4035   6.935   4.830   1.062  0.6823  1.1503  1.8164
  766SOL     OW 4036   0.940   7.118   0.277 -0.0726 -0.1422 -0.0110
  766SOL    HW1 4037   0.929   7.024   0.292  0.1423 -0.4770 -1.7496
  766SOL    HW2 4038   0.886   7.159   0.345 -2.1339 -1.5728 -0.6837
  767SOL     OW 4039   1.656   5.006   8.218  0.2804  0.2711  0.1682
  767SOL    HW1 4040   1.646   4.953   8.296  2.1978  0.1403  0.3899
  767SOL    HW2 4041   1.574   5.054   8.209 -0.5475 -0.8976  1.3494
  768SOL     OW 4042   1.292   7.203   5.810 -0.4252  0.8581 -0.1456
  768SOL    HW1 4043   1.265   7.175   5.723  0.5692 -1.3897  0.1903
  768SOL    HW2 4044   1.353   7.134   5.840 -1.2452  1.1774  2.5743
  769SOL     OW 4045   8.203   0.009   5.808 -0.2862  0.5963 -0.4092
  769SOL    HW1 4046   8.185   0.089   5.759 -1.1766 -0.6534 -2.2394
  769SOL    HW2 4047   8.163   0.023   5.894  0.8027  2.6278 -0.1973
  770SOL     OW 4048   6.442   7.109   7.719  0.0188 -0.3534  0.3373
  770SOL    HW1 4049   6.536   7.094   7.726  0.3390  1.0375 -0.5232
  770SOL    HW2 4050   6.412   7.115   7.810  0.3928 -2.6599  0.6719
  771SOL     OW 4051   8.276   5.179   7.537  0.7441  0.3269  0.1204
  771SOL    HW1 4052   8.259   5.133   7.455  1.0123  0.9156 -0.2713
  771SOL    HW2 4053   8.333   5.252   7.513 -0.8977  1.8027  0.4345
  772SOL     OW 4054   8.930   1.523   5.919 -0.2038 -0.1796  0.6972
  772SOL    HW1 4055   8.870   1.551   5.849  0.8668  0.3271 -0.0521
  772SOL    HW2 4056   8.874   1.512   5.996 -1.2494  0.3157  0.0308
  773SOL     OW 4057   0.507   2.123   4.343 -0.0660  0.0521 -0.8272
  773SOL    HW1 4058   0.564   2.060   4.298 -0.3204 -0.6533 -0.1912
  773SOL    HW2 4059   0.419   2.105   4.308 -0.1730 -0.1072 -0.4852
  774SOL     OW 4060   1.940   1.540   3.033  0.1314  0.2607 -0.2683
  774SOL    HW1 4061   1.996   1.462   3.036  1.5151  1.1479 -1.2308
  774SOL    HW2 4062   1.913   1.546   2.942 -0.3288  0.6540 -0.1076
  775SOL     OW 4063   4.323   9.550   1.405 -0.1768  0.1032  0.8365
  775SOL    HW1 4064   4.409   9.592   1.415  0.2855  0.2695 -2.4718
  775SOL    HW2 4065   4.267   9.619   1.371 -0.6157 -0.8206 -0.4067
  776SOL     OW 4066   7.761   7.078   1.162 -0.1164  0.4035 -0.2028
  776SOL    HW1 4067   7.725   7.137   1.096 -1.4760  0.7602  0.8270
  776SOL    HW2 4068   7.742   6.990   1.129 -2.8412  0.5583  0.7159
  777SOL     OW 4069   8.030   7.205   6.088 -0.1491  0.5958 -0.3381
  777SOL    HW1 4070   8.098   7.138   6.078 -0.2336  0.3147  0.9095
  777SOL    HW2 4071   7.950   7.162   6.059 -0.3732 -0.1843  1.3459
  778SOL     OW 4072   3.898   1.341   2.362  0.4130  0.0989  0.4076
  778SOL    HW1 4073   3.874   1.249   2.363 -1.9796  0.6202 -1.1662
  778SOL    HW2 4074   3.956   1.350   2.286  0.9638 -0.1432  0.7899
  779SOL     OW 4075   4.403   2.851   7.099 -0.0898  0.1066 -0.3206
  779SOL    HW1 4076   4.307   2.851   7.090 -0.1154  0.8662 -0.1179
  779SOL    HW2 4077   4.434   2.827   7.012 -0.4607  0.7668 -0.6516
  780SOL     OW 4078   9.103   2.464   9.064 -0.4582 -0.3589 -0.2714
  780SOL    HW1 4079   9.189   2.452   9.105  0.2852 -1.2447 -2.0153
  780SOL    HW2 4080   9.050   2.505   9.133  1.1381 -0.4456  1.0808
  781SOL     OW 4081   7.475   7.839   1.649 -0.4966  0.0153  0.1186
  781SOL    HW1 4082   7.430   7.897   1.710 -1.7962 -1.3006  0.4710
  781SOL    HW2 4083   7.500   7.896   1.576  0.2959  1.4360  1.4358
  782SOL     OW 4084   2.501   1.410   5.614 -0.2512  0.6774 -0.7018
  782SOL    HW1 4085   2.430   1.429   5.676  2.7315  0.3165  3.2559
  782SOL    HW2 4086   2.563   1.481   5.627  1.7170 -0.8520 -1.1814
  783SOL     OW 4087   4.473   8.627   1.120 -0.1798  0.6033 -0.1053
  783SOL    HW1 4088   4.389   8.670   1.136 -0.3624  1.0737 -2.0835
  783SOL    HW2 4089   4.452   8.553   1.063  0.6807  0.3647 -0.1288
  784SOL     OW 4090   4.320   1.341   3.733 -0.5688 -0.1994  0.0491
  784SOL    HW1 4091   4.376   1.377   3.664 -0.7926  1.8318  0.8686
  784SOL    HW2 4092   4.381   1.319   3.803 -0.5790  0.1121  0.1592
  785SOL     OW 4093   1.714   1.821   2.095  0.3245 -0.3283  0.3914
  785SOL    HW1 4094   1.711   1.764   2.172 -0.3413  0.1896  0.7670
  785SOL    HW2 4095   1.713   1.762   2.020 -1.3143 -0.8072  0.7576
  786SOL     OW 4096   7.561   3.914   0.629  0.0542  0.5009 -0.0486
  786SOL    HW1 4097   7.544   3.972   0.555 -0.6261  2.3209  1.4704
  786SOL    HW2 4098   7.480   3.864   0.640  0.5242 -0.5566 -1.1452
  787SOL     OW 4099   3.831   6.768   1.306 -0.5777 -0.0024  0.0438
  787SOL    HW1 4100   3.815   6.817   1.386 -1.1899 -0.3371  0.1381
  787SOL    HW2 4101   3.922   6.786   1.283 -0.2734 -0.2332  1.0442
  788SOL     OW 4102   2.985   2.244   8.689 -0.6243 -0.7545  0.4155
  788SOL    HW1 4103   2.896   2.276   8.703 -0.4069 -0.8924  2.4503
  788SOL    HW2 4104   3.042   2.314   8.721 -0.0952 -1.7750  1.8483
  789SOL     OW 4105   2.097   6.414   7.892  0.3678  0.1008  0.5899
  789SOL    HW1 4106   2.111   6.493   7.840 -1.4950  1.6967  2.3498
  789SOL    HW2 4107   2.046   6.357   7.834  0.2441  0.9136 -0.1272
  790SOL     OW 4108   5.317   5.539   6.075 -0.0310  0.1873 -0.7121
  790SOL    HW1 4109   5.238   5.486   6.068  0.1424 -0.1982  0.1259
  790SOL    HW2 4110   5.351   5.520   6.162 -0.1675  1.9694 -0.2221
  791SOL     OW 4111   7.725   1.205   2.840  0.4438 -0.7659 -0.2766
  791SOL    HW1 4112   7.675   1.162   2.771 -1.6506  3.5771 -1.8263
  791SOL    HW2 4113   7.780   1.269   2.794  2.7382 -1.0258  1.8721
  792SOL     OW 4114   1.203   3.447   8.301 -0.3024 -0.4714 -0.2295
  792SOL    HW1 4115   1.129   3.463   8.359  0.2046 -1.5031  0.7478
  792SOL    HW2 4116   1.276   3.428   8.360  0.6755  0.1687 -1.1723
  793SOL     OW 4117   9.228   1.981   1.134  0.2610  0.5559 -0.0929
  793SOL    HW1 4118   9.237   1.898   1.182 -1.9983 -0.0229 -0.5510
  793SOL    HW2 4119   9.296   2.037   1.172  0.6760 -0.9122  1.5081
  794SOL     OW 4120   9.475   8.416   2.925 -0.0835 -0.2290 -0.3865
  794SOL    HW1 4121   9.514   8.434   3.010  0.1569 -0.6168 -0.4107
  794SOL    HW2 4122   9.550   8.404   2.866 -0.2379 -0.5554 -0.5239
  795SOL     OW 4123   5.146   6.893   4.568  0.9873 -0.6636 -0.1311
  795SOL    HW1 4124   5.179   6.863   4.653  2.0293  0.7763  0.0025
  795SOL    HW2 4125   5.133   6.987   4.580  0.3670 -0.5801 -1.3403
  796SOL     OW 4126   5.032   6.880   8.256  0.3268  0.2253 -0.0938
  796SOL    HW1 4127   5.002   6.938   8.326  1.5427 -0.3392  0.9400
  796SOL    HW2 4128   5.060   6.800   8.301  3.1180  0.6056 -0.9173
  797SOL     OW 4129   0.415   7.367   7.474 -0.2115  0.4446 -0.9821
  797SOL    HW1 4130   0.428   7.429   7.402 -1.1710  1.1851 -0.5290
  797SOL    HW2 4131   0.472   7.399   7.544 -1.5442  1.5031 -0.3430
  798SOL     OW 4132   2.003   5.226   9.245 -0.2986 -0.0815 -0.6187
  798SOL    HW1 4133   2.043   5.308   9.273  1.2046 -0.3059 -1.9563
  798SOL    HW2 4134   1.968   5.187   9.325  4.3688 -1.0618  1.2241
  799SOL     OW 4135   2.369   3.289   8.366 -0.1360 -0.1088  0.0785
  799SOL    HW1 4136   2.312   3.269   8.292  1.6547  1.2601 -1.7955
  799SOL    HW2 4137   2.419   3.209   8.380  0.0289 -0.1482 -0.6985
  800SOL     OW 4138   7.290   3.390   0.173 -0.2376  0.1312 -0.2686
  800SOL    HW1 4139   7.335   3.336   0.238  0.7339 -0.6291 -1.5224
  800SOL    HW2 4140   7.202   3.401   0.208  0.8479  1.6278  2.2440
  801SOL     OW 4141   3.392   7.239   6.123 -0.0221  0.1835  0.5826
  801SOL    HW1 4142   3.298   7.228   6.114  0.1864 -0.9223 -0.6073
  801SOL    HW2 4143   3.419   7.166   6.180  0.0538  0.8294  1.3888
  802SOL     OW 4144   0.766   3.217   4.671  0.3051  0.3756  0.4838
  802SOL    HW1 4145   0.835   3.225   4.738  0.2770 -1.0850  0.7264
  802SOL    HW2 4146   0.684   3.224   4.720  0.2849 -0.6177  0.6114
  803SOL     OW 4147   7.431   8.422   2.127 -0.0497  0.7220 -0.5266
  803SOL    HW1 4148   7.387   8.418   2.042  0.7937 -0.0659 -0.9440
  803SOL    HW2 4149   7.414   8.336   2.166  0.1282  0.8446 -0.1824
  804SOL     OW 4150   8.514   4.915   9.299  0.7433 -0.0156  0.0190
  804SOL    HW1 4151   8.604   4.918   9.268  0.3486 -0.7080 -1.2639
  804SOL    HW2 4152   8.504   4.827   9.335 -0.3456 -1.2778 -3.0055
  805SOL     OW 4153   2.608   6.567   4.619  0.5100 -0.1999 -0.0814
  805SOL    HW1 4154   2.656   6.497   4.664  0.3000  0.3556  1.0307
  805SOL    HW2 4155   2.675   6.627   4.589  0.5364  1.1797  2.4761
  806SOL     OW 4156   7.162   3.052   1.723 -0.2079  0.0803 -0.5165
  806SOL    HW1 4157   7.169   2.973   1.777  0.1180  0.2059 -0.3705
  806SOL    HW2 4158   7.252   3.067   1.692  0.0285  1.2384  0.6531
  807SOL     OW 4159   5.306   1.592   3.465  0.4072  0.0028 -0.7275
  807SOL    HW1 4160   5.224   1.546   3.480 -0.0636  0.6474 -1.2722
  807SOL    HW2 4161   5.317   1.648   3.541 -0.0644  0.4916 -1.0111
  808SOL     OW 4162   0.056   1.199   7.505 -0.2024  0.0540  0.3083
  808SOL    HW1 4163   0.089   1.207   7.416  0.4554  0.8139  0.6060
  808SOL    HW2 4164  -0.028   1.153   7.496  0.0059 -0.1489 -0.6608
  809SOL     OW 4165   4.711   2.308   6.024  0.0918  0.3786  0.3426
  809SOL    HW1 4166   4.758   2.359   6.090  0.2191 -0.7465  1.1436
  809SOL    HW2 4167   4.757   2.225   6.020 -1.6723 -0.6873  1.0036
  810SOL     OW 4168   6.887   3.113   6.843  0.0409  0.5866  0.6076
  810SOL    HW1 4169   6.873   3.111   6.938  0.6687  1.2111  0.7194
  810SOL    HW2 4170   6.841   3.192   6.814  0.1239  0.5722  0.4374
  811SOL     OW 4171   0.157   2.267   5.808 -0.0118 -0.2568 -0.2941
  811SOL    HW1 4172   0.086   2.331   5.813 -1.7567 -1.9246 -2.1947
  811SOL    HW2 4173   0.187   2.259   5.899 -2.2731  0.5040  0.6094
  812SOL     OW 4174   1.278   4.225   5.961  0.5879 -0.0832 -0.5488
  812SOL    HW1 4175   1.253   4.291   6.026 -0.7995 -0.6931 -0.4374
  812SOL    HW2 4176   1.198   4.209   5.911  1.2726 -0.6649 -1.4821
  813SOL     OW 4177   2.004   9.363   3.886 -0.3624  0.0037  0.0548
  813SOL    HW1 4178   2.047   9.445   3.906 -1.7120  0.6913  0.2760
  813SOL    HW2 4179   1.987   9.323   3.972  1.0498 -0.9495 -0.0715
  814SOL     OW 4180   1.288   2.793   2.672  0.0009 -0.0817 -0.9428
  814SOL    HW1 4181   1.205   2.832   2.645 -0.6277 -1.0051 -0.3983
  814SOL    HW2 4182   1.278   2.699   2.656  1.0675 -0.1728 -1.1865
  815SOL     OW 4183   9.478   2.290   6.459  0.0287 -0.2796 -0.1065
  815SOL    HW1 4184   9.416   2.357   6.490 -1.0804 -1.3179 -0.0256
  815SOL    HW2 4185   9.555   2.302   6.515 -0.1296  0.9611 -0.1260
  816SOL     OW 4186   6.422   1.984   0.817  0.0048 -0.1963 -0.2954
  816SOL    HW1 4187   6.501   1.936   0.844 -0.4256 -0.7887 -0.0611
  816SOL    HW2 4188   6.440   2.012   0.728  1.3248  1.4979  0.4355
  817SOL     OW 4189   6.936   3.212   3.592  0.5330  0.5901 -0.1524
  817SOL    HW1 4190   6.982   3.268   3.529  3.2329 -0.2582  0.9346
  817SOL    HW2 4191   6.946   3.257   3.676  1.6756 -0.8356  0.5234
  818SOL     OW 4192   5.768   0.584   5.955 -0.0639  0.3209  0.0641
  818SOL    HW1 4193   5.732   0.670   5.977 -0.2740  0.3362 -0.3304
  818SOL    HW2 4194   5.851   0.580   6.002 -0.5872  0.2781  0.9953
  819SOL     OW 4195   6.454   0.984   8.911  0.3151  0.1484  0.1923
  819SOL    HW1 4196   6.517   1.005   8.980 -0.2129  0.9577  0.4594
  819SOL    HW2 4197   6.502   0.996   8.830  0.9911 -0.9744  0.4154
  820SOL     OW 4198   2.277   7.166   7.650 -0.1573  0.3210  0.6349
  820SOL    HW1 4199   2.368   7.195   7.641 -0.7969  2.8152  1.4974
  820SOL    HW2 4200   2.235   7.194   7.569 -0.0966 -1.3294 -0.0107
  821SOL     OW 4201   2.933   5.401   5.290 -0.3528  0.1505  0.3213
  821SOL    HW1 4202   2.986   5.401   5.210  1.6129 -0.9633  1.5328
  821SOL    HW2 4203   2.923   5.494   5.312 -0.7288  0.4626 -1.0683
  822SOL     OW 4204   1.085   5.804   8.016  0.1531 -0.0975  0.1768
  822SOL    HW1 4205   1.013   5.859   7.988 -1.2385 -1.7124  0.4279
  822SOL    HW2 4206   1.122   5.849   8.092 -0.7385  0.6405  0.1805
  823SOL     OW 4207   6.945   8.530   2.631 -0.4062  0.5123  0.3556
  823SOL    HW1 4208   6.944   8.474   2.554 -0.5199  0.6740  0.2407
  823SOL    HW2 4209   6.865   8.507   2.678 -1.6494  2.1827 -0.8372
  824SOL     OW 4210   2.891   5.865   0.608 -0.1199 -0.3046  0.0631
  824SOL    HW1 4211   2.870   5.821   0.526  1.0986 -1.1180  0.1570
  824SOL    HW2 4212   2.890   5.796   0.674 -0.2629  0.1922  0.5915
  825SOL     OW 4213   7.388   0.740   4.713 -0.4540  0.5712 -0.5851
  825SOL    HW1 4214   7.305   0.771   4.676 -0.0734  0.8721 -1.2068
  825SOL    HW2 4215   7.394   0.783   4.798  0.0324  2.1907 -1.3975
  826SOL     OW 4216   3.973   2.144   5.319 -0.1789  0.9758  0.3077
  826SOL    HW1 4217   3.898   2.160   5.376 -1.0896  1.8358 -1.0914
  826SOL    HW2 4218   3.978   2.222   5.264  1.4283  0.6965  0.0062
  827SOL     OW 4219   7.810   7.394   3.476 -0.1606  0.0966  0.0806
  827SOL    HW1 4220   7.747   7.326   3.455  0.6806 -0.5695 -0.3650
  827SOL    HW2 4221   7.767   7.447   3.543  0.2524 -2.6399  2.7601
  828SOL     OW 4222   3.899   3.065   5.887 -0.5307 -0.3045 -0.2723
  828SOL    HW1 4223   3.893   3.134   5.821 -0.7859  1.2014  1.2792
  828SOL    HW2 4224   3.936   3.107   5.964  0.7489 -2.2683  0.2594
  829SOL     OW 4225   7.971   9.179   7.287  0.1722 -0.2398 -0.0360
  829SOL    HW1 4226   8.041   9.117   7.267  0.8029  0.4814 -0.1240
  829SOL    HW2 4227   7.890   9.132   7.267  0.6838 -0.3927 -1.9754
  830SOL     OW 4228   1.770   8.045   1.370 -0.5539 -0.0784  0.3168
  830SOL    HW1 4229   1.682   8.029   1.337 -0.0230  2.2415 -2.7026
  830SOL    HW2 4230   1.757   8.086   1.456 -2.5514  1.5147 -0.6674
  831SOL     OW 4231   8.354   5.508   8.716 -0.2243  0.2079  0.5385
  831SOL    HW1 4232   8.311   5.424   8.733 -1.8448  0.5264 -1.5283
  831SOL    HW2 4233   8.437   5.485   8.674 -1.3873 -0.4093 -1.5341
  832SOL     OW 4234   0.241   7.072   5.413  0.1104 -0.2716  0.0594
  832SOL    HW1 4235   0.249   6.997   5.353  0.9147  0.0285 -0.2216
  832SOL    HW2 4236   0.163   7.118   5.383 -0.4480 -1.0471  0.2908
  833SOL     OW 4237   5.103   1.587   1.158 -0.2868 -0.2397  0.3731
  833SOL    HW1 4238   5.057   1.571   1.240 -1.5010 -0.0712 -0.2514
  833SOL    HW2 4239   5.188   1.623   1.184 -0.1716 -1.3461  1.5761
  834SOL     OW 4240   6.321   7.252   2.872 -0.0031  0.4101  0.8331
  834SOL    HW1 4241   6.341   7.269   2.964 -0.1262 -0.1965  0.9721
  834SOL    HW2 4242   6.227   7.264   2.865 -0.3423 -1.6700  1.2676
  835SOL     OW 4243   6.417   8.353   8.319  0.4907 -0.6385 -0.1603
  835SOL    HW1 4244   6.330   8.313   8.319  0.4029 -0.5872  2.1293
  835SOL    HW2 4245   6.419   8.407   8.398  2.8542 -1.2818  0.3300
  836SOL     OW 4246   0.893   3.858   2.883 -0.2754 -0.5855  0.3196
  836SOL    HW1 4247   0.958   3.858   2.812 -0.4386  0.5780  0.1504
  836SOL    HW2 4248   0.809   3.863   2.839 -0.3376  1.6127  0.5686
  837SOL     OW 4249   3.446   5.753   7.908  0.1730  0.4520  0.4424
  837SOL    HW1 4250   3.384   5.825   7.893  2.6630  2.4072 -1.4349
  837SOL    HW2 4251   3.499   5.783   7.982  0.9554  0.3680 -0.0788
  838SOL     OW 4252   5.331   7.970   2.038  0.0120  0.4078 -0.1154
  838SOL    HW1 4253   5.343   8.062   2.013  3.4307  0.0969 -0.0741
  838SOL    HW2 4254   5.248   7.969   2.085 -0.2026  3.4590 -0.1920
  839SOL     OW 4255   8.035   7.189   4.201 -0.4543 -0.1271 -0.2371
  839SOL    HW1 4256   7.941   7.205   4.196 -0.7393 -1.8172 -1.3813
  839SOL    HW2 4257   8.064   7.185   4.110  0.4057 -1.1923  0.0542
  840SOL     OW 4258   8.629   4.930   4.937 -0.1509  0.2708  0.2763
  840SOL    HW1 4259   8.606   4.838   4.923  0.1699 -0.0777  1.8516
  840SOL    HW2 4260   8.568   4.960   5.004  1.8288  0.2361  2.1922
  841SOL     OW 4261   3.624   3.535   3.582 -0.7432 -0.6314  0.2746
  841SOL    HW1 4262   3.574   3.577   3.653  0.5065  1.1959  0.1626
  841SOL    HW2 4263   3.671   3.464   3.624 -1.1726 -0.5196  0.9599
  842SOL     OW 4264   2.336   5.506   2.607  0.6251 -1.0720 -0.4725
  842SOL    HW1 4265   2.265   5.457   2.566 -0.6833  0.8106 -0.6205
  842SOL    HW2 4266   2.298   5.593   2.623  2.2649 -0.6325  1.3497
  843SOL     OW 4267   3.736   2.049   7.840  0.2794  0.3996  0.2186
  843SOL    HW1 4268   3.826   2.053   7.808  0.4936 -1.7235  0.4287
  843SOL    HW2 4269   3.682   2.068   7.764  0.8689  0.0252 -0.2959
  844SOL     OW 4270   5.768   2.965   1.098  0.3403  0.6964 -0.0612
  844SOL    HW1 4271   5.805   2.882   1.129 -1.2166 -0.3706 -0.9317
  844SOL    HW2 4272   5.828   2.994   1.030 -0.0414 -0.6957 -1.0368
  845SOL     OW 4273   1.442   2.671   5.003 -0.5327 -0.3128  0.7845
  845SOL    HW1 4274   1.530   2.704   5.023  0.3327 -2.3380  0.5066
  845SOL    HW2 4275   1.446   2.645   4.911 -2.0091  1.2127  0.2236
  846SOL     OW 4276   5.360   8.413   3.838  0.1026  0.2073  0.2571
  846SOL    HW1 4277   5.304   8.445   3.767 -1.1697 -1.8114  0.2756
  846SOL    HW2 4278   5.412   8.489   3.864 -3.1527  2.4548  0.7391
  847SOL     OW 4279   0.268   1.330   5.056 -0.0989 -0.3222 -0.9624
  847SOL    HW1 4280   0.309   1.389   5.119  0.1988  0.6693 -2.0591
  847SOL    HW2 4281   0.318   1.248   5.063  0.3706  0.0074 -0.4177
  848SOL     OW 4282   4.047   9.349   7.616 -0.5423 -0.3135  1.0757
  848SOL    HW1 4283   4.037   9.264   7.574  0.8422  1.1172 -2.5982
  848SOL    HW2 4284   3.982   9.349   7.687 -4.6590 -2.3529 -2.2635
  849SOL     OW 4285   5.249   6.113   7.892  0.6110 -0.1679 -0.4777
  849SOL    HW1 4286   5.333   6.089   7.931  0.8128 -1.3521 -1.5739
  849SOL    HW2 4287   5.268   6.123   7.798 -0.3181  0.3004 -0.6295
  850SOL     OW 4288   6.350   3.054   6.538 -0.1241 -0.3884  0.0780
  850SOL    HW1 4289   6.323   3.021   6.623  2.0181  1.3251  1.5314
  850SOL    HW2 4290   6.389   3.139   6.557  0.2877  0.1251 -2.6585
  851SOL     OW 4291   2.704   4.379   4.050  0.1675  0.3566  0.3448
  851SOL    HW1 4292   2.758   4.309   4.086  1.3913  0.3296 -1.3961
  851SOL    HW2 4293   2.687   4.353   3.960 -1.1824  1.2905  0.2976
  852SOL     OW 4294   8.395   2.065   2.746  0.2752 -0.3027  0.5166
  852SOL    HW1 4295   8.392   2.054   2.651 -1.4040  2.9457  0.0520
  852SOL    HW2 4296   8.303   2.080   2.772  0.6558 -1.3318  2.7070
  853SOL     OW 4297   3.324   8.884   7.103  0.2958  0.2176 -0.6303
  853SOL    HW1 4298   3.357   8.973   7.096 -0.6896  0.6457 -0.0473
  853SOL    HW2 4299   3.359   8.839   7.026  3.4220  0.1966  0.6287
  854SOL     OW 4300   6.696   3.566   6.699  0.2687  0.0595 -0.2155
  854SOL    HW1 4301   6.728   3.533   6.615  0.6961  0.9469 -0.4162
  854SOL    HW2 4302   6.604   3.588   6.682  0.1320 -0.5137 -0.2271
  855SOL     OW 4303   5.045   3.457   3.990  0.0718  0.4931  0.1412
  855SOL    HW1 4304   4.960   3.449   3.947 -1.5026  0.4154  3.0014
  855SOL    HW2 4305   5.087   3.372   3.977 -1.3624 -0.3365  0.7036
  856SOL     OW 4306   8.684   7.843   8.535 -0.3814  0.2963  0.1482
  856SOL    HW1 4307   8.767   7.851   8.487 -0.5632  2.6264  0.0992
  856SOL    HW2 4308   8.703   7.879   8.621 -0.5008 -2.3474  1.3735
  857SOL     OW 4309   3.273   3.409   2.143 -0.7013  0.5433  0.4552
  857SOL    HW1 4310   3.363   3.387   2.168 -0.9132 -0.8809  0.0682
  857SOL    HW2 4311   3.275   3.503   2.128  1.4391  0.2096 -2.2569
  858SOL     OW 4312   6.173   4.508   6.956 -0.5919  0.1100  0.2549
  858SOL    HW1 4313   6.262   4.512   6.989 -0.9576  0.9189  1.1554
  858SOL    HW2 4314   6.144   4.599   6.950 -1.2649 -0.1241 -0.3096
  859SOL     OW 4315   7.936   5.109   9.377 -0.1770 -0.1080  0.0480
  859SOL    HW1 4316   7.912   5.068   9.294 -1.3515  0.3118  0.1540
  859SOL    HW2 4317   7.921   5.041   9.442 -1.1117  0.1325  0.1074
  860SOL     OW 4318   2.266   2.850   8.853 -0.0459  0.4201  0.0949
  860SOL    HW1 4319   2.277   2.812   8.940  0.8126 -0.4581 -0.3800
  860SOL    HW2 4320   2.177   2.824   8.827 -0.2766  0.6214  0.6689
  861SOL     OW 4321   8.367   4.274   6.663  0.2506 -0.4654 -0.3080
  861SOL    HW1 4322   8.333   4.203   6.718 -0.0418 -0.0138  0.1030
  861SOL    HW2 4323   8.295   4.295   6.604 -0.2296  0.5164  0.5865
  862SOL     OW 4324   0.857   5.445   3.908  0.4198 -0.2235  0.0553
  862SOL    HW1 4325   0.836   5.359   3.944  0.9556 -0.8216 -1.0185
  862SOL    HW2 4326   0.781   5.498   3.929  0.6709 -0.5385  1.9946
  863SOL     OW 4327   8.763   1.650   3.024 -0.0418 -0.3545 -0.2550
  863SOL    HW1 4328   8.785   1.570   3.070  0.3731  0.3930  0.9052
  863SOL    HW2 4329   8.847   1.694   3.009 -0.1223 -0.7774 -2.1611
  864SOL     OW 4330   0.413   3.475   4.091 -0.1774  0.1372  0.2293
  864SOL    HW1 4331   0.345   3.409   4.094  0.4259 -0.4686  2.0158
  864SOL    HW2 4332   0.490   3.429   4.056 -0.1290  0.2709  0.1580
  865SOL     OW 4333   8.164   0.887   8.386 -0.8164 -0.4417  0.2325
  865SOL    HW1 4334   8.159   0.795   8.360 -1.3480 -0.8832  1.7519
  865SOL    HW2 4335   8.258   0.907   8.385 -0.7493 -0.7723 -0.8213
  866SOL     OW 4336   2.595   2.114   1.804 -0.2393 -0.8061 -0.2298
  866SOL    HW1 4337   2.667   2.159   1.848  0.2812 -1.4972 -0.3490
  866SOL    HW2 4338   2.520   2.126   1.861  0.4161 -1.6444  0.8402
  867SOL     OW 4339   3.622   3.994   4.113 -0.5357 -0.0644 -0.2074
  867SOL    HW1 4340   3.623   3.941   4.193  2.4281  1.0061  0.6114
  867SOL    HW2 4341   3.654   3.934   4.045  1.2255  0.1580  0.3781
  868SOL     OW 4342   5.237   3.667   8.254  0.0659  0.1073  0.0446
  868SOL    HW1 4343   5.180   3.744   8.253 -0.6466 -0.4102 -0.0420
  868SOL    HW2 4344   5.198   3.606   8.191  0.9876 -0.0723 -0.3708
  869SOL     OW 4345   1.462   2.882   3.143  0.2211 -0.2951  0.0743
  869SOL    HW1 4346   1.376   2.875   3.102  0.1716 -0.1416  0.1509
  869SOL    HW2 4347   1.464   2.970   3.179 -0.4630 -1.0055  1.9907
  870SOL     OW 4348   6.393   6.931   6.286 -0.0790 -0.4719  0.6063
  870SOL    HW1 4349   6.400   6.915   6.192 -2.0167  1.4156  0.0662
  870SOL    HW2 4350   6.388   7.026   6.294  1.3168 -0.5028  2.7713
  871SOL     OW 4351   4.573   0.024   4.837 -0.1069  0.3470 -0.2870
  871SOL    HW1 4352   4.654  -0.019   4.865  0.0245 -0.1562 -1.4012
  871SOL    HW2 4353   4.503  -0.033   4.868 -0.0535  0.7762  0.6683
  872SOL     OW 4354   0.184   4.654   4.984 -0.2577  0.0125 -0.1936
  872SOL    HW1 4355   0.113   4.594   4.961 -2.2575  1.5044  1.7205
  872SOL    HW2 4356   0.247   4.599   5.031 -0.8588 -1.0317 -0.5659
  873SOL     OW 4357   1.077   0.209   2.294  0.1110 -0.2117 -0.0692
  873SOL    HW1 4358   1.166   0.184   2.268  0.3807  0.2647  0.3820
  873SOL    HW2 4359   1.082   0.303   2.311 -0.1211 -0.4409  1.4032
  874SOL     OW 4360   1.017   6.473   5.215 -0.3711 -0.1483  0.3102
  874SOL    HW1 4361   1.042   6.565   5.206 -0.0824 -0.2805 -0.2529
  874SOL    HW2 4362   0.962   6.471   5.294 -2.3472  0.8986 -0.9544
  875SOL     OW 4363   2.923   8.749   1.569  0.3767 -0.0264  0.4381
  875SOL    HW1 4364   2.893   8.691   1.639 -0.8717 -1.1490 -0.9700
  875SOL    HW2 4365   2.994   8.700   1.527 -0.6320 -0.5530 -0.7096
  876SOL     OW 4366   6.948   7.320   7.640  0.4396 -0.2332  0.1664
  876SOL    HW1 4367   6.967   7.321   7.546 -0.6958 -0.6336 -0.0821
  876SOL    HW2 4368   6.913   7.408   7.658  0.4582 -0.2277  0.1757
  877SOL     OW 4369   2.034   1.436   6.265  0.2007  0.8376 -0.4209
  877SOL    HW1 4370   2.130   1.440   6.262  0.3044  1.1250  1.6034
  877SOL    HW2 4371   2.008   1.523   6.293 -0.6106  0.6156 -0.4802
  878SOL     OW 4372   4.508   8.930   3.420 -0.2973  0.0945 -0.0430
  878SOL    HW1 4373   4.521   9.023   3.436 -0.3203  0.4749 -1.9356
  878SOL    HW2 4374   4.444   8.902   3.486 -0.5360  1.4906  0.3428
  879SOL     OW 4375   6.589   3.723   8.556  0.5645  0.1388 -0.0905
  879SOL    HW1 4376   6.676   3.698   8.525  0.9561  0.9837  0.2846
  879SOL    HW2 4377   6.563   3.797   8.501 -0.8201 -1.3734 -1.5622
  880SOL     OW 4378   7.442   9.283   0.130 -0.3133  0.2380  0.0904
  880SOL    HW1 4379   7.520   9.240   0.095  0.1360  0.8945  0.2606
  880SOL    HW2 4380   7.419   9.348   0.064 -0.0681  0.7842  0.5303
  881SOL     OW 4381   0.756   3.616   5.886 -0.3263 -0.0332 -0.2231
  881SOL    HW1 4382   0.847   3.587   5.894 -0.5530 -0.7339 -0.1559
  881SOL    HW2 4383   0.758   3.707   5.914  0.0350 -0.5613  1.5812
  882SOL     OW 4384   0.155   5.615   4.707  0.1845  0.7107 -0.1351
  882SOL    HW1 4385   0.123   5.653   4.789 -2.6621 -1.5770 -0.0111
  882SOL    HW2 4386   0.119   5.673   4.638 -1.2843  0.1920  0.1513
  883SOL     OW 4387   4.098   6.971   4.795  0.3132 -0.5770  0.0090
  883SOL    HW1 4388   4.012   6.941   4.826 -0.0058  0.7455  0.4952
  883SOL    HW2 4389   4.093   6.965   4.700 -1.4844  2.2215 -0.2092
  884SOL     OW 4390   6.057   2.732   1.458 -0.3249 -0.0298  0.5603
  884SOL    HW1 4391   6.149   2.708   1.467  0.4190  0.6563 -3.3652
  884SOL    HW2 4392   6.011   2.676   1.521  2.6804 -0.6431  2.4142
  885SOL     OW 4393   2.789   3.103   0.497 -0.0064 -0.0028 -0.2298
  885SOL    HW1 4394   2.728   3.032   0.478  0.5674  0.1631 -3.2351
  885SOL    HW2 4395   2.734   3.171   0.537 -1.3164 -0.7583 -0.6814
  886SOL     OW 4396   9.318   3.902   8.726 -0.2048 -0.2562  0.0625
  886SOL    HW1 4397   9.300   3.928   8.817  0.4746  2.0176 -0.3853
  886SOL    HW2 4398   9.253   3.835   8.707 -2.1004  1.0941  1.4061
  887SOL     OW 4399   6.860   3.542   7.489  0.2991  0.1548  0.0550
  887SOL    HW1 4400   6.895   3.497   7.412  0.2298 -0.6371  0.4649
  887SOL    HW2 4401   6.843   3.471   7.551 -1.4007  0.5614  0.1117
  888SOL     OW 4402   5.874   8.791   0.485 -0.6421 -0.2867 -0.4311
  888SOL    HW1 4403   5.849   8.699   0.497  2.0006 -1.4983 -2.8564
  888SOL    HW2 4404   5.946   8.804   0.547  0.9913 -0.9084 -2.0920
  889SOL     OW 4405   4.678   3.256   3.334  0.0135 -0.0758 -0.1774
  889SOL    HW1 4406   4.682   3.344   3.296  1.0916  0.0001  0.0847
  889SOL    HW2 4407   4.697   3.269   3.427 -0.9150 -0.4638  0.0729
  890SOL     OW 4408   0.710   6.495   4.155 -0.2541  0.5763 -0.1231
  890SOL    HW1 4409   0.648   6.568   4.158 -0.7349  0.1861 -0.5351
  890SOL    HW2 4410   0.713   6.462   4.245 -1.6001 -0.2031 -0.3543
  891SOL     OW 4411   7.260   8.383   0.033  0.0262  0.2167  0.0029
  891SOL    HW1 4412   7.166   8.394   0.022  0.1338  2.3690  0.7834
  891SOL    HW2 4413   7.272   8.382   0.128  1.0263  3.1049 -0.0058
  892SOL     OW 4414   1.514   5.884   4.061 -0.3843 -0.9272  0.4184
  892SOL    HW1 4415   1.609   5.893   4.057 -0.4979  0.1277 -0.3512
  892SOL    HW2 4416   1.497   5.791   4.047  0.6379 -1.6082  3.0563
  893SOL     OW 4417   0.651   8.483   2.654  0.1359  0.3085 -0.3167
  893SOL    HW1 4418   0.632   8.535   2.733  0.3062 -1.3741  0.8826
  893SOL    HW2 4419   0.742   8.504   2.633  0.4085  0.0117  0.5404
  894SOL     OW 4420   2.468   2.179   8.884  0.1795 -0.3954 -0.3793
  894SOL    HW1 4421   2.398   2.243   8.876 -0.6092 -1.3465 -1.5422
  894SOL    HW2 4422   2.431   2.110   8.938  0.1781 -0.9203 -1.0332
  895SOL     OW 4423   5.281   7.890   8.162 -0.3850 -0.3431  0.2493
  895SOL    HW1 4424   5.256   7.828   8.231 -1.0194 -2.1378 -1.4903
  895SOL    HW2 4425   5.200   7.911   8.117  0.0027  0.8620  0.0742
  896SOL     OW 4426   7.458   2.711   2.107 -0.1617 -0.0418  0.1647
  896SOL    HW1 4427   7.429   2.707   2.016 -3.0188  0.1583  0.9764
  896SOL    HW2 4428   7.479   2.803   2.122  0.1997 -0.0537 -0.2420
  897SOL     OW 4429   3.464   2.980   6.475 -0.0435  0.4798 -0.4785
  897SOL    HW1 4430   3.403   2.935   6.416 -0.2186 -2.0198  1.4439
  897SOL    HW2 4431   3.536   2.918   6.486 -0.5479  0.3013  2.7456
  898SOL     OW 4432   5.431   1.379   8.463  0.1672  0.2207 -0.3722
  898SOL    HW1 4433   5.371   1.372   8.389 -0.2443 -0.5857  0.0312
  898SOL    HW2 4434   5.446   1.289   8.491 -0.1933  0.5491  0.9306
  899SOL     OW 4435   9.564   4.755   7.133  0.0866 -0.5131 -0.0242
  899SOL    HW1 4436   9.590   4.665   7.112  0.6347 -0.1365 -1.0296
  899SOL    HW2 4437   9.541   4.794   7.049  1.8421  0.9059  0.0879
  900SOL     OW 4438   3.582   4.140   7.717  0.2029 -0.0277 -0.3870
  900SOL    HW1 4439   3.505   4.187   7.685 -0.5419 -0.3005  0.9076
  900SOL    HW2 4440   3.647   4.149   7.647 -0.7073  0.9389 -1.1445
  901SOL     OW 4441   3.404   3.157   3.403 -0.6726  0.1303  0.5705
  901SOL    HW1 4442   3.499   3.172   3.407 -0.5293 -0.9796  2.5944
  901SOL    HW2 4443   3.373   3.220   3.337  1.5871 -0.2556 -1.0004
  902SOL     OW 4444   3.835   5.612   3.619  0.3123 -0.0662 -1.5199
  902SOL    HW1 4445   3.907   5.662   3.658 -0.4583  0.4946 -0.7496
  902SOL    HW2 4446   3.808   5.551   3.688 -1.0460  0.9082 -1.1391
  903SOL     OW 4447   6.011   2.908   1.969 -0.0821  0.3890  0.2072
  903SOL    HW1 4448   6.095   2.907   1.922 -1.2478  1.4158 -2.0766
  903SOL    HW2 4449   5.960   2.838   1.928 -0.3100 -0.3371  1.6839
  904SOL     OW 4450   7.341   1.323   4.520 -0.1310  0.3794  0.4253
  904SOL    HW1 4451   7.299   1.409   4.517 -1.3045 -0.1206  1.5416
  904SOL    HW2 4452   7.333   1.289   4.431 -0.9106  0.8576  0.3073
  905SOL     OW 4453   6.241   1.871   8.734 -0.7999 -0.0360  0.0086
  905SOL    HW1 4454   6.202   1.787   8.757  1.4761 -0.7165  1.7951
  905SOL    HW2 4455   6.308   1.849   8.670 -1.0719  0.6144 -0.5060
  906SOL     OW 4456   4.638   0.832   6.355 -0.0460 -0.8344  0.3307
  906SOL    HW1 4457   4.560   0.880   6.381 -0.9373 -2.0404  0.0000
  906SOL    HW2 4458   4.638   0.755   6.412  1.4355 -0.3913  0.9684
  907SOL     OW 4459   5.633   1.092   2.921  0.2456  0.0255 -0.0765
  907SOL    HW1 4460   5.540   1.080   2.941  0.4503 -1.1833  0.2519
  907SOL    HW2 4461   5.645   1.187   2.916 -1.0344  0.1914 -0.2748
  908SOL     OW 4462   5.685   7.378   6.284  0.2711  0.0177  0.2723
  908SOL    HW1 4463   5.693   7.416   6.371 -1.3104  1.9551 -0.3557
  908SOL    HW2 4464   5.749   7.426   6.230  0.2106 -0.1541  0.0434
  909SOL     OW 4465   8.333   9.085   3.387  0.1986 -0.6300 -0.3399
  909SOL    HW1 4466   8.427   9.094   3.401  0.2867 -1.5245 -0.3411
  909SOL    HW2 4467   8.321   9.108   3.295  0.0498  1.9931  0.2343
  910SOL     OW 4468   9.495   4.420   5.942 -0.3395  0.0864 -0.1987
  910SOL    HW1 4469   9.432   4.392   5.876 -1.7478  1.0531  0.6831
  910SOL    HW2 4470   9.469   4.509   5.964  0.7630  0.1660  0.8862
  911SOL     OW 4471   2.874   6.639   7.942 -0.1769 -0.1035  0.2388
  911SOL    HW1 4472   2.863   6.587   7.862  0.0401 -0.6102  0.5315
  911SOL    HW2 4473   2.794   6.622   7.992  1.1833 -2.7198  1.7637
  912SOL     OW 4474   0.538   8.872   3.688  0.2419 -0.7454  0.7894
  912SOL    HW1 4475   0.627   8.843   3.703 -0.2105 -1.7351  1.6737
  912SOL    HW2 4476   0.507   8.902   3.773 -1.3246 -3.4796  1.2968
  913SOL     OW 4477   0.378   6.111   0.953 -0.4303  0.1573 -0.0777
  913SOL    HW1 4478   0.393   6.110   1.047  0.2355  1.7454 -0.1379
  913SOL    HW2 4479   0.382   6.204   0.928 -0.0622 -0.2606 -1.7449
  914SOL     OW 4480   5.974   2.106   1.970  0.4674 -0.3837 -0.0844
  914SOL    HW1 4481   6.021   2.053   1.906  0.9586 -0.6583  0.4923
  914SOL    HW2 4482   6.016   2.086   2.054 -1.2594 -1.3449  0.6013
  915SOL     OW 4483   0.276   6.846   0.465 -0.3103 -0.2607  0.2750
  915SOL    HW1 4484   0.220   6.783   0.420 -0.9039  0.4211  0.0385
  915SOL    HW2 4485   0.246   6.843   0.556  0.4933 -1.2073  0.5253
  916SOL     OW 4486   2.912   1.945   2.079 -0.0233 -0.2070 -0.7024
  916SOL    HW1 4487   2.862   1.894   2.142 -1.1076  1.1400 -0.4253
  916SOL    HW2 4488   2.999   1.953   2.119 -0.9021  1.2914  1.0894
  917SOL     OW 4489   6.968   5.244   1.711 -0.4811  0.0880 -0.1552
  917SOL    HW1 4490   7.018   5.307   1.660 -0.9439 -0.1892 -0.9760
  917SOL    HW2 4491   7.034   5.190   1.754 -0.0797  1.2624  0.7416
  918SOL     OW 4492   2.696   6.329   3.265  0.3892 -0.5995 -0.1241
  918SOL    HW1 4493   2.614   6.357   3.306 -0.1749 -1.3894 -0.6794
  918SOL    HW2 4494   2.751   6.300   3.338 -0.2524 -1.1181  0.1681
  919SOL     OW 4495   8.008   2.849   7.845  0.4186 -0.0482 -0.2423
  919SOL    HW1 4496   8.050   2.881   7.924  0.0995  1.8494 -0.7969
  919SOL    HW2 4497   8.080   2.827   7.786  0.6629  1.2380 -0.4427
  920SOL     OW 4498   3.539   7.124   5.390  0.2971 -0.1716  0.1372
  920SOL    HW1 4499   3.555   7.119   5.484 -0.8405 -0.5202  0.3310
  920SOL    HW2 4500   3.459   7.073   5.377  0.2333  0.1892 -0.9665
  921SOL     OW 4501   1.248   0.073   7.900 -0.6345  0.1962  0.4241
  921SOL    HW1 4502   1.328   0.094   7.947 -0.2917  0.4444 -0.2532
  921SOL    HW2 4503   1.201   0.012   7.957  1.3041 -2.1410 -0.3210
  922SOL     OW 4504   5.933   6.713   8.189 -0.0967 -0.3320  0.6907
  922SOL    HW1 4505   5.895   6.704   8.276 -0.5469 -2.3805  0.3202
  922SOL    HW2 4506   6.022   6.745   8.205 -0.6714  0.8166  1.7805
  923SOL     OW 4507   5.906   6.250   4.573 -0.1708  0.9961  0.0280
  923SOL    HW1 4508   5.975   6.183   4.581 -1.4326 -0.4138 -0.4159
  923SOL    HW2 4509   5.838   6.221   4.633 -0.0296  2.8879  1.1640
  924SOL     OW 4510   3.144   0.644   5.660  0.3580 -0.2075 -0.9921
  924SOL    HW1 4511   3.160   0.639   5.566 -0.5862 -1.9970 -1.1199
  924SOL    HW2 4512   3.058   0.603   5.671  0.0598  0.7531  0.5655
  925SOL     OW 4513   5.045   4.157   3.543  0.2672 -0.3958  0.5768
  925SOL    HW1 4514   5.043   4.249   3.516 -0.2819 -0.3560  0.7323
  925SOL    HW2 4515   5.134   4.143   3.576  0.3717  0.0629  0.4963
  926SOL     OW 4516   3.330   3.057   7.656 -0.0548  0.1680  0.3832
  926SOL    HW1 4517   3.374   3.020   7.580  0.3870  0.2621  0.5918
  926SOL    HW2 4518   3.251   3.098   7.620 -0.3776 -0.6694  0.1031
  927SOL     OW 4519   4.985   2.329   1.154 -0.1881 -0.4413 -0.0933
  927SOL    HW1 4520   4.972   2.391   1.081  1.1610 -0.7923 -0.6498
  927SOL    HW2 4521   5.002   2.245   1.111  0.4726 -0.6829  0.6286
  928SOL     OW 4522   5.756   3.473   5.043  0.0628  0.3320 -0.1419
  928SOL    HW1 4523   5.672   3.514   5.026 -0.2566  0.0627  0.7100
  928SOL    HW2 4524   5.783   3.508   5.128 -0.6352 -1.8280  1.0449
  929SOL     OW 4525   7.885   3.150   8.134  0.0386  0.0196 -0.1081
  929SOL    HW1 4526   7.904   3.243   8.127 -0.8513  0.3553  1.5794
  929SOL    HW2 4527   7.791   3.143   8.115 -0.4607 -0.1689  2.2221
  930SOL     OW 4528   6.004   1.373   1.610 -0.6487 -0.3083  0.1791
  930SOL    HW1 4529   5.933   1.320   1.574  0.0252 -0.9038 -0.3017
  930SOL    HW2 4530   5.997   1.457   1.566 -0.0423 -0.9153 -1.1302
  931SOL     OW 4531   5.677   0.364   2.707  0.0739  0.4209 -0.7650
  931SOL    HW1 4532   5.586   0.350   2.733  0.8765 -2.3231  1.1165
  931SOL    HW2 4533   5.687   0.314   2.626 -0.2635  1.4014 -1.4213
  932SOL     OW 4534   4.159   3.947   2.489  0.2959  0.4921  0.8177
  932SOL    HW1 4535   4.173   3.858   2.521  2.6572  0.6761  0.4257
  932SOL    HW2 4536   4.102   3.987   2.555 -1.9700 -1.6345  0.3249
  933SOL     OW 4537   3.908   5.735   2.925  0.4265  0.1291 -0.3400
  933SOL    HW1 4538   3.865   5.821   2.921  0.2402  0.0006 -1.5507
  933SOL    HW2 4539   3.870   5.693   3.002  0.9219  1.3251  0.5956
  934SOL     OW 4540   8.256   3.637   7.276  0.3772  0.2463 -0.2052
  934SOL    HW1 4541   8.252   3.703   7.207  0.4305 -0.8897 -1.3404
  934SOL    HW2 4542   8.218   3.558   7.236  4.3833 -1.7680 -0.5185
  935SOL     OW 4543   3.828   8.683   4.684 -0.4682 -0.5862 -0.0755
  935SOL    HW1 4544   3.854   8.608   4.736  0.0762 -0.3950 -0.0627
  935SOL    HW2 4545   3.808   8.751   4.748 -4.5479 -1.7421  0.1320
  936SOL     OW 4546   5.557   5.245   4.579 -0.1484  0.0093 -0.2335
  936SOL    HW1 4547   5.534   5.249   4.486 -0.5206  0.5764 -0.1199
  936SOL    HW2 4548   5.626   5.179   4.583 -1.1498 -1.1068 -0.7055
  937SOL     OW 4549   8.250   0.113   4.539 -0.0074 -0.5559  0.2914
  937SOL    HW1 4550   8.236   0.028   4.580  2.2119 -2.1130 -1.9070
  937SOL    HW2 4551   8.316   0.156   4.594  0.5461 -1.2371  0.1724
  938SOL     OW 4552   7.574   3.360   1.603  0.0216 -0.6714  0.1695
  938SOL    HW1 4553   7.613   3.285   1.558  1.0274  0.3033 -0.6461
  938SOL    HW2 4554   7.541   3.416   1.534  1.5875  0.8512  0.5682
  939SOL     OW 4555   4.318   7.954   4.320 -0.2821  0.2811  0.1461
  939SOL    HW1 4556   4.387   7.890   4.306  0.2766  1.1052 -1.0791
  939SOL    HW2 4557   4.250   7.931   4.256  0.4822  1.6171 -1.2291
  940SOL     OW 4558   5.209   3.104   6.830 -0.7946 -0.2455  0.1432
  940SOL    HW1 4559   5.222   3.011   6.810 -0.2678  0.3481 -2.6289
  940SOL    HW2 4560   5.291   3.132   6.870 -0.2055 -0.5555 -0.8212
  941SOL     OW 4561   4.011   0.047   6.534  0.2308 -0.3541 -0.0751
  941SOL    HW1 4562   4.025   0.137   6.502  2.8701  0.4492  2.7993
  941SOL    HW2 4563   3.981  -0.001   6.457 -0.3543  2.7608 -1.9779
  942SOL     OW 4564   4.653   9.234   8.373  0.4967  0.0283  0.3972
  942SOL    HW1 4565   4.559   9.242   8.358  0.4643  0.9567  1.0446
  942SOL    HW2 4566   4.669   9.283   8.453  1.7742  1.2790 -0.5795
  943SOL     OW 4567   2.687   3.729   1.486  0.6649  0.2016 -0.1584
  943SOL    HW1 4568   2.649   3.817   1.489  0.8827  0.2606  1.7018
  943SOL    HW2 4569   2.753   3.729   1.554  0.1309 -1.6489  0.4182
  944SOL     OW 4570   2.178   0.812   8.253  0.0075  0.1708  0.1567
  944SOL    HW1 4571   2.201   0.800   8.161 -2.0186  1.1227 -0.5405
  944SOL    HW2 4572   2.221   0.894   8.278  1.1550 -0.4543  0.3142
  945SOL     OW 4573   5.838   4.138   2.762  0.2991 -0.3239 -0.3326
  945SOL    HW1 4574   5.827   4.148   2.667 -1.3387  2.0278  0.0106
  945SOL    HW2 4575   5.909   4.198   2.784  1.1074 -1.3330 -0.0997
  946SOL     OW 4576   5.941   0.141   1.267  0.0067 -0.6672 -0.2265
  946SOL    HW1 4577   5.950   0.213   1.329  0.2414 -0.5957 -0.3407
  946SOL    HW2 4578   6.003   0.162   1.197 -0.8788 -0.3111 -0.9143
  947SOL     OW 4579   7.089   4.365   6.419  0.0467  0.1973 -0.6413
  947SOL    HW1 4580   7.083   4.396   6.509 -0.6464 -1.0141 -0.2603
  947SOL    HW2 4581   7.096   4.446   6.367 -0.8457  0.9721  0.3860
  948SOL     OW 4582   9.339   1.249   2.622  0.5837  0.2427  0.0415
  948SOL    HW1 4583   9.290   1.264   2.541  1.7313 -1.1075 -0.9654
  948SOL    HW2 4584   9.316   1.160   2.647  0.5221  0.5247  1.0181
  949SOL     OW 4585   3.746   1.410   2.026  0.2162  0.6340 -0.0749
  949SOL    HW1 4586   3.738   1.456   1.942  1.0281 -0.1390 -0.5941
  949SOL    HW2 4587   3.659   1.415   2.064 -0.0517  1.4173 -0.7420
  950SOL     OW 4588   2.344   8.943   3.033  0.0853  0.5818  0.2702
  950SOL    HW1 4589   2.352   8.859   3.078  0.5626  0.2417 -0.4220
  950SOL    HW2 4590   2.423   8.991   3.057  0.8173  0.0340 -0.8949
  951SOL     OW 4591   7.422   6.289   7.950 -0.2990 -0.3219 -0.4650
  951SOL    HW1 4592   7.369   6.227   7.900  1.0118 -1.0392 -1.0056
  951SOL    HW2 4593   7.381   6.374   7.933 -1.4026 -0.8703 -0.6683
  952SOL     OW 4594   5.794   0.223   9.476  0.1943  0.5653  0.1428
  952SOL    HW1 4595   5.730   0.161   9.512  0.0533 -0.3742 -1.5895
  952SOL    HW2 4596   5.825   0.272   9.552  0.9720 -2.2065  1.7697
  953SOL     OW 4597   7.752   7.659   7.809  0.0211  0.6430  0.4757
  953SOL    HW1 4598   7.694   7.588   7.834 -0.0851  0.6656  0.2973
  953SOL    HW2 4599   7.700   7.738   7.821 -0.3020  0.6079 -0.5520
  954SOL     OW 4600   5.691   5.007   4.621  0.1412  0.3413 -0.0297
  954SOL    HW1 4601   5.745   4.931   4.599 -1.8495 -1.5262  1.1803
  954SOL    HW2 4602   5.744   5.056   4.685  1.9953  0.7688 -1.7859
  955SOL     OW 4603   2.725   2.212   3.011  0.2315  0.0389 -0.3297
  955SOL    HW1 4604   2.688   2.202   2.924  1.2687 -0.8564 -0.6945
  955SOL    HW2 4605   2.786   2.139   3.020  2.1222  1.5787  0.1069
  956SOL     OW 4606   4.291   9.382   1.156 -0.5967 -0.1560 -0.1857
  956SOL    HW1 4607   4.271   9.452   1.218 -3.0746 -0.8901 -0.0438
  956SOL    HW2 4608   4.385   9.365   1.168 -0.9599 -0.4167  3.6116
  957SOL     OW 4609   8.022   3.326   3.959 -0.1159 -0.8655 -0.4901
  957SOL    HW1 4610   8.098   3.272   3.980 -0.4525 -0.7091  1.3798
  957SOL    HW2 4611   7.956   3.263   3.928 -1.0456 -1.9426  3.1392
  958SOL     OW 4612   0.625   4.838   8.158 -0.0574  0.1619  0.5985
  958SOL    HW1 4613   0.642   4.845   8.252  1.1617  1.0857  0.3335
  958SOL    HW2 4614   0.572   4.915   8.138 -1.3511 -0.6622  0.7139
  959SOL     OW 4615   0.944   3.584   1.037 -0.3746 -0.0968 -0.1122
  959SOL    HW1 4616   1.016   3.647   1.042 -0.5171 -0.0494  2.0770
  959SOL    HW2 4617   0.987   3.498   1.038 -0.3176 -0.0804  1.7670
  960SOL     OW 4618   9.032   1.670   3.872  0.4531 -0.1340  0.7304
  960SOL    HW1 4619   8.986   1.610   3.814 -0.1747  1.0163 -0.0190
  960SOL    HW2 4620   9.125   1.662   3.847  0.2106  0.2286 -0.3555
  961SOL     OW 4621   5.389   5.334   7.046  0.1023  0.6910 -0.0635
  961SOL    HW1 4622   5.336   5.341   6.966  0.2857 -0.3889 -0.3013
  961SOL    HW2 4623   5.327   5.350   7.117 -0.6312 -0.7137 -0.3310
  962SOL     OW 4624   6.036   1.420   0.106 -0.1323  0.0504 -0.3603
  962SOL    HW1 4625   6.042   1.420   0.011  1.4942  0.7571 -0.2866
  962SOL    HW2 4626   6.087   1.343   0.133 -0.6567 -0.1974 -0.0479
  963SOL     OW 4627   7.527   0.279   4.661 -0.1688  0.1261  0.0883
  963SOL    HW1 4628   7.613   0.246   4.635  0.0110 -2.2998  3.1295
  963SOL    HW2 4629   7.538   0.374   4.666  1.3575  0.1846 -2.4878
  964SOL     OW 4630   0.245   1.859   5.688 -0.8111  0.4211  0.0995
  964SOL    HW1 4631   0.294   1.926   5.735  0.6696  0.8612 -1.9061
  964SOL    HW2 4632   0.188   1.908   5.629  1.3326  0.1077 -2.4517
  965SOL     OW 4633   5.837   5.603   6.361  0.2177  0.0672 -0.0650
  965SOL    HW1 4634   5.912   5.655   6.391 -1.1847  0.7944  2.4851
  965SOL    HW2 4635   5.874   5.516   6.345  1.6231  0.3715  1.2058
  966SOL     OW 4636   0.789   2.642   9.589  0.3203 -0.2679  0.1491
  966SOL    HW1 4637   0.739   2.689   9.656  1.3385  1.5138 -0.2921
  966SOL    HW2 4638   0.750   2.669   9.507  3.0313  2.7011 -0.3637
  967SOL     OW 4639   4.128   7.761   3.420 -0.1999 -0.3174 -0.0234
  967SOL    HW1 4640   4.037   7.737   3.403 -0.2812  0.7364 -1.2055
  967SOL    HW2 4641   4.135   7.853   3.391  1.4720 -0.6847 -0.9546
  968SOL     OW 4642   3.764   7.191   9.250 -0.7092 -0.6430  0.3653
  968SOL    HW1 4643   3.747   7.097   9.247  2.1868 -1.2742 -2.2780
  968SOL    HW2 4644   3.817   7.203   9.329 -0.0472 -1.4946  0.0678
  969SOL     OW 4645   6.477   5.032   3.856 -0.0190  0.1135  0.3148
  969SOL    HW1 4646   6.525   5.114   3.848  1.0202 -0.4651  0.3211
  969SOL    HW2 4647   6.397   5.055   3.903  0.4004  1.0696  0.5883
  970SOL     OW 4648   7.321   4.671   8.594 -0.3141  0.2819 -0.3801
  970SOL    HW1 4649   7.241   4.655   8.544 -0.3636  1.3569 -0.6737
  970SOL    HW2 4650   7.385   4.610   8.557 -0.5468  0.5664 -1.2813
  971SOL     OW 4651   2.853   4.977   4.592 -0.1838  0.2385  0.1567
  971SOL    HW1 4652   2.803   5.029   4.529  0.3979 -0.5010 -0.9606
  971SOL    HW2 4653   2.943   4.982   4.559  0.1341 -0.1539  0.9572
  972SOL     OW 4654   3.892   8.426   4.760  0.1884 -0.4463 -0.1076
  972SOL    HW1 4655   3.804   8.390   4.772 -0.3606  0.3093 -1.6902
  972SOL    HW2 4656   3.940   8.398   4.838 -1.7790  0.1159  1.3815
  973SOL     OW 4657   5.148   0.190   0.704 -0.2311  0.2299  0.2017
  973SOL    HW1 4658   5.061   0.231   0.709 -0.3445  0.1261 -0.7161
  973SOL    HW2 4659   5.195   0.242   0.639 -0.5768 -1.3978 -1.4526
  974SOL     OW 4660   5.905   1.408   5.158  0.0949 -0.6824  0.2414
  974SOL    HW1 4661   5.935   1.327   5.117  0.6417 -0.5499  0.3647
  974SOL    HW2 4662   5.937   1.403   5.248  0.0415 -0.3821  0.2804
  975SOL     OW 4663   1.351   5.426   7.504  0.2146  0.1543  0.2627
  975SOL    HW1 4664   1.335   5.521   7.512 -0.1394  0.1038  0.1731
  975SOL    HW2 4665   1.340   5.393   7.593 -0.1847  0.1224  0.2052
  976SOL     OW 4666   3.664   5.463   3.914 -0.2271 -0.0414 -0.1402
  976SOL    HW1 4667   3.680   5.458   4.008 -0.7976  2.6789  0.1858
  976SOL    HW2 4668   3.744   5.428   3.874 -0.2951 -1.9888  1.2857
  977SOL     OW 4669   8.738   4.886   4.351  0.1719 -0.0722 -0.5832
  977SOL    HW1 4670   8.669   4.826   4.324 -0.2441  0.4871 -0.7776
  977SOL    HW2 4671   8.790   4.901   4.272 -1.1599  1.7170 -1.1719
  978SOL     OW 4672   9.005   6.480   0.186 -0.2740  0.4158  0.0330
  978SOL    HW1 4673   8.929   6.438   0.227 -0.4006 -0.8712 -1.4160
  978SOL    HW2 4674   9.076   6.416   0.196  0.6754  1.6173  1.3952
  979SOL     OW 4675   1.467   8.474   3.000 -0.7212 -0.1862  0.2366
  979SOL    HW1 4676   1.387   8.509   2.960 -1.2684 -0.6825  0.8693
  979SOL    HW2 4677   1.535   8.491   2.936 -1.5420 -0.7833 -0.8417
  980SOL     OW 4678   5.107   7.534   1.031  0.5294 -0.1281  0.9112
  980SOL    HW1 4679   5.192   7.512   1.071  0.4381 -0.7477  0.7719
  980SOL    HW2 4680   5.088   7.461   0.972 -0.8388 -0.7866  2.0995
  981SOL     OW 4681   5.969   2.535   1.038  0.3275 -0.2857  0.2125
  981SOL    HW1 4682   5.898   2.545   0.975 -0.4035 -1.7082  0.7707
  981SOL    HW2 4683   5.944   2.590   1.112  1.3541  1.6592 -0.8249
  982SOL     OW 4684   6.885   0.623   0.027  0.9584 -0.2172 -0.5843
  982SOL    HW1 4685   6.849   0.535   0.036  0.7076 -0.0368  0.3075
  982SOL    HW2 4686   6.933   0.637   0.109 -0.4065  1.1115  0.0309
  983SOL     OW 4687   3.340   4.796   0.856  0.2623 -0.1387 -0.1876
  983SOL    HW1 4688   3.362   4.830   0.943 -1.2925 -0.8625  0.5150
  983SOL    HW2 4689   3.411   4.736   0.836  1.3419  1.0333 -0.0310
  984SOL     OW 4690   4.661   4.891   1.141  0.4029 -0.1024 -0.0267
  984SOL    HW1 4691   4.565   4.898   1.142  0.4572  0.7198  0.2007
  984SOL    HW2 4692   4.682   4.878   1.048  0.0543 -0.6424 -0.0363
  985SOL     OW 4693   1.387   7.879   6.766 -0.0680  0.2681  0.9422
  985SOL    HW1 4694   1.351   7.965   6.786  0.6570  0.9272 -0.4442
  985SOL    HW2 4695   1.450   7.862   6.835 -2.2274 -0.4722  2.8650
  986SOL     OW 4696   0.425   9.526   2.432  0.0500 -0.5706  0.5580
  986SOL    HW1 4697   0.383   9.529   2.346 -2.1165  0.2351  1.5888
  986SOL    HW2 4698   0.507   9.574   2.420 -0.4934  0.0528 -0.8978
  987SOL     OW 4699   9.114   3.483   5.189  0.9341  0.2281  0.0967
  987SOL    HW1 4700   9.048   3.425   5.228  0.1122  0.6592 -0.6516
  987SOL    HW2 4701   9.188   3.425   5.172  0.8042 -0.2390  1.0386
  988SOL     OW 4702   3.947   7.379   0.428 -0.1149  0.3485  0.3008
  988SOL    HW1 4703   3.902   7.308   0.382  0.0879  0.6090 -0.3132
  988SOL    HW2 4704   3.958   7.347   0.517 -0.8711 -0.0117  0.2752
  989SOL     OW 4705   4.619   3.802   5.666 -0.2751  0.6934 -0.4540
  989SOL    HW1 4706   4.666   3.725   5.697 -0.8940  1.0340  1.4803
  989SOL    HW2 4707   4.685   3.872   5.665  0.1888  0.2487 -1.8017
  990SOL     OW 4708   2.409   6.789   6.523 -0.0965 -0.0070  0.0682
  990SOL    HW1 4709   2.486   6.817   6.572  0.3345 -1.6978  0.4071
  990SOL    HW2 4710   2.387   6.864   6.468  1.5241  0.6676  0.2948
  991SOL     OW 4711   2.848   5.774   4.573  0.0205  1.0303 -0.1626
  991SOL    HW1 4712   2.886   5.833   4.639 -0.3746  0.5930  0.4630
  991SOL    HW2 4713   2.824   5.695   4.622  1.1894  0.0536 -1.1190
  992SOL     OW 4714   3.272   6.372   3.602  0.4097  0.3513 -0.5225
  992SOL    HW1 4715   3.200   6.431   3.624  1.9441  2.2384 -0.2532
  992SOL    HW2 4716   3.304   6.341   3.687  1.6082  1.7153 -0.4381
  993SOL     OW 4717   8.980   6.033   4.217 -0.0130  0.3201  0.0972
  993SOL    HW1 4718   8.897   6.046   4.263  0.1960 -0.4383  0.7359
  993SOL    HW2 4719   8.956   5.998   4.132 -0.4268  2.0969 -0.5482
  994SOL     OW 4720   7.924   6.116   4.622 -0.4693  0.1824 -0.4455
  994SOL    HW1 4721   7.887   6.061   4.553  0.8357  0.4778 -1.4231
  994SOL    HW2 4722   7.868   6.193   4.626 -1.3669 -0.4752 -0.1879
  995SOL     OW 4723   7.752   3.447   2.214 -0.2231 -0.2159 -0.0493
  995SOL    HW1 4724   7.701   3.504   2.157  1.2461 -0.0337 -1.2480
  995SOL    HW2 4725   7.762   3.366   2.164  0.4324 -0.3330  0.2542
  996SOL     OW 4726   4.055   6.686   8.014  0.5631 -0.3055 -0.5664
  996SOL    HW1 4727   4.150   6.684   8.028  0.3552  2.0722  1.8677
  996SOL    HW2 4728   4.022   6.612   8.064  1.1190 -1.6245 -2.0606
  997SOL     OW 4729   1.084   3.212   1.037  0.5100 -0.0834  0.2200
  997SOL    HW1 4730   1.049   3.181   1.121 -1.5314 -0.2752 -0.6651
  997SOL    HW2 4731   1.057   3.146   0.973  2.2247 -0.0527 -0.6116
  998SOL     OW 4732   0.430   5.082   2.639  0.6912  0.5031 -0.0774
  998SOL    HW1 4733   0.355   5.080   2.579  1.5777  0.0961 -1.2048
  998SOL    HW2 4734   0.392   5.108   2.723 -0.6437  0.7470 -0.7206
  999SOL     OW 4735   3.968   1.317   6.121  0.3268  0.0388 -0.0190
  999SOL    HW1 4736   3.877   1.290   6.122  0.0128  1.0449 -0.4234
  999SOL    HW2 4737   4.010   1.259   6.057 -0.1050 -0.1940 -0.0914
 1000SOL     OW 4738   6.557   3.907   2.830  0.4375 -0.4181 -0.4756
 1000SOL    HW1 4739   6.491   3.840   2.809  1.0801 -1.1709 -0.1438
 1000SOL    HW2 4740   6.592   3.879   2.914  1.0783  0.0576 -0.5860
 1001SOL     OW 4741   6.930   1.156   4.417  0.8730 -0.4286  0.2643
 1001SOL    HW1 4742   6.890   1.242   4.402  0.7776 -0.5808 -0.3684
 1001SOL    HW2 4743   6.930   1.146   4.512 -1.4166 -0.8160  0.2767
 1002SOL     OW 4744   2.667   2.091   7.260 -0.4287 -0.0957  0.2108
 1002SOL    HW1 4745   2.608   2.061   7.191 -0.9987 -0.7445  0.9584
 1002SOL    HW2 4746   2.615   2.153   7.311  0.5654  1.7753 -0.9818
 1003SOL     OW 4747   5.523   0.173   2.318 -0.5563 -0.1913  0.1471
 1003SOL    HW1 4748   5.532   0.089   2.272 -1.0275 -1.7041  2.6116
 1003SOL    HW2 4749   5.589   0.169   2.388 -0.3156  1.6953  0.0614
 1004SOL     OW 4750   2.880   7.034   5.416  0.4204 -0.0200 -0.1697
 1004SOL    HW1 4751   2.802   7.033   5.471  0.7552 -2.2466  0.3448
 1004SOL    HW2 4752   2.847   7.030   5.327 -0.0699 -1.6458  0.0631
 1005SOL     OW 4753   8.520   7.137   5.270 -0.1830  0.1621 -0.2054
 1005SOL    HW1 4754   8.446   7.081   5.245  0.8029 -0.7719 -1.1310
 1005SOL    HW2 4755   8.499   7.223   5.234 -2.2188  0.7723  2.1165
 1006SOL     OW 4756   7.656   0.569   6.592  0.7574 -0.1682  0.6248
 1006SOL    HW1 4757   7.740   0.577   6.548  0.7238 -1.3254  0.3213
 1006SOL    HW2 4758   7.659   0.634   6.662  0.3302  2.6192 -1.7515
 1007SOL     OW 4759   3.079   9.589   4.816 -0.2965 -0.1697 -0.5363
 1007SOL    HW1 4760   3.107   9.542   4.894  0.3364  1.4145  0.2446
 1007SOL    HW2 4761   3.010   9.535   4.778 -0.6960 -0.9368  1.1849
 1008SOL     OW 4762   7.190   5.602   2.969  0.5206  0.2349 -0.1698
 1008SOL    HW1 4763   7.158   5.517   2.939 -0.2577  0.3748  0.2165
 1008SOL    HW2 4764   7.115   5.661   2.957  1.3925  1.1464 -1.5375
 1009SOL     OW 4765   9.232   9.545   6.963 -0.1480  0.2336  0.3092
 1009SOL    HW1 4766   9.281   9.600   7.023 -0.1113  1.5086 -0.8262
 1009SOL    HW2 4767   9.231   9.459   7.004  1.1321  0.7086  1.4019
 1010SOL     OW 4768   6.842   3.209   0.060 -0.1341 -0.0930  0.3144
 1010SOL    HW1 4769   6.831   3.172   0.148 -0.0449 -1.4567 -0.2206
 1010SOL    HW2 4770   6.793   3.150   0.003  0.9912 -0.0503 -0.7363
 1011SOL     OW 4771   5.567   4.376   7.223  0.1910 -0.0650 -0.1279
 1011SOL    HW1 4772   5.620   4.386   7.144  1.3268  0.0914  0.6267
 1011SOL    HW2 4773   5.480   4.407   7.198  0.0324 -1.7212 -1.8329
 1012SOL     OW 4774   6.484   3.297   2.329  0.0818  0.3998 -0.5990
 1012SOL    HW1 4775   6.518   3.320   2.242 -0.3821  0.4000 -0.7805
 1012SOL    HW2 4776   6.413   3.235   2.311 -0.0763  0.4704 -0.2210
 1013SOL     OW 4777   1.826   3.867   2.362  0.0471  0.1940 -0.0629
 1013SOL    HW1 4778   1.805   3.783   2.404 -1.2058  0.8957  0.7709
 1013SOL    HW2 4779   1.741   3.906   2.342  0.6171  1.1835 -0.6362
 1014SOL     OW 4780   6.949   6.075   5.948 -0.0187  0.5280 -0.7566
 1014SOL    HW1 4781   7.011   6.128   5.998 -0.5587  0.7830 -0.3458
 1014SOL    HW2 4782   7.003   6.026   5.886  0.5816  0.7993 -0.4508
 1015SOL     OW 4783   4.031   8.760   5.423 -0.3210  0.2223 -0.1329
 1015SOL    HW1 4784   3.960   8.784   5.482  1.7927  0.8212  2.3406
 1015SOL    HW2 4785   4.110   8.787   5.468  1.7177 -2.9453 -1.4488
 1016SOL     OW 4786   5.234   4.336   1.297  0.6954  0.3584 -0.0782
 1016SOL    HW1 4787   5.299   4.272   1.268  0.6919 -0.0266  0.7401
 1016SOL    HW2 4788   5.285   4.412   1.324  0.6643  1.0126 -1.7419
 1017SOL     OW 4789   2.804   8.263   1.695 -0.2886  0.0304  0.7702
 1017SOL    HW1 4790   2.718   8.269   1.737 -0.8577  1.3962 -0.4712
 1017SOL    HW2 4791   2.853   8.200   1.748 -1.5790  0.2700  2.3278
 1018SOL     OW 4792   3.979   0.872   8.154  0.5526 -0.0848 -0.0406
 1018SOL    HW1 4793   4.001   0.915   8.071 -2.4361  0.3766 -0.6929
 1018SOL    HW2 4794   3.973   0.944   8.217  0.1312 -0.1167 -0.0464
 1019SOL     OW 4795   7.428   2.912   0.246  0.2340 -0.2386 -0.4346
 1019SOL    HW1 4796   7.360   2.882   0.186 -0.5695 -0.1722  0.4253
 1019SOL    HW2 4797   7.488   2.838   0.254  0.0146 -0.4603 -0.8222
 1020SOL     OW 4798   5.923   9.148   0.857  0.5192  0.1316  0.2188
 1020SOL    HW1 4799   5.954   9.216   0.917 -0.5297 -0.1239  1.0695
 1020SOL    HW2 4800   5.893   9.077   0.914 -1.7686  0.4321 -0.5268
 1021SOL     OW 4801   7.474   2.493   6.348  0.2236 -0.2580 -0.6074
 1021SOL    HW1 4802   7.469   2.403   6.316  1.4240 -0.7134  0.4004
 1021SOL    HW2 4803   7.384   2.516   6.368 -0.3250 -0.6089 -2.4804
 1022SOL     OW 4804   4.196   9.566   9.367 -0.0199 -0.0370  0.2848
 1022SOL    HW1 4805   4.107   9.534   9.358  0.0401  0.1286 -1.2228
 1022SOL    HW2 4806   4.193   9.629   9.438 -1.4081  0.9647 -0.6227
 1023SOL     OW 4807   2.846   3.701   1.692  0.2288 -0.4908  0.1361
 1023SOL    HW1 4808   2.862   3.769   1.757  1.1546 -0.6738  0.1179
 1023SOL    HW2 4809   2.850   3.619   1.741  0.2942 -0.5945 -0.0422
 1024SOL     OW 4810   7.325   5.719   6.458 -0.1440  0.0014 -0.1294
 1024SOL    HW1 4811   7.315   5.676   6.543 -0.5007  0.2662 -0.0321
 1024SOL    HW2 4812   7.366   5.653   6.402  0.1553 -0.1520  0.2669
 1025SOL     OW 4813   2.449   3.796   8.254 -0.1481 -0.0783  0.1072
 1025SOL    HW1 4814   2.413   3.769   8.170 -0.0540 -0.6149  0.2384
 1025SOL    HW2 4815   2.423   3.727   8.315 -0.4693  0.4519  0.5822
 1026SOL     OW 4816   5.983   3.821   4.797  0.8692  0.4807  0.0712
 1026SOL    HW1 4817   6.047   3.843   4.730  1.4283 -3.9332 -1.1593
 1026SOL    HW2 4818   6.036   3.800   4.874  0.5934  0.6033  0.2956
 1027SOL     OW 4819   0.594   7.497   5.905  0.0290  0.0921 -0.5237
 1027SOL    HW1 4820   0.592   7.588   5.934  0.4532  0.3600 -1.2992
 1027SOL    HW2 4821   0.686   7.472   5.910 -0.2463 -0.7729  1.0506
 1028SOL     OW 4822   4.971   1.283   2.907 -0.8492 -0.3310 -0.2121
 1028SOL    HW1 4823   4.972   1.188   2.906  0.4042 -0.3466 -0.1660
 1028SOL    HW2 4824   4.913   1.307   2.979  2.1132 -1.1702  2.6998
 1029SOL     OW 4825   9.243   3.320   1.511  0.0453  0.0016 -0.4371
 1029SOL    HW1 4826   9.320   3.263   1.507 -0.0990 -0.1379 -1.6254
 1029SOL    HW2 4827   9.177   3.267   1.557  0.2708 -0.3498 -0.5158
 1030SOL     OW 4828   9.457   9.513   7.881  0.3096  0.2000  0.1306
 1030SOL    HW1 4829   9.364   9.519   7.900  0.0712 -1.4537 -0.3019
 1030SOL    HW2 4830   9.493   9.461   7.953  0.1789 -2.3212 -1.4592
 1031SOL     OW 4831   3.065   6.216   5.289 -0.6183  0.0708 -0.3111
 1031SOL    HW1 4832   3.078   6.295   5.340 -0.0045 -0.3658  0.2200
 1031SOL    HW2 4833   2.972   6.195   5.302 -0.6033  0.2785  0.1615
 1032SOL     OW 4834   1.167   1.707   4.406  0.4561  0.1813 -0.0724
 1032SOL    HW1 4835   1.195   1.790   4.367 -2.4182  1.5794  0.5677
 1032SOL    HW2 4836   1.183   1.718   4.499 -1.7767  0.9330  0.2815
 1033SOL     OW 4837   1.888   5.565   2.085 -0.1977 -0.5295 -0.8259
 1033SOL    HW1 4838   1.951   5.611   2.029 -1.3728  1.2914 -0.7243
 1033SOL    HW2 4839   1.887   5.615   2.167 -1.3687 -0.8346 -0.6344
 1034SOL     OW 4840   5.976   2.245   4.748 -0.0391  0.1952  0.2344
 1034SOL    HW1 4841   5.940   2.309   4.809  0.9925  1.0422 -0.0019
 1034SOL    HW2 4842   6.038   2.295   4.695 -0.5421 -0.6211 -1.1849
 1035SOL     OW 4843   8.892   6.955   5.971  0.1368  0.1483 -0.0737
 1035SOL    HW1 4844   8.987   6.958   5.962  0.1234  0.4785 -0.1361
 1035SOL    HW2 4845   8.859   6.946   5.882  0.0949  0.5938 -0.1079
 1036SOL     OW 4846   3.901   0.064   3.459  0.0805  0.0952  0.4001
 1036SOL    HW1 4847   3.869  -0.004   3.518  1.0039 -0.3409  0.4168
 1036SOL    HW2 4848   3.988   0.086   3.493 -0.0348  0.9996  0.1536
 1037SOL     OW 4849   7.375   9.545   0.570  0.4083  0.2258 -0.1933
 1037SOL    HW1 4850   7.415   9.477   0.516  1.3107  1.4552 -1.1438
 1037SOL    HW2 4851   7.281   9.532   0.559  0.5691 -0.6547 -0.6072
 1038SOL     OW 4852   1.265   8.265   2.417 -0.6506 -0.5909 -0.2923
 1038SOL    HW1 4853   1.258   8.172   2.396 -2.5776 -0.4359 -0.5090
 1038SOL    HW2 4854   1.181   8.302   2.390 -0.6886  0.8508  1.5697
 1039SOL     OW 4855   2.968   7.424   1.008  0.0450  0.1516 -0.6122
 1039SOL    HW1 4856   2.903   7.420   1.077  0.6757 -0.7898 -0.0462
 1039SOL    HW2 4857   2.994   7.516   1.004 -1.8275  0.6841 -1.3625
 1040SOL     OW 4858   3.861   3.044   9.350 -0.4983  0.2602  0.2817
 1040SOL    HW1 4859   3.836   2.975   9.412 -0.5821 -1.5001 -1.5874
 1040SOL    HW2 4860   3.785   3.051   9.292  0.4792  0.1260 -1.0429
 1041SOL     OW 4861   3.751   4.111   0.284  0.1418  0.5138  0.2285
 1041SOL    HW1 4862   3.777   4.197   0.253  0.6381  0.0425 -0.7015
 1041SOL    HW2 4863   3.672   4.090   0.234  1.0399 -0.3215 -0.9014
 1042SOL     OW 4864   7.523   5.233   0.228 -0.1691 -0.4602  0.7299
 1042SOL    HW1 4865   7.478   5.150   0.243 -0.1585 -0.6863 -0.3954
 1042SOL    HW2 4866   7.609   5.222   0.269  0.3870 -1.5674 -0.6563
 1043SOL     OW 4867   9.009   4.219   1.047 -0.0084 -0.3175  0.2894
 1043SOL    HW1 4868   9.067   4.198   1.120 -2.3261 -1.2257  1.9584
 1043SOL    HW2 4869   9.012   4.315   1.041 -0.2037 -0.1909  1.9557
 1044SOL     OW 4870   9.451   1.883   7.588  0.1879  0.3129 -0.2403
 1044SOL    HW1 4871   9.370   1.925   7.559  0.0870  0.5826  0.4017
 1044SOL    HW2 4872   9.515   1.954   7.591  0.1700  0.3140  0.2746
 1045SOL     OW 4873   2.226   1.683   4.061  0.0515  0.0360  0.2014
 1045SOL    HW1 4874   2.318   1.686   4.088 -0.1145 -0.4661  0.8500
 1045SOL    HW2 4875   2.219   1.604   4.007 -0.1968 -0.4811  0.9650
 1046SOL     OW 4876   2.469   5.124   4.307 -0.3222 -0.0078 -0.5576
 1046SOL    HW1 4877   2.464   5.190   4.376 -1.0502 -0.3099 -0.3110
 1046SOL    HW2 4878   2.381   5.123   4.269  0.4525  1.2591 -2.5455
 1047SOL     OW 4879   2.558   3.899   5.492  0.5584 -0.6243  0.0100
 1047SOL    HW1 4880   2.610   3.819   5.498  1.3968 -0.2157 -1.3516
 1047SOL    HW2 4881   2.623   3.969   5.479 -0.1591  0.2773  1.0660
 1048SOL     OW 4882   6.876   8.333   8.417 -0.4694  0.4397 -0.6596
 1048SOL    HW1 4883   6.857   8.259   8.476  0.9312  1.2971  0.9735
 1048SOL    HW2 4884   6.797   8.343   8.365 -1.4224 -1.0029  0.4119
 1049SOL     OW 4885   3.879   8.569   1.240 -0.5159  0.1655 -0.3126
 1049SOL    HW1 4886   3.847   8.559   1.329  0.0384 -0.5448 -0.1825
 1049SOL    HW2 4887   3.927   8.651   1.240 -1.2023  0.5698 -0.1706
 1050SOL     OW 4888   6.409   8.170   3.116 -0.2002  0.2108 -0.0898
 1050SOL    HW1 4889   6.329   8.173   3.064  0.7031 -0.0897 -1.5525
 1050SOL    HW2 4890   6.446   8.258   3.109  0.6135 -0.1937 -1.1167
 1051SOL     OW 4891   5.370   2.213   2.569  0.6888 -0.2483  0.4766
 1051SOL    HW1 4892   5.393   2.277   2.636 -2.0359 -0.2322  1.5158
 1051SOL    HW2 4893   5.384   2.128   2.611  0.2209 -0.2604  0.6086
 1052SOL     OW 4894   7.134   6.192   6.810 -0.2082 -0.4011  0.5157
 1052SOL    HW1 4895   7.194   6.266   6.796  0.2388 -0.7023  0.8366
 1052SOL    HW2 4896   7.047   6.232   6.811  0.0553  0.1770  1.0844
 1053SOL     OW 4897   5.369   3.575   1.302 -0.3079  0.2048 -0.2415
 1053SOL    HW1 4898   5.351   3.607   1.391  1.5440  0.5834  0.0371
 1053SOL    HW2 4899   5.460   3.545   1.306 -1.4269 -3.8855 -0.8474
 1054SOL     OW 4900   2.817   4.507   1.453  0.6460  0.1308  0.4612
 1054SOL    HW1 4901   2.911   4.525   1.462  0.6095 -0.3202  1.9902
 1054SOL    HW2 4902   2.776   4.559   1.522 -0.1752 -0.1660  0.2016
 1055SOL     OW 4903   1.933   7.036   6.377 -0.1569  0.3037  0.5190
 1055SOL    HW1 4904   1.980   7.102   6.326 -0.0691 -0.6338 -0.6542
 1055SOL    HW2 4905   1.852   7.079   6.403 -0.1792  0.8294 -0.3749
 1056SOL     OW 4906   6.627   3.628   3.744  0.2021  0.2670  0.3537
 1056SOL    HW1 4907   6.660   3.672   3.823  0.8203  0.4446  0.0066
 1056SOL    HW2 4908   6.535   3.652   3.739  0.1401  0.2052  1.0552
 1057SOL     OW 4909   1.264   1.743   1.322 -0.0250  0.1324 -0.4897
 1057SOL    HW1 4910   1.351   1.726   1.286 -0.4328 -1.0825 -0.9390
 1057SOL    HW2 4911   1.211   1.767   1.246 -0.9497 -2.6685 -0.8232
 1058SOL     OW 4912   6.710   1.890   8.741 -0.0972  0.2614 -0.1536
 1058SOL    HW1 4913   6.683   1.956   8.677 -0.1787 -1.8919 -2.5045
 1058SOL    HW2 4914   6.796   1.861   8.710 -0.1613 -0.8858  0.7015
 1059SOL     OW 4915   9.467   8.904   7.995 -0.2970  0.2356 -0.1600
 1059SOL    HW1 4916   9.443   8.811   7.989  1.3556 -0.3576  1.6730
 1059SOL    HW2 4917   9.456   8.926   8.087 -0.5975  1.8690 -0.5581
 1060SOL     OW 4918   4.042   6.636   9.375 -0.3810 -0.0690 -0.4356
 1060SOL    HW1 4919   4.056   6.570   9.308  1.1583 -0.3227  0.0960
 1060SOL    HW2 4920   4.111   6.701   9.359 -0.0077 -0.1160  0.8468
 1061SOL     OW 4921   4.991   6.924   3.293 -0.7567  0.0506 -0.2574
 1061SOL    HW1 4922   4.914   6.874   3.322 -1.8500  1.2203 -1.0140
 1061SOL    HW2 4923   5.056   6.857   3.271 -2.4506 -1.1526 -2.0427
 1062SOL     OW 4924   8.684   5.273   3.524 -0.0965 -0.0247 -0.0093
 1062SOL    HW1 4925   8.741   5.308   3.593  0.4726  1.9979 -1.4255
 1062SOL    HW2 4926   8.605   5.327   3.528 -1.5766 -2.0948  1.2066
 1063SOL     OW 4927   9.136   9.064   9.246  0.1815  0.2791 -0.2175
 1063SOL    HW1 4928   9.191   8.993   9.212  1.2077  0.7703  0.3814
 1063SOL    HW2 4929   9.194   9.116   9.300 -0.8393  0.9393  0.2762
 1064SOL     OW 4930   8.047   1.346   1.538  0.2691 -0.0579 -0.0869
 1064SOL    HW1 4931   8.017   1.312   1.622  1.5130 -0.3389  0.2603
 1064SOL    HW2 4932   8.015   1.282   1.474  0.6713 -0.6976  0.3369
 1065SOL     OW 4933   0.503   3.760   1.206 -0.1733  0.3350 -0.4431
 1065SOL    HW1 4934   0.568   3.707   1.252 -1.3770  0.2292  1.2187
 1065SOL    HW2 4935   0.487   3.834   1.264 -2.8144 -0.5435  0.0853
 1066SOL     OW 4936   4.626   4.635   8.743 -0.0085 -0.1873 -0.6615
 1066SOL    HW1 4937   4.543   4.591   8.764  0.4494 -1.0328 -0.5734
 1066SOL    HW2 4938   4.644   4.689   8.820 -0.5439  0.1139 -0.7408
 1067SOL     OW 4939   6.213   0.612   5.087  0.2261 -0.4154  0.1902
 1067SOL    HW1 4940   6.255   0.667   5.153 -0.9356 -0.9106  1.3909
 1067SOL    HW2 4941   6.270   0.619   5.010  0.7626  1.4576  0.7099
 1068SOL     OW 4942   4.002   3.843   2.893  0.5464  0.6835 -0.2130
 1068SOL    HW1 4943   3.958   3.896   2.826  1.1526  0.6262 -0.6591
 1068SOL    HW2 4944   4.089   3.882   2.900  0.9669 -0.1972 -0.4774
 1069SOL     OW 4945   0.422   2.804   3.188 -0.5736  0.4590  0.3152
 1069SOL    HW1 4946   0.375   2.723   3.167  0.6907 -0.4535  0.8388
 1069SOL    HW2 4947   0.411   2.859   3.111 -3.9067  1.0077  1.0665
 1070SOL     OW 4948   4.453   5.961   0.122  0.1582 -0.1350 -0.4113
 1070SOL    HW1 4949   4.365   5.981   0.089 -0.1786 -1.5852 -0.4746
 1070SOL    HW2 4950   4.446   5.972   0.217 -0.3312 -0.9738 -0.3327
 1071SOL     OW 4951   8.981   3.232   2.015 -0.0629 -0.4057 -0.0778
 1071SOL    HW1 4952   8.990   3.159   2.076  0.3920 -0.6109 -0.3883
 1071SOL    HW2 4953   9.069   3.247   1.982 -0.1197  0.3971  0.1077
 1072SOL     OW 4954   2.527   7.776   8.357 -0.4080 -0.0691 -0.2920
 1072SOL    HW1 4955   2.520   7.789   8.263  1.0845  0.2838 -0.3861
 1072SOL    HW2 4956   2.591   7.705   8.366  0.4493  0.7657  0.4581
 1073SOL     OW 4957   3.415   2.830   8.985  0.4090  0.5537  0.0245
 1073SOL    HW1 4958   3.455   2.904   8.940  0.5610  0.9733  0.8221
 1073SOL    HW2 4959   3.475   2.813   9.059  1.0227 -1.1226 -0.8124
 1074SOL     OW 4960   4.410   5.673   3.277  0.4861 -0.1508  0.8882
 1074SOL    HW1 4961   4.431   5.739   3.343  1.4819 -0.0586  0.5044
 1074SOL    HW2 4962   4.495   5.643   3.246  0.1276 -3.0031  2.3864
 1075SOL     OW 4963   4.003   2.832   5.036 -0.6451  0.2360  0.4235
 1075SOL    HW1 4964   4.043   2.872   4.958 -0.3751 -1.3575 -0.2845
 1075SOL    HW2 4965   3.912   2.817   5.010 -0.8740  0.8147  0.8651
 1076SOL     OW 4966   2.375   1.274   0.476  0.5652 -0.2456 -0.1135
 1076SOL    HW1 4967   2.314   1.201   0.485  0.6132 -0.2480  0.1835
 1076SOL    HW2 4968   2.356   1.309   0.389  1.8607 -1.8165 -1.0880
 1077SOL     OW 4969   3.178   1.560   9.118 -0.0840  0.2114 -0.0884
 1077SOL    HW1 4970   3.212   1.471   9.116  0.0669  0.2703 -0.2733
 1077SOL    HW2 4971   3.083   1.550   9.112 -0.1116  0.0386  0.6421
 1078SOL     OW 4972   7.192   6.455   5.012  0.1357  0.1993  0.2638
 1078SOL    HW1 4973   7.177   6.535   5.061 -0.4000  0.3823 -0.1967
 1078SOL    HW2 4974   7.255   6.406   5.065  1.4298  1.4649 -0.0386
 1079SOL     OW 4975   5.462   8.584   3.590 -0.0809  0.0546  0.4466
 1079SOL    HW1 4976   5.487   8.676   3.600  1.8937 -0.2323 -1.1657
 1079SOL    HW2 4977   5.537   8.536   3.624 -0.4335 -0.9425 -0.1611
 1080SOL     OW 4978   8.473   3.986   9.353 -0.2150  0.5401 -0.5536
 1080SOL    HW1 4979   8.569   3.990   9.349 -0.0811  1.5405  1.8916
 1080SOL    HW2 4980   8.445   4.074   9.328 -0.3792  0.7934  0.4972
 1081SOL     OW 4981   6.922   6.403   2.360 -0.1193  1.1382 -0.4311
 1081SOL    HW1 4982   6.890   6.313   2.363  1.1540  0.6937  1.0161
 1081SOL    HW2 4983   6.931   6.422   2.266 -1.5837  0.2290 -0.7861
 1082SOL     OW 4984   2.281   7.228   0.806  0.2842 -0.2822  0.0481
 1082SOL    HW1 4985   2.247   7.138   0.806 -0.3373 -0.0582 -0.4582
 1082SOL    HW2 4986   2.325   7.237   0.890 -0.8864 -0.6042  0.7135
 1083SOL     OW 4987   7.050   3.656   9.468 -0.3762 -0.1303  0.2066
 1083SOL    HW1 4988   7.051   3.574   9.517 -0.4158  0.3819  1.0825
 1083SOL    HW2 4989   7.002   3.636   9.387 -1.9759 -0.5248  1.2124
 1084SOL     OW 4990   7.167   0.886   2.163 -0.2165  0.3979  0.3342
 1084SOL    HW1 4991   7.086   0.900   2.213  0.2539 -1.2816  1.6645
 1084SOL    HW2 4992   7.177   0.791   2.160  1.6055  0.5645  0.0066
 1085SOL     OW 4993   9.605   5.781   2.371  0.2614  0.0443 -0.2986
 1085SOL    HW1 4994   9.609   5.786   2.467 -0.0636  0.0513 -0.2840
 1085SOL    HW2 4995   9.672   5.716   2.348  0.8673  0.5893 -0.1227
 1086SOL     OW 4996   5.864   7.272   5.829  0.0886  0.0926  0.4590
 1086SOL    HW1 4997   5.801   7.342   5.812 -2.1054 -1.1289  2.8254
 1086SOL    HW2 4998   5.841   7.240   5.916  4.3875 -0.1002  1.7671
 1087SOL     OW 4999   2.194   4.926   3.082 -0.2086 -0.0298 -0.0145
 1087SOL    HW1 5000   2.249   4.909   3.158 -1.6091  1.7007  1.4883
 1087SOL    HW2 5001   2.215   5.017   3.058  0.1913 -0.5407 -1.7133
 1088SOL     OW 5002   1.007   5.812   0.800  0.2213  0.6843  0.2748
 1088SOL    HW1 5003   0.957   5.731   0.788  0.0658  0.9435 -1.0163
 1088SOL    HW2 5004   0.944   5.882   0.786 -0.2180  1.1478  3.7363
 1089SOL     OW 5005   7.508   2.465   1.515  0.2131  0.6263 -0.1966
 1089SOL    HW1 5006   7.414   2.454   1.532  0.0528  1.5380 -0.4300
 1089SOL    HW2 5007   7.524   2.416   1.435 -0.4649  1.9708 -1.1944
 1090SOL     OW 5008   3.294   2.962   4.468  0.5869  0.0128 -0.2232
 1090SOL    HW1 5009   3.230   2.900   4.502  0.0419  0.3079 -0.7010
 1090SOL    HW2 5010   3.354   2.977   4.541 -0.0509 -0.0466  0.3179
 1091SOL     OW 5011   1.186   5.962   8.198  0.1112 -0.2380  0.1173
 1091SOL    HW1 5012   1.172   6.002   8.284 -0.0088 -0.8924  0.4065
 1091SOL    HW2 5013   1.229   6.031   8.146  0.9108 -0.0919  0.9412
 1092SOL     OW 5014   4.168   4.183   2.194  0.6331 -0.0947  0.1776
 1092SOL    HW1 5015   4.134   4.093   2.194  1.6429 -0.4878  0.4722
 1092SOL    HW2 5016   4.104   4.232   2.246  1.2331 -1.1157  1.9848
 1093SOL     OW 5017   6.135   5.899   4.990  0.6194 -0.1440 -0.8865
 1093SOL    HW1 5018   6.085   5.967   5.036  0.3188 -0.4602 -0.7380
 1093SOL    HW2 5019   6.176   5.848   5.060  1.6085  0.4495 -1.0244
 1094SOL     OW 5020   3.519   4.981   8.359  0.3737  0.3398 -0.3487
 1094SOL    HW1 5021   3.463   5.022   8.425  1.1191 -0.1720  0.6252
 1094SOL    HW2 5022   3.537   5.050   8.296  1.5413  1.5182  1.2163
 1095SOL     OW 5023   2.939   6.087   6.652  0.0379  0.1117  0.3912
 1095SOL    HW1 5024   2.869   6.127   6.703 -0.3889 -0.1365  0.0050
 1095SOL    HW2 5025   2.995   6.045   6.718 -0.6589 -0.4475  0.6480
 1096SOL     OW 5026   1.395   2.140   4.379  0.7402  0.2359 -0.0510
 1096SOL    HW1 5027   1.476   2.132   4.429  1.7071  0.4002 -1.5190
 1096SOL    HW2 5028   1.360   2.226   4.402 -0.2098 -0.6799  2.2198
 1097SOL     OW 5029   4.673   2.874   7.617 -0.1860  0.4597  0.2979
 1097SOL    HW1 5030   4.734   2.897   7.547  0.8504 -0.2488  0.9416
 1097SOL    HW2 5031   4.608   2.944   7.616  0.4709  1.0866 -0.5919
 1098SOL     OW 5032   8.244   3.493   4.279  0.2009 -0.0896  0.2103
 1098SOL    HW1 5033   8.232   3.575   4.327  2.0694  0.2910  0.1065
 1098SOL    HW2 5034   8.291   3.519   4.200  1.8326 -1.3895  0.7108
 1099SOL     OW 5035   5.186   5.875   3.499 -0.4218 -0.2094  0.4929
 1099SOL    HW1 5036   5.252   5.877   3.429 -0.3409 -1.5735  0.5076
 1099SOL    HW2 5037   5.213   5.803   3.556 -1.5798 -0.3988  0.8358
 1100SOL     OW 5038   3.975   5.605   4.056  0.4078 -0.0480  0.4300
 1100SOL    HW1 5039   4.046   5.578   3.998  2.0553  0.5923  2.0571
 1100SOL    HW2 5040   3.952   5.525   4.105  0.5600 -0.0737  0.4594
 1101SOL     OW 5041   8.387   8.149   1.993 -0.2157 -0.6521 -0.0929
 1101SOL    HW1 5042   8.355   8.146   1.903 -1.2676  0.6911  0.2069
 1101SOL    HW2 5043   8.333   8.084   2.039  0.4776 -1.5073 -0.4441
 1102SOL     OW 5044   5.821   6.275   4.319  0.0689  0.3091 -0.0009
 1102SOL    HW1 5045   5.872   6.270   4.400  0.2020  0.7427 -0.0531
 1102SOL    HW2 5046   5.816   6.369   4.301  2.1183  0.1431 -1.7916
 1103SOL     OW 5047   3.087   3.605   1.522  0.5061  0.1552 -0.4015
 1103SOL    HW1 5048   3.074   3.531   1.462  0.8454 -0.7520  0.6120
 1103SOL    HW2 5049   3.025   3.588   1.594 -0.3341  1.5461 -0.7596
 1104SOL     OW 5050   5.178   3.423   0.492 -0.0561  0.3548  0.8010
 1104SOL    HW1 5051   5.124   3.401   0.416 -1.3256 -0.4148  1.8781
 1104SOL    HW2 5052   5.145   3.507   0.522 -1.7074 -0.7432  2.2871
 1105SOL     OW 5053   2.895   1.625   0.019 -0.5604  0.7557  0.0075
 1105SOL    HW1 5054   2.947   1.633  -0.060  1.4561 -2.1762  0.8701
 1105SOL    HW2 5055   2.936   1.684   0.082  0.9344 -0.4576  0.2327
 1106SOL     OW 5056   6.008   5.376   6.298  0.1142 -0.1272  0.3136
 1106SOL    HW1 5057   6.072   5.390   6.368  0.1544  0.3852  0.1766
 1106SOL    HW2 5058   6.010   5.282   6.282 -0.1487 -0.3019  1.2484
 1107SOL     OW 5059   8.692   3.136   0.595  0.5062 -0.0240 -0.2896
 1107SOL    HW1 5060   8.678   3.132   0.689  1.8629 -2.6615 -0.0985
 1107SOL    HW2 5061   8.675   3.227   0.571  0.0098  0.6728  2.4526
 1108SOL     OW 5062   6.921   6.939   1.675 -0.3953 -0.1849 -0.3522
 1108SOL    HW1 5063   6.976   6.933   1.753 -0.1027 -1.0565 -0.6138
 1108SOL    HW2 5064   6.881   6.852   1.667  0.4884 -0.4902 -1.8251
 1109SOL     OW 5065   7.246   5.963   4.532 -0.0385  0.0228  0.0546
 1109SOL    HW1 5066   7.202   5.972   4.617  0.5674  1.3450  0.2615
 1109SOL    HW2 5067   7.282   6.050   4.515  1.4371 -0.6993 -0.6911
 1110SOL     OW 5068   4.703   1.209   8.057  0.4226 -0.7393 -0.5704
 1110SOL    HW1 5069   4.705   1.120   8.092  0.5852 -0.9100 -0.9993
 1110SOL    HW2 5070   4.794   1.230   8.038  0.4629 -0.2122  0.1820
 1111SOL     OW 5071   2.920   8.394   3.254 -0.2736  0.7315  0.0188
 1111SOL    HW1 5072   2.981   8.327   3.224 -0.8860 -0.1153  0.6235
 1111SOL    HW2 5073   2.966   8.477   3.238  0.5574  0.1708 -0.5909
 1112SOL     OW 5074   4.366   9.004   4.854  0.4590  0.0712 -0.4529
 1112SOL    HW1 5075   4.361   9.077   4.792 -1.0671  1.7621  1.5354
 1112SOL    HW2 5076   4.277   8.971   4.859  0.7909 -0.7539  0.0330
 1113SOL     OW 5077   1.119   9.016   1.289 -0.2993 -0.0695  0.1508
 1113SOL    HW1 5078   1.152   9.103   1.310 -2.9300  1.2205 -0.7133
 1113SOL    HW2 5079   1.106   9.017   1.195 -0.6468 -1.3095  0.1652
 1114SOL     OW 5080   0.339   6.962   4.786  0.1427  0.4301 -0.1162
 1114SOL    HW1 5081   0.262   6.916   4.819  1.4465 -1.1276  0.9717
 1114SOL    HW2 5082   0.404   6.951   4.856  1.4052  1.5133 -1.0770
 1115SOL     OW 5083   7.967   2.782   6.139 -0.3549  0.2751  0.3706
 1115SOL    HW1 5084   7.999   2.868   6.165 -1.9713  1.0535 -0.0641
 1115SOL    HW2 5085   7.942   2.739   6.220 -1.2842  0.9697  0.4660
 1116SOL     OW 5086   1.110   1.510   4.094 -0.2404  0.1654 -0.2957
 1116SOL    HW1 5087   1.053   1.448   4.050  0.8437 -0.0612 -1.4545
 1116SOL    HW2 5088   1.105   1.589   4.041  2.5131 -0.6906 -2.0788
 1117SOL     OW 5089   6.098   4.281   3.519  0.3666 -0.1959 -0.3738
 1117SOL    HW1 5090   6.039   4.325   3.457  2.0224  2.8257  0.0206
 1117SOL    HW2 5091   6.159   4.233   3.464  0.2579  0.3398 -0.9708
 1118SOL     OW 5092   2.379   3.029   7.506 -0.6537 -0.4561 -0.5199
 1118SOL    HW1 5093   2.334   3.066   7.431 -0.7513 -0.5939 -0.5299
 1118SOL    HW2 5094   2.406   3.105   7.558  0.0454 -0.3366 -1.0551
 1119SOL     OW 5095   5.314   6.144   5.845 -0.0649 -0.4110  0.5877
 1119SOL    HW1 5096   5.234   6.142   5.897  0.2516  0.1872  1.1155
 1119SOL    HW2 5097   5.369   6.076   5.885  0.4556  0.5229  1.5261
 1120SOL     OW 5098   3.896   3.463   2.502 -0.4582  0.2637  0.0924
 1120SOL    HW1 5099   3.946   3.513   2.566 -0.6241 -0.7138  1.0124
 1120SOL    HW2 5100   3.916   3.505   2.418  1.2961  0.4019  0.5295
 1121SOL     OW 5101   6.416   6.185   7.085  0.2220 -0.0066 -0.0143
 1121SOL    HW1 5102   6.431   6.271   7.046 -1.4167 -1.2084 -3.6669
 1121SOL    HW2 5103   6.321   6.174   7.086  0.3897 -2.0935 -0.5590
 1122SOL     OW 5104   7.289   0.068   7.350  0.4507  0.2340 -0.3228
 1122SOL    HW1 5105   7.223   0.124   7.311  0.1893 -0.7421 -1.3312
 1122SOL    HW2 5106   7.324   0.119   7.423 -1.2229  0.8610  0.0680
 1123SOL     OW 5107   1.286   3.952   6.616 -0.0448  0.3103 -0.3295
 1123SOL    HW1 5108   1.276   4.040   6.579 -1.2070  0.2925 -0.1000
 1123SOL    HW2 5109   1.297   3.966   6.710  0.8252  0.2548 -0.4182
 1124SOL     OW 5110   8.627   6.901   5.161  0.5594 -0.3252  0.0927
 1124SOL    HW1 5111   8.615   6.982   5.211  2.0403  1.7301 -2.5856
 1124SOL    HW2 5112   8.682   6.927   5.087 -0.2792 -3.4567 -1.8156
 1125SOL     OW 5113   7.879   7.954   5.651  0.7016 -0.2947 -0.0276
 1125SOL    HW1 5114   7.906   7.922   5.565  0.6781  1.1588 -0.6100
 1125SOL    HW2 5115   7.942   7.915   5.711 -0.4899 -2.9962 -0.3807
 1126SOL     OW 5116   9.032   8.445   6.538 -0.1948 -0.3834  0.5238
 1126SOL    HW1 5117   9.092   8.472   6.607  2.5321 -1.3130 -1.2983
 1126SOL    HW2 5118   8.988   8.368   6.573 -0.8816  0.7088  2.1595
 1127SOL     OW 5119   5.977   7.071   8.284  0.1654  0.5253  0.0815
 1127SOL    HW1 5120   6.068   7.094   8.302 -0.2551  1.3069  1.3377
 1127SOL    HW2 5121   5.968   6.981   8.316  1.4167 -1.0773 -3.4680
 1128SOL     OW 5122   7.728   4.758   8.778  0.0482 -0.3260 -0.4246
 1128SOL    HW1 5123   7.811   4.742   8.823  0.2557 -0.8623 -0.9992
 1128SOL    HW2 5124   7.730   4.702   8.701 -2.5632 -3.5835  1.5665
 1129SOL     OW 5125   1.293   3.241   0.400  0.1952 -0.0729  0.0007
 1129SOL    HW1 5126   1.292   3.285   0.485  0.1950  1.1716 -0.6123
 1129SOL    HW2 5127   1.300   3.313   0.337  2.3230 -1.0553 -0.9795
 1130SOL     OW 5128   3.716   1.416   5.053 -0.7302 -0.8881  0.4744
 1130SOL    HW1 5129   3.642   1.472   5.029 -0.7395 -1.0433  0.1357
 1130SOL    HW2 5130   3.745   1.450   5.138 -0.5953 -0.2198  0.1729
 1131SOL     OW 5131   2.468   0.443   4.930 -0.4143  0.3680  0.0795
 1131SOL    HW1 5132   2.487   0.508   4.997  1.8961  0.7203 -0.8069
 1131SOL    HW2 5133   2.417   0.489   4.864  0.7026  1.1631 -0.2567
 1132SOL     OW 5134   1.961   2.643   5.824 -0.5442  0.1048  0.7551
 1132SOL    HW1 5135   2.029   2.575   5.822 -0.6946 -0.0238 -0.5786
 1132SOL    HW2 5136   2.010   2.725   5.823 -0.2861  0.1181 -3.6616
 1133SOL     OW 5137   3.850   5.988   4.007 -0.1349 -0.1405 -0.6741
 1133SOL    HW1 5138   3.757   5.982   4.027 -0.0238 -0.6094 -0.2723
 1133SOL    HW2 5139   3.882   6.059   4.063  0.3864 -2.1254  1.7727
 1134SOL     OW 5140   9.192   5.551   8.302  0.1933  0.4108 -0.4280
 1134SOL    HW1 5141   9.152   5.609   8.367 -0.1872  0.4790 -0.7189
 1134SOL    HW2 5142   9.271   5.596   8.275 -0.5184  1.2060 -1.2660
 1135SOL     OW 5143   4.911   6.380   9.546  0.1275  0.3824 -0.4678
 1135SOL    HW1 5144   4.987   6.419   9.590 -0.6059  1.5248 -0.1966
 1135SOL    HW2 5145   4.949   6.312   9.490  1.2882  0.4899  0.1535
 1136SOL     OW 5146   2.991   5.718   2.345 -0.2489 -0.3455 -0.0113
 1136SOL    HW1 5147   2.925   5.785   2.327 -1.2844 -0.8291  1.8084
 1136SOL    HW2 5148   2.948   5.635   2.323 -0.2031 -0.6498  1.0167
 1137SOL     OW 5149   1.382   8.265   5.861 -0.7131  0.5342 -0.4043
 1137SOL    HW1 5150   1.470   8.234   5.879 -1.3972 -0.3096  1.8405
 1137SOL    HW2 5151   1.376   8.265   5.765  0.7721 -2.2404 -0.6045
 1138SOL     OW 5152   9.074   2.206   1.246  0.2974 -0.4316 -0.0936
 1138SOL    HW1 5153   9.035   2.151   1.178 -2.1582  0.4637  0.4789
 1138SOL    HW2 5154   9.144   2.253   1.202 -1.6034  0.5914 -2.2330
 1139SOL     OW 5155   2.498   2.281   9.256 -0.0128  0.5145  0.2374
 1139SOL    HW1 5156   2.451   2.200   9.235 -1.4570  1.5274 -0.6887
 1139SOL    HW2 5157   2.485   2.336   9.179  0.7691  1.6927  0.9221
 1140SOL     OW 5158   4.278   0.508   2.926 -0.9402 -0.5251  0.1134
 1140SOL    HW1 5159   4.247   0.528   3.014 -3.7137  0.3208 -0.9694
 1140SOL    HW2 5160   4.347   0.442   2.940 -0.9678 -0.0922  2.8992
 1141SOL     OW 5161   0.568   6.771   4.712  0.1546  0.4767 -0.3799
 1141SOL    HW1 5162   0.610   6.854   4.688  0.4069  0.2497 -0.7285
 1141SOL    HW2 5163   0.529   6.788   4.798  2.8421  0.0358  1.0215
 1142SOL     OW 5164   8.030   6.064   1.762  0.0775  0.4914 -0.2287
 1142SOL    HW1 5165   7.997   6.003   1.697 -1.3902  1.8663 -0.8503
 1142SOL    HW2 5166   8.124   6.046   1.768 -0.2439 -1.5479 -0.6250
 1143SOL     OW 5167   4.000   4.206   0.554  0.0957  0.5749  0.0954
 1143SOL    HW1 5168   4.039   4.127   0.590 -0.0573  1.6092  2.6960
 1143SOL    HW2 5169   4.014   4.198   0.459  0.1049 -2.5075  0.2550
 1144SOL     OW 5170   0.376   3.886   4.679 -0.1461 -0.1147  0.2314
 1144SOL    HW1 5171   0.462   3.845   4.691  0.3376  0.8805  0.2769
 1144SOL    HW2 5172   0.367   3.944   4.755 -0.3462  0.6517 -0.3756
 1145SOL     OW 5173   7.196   5.267   4.285  0.1699 -0.0923 -0.1575
 1145SOL    HW1 5174   7.246   5.334   4.239 -0.0353  1.1684  1.3627
 1145SOL    HW2 5175   7.260   5.201   4.310  0.1047 -1.4496 -3.2147
 1146SOL     OW 5176   6.577   5.253   9.089  0.1610  0.0693 -0.8394
 1146SOL    HW1 5177   6.546   5.269   9.178  2.3092  1.1717 -0.1967
 1146SOL    HW2 5178   6.519   5.304   9.033 -0.7006  0.0501  0.0218
 1147SOL     OW 5179   5.215   9.320   0.232 -0.0738  0.3992 -0.1836
 1147SOL    HW1 5180   5.237   9.257   0.163  0.4758 -0.7692  1.0090
 1147SOL    HW2 5181   5.119   9.318   0.237 -0.1332  0.6694 -1.0477
 1148SOL     OW 5182   4.680   7.133   4.851  0.0100  0.1762 -0.7140
 1148SOL    HW1 5183   4.761   7.097   4.886 -1.3588 -0.4702  2.0514
 1148SOL    HW2 5184   4.708   7.205   4.795  2.4935 -0.6243 -0.6295
 1149SOL     OW 5185   1.494   8.990   3.659 -0.0437  0.2352  0.2003
 1149SOL    HW1 5186   1.478   9.071   3.611  0.2598  0.3792  0.3367
 1149SOL    HW2 5187   1.407   8.953   3.674 -0.3880  1.6305  2.0367
 1150SOL     OW 5188   1.560   9.202   3.484  0.8559  0.3988 -0.1654
 1150SOL    HW1 5189   1.591   9.291   3.500  0.5902  0.3595  0.6088
 1150SOL    HW2 5190   1.498   9.212   3.411  1.3256  0.7388 -0.5303
 1151SOL     OW 5191   1.454   8.382   8.663 -0.1377  0.3436 -0.1229
 1151SOL    HW1 5192   1.437   8.392   8.569  0.3472 -0.8335 -0.3514
 1151SOL    HW2 5193   1.540   8.342   8.668 -0.2361  0.2230  0.8291
 1152SOL     OW 5194   9.072   0.203   3.554  0.6746  0.2238 -0.3541
 1152SOL    HW1 5195   9.144   0.199   3.618  0.3555 -4.5604  0.0006
 1152SOL    HW2 5196   9.111   0.173   3.472 -0.1462  1.3244 -1.1879
 1153SOL     OW 5197   7.846   0.649   1.158  0.3528 -0.9753 -0.7348
 1153SOL    HW1 5198   7.785   0.576   1.172  0.2663 -0.5867  1.1128
 1153SOL    HW2 5199   7.866   0.681   1.245  0.0426  1.5197 -1.5006
 1154SOL     OW 5200   7.531   1.459   2.136 -0.2383 -0.5484 -0.5167
 1154SOL    HW1 5201   7.463   1.521   2.112 -1.8758 -0.5173  3.4367
 1154SOL    HW2 5202   7.600   1.512   2.175 -0.4882 -0.9679  0.5320
 1155SOL     OW 5203   1.035   1.971   3.414 -0.1618  0.3317  0.2816
 1155SOL    HW1 5204   1.053   2.050   3.364  1.6213  0.6587  1.3421
 1155SOL    HW2 5205   0.942   1.977   3.436  0.1936  2.8282  1.4458
 1156SOL     OW 5206   1.158   6.455   1.452  0.7087 -0.0753 -0.0121
 1156SOL    HW1 5207   1.158   6.535   1.504 -0.1162  1.4235 -2.2004
 1156SOL    HW2 5208   1.163   6.384   1.517  1.5886  1.7081  1.9743
 1157SOL     OW 5209   0.098   6.448   1.314 -0.5507  0.0771 -0.0922
 1157SOL    HW1 5210   0.051   6.498   1.247  1.1951  0.0282 -1.4268
 1157SOL    HW2 5211   0.048   6.367   1.323 -2.0506  1.0153  0.3216
 1158SOL     OW 5212   4.410   5.065   8.922  0.8020  0.2609  0.1639
 1158SOL    HW1 5213   4.426   5.160   8.917  0.9021  0.2868  0.8192
 1158SOL    HW2 5214   4.381   5.041   8.835 -3.0592  1.5914  0.9153
 1159SOL     OW 5215   1.367   1.543   2.983 -0.0566  0.4188 -0.0684
 1159SOL    HW1 5216   1.443   1.594   3.012 -0.9038  1.9973 -0.4715
 1159SOL    HW2 5217   1.391   1.452   2.999  1.5850  0.9291  0.5763
 1160SOL     OW 5218   6.028   6.251   7.978 -0.1833  0.5811 -0.0242
 1160SOL    HW1 5219   5.954   6.292   7.932  0.1586  0.4751 -0.6758
 1160SOL    HW2 5220   6.062   6.186   7.916  0.5227  0.6975  0.2358
 1161SOL     OW 5221   6.204   2.399   3.673 -0.6454  0.3034  0.2469
 1161SOL    HW1 5222   6.277   2.349   3.635 -0.5585  0.2945  0.4215
 1161SOL    HW2 5223   6.245   2.479   3.705 -0.8265  0.5962 -0.2492
 1162SOL     OW 5224   4.859   2.623   1.753  0.0312 -0.4399 -0.1684
 1162SOL    HW1 5225   4.870   2.562   1.680  1.5390 -0.6559  0.1922
 1162SOL    HW2 5226   4.945   2.664   1.763 -1.0641  2.1825 -0.7294
 1163SOL     OW 5227   3.170   6.329   8.342 -0.0279 -0.3220  0.2294
 1163SOL    HW1 5228   3.248   6.286   8.306 -0.7350 -0.3983 -1.2750
 1163SOL    HW2 5229   3.169   6.302   8.434  1.9456  0.0371  0.4105
 1164SOL     OW 5230   4.546   3.405   0.147  0.1381  0.3526  0.3560
 1164SOL    HW1 5231   4.456   3.435   0.157  0.2637  0.4851  1.1613
 1164SOL    HW2 5232   4.540   3.310   0.143 -0.0402  0.3649  0.3436
 1165SOL     OW 5233   7.065   6.962   3.533 -0.5307 -0.5509  0.3410
 1165SOL    HW1 5234   7.065   6.867   3.516 -0.8358 -0.6790  0.9956
 1165SOL    HW2 5235   7.123   6.998   3.467  0.2216 -1.2882  0.5754
 1166SOL     OW 5236   8.572   1.349   6.543 -0.9251 -0.1661 -0.0284
 1166SOL    HW1 5237   8.626   1.404   6.486 -2.4737  1.0177 -0.4348
 1166SOL    HW2 5238   8.635   1.301   6.597  0.5369  0.2139 -1.3163
 1167SOL     OW 5239   5.114   2.725   1.827  0.2355 -0.3196  0.0021
 1167SOL    HW1 5240   5.129   2.819   1.822  2.7383 -0.6916 -1.2240
 1167SOL    HW2 5241   5.171   2.695   1.898 -1.3922 -0.8273  1.1558
 1168SOL     OW 5242   6.705   2.051   1.643  0.0135 -0.1385  0.0477
 1168SOL    HW1 5243   6.794   2.034   1.612 -0.2219 -0.8380 -0.2824
 1168SOL    HW2 5244   6.654   2.065   1.563 -0.0369  1.0292  0.2651
 1169SOL     OW 5245   4.742   5.509   5.416  0.1319  0.1725  0.1741
 1169SOL    HW1 5246   4.674   5.513   5.349  2.3435 -0.4539 -2.2517
 1169SOL    HW2 5247   4.715   5.438   5.474 -0.6902 -0.8903 -1.4476
 1170SOL     OW 5248   3.906   2.319   4.629 -0.2378  0.3315  0.2339
 1170SOL    HW1 5249   3.956   2.384   4.579 -1.4742  0.5029 -0.8561
 1170SOL    HW2 5250   3.846   2.370   4.682 -1.2511  0.1046 -0.6650
 1171SOL     OW 5251   0.441   5.453   8.437 -0.6673 -0.0703  0.0190
 1171SOL    HW1 5252   0.361   5.503   8.451 -0.4383 -0.0777  1.6546
 1171SOL    HW2 5253   0.452   5.404   8.519  0.5990 -0.6376 -0.4740
 1172SOL     OW 5254   6.218   5.479   0.906  0.4147 -0.3631  0.3390
 1172SOL    HW1 5255   6.140   5.484   0.851  0.7495 -0.1111 -0.1147
 1172SOL    HW2 5256   6.184   5.456   0.993 -0.0821 -1.1638 -0.0516
 1173SOL     OW 5257   2.225   7.739   5.079 -0.5249  0.2459  0.0472
 1173SOL    HW1 5258   2.192   7.650   5.090  2.5081 -1.0666 -0.2290
 1173SOL    HW2 5259   2.286   7.750   5.153  0.0718  1.5897 -0.6202
 1174SOL     OW 5260   8.670   3.272   4.401  0.4363 -0.1018 -0.3465
 1174SOL    HW1 5261   8.615   3.341   4.438 -0.2300 -0.7573 -0.0819
 1174SOL    HW2 5262   8.645   3.268   4.309  1.0744  0.5626 -0.5585
 1175SOL     OW 5263   5.163   5.373   2.132  0.0010  0.6025  0.1166
 1175SOL    HW1 5264   5.256   5.349   2.138  0.2723  1.5517 -0.0391
 1175SOL    HW2 5265   5.128   5.356   2.219  0.1208 -0.4975 -0.0274
 1176SOL     OW 5266   6.766   4.554   5.080  0.1307 -0.1185 -0.3493
 1176SOL    HW1 5267   6.750   4.517   5.166 -0.3645  1.2840  0.1984
 1176SOL    HW2 5268   6.861   4.552   5.069  0.1493 -0.9867 -0.1087
 1177SOL     OW 5269   0.176   0.999   8.220 -0.1701 -0.0979 -0.5410
 1177SOL    HW1 5270   0.120   0.929   8.186  1.0510 -2.4727  1.9217
 1177SOL    HW2 5271   0.118   1.052   8.275 -0.6865 -0.4980 -0.6945
 1178SOL     OW 5272   3.187   7.239   9.115 -0.4011  0.1856  0.2767
 1178SOL    HW1 5273   3.099   7.272   9.136 -0.3081  0.2610  0.5478
 1178SOL    HW2 5274   3.234   7.315   9.082 -0.8888 -0.1640 -1.2842
 1179SOL     OW 5275   6.465   0.306   4.859 -0.3499  0.0226 -0.0099
 1179SOL    HW1 5276   6.509   0.280   4.940  0.7285 -0.2888 -0.6784
 1179SOL    HW2 5277   6.388   0.249   4.855  0.2443 -0.8125  0.1802
 1180SOL     OW 5278   4.706   2.173   9.387 -0.0998  0.1444 -0.1556
 1180SOL    HW1 5279   4.637   2.156   9.322 -0.3265  3.7960 -1.0841
 1180SOL    HW2 5280   4.716   2.268   9.387  3.5257 -0.0737  1.4917
 1181SOL     OW 5281   4.585   3.938   4.157 -0.1608 -0.0841 -0.3319
 1181SOL    HW1 5282   4.568   3.964   4.066  0.7068  1.9944  0.0454
 1181SOL    HW2 5283   4.498   3.924   4.194 -0.6406  0.9410 -1.0010
 1182SOL     OW 5284   9.019   6.061   7.384 -0.1868  0.1410 -0.5151
 1182SOL    HW1 5285   8.983   6.058   7.473 -3.9627  3.3176 -1.6341
 1182SOL    HW2 5286   9.092   6.123   7.390  0.4044 -0.6146  0.5217
 1183SOL     OW 5287   6.256   0.785   6.993  0.0548 -0.1210 -0.3498
 1183SOL    HW1 5288   6.174   0.740   7.015  0.7082 -1.6218 -0.8962
 1183SOL    HW2 5289   6.240   0.876   7.019 -0.3937 -1.0864  3.2852
 1184SOL     OW 5290   9.550   8.844   4.183  0.2310  0.1628  0.3004
 1184SOL    HW1 5291   9.597   8.911   4.232  0.0698  0.2954  0.2735
 1184SOL    HW2 5292   9.617   8.800   4.132  0.1439  1.2042 -0.7379
 1185SOL     OW 5293   9.526   6.690   2.909 -0.3062 -0.5139  0.7912
 1185SOL    HW1 5294   9.534   6.780   2.879  0.4022 -0.8238  0.0071
 1185SOL    HW2 5295   9.520   6.697   3.004  0.2652  0.3270  0.7749
 1186SOL     OW 5296   8.889   5.303   7.712  0.0551 -0.2139  0.2732
 1186SOL    HW1 5297   8.794   5.292   7.724 -0.0115  0.0035 -0.0674
 1186SOL    HW2 5298   8.925   5.215   7.724  0.0214 -0.0028  2.3580
 1187SOL     OW 5299   3.799   1.342   3.170  0.2143 -0.0368 -0.2379
 1187SOL    HW1 5300   3.759   1.297   3.244  1.0301 -1.1572 -0.4386
 1187SOL    HW2 5301   3.753   1.426   3.165 -1.8767 -1.1182 -0.2913
 1188SOL     OW 5302   9.515   2.927   4.277  0.3365 -0.4211  0.0801
 1188SOL    HW1 5303   9.529   3.018   4.249  0.0515 -0.8103 -1.4024
 1188SOL    HW2 5304   9.421   2.914   4.268  0.3363 -0.7833  0.5853
 1189SOL     OW 5305   7.991   1.942   6.915  0.4447 -0.1785  0.3437
 1189SOL    HW1 5306   7.916   1.989   6.951 -1.4706 -2.8194  0.0281
 1189SOL    HW2 5307   8.031   2.004   6.854 -0.9314  1.5995  1.1454
 1190SOL     OW 5308   9.569   4.112   7.279  0.2317 -0.2763  0.5583
 1190SOL    HW1 5309   9.604   4.026   7.304  0.2286 -0.2600  0.6192
 1190SOL    HW2 5310   9.523   4.096   7.196  1.0802 -0.1353  0.0510
 1191SOL     OW 5311   7.177   6.093   3.242  0.4662  0.1097 -0.1138
 1191SOL    HW1 5312   7.166   6.105   3.336  0.8765  3.3990 -0.3644
 1191SOL    HW2 5313   7.271   6.085   3.229  0.4493  0.1432 -0.2655
 1192SOL     OW 5314   0.058   8.403   1.114 -0.1147 -0.0863  0.1891
 1192SOL    HW1 5315   0.032   8.468   1.049  0.0714  0.4874  0.6829
 1192SOL    HW2 5316   0.107   8.337   1.064 -0.5858 -0.0209 -0.3675
 1193SOL     OW 5317   5.664   3.260   6.667 -0.1325 -0.0170  0.0162
 1193SOL    HW1 5318   5.750   3.220   6.680 -0.0112  0.9961  2.9384
 1193SOL    HW2 5319   5.621   3.204   6.602  2.7272 -0.4910 -1.6421
 1194SOL     OW 5320   2.509   5.988   4.812  0.2474 -0.5317  0.1082
 1194SOL    HW1 5321   2.539   5.966   4.724  2.6183  0.0466  0.7021
 1194SOL    HW2 5322   2.487   6.081   4.807  1.3297 -0.2445  0.3124
 1195SOL     OW 5323   5.475   3.758   3.955  0.2342  0.1739 -0.1497
 1195SOL    HW1 5324   5.435   3.708   3.883  0.5106 -0.9421  0.4521
 1195SOL    HW2 5325   5.564   3.776   3.925  0.4504 -0.5634  0.0291
 1196SOL     OW 5326   6.152   2.666   4.601  0.2345 -0.3862  0.3372
 1196SOL    HW1 5327   6.227   2.708   4.643  0.3481  0.2559 -0.4920
 1196SOL    HW2 5328   6.076   2.700   4.647  0.3552  0.3545  0.0073
 1197SOL     OW 5329   3.269   0.710   3.581 -0.3184  0.4612 -0.2378
 1197SOL    HW1 5330   3.299   0.780   3.640 -1.4517  0.3771  0.4779
 1197SOL    HW2 5331   3.204   0.663   3.632 -1.3793  0.4104 -1.5834
 1198SOL     OW 5332   3.644   8.660   6.359  0.2398  0.4474  0.6864
 1198SOL    HW1 5333   3.550   8.652   6.379  0.1959  1.7332  1.0717
 1198SOL    HW2 5334   3.681   8.706   6.434  0.8763  1.4240 -0.1963
 1199SOL     OW 5335   3.497   1.418   3.980 -0.2811  0.3279 -0.0414
 1199SOL    HW1 5336   3.513   1.512   3.987  0.8505  0.1672 -0.2393
 1199SOL    HW2 5337   3.486   1.389   4.071 -1.5307  0.7811 -0.0330
 1200SOL     OW 5338   6.357   4.390   9.538  0.0039  0.0454  0.5550
 1200SOL    HW1 5339   6.270   4.401   9.575  0.1447  1.3048  0.5557
 1200SOL    HW2 5340   6.403   4.333   9.600 -0.5049  0.1781  1.0628
 1201SOL     OW 5341   5.614   5.113   8.227 -0.0415 -0.1301  0.5207
 1201SOL    HW1 5342   5.600   5.024   8.258 -1.2902 -0.0117  0.3614
 1201SOL    HW2 5343   5.709   5.122   8.218  0.0428 -1.9377 -0.9213
 1202SOL     OW 5344   3.366   0.352   0.363 -0.0718  0.1402 -0.6530
 1202SOL    HW1 5345   3.278   0.369   0.397  0.3446 -0.1404  0.6295
 1202SOL    HW2 5346   3.423   0.363   0.439  1.0462  0.6819 -1.5574
 1203SOL     OW 5347   5.238   9.048   8.216 -0.2370  0.8176 -0.4107
 1203SOL    HW1 5348   5.212   9.033   8.307 -1.3367  3.0713 -0.2914
 1203SOL    HW2 5349   5.330   9.072   8.220  0.2290 -0.9289 -0.1289
 1204SOL     OW 5350   4.815   8.548   8.956  0.0541 -0.2545  0.5219
 1204SOL    HW1 5351   4.895   8.555   9.008  0.3549 -1.9165  0.3356
 1204SOL    HW2 5352   4.823   8.464   8.910 -0.7291  0.6203 -1.3249
 1205SOL     OW 5353   8.363   0.605   7.060  0.0549 -0.0185 -0.1338
 1205SOL    HW1 5354   8.456   0.581   7.054 -0.1705 -0.6285 -1.3981
 1205SOL    HW2 5355   8.335   0.617   6.969 -0.8711  1.1159  0.2811
 1206SOL     OW 5356   1.037   2.586   4.575  0.2164 -0.1241  0.4454
 1206SOL    HW1 5357   0.975   2.574   4.503  0.0582 -1.9443  0.8475
 1206SOL    HW2 5358   0.984   2.620   4.647  0.1600  0.5869  0.0838
 1207SOL     OW 5359   1.354   5.805   7.028  0.0759 -0.4430 -0.1742
 1207SOL    HW1 5360   1.328   5.785   6.937 -0.5593 -0.6769  0.0501
 1207SOL    HW2 5361   1.449   5.795   7.029 -0.0163 -1.4978 -0.5580
 1208SOL     OW 5362   2.906   2.602   1.272  0.6010  0.5152 -0.1888
 1208SOL    HW1 5363   2.991   2.560   1.287  0.3972  0.1942  0.0585
 1208SOL    HW2 5364   2.929   2.692   1.247  1.0116  0.4834  0.0548
 1209SOL     OW 5365   9.100   1.542   3.534 -0.4117  0.0294 -0.1360
 1209SOL    HW1 5366   9.164   1.494   3.587  0.5820  1.7102  0.2553
 1209SOL    HW2 5367   9.150   1.575   3.460 -1.5876 -1.4516 -1.6899
 1210SOL     OW 5368   5.612   5.423   1.030  0.1239 -0.3230 -0.7999
 1210SOL    HW1 5369   5.598   5.508   1.072  1.1529 -0.9321  0.9253
 1210SOL    HW2 5370   5.619   5.362   1.104 -0.9680 -1.9764 -2.0064
 1211SOL     OW 5371   8.074   7.181   2.882  0.1232  0.1586 -0.4641
 1211SOL    HW1 5372   8.074   7.193   2.787 -0.2365  0.2750 -0.4518
 1211SOL    HW2 5373   7.995   7.226   2.912  0.3828  0.3633 -0.0786
 1212SOL     OW 5374   7.923   3.407   5.936 -0.0865 -0.8264  0.7632
 1212SOL    HW1 5375   7.918   3.433   5.844  1.2111  1.3033  1.2433
 1212SOL    HW2 5376   7.961   3.319   5.934 -0.0490 -0.7967 -0.7211
 1213SOL     OW 5377   1.565   8.589   5.807 -0.3239 -0.0811 -0.0408
 1213SOL    HW1 5378   1.522   8.520   5.858 -0.7912  1.9030  2.4744
 1213SOL    HW2 5379   1.571   8.554   5.719 -0.1826 -3.4593  1.1776
 1214SOL     OW 5380   4.454   3.741   3.879 -0.0752  0.4416  0.0481
 1214SOL    HW1 5381   4.445   3.677   3.950  0.6781  0.6547  0.3346
 1214SOL    HW2 5382   4.400   3.705   3.808  1.8388 -1.5354 -0.5043
 1215SOL     OW 5383   3.869   0.589   5.101 -0.2935 -0.2510 -0.4611
 1215SOL    HW1 5384   3.810   0.579   5.175 -0.0186  2.1795  0.1522
 1215SOL    HW2 5385   3.953   0.554   5.132 -0.5286 -0.5346 -0.1371
 1216SOL     OW 5386   4.772   0.219   4.253  0.2029 -0.1129  1.0257
 1216SOL    HW1 5387   4.824   0.299   4.250  0.0541 -0.0402  0.1301
 1216SOL    HW2 5388   4.701   0.240   4.314  0.6292  0.1494  1.4387
 1217SOL     OW 5389   6.687   2.826   6.885 -0.0518 -0.5906 -0.3629
 1217SOL    HW1 5390   6.629   2.897   6.859 -1.7797 -0.6359  2.8155
 1217SOL    HW2 5391   6.633   2.747   6.876  0.3890 -0.9646  0.2241
 1218SOL     OW 5392   3.007   1.413   0.631  0.1578  0.2636  0.1991
 1218SOL    HW1 5393   3.101   1.410   0.652  0.3237  1.8534 -0.1646
 1218SOL    HW2 5394   2.973   1.482   0.688 -0.5698  0.4695 -0.4821
 1219SOL     OW 5395   8.001   5.523   4.512 -0.2854 -0.4118 -0.1539
 1219SOL    HW1 5396   8.061   5.455   4.482 -0.8729 -0.2629 -1.7673
 1219SOL    HW2 5397   7.925   5.516   4.453 -0.4734  1.4373 -0.1958
 1220SOL     OW 5398   6.636   2.356   7.007  0.1333 -0.3112 -0.1252
 1220SOL    HW1 5399   6.588   2.384   7.085  1.1665  0.7614  0.1546
 1220SOL    HW2 5400   6.567   2.344   6.941 -0.5958  0.5462  0.4424
 1221SOL     OW 5401   3.235   0.632   8.484  0.5169 -0.2822  0.1050
 1221SOL    HW1 5402   3.191   0.631   8.569 -0.2283  0.4204 -0.2662
 1221SOL    HW2 5403   3.328   0.626   8.505  0.2723 -1.7184  0.9066
 1222SOL     OW 5404   0.934   0.953   4.820  0.1896  0.3986 -0.1611
 1222SOL    HW1 5405   0.985   0.873   4.824  1.8629  1.4369  3.1193
 1222SOL    HW2 5406   0.957   0.993   4.736  1.7746 -1.0482 -0.4615
 1223SOL     OW 5407   2.859   0.871   2.571  0.4754 -0.1563  0.4126
 1223SOL    HW1 5408   2.946   0.834   2.559  0.1212 -0.4251 -1.5633
 1223SOL    HW2 5409   2.799   0.801   2.543 -0.3418  0.4396  0.6400
 1224SOL     OW 5410   1.657   6.721   5.364 -0.0878  0.2776  0.5722
 1224SOL    HW1 5411   1.658   6.635   5.321  1.4623 -0.3793  1.8088
 1224SOL    HW2 5412   1.567   6.732   5.395 -0.1209 -1.3118  1.1365
 1225SOL     OW 5413   9.074   5.039   7.114 -0.7531  0.1106  0.0846
 1225SOL    HW1 5414   9.098   5.083   7.195 -0.2270 -0.7214  0.3903
 1225SOL    HW2 5415   8.992   5.081   7.087  1.1859  3.4282 -1.2853
 1226SOL     OW 5416   5.679   6.835   0.368  0.3110  0.4767 -0.1131
 1226SOL    HW1 5417   5.713   6.923   0.352  1.3883 -0.1899 -1.7678
 1226SOL    HW2 5418   5.625   6.816   0.292 -1.0453  0.1993  0.8835
 1227SOL     OW 5419   4.571   0.995   5.037 -0.3060 -0.0755 -0.2596
 1227SOL    HW1 5420   4.635   1.065   5.033 -1.9979  1.5081 -2.7627
 1227SOL    HW2 5421   4.571   0.958   4.948 -2.1181 -0.6632 -0.0556
 1228SOL     OW 5422   7.062   9.360   7.908  0.3475  0.0149  0.2034
 1228SOL    HW1 5423   7.068   9.399   7.995 -2.5160  0.3237  0.3321
 1228SOL    HW2 5424   7.095   9.429   7.849 -2.1093  1.7160  0.6778
 1229SOL     OW 5425   3.861   2.218   2.264  0.0383  0.5654 -0.2694
 1229SOL    HW1 5426   3.879   2.303   2.222  3.9492  0.7424  1.3144
 1229SOL    HW2 5427   3.768   2.202   2.247 -0.4438  4.2538 -2.2088
 1230SOL     OW 5428   8.930   8.797   7.544 -0.5865  0.1928  0.4828
 1230SOL    HW1 5429   8.933   8.885   7.580 -1.4242  0.4553 -0.0594
 1230SOL    HW2 5430   9.017   8.761   7.561  0.6489  2.0122 -1.4404
 1231SOL     OW 5431   1.304   5.376   4.285 -0.3369 -0.2596  0.0598
 1231SOL    HW1 5432   1.230   5.363   4.226 -1.4732 -0.0287  1.3815
 1231SOL    HW2 5433   1.269   5.430   4.356  1.1474  0.0024  0.6347
 1232SOL     OW 5434   1.018   5.920   6.248  0.3199 -0.1311  0.7466
 1232SOL    HW1 5435   1.051   6.002   6.211 -2.0322  0.2441 -0.7387
 1232SOL    HW2 5436   1.092   5.884   6.297  2.3908  1.3350 -1.1055
 1233SOL     OW 5437   9.082   8.853   0.738 -0.8841 -0.3885 -0.0943
 1233SOL    HW1 5438   9.171   8.826   0.762 -0.1132  1.0395 -1.1361
 1233SOL    HW2 5439   9.077   8.836   0.644 -1.6071 -0.2088 -0.0902
 1234SOL     OW 5440   7.789   8.331   9.010 -0.2320  0.1154  0.1685
 1234SOL    HW1 5441   7.792   8.319   9.105  3.2983  0.7725  0.2881
 1234SOL    HW2 5442   7.812   8.245   8.974 -1.6204 -0.1495 -0.1394
 1235SOL     OW 5443   2.508   0.658   4.595  0.1754 -0.6746 -0.2551
 1235SOL    HW1 5444   2.576   0.662   4.662 -0.8928 -0.2196  0.8555
 1235SOL    HW2 5445   2.508   0.744   4.555 -0.8970 -0.0637  0.9777
 1236SOL     OW 5446   8.470   6.383   5.325 -0.1092  0.1426 -0.8775
 1236SOL    HW1 5447   8.453   6.329   5.248  0.8257  0.9316 -1.6660
 1236SOL    HW2 5448   8.560   6.413   5.315 -0.4186  1.4079 -0.1975
 1237SOL     OW 5449   1.161   4.206   6.269  0.0333 -0.3062 -0.1177
 1237SOL    HW1 5450   1.173   4.299   6.287 -5.2667  0.6220  0.0476
 1237SOL    HW2 5451   1.121   4.170   6.348 -0.6003 -2.0358 -1.1513
 1238SOL     OW 5452   8.018   0.480   4.695 -0.1959 -0.0842 -0.5538
 1238SOL    HW1 5453   8.053   0.429   4.622  2.7973  1.1690 -0.1581
 1238SOL    HW2 5454   7.956   0.540   4.655 -0.1892 -0.8340 -1.7289
 1239SOL     OW 5455   5.667   4.376   4.508  0.5565 -0.1081 -0.2011
 1239SOL    HW1 5456   5.688   4.438   4.438 -0.9369 -0.0066 -0.6060
 1239SOL    HW2 5457   5.751   4.336   4.532  1.5736  2.0808  0.1083
 1240SOL     OW 5458   6.919   6.098   4.930 -0.8800 -0.4621  0.4496
 1240SOL    HW1 5459   6.920   6.133   5.019 -0.9459 -0.5416  0.4827
 1240SOL    HW2 5460   6.926   6.175   4.874  0.8254 -0.5106  0.5325
 1241SOL     OW 5461   6.222   1.355   2.336  0.0603 -0.1233 -0.8312
 1241SOL    HW1 5462   6.295   1.382   2.392  0.2796 -0.6104 -0.8720
 1241SOL    HW2 5463   6.192   1.273   2.374 -0.4000  0.0229 -0.8808
 1242SOL     OW 5464   4.391   8.518   5.580 -0.0575  0.4571 -0.0414
 1242SOL    HW1 5465   4.384   8.517   5.485  1.8554  0.4727 -0.2190
 1242SOL    HW2 5466   4.485   8.525   5.597 -0.3962  0.8875  1.8518
 1243SOL     OW 5467   7.698   5.569   1.685  0.3872 -0.0280  0.1161
 1243SOL    HW1 5468   7.762   5.590   1.752 -0.1322  4.3917 -0.4673
 1243SOL    HW2 5469   7.614   5.596   1.722 -0.3975 -0.7825 -1.0252
 1244SOL     OW 5470   7.280   0.658   5.191 -0.2003 -0.0299 -0.2681
 1244SOL    HW1 5471   7.366   0.693   5.166  0.7416 -1.6536  0.5717
 1244SOL    HW2 5472   7.258   0.597   5.121 -1.3453  1.3404 -1.1727
 1245SOL     OW 5473   4.161   3.975   1.671  0.0336  0.1920  0.0920
 1245SOL    HW1 5474   4.207   3.891   1.680 -1.6362 -0.6509  1.3712
 1245SOL    HW2 5475   4.079   3.953   1.628  0.6009  1.6203 -1.8528
 1246SOL     OW 5476   7.956   5.328   3.129  0.2247  0.1243  0.1606
 1246SOL    HW1 5477   7.968   5.235   3.144 -1.1517 -0.1015  0.0068
 1246SOL    HW2 5478   7.953   5.337   3.034 -0.1118  0.2557  0.1822
 1247SOL     OW 5479   1.054   2.606   3.998 -0.1211 -0.3614 -0.4626
 1247SOL    HW1 5480   1.041   2.539   4.066  0.3611  0.3009  0.3036
 1247SOL    HW2 5481   1.046   2.689   4.045 -0.2827  0.1218 -1.3228
 1248SOL     OW 5482   8.006   3.124   3.028  0.1607 -0.0779  0.2702
 1248SOL    HW1 5483   7.996   3.194   3.093  2.0175 -0.8705  1.5028
 1248SOL    HW2 5484   8.049   3.167   2.954  0.8596  0.2097  0.8303
 1249SOL     OW 5485   7.743   0.983   2.099 -0.3404  0.1813  0.1353
 1249SOL    HW1 5486   7.709   0.901   2.064 -1.2530  0.3602  0.5954
 1249SOL    HW2 5487   7.667   1.029   2.133 -0.1938  2.2008 -2.0226
 1250SOL     OW 5488   7.369   5.216   2.807  0.4006 -0.1831 -0.2103
 1250SOL    HW1 5489   7.459   5.211   2.839 -0.2631 -1.8136  1.6565
 1250SOL    HW2 5490   7.363   5.147   2.741  0.8155  0.7554 -1.2533
 1251SOL     OW 5491   1.111   4.124   4.335  0.0179 -0.0667 -0.2899
 1251SOL    HW1 5492   1.060   4.199   4.305 -2.1481 -0.6039  1.7342
 1251SOL    HW2 5493   1.047   4.053   4.340  1.5595 -1.4805 -0.0897
 1252SOL     OW 5494   7.462   6.198   7.206  0.0184  0.3346  0.2145
 1252SOL    HW1 5495   7.446   6.104   7.200  1.7608 -0.0128  0.6344
 1252SOL    HW2 5496   7.476   6.215   7.299  0.3656  0.8835  0.0717
 1253SOL     OW 5497   5.531   7.307   4.390 -0.1843  0.3605 -1.2495
 1253SOL    HW1 5498   5.524   7.265   4.305  0.4318 -1.5227 -0.4270
 1253SOL    HW2 5499   5.488   7.247   4.451 -0.1552  1.4028 -0.1499
 1254SOL     OW 5500   2.066   5.450   7.799  0.2189  0.2006  0.4957
 1254SOL    HW1 5501   2.092   5.523   7.743 -2.6816  0.7966 -0.2091
 1254SOL    HW2 5502   2.014   5.490   7.869 -1.0705 -1.1070  0.3298
 1255SOL     OW 5503   8.647   3.589   0.499  0.1522 -0.6003  0.4323
 1255SOL    HW1 5504   8.633   3.572   0.592 -0.3578 -0.7413  0.3322
 1255SOL    HW2 5505   8.711   3.523   0.472 -0.6916 -1.4206  0.3887
 1256SOL     OW 5506   4.677   8.478   1.977  0.1099 -0.2266  0.0718
 1256SOL    HW1 5507   4.586   8.492   1.950 -0.7764 -1.8538  1.8892
 1256SOL    HW2 5508   4.681   8.385   2.001  2.6266 -0.5218 -1.1412
 1257SOL     OW 5509   2.000   5.639   4.253  0.4063 -0.5066 -0.4569
 1257SOL    HW1 5510   1.941   5.686   4.311  0.8615  1.4454 -1.4948
 1257SOL    HW2 5511   2.086   5.677   4.270  1.0284 -1.8167 -0.5011
 1258SOL     OW 5512   8.332   5.601   3.298 -0.1211  0.0162 -0.1070
 1258SOL    HW1 5513   8.283   5.657   3.238 -0.1793  1.9986  1.6492
 1258SOL    HW2 5514   8.397   5.660   3.337  0.4602 -1.3917  1.1363
 1259SOL     OW 5515   3.739   6.889   8.401 -0.7647  1.0138  0.1119
 1259SOL    HW1 5516   3.788   6.815   8.436  0.0259  0.6915 -1.5745
 1259SOL    HW2 5517   3.666   6.849   8.354  0.9648  1.0684 -2.8452
 1260SOL     OW 5518   6.512   8.997   3.086  0.0791 -0.3612 -0.5833
 1260SOL    HW1 5519   6.579   8.931   3.069 -0.2456 -0.5869 -1.0280
 1260SOL    HW2 5520   6.560   9.079   3.097  0.3259 -0.1239 -2.9680
 1261SOL     OW 5521   9.291   2.381   2.202 -0.3650 -0.2030 -0.2875
 1261SOL    HW1 5522   9.255   2.342   2.282 -0.2958  1.3641  0.5532
 1261SOL    HW2 5523   9.243   2.338   2.131 -0.6168 -1.4431  0.6016
 1262SOL     OW 5524   5.001   1.932   0.565 -0.0297 -0.1468 -0.4960
 1262SOL    HW1 5525   5.036   1.914   0.652  1.8205  0.9071 -0.9741
 1262SOL    HW2 5526   5.045   1.870   0.508 -1.5703 -1.1377 -0.6526
 1263SOL     OW 5527   1.754   6.697   8.047  0.3220  0.4210  0.1893
 1263SOL    HW1 5528   1.757   6.792   8.055  1.0552  0.6114 -1.7521
 1263SOL    HW2 5529   1.833   6.667   8.092  0.0266  0.7094  0.9111
 1264SOL     OW 5530   2.146   0.275   9.284  0.0874  0.0885 -0.2526
 1264SOL    HW1 5531   2.094   0.201   9.254  0.7343 -0.3954 -0.1952
 1264SOL    HW2 5532   2.164   0.256   9.376  0.0596  0.4342 -0.1732
 1265SOL     OW 5533   1.467   6.011   3.072 -0.9581 -0.1732 -0.0118
 1265SOL    HW1 5534   1.525   6.011   3.148 -0.7323 -0.6731 -0.1857
 1265SOL    HW2 5535   1.383   5.980   3.105 -0.7528 -0.7686 -0.0483
 1266SOL     OW 5536   6.555   3.262   7.130  0.0852  0.3925  0.5712
 1266SOL    HW1 5537   6.600   3.249   7.214 -0.6794  3.7441  1.6840
 1266SOL    HW2 5538   6.462   3.263   7.153 -0.1695  0.7752 -0.4260
 1267SOL     OW 5539   1.199   0.107   5.538  0.0502  0.1813  0.1790
 1267SOL    HW1 5540   1.290   0.106   5.567  0.4753  0.0551 -1.0796
 1267SOL    HW2 5541   1.168   0.195   5.559  1.4033  1.2760 -2.0245
 1268SOL     OW 5542   7.099   0.102   8.368  0.0898 -1.0406 -0.5296
 1268SOL    HW1 5543   7.143   0.023   8.399  0.4060  0.0493  2.0147
 1268SOL    HW2 5544   7.013   0.100   8.412 -0.5265 -0.7261 -1.6784
 1269SOL     OW 5545   7.690   8.914   0.793  0.1292  0.8762  0.3688
 1269SOL    HW1 5546   7.692   8.994   0.740  0.1822  0.4755 -0.2330
 1269SOL    HW2 5547   7.608   8.920   0.842 -0.3955  0.7725 -0.4892
 1270SOL     OW 5548   3.951   7.895   3.619 -0.3599  0.2652  0.2998
 1270SOL    HW1 5549   4.026   7.848   3.582 -1.2793 -0.5517 -0.5793
 1270SOL    HW2 5550   3.957   7.983   3.582 -1.1646 -0.4775 -1.7595
 1271SOL     OW 5551   7.946   8.054   0.456 -1.2872  0.5570 -0.3272
 1271SOL    HW1 5552   7.893   8.019   0.384 -2.5578  0.5503  0.5835
 1271SOL    HW2 5553   7.940   7.987   0.525  0.3007  0.3456 -0.3603
 1272SOL     OW 5554   5.337   2.587   5.602  0.2279 -0.2301 -0.1049
 1272SOL    HW1 5555   5.397   2.634   5.660 -0.0375 -2.7454  2.4127
 1272SOL    HW2 5556   5.386   2.509   5.576 -1.1539 -1.2599  0.2859
 1273SOL     OW 5557   3.490   7.034   6.271  0.3305  0.2812  0.7689
 1273SOL    HW1 5558   3.451   6.979   6.339 -0.2511 -0.9679 -0.5359
 1273SOL    HW2 5559   3.576   6.996   6.255  0.4141  0.4952  0.6963
 1274SOL     OW 5560   6.990   3.441   4.139 -0.0634 -0.3783 -0.4444
 1274SOL    HW1 5561   6.933   3.482   4.075  0.0108 -1.1349 -1.0004
 1274SOL    HW2 5562   6.956   3.352   4.150  1.6459 -1.2382 -1.6465
 1275SOL     OW 5563   1.343   8.563   5.524 -0.5230  0.2636 -0.3175
 1275SOL    HW1 5564   1.262   8.536   5.481  0.3007 -2.1570 -0.5007
 1275SOL    HW2 5565   1.411   8.544   5.460  0.4330 -0.4001  0.8607
 1276SOL     OW 5566   6.349   1.268   5.120 -0.0987 -0.3826  0.5597
 1276SOL    HW1 5567   6.378   1.326   5.049  0.1257  0.2878  1.1976
 1276SOL    HW2 5568   6.257   1.251   5.101  0.5899 -2.4686 -1.4548
 1277SOL     OW 5569   9.568   3.022   9.108 -0.2112 -0.8583 -0.0708
 1277SOL    HW1 5570   9.593   3.113   9.090 -1.1647 -0.5091  0.3252
 1277SOL    HW2 5571   9.577   2.978   9.023  2.1418 -0.8790  0.1079
 1278SOL     OW 5572   8.439   4.258   5.212  0.0259  0.2643  0.2951
 1278SOL    HW1 5573   8.447   4.281   5.120  0.0101  0.8090  0.4276
 1278SOL    HW2 5574   8.517   4.205   5.231 -0.7860 -1.2752 -0.4451
 1279SOL     OW 5575   5.742   3.358   8.449  0.8514 -1.0916 -0.1216
 1279SOL    HW1 5576   5.788   3.433   8.412  1.1770 -1.2047  0.0415
 1279SOL    HW2 5577   5.790   3.282   8.416  1.3291 -1.1869  0.7563
 1280SOL     OW 5578   9.166   6.888   7.240  0.0344  0.1353  0.5118
 1280SOL    HW1 5579   9.096   6.879   7.304 -0.4114  1.0711  0.1786
 1280SOL    HW2 5580   9.185   6.982   7.239  1.2555 -0.0951  0.5539
 1281SOL     OW 5581   9.037   8.300   0.427 -0.2634 -0.1482 -0.8257
 1281SOL    HW1 5582   9.096   8.257   0.489 -1.0961 -0.5813 -0.3140
 1281SOL    HW2 5583   9.095   8.344   0.365  0.6273 -1.7760 -1.2097
 1282SOL     OW 5584   1.094   4.057   3.985  0.1377  0.3416 -0.3173
 1282SOL    HW1 5585   1.025   4.120   4.005 -0.8424 -0.6619 -0.4039
 1282SOL    HW2 5586   1.142   4.095   3.912  0.1582  1.4091  0.2431
 1283SOL     OW 5587   6.287   9.372   4.698 -0.3420 -0.4381  0.2648
 1283SOL    HW1 5588   6.224   9.307   4.729 -2.0050  1.4395  1.0445
 1283SOL    HW2 5589   6.237   9.427   4.637  1.6553 -1.2533 -2.2789
 1284SOL     OW 5590   2.860   2.989   8.670 -0.1819  0.3351  0.0296
 1284SOL    HW1 5591   2.806   3.059   8.709  0.1605  1.3050 -1.1669
 1284SOL    HW2 5592   2.802   2.913   8.667 -1.1930  1.1026 -0.3912
 1285SOL     OW 5593   7.202   5.377   1.644  0.0439  1.0265 -0.0516
 1285SOL    HW1 5594   7.271   5.352   1.583 -0.5541 -0.1001 -0.2942
 1285SOL    HW2 5595   7.246   5.428   1.711  1.0339  0.6677 -0.4158
 1286SOL     OW 5596   4.287   0.382   8.198  0.2071 -0.0498  0.3014
 1286SOL    HW1 5597   4.381   0.397   8.194  0.3663 -1.1169 -0.3471
 1286SOL    HW2 5598   4.270   0.317   8.130 -0.8712 -0.5099  0.9860
 1287SOL     OW 5599   6.393   6.370   5.225  0.3344 -0.1560 -0.3327
 1287SOL    HW1 5600   6.436   6.441   5.178  1.4043 -1.4308 -1.3891
 1287SOL    HW2 5601   6.406   6.391   5.317  1.2682  0.6468 -0.6288
 1288SOL     OW 5602   7.871   4.003   1.968 -0.1290  0.2485 -0.0363
 1288SOL    HW1 5603   7.852   4.084   2.015 -0.2844 -0.8767  1.9652
 1288SOL    HW2 5604   7.785   3.966   1.949 -0.1507 -1.1108  2.2437
 1289SOL     OW 5605   4.860   8.521   5.997  0.0546  0.1568 -0.4846
 1289SOL    HW1 5606   4.916   8.562   5.931 -0.3905  1.2389 -0.2049
 1289SOL    HW2 5607   4.782   8.576   6.000 -1.1014 -1.3782 -0.9422
 1290SOL     OW 5608   6.159   8.395   0.091 -0.0293  0.0925 -0.7571
 1290SOL    HW1 5609   6.108   8.330   0.041 -0.3687 -1.4723  1.4769
 1290SOL    HW2 5610   6.094   8.461   0.115 -0.9068 -1.3754  1.2085
 1291SOL     OW 5611   2.600   7.106   0.098  0.3389 -0.0766 -0.0459
 1291SOL    HW1 5612   2.684   7.126   0.140  1.1143  1.0190 -1.9748
 1291SOL    HW2 5613   2.616   7.024   0.051 -0.5438 -1.3351  1.7360
 1292SOL     OW 5614   6.368   6.717   1.472 -0.0204 -0.6247 -0.0563
 1292SOL    HW1 5615   6.436   6.719   1.405  0.9780 -2.1945  0.8496
 1292SOL    HW2 5616   6.379   6.799   1.520  0.1937 -0.1528 -0.8919
 1293SOL     OW 5617   0.254   4.951   9.577 -0.3236  0.0407  0.1956
 1293SOL    HW1 5618   0.311   4.940   9.501  0.6313 -0.1353  0.9262
 1293SOL    HW2 5619   0.187   4.884   9.567 -0.9870  0.8744 -1.1809
 1294SOL     OW 5620   5.500   0.509   0.919  0.7658 -0.5256  0.6915
 1294SOL    HW1 5621   5.482   0.602   0.907 -0.7334 -0.8434  0.2553
 1294SOL    HW2 5622   5.570   0.506   0.984  0.8056  0.8949  0.7418
 1295SOL     OW 5623   7.366   4.237   2.137  0.2864  0.3376  0.2948
 1295SOL    HW1 5624   7.369   4.328   2.107 -0.7766  0.5546  0.8114
 1295SOL    HW2 5625   7.299   4.196   2.083  0.9063 -0.1989 -0.0756
 1296SOL     OW 5626   1.698   8.817   6.309 -0.1168  0.1670 -0.4722
 1296SOL    HW1 5627   1.650   8.750   6.259 -0.5337  0.5382 -0.5751
 1296SOL    HW2 5628   1.778   8.832   6.259 -0.7196  0.8355 -1.2635
 1297SOL     OW 5629   2.754   5.459   8.039 -0.0092 -0.1087  0.0191
 1297SOL    HW1 5630   2.753   5.450   7.943 -0.1935 -1.8542  0.1627
 1297SOL    HW2 5631   2.847   5.473   8.060  0.0767 -0.0545 -0.3699
 1298SOL     OW 5632   0.869   6.827   9.556 -0.5074 -0.6911 -0.2532
 1298SOL    HW1 5633   0.912   6.745   9.532  1.6969 -0.1150  1.4381
 1298SOL    HW2 5634   0.845   6.816   9.648 -0.9080  0.2782 -0.2270
 1299SOL     OW 5635   1.877   1.563   7.859 -0.0235  0.1093  0.2813
 1299SOL    HW1 5636   1.861   1.513   7.779  1.1370 -0.4081  0.3449
 1299SOL    HW2 5637   1.877   1.497   7.929  0.9860  0.2438  0.4360
 1300SOL     OW 5638   8.802   7.495   8.954  0.1482  0.3125 -0.2361
 1300SOL    HW1 5639   8.748   7.565   8.917 -1.5045 -1.3711 -1.2581
 1300SOL    HW2 5640   8.886   7.504   8.910  0.1533  1.9521  0.0571
 1301SOL     OW 5641   1.534   5.948   4.387 -0.4141  0.1505 -0.3585
 1301SOL    HW1 5642   1.458   5.901   4.421  0.2792 -0.3620  0.5185
 1301SOL    HW2 5643   1.575   5.886   4.326 -0.9953  0.6361 -1.2718
 1302SOL     OW 5644   8.546   8.723   7.010  0.2197  0.3813 -0.1498
 1302SOL    HW1 5645   8.477   8.674   7.055 -0.1943 -0.0043 -1.1776
 1302SOL    HW2 5646   8.527   8.815   7.032  1.3986  0.1050  2.3309
 1303SOL     OW 5647   2.776   6.867   4.222  0.1371 -0.1679  0.3861
 1303SOL    HW1 5648   2.724   6.832   4.150  0.5288  1.2107 -0.6057
 1303SOL    HW2 5649   2.852   6.808   4.228 -0.3668 -0.8319  0.2989
 1304SOL     OW 5650   8.877   4.643   5.861  0.6249 -0.2629 -0.3614
 1304SOL    HW1 5651   8.905   4.694   5.937  0.3075 -0.0188 -0.4075
 1304SOL    HW2 5652   8.941   4.664   5.793  1.2279 -0.8965 -0.0065
 1305SOL     OW 5653   5.444   1.728   9.486 -0.0525 -0.0045  0.3873
 1305SOL    HW1 5654   5.491   1.650   9.457 -0.0100  0.4628 -0.8886
 1305SOL    HW2 5655   5.504   1.800   9.468 -0.2907  0.3688  1.0717
 1306SOL     OW 5656   4.158   5.529   7.245  0.2187  0.0116  0.4895
 1306SOL    HW1 5657   4.176   5.436   7.234 -1.5792 -0.9026  4.0204
 1306SOL    HW2 5658   4.072   5.542   7.204  0.4413  0.1158  0.0528
 1307SOL     OW 5659   8.305   0.483   3.525 -0.3447 -0.3928  0.2893
 1307SOL    HW1 5660   8.237   0.489   3.592 -1.9683  0.2640 -1.3362
 1307SOL    HW2 5661   8.275   0.414   3.465  0.9512 -0.8086  0.0685
 1308SOL     OW 5662   0.954   3.159   2.970  0.8483  0.6245 -0.2821
 1308SOL    HW1 5663   0.939   3.173   3.064 -1.7198 -0.9003 -0.3711
 1308SOL    HW2 5664   1.043   3.192   2.955  1.9458 -0.4328  2.9696
 1309SOL     OW 5665   3.516   6.609   4.879 -0.1323 -0.1327 -0.0104
 1309SOL    HW1 5666   3.537   6.699   4.904 -1.9011  0.4685 -0.5649
 1309SOL    HW2 5667   3.577   6.555   4.931  1.1286  1.3599  0.1437
 1310SOL     OW 5668   3.035   3.378   8.817  0.4729  0.2243 -0.0731
 1310SOL    HW1 5669   3.102   3.378   8.886  0.6292 -2.3591 -0.1098
 1310SOL    HW2 5670   3.082   3.359   8.737 -0.1404 -0.4835 -0.2824
 1311SOL     OW 5671   5.406   1.937   0.474  0.4200  0.7841 -0.3143
 1311SOL    HW1 5672   5.465   1.861   0.482 -2.3978 -1.4582  1.2266
 1311SOL    HW2 5673   5.400   1.972   0.562 -0.3518  1.0958 -0.4831
 1312SOL     OW 5674   2.994   3.149   5.433 -0.9768  0.0382 -0.9060
 1312SOL    HW1 5675   3.016   3.227   5.383 -0.8353 -0.6819 -2.0121
 1312SOL    HW2 5676   3.074   3.128   5.481 -1.2102  0.9146 -0.1097
 1313SOL     OW 5677   3.795   8.248   5.578 -0.2830 -0.5936 -0.4433
 1313SOL    HW1 5678   3.824   8.213   5.662 -0.2164  1.6564  0.5357
 1313SOL    HW2 5679   3.868   8.301   5.546 -1.4632  1.2509 -0.2653
 1314SOL     OW 5680   4.276   7.815   7.983 -0.1294  0.1066 -0.3956
 1314SOL    HW1 5681   4.259   7.905   7.956  1.6548  1.0176  1.2606
 1314SOL    HW2 5682   4.371   7.809   7.990 -0.2528 -1.5782  0.5751
 1315SOL     OW 5683   4.967   8.781   3.684  0.3494  0.0386 -0.1285
 1315SOL    HW1 5684   4.896   8.823   3.635  1.6497  1.5519 -0.8372
 1315SOL    HW2 5685   4.945   8.796   3.776  0.3936  1.6895 -0.3582
 1316SOL     OW 5686   6.431   9.429   8.202  0.6410  0.1136 -0.4313
 1316SOL    HW1 5687   6.515   9.467   8.179  0.5848 -0.2314 -1.2535
 1316SOL    HW2 5688   6.423   9.442   8.296  1.8604 -0.3509 -0.2578
 1317SOL     OW 5689   6.382   4.365   5.046 -0.3667  0.2573  0.3234
 1317SOL    HW1 5690   6.440   4.290   5.027  0.2301  0.4652  1.2811
 1317SOL    HW2 5691   6.390   4.378   5.140 -1.6127  0.6068  0.3942
 1318SOL     OW 5692   0.368   9.447   6.471 -0.5975 -0.6163  0.2308
 1318SOL    HW1 5693   0.272   9.446   6.470 -0.6436  0.9455 -0.8677
 1318SOL    HW2 5694   0.393   9.358   6.493 -2.3023 -1.1859 -0.0068
 1319SOL     OW 5695   4.560   3.720   3.499  0.2177 -0.1740  0.3703
 1319SOL    HW1 5696   4.615   3.739   3.422 -1.3979 -0.4602 -0.9176
 1319SOL    HW2 5697   4.498   3.793   3.502 -0.2805 -0.6158  0.8859
 1320SOL     OW 5698   3.434   8.750   5.866 -0.4398 -0.3953 -0.0876
 1320SOL    HW1 5699   3.475   8.779   5.785 -0.8345 -0.4455 -0.3092
 1320SOL    HW2 5700   3.400   8.830   5.906 -1.3638 -0.5102 -0.6067
 1321SOL     OW 5701   4.092   7.171   2.666  0.2319 -0.4603 -0.1694
 1321SOL    HW1 5702   4.147   7.247   2.644 -0.0437 -0.8787 -2.6124
 1321SOL    HW2 5703   4.131   7.098   2.618 -1.0241 -1.2928  0.0142
 1322SOL     OW 5704   6.246   1.236   5.802 -0.1454 -0.0950  0.0254
 1322SOL    HW1 5705   6.270   1.319   5.843  0.6751 -1.3376  2.3023
 1322SOL    HW2 5706   6.313   1.223   5.735  1.1411  0.0515  1.2148
 1323SOL     OW 5707   5.867   2.766   6.866  0.3438 -0.6775 -0.1006
 1323SOL    HW1 5708   5.856   2.779   6.960 -0.2321  1.1722 -0.3813
 1323SOL    HW2 5709   5.819   2.685   6.848 -2.8904  0.8960  0.6508
 1324SOL     OW 5710   1.463   5.385   3.676  0.5786 -0.6771 -0.3992
 1324SOL    HW1 5711   1.386   5.442   3.676  0.3707 -0.7961  2.7846
 1324SOL    HW2 5712   1.535   5.442   3.703  1.3330 -0.9369 -1.7733
 1325SOL     OW 5713   3.564   6.907   1.996 -0.4828 -0.0866  0.1797
 1325SOL    HW1 5714   3.578   6.956   2.077 -2.7669 -0.8728  1.1450
 1325SOL    HW2 5715   3.629   6.837   1.998 -0.2554  0.1460  1.1326
 1326SOL     OW 5716   1.204   3.902   2.287  0.3855 -1.0181  0.1169
 1326SOL    HW1 5717   1.206   3.816   2.328 -1.2697 -1.4525 -0.6420
 1326SOL    HW2 5718   1.132   3.897   2.224 -0.2096  1.1476  0.5629
 1327SOL     OW 5719   6.193   5.191   8.850 -0.3008  0.1376 -0.2517
 1327SOL    HW1 5720   6.102   5.219   8.840  0.1325  1.1180 -1.6216
 1327SOL    HW2 5721   6.189   5.095   8.849 -1.4102  0.1411  0.8172
 1328SOL     OW 5722   3.858   1.206   8.669  0.8794  0.3482  0.7487
 1328SOL    HW1 5723   3.839   1.234   8.580 -1.0532 -0.6649  0.7817
 1328SOL    HW2 5724   3.950   1.226   8.682  1.3907 -0.1604 -1.7239
 1329SOL     OW 5725   6.516   2.756   1.852  0.0310 -0.0109  0.4883
 1329SOL    HW1 5726   6.556   2.842   1.863 -0.1828 -0.1048  2.1376
 1329SOL    HW2 5727   6.424   2.769   1.877  0.3496 -1.0350  2.3528
 1330SOL     OW 5728   8.649   6.859   7.554 -0.4565 -0.4404  0.2846
 1330SOL    HW1 5729   8.701   6.781   7.539 -0.2274 -0.4528  1.1103
 1330SOL    HW2 5730   8.586   6.860   7.482 -0.2064 -1.1657  0.0494
 1331SOL     OW 5731   5.331   9.198   8.635  0.2418  0.2131 -0.3237
 1331SOL    HW1 5732   5.406   9.255   8.617  1.8342 -1.5447  0.5150
 1331SOL    HW2 5733   5.332   9.186   8.730  2.3570 -4.1786 -0.6534
 1332SOL     OW 5734   6.258   2.338   8.544 -0.2671 -0.1601  0.1094
 1332SOL    HW1 5735   6.219   2.420   8.514 -1.2836 -0.0607  1.5590
 1332SOL    HW2 5736   6.334   2.325   8.488 -0.8738  1.0540 -1.0492
 1333SOL     OW 5737   5.102   7.575   5.671 -0.1385 -0.0420 -0.5520
 1333SOL    HW1 5738   5.070   7.489   5.643 -3.2998 -0.3959  3.3203
 1333SOL    HW2 5739   5.162   7.556   5.743 -0.0013  0.9895 -0.3774
 1334SOL     OW 5740   3.802   8.850   4.207  0.0780  0.1719  0.5797
 1334SOL    HW1 5741   3.834   8.904   4.279  1.2073  1.6394 -0.9174
 1334SOL    HW2 5742   3.857   8.772   4.209  1.1692  0.8998  0.4199
 1335SOL     OW 5743   2.260   5.621   0.306 -0.1128 -0.2225  0.2520
 1335SOL    HW1 5744   2.208   5.554   0.261 -0.8500  0.6831 -0.2533
 1335SOL    HW2 5745   2.303   5.573   0.377 -2.1560 -0.8698  1.1175
 1336SOL     OW 5746   3.625   5.210   4.289 -0.4329  0.4934 -0.3291
 1336SOL    HW1 5747   3.672   5.176   4.214  0.6056  1.0596  0.0476
 1336SOL    HW2 5748   3.592   5.296   4.261 -0.7111  0.3666 -0.3907
 1337SOL     OW 5749   1.017   8.625   2.266  0.0915  0.4061 -0.2894
 1337SOL    HW1 5750   1.020   8.534   2.296 -1.2517  0.3370 -0.2868
 1337SOL    HW2 5751   1.073   8.626   2.188  1.6530  0.0400  0.7786
 1338SOL     OW 5752   3.694   1.854   8.196 -0.1143 -0.3521  0.4128
 1338SOL    HW1 5753   3.693   1.782   8.133  0.3911 -0.0958  0.1148
 1338SOL    HW2 5754   3.605   1.854   8.233 -0.0007 -1.3764  0.7014
 1339SOL     OW 5755   7.947   8.580   0.373 -0.0525  0.2037 -0.1118
 1339SOL    HW1 5756   8.007   8.640   0.418 -0.1292  0.0338  0.2215
 1339SOL    HW2 5757   7.937   8.506   0.434  1.3025 -0.9199 -1.1803
 1340SOL     OW 5758   7.063   4.215   3.806  0.3622 -0.9048  0.4068
 1340SOL    HW1 5759   7.026   4.304   3.802  0.4061 -0.9079 -0.1914
 1340SOL    HW2 5760   7.001   4.162   3.755 -0.4410 -1.5058  1.9405
 1341SOL     OW 5761   3.880   1.143   4.686  0.0208  0.1900  0.4122
 1341SOL    HW1 5762   3.857   1.147   4.779  0.5774  0.4055  0.5432
 1341SOL    HW2 5763   3.948   1.076   4.680 -1.7240 -1.6153 -0.2102
 1342SOL     OW 5764   7.102   0.309   2.032  0.1569 -0.1456  0.2859
 1342SOL    HW1 5765   7.018   0.337   2.069 -0.0593  0.0195 -0.3328
 1342SOL    HW2 5766   7.155   0.288   2.109 -0.7581 -1.1594  0.6831
 1343SOL     OW 5767   6.204   6.433   7.158  0.2407 -0.3384 -0.0708
 1343SOL    HW1 5768   6.192   6.431   7.253  2.0863 -2.3140  0.2051
 1343SOL    HW2 5769   6.167   6.350   7.128  1.4112 -0.6199 -0.7953
 1344SOL     OW 5770   8.981   7.124   1.046 -0.0885 -0.3608  0.0001
 1344SOL    HW1 5771   8.929   7.084   0.976  0.0409 -0.7172  0.1032
 1344SOL    HW2 5772   8.953   7.215   1.048 -1.4277 -0.7631  0.7119
 1345SOL     OW 5773   7.144   2.247   8.127  0.8239 -0.0698  0.1258
 1345SOL    HW1 5774   7.081   2.205   8.184 -0.3102  0.7984 -0.4594
 1345SOL    HW2 5775   7.211   2.283   8.186 -1.4586  2.7928  1.1993
 1346SOL     OW 5776   5.254   4.348   2.247 -0.2145 -0.4113 -0.0228
 1346SOL    HW1 5777   5.179   4.404   2.266 -0.3997 -0.9317  0.8483
 1346SOL    HW2 5778   5.275   4.364   2.155 -0.7521  0.4955  0.0125
 1347SOL     OW 5779   2.317   4.005   6.776 -0.1195 -0.4316 -0.2414
 1347SOL    HW1 5780   2.349   4.028   6.863  1.5225 -2.0977 -0.3641
 1347SOL    HW2 5781   2.232   4.049   6.770 -0.4490 -0.5638  2.3311
 1348SOL     OW 5782   1.267   8.369   7.461  0.0997  0.3217  0.4501
 1348SOL    HW1 5783   1.201   8.390   7.395 -1.0791 -0.7583  1.2528
 1348SOL    HW2 5784   1.227   8.393   7.544  1.3502  1.1242  0.8529
 1349SOL     OW 5785   2.374   4.750   2.118 -0.5496 -0.7258  0.6401
 1349SOL    HW1 5786   2.328   4.722   2.197 -0.9202 -2.0860 -0.0296
 1349SOL    HW2 5787   2.307   4.750   2.050  0.1931 -1.6807 -0.1274
 1350SOL     OW 5788   3.239   3.902   1.020  1.0828  0.1441 -0.1704
 1350SOL    HW1 5789   3.323   3.938   0.990  0.6419 -0.8648 -2.9405
 1350SOL    HW2 5790   3.177   3.974   1.008  1.3511  0.5593  0.8685
 1351SOL     OW 5791   5.729   8.748   8.062  0.0200 -1.1788  0.0865
 1351SOL    HW1 5792   5.706   8.668   8.110  0.7876 -1.0294  0.7183
 1351SOL    HW2 5793   5.645   8.787   8.039 -0.3733 -1.1909  1.4220
 1352SOL     OW 5794   3.337   3.412   1.067  0.3343  0.1296 -0.6101
 1352SOL    HW1 5795   3.271   3.437   1.002 -0.6346 -0.2069  0.2267
 1352SOL    HW2 5796   3.318   3.467   1.143 -0.7878 -1.9012  0.6681
 1353SOL     OW 5797   2.865   6.102   2.120  0.3630  0.1914  0.8640
 1353SOL    HW1 5798   2.862   6.008   2.101 -1.8620  0.3613  0.0272
 1353SOL    HW2 5799   2.825   6.111   2.206 -0.4598  0.4378  0.4697
 1354SOL     OW 5800   1.141   4.733   2.833 -0.1610  0.5731  0.0202
 1354SOL    HW1 5801   1.157   4.651   2.879 -1.1677 -0.8286 -1.9940
 1354SOL    HW2 5802   1.220   4.785   2.848 -0.0465 -0.1774  2.4268
 1355SOL     OW 5803   5.185   5.810   4.120 -0.1128  0.1211  0.7388
 1355SOL    HW1 5804   5.106   5.809   4.065  1.1309 -0.3556 -1.1582
 1355SOL    HW2 5805   5.204   5.903   4.132 -1.2249  0.2500  1.6519
 1356SOL     OW 5806   8.938   5.964   8.491  0.1490 -0.0385 -0.3400
 1356SOL    HW1 5807   8.988   6.043   8.472 -0.3885  0.2014 -0.7748
 1356SOL    HW2 5808   8.854   5.996   8.523 -0.3266 -0.4180 -1.1674
 1357SOL     OW 5809   4.560   6.313   9.067  0.4928  0.1021 -0.5696
 1357SOL    HW1 5810   4.546   6.263   9.147 -1.1910 -0.6996 -1.3115
 1357SOL    HW2 5811   4.520   6.398   9.083  2.1310  0.7714  0.1956
 1358SOL     OW 5812   1.974   4.866   3.371 -0.5143  0.0337 -0.1530
 1358SOL    HW1 5813   2.067   4.889   3.367 -0.4528 -0.0193  0.8261
 1358SOL    HW2 5814   1.930   4.948   3.392 -0.4277 -0.3838  1.8996
 1359SOL     OW 5815   3.072   3.878   1.409 -0.0493 -0.0711  0.2254
 1359SOL    HW1 5816   3.085   3.785   1.423  0.4349  0.0246  0.4368
 1359SOL    HW2 5817   3.036   3.911   1.491  1.3010  0.2085  0.7263
 1360SOL     OW 5818   0.229   1.614   5.561 -0.4050 -0.0861 -0.0649
 1360SOL    HW1 5819   0.303   1.555   5.579  1.8915  1.8536 -2.3960
 1360SOL    HW2 5820   0.250   1.694   5.609 -1.5850  0.1542  0.0886
 1361SOL     OW 5821   5.139   7.431   6.467 -0.7135 -0.8670 -0.1146
 1361SOL    HW1 5822   5.203   7.360   6.472  0.0910 -0.1631 -0.1622
 1361SOL    HW2 5823   5.146   7.476   6.551  0.6220  0.6702 -0.9799
 1362SOL     OW 5824   9.273   7.282   2.822 -0.1366 -0.4398 -0.2152
 1362SOL    HW1 5825   9.361   7.298   2.789  0.5569  0.5773  2.0197
 1362SOL    HW2 5826   9.279   7.198   2.867 -0.0720  0.0491  0.7013
 1363SOL     OW 5827   2.608   7.676   3.042 -0.2448 -0.6671 -0.1577
 1363SOL    HW1 5828   2.702   7.665   3.054 -0.4070 -1.0089  0.9883
 1363SOL    HW2 5829   2.599   7.718   2.957  0.9697 -0.2594 -0.1082
 1364SOL     OW 5830   4.701   7.989   0.102 -0.0512 -0.5276 -0.0847
 1364SOL    HW1 5831   4.794   8.011   0.109 -0.3197  0.3830  0.7633
 1364SOL    HW2 5832   4.662   8.022   0.183 -1.9671  3.4410 -2.2977
 1365SOL     OW 5833   0.125   1.887   7.333 -0.5024 -0.1755  0.2315
 1365SOL    HW1 5834   0.146   1.866   7.242 -0.8953  1.1373 -0.1944
 1365SOL    HW2 5835   0.036   1.854   7.345 -0.6379  0.0831 -0.0282
 1366SOL     OW 5836   4.377   4.300   7.659 -0.2031  0.1088  0.2869
 1366SOL    HW1 5837   4.362   4.220   7.709  0.2002 -0.2787 -0.1906
 1366SOL    HW2 5838   4.344   4.371   7.714  0.1415 -0.3165  1.0451
 1367SOL     OW 5839   1.405   2.622   5.346  0.4869 -0.3728  0.1470
 1367SOL    HW1 5840   1.325   2.574   5.324  0.6795 -0.5329 -0.2360
 1367SOL    HW2 5841   1.447   2.568   5.413  0.9158 -0.9821 -0.5918
 1368SOL     OW 5842   3.421   8.750   6.868 -0.0197  0.1566 -0.8199
 1368SOL    HW1 5843   3.385   8.667   6.838 -1.0688  0.0147  0.6950
 1368SOL    HW2 5844   3.431   8.802   6.788  0.4487 -1.3236 -1.7699
 1369SOL     OW 5845   3.934   7.580   2.377  0.3311 -0.2670  0.0863
 1369SOL    HW1 5846   3.944   7.647   2.444 -2.0070 -0.6860  0.9495
 1369SOL    HW2 5847   3.981   7.504   2.411 -1.4514 -0.7266  1.7130
 1370SOL     OW 5848   8.632   4.654   0.169  0.3423  0.1713  0.3728
 1370SOL    HW1 5849   8.589   4.656   0.255 -0.4706 -0.8697  0.0036
 1370SOL    HW2 5850   8.576   4.708   0.113  1.3579  1.6136  0.6806
 1371SOL     OW 5851   8.575   3.225   8.371  0.2245  0.2627  0.4070
 1371SOL    HW1 5852   8.642   3.158   8.385  1.5576  1.1801 -1.1848
 1371SOL    HW2 5853   8.583   3.248   8.278 -0.8610  1.9262  0.6763
 1372SOL     OW 5854   8.638   2.970   8.162 -0.3435 -1.1989  0.5089
 1372SOL    HW1 5855   8.628   3.056   8.122 -1.2142 -2.2317 -1.6325
 1372SOL    HW2 5856   8.570   2.968   8.230 -0.5072 -0.3196  0.3843
 1373SOL     OW 5857   1.056   3.853   6.742 -0.3070  0.2167  0.0325
 1373SOL    HW1 5858   1.083   3.898   6.662 -0.7200  0.5302  0.0683
 1373SOL    HW2 5859   0.995   3.913   6.784 -1.5240 -0.7226 -0.3398
 1374SOL     OW 5860   8.912   8.170   2.230 -0.4690 -0.0179 -0.3657
 1374SOL    HW1 5861   8.902   8.157   2.136  0.0659 -2.1762 -0.1750
 1374SOL    HW2 5862   8.949   8.258   2.239 -0.6955  0.2850 -2.1462
 1375SOL     OW 5863   1.449   2.210   5.610 -0.0479 -0.3460  0.4870
 1375SOL    HW1 5864   1.472   2.180   5.522  1.4633  0.5747  0.5222
 1375SOL    HW2 5865   1.439   2.129   5.660  0.3725 -0.8707 -0.2390
 1376SOL     OW 5866   8.503   4.846   7.456 -0.2147  0.5048 -0.1160
 1376SOL    HW1 5867   8.468   4.862   7.544  2.9334  0.8380  1.1953
 1376SOL    HW2 5868   8.504   4.751   7.447  1.9651  0.3065  1.4373
 1377SOL     OW 5869   3.230   0.146   0.026 -0.6653 -0.0211 -0.3167
 1377SOL    HW1 5870   3.141   0.172   0.004 -0.8063  0.6064  0.8866
 1377SOL    HW2 5871   3.220   0.068   0.081 -0.3917 -0.7764 -1.3136
 1378SOL     OW 5872   0.121   0.583   2.859  0.2591 -0.1156 -0.2686
 1378SOL    HW1 5873   0.175   0.619   2.928 -0.6355  3.0155 -1.0303
 1378SOL    HW2 5874   0.036   0.566   2.901  0.5723 -1.0772  0.0062
 1379SOL     OW 5875   3.130   7.242   6.219 -0.3976 -0.3253  0.0156
 1379SOL    HW1 5876   3.093   7.156   6.243  0.2827 -0.6736 -0.1508
 1379SOL    HW2 5877   3.060   7.286   6.171 -0.2495 -1.3866 -1.2251
 1380SOL     OW 5878   6.001   3.964   4.064 -0.4092  0.2753 -0.3695
 1380SOL    HW1 5879   5.974   3.989   4.152 -0.2882  1.7879 -0.7260
 1380SOL    HW2 5880   5.926   3.985   4.009 -0.9668 -1.8472 -0.4991
 1381SOL     OW 5881   0.456   9.017   5.818 -0.0784 -0.0747  0.3791
 1381SOL    HW1 5882   0.478   9.021   5.911 -1.9585 -1.1576  0.9068
 1381SOL    HW2 5883   0.455   8.924   5.797 -0.0028  0.1450 -0.6647
 1382SOL     OW 5884   1.321   6.061   3.307  0.1954  0.2347 -0.3830
 1382SOL    HW1 5885   1.246   6.050   3.249 -0.3598 -0.5151  0.4568
 1382SOL    HW2 5886   1.283   6.094   3.389  0.9113  0.8404 -0.2885
 1383SOL     OW 5887   7.287   2.017   9.131  0.2628  0.3291 -0.0534
 1383SOL    HW1 5888   7.197   1.984   9.134  0.1133  0.7156 -0.2090
 1383SOL    HW2 5889   7.278   2.109   9.106  0.7878 -0.0263 -1.6511
 1384SOL     OW 5890   8.347   4.691   2.957  0.3015  0.0538  0.6446
 1384SOL    HW1 5891   8.396   4.756   3.008  2.4415 -0.5461 -0.5100
 1384SOL    HW2 5892   8.381   4.700   2.868 -1.1393 -0.9884 -0.0439
 1385SOL     OW 5893   0.682   2.800   1.156  0.6568  0.3727  0.2371
 1385SOL    HW1 5894   0.595   2.777   1.123  0.5539 -0.5126  1.0800
 1385SOL    HW2 5895   0.674   2.892   1.182  0.0777  0.4009 -0.0174
 1386SOL     OW 5896   1.945   1.429   7.635 -0.2648  0.2648 -0.2187
 1386SOL    HW1 5897   1.908   1.355   7.588  2.7898 -1.4440 -0.2161
 1386SOL    HW2 5898   2.005   1.390   7.698  0.1391  2.7079  1.0484
 1387SOL     OW 5899   4.677   1.446   7.789  0.2551  0.6679 -0.5819
 1387SOL    HW1 5900   4.756   1.498   7.799  0.3645  0.2140  1.2502
 1387SOL    HW2 5901   4.696   1.387   7.716  0.4219  2.5964 -2.1676
 1388SOL     OW 5902   8.941   8.414   8.645 -0.2271 -0.4821 -0.6034
 1388SOL    HW1 5903   8.935   8.322   8.673 -0.2069 -0.5572 -0.8507
 1388SOL    HW2 5904   8.904   8.463   8.719 -1.0059 -0.7381 -0.8069
 1389SOL     OW 5905   0.491   9.225   4.352 -0.2766  0.1388 -0.0813
 1389SOL    HW1 5906   0.440   9.233   4.432 -2.1155 -0.3564 -1.1390
 1389SOL    HW2 5907   0.542   9.145   4.364 -0.7822 -0.1042  0.4800
 1390SOL     OW 5908   4.738   9.395   6.253  0.1219  0.2134 -0.1537
 1390SOL    HW1 5909   4.736   9.483   6.213 -1.3325 -0.4895 -1.7554
 1390SOL    HW2 5910   4.664   9.394   6.312 -0.2668 -0.1382 -0.6383
 1391SOL     OW 5911   2.460   2.384   0.421  0.4142 -0.4143 -0.2156
 1391SOL    HW1 5912   2.380   2.398   0.370 -0.8094  0.5048  1.8237
 1391SOL    HW2 5913   2.433   2.326   0.492  1.4538  0.1934  0.7068
 1392SOL     OW 5914   7.308   1.051   5.976 -0.3819 -0.1517  0.6745
 1392SOL    HW1 5915   7.347   1.109   5.911 -0.0564 -1.5410 -0.4310
 1392SOL    HW2 5916   7.295   1.106   6.053  0.0633  1.3214 -0.2653
 1393SOL     OW 5917   0.609   5.180   3.512  0.0296  0.3393  0.1035
 1393SOL    HW1 5918   0.517   5.205   3.501  0.4396  1.5255 -0.9718
 1393SOL    HW2 5919   0.642   5.174   3.423  0.7081 -1.3121  0.4453
 1394SOL     OW 5920   5.235   8.998   6.673 -0.2811 -0.3062  0.1965
 1394SOL    HW1 5921   5.216   9.080   6.627  1.9322  0.5439  0.6838
 1394SOL    HW2 5922   5.175   8.935   6.634  0.5671  0.6685 -2.9711
 1395SOL     OW 5923   8.827   4.259   1.701  0.2466 -0.4106  0.3704
 1395SOL    HW1 5924   8.891   4.231   1.766  1.2005 -0.2779 -0.4881
 1395SOL    HW2 5925   8.873   4.325   1.649 -0.9927  0.5785  0.4980
 1396SOL     OW 5926   1.354   4.511   1.928  0.3441 -0.3791  0.0614
 1396SOL    HW1 5927   1.367   4.602   1.952  0.2902  0.2824 -2.1909
 1396SOL    HW2 5928   1.432   4.466   1.961  0.5767  0.5394  0.8149
 1397SOL     OW 5929   5.862   2.363   5.863 -0.0077  0.5531 -0.0383
 1397SOL    HW1 5930   5.797   2.317   5.811 -1.1519  0.7669  1.1392
 1397SOL    HW2 5931   5.811   2.420   5.920  1.2172  0.7953  0.8616
 1398SOL     OW 5932   5.958   7.328   0.392  0.4898  0.8028 -0.6385
 1398SOL    HW1 5933   5.974   7.348   0.484  0.2444  2.6833 -0.9616
 1398SOL    HW2 5934   6.025   7.264   0.369  0.5355  0.2789  0.8420
 1399SOL     OW 5935   7.120   0.021   3.200 -0.2725 -0.0411 -0.0027
 1399SOL    HW1 5936   7.132   0.042   3.107  0.3776  0.1481  0.1210
 1399SOL    HW2 5937   7.189  -0.042   3.220 -1.1354 -1.0033  0.0711
 1400SOL     OW 5938   6.273   0.569   1.087  0.2454 -0.0485  0.0879
 1400SOL    HW1 5939   6.287   0.544   0.995  2.8559 -2.0118  0.8857
 1400SOL    HW2 5940   6.299   0.661   1.091 -0.9586  0.3853 -1.3169
 1401SOL     OW 5941   5.560   7.270   2.213  0.4567  0.4150 -0.1348
 1401SOL    HW1 5942   5.630   7.208   2.233 -0.9995 -1.0152  0.8102
 1401SOL    HW2 5943   5.533   7.248   2.123  0.9223  0.6863 -0.3437
 1402SOL     OW 5944   6.597   1.262   0.503  0.2367 -0.1725 -0.5574
 1402SOL    HW1 5945   6.678   1.305   0.530 -0.1098 -0.5716  1.2520
 1402SOL    HW2 5946   6.535   1.280   0.574 -1.2689  0.0742 -1.8662
 1403SOL     OW 5947   4.056   7.473   2.774 -0.3419  0.3161 -0.3936
 1403SOL    HW1 5948   4.081   7.438   2.689 -0.1042 -1.4763  0.3667
 1403SOL    HW2 5949   4.133   7.459   2.829 -0.3187  1.8915  0.0261
 1404SOL     OW 5950   2.038   1.327   3.425  0.2625 -0.2076  0.2185
 1404SOL    HW1 5951   2.088   1.361   3.499  0.8139 -0.3947 -0.0679
 1404SOL    HW2 5952   1.949   1.362   3.439  0.1447 -0.9365  1.4178
 1405SOL     OW 5953   8.049   9.237   8.673 -1.0937 -0.0365 -0.4556
 1405SOL    HW1 5954   8.095   9.168   8.721 -1.4547 -0.2724 -0.4413
 1405SOL    HW2 5955   8.095   9.244   8.590 -1.2502 -0.5243 -0.5858
 1406SOL     OW 5956   5.853   8.580   4.886  0.4356 -0.5779  0.1731
 1406SOL    HW1 5957   5.803   8.661   4.890 -0.0195 -0.6671 -2.3243
 1406SOL    HW2 5958   5.817   8.532   4.811  0.4387 -3.2965  1.7514
 1407SOL     OW 5959   4.765   5.278   8.379 -0.7231  0.0153  0.1598
 1407SOL    HW1 5960   4.737   5.365   8.350  0.8550  0.5397  0.1539
 1407SOL    HW2 5961   4.707   5.258   8.453 -1.8579  0.5601 -0.5569
 1408SOL     OW 5962   1.905   3.972   4.263 -0.6253  0.1570 -0.2110
 1408SOL    HW1 5963   1.824   3.921   4.266 -0.6255  0.0744 -1.3325
 1408SOL    HW2 5964   1.974   3.909   4.284 -0.8771  0.3314  1.2315
 1409SOL     OW 5965   2.589   2.211   5.319  0.1319  0.4058 -0.5540
 1409SOL    HW1 5966   2.681   2.196   5.297  0.3042 -0.3637  0.6408
 1409SOL    HW2 5967   2.543   2.137   5.281 -0.1072  1.1207 -1.7169
 1410SOL     OW 5968   2.017   0.614   7.527  0.1767 -0.1984 -0.6287
 1410SOL    HW1 5969   2.103   0.648   7.549 -1.1164  1.2378  2.9803
 1410SOL    HW2 5970   2.011   0.531   7.574 -1.2303  0.9669  1.3975
 1411SOL     OW 5971   5.885   3.174   0.927 -0.2264 -0.0911  0.2280
 1411SOL    HW1 5972   5.952   3.190   0.861  0.1999  1.8219  1.0453
 1411SOL    HW2 5973   5.885   3.253   0.981 -1.5331 -1.0039  1.6682
 1412SOL     OW 5974   3.305   3.950   5.830 -0.0756  0.1778 -0.3540
 1412SOL    HW1 5975   3.215   3.931   5.803  0.2925 -1.5466 -0.4525
 1412SOL    HW2 5976   3.358   3.930   5.754  0.6848 -1.8883  0.6539
 1413SOL     OW 5977   5.197   5.919   6.655  0.3161  0.3762  0.3888
 1413SOL    HW1 5978   5.287   5.904   6.625  0.6013  2.3073  0.1735
 1413SOL    HW2 5979   5.200   6.003   6.700 -1.0016 -0.4490  2.1452
 1414SOL     OW 5980   2.229   0.446   0.740 -0.3223  0.0481  0.5403
 1414SOL    HW1 5981   2.231   0.373   0.801  1.7078  0.5102  1.1040
 1414SOL    HW2 5982   2.203   0.407   0.656  1.1914 -1.4403  0.7098
 1415SOL     OW 5983   7.718   3.030   6.853 -0.0220  0.3078  0.5166
 1415SOL    HW1 5984   7.715   3.057   6.762 -2.6352 -0.7558  0.2095
 1415SOL    HW2 5985   7.629   3.043   6.886  0.4635 -0.7766  2.4703
 1416SOL     OW 5986   4.846   5.749   9.305  0.0579 -0.1272 -0.1260
 1416SOL    HW1 5987   4.806   5.668   9.336  0.9852 -0.6188 -0.1765
 1416SOL    HW2 5988   4.812   5.816   9.363 -0.0710 -0.6869  0.4537
 1417SOL     OW 5989   3.116   6.836   5.843  0.3568  0.0536  0.1541
 1417SOL    HW1 5990   3.210   6.820   5.841  0.0719 -1.8612 -0.8698
 1417SOL    HW2 5991   3.078   6.754   5.874 -1.0070  0.5569 -0.0922
 1418SOL     OW 5992   9.253   2.629   0.226  0.3889  0.3599  0.4599
 1418SOL    HW1 5993   9.318   2.564   0.254  1.4428  1.1107 -0.1549
 1418SOL    HW2 5994   9.304   2.709   0.213 -0.7675  1.1115  0.4826
 1419SOL     OW 5995   7.763   3.269   0.213  0.2811 -0.0308 -0.1641
 1419SOL    HW1 5996   7.797   3.181   0.229  0.8817  0.0147 -1.1167
 1419SOL    HW2 5997   7.800   3.323   0.283  1.1872 -0.2331 -0.4736
 1420SOL     OW 5998   3.820   6.652   8.830  0.0434  0.4872  0.5329
 1420SOL    HW1 5999   3.901   6.602   8.840 -0.4792 -0.8122 -1.2633
 1420SOL    HW2 6000   3.762   6.617   8.898  0.9933  1.5935  1.9950
 1421SOL     OW 6001   0.825   9.270   1.491 -0.3020  0.0913  0.1700
 1421SOL    HW1 6002   0.796   9.347   1.540  2.7139  0.2796  1.9063
 1421SOL    HW2 6003   0.809   9.197   1.550 -1.5289 -0.4376 -0.7750
 1422SOL     OW 6004   5.540   5.317   7.720 -0.1501 -0.2247  0.3873
 1422SOL    HW1 6005   5.557   5.225   7.700  0.0835 -0.3302  1.0233
 1422SOL    HW2 6006   5.627   5.357   7.723 -0.3169  0.3205 -1.2021
 1423SOL     OW 6007   7.311   8.792   0.102  0.2284  0.2969  0.6382
 1423SOL    HW1 6008   7.296   8.886   0.106 -1.8145  0.0371  0.0230
 1423SOL    HW2 6009   7.373   8.775   0.173 -0.4188  1.9092  1.6446
 1424SOL     OW 6010   2.120   2.829   3.960  0.1825  0.2774 -0.6485
 1424SOL    HW1 6011   2.159   2.915   3.945 -0.1971  0.9569  1.8354
 1424SOL    HW2 6012   2.040   2.848   4.010  0.5636 -1.5427  0.7383
 1425SOL     OW 6013   4.277   6.968   9.092  0.2471  0.1171  0.0627
 1425SOL    HW1 6014   4.196   7.015   9.070  0.1678 -0.4759 -0.9801
 1425SOL    HW2 6015   4.304   6.927   9.010  0.9748 -0.6564  0.6698
 1426SOL     OW 6016   7.976   2.960   0.079  0.0934 -0.2848  0.1937
 1426SOL    HW1 6017   8.040   2.893   0.105  1.0081  1.2510  2.1349
 1426SOL    HW2 6018   8.026   3.021   0.024 -0.5649 -0.7755 -0.9906
 1427SOL     OW 6019   1.712   8.796   0.754  0.5996 -0.0600 -0.0042
 1427SOL    HW1 6020   1.667   8.880   0.765  1.2006  0.2270  0.3343
 1427SOL    HW2 6021   1.716   8.783   0.659 -0.6768 -0.3693 -0.0321
 1428SOL     OW 6022   0.819   5.879   3.107  0.3393 -0.3324  0.5862
 1428SOL    HW1 6023   0.791   5.914   3.191  1.1695 -1.3458  1.3100
 1428SOL    HW2 6024   0.765   5.802   3.093 -0.6107  0.4660 -0.4045
 1429SOL     OW 6025   5.660   3.643   0.222  0.1442 -0.1684  0.2175
 1429SOL    HW1 6026   5.632   3.734   0.215 -1.2613 -0.5663  0.3746
 1429SOL    HW2 6027   5.727   3.643   0.290  1.4981  1.0137 -1.0425
 1430SOL     OW 6028   8.467   1.872   7.612  0.7651 -0.1167 -0.2062
 1430SOL    HW1 6029   8.502   1.907   7.694  1.7459 -1.9772  0.2451
 1430SOL    HW2 6030   8.416   1.795   7.640 -0.0433  0.0254 -1.2438
 1431SOL     OW 6031   6.687   6.495   6.956  0.0198 -0.5096 -0.6595
 1431SOL    HW1 6032   6.674   6.444   6.876  0.3707  0.7958 -1.5926
 1431SOL    HW2 6033   6.600   6.498   6.996 -0.2970 -0.6838 -1.3106
 1432SOL     OW 6034   7.475   4.282   1.633 -0.1630  0.6604 -0.3533
 1432SOL    HW1 6035   7.501   4.245   1.549  1.5975  2.4161 -0.6468
 1432SOL    HW2 6036   7.555   4.319   1.669 -1.0079  0.5130  1.8305
 1433SOL     OW 6037   6.865   8.954   0.867 -0.2801 -0.4187  0.3810
 1433SOL    HW1 6038   6.861   8.948   0.962 -0.8177 -0.3988  0.3650
 1433SOL    HW2 6039   6.957   8.943   0.846 -0.3293 -1.9606  0.8124
 1434SOL     OW 6040   6.346   0.379   4.400 -0.3962  0.2169  0.1749
 1434SOL    HW1 6041   6.373   0.296   4.362  1.7612  1.2549 -0.7791
 1434SOL    HW2 6042   6.278   0.412   4.341 -0.5942 -0.4452  0.0317
 1435SOL     OW 6043   5.754   5.809   2.925  0.1525 -0.4309 -0.2371
 1435SOL    HW1 6044   5.727   5.790   2.836  0.3594 -1.6586 -0.0509
 1435SOL    HW2 6045   5.827   5.871   2.915  0.0936 -0.4651 -0.9099
 1436SOL     OW 6046   1.953   3.395   5.429  0.2211  0.0501  0.0643
 1436SOL    HW1 6047   2.007   3.345   5.368  0.5233  1.1510 -0.6071
 1436SOL    HW2 6048   1.975   3.486   5.410  0.5014  0.4240  1.9888
 1437SOL     OW 6049   7.402   7.665   2.774  0.4724  0.1252 -0.6214
 1437SOL    HW1 6050   7.312   7.652   2.743 -0.1064  0.8085  0.6693
 1437SOL    HW2 6051   7.416   7.759   2.766  0.8440  0.1039 -0.2382
 1438SOL     OW 6052   1.636   0.406   7.377  0.7541 -0.4505 -0.1809
 1438SOL    HW1 6053   1.648   0.501   7.380 -1.1047 -0.2112  0.9566
 1438SOL    HW2 6054   1.626   0.386   7.283 -0.0568  0.6575 -0.3527
 1439SOL     OW 6055   8.329   6.879   5.867 -0.3399 -0.1816 -0.9218
 1439SOL    HW1 6056   8.360   6.825   5.939  0.6550  0.5691 -0.7759
 1439SOL    HW2 6057   8.360   6.834   5.788 -0.4161 -0.3719 -0.8447
 1440SOL     OW 6058   0.519   0.750   3.243 -0.0893 -0.0989  0.6555
 1440SOL    HW1 6059   0.447   0.697   3.209 -0.5814  0.9756 -0.0455
 1440SOL    HW2 6060   0.567   0.691   3.301  0.8675 -2.0439 -1.9351
 1441SOL     OW 6061   1.884   0.320   0.842 -0.1393 -0.3302 -0.3403
 1441SOL    HW1 6062   1.808   0.302   0.898 -0.0447 -0.7850 -0.3554
 1441SOL    HW2 6063   1.957   0.331   0.903 -0.3237  0.7471 -0.2830
 1442SOL     OW 6064   2.980   0.435   0.947 -0.5055  0.8056  0.0844
 1442SOL    HW1 6065   3.039   0.509   0.961 -1.2221  1.0099  2.5253
 1442SOL    HW2 6066   3.023   0.362   0.990 -1.5687  0.7526  1.1046
 1443SOL     OW 6067   4.149   1.989   3.520  0.4448  0.7621  0.2562
 1443SOL    HW1 6068   4.166   1.901   3.486  0.9620  0.5496  1.0484
 1443SOL    HW2 6069   4.057   2.005   3.499  0.9022  0.9347 -1.8793
 1444SOL     OW 6070   8.137   7.953   7.197  0.3099 -0.1294 -0.0207
 1444SOL    HW1 6071   8.113   8.041   7.170  0.9844  0.2876  0.6776
 1444SOL    HW2 6072   8.058   7.901   7.185  0.7289 -0.2076 -3.5419
 1445SOL     OW 6073   2.787   9.224   3.201 -0.1888  0.9446 -0.0563
 1445SOL    HW1 6074   2.848   9.165   3.244 -1.2029  0.4139  0.6809
 1445SOL    HW2 6075   2.705   9.176   3.197 -0.3980  1.3620 -1.6888
 1446SOL     OW 6076   8.923   5.669   7.359 -0.5125 -0.4827 -0.1123
 1446SOL    HW1 6077   8.883   5.593   7.403 -1.3467 -0.8089 -1.3746
 1446SOL    HW2 6078   8.995   5.632   7.307 -0.4575 -0.3085 -0.1606
 1447SOL     OW 6079   8.227   7.569   0.415  0.7167  0.0592  1.0770
 1447SOL    HW1 6080   8.173   7.647   0.406  0.0240 -0.4493  0.7577
 1447SOL    HW2 6081   8.194   7.509   0.349  1.5536 -0.3349  1.0026
 1448SOL     OW 6082   6.161   9.213   1.430 -0.2131  0.0336 -0.2669
 1448SOL    HW1 6083   6.251   9.216   1.460 -0.2132 -1.4162 -0.0389
 1448SOL    HW2 6084   6.109   9.244   1.504  0.1319  2.3393 -0.8879
 1449SOL     OW 6085   5.714   4.543   9.592 -0.1198 -0.1998  0.0958
 1449SOL    HW1 6086   5.646   4.477   9.609  0.9136 -1.3117  0.0750
 1449SOL    HW2 6087   5.686   4.619   9.643 -1.2234 -0.7258  0.3274
 1450SOL     OW 6088   4.682   8.590   9.473  0.0662 -0.6222 -0.4332
 1450SOL    HW1 6089   4.670   8.506   9.429 -3.0256 -1.0096  0.9061
 1450SOL    HW2 6090   4.612   8.646   9.438  0.3456  0.5007  0.7105
 1451SOL     OW 6091   7.131   3.281   5.830  0.2367 -0.3562  0.2934
 1451SOL    HW1 6092   7.115   3.316   5.742  1.5208  0.6456  0.4178
 1451SOL    HW2 6093   7.099   3.350   5.888  0.4924 -0.4874  0.5903
 1452SOL     OW 6094   5.258   4.999   4.884 -0.2295  0.1898 -0.4679
 1452SOL    HW1 6095   5.298   5.067   4.830 -0.0491  0.7145  0.3110
 1452SOL    HW2 6096   5.192   5.045   4.935 -0.8558 -0.4221 -0.7095
 1453SOL     OW 6097   4.487   2.443   6.139 -0.5085 -0.4833 -0.3257
 1453SOL    HW1 6098   4.536   2.418   6.217 -1.6016  0.0008  0.5304
 1453SOL    HW2 6099   4.532   2.397   6.067 -0.1592 -1.8343  0.7081
 1454SOL     OW 6100   3.897   6.176   9.476  0.9867  0.4357  0.0936
 1454SOL    HW1 6101   3.839   6.105   9.449  1.7087 -0.0467 -0.2490
 1454SOL    HW2 6102   3.839   6.249   9.497  0.3551  0.9926 -3.0859
 1455SOL     OW 6103   0.040   4.874   7.428 -0.3829 -0.9609  0.7545
 1455SOL    HW1 6104   0.042   4.859   7.333  0.4449  1.5408  0.3117
 1455SOL    HW2 6105   0.099   4.807   7.464 -1.7157 -2.7897 -0.2945
 1456SOL     OW 6106   5.462   0.610   7.481  0.9929 -0.1076  0.3898
 1456SOL    HW1 6107   5.475   0.704   7.488  1.6308 -0.0918 -0.8441
 1456SOL    HW2 6108   5.468   0.579   7.572 -1.5975  1.2876  1.1273
 1457SOL     OW 6109   1.467   5.702   9.510  0.2668  0.1911 -0.0584
 1457SOL    HW1 6110   1.500   5.761   9.442 -0.9373  1.1599  0.1525
 1457SOL    HW2 6111   1.374   5.725   9.518 -0.3618 -2.0559 -0.2745
 1458SOL     OW 6112   6.585   2.650   3.612  0.0067  0.6189  0.4772
 1458SOL    HW1 6113   6.565   2.701   3.533 -0.9048  2.4940  1.8394
 1458SOL    HW2 6114   6.621   2.715   3.673 -0.3350 -0.5699  1.9824
 1459SOL     OW 6115   9.535   3.005   9.536  0.3046  0.1692 -0.1085
 1459SOL    HW1 6116   9.575   2.959   9.462 -0.8877 -1.0135 -0.0663
 1459SOL    HW2 6117   9.486   3.077   9.496 -0.6773 -0.7109 -0.5577
 1460SOL     OW 6118   3.426   6.523   4.024 -0.2519 -0.2837  0.3305
 1460SOL    HW1 6119   3.391   6.499   4.110 -0.6857  0.7691  0.4596
 1460SOL    HW2 6120   3.360   6.581   3.986  0.2965 -0.1143 -0.3873
 1461SOL     OW 6121   6.249   7.748   9.410  0.0524  0.0653 -0.0475
 1461SOL    HW1 6122   6.178   7.685   9.421 -0.5950  0.6118 -1.0015
 1461SOL    HW2 6123   6.289   7.754   9.497 -1.8972  0.7306  0.8635
 1462SOL     OW 6124   0.085   8.983   5.358  0.9298  0.0173  0.1015
 1462SOL    HW1 6125   0.146   8.910   5.363  2.9103  1.5285 -0.6648
 1462SOL    HW2 6126   0.140   9.061   5.369 -0.8938  1.4560 -0.4789
 1463SOL     OW 6127   5.439   5.433   1.517 -0.4684  0.1517 -0.1944
 1463SOL    HW1 6128   5.513   5.494   1.521 -1.4545  1.3831  0.0666
 1463SOL    HW2 6129   5.461   5.365   1.580  0.9052 -0.0605 -0.8672
 1464SOL     OW 6130   3.211   2.813   5.769 -0.5645 -0.3881 -0.0954
 1464SOL    HW1 6131   3.152   2.887   5.782 -0.6957 -0.4208 -0.5015
 1464SOL    HW2 6132   3.269   2.815   5.845 -2.1473 -1.3457  1.2279
 1465SOL     OW 6133   4.903   5.446   3.125 -0.0190 -0.3758 -0.4303
 1465SOL    HW1 6134   4.853   5.395   3.062 -0.5699  0.1620 -0.4376
 1465SOL    HW2 6135   4.956   5.505   3.072 -1.6649  1.1978 -0.4016
 1466SOL     OW 6136   6.486   3.910   8.376  0.2763 -0.0339  0.3038
 1466SOL    HW1 6137   6.398   3.909   8.415  0.2159  0.3205  0.1820
 1466SOL    HW2 6138   6.470   3.922   8.282  0.3881 -1.5333  0.0688
 1467SOL     OW 6139   3.591   1.852   2.709  0.4466 -0.1168  0.3188
 1467SOL    HW1 6140   3.589   1.945   2.685  0.5066  0.3091  1.8531
 1467SOL    HW2 6141   3.663   1.816   2.657  0.2581  0.6243 -0.4899
 1468SOL     OW 6142   5.259   3.143   0.733 -0.5016  0.1283  0.1994
 1468SOL    HW1 6143   5.321   3.215   0.728 -0.8701  0.3742 -2.5153
 1468SOL    HW2 6144   5.313   3.067   0.755  0.7863  0.4034 -1.7006
 1469SOL     OW 6145   3.123   8.552   7.153  0.3542  0.0973 -0.0076
 1469SOL    HW1 6146   3.062   8.599   7.210  1.0153 -0.6826  1.4108
 1469SOL    HW2 6147   3.210   8.583   7.180  0.6246  1.5646 -2.3331
 1470SOL     OW 6148   7.240   5.011   0.829 -0.0040  0.0817  0.4787
 1470SOL    HW1 6149   7.282   5.030   0.745  0.2384 -0.1124  0.5540
 1470SOL    HW2 6150   7.313   5.003   0.891 -0.2130  0.7791  0.8200
 1471SOL     OW 6151   2.218   2.129   5.387  0.4376 -0.0499  0.3885
 1471SOL    HW1 6152   2.309   2.141   5.360  0.5025  0.6101  0.8785
 1471SOL    HW2 6153   2.218   2.047   5.436  0.8046  0.0339  0.5294
 1472SOL     OW 6154   8.031   3.609   6.167  0.0576 -0.0151  0.3270
 1472SOL    HW1 6155   8.027   3.526   6.120  4.4600  0.0186 -0.5956
 1472SOL    HW2 6156   8.008   3.586   6.257 -1.1325 -1.6984 -0.3543
 1473SOL     OW 6157   4.658   9.585   3.437  0.0145  0.6243  0.1831
 1473SOL    HW1 6158   4.655   9.510   3.496 -2.6249 -0.1314 -0.7733
 1473SOL    HW2 6159   4.623   9.658   3.487  0.8387  0.7986  0.5258
 1474SOL     OW 6160   6.909   9.351   4.956  0.0687  0.8297  0.4520
 1474SOL    HW1 6161   6.871   9.437   4.973  2.2539  1.9289  0.1549
 1474SOL    HW2 6162   6.938   9.355   4.865 -0.4260 -0.5119  0.2033
 1475SOL     OW 6163   8.523   9.510   4.543  0.7147  0.1394  0.6249
 1475SOL    HW1 6164   8.466   9.492   4.618 -1.5491  0.5935 -0.9029
 1475SOL    HW2 6165   8.497   9.597   4.513 -0.1805 -1.0029 -2.1467
 1476SOL     OW 6166   0.758   8.896   4.072 -0.5964  0.4969 -0.2023
 1476SOL    HW1 6167   0.729   8.949   3.998  1.8987  0.8999 -0.9856
 1476SOL    HW2 6168   0.780   8.960   4.140  0.6089  0.3904 -0.4693
 1477SOL     OW 6169   7.855   4.715   0.734  0.4743  0.7201  0.1122
 1477SOL    HW1 6170   7.928   4.653   0.733  0.3029  0.4526  1.6203
 1477SOL    HW2 6171   7.876   4.776   0.805 -0.4918  0.9718  0.1975
 1478SOL     OW 6172   6.725   7.296   0.218 -0.4310 -0.1084  0.2611
 1478SOL    HW1 6173   6.664   7.223   0.231 -0.1807 -0.2392  0.7353
 1478SOL    HW2 6174   6.695   7.363   0.279 -0.5735  0.1288 -0.0713
 1479SOL     OW 6175   0.320   4.319   6.014  0.2552  0.7474  0.2119
 1479SOL    HW1 6176   0.327   4.361   5.928 -1.3921 -0.5862 -0.6314
 1479SOL    HW2 6177   0.226   4.313   6.030  0.5268  0.6646  1.9889
 1480SOL     OW 6178   0.742   8.514   7.231 -0.1792 -0.5696 -0.1538
 1480SOL    HW1 6179   0.813   8.456   7.258 -0.1866 -0.4024  0.2252
 1480SOL    HW2 6180   0.741   8.583   7.297 -1.6499 -1.3392  0.6709
 1481SOL     OW 6181   8.367   4.919   8.931  0.3227  0.0306  0.0081
 1481SOL    HW1 6182   8.323   4.946   9.011  0.1453 -1.6730  0.5264
 1481SOL    HW2 6183   8.458   4.904   8.958  0.8371  1.6828 -0.6458
 1482SOL     OW 6184   3.259   8.183   2.174  0.1258  0.0009 -0.1644
 1482SOL    HW1 6185   3.186   8.236   2.206  0.2765 -0.3985  0.8579
 1482SOL    HW2 6186   3.331   8.203   2.233  0.6661 -0.1145 -0.7677
 1483SOL     OW 6187   3.169   2.800   6.744 -0.5065  0.4187  0.2810
 1483SOL    HW1 6188   3.120   2.759   6.673 -0.4171  1.0624 -0.1610
 1483SOL    HW2 6189   3.236   2.735   6.768  0.5864  0.8706 -1.4083
 1484SOL     OW 6190   6.492   5.492   7.707 -0.2566  0.8774  0.0405
 1484SOL    HW1 6191   6.442   5.475   7.787  0.7954  0.0754  0.5495
 1484SOL    HW2 6192   6.562   5.552   7.734  1.6158 -1.3129  0.3534
 1485SOL     OW 6193   2.276   5.069   2.112 -0.2388 -0.0713 -0.3067
 1485SOL    HW1 6194   2.325   5.032   2.038  0.4855 -0.5909  0.4138
 1485SOL    HW2 6195   2.342   5.114   2.165 -1.0605  2.1704 -1.0499
 1486SOL     OW 6196   4.501   0.432   3.755 -0.4561 -0.2860  0.2045
 1486SOL    HW1 6197   4.467   0.471   3.675 -0.0133 -0.6100 -0.1486
 1486SOL    HW2 6198   4.453   0.476   3.826 -1.1061 -0.2485 -0.2471
 1487SOL     OW 6199   7.439   0.576   0.048  0.1967 -0.4333 -0.8650
 1487SOL    HW1 6200   7.455   0.519  -0.027  2.2005 -0.0543 -0.7718
 1487SOL    HW2 6201   7.522   0.578   0.095 -0.6337  0.4075  0.6345
 1488SOL     OW 6202   8.381   2.690   1.584 -0.3051  0.3499 -0.5972
 1488SOL    HW1 6203   8.431   2.635   1.644  1.2109  2.8816  0.6164
 1488SOL    HW2 6204   8.381   2.641   1.502  0.9519 -1.4481  0.4020
 1489SOL     OW 6205   2.175   0.965   1.927 -0.0354 -0.3141 -0.5946
 1489SOL    HW1 6206   2.245   1.030   1.920 -1.1433  1.0434  0.1833
 1489SOL    HW2 6207   2.121   0.997   1.999 -1.2253 -1.5413 -0.9039
 1490SOL     OW 6208   8.841   4.901   8.200 -0.1585  0.5649 -0.7424
 1490SOL    HW1 6209   8.896   4.823   8.194 -0.2150  0.5606 -1.2970
 1490SOL    HW2 6210   8.760   4.876   8.156  0.1136  1.1782 -1.6191
 1491SOL     OW 6211   2.642   2.863   6.623  0.2313 -0.1823  0.6546
 1491SOL    HW1 6212   2.683   2.777   6.633 -1.9552 -1.3843  0.0519
 1491SOL    HW2 6213   2.654   2.906   6.708  1.5863 -0.9657  0.8789
 1492SOL     OW 6214   4.032   3.143   8.377 -0.2254 -0.3140  0.2542
 1492SOL    HW1 6215   3.982   3.155   8.457 -0.9769  0.6330 -0.3359
 1492SOL    HW2 6216   4.066   3.230   8.356  1.9693 -0.9796  0.7988
 1493SOL     OW 6217   5.273   2.590   8.295  0.2473 -0.0439 -0.2660
 1493SOL    HW1 6218   5.353   2.570   8.245  1.6381 -1.8320  2.4493
 1493SOL    HW2 6219   5.250   2.508   8.338 -3.6787  0.1490 -1.5732
 1494SOL     OW 6220   6.316   0.071   2.035  0.2418 -0.1187  0.8742
 1494SOL    HW1 6221   6.359   0.009   1.976 -0.0271 -0.0295  0.5803
 1494SOL    HW2 6222   6.252   0.018   2.082  0.8125 -0.2937  1.4643
 1495SOL     OW 6223   8.981   6.254   2.785  0.2360 -0.4837  0.2180
 1495SOL    HW1 6224   8.974   6.309   2.707 -0.7222  1.0642  1.3627
 1495SOL    HW2 6225   8.979   6.164   2.750 -1.2940  0.1376 -1.4654
 1496SOL     OW 6226   5.117   1.575   8.342 -0.0725  0.0327 -0.5731
 1496SOL    HW1 6227   5.051   1.620   8.291  1.0282  0.1714 -1.9412
 1496SOL    HW2 6228   5.200   1.600   8.301  0.7311 -1.2271  0.2170
 1497SOL     OW 6229   6.013   3.713   2.340  0.7942  0.1934 -0.1965
 1497SOL    HW1 6230   5.995   3.806   2.339 -0.9519 -0.1159 -1.4332
 1497SOL    HW2 6231   6.070   3.700   2.417  0.7269  2.1754  0.2312
 1498SOL     OW 6232   8.885   4.024   0.294 -0.3778 -0.4122 -0.1183
 1498SOL    HW1 6233   8.915   3.965   0.363 -0.3934  0.8464  0.9988
 1498SOL    HW2 6234   8.966   4.058   0.255 -0.3638 -1.3453 -0.9633
 1499SOL     OW 6235   1.088   3.198   1.313 -0.2338 -0.0868 -0.7057
 1499SOL    HW1 6236   1.093   3.152   1.397  1.6550  0.3468 -0.5228
 1499SOL    HW2 6237   1.163   3.258   1.315 -0.8199  0.7382 -2.2387
 1500SOL     OW 6238   4.902   4.477   3.009 -0.1950 -0.0681 -0.2867
 1500SOL    HW1 6239   4.914   4.476   3.104  0.5941  0.4706 -0.3735
 1500SOL    HW2 6240   4.967   4.540   2.977 -1.0590  0.4421 -1.0998
 1501SOL     OW 6241   6.622   3.202   8.761 -0.4173  0.6424  0.0091
 1501SOL    HW1 6242   6.538   3.236   8.793 -0.2242  0.4075  0.8120
 1501SOL    HW2 6243   6.684   3.273   8.775 -0.2156  0.3375  0.7333
 1502SOL     OW 6244   5.074   1.437   4.140  0.2108 -0.5944  0.2509
 1502SOL    HW1 6245   5.105   1.511   4.089 -2.7956  0.5192 -0.1458
 1502SOL    HW2 6246   5.069   1.365   4.077 -0.8818  0.0452 -0.4220
 1503SOL     OW 6247   6.493   6.621   5.657 -0.0294  0.4826  0.0990
 1503SOL    HW1 6248   6.421   6.681   5.638  0.4590  1.5713  1.4644
 1503SOL    HW2 6249   6.453   6.535   5.663 -0.5039  0.2612 -3.7655
 1504SOL     OW 6250   1.280   8.075   0.694 -0.0091  0.3268  0.0715
 1504SOL    HW1 6251   1.219   8.119   0.635 -0.3525 -0.2886 -0.0425
 1504SOL    HW2 6252   1.243   8.087   0.781 -0.6979 -0.6531 -0.0630
 1505SOL     OW 6253   6.059   2.164   7.716 -0.3324  0.3630  0.0597
 1505SOL    HW1 6254   6.092   2.080   7.748 -2.4192 -0.2429  0.7724
 1505SOL    HW2 6255   6.018   2.203   7.793 -2.4053  0.4635 -1.0393
 1506SOL     OW 6256   8.450   5.336   6.105 -0.1351 -0.2943  0.3920
 1506SOL    HW1 6257   8.494   5.293   6.178  0.4356  1.4108  1.1128
 1506SOL    HW2 6258   8.391   5.270   6.069  0.3386 -1.4860  1.7319
 1507SOL     OW 6259   2.989   3.947   7.744  1.2243  0.0670 -0.7236
 1507SOL    HW1 6260   2.919   3.980   7.687 -1.1916 -0.7395  1.6019
 1507SOL    HW2 6261   3.047   4.022   7.756  0.6358  0.8621 -2.4691
 1508SOL     OW 6262   4.684   0.169   2.131  0.2069  0.1442  0.5902
 1508SOL    HW1 6263   4.716   0.205   2.049  0.0952 -2.4472 -0.6903
 1508SOL    HW2 6264   4.673   0.245   2.188 -0.0897  2.0754 -1.8835
 1509SOL     OW 6265   3.943   6.406   6.516  0.4981  0.2042  0.1361
 1509SOL    HW1 6266   4.029   6.447   6.516  0.3575  0.8198 -3.4538
 1509SOL    HW2 6267   3.960   6.314   6.500  0.5041  0.1988  0.1737
 1510SOL     OW 6268   4.321   0.550   6.342 -0.1731 -0.8300 -0.4366
 1510SOL    HW1 6269   4.295   0.598   6.421 -1.0875  1.5166 -2.0422
 1510SOL    HW2 6270   4.245   0.558   6.284  0.2440 -3.0102 -1.3792
 1511SOL     OW 6271   8.559   7.627   4.012  0.0524  0.2976  0.9141
 1511SOL    HW1 6272   8.479   7.678   4.022 -0.4791 -0.3840  0.2329
 1511SOL    HW2 6273   8.530   7.540   3.986  0.9932 -0.1056  1.1409
 1512SOL     OW 6274   4.157   0.480   2.682 -0.4616  0.0859 -0.2585
 1512SOL    HW1 6275   4.203   0.489   2.766 -1.8800 -3.2137  1.0321
 1512SOL    HW2 6276   4.074   0.527   2.696  0.5224  2.1476 -0.9848
 1513SOL     OW 6277   1.801   7.482   9.007 -0.0217  0.1000 -0.5621
 1513SOL    HW1 6278   1.827   7.479   8.915 -0.3045 -1.2604 -0.6179
 1513SOL    HW2 6279   1.877   7.519   9.051 -0.2512  1.6864 -1.4458
 1514SOL     OW 6280   5.971   0.189   5.884 -0.0989  0.0945 -0.3556
 1514SOL    HW1 6281   5.954   0.107   5.931  0.8187 -0.3274 -0.7310
 1514SOL    HW2 6282   5.947   0.258   5.946 -0.9740 -0.4540 -0.0686
 1515SOL     OW 6283   5.361   6.470   1.161  0.9200  0.1721 -0.0453
 1515SOL    HW1 6284   5.386   6.385   1.124 -1.5316 -0.2253 -0.9505
 1515SOL    HW2 6285   5.343   6.451   1.253 -3.6715 -1.4283 -0.9878
 1516SOL     OW 6286   1.362   6.171   8.141  0.0971 -0.0691 -0.3931
 1516SOL    HW1 6287   1.428   6.203   8.202  0.5190  0.9206 -1.3229
 1516SOL    HW2 6288   1.281   6.212   8.169  0.4437  1.0518 -0.9580
 1517SOL     OW 6289   2.174   0.792   0.962  0.2052 -0.3326  0.2112
 1517SOL    HW1 6290   2.258   0.762   0.997  1.5960  2.7580 -0.0456
 1517SOL    HW2 6291   2.127   0.827   1.038  0.0664 -0.1748  0.0531
 1518SOL     OW 6292   4.672   8.812   2.355  0.8805  0.3545  0.5601
 1518SOL    HW1 6293   4.634   8.846   2.274  0.6801  0.8412  0.8583
 1518SOL    HW2 6294   4.691   8.720   2.335  1.1366  0.5523 -0.1459
 1519SOL     OW 6295   2.964   2.642   7.000  0.7525 -0.1093  0.6509
 1519SOL    HW1 6296   2.960   2.547   6.986 -0.9929  0.0893 -0.5178
 1519SOL    HW2 6297   2.943   2.654   7.092 -0.7477 -0.7857  0.4212
 1520SOL     OW 6298   0.838   4.607   1.113  0.5907  0.1580  0.1187
 1520SOL    HW1 6299   0.923   4.589   1.073 -0.2211 -0.1169 -1.5715
 1520SOL    HW2 6300   0.813   4.524   1.154  1.0535  0.1921  0.4781
 1521SOL     OW 6301   3.610   0.764   9.289  0.4254 -0.2708  0.0028
 1521SOL    HW1 6302   3.530   0.720   9.318 -0.9388  0.3110 -2.5220
 1521SOL    HW2 6303   3.664   0.693   9.252  0.4357 -0.4815  0.4245
 1522SOL     OW 6304   7.006   6.616   6.305 -0.0200 -0.3060 -0.0626
 1522SOL    HW1 6305   6.962   6.649   6.383  0.4649 -0.1867  0.1642
 1522SOL    HW2 6306   6.937   6.570   6.257 -0.2479 -0.6960  0.6146
 1523SOL     OW 6307   2.416   2.079   8.152 -0.5066 -0.4577  0.0342
 1523SOL    HW1 6308   2.461   2.024   8.216 -1.9226 -1.3424  0.3297
 1523SOL    HW2 6309   2.485   2.110   8.094  0.8854  0.6226  2.1198
 1524SOL     OW 6310   1.250   3.737   7.882 -0.8756  0.0489  0.4099
 1524SOL    HW1 6311   1.222   3.710   7.795  1.6794  1.7237 -1.0992
 1524SOL    HW2 6312   1.290   3.660   7.920 -0.1990 -0.2073 -0.7768
 1525SOL     OW 6313   0.262   0.238   5.727 -0.1781  0.2673  0.2388
 1525SOL    HW1 6314   0.356   0.254   5.722  0.0902 -1.5386 -1.6548
 1525SOL    HW2 6315   0.223   0.300   5.665 -0.1674  0.4811  0.4444
 1526SOL     OW 6316   6.652   8.522   4.752 -0.0439 -0.8431 -0.1168
 1526SOL    HW1 6317   6.564   8.485   4.749 -1.3367  2.0042 -1.3601
 1526SOL    HW2 6318   6.669   8.537   4.845 -0.7428 -1.6514  0.1527
 1527SOL     OW 6319   7.025   2.647   6.462 -0.4003 -0.1003  0.0158
 1527SOL    HW1 6320   6.964   2.652   6.535 -0.2720  0.6454  0.0800
 1527SOL    HW2 6321   6.979   2.689   6.389 -0.1063  0.1533 -0.0284
 1528SOL     OW 6322   5.887   2.878   3.304 -0.4222  0.4111  0.2742
 1528SOL    HW1 6323   5.880   2.907   3.213  0.7454 -0.2632 -0.0471
 1528SOL    HW2 6324   5.828   2.936   3.352 -0.1982  1.5221 -0.7437
 1529SOL     OW 6325   6.103   4.004   0.421  0.4620 -0.0335 -0.3541
 1529SOL    HW1 6326   6.010   4.024   0.423  0.1897 -1.2638  1.0663
 1529SOL    HW2 6327   6.123   3.992   0.329 -0.8932 -0.2225 -0.6433
 1530SOL     OW 6328   0.983   6.782   5.206 -1.0281 -0.6162 -0.2738
 1530SOL    HW1 6329   0.933   6.785   5.125  0.6451 -0.7163 -1.3772
 1530SOL    HW2 6330   1.019   6.870   5.215  1.4194 -1.3958 -1.4722
 1531SOL     OW 6331   3.868   2.226   6.079  0.0235  0.1324  0.0706
 1531SOL    HW1 6332   3.901   2.273   6.156  1.6392 -1.2109  0.2471
 1531SOL    HW2 6333   3.814   2.156   6.114  3.2861 -2.5111  0.3324
 1532SOL     OW 6334   9.018   6.510   6.766  0.0828  0.3184 -0.1102
 1532SOL    HW1 6335   9.076   6.477   6.697 -0.4687 -0.3738 -0.2542
 1532SOL    HW2 6336   9.008   6.436   6.826  2.8537  1.7073  2.3348
 1533SOL     OW 6337   0.573   3.645   4.524  0.0434 -0.0844  0.3931
 1533SOL    HW1 6338   0.574   3.595   4.606 -1.7791  2.3238  2.0357
 1533SOL    HW2 6339   0.524   3.591   4.463 -1.2382 -0.6440  1.8577
 1534SOL     OW 6340   1.903   4.449   3.448 -0.4918  0.0903  0.3145
 1534SOL    HW1 6341   1.943   4.368   3.481  1.0979  0.2048 -1.1932
 1534SOL    HW2 6342   1.876   4.496   3.527  1.7890 -0.3003  1.4090
 1535SOL     OW 6343   8.217   0.838   5.159  0.2633 -0.0124 -0.6614
 1535SOL    HW1 6344   8.152   0.768   5.162  0.4272 -0.2271 -1.7581
 1535SOL    HW2 6345   8.220   0.865   5.067 -1.0331  2.6259 -0.0391
 1536SOL     OW 6346   6.506   7.097   1.373  0.0172 -0.5043 -0.0906
 1536SOL    HW1 6347   6.488   7.146   1.453 -1.1334 -0.7311 -0.1845
 1536SOL    HW2 6348   6.586   7.048   1.392 -0.2926 -0.6282  0.9676
 1537SOL     OW 6349   1.937   2.809   7.819  0.0979 -0.2012 -0.0583
 1537SOL    HW1 6350   2.020   2.781   7.857  0.7150  0.7522 -0.6705
 1537SOL    HW2 6351   1.889   2.849   7.892  0.3990 -0.2747  0.1811
 1538SOL     OW 6352   2.263   8.613   6.473 -0.5068  0.2939 -0.3514
 1538SOL    HW1 6353   2.351   8.602   6.435  0.2631  0.2438  1.3444
 1538SOL    HW2 6354   2.276   8.674   6.545 -1.6204 -0.6612  0.7102
 1539SOL     OW 6355   1.348   1.422   2.514 -0.0473  0.0947 -0.6990
 1539SOL    HW1 6356   1.424   1.391   2.563 -0.4800  0.3595  0.1490
 1539SOL    HW2 6357   1.372   1.409   2.422  0.5716 -0.8862 -0.4143
 1540SOL     OW 6358   9.439   3.139   0.688 -0.2343  0.2129  0.2638
 1540SOL    HW1 6359   9.372   3.090   0.641  0.6888 -0.8874  0.0444
 1540SOL    HW2 6360   9.422   3.231   0.665 -0.5472 -0.1963 -1.2726
 1541SOL     OW 6361   3.783   1.086   8.217  0.5569  0.2446  0.0783
 1541SOL    HW1 6362   3.741   1.003   8.238  1.5184 -0.0124  1.0531
 1541SOL    HW2 6363   3.733   1.120   8.143 -2.9740  1.1116  2.5572
 1542SOL     OW 6364   0.461   4.711   9.334  0.1924 -0.8234  0.2067
 1542SOL    HW1 6365   0.500   4.788   9.377 -0.8195 -0.0483 -0.2332
 1542SOL    HW2 6366   0.511   4.701   9.253 -0.9417  0.6038 -0.7026
 1543SOL     OW 6367   5.175   1.615   5.694 -0.4357  0.0597  0.6470
 1543SOL    HW1 6368   5.185   1.690   5.752 -1.2057  0.2421  0.5570
 1543SOL    HW2 6369   5.157   1.654   5.608 -0.6879 -0.2155  0.5701
 1544SOL     OW 6370   2.983   0.688   8.390 -0.1878 -0.1872  0.7484
 1544SOL    HW1 6371   3.071   0.656   8.410  0.3973  0.1757 -1.0585
 1544SOL    HW2 6372   2.988   0.716   8.299 -2.6457 -1.7721  0.0363
 1545SOL     OW 6373   9.329   1.861   4.948 -0.2719 -0.4622 -0.4507
 1545SOL    HW1 6374   9.309   1.776   4.908 -1.8038  0.3069 -1.4069
 1545SOL    HW2 6375   9.418   1.851   4.983  0.0776 -2.0418 -1.6803
 1546SOL     OW 6376   2.598   9.074   2.204 -0.6455  0.7719  0.0626
 1546SOL    HW1 6377   2.665   9.132   2.239  0.1398 -0.5560  0.8220
 1546SOL    HW2 6378   2.537   9.133   2.159  1.1802  1.9722 -0.9591
 1547SOL     OW 6379   3.573   8.054   1.488 -0.0744 -0.3126 -0.3420
 1547SOL    HW1 6380   3.529   8.047   1.573  1.4458  0.8236  0.5759
 1547SOL    HW2 6381   3.632   8.128   1.497  1.9957 -1.7063 -1.5403
 1548SOL     OW 6382   1.554   9.333   8.502 -0.2980  0.6889 -0.7683
 1548SOL    HW1 6383   1.636   9.321   8.550  0.4880  2.8238 -1.4555
 1548SOL    HW2 6384   1.551   9.426   8.482 -3.1188  0.7469 -0.4423
 1549SOL     OW 6385   0.661   1.226   3.019  0.1831  0.3607 -0.9351
 1549SOL    HW1 6386   0.674   1.139   3.056 -1.2180  0.6122  0.2470
 1549SOL    HW2 6387   0.727   1.281   3.060  0.7450 -0.0223 -1.3074
 1550SOL     OW 6388   4.684   4.532   2.058  0.5211 -0.2079 -0.0831
 1550SOL    HW1 6389   4.687   4.515   1.964  1.6556 -2.3765  0.2780
 1550SOL    HW2 6390   4.681   4.445   2.098  3.5264  0.4326  1.9191
 1551SOL     OW 6391   6.347   1.308   2.589  0.2353  0.4536  0.4322
 1551SOL    HW1 6392   6.408   1.239   2.562 -0.0586  0.5916 -0.6416
 1551SOL    HW2 6393   6.300   1.272   2.664  0.6181 -0.2113  0.3579
 1552SOL     OW 6394   4.468   2.325   7.414 -0.1195  0.3525 -0.7577
 1552SOL    HW1 6395   4.547   2.278   7.386 -0.1348 -0.3118  0.2557
 1552SOL    HW2 6396   4.498   2.414   7.430  0.6169 -0.0669  0.3595
 1553SOL     OW 6397   6.055   3.715   0.145 -0.4798 -0.2678 -0.2085
 1553SOL    HW1 6398   6.021   3.757   0.066  0.4053  0.3719 -0.2669
 1553SOL    HW2 6399   5.978   3.699   0.199 -1.1851 -1.2645 -1.4401
 1554SOL     OW 6400   4.805   7.927   2.059 -0.2668  0.0176 -0.2467
 1554SOL    HW1 6401   4.849   7.847   2.030 -0.3669  0.4465 -1.6707
 1554SOL    HW2 6402   4.724   7.896   2.100  0.5108 -0.6831  0.8302
 1555SOL     OW 6403   1.385   8.645   2.220 -0.3676  0.1029 -0.5369
 1555SOL    HW1 6404   1.411   8.587   2.150  0.8506  0.1226 -0.1170
 1555SOL    HW2 6405   1.364   8.587   2.293  1.5973  0.1630  0.1347
 1556SOL     OW 6406   3.237   1.823   6.449  0.3275  0.0742  0.2285
 1556SOL    HW1 6407   3.182   1.841   6.525 -0.1701 -0.0618 -0.0982
 1556SOL    HW2 6408   3.213   1.734   6.422  1.8572 -0.6429  1.0581
 1557SOL     OW 6409   3.651   0.740   1.601 -0.5259  0.5003 -0.3092
 1557SOL    HW1 6410   3.655   0.645   1.598  0.2406  0.5376 -0.7174
 1557SOL    HW2 6411   3.725   0.766   1.656 -0.0869  0.8993 -1.0693
 1558SOL     OW 6412   7.919   8.869   3.550 -0.1638  0.1842 -0.2756
 1558SOL    HW1 6413   7.865   8.943   3.580 -0.8786  0.3971 -1.9823
 1558SOL    HW2 6414   8.009   8.899   3.563 -0.4456  0.8263  0.2940
 1559SOL     OW 6415   5.284   7.031   3.982  0.0106 -0.1349 -0.3146
 1559SOL    HW1 6416   5.261   6.938   3.976 -0.3795 -0.0281 -0.4659
 1559SOL    HW2 6417   5.278   7.063   3.892  2.7321 -0.5582 -0.7412
 1560SOL     OW 6418   4.861   0.249   7.466  0.6675 -0.6780 -0.2301
 1560SOL    HW1 6419   4.913   0.267   7.388 -0.4632 -1.4928 -1.2134
 1560SOL    HW2 6420   4.839   0.336   7.500  1.5234 -0.3202 -0.5718
 1561SOL     OW 6421   2.479   7.152   9.145 -0.4070 -0.7477 -0.1568
 1561SOL    HW1 6422   2.497   7.219   9.079 -1.4885 -1.1470 -0.8865
 1561SOL    HW2 6423   2.434   7.200   9.216  1.8506 -0.0797  0.9074
 1562SOL     OW 6424   7.378   6.238   3.920  0.0731  0.4443 -0.2231
 1562SOL    HW1 6425   7.290   6.199   3.924  0.3927 -0.3427 -0.7063
 1562SOL    HW2 6426   7.363   6.331   3.936 -1.0562  0.5751 -1.7423
 1563SOL     OW 6427   7.185   5.620   9.183  0.1947  0.2327 -0.3103
 1563SOL    HW1 6428   7.165   5.627   9.089  0.0212  1.2062 -0.2074
 1563SOL    HW2 6429   7.099   5.611   9.225  0.1781  1.0051 -0.1561
 1564SOL     OW 6430   4.825   1.873   8.126  0.4318 -0.0706  0.2010
 1564SOL    HW1 6431   4.758   1.805   8.115  1.1193 -0.5207 -1.4669
 1564SOL    HW2 6432   4.907   1.830   8.101  1.1037  0.9501  0.5836
 1565SOL     OW 6433   5.775   2.567   2.138 -1.0867 -0.5875 -0.0100
 1565SOL    HW1 6434   5.847   2.612   2.183 -1.4714 -0.1136  0.1456
 1565SOL    HW2 6435   5.812   2.483   2.111  1.0283  1.3276 -4.0626
 1566SOL     OW 6436   8.338   8.487   6.387  0.7670 -0.3143  0.6627
 1566SOL    HW1 6437   8.320   8.541   6.463  0.1812  0.4270  0.0208
 1566SOL    HW2 6438   8.292   8.405   6.403  1.3650 -0.4957  1.4863
 1567SOL     OW 6439   8.378   0.675   5.294 -0.5794  0.0151 -0.0929
 1567SOL    HW1 6440   8.291   0.716   5.291 -0.8151 -0.4928 -0.3523
 1567SOL    HW2 6441   8.422   0.705   5.215 -0.6226  0.0526 -0.1030
 1568SOL     OW 6442   9.533   8.361   7.104 -0.0955 -0.2492  0.2674
 1568SOL    HW1 6443   9.564   8.450   7.087 -1.2166 -0.1291 -1.3538
 1568SOL    HW2 6444   9.612   8.313   7.131  0.9395  0.7538 -0.8391
 1569SOL     OW 6445   2.990   0.111   5.903  0.0233  0.0279 -0.0782
 1569SOL    HW1 6446   3.064   0.126   5.961  0.0146 -0.3594  0.0399
 1569SOL    HW2 6447   2.933   0.187   5.916 -0.8885 -0.8962  1.8524
 1570SOL     OW 6448   2.113   3.996   2.646  0.1909 -0.1422 -0.3329
 1570SOL    HW1 6449   2.017   3.997   2.646  0.1695 -1.1574 -0.2162
 1570SOL    HW2 6450   2.136   3.904   2.630  1.1340 -0.2265  1.2759
 1571SOL     OW 6451   9.281   0.393   8.674 -0.4496  0.5101 -0.4889
 1571SOL    HW1 6452   9.357   0.447   8.651 -0.0393 -0.5892 -1.9058
 1571SOL    HW2 6453   9.216   0.413   8.606 -1.1972  0.9709  0.3512
 1572SOL     OW 6454   7.775   9.518   2.220 -0.2697 -0.7499 -0.3625
 1572SOL    HW1 6455   7.749   9.602   2.257 -0.4659 -0.2331 -1.6173
 1572SOL    HW2 6456   7.841   9.485   2.280  1.1067  1.1356 -0.7403
 1573SOL     OW 6457   3.581   9.367   7.498 -0.7431 -0.3891  0.2018
 1573SOL    HW1 6458   3.673   9.348   7.477 -1.0816 -1.9590  0.0407
 1573SOL    HW2 6459   3.573   9.461   7.485  1.2160  0.0505  1.6295
 1574SOL     OW 6460   0.988   4.368   2.878 -0.2329 -0.5845 -0.4967
 1574SOL    HW1 6461   1.028   4.324   2.953 -0.6835 -1.3989 -0.7174
 1574SOL    HW2 6462   0.914   4.417   2.915 -0.3510 -0.8476 -0.3814
 1575SOL     OW 6463   1.934   8.320   8.865 -0.4500  0.0460  0.3915
 1575SOL    HW1 6464   1.911   8.411   8.884 -1.1695 -0.4341  1.9517
 1575SOL    HW2 6465   2.013   8.327   8.811 -0.3560  1.5972  0.6692
 1576SOL     OW 6466   9.144   7.600   7.411  0.3174 -0.5661 -0.1161
 1576SOL    HW1 6467   9.231   7.624   7.442 -0.3208  0.0830  1.2453
 1576SOL    HW2 6468   9.091   7.593   7.490 -0.7087 -1.6621 -0.8657
 1577SOL     OW 6469   5.699   9.183   5.408 -0.2023 -0.1283 -0.1988
 1577SOL    HW1 6470   5.739   9.203   5.493  0.2964 -1.3257 -0.1314
 1577SOL    HW2 6471   5.718   9.259   5.354 -1.0870  0.9451  0.9326
 1578SOL     OW 6472   2.164   0.595   7.901 -0.5450 -0.8378  0.5038
 1578SOL    HW1 6473   2.106   0.572   7.829 -2.4716 -1.0245  2.0198
 1578SOL    HW2 6474   2.135   0.681   7.929 -0.3545 -1.0916  1.5342
 1579SOL     OW 6475   0.467   1.890   6.720 -0.4964  0.2604  0.4933
 1579SOL    HW1 6476   0.470   1.964   6.780  0.4912 -0.1146  0.9373
 1579SOL    HW2 6477   0.449   1.929   6.634 -0.8789  0.9090  0.8586
 1580SOL     OW 6478   3.594   2.897   0.671  0.3619  0.0457 -0.1033
 1580SOL    HW1 6479   3.687   2.920   0.672  0.2477  0.7459 -1.9940
 1580SOL    HW2 6480   3.571   2.894   0.578 -1.0830 -1.9912  0.2535
 1581SOL     OW 6481   8.869   4.138   0.009  0.0018 -0.1786  0.1743
 1581SOL    HW1 6482   8.867   4.215   0.066  0.4018 -0.4124  0.5138
 1581SOL    HW2 6483   8.858   4.063   0.069 -2.4905 -0.3174 -0.3612
 1582SOL     OW 6484   6.680   7.910   1.671  0.3454  0.5148 -0.2703
 1582SOL    HW1 6485   6.700   7.966   1.596  3.1705 -0.3306 -0.2670
 1582SOL    HW2 6486   6.698   7.965   1.747  1.1458  0.2590 -0.2628
 1583SOL     OW 6487   0.021   2.605   5.599  0.2210 -0.4653 -0.4604
 1583SOL    HW1 6488   0.084   2.597   5.528  2.3904 -2.5306  1.5149
 1583SOL    HW2 6489   0.050   2.681   5.649  1.2149 -1.4068  0.4400
 1584SOL     OW 6490   4.958   6.203   7.616  0.1918 -0.4214  0.2479
 1584SOL    HW1 6491   5.036   6.259   7.609 -0.4427  0.4196 -0.3608
 1584SOL    HW2 6492   4.941   6.174   7.527 -0.5176 -0.1375  0.2836
 1585SOL     OW 6493   3.224   6.002   6.426 -0.5162  0.2002  0.0077
 1585SOL    HW1 6494   3.248   6.023   6.517 -0.2693 -1.0973  0.2561
 1585SOL    HW2 6495   3.307   6.006   6.378 -0.6214  0.7195 -0.1426
 1586SOL     OW 6496   3.830   8.815   0.302  0.1445  0.7778 -0.0133
 1586SOL    HW1 6497   3.880   8.741   0.266 -2.7992 -0.5850 -1.6670
 1586SOL    HW2 6498   3.803   8.865   0.225 -1.2844  1.2716  0.7860
 1587SOL     OW 6499   2.831   4.489   3.240 -0.1275 -0.4506  0.2271
 1587SOL    HW1 6500   2.887   4.433   3.292  0.0645  0.0018  0.5110
 1587SOL    HW2 6501   2.775   4.428   3.191  0.3810 -0.8966  0.1874
 1588SOL     OW 6502   6.313   7.831   4.004  0.4431 -0.2278  0.0683
 1588SOL    HW1 6503   6.265   7.888   4.064 -1.9124 -2.2135  0.1878
 1588SOL    HW2 6504   6.289   7.863   3.917 -0.1153 -0.4398  0.1428
 1589SOL     OW 6505   1.839   5.229   5.301 -0.2503  0.2532  0.2033
 1589SOL    HW1 6506   1.817   5.187   5.218  1.0822 -1.5643  0.6962
 1589SOL    HW2 6507   1.935   5.232   5.301 -0.1996 -0.1170  1.7953
 1590SOL     OW 6508   6.376   4.844   1.861 -0.1641  0.6472 -0.5261
 1590SOL    HW1 6509   6.281   4.841   1.851  0.0231  0.0046 -2.7439
 1590SOL    HW2 6510   6.391   4.841   1.956 -2.2897 -1.8613 -0.1514
 1591SOL     OW 6511   2.577   5.249   5.319 -0.3744 -0.1247 -0.3235
 1591SOL    HW1 6512   2.556   5.333   5.360 -1.0288  0.2989 -1.4932
 1591SOL    HW2 6513   2.501   5.230   5.264  0.4128 -0.7602 -1.2118
 1592SOL     OW 6514   8.843   9.283   4.591 -0.4532 -0.0316 -0.3561
 1592SOL    HW1 6515   8.913   9.251   4.534  0.0196  1.5117 -0.6958
 1592SOL    HW2 6516   8.861   9.377   4.602 -0.7679 -0.1822  2.0240
 1593SOL     OW 6517   0.811   4.419   8.156 -0.0870  0.2478  0.0791
 1593SOL    HW1 6518   0.723   4.456   8.146  0.8446  2.0933 -2.2473
 1593SOL    HW2 6519   0.866   4.494   8.178  1.2285 -0.5004 -0.5478
 1594SOL     OW 6520   8.473   2.246   7.518  0.1452 -0.4534  0.1436
 1594SOL    HW1 6521   8.502   2.231   7.428 -0.7649 -0.2577 -0.1883
 1594SOL    HW2 6522   8.378   2.242   7.514  0.0258  1.0000  0.8272
 1595SOL     OW 6523   1.826   6.013   7.264 -0.4921 -0.1968 -0.2344
 1595SOL    HW1 6524   1.831   6.105   7.289 -0.8917 -0.8841  2.7653
 1595SOL    HW2 6525   1.900   6.000   7.204  1.1603  1.5197  1.3022
 1596SOL     OW 6526   6.747   6.734   5.545  0.1839 -0.5528 -0.0407
 1596SOL    HW1 6527   6.672   6.674   5.549  1.1366 -1.8856 -1.1527
 1596SOL    HW2 6528   6.791   6.722   5.630  0.2553 -1.3255 -0.1730
 1597SOL     OW 6529   2.155   7.483   5.083 -0.4697 -0.1325  0.5107
 1597SOL    HW1 6530   2.164   7.437   4.999 -0.7716 -0.0595  0.4379
 1597SOL    HW2 6531   2.143   7.413   5.147  1.5289 -0.3000  0.7526
 1598SOL     OW 6532   0.112   8.130   0.364  0.3579 -0.5454 -0.2116
 1598SOL    HW1 6533   0.055   8.184   0.309 -1.3536 -0.2775  1.6911
 1598SOL    HW2 6534   0.156   8.071   0.303 -1.8173 -0.5948 -1.8428
 1599SOL     OW 6535   0.355   7.071   8.030 -0.4907 -0.4178  0.7382
 1599SOL    HW1 6536   0.383   7.004   7.967  0.5937  2.1006 -1.6795
 1599SOL    HW2 6537   0.261   7.080   8.015 -0.0306  1.2157 -1.8383
 1600SOL     OW 6538   5.830   5.647   1.931 -0.4469 -0.4294  0.1294
 1600SOL    HW1 6539   5.903   5.656   1.869 -0.8042  0.1388 -0.2152
 1600SOL    HW2 6540   5.823   5.552   1.945  0.2088 -0.5089 -0.0099
 1601SOL     OW 6541   5.621   7.972   6.333  0.1665 -0.0021  0.4021
 1601SOL    HW1 6542   5.629   8.056   6.287  1.5369 -0.7461 -0.8400
 1601SOL    HW2 6543   5.527   7.960   6.347  0.0171  2.4694  2.0904
 1602SOL     OW 6544   6.372   6.510   2.684 -0.1801 -0.4919 -0.2462
 1602SOL    HW1 6545   6.363   6.552   2.770  0.6341 -0.2830 -0.2541
 1602SOL    HW2 6546   6.282   6.493   2.656 -0.4518 -0.8403  0.7821
 1603SOL     OW 6547   6.471   8.059   7.968 -0.4499  0.7173 -0.2980
 1603SOL    HW1 6548   6.391   8.102   7.997 -0.0928  0.2017  1.5549
 1603SOL    HW2 6549   6.505   8.014   8.045  1.4363  0.5966 -1.1149
 1604SOL     OW 6550   8.678   1.540   0.247 -0.3400  0.4568 -0.0973
 1604SOL    HW1 6551   8.764   1.497   0.240 -0.6522 -0.0363 -1.1964
 1604SOL    HW2 6552   8.695   1.620   0.297  0.9078  0.7333 -0.9208
 1605SOL     OW 6553   1.067   3.443   7.159 -0.2604  0.5899 -0.0645
 1605SOL    HW1 6554   1.052   3.367   7.103  0.3293  0.6285 -0.2865
 1605SOL    HW2 6555   1.141   3.488   7.118 -1.6728  2.2241 -0.9179
 1606SOL     OW 6556   5.888   5.126   4.732  0.1119 -0.3468 -0.1169
 1606SOL    HW1 6557   5.870   5.189   4.802  0.8839 -0.9885  0.6890
 1606SOL    HW2 6558   5.979   5.141   4.709  0.2466 -1.0116 -0.0564
 1607SOL     OW 6559   8.075   3.963   8.307  0.4126  0.2341 -0.0053
 1607SOL    HW1 6560   8.159   3.937   8.345  0.2842 -1.3038 -0.6864
 1607SOL    HW2 6561   8.013   3.958   8.380  0.8028  0.8179  0.3715
 1608SOL     OW 6562   6.053   2.565   8.347 -0.5219 -0.2366 -0.6033
 1608SOL    HW1 6563   6.071   2.621   8.422  1.2584  0.3234 -1.4094
 1608SOL    HW2 6564   5.965   2.530   8.364 -1.4478  2.2800  0.2333
 1609SOL     OW 6565   3.195   4.881   6.031 -0.0550 -0.2738  0.5036
 1609SOL    HW1 6566   3.145   4.944   5.979 -0.9191 -0.9097  0.5403
 1609SOL    HW2 6567   3.129   4.836   6.083  0.7960  0.4228  2.2584
 1610SOL     OW 6568   8.223   5.885   3.417 -0.4783 -0.5314  0.3464
 1610SOL    HW1 6569   8.217   5.876   3.322  0.9054  0.8578  0.0855
 1610SOL    HW2 6570   8.131   5.886   3.446 -0.9230 -1.1472 -0.9285
 1611SOL     OW 6571   4.992   6.763   6.243 -0.2624 -0.1167 -0.2890
 1611SOL    HW1 6572   5.027   6.714   6.168  1.1447  1.2453 -0.5591
 1611SOL    HW2 6573   4.968   6.848   6.206 -0.9909  0.0476  0.5335
 1612SOL     OW 6574   4.462   2.273   7.682  0.5502  0.1784 -0.3255
 1612SOL    HW1 6575   4.453   2.283   7.588  0.5745  2.1546 -0.1620
 1612SOL    HW2 6576   4.383   2.227   7.709 -1.0238  2.3665 -0.9642
 1613SOL     OW 6577   8.534   1.844   4.477  0.1140 -0.1831  0.1757
 1613SOL    HW1 6578   8.465   1.865   4.539  0.6221  1.1846  0.3125
 1613SOL    HW2 6579   8.529   1.749   4.467 -3.2498 -0.0169 -1.5101
 1614SOL     OW 6580   3.956   5.467   5.741 -0.0596 -0.3707 -0.0585
 1614SOL    HW1 6581   4.000   5.517   5.671  0.0570 -1.3489 -0.7045
 1614SOL    HW2 6582   4.011   5.389   5.752  0.9884  0.6388  2.4670
 1615SOL     OW 6583   8.042   5.044   8.863  0.1821 -0.2768 -0.2522
 1615SOL    HW1 6584   7.974   4.992   8.905 -0.5919  0.8481 -0.0566
 1615SOL    HW2 6585   8.106   5.060   8.932  0.1109 -0.4464 -0.1457
 1616SOL     OW 6586   3.740   8.023   3.329 -0.0081  0.2511 -1.1401
 1616SOL    HW1 6587   3.644   8.018   3.333  0.0108 -4.7253 -0.8695
 1616SOL    HW2 6588   3.762   7.994   3.241  1.3225  1.4510 -1.2381
 1617SOL     OW 6589   0.314   4.024   3.210  0.0939 -0.3035 -0.6879
 1617SOL    HW1 6590   0.329   3.938   3.171 -1.3457 -0.3638 -1.2005
 1617SOL    HW2 6591   0.397   4.048   3.249  0.2114 -2.5089  0.6045
 1618SOL     OW 6592   8.591   3.554   5.765 -0.0891 -0.6285  0.4078
 1618SOL    HW1 6593   8.507   3.520   5.795  0.3816 -1.0291  1.3469
 1618SOL    HW2 6594   8.630   3.482   5.716 -1.2054  0.2965 -2.0025
 1619SOL     OW 6595   7.575   7.670   9.042  0.1919 -0.1254  0.6417
 1619SOL    HW1 6596   7.643   7.703   9.101  0.3853 -1.2960  1.1183
 1619SOL    HW2 6597   7.493   7.697   9.082  0.3593  1.7397 -0.2071
 1620SOL     OW 6598   9.273   9.551   3.831 -0.1576 -0.1366  0.3118
 1620SOL    HW1 6599   9.310   9.481   3.776 -1.3191  0.5175 -1.3766
 1620SOL    HW2 6600   9.180   9.552   3.810 -0.3367  1.2703  1.0441
 1621SOL     OW 6601   4.138   7.177   7.621 -0.0338  0.0414 -0.0045
 1621SOL    HW1 6602   4.228   7.208   7.633  0.5885 -1.4912 -0.3594
 1621SOL    HW2 6603   4.086   7.228   7.682  0.4721  3.3801 -2.1318
 1622SOL     OW 6604   7.454   8.142   0.858 -0.6254 -0.8236 -0.3724
 1622SOL    HW1 6605   7.535   8.152   0.907 -1.2750  0.2021  0.5421
 1622SOL    HW2 6606   7.482   8.137   0.766  0.3898  1.6228 -0.2774
 1623SOL     OW 6607   7.021   3.150   5.373 -0.3619 -0.6103  0.6192
 1623SOL    HW1 6608   6.926   3.138   5.370 -0.3824 -0.3384  0.0375
 1623SOL    HW2 6609   7.052   3.118   5.288  0.0479 -0.5127  0.7288
 1624SOL     OW 6610   0.189   3.651   0.604  0.5479 -0.4493  0.1304
 1624SOL    HW1 6611   0.278   3.667   0.571  0.4068 -1.2886 -0.7038
 1624SOL    HW2 6612   0.143   3.612   0.530 -0.7866  0.7747  0.2560
 1625SOL     OW 6613   2.656   5.979   5.178  0.3088 -0.3928 -0.4283
 1625SOL    HW1 6614   2.688   5.956   5.091 -1.7141 -0.5006 -1.1899
 1625SOL    HW2 6615   2.726   6.032   5.216  1.2752 -0.4375 -2.0642
 1626SOL     OW 6616   5.671   9.088   1.581  0.3507  0.2393  0.3553
 1626SOL    HW1 6617   5.673   9.007   1.632  0.3162  0.8796  1.4078
 1626SOL    HW2 6618   5.759   9.124   1.590 -0.0820  1.1287  1.2694
 1627SOL     OW 6619   3.253   3.851   9.109 -0.2299 -0.1422 -0.2505
 1627SOL    HW1 6620   3.267   3.880   9.019 -2.7836  1.0750 -0.3409
 1627SOL    HW2 6621   3.195   3.775   9.101 -0.5947  0.0660  0.3538
 1628SOL     OW 6622   5.660   0.756   0.207  0.3739 -0.0437  0.5264
 1628SOL    HW1 6623   5.587   0.701   0.179 -1.2308  2.6840 -1.1765
 1628SOL    HW2 6624   5.618   0.827   0.257  1.9661  0.9814  0.4775
 1629SOL     OW 6625   6.278   8.487   5.887 -0.4690  0.0219 -0.0970
 1629SOL    HW1 6626   6.335   8.416   5.857  0.8041 -1.1482  4.3783
 1629SOL    HW2 6627   6.204   8.443   5.928 -0.9573  1.3633  0.5122
 1630SOL     OW 6628   3.275   1.348   5.828 -0.3438 -0.0195  0.2471
 1630SOL    HW1 6629   3.278   1.434   5.785  1.2345  0.1338  0.5814
 1630SOL    HW2 6630   3.282   1.285   5.756  0.6978  0.2055  0.1270
 1631SOL     OW 6631   7.430   5.442   0.523  0.2393  0.6948  0.2532
 1631SOL    HW1 6632   7.335   5.446   0.512  0.3527  0.2562 -1.0169
 1631SOL    HW2 6633   7.455   5.357   0.486  1.0813  0.6020  0.9988
 1632SOL     OW 6634   5.197   1.456   7.934  0.1412 -0.7963 -0.4614
 1632SOL    HW1 6635   5.275   1.488   7.890 -0.8217  0.8962 -1.0440
 1632SOL    HW2 6636   5.127   1.468   7.870 -1.2121  1.2474  1.2794
 1633SOL     OW 6637   3.656   8.085   1.804  0.1905  0.1588  0.1485
 1633SOL    HW1 6638   3.707   8.119   1.731  0.4319 -1.1885 -0.3557
 1633SOL    HW2 6639   3.567   8.116   1.788  0.4452  0.7648 -0.1218
 1634SOL     OW 6640   0.084   6.565   7.262 -0.0622 -0.6749 -0.0485
 1634SOL    HW1 6641  -0.006   6.588   7.241 -0.6380 -1.7865  1.0513
 1634SOL    HW2 6642   0.080   6.472   7.286  1.0789 -0.3308  1.6506
 1635SOL     OW 6643   2.865   2.482   3.238  0.0094 -0.1235 -0.2305
 1635SOL    HW1 6644   2.940   2.441   3.196  0.0253 -0.6506  0.2973
 1635SOL    HW2 6645   2.853   2.564   3.191  2.8709  1.5353  1.6216
 1636SOL     OW 6646   6.101   3.139   4.947 -0.5424 -0.1115  0.2149
 1636SOL    HW1 6647   6.017   3.155   4.990 -0.4227 -1.0450  0.8453
 1636SOL    HW2 6648   6.078   3.108   4.859 -0.8785 -0.6304  0.4774
 1637SOL     OW 6649   8.302   5.136   0.218 -0.0645 -0.2103 -0.0521
 1637SOL    HW1 6650   8.359   5.187   0.162 -0.5854  4.9072  3.3739
 1637SOL    HW2 6651   8.214   5.151   0.183 -0.0832 -0.1109  0.0363
 1638SOL     OW 6652   6.830   9.025   2.980 -0.3571  0.1363 -0.2624
 1638SOL    HW1 6653   6.862   8.985   3.061  0.9962  0.9883 -0.3413
 1638SOL    HW2 6654   6.827   9.119   2.999  0.2445  0.3767 -1.2711
 1639SOL     OW 6655   5.722   5.003   9.451 -0.3944  0.1121 -0.7791
 1639SOL    HW1 6656   5.785   5.038   9.514 -1.4498  0.6304  0.0174
 1639SOL    HW2 6657   5.760   5.022   9.366  0.7799 -0.0771 -0.3150
 1640SOL     OW 6658   2.354   1.587   1.012  0.1348  0.3517 -0.3637
 1640SOL    HW1 6659   2.295   1.511   1.002 -0.3958  0.5265  1.0734
 1640SOL    HW2 6660   2.418   1.577   0.943  0.0048 -1.3671 -0.2894
 1641SOL     OW 6661   1.341   6.531   3.474 -0.0705 -0.4772  0.2849
 1641SOL    HW1 6662   1.379   6.443   3.480 -0.2277 -0.6989 -1.4801
 1641SOL    HW2 6663   1.274   6.523   3.407 -0.2592  0.9496  0.2848
 1642SOL     OW 6664   8.445   4.784   3.865  0.4478  0.2338 -0.0150
 1642SOL    HW1 6665   8.519   4.796   3.924 -1.4123 -0.2513  2.5798
 1642SOL    HW2 6666   8.481   4.733   3.792  3.0474  1.6466  0.1454
 1643SOL     OW 6667   1.634   3.015   0.847  0.0338  0.0062 -0.1096
 1643SOL    HW1 6668   1.667   3.032   0.759 -3.2850  0.3189 -1.4362
 1643SOL    HW2 6669   1.583   2.935   0.837 -0.5040  0.1248  1.5261
 1644SOL     OW 6670   7.404   6.245   0.205  0.3623  0.2230 -0.1625
 1644SOL    HW1 6671   7.479   6.210   0.253  0.6627  0.3440 -0.5352
 1644SOL    HW2 6672   7.411   6.204   0.118  1.6944  2.4709 -1.2001
 1645SOL     OW 6673   2.904   6.773   5.239 -0.2521 -0.0857  0.2883
 1645SOL    HW1 6674   2.834   6.731   5.289  0.4697 -1.1580  0.4238
 1645SOL    HW2 6675   2.864   6.793   5.154 -1.6712  2.2952  1.4173
 1646SOL     OW 6676   4.430   3.857   7.834  0.1174 -0.3449 -0.6034
 1646SOL    HW1 6677   4.437   3.845   7.929  1.3847  0.2814 -0.5949
 1646SOL    HW2 6678   4.410   3.770   7.799  0.7463 -0.7903  0.1369
 1647SOL     OW 6679   3.592   2.810   0.380  0.3070 -0.3118  0.3565
 1647SOL    HW1 6680   3.678   2.770   0.363  1.5298  2.7037 -1.3578
 1647SOL    HW2 6681   3.532   2.761   0.324  0.7569 -2.6258  1.7442
 1648SOL     OW 6682   3.060   8.512   4.313  0.0608 -0.2140  0.0335
 1648SOL    HW1 6683   3.121   8.548   4.378  1.2301  0.0867 -1.1862
 1648SOL    HW2 6684   3.116   8.482   4.242 -1.2229 -0.0620 -1.0805
 1649SOL     OW 6685   3.320   0.255   4.057  0.6714 -0.2205 -0.3309
 1649SOL    HW1 6686   3.251   0.208   4.010  0.4831 -2.7059  2.1341
 1649SOL    HW2 6687   3.397   0.248   4.000 -0.1255 -0.9519 -1.3470
 1650SOL     OW 6688   1.324   8.838   7.455  0.5516 -0.1309  0.5428
 1650SOL    HW1 6689   1.357   8.751   7.475  0.8280  0.1172  1.1763
 1650SOL    HW2 6690   1.327   8.885   7.538 -0.6977  0.1297  0.4582
 1651SOL     OW 6691   8.919   3.041   2.920  0.2969  0.0812  0.5616
 1651SOL    HW1 6692   8.958   3.087   2.846  0.5196  1.3353  1.4372
 1651SOL    HW2 6693   8.825   3.040   2.901  0.0588  2.4364  1.3110
 1652SOL     OW 6694   3.209   3.631   3.324  0.3087 -0.1400 -0.1697
 1652SOL    HW1 6695   3.304   3.644   3.318  0.5710 -1.1238  1.3604
 1652SOL    HW2 6696   3.196   3.584   3.405 -1.6582  1.3442  0.4717
 1653SOL     OW 6697   1.638   0.809   1.527 -0.1714 -0.7160 -0.3912
 1653SOL    HW1 6698   1.711   0.871   1.523 -0.3517 -0.2120  2.2715
 1653SOL    HW2 6699   1.597   0.825   1.612 -0.0999 -4.5882  0.5952
 1654SOL     OW 6700   7.828   2.613   1.728  0.0294 -0.3148 -0.2301
 1654SOL    HW1 6701   7.896   2.561   1.686 -1.5063 -1.3632 -1.6022
 1654SOL    HW2 6702   7.756   2.551   1.741 -1.1460  1.0295 -0.0857
 1655SOL     OW 6703   9.431   0.358   7.172  0.2129  0.4848 -0.2924
 1655SOL    HW1 6704   9.418   0.407   7.253 -1.2399 -0.4942  0.0896
 1655SOL    HW2 6705   9.343   0.336   7.142  0.6912  1.0190 -2.2909
 1656SOL     OW 6706   2.433   0.496   6.501  0.2520 -0.2338  0.0871
 1656SOL    HW1 6707   2.486   0.496   6.421 -1.1488 -0.5899 -0.8882
 1656SOL    HW2 6708   2.347   0.466   6.472 -0.6542  0.8849  1.4940
 1657SOL     OW 6709   1.741   8.312   8.644  0.4090  0.1516 -0.6260
 1657SOL    HW1 6710   1.817   8.301   8.702 -0.2377 -0.6082  0.1026
 1657SOL    HW2 6711   1.774   8.286   8.558  0.6068 -1.6975 -0.0446
 1658SOL     OW 6712   8.339   5.592   0.999  0.5293 -0.2271  0.4852
 1658SOL    HW1 6713   8.309   5.682   1.014  0.0628 -0.3543  0.3495
 1658SOL    HW2 6714   8.354   5.557   1.087  0.9219  0.0473  0.5326
 1659SOL     OW 6715   3.470   9.173   5.181 -0.6124  0.2824  0.0618
 1659SOL    HW1 6716   3.542   9.206   5.127  0.5516 -1.4180  0.4688
 1659SOL    HW2 6717   3.442   9.093   5.137  1.0466 -1.7271  2.3848
 1660SOL     OW 6718   6.672   7.066   1.955  0.3117 -0.6102  0.3168
 1660SOL    HW1 6719   6.655   7.046   1.863  0.3172 -1.0570  0.4137
 1660SOL    HW2 6720   6.765   7.047   1.966  0.1494 -1.2369  0.5950
 1661SOL     OW 6721   0.797   3.407   3.764 -0.2646 -0.0061 -0.3186
 1661SOL    HW1 6722   0.723   3.357   3.731 -0.6817  1.1933 -1.2767
 1661SOL    HW2 6723   0.799   3.388   3.858  0.0556 -2.3683 -0.7399
 1662SOL     OW 6724   6.220   7.899   3.756 -0.3245 -0.5294  0.3737
 1662SOL    HW1 6725   6.144   7.843   3.742 -1.3930  0.8355  0.3995
 1662SOL    HW2 6726   6.195   7.983   3.716  1.3398 -0.1628  0.0192
 1663SOL     OW 6727   3.464   2.069   3.890 -0.2545 -0.0651  0.3010
 1663SOL    HW1 6728   3.519   2.000   3.928  2.0526  0.2719 -2.1282
 1663SOL    HW2 6729   3.517   2.149   3.899 -1.0256  0.5802 -0.7256
 1664SOL     OW 6730   0.180   7.661   1.022  0.0883  0.5160 -0.2637
 1664SOL    HW1 6731   0.236   7.646   0.946 -1.9975 -0.4364 -1.7108
 1664SOL    HW2 6732   0.229   7.623   1.095  0.8073 -1.4226 -1.6697
 1665SOL     OW 6733   7.663   0.673   8.307  0.2700 -0.4189  0.8291
 1665SOL    HW1 6734   7.750   0.640   8.284 -0.1622 -0.1968 -1.3996
 1665SOL    HW2 6735   7.661   0.761   8.271 -0.5991 -0.1213  1.5840
 1666SOL     OW 6736   4.829   3.427   1.292  0.1909 -0.1489 -0.2069
 1666SOL    HW1 6737   4.797   3.449   1.380 -0.8100  0.9091 -0.8122
 1666SOL    HW2 6738   4.783   3.346   1.269 -0.2433  0.0742 -0.1271
 1667SOL     OW 6739   8.851   4.393   8.217 -0.5815 -0.0303 -0.5892
 1667SOL    HW1 6740   8.760   4.406   8.193 -0.8854  1.0415  0.9881
 1667SOL    HW2 6741   8.849   4.358   8.306  0.5367 -1.3966 -1.0558
 1668SOL     OW 6742   4.353   6.780   1.860  0.1716  0.9406  0.1911
 1668SOL    HW1 6743   4.258   6.788   1.856  0.0932  0.2690  0.6009
 1668SOL    HW2 6744   4.369   6.686   1.871  0.9344  0.8326 -1.4488
 1669SOL     OW 6745   0.773   3.167   6.795 -0.1214  0.0259  0.6150
 1669SOL    HW1 6746   0.817   3.111   6.858  1.3954 -0.5215 -0.8661
 1669SOL    HW2 6747   0.680   3.162   6.819  0.0439 -2.5624  0.9903
 1670SOL     OW 6748   7.673   4.074   4.841 -0.1918 -0.4682 -0.3965
 1670SOL    HW1 6749   7.737   4.050   4.773 -1.4051 -2.1956 -0.9997
 1670SOL    HW2 6750   7.705   4.029   4.920 -0.3531 -0.8924 -0.5676
 1671SOL     OW 6751   8.508   8.288   2.834 -0.3232 -0.0930 -0.1472
 1671SOL    HW1 6752   8.491   8.346   2.908 -0.9733 -0.3096 -0.1173
 1671SOL    HW2 6753   8.592   8.247   2.855 -0.1581  0.3752  0.1266
 1672SOL     OW 6754   6.545   6.579   2.013  0.5891 -0.1853 -0.0225
 1672SOL    HW1 6755   6.472   6.640   2.015  0.0989 -0.7621  0.0044
 1672SOL    HW2 6756   6.509   6.496   2.044  1.0636 -0.6723 -0.7109
 1673SOL     OW 6757   0.840   2.676   7.678  0.3152  0.0305  0.0632
 1673SOL    HW1 6758   0.877   2.606   7.732  1.2987 -0.5452 -1.2851
 1673SOL    HW2 6759   0.789   2.729   7.739  2.2797  0.0677  1.7822
 1674SOL     OW 6760   7.950   6.157   8.562 -0.4162 -0.0885  0.1954
 1674SOL    HW1 6761   8.020   6.201   8.610 -0.1661  1.0281 -1.1169
 1674SOL    HW2 6762   7.989   6.075   8.532 -0.9451 -1.3841  2.8479
 1675SOL     OW 6763   5.936   1.576   1.887 -0.1023 -0.0198  0.3199
 1675SOL    HW1 6764   5.998   1.597   1.817  1.2401  1.3462  1.8319
 1675SOL    HW2 6765   5.863   1.636   1.873 -0.7523 -1.0776 -0.9988
 1676SOL     OW 6766   0.847   3.005   5.653 -0.2083  0.3336  0.7667
 1676SOL    HW1 6767   0.847   2.987   5.747 -1.9208 -1.8911  0.4282
 1676SOL    HW2 6768   0.765   3.053   5.638 -0.8844 -0.9583  0.1970
 1677SOL     OW 6769   7.547   1.962   5.177 -0.0973  0.0402  0.2309
 1677SOL    HW1 6770   7.572   2.043   5.131  0.2653  0.3663  0.9797
 1677SOL    HW2 6771   7.453   1.952   5.159 -0.0550  0.4024 -0.2061
 1678SOL     OW 6772   5.154   1.193   7.451 -0.1664  0.2224  0.0475
 1678SOL    HW1 6773   5.140   1.099   7.449 -0.5250  0.2839 -1.1561
 1678SOL    HW2 6774   5.191   1.210   7.537 -2.7227 -0.6241  1.4067
 1679SOL     OW 6775   3.284   7.030   4.980  0.2650  0.1896  0.0643
 1679SOL    HW1 6776   3.198   7.051   5.015 -0.3993 -0.8248 -0.8711
 1679SOL    HW2 6777   3.292   6.935   4.991  1.2688  0.2660  0.1404
 1680SOL     OW 6778   1.816   8.163   6.241 -0.4806  0.3370  0.1538
 1680SOL    HW1 6779   1.745   8.201   6.190 -0.4072  0.5595  0.2126
 1680SOL    HW2 6780   1.778   8.146   6.327 -0.8770 -0.9672 -0.2667
 1681SOL     OW 6781   5.384   6.186   3.564  0.0401  0.0014 -0.3336
 1681SOL    HW1 6782   5.452   6.120   3.574 -0.0017 -0.0049 -0.1010
 1681SOL    HW2 6783   5.309   6.151   3.612 -0.4341 -0.4225 -1.3378
 1682SOL     OW 6784   1.915   5.253   4.367  0.0961 -0.5669  0.3486
 1682SOL    HW1 6785   1.852   5.320   4.344  0.5549  0.1387  1.1091
 1682SOL    HW2 6786   1.999   5.287   4.338  0.1432 -1.4950 -0.6471
 1683SOL     OW 6787   3.150   6.010   4.842 -0.2366 -0.0379  0.1417
 1683SOL    HW1 6788   3.227   6.003   4.786 -0.4616 -2.2538  0.0068
 1683SOL    HW2 6789   3.183   6.040   4.926  0.6963 -0.3984 -0.0907
 1684SOL     OW 6790   8.547   6.677   8.243 -0.4158 -0.0278  0.8267
 1684SOL    HW1 6791   8.641   6.665   8.257 -0.5459 -0.8632  1.0247
 1684SOL    HW2 6792   8.533   6.771   8.254  0.6740  0.3851 -0.9183
 1685SOL     OW 6793   8.859   8.661   3.539 -0.1151  0.1755 -0.0374
 1685SOL    HW1 6794   8.949   8.651   3.507 -0.5191 -0.1085 -1.1227
 1685SOL    HW2 6795   8.833   8.573   3.566 -0.2894  0.1331 -0.3427
 1686SOL     OW 6796   4.293   0.837   4.543 -0.0064  0.7002  0.3637
 1686SOL    HW1 6797   4.307   0.777   4.616 -1.0514 -1.5703 -1.1762
 1686SOL    HW2 6798   4.291   0.780   4.465 -0.2900  2.8385 -1.2968
 1687SOL     OW 6799   0.499   1.057   7.536  0.0653 -0.2706  0.0299
 1687SOL    HW1 6800   0.510   0.970   7.498 -2.3599 -0.6248  0.0027
 1687SOL    HW2 6801   0.487   1.115   7.460  0.7820 -0.0326  0.0857
 1688SOL     OW 6802   9.424   8.646   6.277 -0.5503  0.1348 -0.5054
 1688SOL    HW1 6803   9.492   8.587   6.309  0.6060  0.9850 -1.2944
 1688SOL    HW2 6804   9.342   8.598   6.289  0.2010 -0.9813  0.3184
 1689SOL     OW 6805   6.303   6.436   4.599  0.1075 -0.6331  0.2836
 1689SOL    HW1 6806   6.297   6.437   4.695 -0.9266 -0.0574  0.2237
 1689SOL    HW2 6807   6.396   6.453   4.581 -0.1442  2.2526  1.1748
 1690SOL     OW 6808   3.069   1.583   4.518  0.1448  0.4202  0.7385
 1690SOL    HW1 6809   3.140   1.608   4.578  0.4064  0.2616  0.4928
 1690SOL    HW2 6810   2.993   1.633   4.550 -0.1543 -0.9050  2.2254
 1691SOL     OW 6811   8.978   2.862   5.693 -0.1441 -0.0246 -0.0561
 1691SOL    HW1 6812   9.057   2.855   5.639  1.2213 -3.1575  2.0148
 1691SOL    HW2 6813   8.991   2.942   5.745  1.8360 -0.5946  0.3967
 1692SOL     OW 6814   6.883   6.846   5.191  0.1123 -0.1779  0.0460
 1692SOL    HW1 6815   6.941   6.919   5.210  1.2423 -1.1849  0.6723
 1692SOL    HW2 6816   6.909   6.816   5.103 -0.8041  0.5613 -0.4949
 1693SOL     OW 6817   0.096   8.779   1.314  0.6569 -0.1228  0.4535
 1693SOL    HW1 6818   0.156   8.717   1.354 -1.2743 -0.6746  2.6296
 1693SOL    HW2 6819   0.118   8.863   1.354  0.6503 -0.1324  0.4767
 1694SOL     OW 6820   8.145   1.082   5.677 -0.6523 -0.1651 -0.0286
 1694SOL    HW1 6821   8.065   1.073   5.625 -0.7097  2.4115 -0.5155
 1694SOL    HW2 6822   8.212   1.038   5.625 -1.3744 -0.6307 -0.5825
 1695SOL     OW 6823   2.865   6.249   3.900  0.1513  0.1211  0.0557
 1695SOL    HW1 6824   2.929   6.293   3.956  1.6623 -1.3009 -0.4693
 1695SOL    HW2 6825   2.813   6.320   3.862  2.4487  1.4648 -0.7482
 1696SOL     OW 6826   2.024   5.428   7.033  0.4079 -0.4096 -0.3955
 1696SOL    HW1 6827   2.093   5.366   7.009  0.2092  0.2268 -2.9107
 1696SOL    HW2 6828   1.989   5.394   7.115  3.5946 -0.7969  0.9472
 1697SOL     OW 6829   3.065   8.770   2.112 -0.0549  0.4204 -0.0550
 1697SOL    HW1 6830   3.135   8.823   2.149 -0.0956  0.8643 -0.6077
 1697SOL    HW2 6831   3.080   8.772   2.018  0.2232 -0.9424 -0.0675
 1698SOL     OW 6832   1.087   2.406   0.795 -0.1412 -0.1347  0.4844
 1698SOL    HW1 6833   1.006   2.355   0.797 -0.2265 -0.0992 -1.0178
 1698SOL    HW2 6834   1.067   2.485   0.846 -0.7064 -0.5973  0.9949
 1699SOL     OW 6835   8.021   7.453   4.575  0.0361 -0.3403 -0.6171
 1699SOL    HW1 6836   8.100   7.507   4.571  0.9078 -1.5701 -0.5692
 1699SOL    HW2 6837   8.038   7.381   4.514 -0.2042 -1.6784  0.8344
 1700SOL     OW 6838   4.382   3.303   3.592  0.1304 -0.1760 -0.1138
 1700SOL    HW1 6839   4.440   3.244   3.640  0.7729  0.9907  0.5943
 1700SOL    HW2 6840   4.330   3.246   3.536  1.4681 -1.3268 -0.2308
 1701SOL     OW 6841   2.276   6.202   3.886  0.6645 -0.8702 -0.1423
 1701SOL    HW1 6842   2.184   6.177   3.879  0.9161 -1.5962 -0.9750
 1701SOL    HW2 6843   2.290   6.265   3.816  0.6094 -0.1313  0.4993
 1702SOL     OW 6844   1.979   7.058   8.404 -0.6532 -0.0161  0.4776
 1702SOL    HW1 6845   1.929   7.080   8.483  0.3682 -0.4214  1.2488
 1702SOL    HW2 6846   1.958   6.966   8.387 -3.6710  0.8967 -1.8353
 1703SOL     OW 6847   4.087   9.544   8.219 -0.2506  0.4849  0.1683
 1703SOL    HW1 6848   4.026   9.508   8.155  0.6825  0.0517 -0.5030
 1703SOL    HW2 6849   4.090   9.478   8.289 -0.4137  0.4190  0.1133
 1704SOL     OW 6850   1.401   2.316   3.524  0.5686  0.1777 -0.1600
 1704SOL    HW1 6851   1.367   2.261   3.595  0.7471 -1.3141 -1.1787
 1704SOL    HW2 6852   1.338   2.388   3.517 -0.4272 -0.6135  0.3476
 1705SOL     OW 6853   4.732   2.745   6.763  0.1748  0.6705 -0.6013
 1705SOL    HW1 6854   4.703   2.816   6.706 -1.1332  1.2539  0.7124
 1705SOL    HW2 6855   4.815   2.716   6.725 -0.2746  1.5150 -2.3395
 1706SOL     OW 6856   0.955   3.467   1.413 -0.0569  0.4020 -0.2943
 1706SOL    HW1 6857   0.927   3.381   1.380  1.2150 -0.5828  1.0737
 1706SOL    HW2 6858   1.048   3.471   1.394 -0.1356  1.5785 -0.4902
 1707SOL     OW 6859   2.322   5.175   2.632 -0.0197 -0.2023  0.5626
 1707SOL    HW1 6860   2.253   5.241   2.638  0.8144  0.6690  0.9114
 1707SOL    HW2 6861   2.281   5.095   2.665 -0.4997  0.6084  2.0699
 1708SOL     OW 6862   1.307   5.180   1.346  0.0317  0.3623  0.3265
 1708SOL    HW1 6863   1.251   5.246   1.305 -1.0628 -0.9445 -0.3792
 1708SOL    HW2 6864   1.293   5.191   1.440  0.0890  1.3172  0.2264
 1709SOL     OW 6865   6.020   3.281   2.375  0.3505 -0.0298  0.2965
 1709SOL    HW1 6866   5.959   3.349   2.402  1.3103  1.4049 -0.9983
 1709SOL    HW2 6867   6.015   3.215   2.444 -2.9818 -0.2372  0.0234
 1710SOL     OW 6868   6.592   4.901   5.982  0.6049 -0.4028 -0.3938
 1710SOL    HW1 6869   6.602   4.990   5.948  1.7726 -0.1116  0.6436
 1710SOL    HW2 6870   6.502   4.898   6.016  0.6765  0.5069 -0.0995
 1711SOL     OW 6871   3.347   1.193   3.566 -0.3955 -0.5724 -0.2219
 1711SOL    HW1 6872   3.356   1.249   3.489 -1.3037 -0.0831  0.0070
 1711SOL    HW2 6873   3.263   1.149   3.553 -1.2286  0.5408  1.1155
 1712SOL     OW 6874   7.287   3.548   6.873 -0.2664  0.0720  0.0301
 1712SOL    HW1 6875   7.268   3.527   6.782 -1.7634  0.7340  0.1590
 1712SOL    HW2 6876   7.341   3.627   6.869  3.3949 -2.2269 -0.3705
 1713SOL     OW 6877   0.356   0.733   4.057 -0.1600  0.3894  0.1360
 1713SOL    HW1 6878   0.443   0.696   4.040  0.0714  1.0561 -0.1504
 1713SOL    HW2 6879   0.357   0.754   4.151  0.3915  1.4190 -0.0908
 1714SOL     OW 6880   6.130   0.807   5.542 -0.4358 -0.0246 -0.9568
 1714SOL    HW1 6881   6.129   0.884   5.598 -1.8173 -0.6745 -0.0432
 1714SOL    HW2 6882   6.188   0.745   5.586  1.6684  0.8666 -2.3062
 1715SOL     OW 6883   4.704   4.782   1.936  0.0088 -0.2265 -0.5292
 1715SOL    HW1 6884   4.777   4.813   1.883 -0.5975  4.0011  0.7672
 1715SOL    HW2 6885   4.736   4.701   1.976  4.1002  1.4419  0.0622
 1716SOL     OW 6886   3.957   5.337   4.180  0.1993  0.6820 -0.0841
 1716SOL    HW1 6887   4.029   5.290   4.222 -2.0340 -1.7449  1.3805
 1716SOL    HW2 6888   3.941   5.287   4.099 -0.5535  0.4584  0.1946
 1717SOL     OW 6889   8.016   3.912   1.046 -0.3057 -0.2622 -0.3290
 1717SOL    HW1 6890   8.041   3.824   1.019 -0.8291 -0.8407  0.9969
 1717SOL    HW2 6891   8.075   3.933   1.118 -0.0134  0.5906 -0.7947
 1718SOL     OW 6892   7.777   2.964   2.767  0.2491  0.1123 -0.4497
 1718SOL    HW1 6893   7.855   2.912   2.746 -0.0848  0.1504 -1.9170
 1718SOL    HW2 6894   7.755   3.008   2.685 -0.5779  1.1110  0.2798
 1719SOL     OW 6895   5.558   1.253   3.816 -0.1922  0.2382  0.0916
 1719SOL    HW1 6896   5.533   1.310   3.743  0.3564 -1.1242 -1.2218
 1719SOL    HW2 6897   5.499   1.178   3.808 -0.8264  0.5398  1.7154
 1720SOL     OW 6898   0.324   2.804   1.946 -0.8478 -0.3631 -0.1752
 1720SOL    HW1 6899   0.391   2.782   2.011 -0.5412  0.4504 -0.2022
 1720SOL    HW2 6900   0.273   2.874   1.987 -0.3443  0.5098 -0.9741
 1721SOL     OW 6901   2.598   1.663   2.919  0.1412 -0.7488  0.5808
 1721SOL    HW1 6902   2.505   1.688   2.925  0.4762  0.7290  0.1753
 1721SOL    HW2 6903   2.599   1.589   2.859 -0.6296  0.3397 -0.8394
 1722SOL     OW 6904   6.445   4.890   5.019 -0.6708  0.2486 -0.4758
 1722SOL    HW1 6905   6.389   4.836   5.075 -0.4756 -0.3003 -0.7964
 1722SOL    HW2 6906   6.533   4.876   5.053 -0.4301 -0.8526 -1.5050
 1723SOL     OW 6907   8.168   2.419   3.403  0.0336  0.1987  0.0058
 1723SOL    HW1 6908   8.206   2.507   3.405  0.4884  0.1002 -2.1184
 1723SOL    HW2 6909   8.078   2.433   3.372 -0.3736  0.0358  1.0807
 1724SOL     OW 6910   6.621   4.570   7.532 -0.2153  0.3325 -0.3029
 1724SOL    HW1 6911   6.653   4.578   7.442 -1.8949 -0.1141 -0.9742
 1724SOL    HW2 6912   6.547   4.510   7.526 -0.2564  0.1591  1.4223
 1725SOL     OW 6913   1.661   3.694   5.172  0.6287 -0.0079 -0.1488
 1725SOL    HW1 6914   1.690   3.751   5.243  2.0603  0.5398 -1.1049
 1725SOL    HW2 6915   1.579   3.733   5.142  1.1110  1.0402 -0.1747
 1726SOL     OW 6916   0.174   0.260   0.488  0.3432  0.1610  0.2641
 1726SOL    HW1 6917   0.135   0.190   0.436  3.3019 -0.8467 -0.7809
 1726SOL    HW2 6918   0.175   0.225   0.577 -1.7634  0.5701  0.5091
 1727SOL     OW 6919   5.649   0.703   6.631  0.3045 -0.1665  0.0259
 1727SOL    HW1 6920   5.596   0.657   6.697  2.3508 -0.9049  1.2600
 1727SOL    HW2 6921   5.596   0.702   6.552 -0.4004 -3.3537  0.4197
 1728SOL     OW 6922   4.402   9.065   0.780  0.2540 -0.1715 -0.0636
 1728SOL    HW1 6923   4.468   9.071   0.710  0.3933  0.8292  0.1361
 1728SOL    HW2 6924   4.450   9.084   0.860 -0.3843  1.3010  0.0082
 1729SOL     OW 6925   9.504   5.101   8.246  0.0561  0.0909 -0.0289
 1729SOL    HW1 6926   9.419   5.144   8.259 -0.6589 -1.5538  0.9557
 1729SOL    HW2 6927   9.521   5.111   8.152 -0.1196  2.3595  0.1108
 1730SOL     OW 6928   5.651   7.256   7.489  0.2993  0.0099 -0.3702
 1730SOL    HW1 6929   5.622   7.336   7.534 -2.7965 -1.7792  1.1433
 1730SOL    HW2 6930   5.720   7.222   7.545 -0.5318  0.0612  0.7307
 1731SOL     OW 6931   4.577   7.040   0.977  0.0294  0.2110 -0.0636
 1731SOL    HW1 6932   4.636   7.054   0.904 -2.2948  2.5981 -1.6554
 1731SOL    HW2 6933   4.527   6.962   0.953 -1.1912  1.3702 -1.4540
 1732SOL     OW 6934   2.456   1.971   3.430 -0.0896 -0.0981 -0.1912
 1732SOL    HW1 6935   2.410   2.036   3.378 -0.6791 -0.3367  0.0252
 1732SOL    HW2 6936   2.533   2.017   3.464  0.1449  0.1443 -1.0106
 1733SOL     OW 6937   5.525   0.773   2.506  0.1175  0.2047  0.4832
 1733SOL    HW1 6938   5.471   0.700   2.475  0.5322 -0.0256  0.2861
 1733SOL    HW2 6939   5.613   0.752   2.475  0.2133  0.8734  0.2872
 1734SOL     OW 6940   1.446   4.669   4.708  0.1186 -0.0876 -0.7281
 1734SOL    HW1 6941   1.495   4.751   4.718 -0.0561 -0.1894  1.8308
 1734SOL    HW2 6942   1.506   4.602   4.739 -1.7938 -0.0780  3.8987
 1735SOL     OW 6943   4.403   4.355   4.650  0.2905  0.4702 -0.4427
 1735SOL    HW1 6944   4.381   4.417   4.720  2.1944  1.5629 -0.7349
 1735SOL    HW2 6945   4.359   4.391   4.573 -1.1999 -0.3259  0.0065
 1736SOL     OW 6946   7.863   1.500   0.671 -0.3555 -0.3826  0.3059
 1736SOL    HW1 6947   7.915   1.424   0.644 -1.7006 -1.2267  0.0192
 1736SOL    HW2 6948   7.802   1.514   0.598 -1.8467 -0.6587  1.4459
 1737SOL     OW 6949   3.287   5.748   7.241  0.0166 -0.4496  0.4887
 1737SOL    HW1 6950   3.197   5.775   7.225 -0.4878 -1.6743  1.2011
 1737SOL    HW2 6951   3.340   5.820   7.206 -1.1824 -0.3926 -1.3538
 1738SOL     OW 6952   0.457   7.365   4.237  0.0369 -0.0393  0.0458
 1738SOL    HW1 6953   0.471   7.428   4.167  2.1047  0.4291  0.7944
 1738SOL    HW2 6954   0.410   7.293   4.196  0.4508  0.5945 -1.6179
 1739SOL     OW 6955   6.336   1.857   8.097  0.3585  0.2044  0.0972
 1739SOL    HW1 6956   6.428   1.851   8.119 -0.0824  1.4173  2.6209
 1739SOL    HW2 6957   6.297   1.779   8.136 -0.1066  1.2778  1.8795
 1740SOL     OW 6958   7.797   9.233   4.882 -0.0137 -0.0328  0.0447
 1740SOL    HW1 6959   7.704   9.252   4.898 -0.0843 -1.5631  1.8063
 1740SOL    HW2 6960   7.797   9.159   4.821 -0.0635 -1.3193  1.5359
 1741SOL     OW 6961   2.031   4.001   8.193 -0.3419  0.1347 -0.4510
 1741SOL    HW1 6962   2.039   3.914   8.154 -1.3485 -1.2459  2.1936
 1741SOL    HW2 6963   2.095   4.002   8.264  0.2055  1.9064 -0.8983
 1742SOL     OW 6964   9.506   7.021   3.173  0.1859 -0.2942 -0.1053
 1742SOL    HW1 6965   9.545   7.103   3.142 -0.4004  0.4649  1.0786
 1742SOL    HW2 6966   9.578   6.975   3.216 -0.0316  0.8740  1.6354
 1743SOL     OW 6967   5.301   0.119   0.923  0.5270 -0.0938  0.0321
 1743SOL    HW1 6968   5.227   0.133   0.864 -0.1988  3.4347  1.5295
 1743SOL    HW2 6969   5.262   0.083   1.002 -0.0236  2.9635  1.3143
 1744SOL     OW 6970   7.137   6.139   2.954 -0.1609 -0.0681  0.6856
 1744SOL    HW1 6971   7.178   6.114   3.036  4.4136 -0.6471 -1.4894
 1744SOL    HW2 6972   7.104   6.228   2.970  1.0200  0.0292  2.9726
 1745SOL     OW 6973   1.783   2.927   2.987 -0.6261  0.3107  0.5976
 1745SOL    HW1 6974   1.701   2.890   2.953 -1.4639  0.6142  2.1869
 1745SOL    HW2 6975   1.805   2.871   3.061  0.2024  0.6833  0.6342
 1746SOL     OW 6976   3.821   1.940   9.536  0.0405 -0.4026  0.2926
 1746SOL    HW1 6977   3.824   1.919   9.630  1.6393  2.2744  0.9676
 1746SOL    HW2 6978   3.799   2.033   9.534 -0.8725 -0.6079 -2.0862
 1747SOL     OW 6979   1.739   5.929   4.631 -0.1048 -0.7099  0.0490
 1747SOL    HW1 6980   1.732   5.997   4.565  1.0562 -1.3666 -0.7993
 1747SOL    HW2 6981   1.656   5.883   4.628 -1.3381  1.2504  1.3717
 1748SOL     OW 6982   2.362   7.138   4.765 -0.3606  0.1592 -0.2681
 1748SOL    HW1 6983   2.435   7.194   4.793  1.3565 -0.5153 -2.9339
 1748SOL    HW2 6984   2.364   7.064   4.826  0.2767  0.8062  0.5259
 1749SOL     OW 6985   5.909   2.232   0.434 -0.1733 -0.1329  0.0971
 1749SOL    HW1 6986   5.994   2.192   0.455  0.4582  1.7700  1.3875
 1749SOL    HW2 6987   5.853   2.211   0.509  0.3578  1.8227  1.1070
 1750SOL     OW 6988   8.500   1.492   2.856 -0.5129 -0.0335 -0.3715
 1750SOL    HW1 6989   8.564   1.448   2.800  0.8803 -0.2391  1.3091
 1750SOL    HW2 6990   8.439   1.423   2.882 -0.5522 -0.1545 -0.7800
 1751SOL     OW 6991   4.920   5.248   1.420 -0.4894 -0.0858 -0.0531
 1751SOL    HW1 6992   4.896   5.185   1.352 -0.6365  1.2280 -1.2803
 1751SOL    HW2 6993   4.837   5.271   1.461 -0.6506  0.4271 -0.6454
 1752SOL     OW 6994   6.819   7.401   4.642  0.2122  0.3929 -0.3704
 1752SOL    HW1 6995   6.816   7.306   4.631 -0.3289  0.2012  1.1772
 1752SOL    HW2 6996   6.786   7.436   4.559 -0.9614 -0.8029 -0.4481
 1753SOL     OW 6997   3.897   8.773   6.439 -0.0109  0.0098  0.1591
 1753SOL    HW1 6998   3.941   8.844   6.392 -0.6402  0.4312  0.1928
 1753SOL    HW2 6999   3.963   8.703   6.443  0.0842 -0.0325 -1.3245
 1754SOL     OW 7000   6.425   0.507   1.585 -0.4350 -0.0009 -0.3729
 1754SOL    HW1 7001   6.417   0.521   1.491 -0.9555 -2.8652 -0.8592
 1754SOL    HW2 7002   6.506   0.552   1.610  0.5194 -0.4257 -2.4979
 1755SOL     OW 7003   7.687   6.521   9.106  0.0848 -0.3901  0.2794
 1755SOL    HW1 7004   7.659   6.458   9.172  0.1693 -2.1804 -1.3185
 1755SOL    HW2 7005   7.780   6.533   9.122  0.5698 -2.4452 -0.7594
 1756SOL     OW 7006   1.236   6.353   4.685 -0.3415 -0.1891 -0.2601
 1756SOL    HW1 7007   1.268   6.286   4.746  0.6100  1.2842  0.9233
 1756SOL    HW2 7008   1.151   6.379   4.720 -0.6678 -0.6915 -0.6660
 1757SOL     OW 7009   3.296   8.993   3.173  0.4639  0.3668 -0.3157
 1757SOL    HW1 7010   3.299   8.914   3.226 -1.0025 -0.3070 -1.1741
 1757SOL    HW2 7011   3.260   9.060   3.232 -0.8029 -0.2815 -0.3145
 1758SOL     OW 7012   4.364   0.303   9.110 -0.4556 -0.0863  0.4090
 1758SOL    HW1 7013   4.296   0.236   9.097 -0.5539  0.2326 -0.9800
 1758SOL    HW2 7014   4.342   0.344   9.194 -0.5363 -1.6173  1.1554
 1759SOL     OW 7015   2.677   1.029   6.893 -0.3062  0.0807  0.0444
 1759SOL    HW1 7016   2.627   1.020   6.974  0.0337 -0.2594  0.2166
 1759SOL    HW2 7017   2.768   1.029   6.921 -0.1261 -1.3958 -0.4385
 1760SOL     OW 7018   0.238   1.204   6.327 -0.2284 -0.8192 -0.0313
 1760SOL    HW1 7019   0.292   1.235   6.400  0.5964 -2.3072  0.0236
 1760SOL    HW2 7020   0.281   1.237   6.249  0.3262 -1.3502  0.0472
 1761SOL     OW 7021   8.882   5.083   0.226  0.0664  0.0092  0.2654
 1761SOL    HW1 7022   8.887   5.047   0.315 -0.9747 -2.3350 -0.5502
 1761SOL    HW2 7023   8.795   5.058   0.195 -0.0405  1.8282 -1.0405
 1762SOL     OW 7024   3.209   6.600   2.520  0.0460  0.4261 -0.1519
 1762SOL    HW1 7025   3.275   6.669   2.519 -0.0787  0.5404 -0.8365
 1762SOL    HW2 7026   3.228   6.550   2.599 -1.0261  2.3470  1.4024
 1763SOL     OW 7027   5.292   5.336   5.162  0.0260 -0.0453 -0.3064
 1763SOL    HW1 7028   5.326   5.370   5.245 -0.0201 -1.6089  0.3841
 1763SOL    HW2 7029   5.200   5.362   5.160  0.5919  2.1263 -1.0603
 1764SOL     OW 7030   7.641   3.351   8.631 -0.3844  0.1221  0.2926
 1764SOL    HW1 7031   7.662   3.436   8.670  0.9264 -0.6329  1.3004
 1764SOL    HW2 7032   7.704   3.341   8.559  0.5035 -0.6392  1.1457
 1765SOL     OW 7033   4.356   1.496   1.232 -0.4261 -0.2593  0.1290
 1765SOL    HW1 7034   4.297   1.476   1.159  0.0319  0.0130 -0.3168
 1765SOL    HW2 7035   4.385   1.585   1.216 -0.7175 -0.0125  0.9213
 1766SOL     OW 7036   5.326   4.378   9.579 -0.0243  0.6522 -0.7581
 1766SOL    HW1 7037   5.386   4.412   9.646  0.1163  2.8910 -1.9293
 1766SOL    HW2 7038   5.348   4.427   9.500 -1.2977 -0.7505 -2.0459
 1767SOL     OW 7039   3.994   6.900   2.395  0.1085  0.0125  0.0971
 1767SOL    HW1 7040   4.077   6.946   2.402 -0.6123  1.0961  2.3248
 1767SOL    HW2 7041   3.941   6.954   2.336  0.0689  0.8017  0.8437
 1768SOL     OW 7042   5.501   5.847   4.161  0.6598 -0.3970  0.1279
 1768SOL    HW1 7043   5.528   5.855   4.069  1.4704 -0.5497  0.3436
 1768SOL    HW2 7044   5.411   5.878   4.162  0.8909  0.3460 -0.5856
 1769SOL     OW 7045   6.139   5.268   6.958 -1.2042  0.3713 -0.5483
 1769SOL    HW1 7046   6.097   5.296   7.039  0.1701 -1.3777  0.8553
 1769SOL    HW2 7047   6.215   5.325   6.949  1.0437 -1.9780  1.7850
 1770SOL     OW 7048   6.981   5.661   6.178  0.6708  0.1168  0.2013
 1770SOL    HW1 7049   6.931   5.720   6.121  0.8839  0.8248  0.7260
 1770SOL    HW2 7050   6.917   5.624   6.238  0.4808 -0.4635 -0.3461
 1771SOL     OW 7051   8.400   2.576   7.979  0.7856  0.0775 -0.5378
 1771SOL    HW1 7052   8.337   2.637   8.016  0.6652 -0.7526  0.6640
 1771SOL    HW2 7053   8.353   2.534   7.907 -0.0805 -0.5967  0.4000
 1772SOL     OW 7054   1.114   9.481   3.966  0.5227 -0.2103  0.3977
 1772SOL    HW1 7055   1.115   9.514   4.056 -0.8604 -1.1123  0.7800
 1772SOL    HW2 7056   1.061   9.401   3.971  2.4413 -1.6646 -0.7617
 1773SOL     OW 7057   1.624   8.455   9.354  0.5482 -0.0437 -0.8252
 1773SOL    HW1 7058   1.544   8.505   9.339  0.8404  0.9835  0.7841
 1773SOL    HW2 7059   1.614   8.377   9.299 -1.1385  0.4806 -1.3373
 1774SOL     OW 7060   3.583   1.385   4.245 -0.2846  0.2355 -0.3115
 1774SOL    HW1 7061   3.537   1.405   4.326  0.4250  0.1706  0.1087
 1774SOL    HW2 7062   3.624   1.300   4.260  1.3096  1.0186 -0.0862
 1775SOL     OW 7063   7.029   1.422   2.780  0.2091 -0.3996 -0.1155
 1775SOL    HW1 7064   6.982   1.406   2.698  0.1331  0.5089 -0.2705
 1775SOL    HW2 7065   6.997   1.355   2.840 -0.2627 -0.6430 -0.6299
 1776SOL     OW 7066   7.024   4.659   3.985 -0.1820  0.1626  0.2265
 1776SOL    HW1 7067   7.034   4.638   4.078  2.4455  2.0240  0.4778
 1776SOL    HW2 7068   6.981   4.744   3.984 -1.9661 -0.6858 -0.4156
 1777SOL     OW 7069   6.402   2.990   7.362  0.5856  0.4875  0.5376
 1777SOL    HW1 7070   6.324   3.041   7.341  0.0070 -0.0393  1.3500
 1777SOL    HW2 7071   6.475   3.044   7.333 -0.0998  0.5235 -1.2273
 1778SOL     OW 7072   4.807   3.595   4.466 -0.4042 -0.4224 -0.0812
 1778SOL    HW1 7073   4.773   3.656   4.531  0.3199 -1.1268  0.9992
 1778SOL    HW2 7074   4.778   3.630   4.382  0.6301  1.8401  0.4148
 1779SOL     OW 7075   7.621   5.225   4.710  0.7989 -0.8427  0.0594
 1779SOL    HW1 7076   7.707   5.222   4.669  1.5016  0.0247  1.3856
 1779SOL    HW2 7077   7.611   5.316   4.739  0.0758 -1.2769  1.2408
 1780SOL     OW 7078   9.473   6.927   8.663 -0.4185 -0.3304  0.1336
 1780SOL    HW1 7079   9.388   6.949   8.702  0.1271 -2.1737  2.6052
 1780SOL    HW2 7080   9.454   6.854   8.604 -0.5741 -0.7496  0.6936
 1781SOL     OW 7081   4.581   9.367   1.173  0.4186 -0.1106  0.0058
 1781SOL    HW1 7082   4.639   9.294   1.195  0.7415 -0.2011 -1.0862
 1781SOL    HW2 7083   4.616   9.442   1.221  0.3975 -0.5447  0.7163
 1782SOL     OW 7084   4.787   8.740   2.633 -0.5137 -0.1146  0.0360
 1782SOL    HW1 7085   4.744   8.760   2.550 -2.9327  0.0059  1.2066
 1782SOL    HW2 7086   4.805   8.825   2.672  0.0952 -0.1748 -0.1040
 1783SOL     OW 7087   8.168   6.294   1.956 -0.2827 -0.3006  0.0303
 1783SOL    HW1 7088   8.236   6.334   2.011 -0.6084  0.3597 -0.0297
 1783SOL    HW2 7089   8.174   6.342   1.873  1.7528 -2.7780 -1.4091
 1784SOL     OW 7090   2.216   5.089   5.672 -0.4565  0.4815  0.6209
 1784SOL    HW1 7091   2.157   5.054   5.605  2.3660 -1.3899 -1.1160
 1784SOL    HW2 7092   2.248   5.011   5.718  1.7063  1.2476  0.5089
 1785SOL     OW 7093   1.729   4.288   6.325  0.6204 -0.5157  0.0766
 1785SOL    HW1 7094   1.717   4.288   6.230 -2.7357 -1.0306  0.3649
 1785SOL    HW2 7095   1.667   4.354   6.356  0.9797 -1.0155  1.9515
 1786SOL     OW 7096   7.767   3.656   1.842  0.1103 -0.5244 -0.2840
 1786SOL    HW1 7097   7.857   3.656   1.876  0.3192 -0.5574 -0.8395
 1786SOL    HW2 7098   7.713   3.673   1.920  0.6578  0.5722 -0.1237
 1787SOL     OW 7099   1.745   1.218   4.475  0.0057 -0.5709 -0.3362
 1787SOL    HW1 7100   1.729   1.212   4.381  1.8595  0.0373 -0.7310
 1787SOL    HW2 7101   1.785   1.134   4.498 -1.5911 -1.2220  0.1972
 1788SOL     OW 7102   0.521   7.497   8.345 -0.0332 -0.6174 -0.5275
 1788SOL    HW1 7103   0.482   7.574   8.385  1.4203 -1.2324  2.3625
 1788SOL    HW2 7104   0.615   7.514   8.345  0.2580 -2.0333 -0.6013
 1789SOL     OW 7105   8.875   8.600   4.579 -1.0218 -0.0337  0.4906
 1789SOL    HW1 7106   8.870   8.638   4.492  1.4978 -0.2709  0.1555
 1789SOL    HW2 7107   8.966   8.614   4.606 -2.1489  1.8723  3.9737
 1790SOL     OW 7108   7.711   2.786   7.471 -0.3369 -0.2696 -0.2128
 1790SOL    HW1 7109   7.687   2.760   7.382  0.8482 -0.8675 -0.3736
 1790SOL    HW2 7110   7.643   2.747   7.526 -1.9961  1.4034 -0.9240
 1791SOL     OW 7111   0.082   7.179   6.021  0.2643 -0.4568  0.0883
 1791SOL    HW1 7112   0.091   7.134   6.105 -0.0336  0.5954  0.7035
 1791SOL    HW2 7113  -0.012   7.177   6.002  0.5123 -2.3123 -1.1645
 1792SOL     OW 7114   1.631   2.009   1.409  0.4099 -0.2332 -0.7486
 1792SOL    HW1 7115   1.557   2.058   1.373  0.2281  0.4528  0.4801
 1792SOL    HW2 7116   1.598   1.976   1.493  1.8273  1.0634  0.3779
 1793SOL     OW 7117   4.783   1.113   7.741  0.1831  0.1799 -0.3882
 1793SOL    HW1 7118   4.838   1.106   7.819 -1.1399  0.7017  0.6303
 1793SOL    HW2 7119   4.833   1.168   7.681  1.2936 -0.3643  0.0167
 1794SOL     OW 7120   0.077   2.754   3.260  0.0346  0.2674  0.3541
 1794SOL    HW1 7121   0.074   2.816   3.188 -0.9317  0.3850  0.4880
 1794SOL    HW2 7122   0.134   2.684   3.229 -0.5601  0.1984 -0.6201
 1795SOL     OW 7123   3.120   1.801   0.175 -0.2076  0.2062 -0.2592
 1795SOL    HW1 7124   3.042   1.829   0.224 -0.4858  0.0326 -0.6045
 1795SOL    HW2 7125   3.169   1.749   0.238  0.1731  1.2161  0.3064
 1796SOL     OW 7126   0.894   0.286   2.848  0.2190  0.0551 -0.5002
 1796SOL    HW1 7127   0.863   0.205   2.807 -1.5374 -0.1759  1.1378
 1796SOL    HW2 7128   0.884   0.352   2.780 -2.4517 -0.3336 -0.5926
 1797SOL     OW 7129   1.042   3.142   2.174  0.1721 -0.2165 -0.1804
 1797SOL    HW1 7130   0.994   3.163   2.254  0.2325  0.0842 -0.2228
 1797SOL    HW2 7131   1.101   3.216   2.161  1.2486 -0.9482  0.3242
 1798SOL     OW 7132   0.174   2.957   1.578  0.5203  0.3065  0.0414
 1798SOL    HW1 7133   0.147   3.006   1.656  1.9598  1.7720 -0.3280
 1798SOL    HW2 7134   0.161   2.865   1.602 -0.0796  0.7598  1.6077
 1799SOL     OW 7135   9.042   8.678   9.131  0.3035 -0.6332  0.0899
 1799SOL    HW1 7136   9.060   8.606   9.071  1.6550 -0.0063 -0.3074
 1799SOL    HW2 7137   9.108   8.669   9.200 -0.0118 -0.2257  0.4517
 1800SOL     OW 7138   0.313   8.712   6.463  0.2873 -0.5587  0.2654
 1800SOL    HW1 7139   0.246   8.739   6.526 -0.3519 -0.3216 -0.4928
 1800SOL    HW2 7140   0.351   8.632   6.501  1.0797  0.4840  1.7374
 1801SOL     OW 7141   9.341   6.130   8.443  0.6287  0.1801 -0.4413
 1801SOL    HW1 7142   9.421   6.098   8.402  0.8555  1.1955 -0.8351
 1801SOL    HW2 7143   9.346   6.225   8.433 -0.1988  0.3155  0.3301
 1802SOL     OW 7144   5.845   7.994   3.796 -0.1020 -0.4101 -0.2049
 1802SOL    HW1 7145   5.809   8.042   3.870  3.3985 -0.5268  1.7889
 1802SOL    HW2 7146   5.824   7.902   3.815 -1.4920 -0.2588 -0.8398
 1803SOL     OW 7147   7.869   4.220   5.086 -0.1149 -0.2805  0.4252
 1803SOL    HW1 7148   7.825   4.152   5.137  0.6092 -0.0286  1.4134
 1803SOL    HW2 7149   7.922   4.267   5.149 -0.5075  1.1417 -0.2661
 1804SOL     OW 7150   0.933   0.165   5.492  0.5953  0.6582  0.2610
 1804SOL    HW1 7151   0.900   0.229   5.555 -0.7591  0.7297 -0.4807
 1804SOL    HW2 7152   0.956   0.089   5.545  0.0278  0.9197  0.9050
 1805SOL     OW 7153   1.837   6.969   0.157  0.3679  0.0102  0.3361
 1805SOL    HW1 7154   1.806   6.923   0.235 -0.6155 -1.1320 -0.6902
 1805SOL    HW2 7155   1.762   7.020   0.128  0.1275 -0.9953 -0.8718
 1806SOL     OW 7156   6.935   4.116   2.548 -0.1232 -0.7325 -0.2407
 1806SOL    HW1 7157   6.889   4.108   2.464  1.0419  0.7683 -1.0606
 1806SOL    HW2 7158   7.024   4.086   2.529  0.0965 -0.5630  0.5113
 1807SOL     OW 7159   4.988   7.991   2.862  0.6264 -0.2038 -0.3914
 1807SOL    HW1 7160   4.961   8.082   2.847  1.1809 -0.3282 -2.4434
 1807SOL    HW2 7161   5.019   7.990   2.952 -1.1474  1.1874  0.3108
 1808SOL     OW 7162   7.104   3.842   5.152  0.2879  0.5700 -0.2721
 1808SOL    HW1 7163   7.070   3.810   5.069  0.5608 -1.0911  0.2066
 1808SOL    HW2 7164   7.125   3.934   5.137  1.3447  0.0448 -2.3579
 1809SOL     OW 7165   3.898   5.939   1.416 -0.6019 -0.5154 -0.3909
 1809SOL    HW1 7166   3.821   5.897   1.378 -0.6708 -0.8681  0.1301
 1809SOL    HW2 7167   3.926   6.003   1.350 -0.5694 -1.2843 -1.1360
 1810SOL     OW 7168   1.447   8.011   2.118 -0.3109  0.0122 -0.8359
 1810SOL    HW1 7169   1.397   8.031   2.039  0.4165  0.5100 -1.1849
 1810SOL    HW2 7170   1.437   7.917   2.130  0.2048 -0.2093 -1.9852
 1811SOL     OW 7171   1.255   6.813   0.702  0.1448  0.3661 -0.0890
 1811SOL    HW1 7172   1.218   6.797   0.789  0.0664  3.5327  0.6073
 1811SOL    HW2 7173   1.350   6.817   0.717  0.2687 -0.6816 -0.5022
 1812SOL     OW 7174   9.027   9.376   0.138  0.2818 -0.1228 -0.1803
 1812SOL    HW1 7175   9.055   9.323   0.213 -0.2145  0.4303  0.4101
 1812SOL    HW2 7176   8.935   9.353   0.125  0.9595 -2.0299 -2.1943
 1813SOL     OW 7177   4.442   4.232   3.818  0.7600 -0.7140  0.4173
 1813SOL    HW1 7178   4.380   4.161   3.832 -1.0237  0.3110 -1.7268
 1813SOL    HW2 7179   4.453   4.236   3.723 -0.0380  2.5008  0.3596
 1814SOL     OW 7180   4.035   3.057   8.972 -0.5128 -0.4654 -0.1906
 1814SOL    HW1 7181   3.974   3.110   8.920 -0.0250  0.5839  0.2701
 1814SOL    HW2 7182   3.980   3.014   9.037 -0.7679  0.5905  0.3190
 1815SOL     OW 7183   3.893   2.442   0.644 -0.0037 -0.0676 -0.0998
 1815SOL    HW1 7184   3.864   2.391   0.721 -0.6396  2.4077  1.4197
 1815SOL    HW2 7185   3.851   2.398   0.570 -2.2734 -0.5721  1.3514
 1816SOL     OW 7186   7.699   2.532   7.963 -0.2695 -0.5548  0.5895
 1816SOL    HW1 7187   7.710   2.626   7.952  1.3881 -0.8957 -1.0913
 1816SOL    HW2 7188   7.640   2.523   8.038 -2.0752  1.8280 -0.4200
 1817SOL     OW 7189   9.106   4.113   3.791 -0.4372  0.1051  0.4074
 1817SOL    HW1 7190   9.122   4.023   3.820  0.6909 -0.2244 -1.1054
 1817SOL    HW2 7191   9.186   4.160   3.815 -0.2954  0.2752 -0.3721
 1818SOL     OW 7192   2.110   6.193   4.205 -0.6591  0.0977 -0.5990
 1818SOL    HW1 7193   2.185   6.252   4.201  1.3479 -2.2304 -0.0317
 1818SOL    HW2 7194   2.075   6.205   4.293 -0.1347  0.3226 -0.4133
 1819SOL     OW 7195   3.661   6.330   0.406 -0.6892  0.1014  0.4606
 1819SOL    HW1 7196   3.726   6.333   0.476 -0.6643 -0.0662  0.4450
 1819SOL    HW2 7197   3.666   6.416   0.365 -0.7309  0.2111  0.6882
 1820SOL     OW 7198   7.357   6.015   5.747  0.8050 -0.2512  0.4079
 1820SOL    HW1 7199   7.388   6.037   5.659 -2.0023  1.0673 -0.4092
 1820SOL    HW2 7200   7.385   6.089   5.801  3.2964 -1.4763  0.9125
 1821SOL     OW 7201   9.348   0.520   3.548 -0.5480  0.3672  0.0342
 1821SOL    HW1 7202   9.266   0.567   3.561 -1.8747 -0.5889 -3.7419
 1821SOL    HW2 7203   9.337   0.439   3.597 -1.6361  0.4851  0.0112
 1822SOL     OW 7204   1.621   2.967   4.766  0.3678  0.2977 -0.8022
 1822SOL    HW1 7205   1.606   3.061   4.776  0.9137  0.4484 -1.3674
 1822SOL    HW2 7206   1.654   2.939   4.852 -2.6045  0.0300  0.3669
 1823SOL     OW 7207   1.451   5.166   2.748 -0.2790 -0.1719  0.0140
 1823SOL    HW1 7208   1.407   5.179   2.664 -0.2884 -0.9270 -0.0992
 1823SOL    HW2 7209   1.454   5.254   2.787  0.2134  0.2804 -1.0102
 1824SOL     OW 7210   6.688   1.020   6.998 -0.5169 -0.4074  0.3466
 1824SOL    HW1 7211   6.646   0.946   7.041  0.0354 -1.3186 -0.6551
 1824SOL    HW2 7212   6.633   1.037   6.921  1.2963 -2.1510 -1.4585
 1825SOL     OW 7213   0.507   1.567   1.776 -0.5380  0.1676  0.4673
 1825SOL    HW1 7214   0.479   1.529   1.859 -0.4783  0.0907  0.4526
 1825SOL    HW2 7215   0.450   1.525   1.711  0.0380 -0.4717  0.3631
 1826SOL     OW 7216   3.058   6.758   7.440  0.5644 -0.0325  0.4594
 1826SOL    HW1 7217   3.075   6.676   7.486 -0.8221 -1.6907 -1.7499
 1826SOL    HW2 7218   3.073   6.737   7.348 -0.5520  1.9831 -0.2494
 1827SOL     OW 7219   7.381   3.609   1.964  0.0588  0.1296  0.3045
 1827SOL    HW1 7220   7.456   3.649   2.006  0.7276  0.6004 -1.2542
 1827SOL    HW2 7221   7.315   3.678   1.961  0.0555  0.1328  0.4848
 1828SOL     OW 7222   6.505   2.140   1.455  0.4904 -0.5025 -0.6729
 1828SOL    HW1 7223   6.541   2.108   1.373  0.0809  0.2073 -1.1360
 1828SOL    HW2 7224   6.453   2.216   1.431  0.9595  0.1628  0.3286
 1829SOL     OW 7225   3.831   9.055   5.183  0.3528 -0.0451  0.5308
 1829SOL    HW1 7226   3.761   9.000   5.217  0.7518 -2.4058 -2.0876
 1829SOL    HW2 7227   3.907   8.996   5.178  1.7882  1.7039  0.7107
 1830SOL     OW 7228   7.821   6.125   1.921  0.6499 -0.1562  0.2835
 1830SOL    HW1 7229   7.901   6.094   1.879  0.0940  0.1042 -0.9940
 1830SOL    HW2 7230   7.770   6.165   1.851 -0.7236 -0.5498  1.0160
 1831SOL     OW 7231   1.037   2.131   1.232 -0.5459 -0.5100  0.4019
 1831SOL    HW1 7232   1.078   2.216   1.248 -0.1415 -0.2384 -1.7150
 1831SOL    HW2 7233   1.014   2.098   1.319  1.7071  0.5533  1.4907
 1832SOL     OW 7234   2.363   1.723   7.980 -0.1636  0.8173  0.1355
 1832SOL    HW1 7235   2.452   1.716   8.016 -0.7861  0.9862  1.7622
 1832SOL    HW2 7236   2.349   1.817   7.967 -0.1488  0.7986 -0.0204
 1833SOL     OW 7237   4.960   6.999   6.556  0.0363  0.1599  0.1727
 1833SOL    HW1 7238   4.872   7.024   6.528 -0.7989  0.6136  2.8346
 1833SOL    HW2 7239   4.987   6.932   6.494 -2.6672 -0.8100 -0.1282
 1834SOL     OW 7240   6.116   9.109   2.887 -0.1934 -0.1083 -0.9416
 1834SOL    HW1 7241   6.082   9.179   2.942 -2.0289  0.1646 -2.3342
 1834SOL    HW2 7242   6.101   9.029   2.938  2.5258  0.4591  0.9473
 1835SOL     OW 7243   0.703   4.752   6.206  0.1291  1.0941  0.0787
 1835SOL    HW1 7244   0.690   4.676   6.263 -0.4447  0.4158 -0.9108
 1835SOL    HW2 7245   0.615   4.787   6.193  0.0762  0.4876 -1.3574
 1836SOL     OW 7246   6.602   5.325   0.552  1.0251  0.1641 -0.1478
 1836SOL    HW1 7247   6.526   5.351   0.499 -0.6428 -0.4997  1.7636
 1836SOL    HW2 7248   6.656   5.274   0.492 -0.5976 -0.2786 -1.3248
 1837SOL     OW 7249   7.128   2.467   3.337  0.2957 -0.6323 -0.2435
 1837SOL    HW1 7250   7.051   2.480   3.393 -0.0061 -1.2011 -0.5206
 1837SOL    HW2 7251   7.202   2.493   3.391 -0.2495  2.4605 -0.7846
 1838SOL     OW 7252   3.345   1.263   7.544 -1.1410 -0.5116  0.2194
 1838SOL    HW1 7253   3.404   1.315   7.489  0.3812 -1.6421  0.7104
 1838SOL    HW2 7254   3.294   1.328   7.593  0.7320  0.5497  0.8608
 1839SOL     OW 7255   1.029   0.431   3.342  0.2186 -0.3107  0.2210
 1839SOL    HW1 7256   1.062   0.521   3.348  1.2415 -0.6930  0.5925
 1839SOL    HW2 7257   1.033   0.411   3.248 -0.3464  0.1412  0.0941
 1840SOL     OW 7258   2.661   5.985   0.387 -0.2217  0.1270 -0.3615
 1840SOL    HW1 7259   2.719   6.057   0.362  1.4039 -1.2575 -0.7983
 1840SOL    HW2 7260   2.613   6.017   0.463  0.2156  1.7756 -0.7604
 1841SOL     OW 7261   7.281   6.763   1.779  0.4351  0.3987  0.6005
 1841SOL    HW1 7262   7.243   6.675   1.779  2.2177 -0.4291  1.4334
 1841SOL    HW2 7263   7.352   6.758   1.842  1.5006  2.0371 -0.3932
 1842SOL     OW 7264   1.116   7.275   5.071 -0.1734 -0.0358 -0.2218
 1842SOL    HW1 7265   1.027   7.309   5.081 -1.3405 -2.0320 -2.5835
 1842SOL    HW2 7266   1.104   7.182   5.051  2.4202 -0.3172 -0.9318
 1843SOL     OW 7267   4.013   4.698   8.982  0.1955 -0.2071  0.3206
 1843SOL    HW1 7268   4.017   4.658   8.895  1.7732  2.7311 -1.0888
 1843SOL    HW2 7269   3.922   4.686   9.009 -0.4382 -0.9095 -1.8645
 1844SOL     OW 7270   5.032   5.503   8.218 -0.2075 -0.1178 -0.5124
 1844SOL    HW1 7271   5.057   5.534   8.305 -0.3675 -0.0174 -0.5024
 1844SOL    HW2 7272   4.971   5.569   8.186  1.7257  1.1842 -1.7046
 1845SOL     OW 7273   3.247   8.652   3.067  0.1034 -0.5685 -0.0829
 1845SOL    HW1 7274   3.296   8.667   3.148  0.0089 -3.8142  0.7222
 1845SOL    HW2 7275   3.241   8.738   3.026 -2.3492  1.8998  4.6959
 1846SOL     OW 7276   1.919   7.912   7.065  0.0750  0.5499  0.4569
 1846SOL    HW1 7277   1.936   7.828   7.107  2.5277  0.9719  0.4734
 1846SOL    HW2 7278   1.951   7.902   6.976  0.9053  1.5735  0.6074
 1847SOL     OW 7279   3.649   0.584   5.259  0.4461 -0.1785  0.6653
 1847SOL    HW1 7280   3.647   0.594   5.354 -1.4965 -1.6443  0.8459
 1847SOL    HW2 7281   3.637   0.674   5.226  2.4792  0.5453  1.7061
 1848SOL     OW 7282   8.251   0.873   5.526 -0.2004  0.6763  0.2559
 1848SOL    HW1 7283   8.287   0.849   5.440  2.0909  1.0089  1.0417
 1848SOL    HW2 7284   8.329   0.891   5.580 -1.5724  0.5653  2.3807
 1849SOL     OW 7285   3.772   5.528   5.552 -0.2800  0.0008 -0.1951
 1849SOL    HW1 7286   3.832   5.590   5.509  0.9400 -1.1625 -0.2359
 1849SOL    HW2 7287   3.825   5.486   5.619 -1.2318 -0.6391  0.1760
 1850SOL     OW 7288   9.167   2.455   8.325  0.9918 -0.0338 -0.3123
 1850SOL    HW1 7289   9.083   2.459   8.370  0.3787 -1.0979 -1.3069
 1850SOL    HW2 7290   9.174   2.539   8.279 -0.1010 -0.3804 -1.1650
 1851SOL     OW 7291   4.156   1.516   8.882  0.4341  0.1260  0.6660
 1851SOL    HW1 7292   4.155   1.428   8.919  1.1336  0.3536  1.2531
 1851SOL    HW2 7293   4.228   1.560   8.928  0.1906  0.9509  0.2665
 1852SOL     OW 7294   7.659   0.686   4.869  0.5984  0.3260  0.2066
 1852SOL    HW1 7295   7.712   0.615   4.906 -0.2739  0.6714  2.2215
 1852SOL    HW2 7296   7.626   0.650   4.786  0.5561 -1.4740  0.9555
 1853SOL     OW 7297   3.400   3.392   2.679  0.4094  0.0226  0.2728
 1853SOL    HW1 7298   3.378   3.345   2.598 -0.6736  1.4140 -0.2715
 1853SOL    HW2 7299   3.496   3.399   2.676  0.7114 -2.6595  0.7143
 1854SOL     OW 7300   2.428   3.401   3.866 -0.1798 -0.2456 -0.4320
 1854SOL    HW1 7301   2.335   3.413   3.884  0.2943  0.7415  1.6349
 1854SOL    HW2 7302   2.456   3.335   3.930  0.7714  0.3027 -0.2697
 1855SOL     OW 7303   6.160   8.698   7.336  0.3383  0.2514  0.0005
 1855SOL    HW1 7304   6.198   8.780   7.304  0.9383 -0.7975 -2.2387
 1855SOL    HW2 7305   6.189   8.632   7.272  0.6005 -1.8824  2.1651
 1856SOL     OW 7306   6.180   3.932   6.353  0.2385 -0.6149 -0.2075
 1856SOL    HW1 7307   6.222   3.907   6.436 -1.1437 -0.6738  0.5000
 1856SOL    HW2 7308   6.146   4.020   6.370 -3.6791 -2.1203  0.8015
 1857SOL     OW 7309   9.306   4.656   1.941  0.2435  0.1201 -0.0997
 1857SOL    HW1 7310   9.331   4.620   1.856 -0.2143 -1.8077  0.5431
 1857SOL    HW2 7311   9.270   4.742   1.921  0.0568 -0.3326 -1.8678
 1858SOL     OW 7312   3.283   3.622   8.006 -0.1637  0.4987 -0.1108
 1858SOL    HW1 7313   3.221   3.626   7.934  1.3874  2.8714 -1.4587
 1858SOL    HW2 7314   3.246   3.681   8.072 -0.0342  0.8283 -0.3303
 1859SOL     OW 7315   6.580   4.637   2.755 -0.2877  0.3175  0.4603
 1859SOL    HW1 7316   6.528   4.707   2.797  0.1896  1.3752 -0.6499
 1859SOL    HW2 7317   6.643   4.612   2.822  1.0203  2.5883  0.1916
 1860SOL     OW 7318   6.239   4.960   6.265 -0.0286  0.6122  0.0402
 1860SOL    HW1 7319   6.320   4.966   6.316  1.2483 -4.4044 -0.8196
 1860SOL    HW2 7320   6.175   4.925   6.327 -0.4484  0.9900 -0.1775
 1861SOL     OW 7321   2.255   2.208   2.766 -0.1676 -0.0647 -0.3726
 1861SOL    HW1 7322   2.298   2.293   2.776  1.3301 -0.9651  1.5979
 1861SOL    HW2 7323   2.197   2.219   2.690  0.4085  2.5045 -0.5360
 1862SOL     OW 7324   7.521   6.719   6.756  0.1984 -1.0238 -0.2658
 1862SOL    HW1 7325   7.497   6.700   6.847  1.0858 -2.3770 -0.2780
 1862SOL    HW2 7326   7.543   6.633   6.719  1.6802 -0.2746 -1.2212
 1863SOL     OW 7327   7.393   8.922   0.606  0.1287  0.6096  0.4687
 1863SOL    HW1 7328   7.463   8.858   0.600 -0.4049  0.0741 -0.0955
 1863SOL    HW2 7329   7.328   8.882   0.664 -0.6747  0.1792 -0.6962
 1864SOL     OW 7330   7.583   3.667   7.632  0.4522  0.0835  0.2144
 1864SOL    HW1 7331   7.649   3.730   7.661  0.1944  0.0667  0.8673
 1864SOL    HW2 7332   7.501   3.701   7.667  0.2319 -0.3243  0.0968
 1865SOL     OW 7333   3.048   3.806   2.025 -0.5773  0.0478  0.0604
 1865SOL    HW1 7334   3.053   3.800   2.120 -0.0465  1.1998  0.1242
 1865SOL    HW2 7335   3.120   3.866   2.001 -2.5344  2.2072 -0.7876
 1866SOL     OW 7336   7.188   9.432   8.204  0.4219 -0.6122  0.0342
 1866SOL    HW1 7337   7.225   9.471   8.283 -0.5424 -0.9364  0.6725
 1866SOL    HW2 7338   7.169   9.341   8.230 -2.5076 -0.0060  0.3763
 1867SOL     OW 7339   3.256   1.615   0.332  0.0460 -0.4878  0.2023
 1867SOL    HW1 7340   3.226   1.524   0.332  0.4880 -0.6341  0.7247
 1867SOL    HW2 7341   3.344   1.612   0.295 -0.1720 -0.1882 -0.3557
 1868SOL     OW 7342   6.838   5.821   6.019  0.4075 -0.0110  0.3913
 1868SOL    HW1 7343   6.868   5.912   6.011  1.5859 -0.4747 -0.6892
 1868SOL    HW2 7344   6.745   5.825   5.996  0.0731  1.1387  1.8164
 1869SOL     OW 7345   0.799   7.852   8.855 -0.0759  0.1972  0.1608
 1869SOL    HW1 7346   0.855   7.798   8.799 -1.5156  0.2276 -1.3664
 1869SOL    HW2 7347   0.794   7.936   8.811 -1.6641  0.0544  0.0303
 1870SOL     OW 7348   8.737   5.877   5.824  0.0201 -0.6024 -0.0674
 1870SOL    HW1 7349   8.727   5.845   5.734 -0.1667 -0.7912  0.0187
 1870SOL    HW2 7350   8.727   5.798   5.878 -2.4263 -0.1655  0.2625
 1871SOL     OW 7351   3.271   5.722   3.897 -0.3824  0.0352  0.3467
 1871SOL    HW1 7352   3.357   5.688   3.874 -0.2904  0.5378 -0.0777
 1871SOL    HW2 7353   3.290   5.800   3.951 -0.5876 -0.9672  1.9354
 1872SOL     OW 7354   4.727   4.278   0.903  0.0706 -0.0247 -0.1162
 1872SOL    HW1 7355   4.815   4.255   0.933  0.5226  1.0052 -0.5946
 1872SOL    HW2 7356   4.693   4.336   0.971  0.0804  0.2130 -0.3099
 1873SOL     OW 7357   4.282   8.925   4.516 -0.1900  0.4851 -0.3951
 1873SOL    HW1 7358   4.357   8.879   4.554  0.9004  1.0698 -1.7355
 1873SOL    HW2 7359   4.296   9.017   4.540 -1.2241  0.4425  0.4725
 1874SOL     OW 7360   2.291   2.538   7.389 -0.3537 -0.1653  0.5236
 1874SOL    HW1 7361   2.204   2.557   7.354  0.1030 -0.3015 -0.7608
 1874SOL    HW2 7362   2.313   2.613   7.443 -1.7110 -0.6250  1.7832
 1875SOL     OW 7363   4.890   9.062   8.289 -0.3364  0.1765  0.5736
 1875SOL    HW1 7364   4.884   9.157   8.275 -0.9176 -0.0979 -1.2069
 1875SOL    HW2 7365   4.954   9.032   8.225 -0.7927 -0.7471  0.5382
 1876SOL     OW 7366   6.956   2.860   7.501 -0.1869 -0.2686  0.1403
 1876SOL    HW1 7367   6.961   2.947   7.462  1.3852 -0.5007 -0.2470
 1876SOL    HW2 7368   6.902   2.871   7.579  0.5488  1.2131  0.4659
 1877SOL     OW 7369   0.995   7.360   3.887 -0.1766 -0.4038 -0.4585
 1877SOL    HW1 7370   0.931   7.301   3.927  0.2237 -0.7577 -0.3315
 1877SOL    HW2 7371   1.053   7.302   3.838  0.4686 -0.1560  0.0051
 1878SOL     OW 7372   3.315   7.029   8.644  0.4820 -0.3349 -0.2741
 1878SOL    HW1 7373   3.407   7.003   8.648  1.7440  3.4949 -0.5060
 1878SOL    HW2 7374   3.280   7.006   8.730  2.4786  0.6125  0.8664
 1879SOL     OW 7375   4.939   6.648   3.765 -0.4776 -0.5172  0.1824
 1879SOL    HW1 7376   4.991   6.606   3.697  0.7832  0.7559  0.3088
 1879SOL    HW2 7377   4.999   6.660   3.838 -0.4603  2.2715 -0.1805
 1880SOL     OW 7378   1.437   0.909   0.621  0.3070  0.3909  0.1726
 1880SOL    HW1 7379   1.520   0.949   0.596 -0.1930  0.1985 -2.0683
 1880SOL    HW2 7380   1.393   0.976   0.674  1.4518  0.9075  0.4952
 1881SOL     OW 7381   5.910   5.643   3.931 -0.4300  0.0406  0.1652
 1881SOL    HW1 7382   5.908   5.739   3.921 -0.7966 -0.0954 -1.3884
 1881SOL    HW2 7383   5.969   5.614   3.861  0.0693 -0.8390  0.9461
 1882SOL     OW 7384   2.079   8.172   7.422 -0.2424  0.0850 -0.1953
 1882SOL    HW1 7385   2.147   8.201   7.361 -0.9631  2.3344 -0.0491
 1882SOL    HW2 7386   2.004   8.151   7.366 -0.2469  0.1532 -0.2156
 1883SOL     OW 7387   9.423   3.598   2.468  0.7700  0.0542  0.2667
 1883SOL    HW1 7388   9.461   3.535   2.530 -0.8195 -0.7614  0.4603
 1883SOL    HW2 7389   9.329   3.582   2.472  0.3640  2.0214 -0.1734
 1884SOL     OW 7390   9.504   0.115   6.824  0.6813  0.3533 -0.3700
 1884SOL    HW1 7391   9.467   0.030   6.801  1.3933 -0.5854  1.7097
 1884SOL    HW2 7392   9.429   0.175   6.825 -0.3360 -0.8829  0.9245
 1885SOL     OW 7393   3.655   1.133   7.959 -0.4642  0.0016  0.0757
 1885SOL    HW1 7394   3.617   1.138   7.871  1.0681 -1.2806 -0.7112
 1885SOL    HW2 7395   3.616   1.054   7.997  0.3456 -0.5587 -0.2278
 1886SOL     OW 7396   2.553   0.899   4.410 -0.6185  0.0066 -1.0658
 1886SOL    HW1 7397   2.622   0.897   4.344 -0.2642 -0.2798 -0.6964
 1886SOL    HW2 7398   2.474   0.870   4.364  0.0849 -2.4581 -0.8437
 1887SOL     OW 7399   0.539   1.851   6.431 -0.0558 -0.1679 -0.0066
 1887SOL    HW1 7400   0.552   1.943   6.453  3.1888 -0.5070 -0.0673
 1887SOL    HW2 7401   0.505   1.851   6.342  0.9286  0.9571 -0.3913
 1888SOL     OW 7402   9.396   2.637   1.400 -0.1508  0.3478  0.1258
 1888SOL    HW1 7403   9.374   2.652   1.492 -0.3974 -0.2797  0.1745
 1888SOL    HW2 7404   9.423   2.723   1.368  0.1733  0.5292  0.8481
 1889SOL     OW 7405   7.955   8.488   3.378  0.3007  0.0919 -0.1855
 1889SOL    HW1 7406   8.027   8.515   3.434  0.5616 -1.2288  0.1665
 1889SOL    HW2 7407   7.920   8.569   3.341  1.0322  0.8612  0.7797
 1890SOL     OW 7408   6.288   6.995   0.154 -0.1628  0.4301 -0.4344
 1890SOL    HW1 7409   6.248   7.034   0.076 -0.9131 -0.8726 -0.7388
 1890SOL    HW2 7410   6.340   6.923   0.120 -2.1691 -1.5238  0.3422
 1891SOL     OW 7411   5.495   5.046   0.812  0.3655 -0.6867  0.4433
 1891SOL    HW1 7412   5.568   5.044   0.873  0.0578 -0.0651  0.8438
 1891SOL    HW2 7413   5.421   5.079   0.864  0.4722  1.4121 -0.6523
 1892SOL     OW 7414   0.775   1.669   3.720 -0.0162  0.4807  0.3818
 1892SOL    HW1 7415   0.759   1.615   3.643 -0.3682  0.4620  0.4660
 1892SOL    HW2 7416   0.710   1.641   3.784  0.9224 -0.2178  1.0610
 1893SOL     OW 7417   2.314   2.281   4.838 -0.1596  0.5917 -0.1344
 1893SOL    HW1 7418   2.384   2.217   4.824 -0.5574  0.1016  0.0752
 1893SOL    HW2 7419   2.325   2.344   4.767  0.6352  0.6544  0.0284
 1894SOL     OW 7420   5.179   1.903   7.953  0.4750  0.1342  0.2886
 1894SOL    HW1 7421   5.113   1.912   7.884  1.3140 -2.3756 -0.9462
 1894SOL    HW2 7422   5.263   1.900   7.907  1.3001  0.9132  1.6490
 1895SOL     OW 7423   3.004   5.277   3.771  0.3681  0.3061 -0.5107
 1895SOL    HW1 7424   2.986   5.247   3.860  0.0906  1.1716 -0.2619
 1895SOL    HW2 7425   3.094   5.248   3.754  0.1428 -0.5735 -0.2633
 1896SOL     OW 7426   5.270   5.215   8.091 -0.2530  0.5410  0.2746
 1896SOL    HW1 7427   5.309   5.177   8.170  2.4847 -1.0354 -1.6601
 1896SOL    HW2 7428   5.191   5.164   8.076  0.1214 -0.2867  1.0350
 1897SOL     OW 7429   7.972   7.200   7.638 -0.3721 -1.1233 -0.2732
 1897SOL    HW1 7430   7.913   7.157   7.699  0.8113 -1.2447  0.8364
 1897SOL    HW2 7431   7.954   7.293   7.649 -0.0639 -1.1327  0.4104
 1898SOL     OW 7432   0.670   9.547   2.960  0.0214 -0.3710 -0.6479
 1898SOL    HW1 7433   0.692   9.456   2.983 -0.7317 -0.6119 -0.8453
 1898SOL    HW2 7434   0.637   9.585   3.041  1.3316  0.0554 -0.2965
 1899SOL     OW 7435   0.844   8.537   1.265 -0.4852  0.7090 -0.4741
 1899SOL    HW1 7436   0.859   8.459   1.318  1.8692  0.5559 -1.2546
 1899SOL    HW2 7437   0.927   8.583   1.266 -1.2442  2.1929 -1.6798
 1900SOL     OW 7438   9.537   9.495   2.805 -0.5670  0.3430  0.3235
 1900SOL    HW1 7439   9.512   9.514   2.715  0.3556  0.7612  0.1475
 1900SOL    HW2 7440   9.590   9.416   2.799 -0.3528  0.4744  0.4754
 1901SOL     OW 7441   5.961   0.422   1.509  0.4854  0.1470  0.1157
 1901SOL    HW1 7442   5.987   0.381   1.592  0.4538  0.1148  0.1102
 1901SOL    HW2 7443   6.042   0.457   1.473  0.5662 -0.1881 -0.0338
 1902SOL     OW 7444   0.020   5.320   4.299  0.1743  0.4174 -0.1697
 1902SOL    HW1 7445   0.077   5.245   4.318 -1.2224 -0.7771 -0.5346
 1902SOL    HW2 7446   0.004   5.360   4.385  1.4487  0.7038 -0.0499
 1903SOL     OW 7447   6.278   9.203   2.208 -0.5034 -0.3853 -0.2978
 1903SOL    HW1 7448   6.240   9.213   2.295  0.9815  1.5139  0.1871
 1903SOL    HW2 7449   6.213   9.241   2.148  0.0023  1.6636  0.3863
 1904SOL     OW 7450   8.577   0.926   9.248 -0.2487 -0.0835  0.4236
 1904SOL    HW1 7451   8.531   0.871   9.184  0.9511 -0.9960  0.3020
 1904SOL    HW2 7452   8.554   0.888   9.333  0.6278 -0.8439  0.3365
 1905SOL     OW 7453   5.164   0.409   6.301 -0.0380 -0.2820  0.3488
 1905SOL    HW1 7454   5.095   0.434   6.362  0.5777 -0.0967  0.9826
 1905SOL    HW2 7455   5.221   0.351   6.351 -1.2409 -2.7440 -0.9867
 1906SOL     OW 7456   9.267   7.052   3.280  0.2124  0.2426  0.4282
 1906SOL    HW1 7457   9.350   7.031   3.237 -0.4819  2.6369 -2.3625
 1906SOL    HW2 7458   9.282   7.136   3.322 -0.2501 -0.2999  1.7385
 1907SOL     OW 7459   4.898   8.946   6.443 -0.1904 -0.2060 -0.4785
 1907SOL    HW1 7460   4.904   8.866   6.392 -0.5628 -0.9537  0.6115
 1907SOL    HW2 7461   4.865   9.011   6.381  1.0926 -0.6206 -1.6375
 1908SOL     OW 7462   9.257   5.065   7.848 -0.2306  0.7588 -0.0929
 1908SOL    HW1 7463   9.180   5.037   7.898  1.0847  0.7349  2.0582
 1908SOL    HW2 7464   9.280   4.989   7.795  0.2978 -0.5095  1.8583
 1909SOL     OW 7465   2.848   3.939   6.251  0.2667  0.4690  1.1373
 1909SOL    HW1 7466   2.837   3.987   6.169  1.0852 -0.5807  0.3751
 1909SOL    HW2 7467   2.759   3.916   6.277 -0.0116  0.8615  0.5608
 1910SOL     OW 7468   8.510   6.735   0.117 -0.0298  0.0027 -0.3573
 1910SOL    HW1 7469   8.502   6.642   0.097  0.8003 -0.1525 -0.0225
 1910SOL    HW2 7470   8.576   6.768   0.055  3.1750 -0.6474  2.3672
 1911SOL     OW 7471   9.212   3.809   5.649 -0.2667 -0.0494 -0.2622
 1911SOL    HW1 7472   9.179   3.898   5.654 -0.2435  0.0937 -2.0555
 1911SOL    HW2 7473   9.147   3.757   5.697 -0.6425  0.8215  0.2085
 1912SOL     OW 7474   1.075   5.209   2.736  0.2622  0.0560  0.4587
 1912SOL    HW1 7475   1.070   5.147   2.808 -0.7071  0.4754  0.7641
 1912SOL    HW2 7476   1.057   5.295   2.775  0.3298  0.3702 -0.1702
 1913SOL     OW 7477   5.493   2.582   1.598  0.1736  0.6426  0.4278
 1913SOL    HW1 7478   5.454   2.499   1.626 -0.1223  0.0791 -1.4949
 1913SOL    HW2 7479   5.487   2.638   1.675  2.7301 -1.8578  2.6774
 1914SOL     OW 7480   1.903   6.383   1.977  0.4268 -0.1723 -0.3207
 1914SOL    HW1 7481   1.908   6.462   1.923 -1.0632  0.4399  0.3603
 1914SOL    HW2 7482   1.824   6.338   1.946  0.9511 -1.1045 -0.3206
 1915SOL     OW 7483   4.299   5.024   9.504  0.1726 -0.0225 -0.1293
 1915SOL    HW1 7484   4.357   5.084   9.551  0.7200 -0.4513 -0.2472
 1915SOL    HW2 7485   4.217   5.073   9.493  0.7222  0.8329 -0.5236
 1916SOL     OW 7486   7.929   9.555   3.950  0.2580  0.0903  0.0594
 1916SOL    HW1 7487   7.883   9.503   3.884  1.6519  0.7069 -1.4621
 1916SOL    HW2 7488   7.874   9.548   4.028  0.0209 -3.0928 -0.2324
 1917SOL     OW 7489   5.549   6.470   4.252 -0.1899 -0.5697  0.3984
 1917SOL    HW1 7490   5.606   6.450   4.178  2.1144  1.1688  1.5574
 1917SOL    HW2 7491   5.474   6.412   4.241  0.4222 -0.9440 -2.8073
 1918SOL     OW 7492   2.542   3.395   1.970  0.3446  0.3000  0.6940
 1918SOL    HW1 7493   2.482   3.446   1.916 -0.6407 -1.4188  0.0868
 1918SOL    HW2 7494   2.485   3.348   2.032  1.1385 -0.5945  0.7751
 1919SOL     OW 7495   7.850   9.287   6.614 -0.6091 -0.0908 -0.4245
 1919SOL    HW1 7496   7.935   9.330   6.617 -0.6735  0.0032  1.7175
 1919SOL    HW2 7497   7.787   9.357   6.631 -0.8524 -0.6530  1.1497
 1920SOL     OW 7498   8.250   0.952   9.300 -0.3914  0.8659  0.3732
 1920SOL    HW1 7499   8.331   0.982   9.341 -0.0919  1.7679 -0.8355
 1920SOL    HW2 7500   8.256   0.981   9.209 -0.9086 -1.3118 -0.4305
 1921SOL     OW 7501   8.907   5.521   0.303  0.0519 -0.5637  0.0815
 1921SOL    HW1 7502   8.986   5.573   0.290 -0.6686  0.0817 -1.9862
 1921SOL    HW2 7503   8.921   5.443   0.249 -0.6512 -0.5266 -0.1589
 1922SOL     OW 7504   3.187   9.330   1.881 -0.0509 -0.2331 -0.5413
 1922SOL    HW1 7505   3.193   9.425   1.872 -0.7254  0.1413  2.0305
 1922SOL    HW2 7506   3.146   9.301   1.800  1.7355  1.4322 -2.1362
 1923SOL     OW 7507   0.268   3.079   4.777 -0.2170  0.2994 -0.4396
 1923SOL    HW1 7508   0.347   3.090   4.724  0.3665  2.2128  0.7340
 1923SOL    HW2 7509   0.212   3.153   4.751 -1.9786 -1.3653 -1.7233
 1924SOL     OW 7510   5.898   4.381   0.933  0.0736 -0.0294 -0.2542
 1924SOL    HW1 7511   5.838   4.374   0.859  0.9502 -0.1937 -0.9633
 1924SOL    HW2 7512   5.924   4.473   0.935 -1.7423  0.5195  1.3209
 1925SOL     OW 7513   0.491   2.453   2.812 -0.2372 -0.1586  0.0351
 1925SOL    HW1 7514   0.400   2.446   2.783 -0.4628 -2.2847  1.0197
 1925SOL    HW2 7515   0.488   2.428   2.904  1.0571  2.0713  0.7510
 1926SOL     OW 7516   2.826   4.430   2.286 -1.0366 -0.3057 -0.0904
 1926SOL    HW1 7517   2.904   4.382   2.257 -0.2566  1.3680 -0.9160
 1926SOL    HW2 7518   2.764   4.421   2.214 -1.4212 -1.1706  0.3316
 1927SOL     OW 7519   9.225   1.228   8.845 -0.5603  0.2437 -0.5128
 1927SOL    HW1 7520   9.303   1.282   8.829  0.0269 -0.8806 -1.6415
 1927SOL    HW2 7521   9.164   1.254   8.776 -0.6513  0.1523 -0.4654
 1928SOL     OW 7522   3.339   5.697   6.202 -0.4987  0.0598  0.4139
 1928SOL    HW1 7523   3.290   5.767   6.158 -1.6912 -0.2535  1.2134
 1928SOL    HW2 7524   3.429   5.711   6.173 -0.7319  1.8006  0.3769
 1929SOL     OW 7525   0.313   4.531   5.578 -0.1940  0.7727 -0.0693
 1929SOL    HW1 7526   0.257   4.605   5.603 -0.4219  1.0587 -1.3422
 1929SOL    HW2 7527   0.373   4.568   5.512  1.6805  0.5342  1.4315
 1930SOL     OW 7528   4.422   9.553   8.694 -0.4054  0.4842  0.0653
 1930SOL    HW1 7529   4.444   9.530   8.785 -1.1791 -0.9454 -0.0738
 1930SOL    HW2 7530   4.404   9.647   8.697  1.4576  0.8583  0.9935
 1931SOL     OW 7531   0.908   7.539   5.308 -0.2580  0.0720  0.2993
 1931SOL    HW1 7532   0.872   7.497   5.230 -1.3716  0.0503  0.8029
 1931SOL    HW2 7533   0.918   7.468   5.371 -0.0661  0.2050  0.4213
 1932SOL     OW 7534   8.256   7.555   8.519  0.0002 -0.1330 -0.3162
 1932SOL    HW1 7535   8.348   7.557   8.495 -0.0663  1.1347 -0.5447
 1932SOL    HW2 7536   8.212   7.522   8.441  0.3535 -1.9992  0.2271
 1933SOL     OW 7537   4.232   7.228   8.182 -0.2941 -0.3154  0.3145
 1933SOL    HW1 7538   4.254   7.279   8.260  2.4840  0.3303 -0.7789
 1933SOL    HW2 7539   4.263   7.139   8.203  0.6225 -0.1007 -0.0771
 1934SOL     OW 7540   7.002   0.906   8.098 -0.0092  0.0806 -0.5467
 1934SOL    HW1 7541   7.080   0.929   8.148  0.5396 -0.0545 -1.3117
 1934SOL    HW2 7542   7.034   0.892   8.009 -0.8757 -0.1934 -0.8309
 1935SOL     OW 7543   4.435   5.826   5.542  0.3105 -0.0469  0.0852
 1935SOL    HW1 7544   4.449   5.919   5.560 -0.9596 -0.4411  3.9550
 1935SOL    HW2 7545   4.451   5.782   5.625 -1.3056 -3.0377 -1.0138
 1936SOL     OW 7546   4.097   6.979   0.987  0.7634 -0.4979 -0.0491
 1936SOL    HW1 7547   4.053   7.006   1.068  1.0067 -2.2440  0.6959
 1936SOL    HW2 7548   4.027   6.943   0.933  0.6412  0.4516 -0.5539
 1937SOL     OW 7549   2.057   2.062   8.783 -0.1583  0.0020 -0.2936
 1937SOL    HW1 7550   2.127   2.029   8.838  0.0608  0.6344 -0.1820
 1937SOL    HW2 7551   2.008   2.122   8.840 -0.7993 -0.4420 -0.3634
 1938SOL     OW 7552   6.887   3.863   4.634  0.0875 -0.1048  0.0171
 1938SOL    HW1 7553   6.799   3.853   4.670 -0.6895 -0.5338 -1.9163
 1938SOL    HW2 7554   6.887   3.949   4.593  0.5425 -0.1576 -0.0985
 1939SOL     OW 7555   2.895   7.569   0.435 -0.2109 -0.1519  0.4978
 1939SOL    HW1 7556   2.948   7.583   0.512  0.7317 -0.6516 -0.0485
 1939SOL    HW2 7557   2.816   7.621   0.450  0.7347  1.1843  1.0030
 1940SOL     OW 7558   4.595   8.273   6.057 -0.5264  0.1989  0.0504
 1940SOL    HW1 7559   4.652   8.253   6.131 -1.1162  0.1791  0.4970
 1940SOL    HW2 7560   4.647   8.247   5.980  0.0873  0.2283  0.4452
 1941SOL     OW 7561   0.879   4.187   0.411 -0.2441  0.2700 -0.5004
 1941SOL    HW1 7562   0.829   4.110   0.437  1.4144 -0.2910  1.2611
 1941SOL    HW2 7563   0.927   4.159   0.333  0.2083 -0.4457  0.0212
 1942SOL     OW 7564   3.625   2.646   5.072  0.3582 -0.5394  0.2810
 1942SOL    HW1 7565   3.552   2.590   5.044  0.5347 -0.8188  0.3789
 1942SOL    HW2 7566   3.598   2.677   5.159  0.3223 -0.5794  0.2843
 1943SOL     OW 7567   5.724   3.757   4.671 -0.1072  0.1868 -0.3790
 1943SOL    HW1 7568   5.819   3.758   4.685  0.0691  0.2832 -1.4385
 1943SOL    HW2 7569   5.686   3.777   4.756  0.8847  2.0948 -0.3346
 1944SOL     OW 7570   6.638   2.480   9.403  0.5146  0.3084  0.1146
 1944SOL    HW1 7571   6.684   2.497   9.485 -0.1820  0.9920  0.3735
 1944SOL    HW2 7572   6.548   2.460   9.429  0.6634 -1.1170 -0.3795
 1945SOL     OW 7573   3.736   0.280   7.305 -0.1332 -1.1015 -0.1623
 1945SOL    HW1 7574   3.772   0.321   7.384 -2.0811  1.1994 -0.3403
 1945SOL    HW2 7575   3.649   0.250   7.332  0.4071 -3.2861 -0.6522
 1946SOL     OW 7576   8.576   5.712   1.186 -0.3947  0.3702  0.2280
 1946SOL    HW1 7577   8.543   5.654   1.118 -0.9923  0.1071  0.7362
 1946SOL    HW2 7578   8.501   5.729   1.242 -0.2591  1.7347  0.0280
 1947SOL     OW 7579   6.371   9.437   6.090 -0.2348  0.4105 -0.0524
 1947SOL    HW1 7580   6.437   9.438   6.160 -0.3812  0.1889  0.0940
 1947SOL    HW2 7581   6.369   9.526   6.057  0.6919  0.2463 -0.5802
 1948SOL     OW 7582   3.305   4.384   3.074  0.6458  0.0278  0.0720
 1948SOL    HW1 7583   3.294   4.289   3.069  0.5957 -0.0094  0.7956
 1948SOL    HW2 7584   3.217   4.419   3.060  0.6733 -0.0325 -0.2470
 1949SOL     OW 7585   0.425   3.712   0.112 -0.3173  0.2859 -0.0472
 1949SOL    HW1 7586   0.415   3.750   0.199 -0.3336 -0.4548  0.2876
 1949SOL    HW2 7587   0.516   3.684   0.108  0.5805  3.1458 -1.4781
 1950SOL     OW 7588   7.909   6.921   8.663  0.1350  0.2493 -0.1268
 1950SOL    HW1 7589   7.852   6.935   8.739 -0.3254  1.5053 -0.6843
 1950SOL    HW2 7590   7.894   6.829   8.639 -0.8901  0.2764  0.3509
 1951SOL     OW 7591   2.676   1.285   2.674 -0.6680  0.3590  0.2900
 1951SOL    HW1 7592   2.652   1.249   2.589 -0.2851 -0.4915  0.5307
 1951SOL    HW2 7593   2.733   1.218   2.714 -1.9005  0.1181  1.7651
 1952SOL     OW 7594   4.765   2.423   9.310 -0.3698 -0.0536  0.5614
 1952SOL    HW1 7595   4.757   2.415   9.215  1.6452 -0.4464  0.3765
 1952SOL    HW2 7596   4.849   2.468   9.323 -0.1815 -0.7900  2.1616
 1953SOL     OW 7597   6.233   9.284   0.060  0.1467  0.0036  0.2456
 1953SOL    HW1 7598   6.139   9.301   0.070  0.1569 -0.1221  0.5539
 1953SOL    HW2 7599   6.240   9.189   0.060  0.1048 -0.0175 -1.3416
 1954SOL     OW 7600   2.616   7.279   6.210 -0.3427 -0.1359 -0.0692
 1954SOL    HW1 7601   2.578   7.345   6.269 -0.2925  0.0735 -0.2688
 1954SOL    HW2 7602   2.681   7.327   6.160 -0.8978 -0.1436 -0.8159
 1955SOL     OW 7603   0.346   6.986   2.065  0.1631 -0.0055  0.8004
 1955SOL    HW1 7604   0.279   7.039   2.021  1.7944  2.4238  1.0518
 1955SOL    HW2 7605   0.296   6.932   2.126 -1.7106  0.3236 -0.3386
 1956SOL     OW 7606   6.133   6.923   4.615  1.0747 -0.2970  0.5007
 1956SOL    HW1 7607   6.195   6.970   4.559 -0.2955  0.8985 -0.0620
 1956SOL    HW2 7608   6.148   6.960   4.702 -0.5853  1.9356 -0.0732
 1957SOL     OW 7609   4.077   5.026   1.338 -0.0607 -0.2220 -0.6325
 1957SOL    HW1 7610   4.120   4.967   1.401 -1.6414 -1.2895 -0.4683
 1957SOL    HW2 7611   4.036   5.093   1.393 -0.8023 -0.7263 -0.5432
 1958SOL     OW 7612   6.331   3.731   3.389  0.4143  0.3481 -0.1299
 1958SOL    HW1 7613   6.339   3.776   3.305  1.2163 -0.7706 -0.6827
 1958SOL    HW2 7614   6.237   3.726   3.405  0.1408 -0.9168 -1.8193
 1959SOL     OW 7615   0.755   6.784   2.566  0.4426  0.3947 -0.2618
 1959SOL    HW1 7616   0.711   6.798   2.483  1.2823 -0.1302 -0.8131
 1959SOL    HW2 7617   0.848   6.775   2.543  0.6169 -0.3432  0.6585
 1960SOL     OW 7618   6.296   5.233   0.569 -0.2978  0.3492 -0.2444
 1960SOL    HW1 7619   6.316   5.325   0.549  1.5117 -0.2778 -1.4834
 1960SOL    HW2 7620   6.214   5.216   0.521  0.1380  0.9099 -1.2221
 1961SOL     OW 7621   4.043   0.648   6.026 -0.0500 -0.5349  0.0904
 1961SOL    HW1 7622   4.101   0.667   5.952 -1.0722 -0.7064 -0.7850
 1961SOL    HW2 7623   3.960   0.622   5.985 -0.1506 -2.2429  1.2745
 1962SOL     OW 7624   0.321   1.932   2.489 -0.2150  0.4313  0.5807
 1962SOL    HW1 7625   0.329   1.977   2.573  3.1471  1.3224 -0.0633
 1962SOL    HW2 7626   0.361   1.847   2.503 -0.2926  0.3073  0.0709
 1963SOL     OW 7627   9.123   8.643   1.839 -0.3259 -0.2721 -0.3914
 1963SOL    HW1 7628   9.138   8.559   1.797  0.4661  1.6977 -4.5733
 1963SOL    HW2 7629   9.208   8.688   1.834 -1.0176  1.2364  0.6520
 1964SOL     OW 7630   7.054   3.893   5.410 -0.0811  0.6018  0.2352
 1964SOL    HW1 7631   7.070   3.870   5.318  0.4923 -1.3921  0.8035
 1964SOL    HW2 7632   7.123   3.956   5.431  0.1562  0.6072 -0.5287
 1965SOL     OW 7633   0.183   9.264   4.167 -0.5896 -0.1679  0.5899
 1965SOL    HW1 7634   0.182   9.260   4.071 -1.4298 -0.5387  0.6062
 1965SOL    HW2 7635   0.240   9.338   4.188 -2.3910  1.5250 -0.2466
 1966SOL     OW 7636   7.835   1.617   7.745  0.0797  0.5368 -0.5320
 1966SOL    HW1 7637   7.885   1.670   7.684  0.0705  1.6970  0.4308
 1966SOL    HW2 7638   7.752   1.662   7.754  0.0275  0.3104  0.2180
 1967SOL     OW 7639   7.634   2.891   0.996  0.1405 -0.2498 -0.0790
 1967SOL    HW1 7640   7.547   2.904   0.959 -0.8440 -1.0398  1.8145
 1967SOL    HW2 7641   7.689   2.956   0.953 -1.6681  1.1378 -0.4028
 1968SOL     OW 7642   2.216   6.785   2.305 -0.0339  0.2530  0.3896
 1968SOL    HW1 7643   2.213   6.739   2.389  0.8629  0.4113  0.5196
 1968SOL    HW2 7644   2.198   6.718   2.240 -1.4389  0.2617  0.7324
 1969SOL     OW 7645   2.248   9.143   6.158  0.7323  0.5744  0.2482
 1969SOL    HW1 7646   2.192   9.137   6.236  0.0341  0.9408 -0.2205
 1969SOL    HW2 7647   2.328   9.185   6.189  1.4141 -1.3269  1.2754
 1970SOL     OW 7648   0.524   6.505   5.559 -0.2767 -0.1379  0.4425
 1970SOL    HW1 7649   0.501   6.458   5.639 -1.8599  0.7754  0.5731
 1970SOL    HW2 7650   0.522   6.597   5.585 -0.8909  0.1680 -0.6532
 1971SOL     OW 7651   5.695   6.748   3.447  0.3829  0.0937  0.5221
 1971SOL    HW1 7652   5.676   6.829   3.494  0.4281  0.9313 -0.8462
 1971SOL    HW2 7653   5.609   6.717   3.417  0.2246 -1.0367  2.0584
 1972SOL     OW 7654   3.079   0.774   6.752  0.2611  0.5659  0.3261
 1972SOL    HW1 7655   3.165   0.737   6.770 -0.2712 -0.8069  0.1880
 1972SOL    HW2 7656   3.096   0.851   6.698  1.2965 -0.8842 -1.5180
 1973SOL     OW 7657   2.101   6.981   0.266  0.5033  0.4367  0.4455
 1973SOL    HW1 7658   2.009   6.963   0.243  0.1020  1.8154  0.8475
 1973SOL    HW2 7659   2.124   6.912   0.327 -0.3988  0.2612  0.6099
 1974SOL     OW 7660   0.326   5.874   4.665 -0.0133 -0.2190  0.3008
 1974SOL    HW1 7661   0.276   5.944   4.708  0.3362 -0.1501  0.5961
 1974SOL    HW2 7662   0.263   5.834   4.605  0.0291  0.9564 -0.5642
 1975SOL     OW 7663   0.086   6.292   7.248 -0.5981  0.1449 -0.0496
 1975SOL    HW1 7664   0.079   6.280   7.153 -0.3251  0.0883 -0.0636
 1975SOL    HW2 7665   0.179   6.282   7.266 -0.7629 -0.7000  0.3434
 1976SOL     OW 7666   1.313   4.792   3.284  0.2647 -0.4769  0.3843
 1976SOL    HW1 7667   1.337   4.826   3.370 -1.1533  1.8212 -0.0512
 1976SOL    HW2 7668   1.381   4.826   3.225  1.4988 -2.4305  0.5825
 1977SOL     OW 7669   4.367   0.534   5.978  0.0250 -0.1315 -0.3092
 1977SOL    HW1 7670   4.337   0.544   6.068  0.4342  1.3687 -0.3110
 1977SOL    HW2 7671   4.419   0.454   5.978  0.1443 -0.0629  0.8241
 1978SOL     OW 7672   4.758   0.506   3.716 -0.2756 -0.2143  0.9018
 1978SOL    HW1 7673   4.668   0.484   3.739 -0.4863 -0.7164 -0.3271
 1978SOL    HW2 7674   4.782   0.578   3.775 -1.7173  0.4048  0.7534
 1979SOL     OW 7675   4.883   8.368   5.638 -0.1555 -0.3399  0.3678
 1979SOL    HW1 7676   4.941   8.309   5.589  0.6405 -1.0846  2.1541
 1979SOL    HW2 7677   4.937   8.445   5.656 -0.8679  0.5307 -1.0369
 1980SOL     OW 7678   6.842   4.679   9.071 -0.3420  0.2073  0.3447
 1980SOL    HW1 7679   6.748   4.677   9.090 -0.7382  1.3635 -1.2812
 1980SOL    HW2 7680   6.857   4.766   9.035  1.0048 -0.5651 -1.0783
 1981SOL     OW 7681   7.396   5.353   1.425  0.2817 -0.0476 -0.4096
 1981SOL    HW1 7682   7.359   5.288   1.366 -0.4796  0.8913 -0.9937
 1981SOL    HW2 7683   7.470   5.390   1.376  0.1757  0.1397 -0.4262
 1982SOL     OW 7684   2.467   4.574   8.931  0.0712 -0.7341  0.1883
 1982SOL    HW1 7685   2.429   4.499   8.976 -1.9366 -0.5614 -1.1131
 1982SOL    HW2 7686   2.473   4.546   8.839  0.5527  0.2477 -0.0924
 1983SOL     OW 7687   3.459   9.158   3.053  0.7961  0.1930  0.1467
 1983SOL    HW1 7688   3.396   9.098   3.094  0.0918  1.6692  1.3050
 1983SOL    HW2 7689   3.407   9.235   3.029  1.8554  0.7467 -0.4361
 1984SOL     OW 7690   4.921   2.730   9.120 -0.3766 -0.3931  0.0474
 1984SOL    HW1 7691   4.943   2.680   9.198 -0.4033  1.0652  1.0464
 1984SOL    HW2 7692   4.825   2.732   9.119 -0.3804 -0.7461 -0.2481
 1985SOL     OW 7693   3.303   5.878   6.962 -0.5050 -0.2800  0.3647
 1985SOL    HW1 7694   3.370   5.811   6.952 -0.4557 -0.6561  2.6287
 1985SOL    HW2 7695   3.325   5.922   7.044 -2.6459 -0.0095  0.8640
 1986SOL     OW 7696   7.077   3.534   1.973  0.2103  0.1116 -0.4708
 1986SOL    HW1 7697   7.099   3.455   1.924  1.0448  0.7187 -1.0976
 1986SOL    HW2 7698   6.999   3.569   1.929 -0.4853 -0.6390  0.1408
 1987SOL     OW 7699   4.572   8.236   2.415  0.4477 -0.2911 -0.1703
 1987SOL    HW1 7700   4.537   8.189   2.340  3.3401 -0.5631 -1.4664
 1987SOL    HW2 7701   4.664   8.208   2.421  1.1553  2.0377  1.5691
 1988SOL     OW 7702   8.311   0.315   0.886  0.1665 -0.2320  0.0090
 1988SOL    HW1 7703   8.389   0.344   0.933 -1.5548  2.0382  1.7270
 1988SOL    HW2 7704   8.312   0.365   0.804  0.2390  0.2143  0.2790
 1989SOL     OW 7705   1.554   2.960   6.320 -0.3010  0.3633 -0.1289
 1989SOL    HW1 7706   1.545   2.911   6.238  1.3587  1.7597 -1.2283
 1989SOL    HW2 7707   1.549   2.893   6.389  0.0244 -1.1002 -1.4701
 1990SOL     OW 7708   8.529   1.105   1.856  0.5324 -0.0253  0.1715
 1990SOL    HW1 7709   8.535   1.065   1.769 -1.3994 -0.3169  0.1334
 1990SOL    HW2 7710   8.437   1.129   1.865  0.8354  0.6049  1.8807
 1991SOL     OW 7711   9.063   7.923   1.813  1.0204  0.1237 -0.3391
 1991SOL    HW1 7712   9.062   7.843   1.865 -1.9130  0.5591  0.4547
 1991SOL    HW2 7713   9.154   7.932   1.784  2.0004 -2.0213  1.7605
 1992SOL     OW 7714   1.114   7.457   9.022 -0.2074 -0.1366 -0.3918
 1992SOL    HW1 7715   1.079   7.445   9.110 -0.7415  2.6127 -0.1275
 1992SOL    HW2 7716   1.119   7.552   9.011 -1.7962 -0.2892 -3.9434
 1993SOL     OW 7717   6.299   4.752   1.194  0.1114  0.2284  0.7169
 1993SOL    HW1 7718   6.263   4.666   1.173  0.3363 -0.1937  1.9796
 1993SOL    HW2 7719   6.387   4.751   1.157 -0.6251  0.7431 -1.1521
 1994SOL     OW 7720   6.639   2.824   3.393  0.0221 -0.4331  0.1932
 1994SOL    HW1 7721   6.634   2.805   3.300  0.6168  0.3198  0.0035
 1994SOL    HW2 7722   6.603   2.912   3.402 -1.0179 -0.9046  0.8201
 1995SOL     OW 7723   2.220   8.207   4.488 -0.0166  0.4919  0.4035
 1995SOL    HW1 7724   2.157   8.195   4.559 -0.1746 -0.1087  0.1687
 1995SOL    HW2 7725   2.264   8.122   4.481 -1.3374 -0.1051 -1.4925
 1996SOL     OW 7726   2.509   0.621   5.140 -0.1731  0.4804  0.0412
 1996SOL    HW1 7727   2.520   0.638   5.234 -0.1888  0.1034  0.1111
 1996SOL    HW2 7728   2.549   0.697   5.098  1.1140 -0.0145  0.3265
 1997SOL     OW 7729   6.576   3.429   0.348  0.2196 -0.2669  0.7150
 1997SOL    HW1 7730   6.508   3.496   0.347  0.1051 -0.3535 -1.3756
 1997SOL    HW2 7731   6.558   3.375   0.271  2.3593 -0.5775  0.3534
 1998SOL     OW 7732   2.416   1.407   8.265 -0.2586 -0.1336  0.1858
 1998SOL    HW1 7733   2.353   1.395   8.335 -2.4909 -0.7934 -1.7962
 1998SOL    HW2 7734   2.434   1.319   8.233  0.1600  0.2080 -0.5554
 1999SOL     OW 7735   2.647   1.589   7.578 -0.2761 -0.5117  0.0641
 1999SOL    HW1 7736   2.717   1.654   7.585 -0.6833 -0.1894  1.5093
 1999SOL    HW2 7737   2.626   1.566   7.669 -0.7405 -2.0286 -0.3949
 2000SOL     OW 7738   6.707   0.703   5.268  0.0697 -0.5308 -0.0452
 2000SOL    HW1 7739   6.676   0.705   5.358 -1.1564 -0.3625 -0.4589
 2000SOL    HW2 7740   6.707   0.795   5.241  0.0560 -0.6179 -0.3454
 2001SOL     OW 7741   3.534   8.306   5.638 -0.4727 -0.2765 -0.7973
 2001SOL    HW1 7742   3.532   8.333   5.729 -0.8077 -1.5553 -0.3995
 2001SOL    HW2 7743   3.615   8.256   5.629  0.6562  1.6070 -1.7737
 2002SOL     OW 7744   1.208   6.141   4.854  0.0002  0.4489 -0.7791
 2002SOL    HW1 7745   1.283   6.084   4.870 -1.9191 -1.7298  1.1549
 2002SOL    HW2 7746   1.178   6.167   4.941 -0.4213  2.8322 -1.5661
 2003SOL     OW 7747   0.587   9.075   1.939 -0.0198 -0.6301  0.2670
 2003SOL    HW1 7748   0.628   9.025   2.010 -1.7475 -0.1788  1.6583
 2003SOL    HW2 7749   0.539   9.145   1.984  0.6692  1.0749 -1.5136
 2004SOL     OW 7750   6.378   2.394   0.758  0.6213  0.2441  0.1517
 2004SOL    HW1 7751   6.287   2.363   0.753  1.0158 -0.9918  0.4154
 2004SOL    HW2 7752   6.417   2.341   0.827  1.6784  0.4426 -0.2862
 2005SOL     OW 7753   8.446   6.493   8.881 -0.4900  0.3905  0.2138
 2005SOL    HW1 7754   8.514   6.556   8.855 -0.3239  0.3644  0.5825
 2005SOL    HW2 7755   8.389   6.487   8.804  1.1638 -1.2958 -0.9713
 2006SOL     OW 7756   4.268   0.760   2.134  0.0767 -0.8383 -0.2486
 2006SOL    HW1 7757   4.293   0.771   2.226  1.4885 -0.2453 -0.6733
 2006SOL    HW2 7758   4.328   0.817   2.086 -0.5154 -1.2816 -1.5567
 2007SOL     OW 7759   7.000   1.074   9.562  0.1561 -0.3873  0.6567
 2007SOL    HW1 7760   7.017   1.081   9.656  0.9011  1.6062  0.4149
 2007SOL    HW2 7761   6.906   1.053   9.556 -0.7875  2.9950  1.8555
 2008SOL     OW 7762   0.410   7.087   7.318  0.3553 -0.1553  0.6548
 2008SOL    HW1 7763   0.380   7.166   7.363 -1.1904 -1.0967  1.3500
 2008SOL    HW2 7764   0.456   7.037   7.385  2.9650  0.8899 -0.2040
 2009SOL     OW 7765   3.644   8.813   9.237  0.2357 -0.3158  0.1483
 2009SOL    HW1 7766   3.616   8.731   9.277  0.4844  0.0135  1.0370
 2009SOL    HW2 7767   3.616   8.880   9.300 -0.2412  0.3074 -0.7090
 2010SOL     OW 7768   1.862   0.719   2.800  0.4737 -0.7549 -0.2861
 2010SOL    HW1 7769   1.802   0.782   2.839  4.3167  1.5859  2.7072
 2010SOL    HW2 7770   1.853   0.641   2.854 -2.2464 -1.9135 -2.1940
 2011SOL     OW 7771   3.984   3.605   7.645  0.2457 -0.3047  0.4548
 2011SOL    HW1 7772   3.915   3.620   7.582  0.3500  2.1395  0.8244
 2011SOL    HW2 7773   3.949   3.639   7.728  0.9388 -1.3882  1.2167
 2012SOL     OW 7774   6.560   7.677   7.626  0.8479 -0.1859  0.6838
 2012SOL    HW1 7775   6.628   7.611   7.611  2.4264  1.1500  1.5887
 2012SOL    HW2 7776   6.561   7.731   7.548  0.1192 -0.7260  0.2875
 2013SOL     OW 7777   4.217   3.664   2.298  0.0326  0.1078 -0.1800
 2013SOL    HW1 7778   4.265   3.611   2.361 -0.0892  0.8997  0.5915
 2013SOL    HW2 7779   4.125   3.648   2.318 -0.0035  0.6888  0.1212
 2014SOL     OW 7780   6.644   7.783   2.391  0.1581  0.0921 -0.2225
 2014SOL    HW1 7781   6.588   7.834   2.332 -2.3263 -1.5600  0.5553
 2014SOL    HW2 7782   6.652   7.698   2.348  1.1395 -0.0633  0.2510
 2015SOL     OW 7783   7.611   8.388   9.379  0.2700  0.5162 -0.3011
 2015SOL    HW1 7784   7.603   8.414   9.471  0.5918  0.0384 -0.1325
 2015SOL    HW2 7785   7.692   8.338   9.375 -0.6944 -1.1280 -0.4492
 2016SOL     OW 7786   7.211   5.713   3.212 -0.2361 -0.1693  0.2937
 2016SOL    HW1 7787   7.124   5.745   3.187 -0.5683 -1.0850  0.2361
 2016SOL    HW2 7788   7.246   5.673   3.132 -0.2329 -0.7912  0.5938
 2017SOL     OW 7789   6.096   4.006   0.700 -0.0611 -0.1901  0.1368
 2017SOL    HW1 7790   6.017   3.975   0.743  0.2434 -0.3773  0.5690
 2017SOL    HW2 7791   6.080   3.993   0.607 -1.5733  2.0918 -0.0195
 2018SOL     OW 7792   3.440   7.887   5.946  0.1658 -0.1455  0.0098
 2018SOL    HW1 7793   3.518   7.909   5.896 -0.2984 -0.4315 -0.8631
 2018SOL    HW2 7794   3.472   7.873   6.035  1.3138 -1.4635 -0.5644
 2019SOL     OW 7795   3.956   2.885   8.268  0.0946 -0.3292  0.1159
 2019SOL    HW1 7796   4.041   2.843   8.257  0.1584  0.0096 -0.7696
 2019SOL    HW2 7797   3.976   2.973   8.298  0.1505  0.2395 -1.4987
 2020SOL     OW 7798   4.421   4.256   3.253 -0.1156 -0.2294 -0.2356
 2020SOL    HW1 7799   4.486   4.210   3.201 -1.2481 -0.3036 -1.6296
 2020SOL    HW2 7800   4.435   4.349   3.231  0.1702 -0.1503  0.2532
 2021SOL     OW 7801   5.325   2.431   9.145 -0.5042  0.2805  0.2256
 2021SOL    HW1 7802   5.295   2.344   9.173 -1.2648  0.3957 -0.2046
 2021SOL    HW2 7803   5.414   2.416   9.114 -0.6032 -0.3349  0.2188
 2022SOL     OW 7804   5.397   3.372   3.139  0.2827 -0.0941  0.2176
 2022SOL    HW1 7805   5.378   3.448   3.193 -0.5012  0.0868 -0.2966
 2022SOL    HW2 7806   5.318   3.359   3.086  1.1173 -0.0962 -1.0741
 2023SOL     OW 7807   8.338   4.905   3.444 -0.4478 -0.3887 -0.5580
 2023SOL    HW1 7808   8.431   4.924   3.456 -0.0152 -0.8622 -2.8314
 2023SOL    HW2 7809   8.294   4.968   3.501  1.1707  2.0846 -1.8394
 2024SOL     OW 7810   6.231   1.977   5.324  0.0249 -0.0583 -0.2186
 2024SOL    HW1 7811   6.245   1.953   5.415  0.1389  0.5551 -0.0685
 2024SOL    HW2 7812   6.209   2.071   5.327  0.5494  0.0923 -0.8587
 2025SOL     OW 7813   7.228   4.714   9.125 -0.9183 -0.2614 -0.3216
 2025SOL    HW1 7814   7.226   4.649   9.054 -1.7067 -2.6468  1.7598
 2025SOL    HW2 7815   7.145   4.703   9.171 -0.1003  0.6246  1.4669
 2026SOL     OW 7816   8.353   2.375   6.549 -0.1319  0.1044  0.4728
 2026SOL    HW1 7817   8.426   2.315   6.564 -0.7679 -1.1071 -1.0298
 2026SOL    HW2 7818   8.284   2.320   6.513 -1.5832  1.3354  1.2356
 2027SOL     OW 7819   9.222   8.465   4.768 -0.1297 -0.0631  0.1511
 2027SOL    HW1 7820   9.284   8.395   4.747  0.7603  0.6086  0.5096
 2027SOL    HW2 7821   9.220   8.519   4.689  1.4041  1.1240  0.8866
 2028SOL     OW 7822   8.172   3.931   1.273 -0.3264 -0.0178  0.2826
 2028SOL    HW1 7823   8.163   4.026   1.268 -0.0819 -0.0128 -0.1146
 2028SOL    HW2 7824   8.193   3.914   1.365  0.6128  0.4057  0.1633
 2029SOL     OW 7825   7.869   4.025   5.920  0.1829 -0.4911  0.1247
 2029SOL    HW1 7826   7.816   3.955   5.957  0.1958 -0.3033  0.5094
 2029SOL    HW2 7827   7.918   3.984   5.849  1.6453 -1.3599  1.5724
 2030SOL     OW 7828   8.192   8.107   0.339 -0.2954 -0.0426 -0.2123
 2030SOL    HW1 7829   8.105   8.113   0.379 -0.0143  2.7860  0.1659
 2030SOL    HW2 7830   8.240   8.048   0.397 -0.4837  2.4300  2.7475
 2031SOL     OW 7831   9.037   3.245   5.916  0.1923 -0.2162 -0.0375
 2031SOL    HW1 7832   8.960   3.192   5.936  1.8057 -1.9806  1.9130
 2031SOL    HW2 7833   9.094   3.188   5.864  0.7613  0.6136 -0.3590
 2032SOL     OW 7834   4.025   6.526   9.032 -0.5364 -0.1768  0.4602
 2032SOL    HW1 7835   3.952   6.472   9.062  0.8261 -1.9477  0.7515
 2032SOL    HW2 7836   4.101   6.493   9.081  1.0183 -0.4252 -1.9519
 2033SOL     OW 7837   6.625   5.442   6.823 -0.4180  0.0088  0.3617
 2033SOL    HW1 7838   6.580   5.415   6.743 -0.3474  0.1366  0.2770
 2033SOL    HW2 7839   6.555   5.460   6.886 -0.4285 -1.9374  0.9450
 2034SOL     OW 7840   3.131   6.450   2.295  0.1355  0.1818 -0.4713
 2034SOL    HW1 7841   3.155   6.479   2.383  1.3123 -0.1919 -0.6483
 2034SOL    HW2 7842   3.085   6.367   2.308  0.7708 -0.1388 -0.2291
 2035SOL     OW 7843   6.008   6.049   5.192 -0.2239  0.2200 -0.2643
 2035SOL    HW1 7844   6.072   6.118   5.206 -0.1558 -0.0922  1.1320
 2035SOL    HW2 7845   5.932   6.077   5.243 -0.0202 -0.9404  0.7193
 2036SOL     OW 7846   3.890   6.330   1.260 -0.2429 -0.3625 -0.2942
 2036SOL    HW1 7847   3.907   6.380   1.180  1.4794 -0.8560 -0.2698
 2036SOL    HW2 7848   3.815   6.374   1.300 -1.9242 -0.7729 -2.7364
 2037SOL     OW 7849   3.634   2.442   8.465  0.2987 -0.1020  0.1594
 2037SOL    HW1 7850   3.698   2.511   8.448 -1.1941  1.2584 -0.2483
 2037SOL    HW2 7851   3.684   2.371   8.504  1.8755  1.2810  0.7592
 2038SOL     OW 7852   9.461   5.084   0.304 -0.3918  0.4115 -1.3435
 2038SOL    HW1 7853   9.366   5.089   0.315 -0.3640 -0.3157 -0.6554
 2038SOL    HW2 7854   9.482   5.151   0.239 -1.2177  1.4705 -0.5474
 2039SOL     OW 7855   4.995   5.420   4.482 -0.2266  0.7251 -0.2911
 2039SOL    HW1 7856   5.048   5.376   4.414  0.0219  0.4196  0.0916
 2039SOL    HW2 7857   4.983   5.509   4.449 -1.7999  0.0559 -1.6910
 2040SOL     OW 7858   2.500   4.693   9.326  0.3699  0.6451 -0.4684
 2040SOL    HW1 7859   2.432   4.701   9.260  0.4038 -0.2514 -0.6316
 2040SOL    HW2 7860   2.511   4.598   9.337 -0.7310  0.7248  1.9390
 2041SOL     OW 7861   4.138   4.707   7.323 -0.6491  0.1422  0.3282
 2041SOL    HW1 7862   4.188   4.752   7.255 -1.5123  0.7876  0.0986
 2041SOL    HW2 7863   4.051   4.694   7.284 -0.4795 -1.5953  0.4533
 2042SOL     OW 7864   9.536   7.160   1.525 -0.3888  0.2753 -0.0348
 2042SOL    HW1 7865   9.484   7.226   1.570  1.4968  1.3435  0.7311
 2042SOL    HW2 7866   9.516   7.172   1.433 -0.2585  1.8058  0.1053
 2043SOL     OW 7867   6.889   4.325   4.666  0.3914 -0.2071 -1.3466
 2043SOL    HW1 7868   6.815   4.351   4.610  0.7648  1.8991 -0.9391
 2043SOL    HW2 7869   6.849   4.277   4.738 -0.5628  0.6010 -1.3202
 2044SOL     OW 7870   0.847   1.449   3.345 -0.1522  0.7024  0.3946
 2044SOL    HW1 7871   0.931   1.466   3.303 -0.6667  1.2803 -0.4345
 2044SOL    HW2 7872   0.869   1.403   3.426  0.9790  1.1675  0.3640
 2045SOL     OW 7873   2.408   3.504   3.362  0.5973  0.3782 -0.3651
 2045SOL    HW1 7874   2.427   3.471   3.450 -1.4844  0.8313  0.3031
 2045SOL    HW2 7875   2.419   3.427   3.306 -1.2968 -0.8274  0.7747
 2046SOL     OW 7876   0.896   0.423   2.612  0.4957 -0.3616  0.1708
 2046SOL    HW1 7877   0.958   0.354   2.588  1.2470 -0.0083  1.0340
 2046SOL    HW2 7878   0.891   0.479   2.534  1.3399 -0.3459  0.1192
 2047SOL     OW 7879   1.146   4.976   6.877 -0.0615  0.1694 -0.3157
 2047SOL    HW1 7880   1.207   4.936   6.938  1.1694  0.4676 -1.3116
 2047SOL    HW2 7881   1.098   5.040   6.929  0.9915  0.4531  0.3341
 2048SOL     OW 7882   6.702   4.327   6.124  0.2553 -0.0043  0.2613
 2048SOL    HW1 7883   6.716   4.249   6.071  2.0949  0.4524  0.0011
 2048SOL    HW2 7884   6.665   4.391   6.063 -1.4686 -0.7010  0.5286
 2049SOL     OW 7885   9.130   6.639   8.739  0.4524 -0.0506 -0.2274
 2049SOL    HW1 7886   9.106   6.731   8.750  2.1082  0.4603 -0.5393
 2049SOL    HW2 7887   9.052   6.597   8.703 -1.6345  0.4108  3.2789
 2050SOL     OW 7888   0.745   1.157   0.324  0.2237 -0.1876  0.3521
 2050SOL    HW1 7889   0.725   1.251   0.332 -0.8895 -0.0529 -2.5911
 2050SOL    HW2 7890   0.837   1.150   0.351  0.3522  1.7643  0.5956
 2051SOL     OW 7891   3.764   8.853   2.259  0.3359 -0.1642 -0.1131
 2051SOL    HW1 7892   3.714   8.830   2.181  1.1567  0.6935 -0.9203
 2051SOL    HW2 7893   3.755   8.948   2.268  2.8845  0.2496 -1.1098
 2052SOL     OW 7894   0.643   4.470   9.399 -0.3005  0.9593 -0.6519
 2052SOL    HW1 7895   0.639   4.375   9.391  0.8727  0.9065 -0.8940
 2052SOL    HW2 7896   0.561   4.501   9.361 -1.1264  0.0109  0.2934
 2053SOL     OW 7897   1.000   4.973   0.522 -0.3271  0.6420  0.3819
 2053SOL    HW1 7898   1.000   4.877   0.517  2.3546  0.6756 -2.0191
 2053SOL    HW2 7899   1.079   4.995   0.572 -0.1427  1.6129 -0.3069
 2054SOL     OW 7900   3.435   0.574   2.550 -0.2729 -0.6264  0.3797
 2054SOL    HW1 7901   3.350   0.612   2.571 -0.5404 -1.7004  1.3504
 2054SOL    HW2 7902   3.497   0.644   2.566 -0.9547  0.1117 -0.1473
 2055SOL     OW 7903   5.580   8.448   0.719  0.1009  0.1964  0.3421
 2055SOL    HW1 7904   5.575   8.480   0.810  0.3402 -3.2707  1.7359
 2055SOL    HW2 7905   5.497   8.475   0.680 -0.7932  0.2644  2.1868
 2056SOL     OW 7906   2.131   0.199   4.159  0.4444 -1.0322 -0.6101
 2056SOL    HW1 7907   2.194   0.254   4.113  0.8729 -2.3649 -1.6969
 2056SOL    HW2 7908   2.066   0.176   4.093 -1.5405  0.7471  0.6114
 2057SOL     OW 7909   5.264   4.897   5.909  0.3648  0.1226 -0.2774
 2057SOL    HW1 7910   5.184   4.921   5.862 -0.0209 -2.0060 -0.8204
 2057SOL    HW2 7911   5.245   4.811   5.947  1.8711  0.2658  0.9098
 2058SOL     OW 7912   6.939   5.477   5.130  0.1018 -0.3052 -0.0958
 2058SOL    HW1 7913   6.945   5.531   5.209 -2.9625 -1.6780  1.2524
 2058SOL    HW2 7914   6.893   5.532   5.067  0.6824  0.0574 -0.2148
 2059SOL     OW 7915   1.243   3.940   5.969 -0.0730  0.2780  0.6066
 2059SOL    HW1 7916   1.326   3.973   5.934 -0.4459  1.5772  0.8866
 2059SOL    HW2 7917   1.205   4.015   6.015 -0.9693 -0.5637  1.2750
 2060SOL     OW 7918   3.129   0.975   3.513  0.0012 -0.1730 -0.3210
 2060SOL    HW1 7919   3.082   0.922   3.578 -1.5378  0.3947 -0.9295
 2060SOL    HW2 7920   3.180   0.911   3.462 -0.0108 -0.7901  0.4198
 2061SOL     OW 7921   8.416   0.004   4.913  0.0402 -0.3847 -0.2637
 2061SOL    HW1 7922   8.507   0.011   4.883  0.1455  0.3795  0.2075
 2061SOL    HW2 7923   8.398   0.089   4.954 -1.5595  0.2846 -2.2003
 2062SOL     OW 7924   3.486   8.234   3.913  0.4405  0.1506  0.2690
 2062SOL    HW1 7925   3.445   8.319   3.896  0.3256  0.0926  0.2591
 2062SOL    HW2 7926   3.441   8.200   3.989 -0.6986 -0.6770 -0.7478
 2063SOL     OW 7927   8.926   6.978   4.164  0.1629  0.3499  0.0228
 2063SOL    HW1 7928   8.891   7.038   4.098 -1.3657  0.2164  0.6864
 2063SOL    HW2 7929   9.021   6.994   4.162  0.3656 -0.4757 -3.0430
 2064SOL     OW 7930   8.526   7.502   6.539 -0.0793  0.3029  0.6652
 2064SOL    HW1 7931   8.485   7.558   6.605 -1.2612 -0.4024  0.5699
 2064SOL    HW2 7932   8.465   7.504   6.465  0.5162 -0.0502  0.1567
 2065SOL     OW 7933   2.270   4.617   1.680 -0.4857 -0.1658  0.5673
 2065SOL    HW1 7934   2.180   4.644   1.697 -1.0547 -1.6172  0.0689
 2065SOL    HW2 7935   2.266   4.521   1.676  0.8907 -0.2165 -0.4615
 2066SOL     OW 7936   3.366   7.202   2.322  0.2070  0.1744 -0.1441
 2066SOL    HW1 7937   3.309   7.133   2.355  1.2334 -1.4307 -1.5828
 2066SOL    HW2 7938   3.323   7.283   2.348 -2.6196 -0.9453 -0.9774
 2067SOL     OW 7939   6.495   8.190   0.523 -0.8336 -0.3708 -0.2900
 2067SOL    HW1 7940   6.464   8.280   0.512 -0.1416 -0.0922 -0.0481
 2067SOL    HW2 7941   6.467   8.166   0.611  0.4906  0.2469  0.3232
 2068SOL     OW 7942   6.828   0.875   4.101 -0.2275  0.1497  0.2710
 2068SOL    HW1 7943   6.846   0.857   4.009  0.3407  0.5724  0.2968
 2068SOL    HW2 7944   6.771   0.953   4.099  0.0901  0.3832  0.2902
 2069SOL     OW 7945   8.088   1.351   8.555  0.2201 -0.4227  0.1366
 2069SOL    HW1 7946   8.052   1.303   8.480  1.7561  1.5852 -1.9893
 2069SOL    HW2 7947   8.168   1.303   8.578  1.5698  0.7866 -1.7640
 2070SOL     OW 7948   5.920   1.521   3.076  0.1556 -0.5343  0.0570
 2070SOL    HW1 7949   6.015   1.531   3.081  0.2567 -0.8880 -1.0040
 2070SOL    HW2 7950   5.886   1.594   3.128  0.9777  1.0558 -1.5496
 2071SOL     OW 7951   2.841   8.661   2.183  0.0741 -0.3193 -0.3595
 2071SOL    HW1 7952   2.915   8.715   2.154 -1.1404  2.1774  0.9126
 2071SOL    HW2 7953   2.765   8.718   2.175 -1.2699 -1.7592  1.3249
 2072SOL     OW 7954   7.706   0.163   1.368  0.5659  0.1055  0.1190
 2072SOL    HW1 7955   7.728   0.098   1.301 -1.2532 -0.0700 -0.3733
 2072SOL    HW2 7956   7.623   0.132   1.404 -0.0859  1.8658  0.2307
 2073SOL     OW 7957   6.075   6.051   4.568  0.2332 -0.3439 -0.0031
 2073SOL    HW1 7958   6.056   5.982   4.632 -0.9527  0.7010  0.7975
 2073SOL    HW2 7959   6.170   6.049   4.559  0.2899 -1.5280  0.6343
 2074SOL     OW 7960   9.147   6.855   3.851  0.1961 -0.2368  0.5220
 2074SOL    HW1 7961   9.191   6.906   3.783 -1.1726  2.1743  1.3289
 2074SOL    HW2 7962   9.186   6.768   3.844  0.5397  0.0545 -2.9043
 2075SOL     OW 7963   5.460   3.965   5.284 -0.5135 -0.2531 -0.4226
 2075SOL    HW1 7964   5.403   4.021   5.337 -0.6273 -0.4327 -0.3561
 2075SOL    HW2 7965   5.400   3.921   5.223 -0.4740 -0.6066 -0.2078
 2076SOL     OW 7966   6.283   0.203   0.742 -0.3828 -0.2112  0.0274
 2076SOL    HW1 7967   6.192   0.193   0.768 -0.2184  1.3283  1.3445
 2076SOL    HW2 7968   6.332   0.153   0.807 -0.1825  0.7409  0.6281
 2077SOL     OW 7969   3.566   1.716   2.935 -0.3303 -0.8813  0.2878
 2077SOL    HW1 7970   3.481   1.673   2.926 -1.2958  0.9851 -0.0260
 2077SOL    HW2 7971   3.572   1.773   2.857  0.0772  0.8507  1.5270
 2078SOL     OW 7972   7.629   3.844   3.453 -0.0379 -0.4190 -0.0489
 2078SOL    HW1 7973   7.560   3.857   3.388 -0.2770  2.9213  0.7085
 2078SOL    HW2 7974   7.707   3.885   3.414  0.5228 -0.7583  0.6874
 2079SOL     OW 7975   4.319   6.666   4.067  0.3402  0.2450  0.0386
 2079SOL    HW1 7976   4.370   6.585   4.055  0.7927  0.5348 -0.0226
 2079SOL    HW2 7977   4.368   6.732   4.017 -0.7972  0.2584 -1.1010
 2080SOL     OW 7978   4.940   7.044   9.010 -0.2474  0.4693 -0.2875
 2080SOL    HW1 7979   5.021   7.062   8.962  1.2885 -1.0190  1.5480
 2080SOL    HW2 7980   4.899   6.972   8.962  1.7473 -1.6545  0.9405
 2081SOL     OW 7981   2.325   6.006   7.265 -0.2642  0.2517 -0.1372
 2081SOL    HW1 7982   2.285   5.920   7.264  0.1147  0.0681  0.1535
 2081SOL    HW2 7983   2.268   6.059   7.321  0.4459 -0.2811  1.1147
 2082SOL     OW 7984   5.363   7.007   5.077  1.0918  0.2791 -0.6757
 2082SOL    HW1 7985   5.386   7.085   5.126  3.2170 -0.7851  0.1489
 2082SOL    HW2 7986   5.447   6.965   5.057  0.0160 -2.4676  0.1007
 2083SOL     OW 7987   1.254   2.213   4.689 -0.8737 -0.1424 -0.2251
 2083SOL    HW1 7988   1.266   2.266   4.611 -1.0371  0.3333  0.0700
 2083SOL    HW2 7989   1.251   2.123   4.657 -0.8724  0.0467 -0.7562
 2084SOL     OW 7990   4.532   8.838   4.991  0.4211  0.0967 -0.0963
 2084SOL    HW1 7991   4.454   8.884   4.962 -0.4241 -1.3471 -0.2147
 2084SOL    HW2 7992   4.585   8.905   5.034 -1.6413  0.7905  1.5383
 2085SOL     OW 7993   7.165   0.805   1.862 -0.4376  0.6839  0.4354
 2085SOL    HW1 7994   7.228   0.872   1.834 -0.3675 -0.0765 -1.3442
 2085SOL    HW2 7995   7.219   0.734   1.895 -0.4272  0.6333  0.3087
 2086SOL     OW 7996   0.857   4.469   3.315 -0.2463  0.2138  0.8091
 2086SOL    HW1 7997   0.871   4.378   3.287  0.7222  0.4942  0.3418
 2086SOL    HW2 7998   0.782   4.464   3.374 -0.0768 -0.9249  0.9640
 2087SOL     OW 7999   9.491   3.833   7.191  0.0303  0.0805  0.1280
 2087SOL    HW1 8000   9.420   3.898   7.188 -0.9805 -0.7873  2.6140
 2087SOL    HW2 8001   9.450   3.752   7.160  0.7362  0.1493 -1.0360
 2088SOL     OW 8002   7.528   3.144   2.376 -0.2827  0.5179 -0.1391
 2088SOL    HW1 8003   7.464   3.073   2.367  0.3190  0.1428 -1.6748
 2088SOL    HW2 8004   7.493   3.215   2.321  0.3298  0.5186 -0.5328
 2089SOL     OW 8005   5.455   1.320   0.023 -0.6467 -0.4400 -0.2057
 2089SOL    HW1 8006   5.389   1.325  -0.046  0.3080 -1.5992 -1.2487
 2089SOL    HW2 8007   5.514   1.393   0.006 -1.1570  0.0812  0.2140
 2090SOL     OW 8008   7.506   5.241   5.511  0.1855  0.2814  0.5811
 2090SOL    HW1 8009   7.492   5.331   5.482  1.3953  0.7852  1.4729
 2090SOL    HW2 8010   7.424   5.217   5.555 -0.3110  0.7685 -0.0486
 2091SOL     OW 8011   6.806   6.726   0.016  0.0895  0.4041 -0.4747
 2091SOL    HW1 8012   6.768   6.755   0.099  0.2649 -0.4216 -0.1002
 2091SOL    HW2 8013   6.784   6.633   0.010  1.9941 -0.1056 -0.2543
 2092SOL     OW 8014   3.482   3.722   8.465  0.1559  0.0708  0.7972
 2092SOL    HW1 8015   3.505   3.678   8.383  0.2472  0.8486  0.3961
 2092SOL    HW2 8016   3.411   3.669   8.501 -0.9564  0.5625 -0.5558
 2093SOL     OW 8017   4.262   4.797   8.470  0.2481 -0.0846  0.3735
 2093SOL    HW1 8018   4.192   4.811   8.407 -0.6745 -1.7503  0.9569
 2093SOL    HW2 8019   4.333   4.757   8.420  0.3898  0.6260 -0.0096
 2094SOL     OW 8020   2.544   4.065   9.138  0.1619 -0.0653 -0.1325
 2094SOL    HW1 8021   2.514   4.004   9.206 -0.3889 -1.6989 -1.7797
 2094SOL    HW2 8022   2.635   4.085   9.163 -0.3680  0.2581  1.6661
 2095SOL     OW 8023   3.196   1.847   7.542 -0.1304 -0.0567 -0.2149
 2095SOL    HW1 8024   3.219   1.922   7.598  0.8948 -0.3330 -0.2562
 2095SOL    HW2 8025   3.140   1.793   7.598  1.5845 -0.7658  0.8780
 2096SOL     OW 8026   7.896   7.783   7.998 -0.0819  0.1354  0.4960
 2096SOL    HW1 8027   7.858   7.719   7.939  0.6137  1.8292 -1.9426
 2096SOL    HW2 8028   7.938   7.731   8.067 -1.5950 -1.8891 -0.0454
 2097SOL     OW 8029   6.187   2.005   4.588  0.8516 -0.4100 -0.2101
 2097SOL    HW1 8030   6.202   2.068   4.517  0.6267  0.2201  0.2979
 2097SOL    HW2 8031   6.095   1.980   4.578  0.9584 -0.7200 -0.4532
 2098SOL     OW 8032   8.909   5.482   1.528  0.2313 -0.6465 -0.0449
 2098SOL    HW1 8033   8.955   5.512   1.450  1.3905 -1.5002  0.2875
 2098SOL    HW2 8034   8.905   5.560   1.584 -1.2184  0.1573 -1.1951
 2099SOL     OW 8035   4.240   0.659   7.315 -0.0643 -0.4983 -0.2981
 2099SOL    HW1 8036   4.210   0.724   7.378  0.3262 -1.1731  0.6016
 2099SOL    HW2 8037   4.304   0.705   7.261 -0.0530 -0.0404  0.1018
 2100SOL     OW 8038   7.342   0.495   5.410  0.7468  0.3524  0.1934
 2100SOL    HW1 8039   7.417   0.543   5.445  2.5139 -0.1125 -2.6254
 2100SOL    HW2 8040   7.296   0.558   5.355  1.6238 -0.4034 -1.4988
 2101SOL     OW 8041   9.398   3.131   1.094 -0.4708 -0.0096 -0.5513
 2101SOL    HW1 8042   9.363   3.203   1.041  0.3037  0.1007 -0.9210
 2101SOL    HW2 8043   9.321   3.077   1.114 -0.5727 -1.0189 -3.2434
 2102SOL     OW 8044   7.307   7.653   9.486  0.2155 -0.2072  0.1708
 2102SOL    HW1 8045   7.325   7.706   9.564 -0.6383  0.3348  0.0095
 2102SOL    HW2 8046   7.244   7.704   9.436 -0.9279 -1.5424  0.1919
 2103SOL     OW 8047   4.236   0.689   8.662 -0.9739  0.1595  0.3987
 2103SOL    HW1 8048   4.257   0.752   8.593 -0.3923 -0.7685 -0.2888
 2103SOL    HW2 8049   4.222   0.606   8.616  1.1826 -0.9070  1.5093
 2104SOL     OW 8050   0.797   5.245   5.428  0.2780 -0.2061  0.2114
 2104SOL    HW1 8051   0.778   5.165   5.477  0.3091  1.0852  2.4634
 2104SOL    HW2 8052   0.745   5.237   5.348 -2.4084 -1.0027  1.8948
 2105SOL     OW 8053   4.994   9.208   1.581  0.5344  0.3097  0.3072
 2105SOL    HW1 8054   5.063   9.149   1.551 -0.8737 -1.4323  0.2932
 2105SOL    HW2 8055   4.967   9.172   1.665 -0.7151  0.6129  0.0567
 2106SOL     OW 8056   9.165   9.242   6.986  0.1796  0.2683  0.6895
 2106SOL    HW1 8057   9.197   9.183   7.054 -0.7928  1.2893  2.0891
 2106SOL    HW2 8058   9.206   9.210   6.906  2.8395  0.1214  1.9917
 2107SOL     OW 8059   2.566   6.837   5.575  0.4627 -0.1909 -0.0063
 2107SOL    HW1 8060   2.486   6.862   5.622  0.6292 -0.4697  0.4391
 2107SOL    HW2 8061   2.627   6.812   5.645  0.0209 -2.6895 -0.4386
 2108SOL     OW 8062   0.411   7.614   1.810 -0.0451 -0.0587  0.4859
 2108SOL    HW1 8063   0.459   7.553   1.755 -0.3923 -1.7431  1.9754
 2108SOL    HW2 8064   0.473   7.640   1.878  0.3909  2.0349 -0.6066
 2109SOL     OW 8065   9.458   8.218   9.225  0.5676  0.5472  0.1856
 2109SOL    HW1 8066   9.426   8.257   9.144  1.0658 -0.1036 -0.3393
 2109SOL    HW2 8067   9.553   8.232   9.221  0.7158 -0.4365  0.1339
 2110SOL     OW 8068   3.413   3.660   1.878  0.5733  0.1970 -0.2913
 2110SOL    HW1 8069   3.363   3.653   1.959  2.3953 -0.2005  0.8681
 2110SOL    HW2 8070   3.418   3.570   1.845  0.3004  0.2726 -0.5338
 2111SOL     OW 8071   3.202   8.028   0.045  0.4786 -0.2723  0.1439
 2111SOL    HW1 8072   3.285   8.062   0.078 -0.2558  0.0780  1.6726
 2111SOL    HW2 8073   3.155   8.105   0.013 -0.3688 -0.0695  1.8011
 2112SOL     OW 8074   0.548   3.899   8.377  0.0782  0.1410  0.4998
 2112SOL    HW1 8075   0.641   3.912   8.396  0.4802 -1.7745 -0.0097
 2112SOL    HW2 8076   0.537   3.939   8.290  0.4336  0.2882  0.5165
 2113SOL     OW 8077   3.376   8.509   3.924  0.0463 -0.3649 -0.0376
 2113SOL    HW1 8078   3.413   8.549   4.003 -1.1969  0.5904  0.0840
 2113SOL    HW2 8079   3.352   8.583   3.868 -0.1311 -1.0042 -0.8227
 2114SOL     OW 8080   8.623   1.383   4.306  0.5217  0.6331 -0.0835
 2114SOL    HW1 8081   8.565   1.324   4.354  0.5608  1.1169  0.5669
 2114SOL    HW2 8082   8.613   1.468   4.349 -1.7300  1.8754 -2.7176
 2115SOL     OW 8083   0.156   9.387   5.575  0.1842  0.5331 -0.3778
 2115SOL    HW1 8084   0.231   9.363   5.630 -0.1795  1.0647  0.3766
 2115SOL    HW2 8085   0.142   9.480   5.593 -1.9418 -0.0131  1.1383
 2116SOL     OW 8086   4.636   8.140   0.699  0.4506  0.1242  0.3544
 2116SOL    HW1 8087   4.712   8.193   0.674 -0.3651  1.3144  0.3773
 2116SOL    HW2 8088   4.562   8.182   0.658 -0.2528 -0.8736  0.5651
 2117SOL     OW 8089   6.201   8.371   3.852  0.2779  0.3902  0.0215
 2117SOL    HW1 8090   6.270   8.386   3.917 -0.4763 -1.1040  1.2451
 2117SOL    HW2 8091   6.237   8.303   3.795  0.8060  1.4663 -0.9777
 2118SOL     OW 8092   8.355   4.364   9.540  0.5106 -0.0527  0.1869
 2118SOL    HW1 8093   8.372   4.383   9.447  2.2509  2.2945  0.8813
 2118SOL    HW2 8094   8.434   4.318   9.569  0.1083 -0.4914  0.5835
 2119SOL     OW 8095   2.521   9.528   3.100  0.4892  0.4776  0.0322
 2119SOL    HW1 8096   2.574   9.593   3.054  0.2593  0.0628 -0.8472
 2119SOL    HW2 8097   2.572   9.507   3.178  0.7775  1.3756  0.0984
 2120SOL     OW 8098   8.072   0.091   5.078 -0.2425 -0.6164  0.6805
 2120SOL    HW1 8099   8.155   0.078   5.124 -0.2078  1.0538  1.1831
 2120SOL    HW2 8100   8.095   0.094   4.986  0.2504 -0.3540  0.8061
 2121SOL     OW 8101   7.664   1.388   6.982  0.0758  0.2342  0.0960
 2121SOL    HW1 8102   7.598   1.442   7.024 -1.3480 -1.1641 -0.2513
 2121SOL    HW2 8103   7.619   1.349   6.907  0.7112 -2.1458  0.8568
 2122SOL     OW 8104   0.037   0.936   4.441 -0.5075  0.0592 -0.0312
 2122SOL    HW1 8105   0.085   0.865   4.483 -0.3493 -0.7640 -1.5182
 2122SOL    HW2 8106  -0.054   0.922   4.466 -0.4633 -0.6189 -0.2398
 2123SOL     OW 8107   2.295   2.616   3.957  0.2480  0.1673  0.1058
 2123SOL    HW1 8108   2.277   2.569   3.876  1.9071  2.9776 -2.1011
 2123SOL    HW2 8109   2.228   2.685   3.960  1.4831  1.4176 -0.1105
 2124SOL     OW 8110   7.262   4.973   2.724 -0.6133 -0.2812  0.1729
 2124SOL    HW1 8111   7.233   4.882   2.725 -1.6753 -0.0576 -2.0263
 2124SOL    HW2 8112   7.180   5.024   2.723 -0.0630  0.6208 -0.2541
 2125SOL     OW 8113   6.375   1.153   7.376  1.1390 -0.1441 -0.7247
 2125SOL    HW1 8114   6.291   1.106   7.372  0.1354  1.5735 -0.8379
 2125SOL    HW2 8115   6.394   1.177   7.286  0.8154  1.0169 -0.5000
 2126SOL     OW 8116   9.158   0.907   6.100  0.0213 -0.3726 -0.0521
 2126SOL    HW1 8117   9.130   0.988   6.142 -1.9570 -0.5952 -0.8243
 2126SOL    HW2 8118   9.210   0.862   6.166  1.2114  1.5178  0.3753
 2127SOL     OW 8119   4.414   2.770   5.656 -0.4590  0.1283  0.1889
 2127SOL    HW1 8120   4.472   2.820   5.714  0.2368  1.0158 -1.2219
 2127SOL    HW2 8121   4.448   2.680   5.660 -0.0827  0.2935  0.7270
 2128SOL     OW 8122   7.860   1.009   5.808 -0.2474  0.0097 -0.0619
 2128SOL    HW1 8123   7.870   1.043   5.897  0.4960 -0.8807  0.2157
 2128SOL    HW2 8124   7.807   1.074   5.763  0.8126  1.3403  0.5533
 2129SOL     OW 8125   0.793   5.316   8.669 -0.3216  0.2243 -0.5928
 2129SOL    HW1 8126   0.790   5.336   8.575 -1.7676 -2.0963 -1.1446
 2129SOL    HW2 8127   0.779   5.221   8.673  1.6581 -0.0547  1.9017
 2130SOL     OW 8128   0.646   1.510   5.042  0.5936 -0.2053  0.2027
 2130SOL    HW1 8129   0.728   1.546   5.076  0.2692 -0.6483  1.4947
 2130SOL    HW2 8130   0.601   1.475   5.119 -0.2506 -1.0813 -0.6595
 2131SOL     OW 8131   3.875   0.198   8.608  0.0150  0.6557  0.4914
 2131SOL    HW1 8132   3.933   0.273   8.623 -0.6041  0.8566  2.1061
 2131SOL    HW2 8133   3.794   0.220   8.654 -0.3732 -0.7736  0.5540
 2132SOL     OW 8134   1.341   9.495   9.008 -0.0069  0.2909  0.2822
 2132SOL    HW1 8135   1.435   9.483   8.989  0.1577  2.4091 -0.5777
 2132SOL    HW2 8136   1.313   9.561   8.944 -1.9443  0.1656  0.9554
 2133SOL     OW 8137   3.875   6.912   0.844 -0.5584 -0.2633  0.4855
 2133SOL    HW1 8138   3.867   6.951   0.757 -0.8763  0.8194  0.9737
 2133SOL    HW2 8139   3.785   6.913   0.878 -0.3641 -0.2651  1.0007
 2134SOL     OW 8140   1.968   2.259   9.560 -0.9616 -0.4122 -0.1880
 2134SOL    HW1 8141   1.932   2.283   9.646  0.4132  0.4380  0.1837
 2134SOL    HW2 8142   1.975   2.342   9.513  0.1125 -0.6044 -0.3888
 2135SOL     OW 8143   4.178   4.699   8.710 -0.2211  0.2789  0.3953
 2135SOL    HW1 8144   4.158   4.606   8.703  0.1615  0.2627 -0.8130
 2135SOL    HW2 8145   4.208   4.723   8.622 -0.9372  1.6928  0.5130
 2136SOL     OW 8146   2.857   7.233   8.586 -0.4225 -0.8137  0.4400
 2136SOL    HW1 8147   2.923   7.165   8.595  0.0963 -0.4599 -0.6170
 2136SOL    HW2 8148   2.873   7.292   8.660 -0.4741 -1.4822  0.9961
 2137SOL     OW 8149   5.127   5.408   9.355  0.6610 -0.0624 -0.1499
 2137SOL    HW1 8150   5.145   5.314   9.354 -2.5687 -0.7841  0.5903
 2137SOL    HW2 8151   5.081   5.424   9.273 -0.0599  0.5779  0.3702
 2138SOL     OW 8152   7.924   1.698   5.367  0.0634  0.1453  0.2649
 2138SOL    HW1 8153   7.830   1.687   5.361 -0.0599  0.5537  1.2939
 2138SOL    HW2 8154   7.937   1.792   5.377  0.4268 -0.0766  2.2507
 2139SOL     OW 8155   2.439   6.600   5.893  0.6382  0.1074 -0.4066
 2139SOL    HW1 8156   2.445   6.637   5.981  2.3226 -0.9083 -0.0514
 2139SOL    HW2 8157   2.392   6.667   5.843  0.4973  1.1379  1.0137
 2140SOL     OW 8158   8.835   6.178   1.940  0.1856  0.2859  0.2862
 2140SOL    HW1 8159   8.851   6.126   1.862 -2.2871 -0.2218  0.0171
 2140SOL    HW2 8160   8.891   6.140   2.007 -1.6035 -2.9100  0.1432
 2141SOL     OW 8161   2.823   2.843   8.319  0.1871 -0.0332 -1.3009
 2141SOL    HW1 8162   2.900   2.803   8.278  0.2483  1.6628 -2.9905
 2141SOL    HW2 8163   2.755   2.777   8.312  1.2431 -1.2563 -0.5247
 2142SOL     OW 8164   1.889   5.804   1.334  0.0897  0.1745  0.6218
 2142SOL    HW1 8165   1.871   5.887   1.289 -0.8846 -0.0158  0.6491
 2142SOL    HW2 8166   1.823   5.743   1.301  1.1276 -0.7567  0.2079
 2143SOL     OW 8167   7.630   6.378   6.524  0.1437  0.0706 -0.2792
 2143SOL    HW1 8168   7.573   6.434   6.472 -1.2941 -1.3099 -0.2437
 2143SOL    HW2 8169   7.589   6.375   6.610  2.0631  1.6726  0.7877
 2144SOL     OW 8170   8.800   7.494   4.766 -0.6342 -0.2242 -0.2267
 2144SOL    HW1 8171   8.717   7.454   4.742 -1.6736  0.4064  2.0116
 2144SOL    HW2 8172   8.809   7.475   4.860  1.7540 -0.2518 -0.3891
 2145SOL     OW 8173   6.439   7.944   7.722 -0.0912  0.4381 -0.0582
 2145SOL    HW1 8174   6.446   7.850   7.736  2.5433  0.5108 -0.3352
 2145SOL    HW2 8175   6.402   7.978   7.803 -0.3737 -0.7479  0.3339
 2146SOL     OW 8176   1.536   7.513   3.650  0.7218  0.0471  0.1477
 2146SOL    HW1 8177   1.578   7.546   3.729  0.9566 -0.2414  0.1455
 2146SOL    HW2 8178   1.456   7.564   3.642  0.6719  0.0409  0.6004
 2147SOL     OW 8179   5.344   0.749   3.027  0.4728  0.0082  0.0358
 2147SOL    HW1 8180   5.366   0.730   2.936 -0.4665  2.3889 -0.7595
 2147SOL    HW2 8181   5.285   0.679   3.053 -1.3743  0.6705 -2.0899
 2148SOL     OW 8182   6.713   3.095   5.151  0.0382  0.6517  0.1986
 2148SOL    HW1 8183   6.706   3.075   5.057 -0.2916  1.1817  0.1028
 2148SOL    HW2 8184   6.773   3.029   5.186 -0.1439  0.2097 -0.3137
 2149SOL     OW 8185   9.355   8.392   7.304  0.8690 -0.8375 -0.1149
 2149SOL    HW1 8186   9.273   8.399   7.254  1.0028  2.1807 -0.1200
 2149SOL    HW2 8187   9.421   8.373   7.238  0.8681  1.9531 -1.0651
 2150SOL     OW 8188   1.184   8.637   5.036 -0.6479 -0.5628 -0.0642
 2150SOL    HW1 8189   1.209   8.573   4.969 -0.4227 -0.9943  0.4150
 2150SOL    HW2 8190   1.093   8.658   5.016 -0.0748  0.6562 -1.5420
 2151SOL     OW 8191   6.027   6.235   3.206 -0.2573 -0.0477  0.2721
 2151SOL    HW1 8192   6.086   6.166   3.237 -0.7228 -0.7958 -0.4718
 2151SOL    HW2 8193   5.939   6.199   3.221 -0.5217 -0.5273 -1.9898
 2152SOL     OW 8194   0.357   2.958   3.728  0.1810  0.0924 -0.3162
 2152SOL    HW1 8195   0.313   2.887   3.775  0.3490  0.6085  0.6701
 2152SOL    HW2 8196   0.412   2.914   3.664 -1.2617 -0.5895 -1.1349
 2153SOL     OW 8197   5.291   2.236   3.156  0.2901 -0.1563  0.0928
 2153SOL    HW1 8198   5.262   2.219   3.067  1.7518 -3.6580  0.1355
 2153SOL    HW2 8199   5.241   2.175   3.210 -0.0013  1.3564  1.6288
 2154SOL     OW 8200   2.375   1.923   0.482 -0.3905 -0.3964  0.0356
 2154SOL    HW1 8201   2.323   1.987   0.434  1.9650  1.1001 -0.6774
 2154SOL    HW2 8202   2.378   1.846   0.425 -1.2367 -0.2538 -0.2078
 2155SOL     OW 8203   1.543   4.839   1.623  0.2990 -0.4161 -0.2275
 2155SOL    HW1 8204   1.450   4.843   1.643 -0.3402  2.5912 -2.9203
 2155SOL    HW2 8205   1.546   4.829   1.527  2.7658 -0.8767 -0.1615
 2156SOL     OW 8206   4.183   1.360   4.859  0.0304 -0.4594  0.0530
 2156SOL    HW1 8207   4.217   1.289   4.804  0.0347  0.5354 -1.2763
 2156SOL    HW2 8208   4.126   1.411   4.801  0.8242  1.2139  0.6650
 2157SOL     OW 8209   2.107   4.557   8.836  0.4375  0.2438 -0.5693
 2157SOL    HW1 8210   2.094   4.651   8.828  2.4631  0.6254  0.0998
 2157SOL    HW2 8211   2.093   4.538   8.929 -1.7984 -0.4890 -0.9899
 2158SOL     OW 8212   6.635   8.295   5.222  0.0994  0.4562 -0.1494
 2158SOL    HW1 8213   6.705   8.259   5.169 -0.7836 -0.5054 -0.6941
 2158SOL    HW2 8214   6.559   8.297   5.164 -0.2480  1.8394  0.3095
 2159SOL     OW 8215   6.218   7.313   5.241  0.5737 -0.2235  0.4053
 2159SOL    HW1 8216   6.238   7.224   5.269  1.5563  0.1200  0.8667
 2159SOL    HW2 8217   6.297   7.363   5.264 -0.0627  0.8084  0.3955
 2160SOL     OW 8218   4.240   9.519   4.721  0.5659 -0.7826 -0.0177
 2160SOL    HW1 8219   4.149   9.543   4.736  0.9021  1.1857 -0.8633
 2160SOL    HW2 8220   4.255   9.446   4.781 -0.8893  0.3753  1.8732
 2161SOL     OW 8221   3.122   5.212   4.746  0.0553 -0.0460 -0.2181
 2161SOL    HW1 8222   3.050   5.151   4.732 -1.0469  0.4909  2.5226
 2161SOL    HW2 8223   3.105   5.250   4.832  3.2272  0.6829  0.2017
 2162SOL     OW 8224   7.092   4.001   0.336  0.1319 -0.0828  0.0123
 2162SOL    HW1 8225   7.067   4.074   0.280 -0.2187 -1.8562 -2.2736
 2162SOL    HW2 8226   7.034   4.008   0.412 -0.9090  1.1738 -0.8591
 2163SOL     OW 8227   7.522   9.524   8.607  0.5672 -0.7530  0.2755
 2163SOL    HW1 8228   7.471   9.601   8.629  1.0734 -0.7097  1.3621
 2163SOL    HW2 8229   7.486   9.494   8.524 -0.5567 -0.1512  0.5261
 2164SOL     OW 8230   8.314   5.475   4.476  0.0888 -0.5522  0.4872
 2164SOL    HW1 8231   8.276   5.421   4.545 -0.6667  0.6003  0.9925
 2164SOL    HW2 8232   8.384   5.421   4.439 -0.8366 -1.9916  0.7668
 2165SOL     OW 8233   5.572   6.908   0.845 -1.1341 -0.2024  0.3874
 2165SOL    HW1 8234   5.491   6.871   0.881 -0.0083  0.0273  3.4593
 2165SOL    HW2 8235   5.609   6.958   0.917  1.1006  0.8404 -1.3661
 2166SOL     OW 8236   1.715   8.757   2.234  0.0124 -0.4537 -0.0878
 2166SOL    HW1 8237   1.647   8.825   2.229 -1.3209 -1.8083 -2.2284
 2166SOL    HW2 8238   1.761   8.775   2.316 -1.9230  1.4642  0.6864
 2167SOL     OW 8239   3.851   6.796   3.677  0.1571  0.0439 -0.4444
 2167SOL    HW1 8240   3.913   6.724   3.688 -0.5873 -0.4564  0.5630
 2167SOL    HW2 8241   3.776   6.772   3.732 -0.4121  1.2282 -0.6835
 2168SOL     OW 8242   9.459   2.907   5.689 -0.5159 -0.0139 -0.9032
 2168SOL    HW1 8243   9.447   2.985   5.635 -0.0525 -0.1195 -1.1701
 2168SOL    HW2 8244   9.414   2.837   5.641 -0.2966 -0.0612 -1.0422
 2169SOL     OW 8245   4.287   0.653   3.259  0.1200  0.3373 -0.6583
 2169SOL    HW1 8246   4.198   0.685   3.274  0.6435  1.3848  0.3203
 2169SOL    HW2 8247   4.326   0.718   3.200  0.5208  0.4020 -0.3301
 2170SOL     OW 8248   0.042   9.039   9.529 -0.2945 -0.3035 -0.1780
 2170SOL    HW1 8249  -0.021   9.084   9.585  0.1985  1.1250 -0.7224
 2170SOL    HW2 8250   0.075   8.966   9.583 -0.6186  0.3890  0.9833
 2171SOL     OW 8251   6.269   3.935   0.957 -0.2558 -0.7889  0.0186
 2171SOL    HW1 8252   6.329   3.886   0.901  0.4299  1.1473 -1.0308
 2171SOL    HW2 8253   6.189   3.945   0.904  0.0326  0.1965 -0.2424
 2172SOL     OW 8254   4.860   3.059   5.618 -0.1213  0.3952 -0.0892
 2172SOL    HW1 8255   4.825   2.997   5.682  0.6769  0.7596  0.7206
 2172SOL    HW2 8256   4.850   3.015   5.534  0.8116 -1.0265  0.4991
 2173SOL     OW 8257   0.801   7.366   1.980 -0.2396 -0.0763 -0.2359
 2173SOL    HW1 8258   0.711   7.335   1.968 -0.1508 -0.1580 -0.7334
 2173SOL    HW2 8259   0.850   7.324   1.909  0.0938  0.3611 -0.2694
 2174SOL     OW 8260   3.064   0.128   3.932 -0.2911  0.1550  0.0692
 2174SOL    HW1 8261   2.993   0.142   3.870 -0.7270 -0.3804  0.4425
 2174SOL    HW2 8262   3.025   0.077   4.003  0.6492 -0.8588 -0.1050
 2175SOL     OW 8263   7.404   1.001   4.392  0.0058  0.2864  0.0860
 2175SOL    HW1 8264   7.327   1.053   4.414 -1.4930 -2.2284  1.3131
 2175SOL    HW2 8265   7.382   0.961   4.308 -0.2012 -0.6623  0.5768
 2176SOL     OW 8266   7.977   5.909   0.767 -0.4381 -0.2811 -0.2958
 2176SOL    HW1 8267   8.004   5.995   0.737 -3.5914  0.6213 -0.9101
 2176SOL    HW2 8268   7.962   5.919   0.861 -1.0857 -0.0815 -0.4210
 2177SOL     OW 8269   5.351   9.303   5.144 -0.3350 -0.0035  0.4177
 2177SOL    HW1 8270   5.300   9.233   5.184 -0.3101  0.0469  0.5400
 2177SOL    HW2 8271   5.422   9.258   5.098  0.0768 -0.0263  1.0697
 2178SOL     OW 8272   0.826   5.847   4.346 -0.1286  0.3753  0.1407
 2178SOL    HW1 8273   0.841   5.803   4.263  1.0976  0.6553  0.1902
 2178SOL    HW2 8274   0.803   5.937   4.322  3.2485  1.3638  0.0531
 2179SOL     OW 8275   7.610   5.195   5.255  0.1054  0.3236 -0.0032
 2179SOL    HW1 8276   7.526   5.213   5.213  0.2528  1.4418  0.1495
 2179SOL    HW2 8277   7.594   5.214   5.348  0.1669 -0.7752  0.2464
 2180SOL     OW 8278   5.863   7.357   6.961  0.1196 -0.4796  0.0774
 2180SOL    HW1 8279   5.824   7.289   7.015 -0.1893 -0.0422  0.4104
 2180SOL    HW2 8280   5.953   7.365   6.994 -0.2088  0.1257  0.8698
 2181SOL     OW 8281   8.877   7.346   4.078 -0.6370 -0.0699 -0.0351
 2181SOL    HW1 8282   8.800   7.338   4.134 -0.5448  0.2919  0.1462
 2181SOL    HW2 8283   8.853   7.302   3.997 -0.2286 -2.0367  0.8469
 2182SOL     OW 8284   3.409   1.236   3.071  0.5458 -0.7596  0.1685
 2182SOL    HW1 8285   3.313   1.227   3.073  0.4632 -0.0389 -0.1596
 2182SOL    HW2 8286   3.425   1.309   3.012  1.3088 -0.8910  0.1998
 2183SOL     OW 8287   3.763   7.372   0.882 -0.4617 -0.6455 -0.1615
 2183SOL    HW1 8288   3.670   7.394   0.877 -0.2701  0.3335  0.3019
 2183SOL    HW2 8289   3.775   7.342   0.972 -0.7524 -2.9443 -0.8276
 2184SOL     OW 8290   1.675   6.102   4.204  0.1550  0.3844  0.0807
 2184SOL    HW1 8291   1.739   6.045   4.162 -0.3838  2.1235 -3.4984
 2184SOL    HW2 8292   1.608   6.042   4.238  0.4470 -1.2303 -1.9929
 2185SOL     OW 8293   0.687   7.299   0.114  0.6384  0.3465 -0.0862
 2185SOL    HW1 8294   0.655   7.237   0.048  1.6302 -0.3957  0.0990
 2185SOL    HW2 8295   0.769   7.261   0.145  0.3723  0.8530  1.3406
 2186SOL     OW 8296   1.312   7.618   1.448  0.2447  0.3950 -0.8054
 2186SOL    HW1 8297   1.272   7.685   1.392 -1.0361  0.0469 -0.3325
 2186SOL    HW2 8298   1.394   7.596   1.403 -0.2296  0.8969 -1.9684
 2187SOL     OW 8299   3.667   9.073   4.508 -0.2742  0.2698  0.0151
 2187SOL    HW1 8300   3.744   9.112   4.549  1.8267 -3.7554  0.4189
 2187SOL    HW2 8301   3.621   9.029   4.579  1.2558 -3.4842 -1.0490
 2188SOL     OW 8302   2.298   5.353   5.891  0.3353 -0.3996 -0.1253
 2188SOL    HW1 8303   2.212   5.366   5.932 -0.9335  1.2730 -2.9427
 2188SOL    HW2 8304   2.356   5.414   5.936  0.5309 -2.5658  2.7848
 2189SOL     OW 8305   6.701   5.128   2.342 -0.0522 -0.0284 -0.0980
 2189SOL    HW1 8306   6.736   5.216   2.327 -0.5772  0.2255  0.1596
 2189SOL    HW2 8307   6.700   5.087   2.256 -0.5394  0.4919 -0.3411
 2190SOL     OW 8308   2.276   1.161   8.081 -0.1269 -0.2181  0.0390
 2190SOL    HW1 8309   2.208   1.215   8.123  1.5980  1.4838  0.8440
 2190SOL    HW2 8310   2.308   1.105   8.152  0.1086 -0.1479 -0.0108
 2191SOL     OW 8311   3.332   1.895   9.602  0.6156  0.5447 -0.4259
 2191SOL    HW1 8312   3.243   1.887   9.635  1.2271  0.0806  1.1958
 2191SOL    HW2 8313   3.351   1.809   9.565  0.6146  0.4594 -0.2246
 2192SOL     OW 8314   8.224   0.176   7.201 -0.7053 -0.4596 -0.3441
 2192SOL    HW1 8315   8.207   0.266   7.229 -2.0797 -0.1474 -1.9875
 2192SOL    HW2 8316   8.216   0.179   7.105 -1.1627 -2.3866 -0.4116
 2193SOL     OW 8317   0.379   7.506   5.641 -0.0562 -0.5390  0.0791
 2193SOL    HW1 8318   0.368   7.599   5.661 -2.0969 -0.5118 -0.9088
 2193SOL    HW2 8319   0.362   7.461   5.723 -1.1375 -0.1068  0.1069
 2194SOL     OW 8320   8.191   7.028   6.903 -0.0409 -0.0819 -0.2640
 2194SOL    HW1 8321   8.148   7.027   6.818 -2.3514  0.7459  0.8072
 2194SOL    HW2 8322   8.229   7.115   6.910 -1.6596  0.6140  0.3346
 2195SOL     OW 8323   1.235   5.711   7.471 -0.1431  0.7433 -0.5689
 2195SOL    HW1 8324   1.305   5.749   7.524 -0.0836 -0.2928  0.1328
 2195SOL    HW2 8325   1.164   5.694   7.533 -0.3722  0.2218 -0.9651
 2196SOL     OW 8326   0.721   3.382   3.240  0.2692 -0.2191  0.3941
 2196SOL    HW1 8327   0.661   3.366   3.314  0.0151 -0.6390  0.1011
 2196SOL    HW2 8328   0.666   3.372   3.163  0.4335  0.6778  0.1552
 2197SOL     OW 8329   4.076   5.998   6.756  0.3076  0.0432 -0.2123
 2197SOL    HW1 8330   4.050   6.045   6.834  0.9988  1.2692 -0.6880
 2197SOL    HW2 8331   4.147   5.940   6.785  1.0726  1.0300 -0.0425
 2198SOL     OW 8332   2.883   8.707   0.687  0.2320 -0.1964  0.3215
 2198SOL    HW1 8333   2.819   8.683   0.754 -1.4544  0.2289 -1.0525
 2198SOL    HW2 8334   2.871   8.641   0.618  1.8377 -0.5525  0.3613
 2199SOL     OW 8335   0.145   7.185   7.406 -0.2734  0.5909  0.6956
 2199SOL    HW1 8336   0.108   7.220   7.487  0.3288 -1.2318  1.8131
 2199SOL    HW2 8337   0.161   7.093   7.424  0.8268  0.3549 -1.1712
 2200SOL     OW 8338   0.582   7.314   4.522  0.0085  0.0461  0.4211
 2200SOL    HW1 8339   0.542   7.313   4.435  0.8681 -2.8213 -0.0461
 2200SOL    HW2 8340   0.616   7.403   4.532 -1.9403  1.0662 -1.2537
 2201SOL     OW 8341   8.463   8.981   9.163  0.4149 -0.5771 -0.0817
 2201SOL    HW1 8342   8.483   8.895   9.200 -1.3467 -0.1804  1.9549
 2201SOL    HW2 8343   8.390   8.965   9.104  0.8797 -0.6386 -0.6525
 2202SOL     OW 8344   3.432   6.455   5.396  0.1024 -0.5650  0.2665
 2202SOL    HW1 8345   3.356   6.453   5.337 -0.1212 -0.4884  0.5484
 2202SOL    HW2 8346   3.501   6.496   5.345 -0.0380 -0.6587 -0.0032
 2203SOL     OW 8347   2.015   9.336   3.621  0.7913  0.0170  0.5513
 2203SOL    HW1 8348   2.013   9.333   3.717  1.0170 -0.1899  0.5496
 2203SOL    HW2 8349   1.928   9.306   3.594  0.3911  0.9676  0.7080
 2204SOL     OW 8350   1.060   6.711   1.578  0.2520  0.0171  0.1794
 2204SOL    HW1 8351   0.999   6.680   1.645  1.2233 -1.0252  0.6075
 2204SOL    HW2 8352   1.080   6.801   1.603  0.4043 -0.2773  1.1537
 2205SOL     OW 8353   8.823   4.305   6.234  0.4449 -0.0631  0.0227
 2205SOL    HW1 8354   8.732   4.322   6.259  0.2781  0.1894 -0.7292
 2205SOL    HW2 8355   8.861   4.393   6.224  0.7865 -0.1694  0.3906
 2206SOL     OW 8356   8.836   5.659   1.733  0.1926  0.0408 -0.2058
 2206SOL    HW1 8357   8.744   5.671   1.755  0.2203  1.0425 -0.5854
 2206SOL    HW2 8358   8.878   5.740   1.760  1.3765 -1.2008  1.9484
 2207SOL     OW 8359   8.936   2.016   3.826  0.6359 -0.4706 -0.1185
 2207SOL    HW1 8360   8.860   1.985   3.877 -0.4362 -0.7793 -1.8297
 2207SOL    HW2 8361   8.905   2.018   3.736  2.6065 -0.3014 -0.8363
 2208SOL     OW 8362   8.649   7.744   6.266 -0.1456  0.1360  0.7442
 2208SOL    HW1 8363   8.615   7.655   6.275 -2.1644  1.0006  2.5959
 2208SOL    HW2 8364   8.738   7.739   6.302 -0.2003 -1.1196  0.7613
 2209SOL     OW 8365   9.026   7.212   1.696 -0.1922 -0.3151 -0.0027
 2209SOL    HW1 8366   9.054   7.261   1.773  1.2358 -0.6192 -0.3093
 2209SOL    HW2 8367   9.007   7.278   1.630 -0.1628 -0.1020  0.2013
 2210SOL     OW 8368   4.015   9.510   5.470 -0.4800 -0.4428  0.3112
 2210SOL    HW1 8369   3.959   9.438   5.442  0.2880  0.0460 -2.8446
 2210SOL    HW2 8370   3.958   9.586   5.473 -0.2138 -0.0726 -2.2709
 2211SOL     OW 8371   3.951   5.564   0.164 -0.0837 -0.1665  0.4049
 2211SOL    HW1 8372   3.929   5.487   0.216 -0.6016  0.5094  1.2051
 2211SOL    HW2 8373   3.898   5.556   0.085  0.2607 -0.8903  0.2367
 2212SOL     OW 8374   4.918   3.306   7.643 -0.2559  0.3916  0.6663
 2212SOL    HW1 8375   4.850   3.326   7.578 -0.0426  0.1419  0.3608
 2212SOL    HW2 8376   4.989   3.268   7.591  0.0783  0.5662  0.9985
 2213SOL     OW 8377   0.149   2.045   9.139  0.8448 -0.1765 -0.4541
 2213SOL    HW1 8378   0.223   2.070   9.083  1.2276  0.2272  0.2238
 2213SOL    HW2 8379   0.186   2.037   9.226  0.6418 -2.6326 -0.5206
 2214SOL     OW 8380   1.111   2.179   8.226 -0.7323  0.6566 -0.1430
 2214SOL    HW1 8381   1.050   2.203   8.295 -2.7939  0.4390 -1.7797
 2214SOL    HW2 8382   1.107   2.253   8.165 -0.5936 -0.0718 -1.0543
 2215SOL     OW 8383   4.276   7.520   7.136  0.0864  0.1444  0.1063
 2215SOL    HW1 8384   4.264   7.615   7.131 -0.8690  0.1442  1.7700
 2215SOL    HW2 8385   4.206   7.485   7.082  0.4576  0.3647 -0.5366
 2216SOL     OW 8386   3.471   7.934   7.872  0.2723 -0.2854  0.6614
 2216SOL    HW1 8387   3.414   7.875   7.824 -0.1639  1.4600 -1.0885
 2216SOL    HW2 8388   3.444   7.925   7.964  0.9363 -3.4844  0.6401
 2217SOL     OW 8389   1.381   1.397   4.101  0.0094 -0.5399 -0.3619
 2217SOL    HW1 8390   1.308   1.458   4.089 -0.0309 -0.2028  1.3453
 2217SOL    HW2 8391   1.455   1.453   4.125  0.3364 -1.0436 -0.1896
 2218SOL     OW 8392   7.029   1.700   3.236 -0.5867  0.0782  0.3608
 2218SOL    HW1 8393   7.105   1.758   3.232  1.6054 -2.3652  2.6420
 2218SOL    HW2 8394   7.005   1.687   3.144  1.8944  0.8209 -0.4945
 2219SOL     OW 8395   0.443   5.333   9.597 -0.0369 -0.0394 -0.1882
 2219SOL    HW1 8396   0.405   5.406   9.547  0.5329  0.7248  0.4850
 2219SOL    HW2 8397   0.390   5.328   9.676 -1.3917 -1.7060 -1.1262
 2220SOL     OW 8398   1.474   4.360   6.655  0.0617 -0.2007 -0.2218
 2220SOL    HW1 8399   1.490   4.294   6.722  1.8371  0.3670 -0.0240
 2220SOL    HW2 8400   1.459   4.441   6.703 -3.6842 -0.6368 -0.4050
 2221SOL     OW 8401   0.866   2.698   5.460 -0.3898 -0.0296 -0.8063
 2221SOL    HW1 8402   0.912   2.768   5.414 -1.7369  0.6871 -1.1130
 2221SOL    HW2 8403   0.925   2.674   5.532  1.0119 -0.0208 -1.8927
 2222SOL     OW 8404   0.420   5.472   3.804 -0.2016 -0.0342 -0.4978
 2222SOL    HW1 8405   0.444   5.559   3.771 -1.1710  0.5572  0.2953
 2222SOL    HW2 8406   0.340   5.450   3.757  1.4134 -1.7447 -2.6980
 2223SOL     OW 8407   1.140   7.130   3.405  0.0597 -0.4027  0.3500
 2223SOL    HW1 8408   1.074   7.192   3.436 -0.5342 -0.7178 -0.2701
 2223SOL    HW2 8409   1.129   7.054   3.462 -0.8293 -0.8648 -0.4269
 2224SOL     OW 8410   4.227   3.420   6.871 -0.1602 -0.5803  0.1181
 2224SOL    HW1 8411   4.232   3.515   6.869 -1.6513 -0.4371  1.4660
 2224SOL    HW2 8412   4.315   3.391   6.847  0.2398  1.1184 -0.5849
 2225SOL     OW 8413   1.716   2.306   6.525 -0.3441 -0.1799 -0.6036
 2225SOL    HW1 8414   1.768   2.353   6.460  0.3013 -0.8012 -0.5522
 2225SOL    HW2 8415   1.683   2.374   6.583  1.8796  0.1203  0.4031
 2226SOL     OW 8416   6.646   1.376   5.686 -0.3539  0.4779  0.0416
 2226SOL    HW1 8417   6.673   1.351   5.775  0.5908 -0.2420 -0.4306
 2226SOL    HW2 8418   6.714   1.434   5.655 -2.0824  3.0732  0.7792
 2227SOL     OW 8419   5.257   1.927   3.337  0.4891  0.5800  0.7093
 2227SOL    HW1 8420   5.268   1.838   3.303  1.2723  1.2360 -0.8708
 2227SOL    HW2 8421   5.197   1.917   3.410  1.7589 -1.4623  1.5750
 2228SOL     OW 8422   0.002   7.821   6.051 -0.2951  0.8756  0.0409
 2228SOL    HW1 8423  -0.055   7.780   6.117 -2.3778 -0.7367 -2.5768
 2228SOL    HW2 8424   0.035   7.747   5.999  3.6885  1.8126  0.8561
 2229SOL     OW 8425   4.160   4.400   4.126  0.1111  0.1073 -0.0480
 2229SOL    HW1 8426   4.215   4.436   4.056 -0.0397  0.5639  0.0653
 2229SOL    HW2 8427   4.204   4.319   4.151 -0.3591 -0.5678 -1.3322
 2230SOL     OW 8428   3.290   1.611   8.215 -0.4480  0.5741  0.5809
 2230SOL    HW1 8429   3.200   1.641   8.205 -1.2116 -1.8289 -0.6685
 2230SOL    HW2 8430   3.298   1.587   8.307 -1.4483 -0.1879  0.4793
 2231SOL     OW 8431   1.659   4.091   3.597  0.2892 -0.3331 -0.2854
 2231SOL    HW1 8432   1.686   4.000   3.593 -0.5708 -0.5980 -0.3474
 2231SOL    HW2 8433   1.685   4.127   3.512 -0.0482 -0.7287 -0.5640
 2232SOL     OW 8434   9.434   8.277   4.680  0.1595  0.4188 -0.1557
 2232SOL    HW1 8435   9.432   8.186   4.708  2.5363  0.3627  0.0573
 2232SOL    HW2 8436   9.382   8.279   4.600  1.4370 -1.5124 -1.1126
 2233SOL     OW 8437   7.088   2.138   0.839  0.3087  0.0605  0.0057
 2233SOL    HW1 8438   7.025   2.150   0.910 -1.2628 -1.0497 -1.1395
 2233SOL    HW2 8439   7.133   2.223   0.833 -2.7317  1.7734 -0.6466
 2234SOL     OW 8440   2.461   8.396   6.730  0.1636  0.0448 -0.3851
 2234SOL    HW1 8441   2.522   8.468   6.746 -0.3385  0.4251 -0.1839
 2234SOL    HW2 8442   2.475   8.373   6.638 -0.0233  0.7191 -0.5879
 2235SOL     OW 8443   3.378   8.092   6.571  0.4034 -0.3739  0.0786
 2235SOL    HW1 8444   3.332   8.035   6.510  1.0608  1.5175 -2.3449
 2235SOL    HW2 8445   3.456   8.043   6.597 -0.3739 -1.5841  0.1726
 2236SOL     OW 8446   7.608   5.521   5.413  0.4781  0.4098 -0.7676
 2236SOL    HW1 8447   7.559   5.595   5.448 -2.6459 -1.4696 -0.8089
 2236SOL    HW2 8448   7.569   5.504   5.328  1.3399 -1.1036 -0.9020
 2237SOL     OW 8449   7.773   1.924   0.039  0.4163  0.3468 -0.1929
 2237SOL    HW1 8450   7.682   1.949   0.051  0.2233  0.6410 -1.9174
 2237SOL    HW2 8451   7.771   1.831   0.019  0.4633  0.4020 -0.4626
 2238SOL     OW 8452   6.977   0.603   3.090 -0.1928  0.1133 -0.1716
 2238SOL    HW1 8453   7.068   0.628   3.074 -0.0027 -0.0812  0.5841
 2238SOL    HW2 8454   6.941   0.677   3.139 -0.2147 -0.1710  0.2400
 2239SOL     OW 8455   1.278   2.677   9.327 -0.2098 -0.4075 -0.5637
 2239SOL    HW1 8456   1.224   2.719   9.260  0.6579  1.1985 -0.3204
 2239SOL    HW2 8457   1.220   2.668   9.403 -0.3147  0.7909 -0.4835
 2240SOL     OW 8458   3.199   1.628   3.631  0.0477 -0.4114  0.5616
 2240SOL    HW1 8459   3.230   1.537   3.628  0.0494 -0.3808 -0.4487
 2240SOL    HW2 8460   3.270   1.676   3.675  0.0716 -0.8783  1.0520
 2241SOL     OW 8461   1.738   2.662   4.571 -0.1895 -0.2191  0.2940
 2241SOL    HW1 8462   1.777   2.745   4.542 -1.1632  0.1981  0.1525
 2241SOL    HW2 8463   1.772   2.649   4.660  0.7142 -0.1593 -0.0277
 2242SOL     OW 8464   4.118   3.972   8.139  0.2144 -0.2940  0.3752
 2242SOL    HW1 8465   4.072   3.894   8.109  1.3502  0.2038 -3.0292
 2242SOL    HW2 8466   4.211   3.954   8.122  0.5856  1.4168  0.3871
 2243SOL     OW 8467   4.365   1.242   4.475 -0.4105  0.3012 -0.3016
 2243SOL    HW1 8468   4.434   1.179   4.495 -1.3888 -1.4611 -2.1140
 2243SOL    HW2 8469   4.290   1.212   4.526 -0.5788  0.6795 -0.3215
 2244SOL     OW 8470   6.172   4.926   8.916 -0.3951 -0.2136  0.2384
 2244SOL    HW1 8471   6.194   4.903   9.006 -1.5076  0.0139  0.5814
 2244SOL    HW2 8472   6.237   4.880   8.863  1.5550  1.2763  1.2408
 2245SOL     OW 8473   6.448   7.320   0.580  0.3659 -0.0611  0.8406
 2245SOL    HW1 8474   6.408   7.233   0.586 -0.7409  0.3454 -0.2076
 2245SOL    HW2 8475   6.410   7.369   0.653 -0.6614  0.1613  0.1695
 2246SOL     OW 8476   8.783   8.601   6.722  0.1542  0.0462 -0.7441
 2246SOL    HW1 8477   8.700   8.644   6.741  1.3534  1.5096  1.7168
 2246SOL    HW2 8478   8.827   8.659   6.660  0.3299  0.6015 -0.1134
 2247SOL     OW 8479   1.273   5.380   5.739 -0.0505  0.0395 -0.6045
 2247SOL    HW1 8480   1.245   5.432   5.664 -0.9830 -0.1395 -0.3983
 2247SOL    HW2 8481   1.346   5.328   5.706  0.9197  1.4705 -0.8005
 2248SOL     OW 8482   8.731   9.610   0.014 -0.3944  0.3242  0.6153
 2248SOL    HW1 8483   8.708   9.539   0.074  1.2113 -1.0112 -0.2762
 2248SOL    HW2 8484   8.780   9.672   0.068  1.0889 -0.8941  0.7617
 2249SOL     OW 8485   0.776   8.572   4.891  0.3155 -0.2688 -0.3383
 2249SOL    HW1 8486   0.848   8.516   4.864  0.5464 -0.6327  0.9792
 2249SOL    HW2 8487   0.698   8.532   4.852  0.4802 -1.5249  0.5872
 2250SOL     OW 8488   1.932   1.946   7.981 -0.0094  0.1991 -0.2527
 2250SOL    HW1 8489   1.859   1.999   7.948  0.7471  0.9713 -0.7189
 2250SOL    HW2 8490   1.892   1.889   8.047 -0.7295  1.8094  0.7359
 2251SOL     OW 8491   1.800   5.835   6.923  0.3216 -0.0539 -0.0412
 2251SOL    HW1 8492   1.870   5.898   6.911  0.4787 -0.4232 -1.1052
 2251SOL    HW2 8493   1.841   5.750   6.911  0.0119 -0.3520  0.9055
 2252SOL     OW 8494   4.638   2.934   4.980  0.4615 -0.0842  0.3569
 2252SOL    HW1 8495   4.555   2.886   4.982  0.5841 -0.3825 -0.9803
 2252SOL    HW2 8496   4.633   2.993   5.056 -0.9135 -0.1826  0.3752
 2253SOL     OW 8497   1.450   1.292   6.587 -0.3777 -0.5092 -0.1311
 2253SOL    HW1 8498   1.401   1.331   6.659  0.0312  0.3409 -0.3038
 2253SOL    HW2 8499   1.443   1.355   6.516  1.0290 -0.3212 -0.1343
 2254SOL     OW 8500   4.639   0.936   8.087 -0.0478 -0.0167 -0.1463
 2254SOL    HW1 8501   4.700   0.864   8.071 -1.2407 -0.8294 -1.3463
 2254SOL    HW2 8502   4.562   0.894   8.126  0.2089  1.0209  1.5702
 2255SOL     OW 8503   1.253   4.461   6.347  0.2556  0.6316  0.3351
 2255SOL    HW1 8504   1.342   4.463   6.382 -0.0736 -1.5194  1.4741
 2255SOL    HW2 8505   1.240   4.547   6.308  2.6224  1.1869  0.6557
 2256SOL     OW 8506   0.202   4.435   2.965  0.3032 -0.4440 -0.2667
 2256SOL    HW1 8507   0.161   4.381   2.897  1.5510 -0.7368 -0.8104
 2256SOL    HW2 8508   0.147   4.514   2.969 -0.5861 -1.0340 -0.6296
 2257SOL     OW 8509   0.426   1.653   2.215 -0.0434  0.2001 -0.3452
 2257SOL    HW1 8510   0.354   1.636   2.275 -1.1262 -1.0090 -1.9100
 2257SOL    HW2 8511   0.501   1.608   2.254 -0.8965 -1.1638 -0.2432
 2258SOL     OW 8512   1.952   8.149   9.171  0.6020  0.2884  0.4814
 2258SOL    HW1 8513   2.017   8.081   9.152 -0.2262 -0.9914  1.9626
 2258SOL    HW2 8514   2.002   8.231   9.171  2.4216 -0.7402  2.3159
 2259SOL     OW 8515   8.181   3.706   0.966  0.3111 -0.0287 -0.4156
 2259SOL    HW1 8516   8.270   3.726   0.993 -0.3557  0.7431  1.3638
 2259SOL    HW2 8517   8.174   3.739   0.876  1.7760 -0.0822 -0.5628
 2260SOL     OW 8518   8.392   6.739   6.649  0.2831 -0.0980 -0.5896
 2260SOL    HW1 8519   8.306   6.697   6.650  0.1802  0.0812  0.5571
 2260SOL    HW2 8520   8.420   6.737   6.741  2.4614 -2.0754 -1.1825
 2261SOL     OW 8521   6.433   5.191   5.868 -0.1712  0.4696  0.0662
 2261SOL    HW1 8522   6.381   5.185   5.788  0.9238  2.4158 -0.8658
 2261SOL    HW2 8523   6.368   5.194   5.938 -1.1293 -2.5837 -0.5589
 2262SOL     OW 8524   6.108   1.320   3.836 -0.4932  0.5908 -0.3311
 2262SOL    HW1 8525   6.082   1.385   3.771 -1.4538 -0.8305 -1.3943
 2262SOL    HW2 8526   6.197   1.294   3.810 -1.4464 -1.1118 -2.0596
 2263SOL     OW 8527   1.760   4.892   3.169 -0.4324 -0.1287 -0.2525
 2263SOL    HW1 8528   1.825   4.881   3.238  2.2744  1.3580 -2.3564
 2263SOL    HW2 8529   1.810   4.883   3.088 -2.8372  1.2848 -2.0321
 2264SOL     OW 8530   4.574   1.383   5.257 -0.3557 -0.7189 -0.5436
 2264SOL    HW1 8531   4.529   1.299   5.246  0.8748 -1.5165  0.2769
 2264SOL    HW2 8532   4.664   1.366   5.232 -0.3941  0.7834 -1.8764
 2265SOL     OW 8533   7.759   2.504   5.453 -0.6184 -0.4808  0.5258
 2265SOL    HW1 8534   7.840   2.555   5.452 -1.5411  1.2937  3.9068
 2265SOL    HW2 8535   7.786   2.417   5.484  0.2479 -0.6277 -0.5696
 2266SOL     OW 8536   7.766   1.685   9.186 -0.6495  0.1673  0.0049
 2266SOL    HW1 8537   7.750   1.631   9.109 -1.8137  1.2400 -0.5350
 2266SOL    HW2 8538   7.698   1.752   9.183 -0.8595  0.1204  2.0728
 2267SOL     OW 8539   1.733   8.355   6.461 -0.0840 -0.3602 -0.0324
 2267SOL    HW1 8540   1.660   8.395   6.413  0.1914 -0.8146 -0.8538
 2267SOL    HW2 8541   1.806   8.416   6.447 -0.0175 -0.4663 -0.1479
 2268SOL     OW 8542   3.932   2.951   3.912  0.2015 -0.1796 -0.2241
 2268SOL    HW1 8543   4.022   2.925   3.896  0.7035  0.4910  1.3613
 2268SOL    HW2 8544   3.892   2.876   3.955  0.4296  0.0642  0.4197
 2269SOL     OW 8545   4.578   5.585   2.781 -0.0274  0.0518  0.1219
 2269SOL    HW1 8546   4.536   5.644   2.719 -0.4719 -0.3882  0.0003
 2269SOL    HW2 8547   4.522   5.507   2.782  0.4846 -0.3173  0.3719
 2270SOL     OW 8548   8.191   8.026   5.034  0.5217 -0.0478  1.0682
 2270SOL    HW1 8549   8.134   8.064   4.967  0.7638 -0.5777  0.5534
 2270SOL    HW2 8550   8.260   7.982   4.985  0.6383 -0.5430  1.6596
 2271SOL     OW 8551   2.823   1.832   3.646 -0.1055 -0.2015 -0.0410
 2271SOL    HW1 8552   2.878   1.795   3.577  0.2857  1.0128 -0.3945
 2271SOL    HW2 8553   2.779   1.905   3.604 -0.9299 -0.3043  0.6326
 2272SOL     OW 8554   9.175   6.685   7.645  0.1020  0.7196 -0.5487
 2272SOL    HW1 8555   9.210   6.652   7.728 -0.2213 -0.7210 -0.9572
 2272SOL    HW2 8556   9.100   6.738   7.670 -1.5803 -1.7683  0.0036
 2273SOL     OW 8557   4.730   7.078   3.651  0.0383  1.2126 -0.0969
 2273SOL    HW1 8558   4.778   7.093   3.733  0.1101  0.9913 -0.0988
 2273SOL    HW2 8559   4.708   6.985   3.652  1.2563  0.8783 -0.9659
 2274SOL     OW 8560   7.515   7.332   3.931 -0.5777  0.2962 -0.3079
 2274SOL    HW1 8561   7.441   7.355   3.988 -1.0167 -1.3229 -0.1777
 2274SOL    HW2 8562   7.493   7.245   3.897  0.8871  0.1409 -0.9325
 2275SOL     OW 8563   6.666   5.508   2.545 -0.0013  0.3444 -0.2971
 2275SOL    HW1 8564   6.700   5.450   2.613 -0.0900  0.2734 -0.3137
 2275SOL    HW2 8565   6.714   5.590   2.557  0.1100  0.2739 -0.2618
 2276SOL     OW 8566   6.231   1.561   2.689  0.4643 -0.5055  0.1036
 2276SOL    HW1 8567   6.148   1.580   2.732 -0.2544  0.7477 -1.7219
 2276SOL    HW2 8568   6.218   1.475   2.648  0.1669 -0.4439  0.0704
 2277SOL     OW 8569   8.799   5.409   6.633 -1.0109  0.2681  0.2102
 2277SOL    HW1 8570   8.787   5.324   6.675 -1.7046 -0.8122 -2.0187
 2277SOL    HW2 8571   8.715   5.428   6.591 -0.8782  2.0888  0.6789
 2278SOL     OW 8572   7.211   9.488   8.514 -0.3385  0.3563 -0.1509
 2278SOL    HW1 8573   7.262   9.511   8.591  0.4244 -1.3352 -0.0997
 2278SOL    HW2 8574   7.147   9.425   8.545 -1.5153  1.3296 -0.5110
 2279SOL     OW 8575   3.561   1.439   9.116 -0.1582 -0.0647  0.0582
 2279SOL    HW1 8576   3.593   1.511   9.061 -1.1590  1.1460  0.9798
 2279SOL    HW2 8577   3.481   1.409   9.073 -0.2646  0.0328  0.1880
 2280SOL     OW 8578   8.055   1.563   4.487  0.5429 -0.1414 -0.2007
 2280SOL    HW1 8579   8.024   1.482   4.528  0.0674  0.6714  1.1064
 2280SOL    HW2 8580   7.979   1.598   4.441  0.5091  0.0005 -0.0377
 2281SOL     OW 8581   3.884   3.756   3.154 -0.1349 -0.0446  0.4668
 2281SOL    HW1 8582   3.875   3.847   3.183  0.9160 -0.4559  2.2596
 2281SOL    HW2 8583   3.923   3.763   3.067 -1.8827  1.2380 -0.2748
 2282SOL     OW 8584   7.037   2.971   9.522 -0.4937 -0.4754 -0.2127
 2282SOL    HW1 8585   6.994   3.046   9.481  0.4535 -1.0350 -2.3608
 2282SOL    HW2 8586   7.048   2.908   9.451  2.5652 -0.9245  0.5349
 2283SOL     OW 8587   0.936   7.784   5.061 -0.1139  0.8982  0.7209
 2283SOL    HW1 8588   0.974   7.696   5.062 -0.2368  0.6230 -3.0087
 2283SOL    HW2 8589   0.995   7.835   5.004 -1.8769  2.2467  0.0030
 2284SOL     OW 8590   6.022   9.067   6.226 -0.3317  0.2838 -0.2103
 2284SOL    HW1 8591   6.111   9.092   6.205 -0.1103 -1.5168 -1.6534
 2284SOL    HW2 8592   6.028   9.025   6.312  0.5234 -1.2008 -0.9562
 2285SOL     OW 8593   6.123   8.488   4.407  0.0313 -0.2330 -0.3491
 2285SOL    HW1 8594   6.118   8.541   4.328 -1.5523 -1.0859 -0.8773
 2285SOL    HW2 8595   6.180   8.537   4.466 -2.0647  2.5759 -0.4448
 2286SOL     OW 8596   9.231   8.841   8.828  0.1782 -0.2938  0.0935
 2286SOL    HW1 8597   9.196   8.786   8.758 -0.2080 -0.2389  0.2431
 2286SOL    HW2 8598   9.160   8.901   8.851  0.4156 -0.0822  0.3002
 2287SOL     OW 8599   7.788   1.272   0.425 -0.1946  0.4358 -0.6445
 2287SOL    HW1 8600   7.801   1.188   0.381 -1.5065 -0.0429 -0.1725
 2287SOL    HW2 8601   7.730   1.321   0.368 -1.2520  0.1231  0.1248
 2288SOL     OW 8602   9.050   9.005   4.721  0.2884 -0.1325 -0.3280
 2288SOL    HW1 8603   9.089   9.090   4.744 -2.3211  1.6740 -2.0378
 2288SOL    HW2 8604   9.067   8.995   4.628 -1.2949 -0.3939 -0.6125
 2289SOL     OW 8605   7.216   3.685   5.633 -0.4275 -0.3027 -0.2069
 2289SOL    HW1 8606   7.282   3.755   5.637 -0.4732 -0.2939  0.5832
 2289SOL    HW2 8607   7.178   3.693   5.545  0.6921 -0.3714 -0.7164
 2290SOL     OW 8608   9.432   3.480   1.232  0.0103  0.2526  0.0903
 2290SOL    HW1 8609   9.489   3.466   1.157 -0.6581 -0.0341 -0.3773
 2290SOL    HW2 8610   9.455   3.409   1.293  0.6184  0.5433  0.1980
 2291SOL     OW 8611   7.411   5.413   4.446 -0.0187  0.0447  0.1373
 2291SOL    HW1 8612   7.401   5.430   4.539 -1.4292 -1.2386  0.2736
 2291SOL    HW2 8613   7.403   5.318   4.438 -0.5853  0.1814 -1.3519
 2292SOL     OW 8614   5.623   4.410   8.122 -0.0957 -0.7582  0.6967
 2292SOL    HW1 8615   5.699   4.465   8.143  0.1527 -1.3066  1.2669
 2292SOL    HW2 8616   5.582   4.454   8.047 -0.0980  0.3834  1.3447
 2293SOL     OW 8617   4.132   4.559   2.528  0.0843  0.3454 -0.0759
 2293SOL    HW1 8618   4.149   4.643   2.484 -0.0953  1.3648  1.7116
 2293SOL    HW2 8619   4.217   4.532   2.561 -0.2165  0.9957  1.2921
 2294SOL     OW 8620   4.399   2.432   3.707 -0.2984 -0.1097 -0.3091
 2294SOL    HW1 8621   4.474   2.404   3.654  1.0488 -0.4435  1.6593
 2294SOL    HW2 8622   4.375   2.353   3.757 -1.1238  0.3522  0.0407
 2295SOL     OW 8623   7.397   7.626   4.305 -0.4720 -0.2971  0.0848
 2295SOL    HW1 8624   7.476   7.680   4.308 -0.9075  0.3050  0.9855
 2295SOL    HW2 8625   7.327   7.683   4.335 -0.8570 -1.5046  1.6349
 2296SOL     OW 8626   5.196   0.232   5.787 -0.6424  0.0787  0.0406
 2296SOL    HW1 8627   5.221   0.323   5.797 -0.2261 -0.0242 -0.0724
 2296SOL    HW2 8628   5.190   0.198   5.876 -1.9172  0.5140  0.1416
 2297SOL     OW 8629   2.122   5.871   3.549 -0.0297 -0.6320  0.2441
 2297SOL    HW1 8630   2.201   5.874   3.604 -0.4049 -0.3873  0.7761
 2297SOL    HW2 8631   2.084   5.958   3.556  0.6768 -0.1306 -1.5714
 2298SOL     OW 8632   5.073   2.112   1.042  0.8018  0.0179 -0.3820
 2298SOL    HW1 8633   5.093   2.061   1.121 -0.4577  0.0995  0.0264
 2298SOL    HW2 8634   5.038   2.048   0.980 -0.1092  0.2446 -0.1261
 2299SOL     OW 8635   5.699   0.891   7.916  0.3249 -0.3370  0.1562
 2299SOL    HW1 8636   5.706   0.839   7.836  0.2491 -0.9414  0.5413
 2299SOL    HW2 8637   5.778   0.871   7.965 -0.0780 -0.7049  0.6667
 2300SOL     OW 8638   1.880   6.019   3.500  0.1199 -0.4159 -0.2367
 2300SOL    HW1 8639   1.867   6.101   3.547 -0.3063 -0.5795 -0.0689
 2300SOL    HW2 8640   1.798   5.970   3.511 -0.3024 -0.1310 -1.7930
 2301SOL     OW 8641   5.992   0.480   0.948 -0.1834  0.1374  0.4433
 2301SOL    HW1 8642   5.914   0.477   1.003  0.7701 -0.6227  1.8371
 2301SOL    HW2 8643   5.992   0.568   0.911 -1.2056  0.4685  1.1690
 2302SOL     OW 8644   1.672   6.286   1.890  0.1602  0.0002  0.3449
 2302SOL    HW1 8645   1.612   6.217   1.920 -0.2422 -0.3521 -1.1649
 2302SOL    HW2 8646   1.701   6.256   1.804 -0.6824  2.1148 -0.7281
 2303SOL     OW 8647   5.586   2.400   8.761  0.4488 -0.2643 -0.6494
 2303SOL    HW1 8648   5.522   2.373   8.695 -0.7319  1.0950 -0.0917
 2303SOL    HW2 8649   5.643   2.323   8.771  0.2733 -0.7355 -2.7598
 2304SOL     OW 8650   7.837   2.967   4.792 -0.3274 -0.8110 -0.0309
 2304SOL    HW1 8651   7.788   2.966   4.709 -1.0492 -1.0452  0.3937
 2304SOL    HW2 8652   7.858   3.060   4.805 -0.7869 -0.6868 -0.1449
 2305SOL     OW 8653   7.087   2.017   4.027 -0.3631  0.3436 -0.1557
 2305SOL    HW1 8654   6.995   2.035   4.044 -1.0293 -2.9891  0.3545
 2305SOL    HW2 8655   7.095   2.020   3.932 -0.2838  3.2114 -0.1603
 2306SOL     OW 8656   7.401   5.753   2.657 -0.2869 -0.1473 -0.5135
 2306SOL    HW1 8657   7.417   5.674   2.708  0.3424  0.1080 -0.3034
 2306SOL    HW2 8658   7.306   5.760   2.651 -0.3596 -1.6024 -1.5909
 2307SOL     OW 8659   3.283   2.641   1.963 -0.3724  0.0243 -0.4197
 2307SOL    HW1 8660   3.353   2.705   1.976 -0.8412  0.3884  0.4007
 2307SOL    HW2 8661   3.236   2.672   1.885 -0.1040  0.2268 -0.5009
 2308SOL     OW 8662   3.162   4.910   3.831  0.0034 -0.2558  0.2818
 2308SOL    HW1 8663   3.079   4.957   3.839  0.6260  0.5284  3.1416
 2308SOL    HW2 8664   3.213   4.962   3.768 -0.6328  0.8920  0.6881
 2309SOL     OW 8665   7.659   5.503   3.622 -0.1644  0.5157 -0.3414
 2309SOL    HW1 8666   7.718   5.434   3.654  1.0995  0.8174 -1.8966
 2309SOL    HW2 8667   7.578   5.457   3.602 -0.2170 -0.0558  1.0410
 2310SOL     OW 8668   0.151   5.180   3.295 -0.1571  0.3018  0.2145
 2310SOL    HW1 8669   0.200   5.143   3.369  0.8173  1.4346  0.1737
 2310SOL    HW2 8670   0.165   5.119   3.224 -1.3857 -0.9851  1.0312
 2311SOL     OW 8671   1.007   8.065   5.115 -0.3561  0.1284 -0.3348
 2311SOL    HW1 8672   1.003   8.016   5.033  0.3409 -0.2318 -0.1604
 2311SOL    HW2 8673   1.032   7.999   5.181  1.7077  0.9114 -0.2805
 2312SOL     OW 8674   6.141   8.976   1.174 -0.1567  0.7680 -0.0390
 2312SOL    HW1 8675   6.173   8.892   1.140 -1.1766  0.0328  0.7272
 2312SOL    HW2 8676   6.048   8.976   1.152 -0.3124  1.3710  0.5975
 2313SOL     OW 8677   0.021   6.000   7.110  0.2976  0.1960 -0.0761
 2313SOL    HW1 8678  -0.071   5.975   7.119  0.1778  0.5845 -0.2274
 2313SOL    HW2 8679   0.031   6.077   7.166  0.5695  0.0687  0.0573
 2314SOL     OW 8680   6.443   5.258   4.539 -0.5685  0.4355 -0.1471
 2314SOL    HW1 8681   6.409   5.176   4.575  0.5661 -0.0963 -0.2415
 2314SOL    HW2 8682   6.536   5.258   4.562  0.1553  0.2239 -2.7106
 2315SOL     OW 8683   9.462   5.555   5.439  0.2176 -0.4659 -0.2127
 2315SOL    HW1 8684   9.429   5.643   5.419  1.3686  0.1348  0.3986
 2315SOL    HW2 8685   9.399   5.519   5.500 -0.1007  0.0693 -0.2180
 2316SOL     OW 8686   6.589   0.733   4.128 -0.4336  0.0915  0.4467
 2316SOL    HW1 8687   6.630   0.656   4.166  1.2049  1.3425  1.3236
 2316SOL    HW2 8688   6.650   0.763   4.061  0.8350  2.6547  2.5562
 2317SOL     OW 8689   7.505   7.125   5.242  0.0167 -0.2797 -0.3772
 2317SOL    HW1 8690   7.566   7.084   5.304 -0.1928  0.7268  0.5284
 2317SOL    HW2 8691   7.539   7.213   5.229 -0.4138 -0.2092 -1.0508
 2318SOL     OW 8692   6.669   8.296   2.256  0.0268  0.2229 -0.3550
 2318SOL    HW1 8693   6.648   8.343   2.176 -0.2328  1.4055  0.3765
 2318SOL    HW2 8694   6.749   8.247   2.235 -0.2871  0.1579 -1.4564
 2319SOL     OW 8695   1.731   8.708   5.314  0.1001  0.0606  0.8196
 2319SOL    HW1 8696   1.790   8.759   5.370 -1.2200  0.4899  1.8697
 2319SOL    HW2 8697   1.789   8.648   5.267  1.5516  1.6039  0.5439
 2320SOL     OW 8698   3.872   6.756   2.583  0.3865 -0.0423 -0.3386
 2320SOL    HW1 8699   3.906   6.817   2.517 -0.1188 -0.1135 -0.6652
 2320SOL    HW2 8700   3.947   6.741   2.642  1.4046 -1.3648 -1.8776
 2321SOL     OW 8701   3.201   3.581   8.467 -0.3499  0.4606  0.6534
 2321SOL    HW1 8702   3.111   3.554   8.486 -0.1527 -1.0851 -0.4514
 2321SOL    HW2 8703   3.192   3.647   8.398 -0.7000  1.3549  1.5391
 2322SOL     OW 8704   0.359   2.960   6.742  0.5117 -0.5517 -0.1875
 2322SOL    HW1 8705   0.280   2.987   6.695  0.7625  0.5561  0.0203
 2322SOL    HW2 8706   0.347   2.865   6.754 -1.6153 -0.1635  1.3689
 2323SOL     OW 8707   7.795   8.737   8.040 -0.1257 -0.1597 -0.0898
 2323SOL    HW1 8708   7.802   8.830   8.062  0.7718  0.1603 -1.5836
 2323SOL    HW2 8709   7.827   8.691   8.117 -0.0281  0.7909  0.4446
 2324SOL     OW 8710   8.918   9.561   2.485 -0.3115  0.0790 -0.0160
 2324SOL    HW1 8711   8.899   9.589   2.395 -2.1488  1.8009  0.8321
 2324SOL    HW2 8712   8.838   9.518   2.514  0.5202 -1.1046  0.5989
 2325SOL     OW 8713   7.599   0.385   5.680  0.2585 -0.3557 -0.1047
 2325SOL    HW1 8714   7.597   0.376   5.775 -0.7066 -0.2529 -0.1122
 2325SOL    HW2 8715   7.511   0.414   5.656  0.7935  0.6203 -0.9378
 2326SOL     OW 8716   0.225   0.457   7.728 -0.0951  0.0885 -0.1697
 2326SOL    HW1 8717   0.306   0.417   7.697  0.7824  1.4417  0.2617
 2326SOL    HW2 8718   0.234   0.550   7.704 -2.0878  0.0609 -1.2454
 2327SOL     OW 8719   5.500   3.784   6.384 -0.1515 -0.0185  0.1316
 2327SOL    HW1 8720   5.528   3.706   6.335 -0.2622  1.6811 -2.9017
 2327SOL    HW2 8721   5.576   3.809   6.435  1.3294  0.0781 -1.9804
 2328SOL     OW 8722   3.576   1.661   3.925  0.1091 -0.8922 -0.5888
 2328SOL    HW1 8723   3.557   1.679   3.833  1.1698 -4.2471 -1.6185
 2328SOL    HW2 8724   3.669   1.680   3.935 -0.5315  2.2363  0.7164
 2329SOL     OW 8725   6.725   0.409   0.447 -0.0727 -0.0757 -0.0655
 2329SOL    HW1 8726   6.804   0.409   0.395  0.6666  1.1579  0.9948
 2329SOL    HW2 8727   6.750   0.366   0.529 -0.3909  0.6271  0.4080
 2330SOL     OW 8728   5.697   9.102   2.694 -0.4452  0.5411 -0.1926
 2330SOL    HW1 8729   5.636   9.043   2.649 -0.0564  0.6116 -0.8194
 2330SOL    HW2 8730   5.773   9.048   2.714 -0.0523  0.8526 -0.8464
 2331SOL     OW 8731   9.070   6.919   9.123  0.8920 -0.0716 -0.2417
 2331SOL    HW1 8732   8.987   6.914   9.075  2.2579  1.4826 -3.0258
 2331SOL    HW2 8733   9.106   6.831   9.117 -0.5737 -0.8056  1.1409
 2332SOL     OW 8734   4.556   0.317   8.024  0.4361 -0.2073  0.5382
 2332SOL    HW1 8735   4.548   0.305   7.930 -2.6049  0.4432  0.6430
 2332SOL    HW2 8736   4.582   0.230   8.057  1.6548 -0.4076 -0.8336
 2333SOL     OW 8737   9.609   3.060   8.032  0.0200  0.6533 -0.0315
 2333SOL    HW1 8738   9.545   2.992   8.050  0.1860  0.4787 -0.0953
 2333SOL    HW2 8739   9.663   3.024   7.962 -2.0030  2.1631 -2.6009
 2334SOL     OW 8740   5.117   5.261   6.678 -0.2448 -0.4482  0.6430
 2334SOL    HW1 8741   5.151   5.211   6.604  2.7696  0.2963  1.4187
 2334SOL    HW2 8742   5.135   5.206   6.754  0.4482  0.5284  1.2081
 2335SOL     OW 8743   2.754   8.830   6.727 -0.0511 -0.0779 -0.4041
 2335SOL    HW1 8744   2.726   8.920   6.714  0.5453  0.2458  0.4680
 2335SOL    HW2 8745   2.850   8.834   6.727  0.0122 -0.8912 -1.5125
 2336SOL     OW 8746   3.622   7.484   4.275 -0.2873  0.7076  0.2075
 2336SOL    HW1 8747   3.699   7.432   4.255 -1.3131 -0.4100 -1.0705
 2336SOL    HW2 8748   3.615   7.482   4.370  0.0343 -1.0419  0.2219
 2337SOL     OW 8749   8.335   3.928   5.852  0.3906  0.3582  0.1833
 2337SOL    HW1 8750   8.303   3.868   5.921 -0.1882  1.2392  0.6989
 2337SOL    HW2 8751   8.306   4.014   5.880 -0.1514  0.7029 -1.3533
 2338SOL     OW 8752   5.250   4.903   5.572 -0.2951 -0.2584  0.3197
 2338SOL    HW1 8753   5.187   4.911   5.645  0.2469 -1.2163  0.9141
 2338SOL    HW2 8754   5.298   4.985   5.573 -0.9964  0.1571  0.3790
 2339SOL     OW 8755   4.932   6.123   3.215 -0.0445 -0.6697 -0.2973
 2339SOL    HW1 8756   4.860   6.060   3.215 -0.8837  0.2514 -0.7769
 2339SOL    HW2 8757   4.972   6.114   3.301 -0.3833 -1.5764 -0.2202
 2340SOL     OW 8758   2.683   8.810   7.343  0.3060 -0.0175 -0.1557
 2340SOL    HW1 8759   2.610   8.754   7.371  0.2870 -0.1427 -0.4601
 2340SOL    HW2 8760   2.642   8.892   7.319  0.4398  0.5136  1.3395
 2341SOL     OW 8761   5.950   2.314   1.780 -0.3776 -0.9903  0.3577
 2341SOL    HW1 8762   5.980   2.248   1.842  2.1602  1.6020  2.1734
 2341SOL    HW2 8763   5.860   2.333   1.807  0.0554 -1.2343  2.1085
 2342SOL     OW 8764   4.573   9.099   7.808  0.3645 -0.0669  0.2451
 2342SOL    HW1 8765   4.566   9.185   7.848  0.3247 -0.3949  0.9603
 2342SOL    HW2 8766   4.484   9.074   7.786  0.0936 -0.7946  1.9511
 2343SOL     OW 8767   4.157   8.295   2.817 -0.4317 -0.1883 -0.2224
 2343SOL    HW1 8768   4.161   8.204   2.787 -0.1740 -0.3370  0.2574
 2343SOL    HW2 8769   4.199   8.345   2.747  0.9251 -0.6246  0.2534
 2344SOL     OW 8770   3.565   3.246   6.505 -0.3422  0.3085  0.8621
 2344SOL    HW1 8771   3.503   3.290   6.564 -1.9152 -1.6104  0.7537
 2344SOL    HW2 8772   3.518   3.168   6.475  1.3487 -0.0805 -0.9874
 2345SOL     OW 8773   8.926   1.866   7.535 -0.7936 -0.2477 -0.9601
 2345SOL    HW1 8774   8.905   1.772   7.537 -1.3969 -0.1078 -0.4076
 2345SOL    HW2 8775   8.911   1.895   7.624  1.9704 -0.1543 -0.4237
 2346SOL     OW 8776   4.490   8.881   1.445  0.5941  0.5592  0.0894
 2346SOL    HW1 8777   4.475   8.801   1.495 -0.3140 -1.2197 -2.7757
 2346SOL    HW2 8778   4.428   8.944   1.480 -1.3600 -1.2047 -0.0392
 2347SOL     OW 8779   0.940   1.630   7.212  0.6296 -0.2602  0.2186
 2347SOL    HW1 8780   1.020   1.579   7.224  0.6086 -0.6377 -1.1598
 2347SOL    HW2 8781   0.948   1.669   7.125 -1.1252 -1.1375 -0.3879
 2348SOL     OW 8782   3.427   0.007   3.234  0.0303 -0.1502 -0.2208
 2348SOL    HW1 8783   3.335   0.023   3.255  0.5486  2.0050  0.6527
 2348SOL    HW2 8784   3.475   0.036   3.311  1.4613 -1.2291 -0.6632
 2349SOL     OW 8785   0.393   1.334   6.510  0.6770  0.1684  0.3600
 2349SOL    HW1 8786   0.376   1.428   6.501 -1.9600 -0.4202 -2.7829
 2349SOL    HW2 8787   0.361   1.313   6.597  0.4841  2.0529  0.7981
 2350SOL     OW 8788   7.110   1.638   9.192 -0.0328  0.0488 -0.0276
 2350SOL    HW1 8789   7.194   1.681   9.173  0.4021 -1.3521 -1.5062
 2350SOL    HW2 8790   7.055   1.660   9.117 -0.7119  0.2346  0.5197
 2351SOL     OW 8791   3.147   2.600   7.984  0.1030 -0.6320  0.2683
 2351SOL    HW1 8792   3.238   2.571   7.977 -0.0048 -1.7254  2.5214
 2351SOL    HW2 8793   3.118   2.610   7.893  2.2456 -0.9304 -0.5003
 2352SOL     OW 8794   3.521   4.416   5.170 -0.2064  0.2104  0.2265
 2352SOL    HW1 8795   3.473   4.497   5.152 -1.5885 -0.5963  0.1639
 2352SOL    HW2 8796   3.537   4.418   5.265 -1.1421  0.0883  0.3956
 2353SOL     OW 8797   0.862   0.974   3.519 -0.2412 -0.4134 -0.1547
 2353SOL    HW1 8798   0.771   0.945   3.522 -1.0087  1.3439 -2.5381
 2353SOL    HW2 8799   0.875   1.003   3.428  2.8405 -0.9636 -0.0114
 2354SOL     OW 8800   0.822   3.922   1.206  0.0043  0.0969  0.4194
 2354SOL    HW1 8801   0.830   4.018   1.205 -0.4779  0.1364 -0.5015
 2354SOL    HW2 8802   0.913   3.891   1.205  0.2617  0.5103  3.1770
 2355SOL     OW 8803   5.768   2.220   9.533 -0.5097 -0.1614  0.5515
 2355SOL    HW1 8804   5.693   2.280   9.526  0.1118  0.6726  0.8562
 2355SOL    HW2 8805   5.763   2.184   9.621  0.0319  0.7073  0.9501
 2356SOL     OW 8806   6.591   6.830   3.682 -0.0670  0.0114 -0.1026
 2356SOL    HW1 8807   6.625   6.742   3.670 -0.3309 -0.2276  0.8134
 2356SOL    HW2 8808   6.533   6.844   3.607 -1.2560 -1.2109  0.5556
 2357SOL     OW 8809   9.111   6.568   0.593  0.0516  0.0502  0.1042
 2357SOL    HW1 8810   9.154   6.496   0.639 -1.1221 -0.5987  0.2256
 2357SOL    HW2 8811   9.026   6.533   0.568 -0.2489  1.1612 -0.4998
 2358SOL     OW 8812   9.124   3.611   2.523 -0.2240 -0.0149  0.5120
 2358SOL    HW1 8813   9.102   3.677   2.457  1.2049 -0.4946 -0.4784
 2358SOL    HW2 8814   9.105   3.654   2.607  0.3582  1.5280 -0.1168
 2359SOL     OW 8815   4.759   4.921   2.949  0.0595 -0.2007  0.3236
 2359SOL    HW1 8816   4.770   4.849   2.887  1.3022 -1.0171  1.4394
 2359SOL    HW2 8817   4.730   4.879   3.030 -2.7302  0.9753  0.0427
 2360SOL     OW 8818   3.146   5.692   1.392  0.2532 -0.7460 -0.6125
 2360SOL    HW1 8819   3.161   5.720   1.302 -0.6614 -0.7799 -0.7841
 2360SOL    HW2 8820   3.135   5.774   1.441 -0.2573 -0.7480 -0.7194
 2361SOL     OW 8821   7.022   6.112   6.348 -0.4148 -0.1947  0.2608
 2361SOL    HW1 8822   7.096   6.169   6.367  0.0510 -0.5913 -0.3344
 2361SOL    HW2 8823   7.060   6.024   6.343 -1.4490 -1.0352  3.7169
 2362SOL     OW 8824   2.743   4.539   2.587  0.2353 -0.4295  0.2487
 2362SOL    HW1 8825   2.706   4.627   2.600  1.3142  0.1439 -0.4401
 2362SOL    HW2 8826   2.823   4.539   2.639 -0.1206 -1.2669  0.8088
 2363SOL     OW 8827   8.544   3.706   8.468 -0.4146 -0.0027 -0.1855
 2363SOL    HW1 8828   8.537   3.613   8.443 -1.3821  0.5149 -2.0782
 2363SOL    HW2 8829   8.636   3.728   8.455  0.0276 -0.9050  1.2079
 2364SOL     OW 8830   7.989   8.814   1.471  0.0790  0.1186  0.4320
 2364SOL    HW1 8831   8.009   8.897   1.427 -1.5879 -0.3681 -1.3797
 2364SOL    HW2 8832   8.034   8.748   1.419  0.3529 -0.2482  1.1200
 2365SOL     OW 8833   1.074   2.178   3.220 -0.0758 -0.0644 -0.4097
 2365SOL    HW1 8834   1.152   2.232   3.234  0.7643 -1.3737  0.1993
 2365SOL    HW2 8835   1.013   2.235   3.173  1.1041  1.1075 -0.5784
 2366SOL     OW 8836   2.097   1.924   3.419 -0.2242  0.0732 -0.2963
 2366SOL    HW1 8837   2.102   1.977   3.339 -1.4765  0.6762 -0.0096
 2366SOL    HW2 8838   2.056   1.982   3.483 -1.0365 -1.0456  0.2254
 2367SOL     OW 8839   2.160   0.192   3.236 -0.4797  0.0778 -0.4589
 2367SOL    HW1 8840   2.111   0.204   3.155 -0.6136 -2.9407 -0.9173
 2367SOL    HW2 8841   2.099   0.218   3.305 -1.3443  0.0773 -1.2087
 2368SOL     OW 8842   4.945   0.374   7.864 -0.7554 -1.2350  0.2304
 2368SOL    HW1 8843   5.017   0.345   7.809 -1.7184 -1.8240 -0.7686
 2368SOL    HW2 8844   4.944   0.469   7.855  1.1253 -1.0038  1.8726
 2369SOL     OW 8845   7.664   6.290   3.509 -0.4078  0.0644  0.1425
 2369SOL    HW1 8846   7.638   6.380   3.488 -0.7337  0.1885  1.0535
 2369SOL    HW2 8847   7.713   6.298   3.590 -0.9726 -0.6518  0.5604
 2370SOL     OW 8848   6.318   9.298   6.347  0.3782 -0.0759 -0.6396
 2370SOL    HW1 8849   6.403   9.336   6.324  0.8486  0.1233  1.2582
 2370SOL    HW2 8850   6.291   9.346   6.425 -0.3811 -1.6903  0.1334
 2371SOL     OW 8851   3.491   4.401   3.299  0.3496  0.1070 -0.3173
 2371SOL    HW1 8852   3.428   4.400   3.227 -1.1115  0.1585  0.9124
 2371SOL    HW2 8853   3.569   4.443   3.262 -0.6187  0.7997 -1.6486
 2372SOL     OW 8854   5.746   1.270   6.436  0.5798  0.5048 -0.2020
 2372SOL    HW1 8855   5.786   1.195   6.481 -1.4014  0.3100  1.3643
 2372SOL    HW2 8856   5.661   1.237   6.406  0.0496  1.8827 -0.2492
 2373SOL     OW 8857   5.302   3.018   6.309  0.0997 -0.0766 -0.1711
 2373SOL    HW1 8858   5.210   3.032   6.330  0.3037  1.4310 -0.2210
 2373SOL    HW2 8859   5.336   2.969   6.384 -0.5273  0.1525  0.2682
 2374SOL     OW 8860   3.538   1.738   4.605 -0.1481 -0.1624  0.0987
 2374SOL    HW1 8861   3.573   1.782   4.682  1.4689 -2.2235  0.6256
 2374SOL    HW2 8862   3.610   1.742   4.541 -0.7982 -0.1115 -0.6492
 2375SOL     OW 8863   1.016   8.438   0.200  0.1030  0.4319  0.2844
 2375SOL    HW1 8864   1.085   8.402   0.144 -0.5515 -0.8425  0.2542
 2375SOL    HW2 8865   0.952   8.367   0.209 -0.9332  1.3776  0.7830
 2376SOL     OW 8866   5.618   1.346   4.716 -1.3103  0.0511 -0.7925
 2376SOL    HW1 8867   5.610   1.413   4.648  0.8659  0.8550 -0.3185
 2376SOL    HW2 8868   5.570   1.383   4.791 -0.6299  0.8239 -0.7307
 2377SOL     OW 8869   8.171   2.962   1.586  0.3360  0.3353  0.0338
 2377SOL    HW1 8870   8.260   2.996   1.595  0.5719  0.2075 -1.5682
 2377SOL    HW2 8871   8.124   2.999   1.661  1.2632  1.9562 -0.1412
 2378SOL     OW 8872   3.478   2.538   4.041  0.3158  0.0746 -0.1674
 2378SOL    HW1 8873   3.493   2.518   4.134  1.0499 -0.0606 -0.3083
 2378SOL    HW2 8874   3.501   2.631   4.034  0.5475  0.0110 -0.2688
 2379SOL     OW 8875   5.519   6.761   0.159  0.0897  0.7253  0.2423
 2379SOL    HW1 8876   5.537   6.687   0.101  0.2628 -0.5703  1.8842
 2379SOL    HW2 8877   5.424   6.762   0.167 -0.0248  1.7000 -1.0289
 2380SOL     OW 8878   5.474   2.716   5.779 -0.3165  0.3832 -0.7411
 2380SOL    HW1 8879   5.486   2.809   5.798 -0.1873  0.8200 -2.7278
 2380SOL    HW2 8880   5.555   2.691   5.733 -0.8600 -0.3840 -1.2942
 2381SOL     OW 8881   5.532   2.379   6.911  0.1240 -0.0929 -0.1614
 2381SOL    HW1 8882   5.572   2.342   6.832 -2.0007  2.2192 -2.5753
 2381SOL    HW2 8883   5.537   2.310   6.976  2.8958 -1.8062 -1.9865
 2382SOL     OW 8884   3.040   4.206   0.721 -0.3297  0.5151 -0.0897
 2382SOL    HW1 8885   2.988   4.130   0.695  1.1253 -0.4266 -0.3185
 2382SOL    HW2 8886   3.001   4.279   0.672  0.3478 -0.6734 -2.5304
 2383SOL     OW 8887   6.836   6.090   2.974 -0.0809  0.6513 -0.3799
 2383SOL    HW1 8888   6.904   6.033   2.939 -0.7971  0.6283 -1.7838
 2383SOL    HW2 8889   6.868   6.114   3.061  0.3349 -1.7133  0.2020
 2384SOL     OW 8890   8.088   7.733   7.411  0.0329  0.0994 -0.0768
 2384SOL    HW1 8891   8.026   7.723   7.483 -0.1332  0.4698 -0.1694
 2384SOL    HW2 8892   8.034   7.744   7.333  0.2120  0.1835 -0.1914
 2385SOL     OW 8893   6.712   0.034   7.895 -0.5461 -0.6126  0.3373
 2385SOL    HW1 8894   6.698  -0.006   7.980 -0.2170  0.5967  0.9902
 2385SOL    HW2 8895   6.625   0.062   7.867 -0.3574  1.6039  1.6724
 2386SOL     OW 8896   2.356   7.321   2.879  0.0189 -0.3166 -0.1386
 2386SOL    HW1 8897   2.361   7.403   2.928  0.0372 -0.1721 -0.3794
 2386SOL    HW2 8898   2.270   7.285   2.900  1.0296 -1.6263  2.1398
 2387SOL     OW 8899   1.134   3.844   7.034 -0.2648  0.3426 -0.0505
 2387SOL    HW1 8900   1.184   3.762   7.031  0.1946  0.6335 -0.7974
 2387SOL    HW2 8901   1.108   3.859   6.943 -0.5806  0.8890  0.1246
 2388SOL     OW 8902   8.693   5.807   7.699 -0.3039  0.2672 -0.1801
 2388SOL    HW1 8903   8.665   5.859   7.775  0.0750 -1.2209  1.0290
 2388SOL    HW2 8904   8.786   5.792   7.713 -0.6373 -1.7518  0.1806
 2389SOL     OW 8905   0.123   6.163   4.592 -0.0456  0.4232 -0.2308
 2389SOL    HW1 8906   0.152   6.128   4.676 -1.0848  1.3334  0.5549
 2389SOL    HW2 8907   0.155   6.253   4.591 -1.3254  0.9063 -0.0989
 2390SOL     OW 8908   5.881   8.165   0.286 -0.4220  0.4872  0.0321
 2390SOL    HW1 8909   5.962   8.136   0.328 -0.4217  1.5640  0.8002
 2390SOL    HW2 8910   5.817   8.098   0.310 -0.0489  0.2643  0.4280
 2391SOL     OW 8911   7.329   4.233   5.711 -0.3075 -0.0531 -0.0837
 2391SOL    HW1 8912   7.414   4.271   5.731  0.7858 -3.0917  1.6752
 2391SOL    HW2 8913   7.266   4.297   5.743  1.3487  1.2447  0.7177
 2392SOL     OW 8914   7.434   5.424   8.753 -0.2882  0.3559 -0.3965
 2392SOL    HW1 8915   7.398   5.513   8.755 -0.1079  0.4306 -0.4412
 2392SOL    HW2 8916   7.502   5.428   8.686  2.2112  1.1562  1.9785
 2393SOL     OW 8917   2.656   2.015   0.290  0.5950 -0.2407 -0.0643
 2393SOL    HW1 8918   2.564   2.019   0.265  1.0800  0.5301 -1.8535
 2393SOL    HW2 8919   2.683   2.106   0.299  1.1766 -0.4602  0.5353
 2394SOL     OW 8920   4.279   0.363   9.365 -0.3091  0.2853 -0.2686
 2394SOL    HW1 8921   4.184   0.365   9.357 -0.7988 -2.1388  3.0481
 2394SOL    HW2 8922   4.302   0.449   9.401 -1.3535  0.5837 -0.2871
 2395SOL     OW 8923   1.789   9.393   5.093  0.3226  0.2788  0.5787
 2395SOL    HW1 8924   1.717   9.330   5.092 -0.6779  1.3487  1.7778
 2395SOL    HW2 8925   1.752   9.471   5.052  1.4225  0.2639 -0.5205
 2396SOL     OW 8926   7.465   5.891   5.187 -0.0389  0.3411  0.2223
 2396SOL    HW1 8927   7.447   5.934   5.104  1.4125 -0.3978 -0.5131
 2396SOL    HW2 8928   7.539   5.940   5.224 -0.1043  0.1189  0.6600
 2397SOL     OW 8929   0.060   7.804   2.559  0.5007  0.0335  0.1489
 2397SOL    HW1 8930   0.148   7.786   2.526  0.3967  1.0459 -0.7461
 2397SOL    HW2 8931   0.069   7.799   2.654  1.0138 -2.0390  0.0252
 2398SOL     OW 8932   2.062   4.399   6.435 -0.5371  0.7290 -0.0792
 2398SOL    HW1 8933   2.116   4.385   6.513 -1.5049 -0.7116  0.3850
 2398SOL    HW2 8934   2.108   4.353   6.365 -1.4325 -1.0911  0.4617
 2399SOL     OW 8935   3.407   1.460   3.685  0.3427  0.3493 -0.1191
 2399SOL    HW1 8936   3.394   1.368   3.660  0.3816  0.2009  0.3948
 2399SOL    HW2 8937   3.444   1.455   3.773 -1.9173  0.9069  0.9191
 2400SOL     OW 8938   3.826   3.149   6.349 -0.2769 -0.4169  0.0520
 2400SOL    HW1 8939   3.762   3.189   6.408  0.8039 -0.1373  1.0532
 2400SOL    HW2 8940   3.774   3.122   6.273 -1.1314  2.6346 -0.5983
 2401SOL     OW 8941   5.327   1.060   4.693  0.3768  0.4002 -0.8560
 2401SOL    HW1 8942   5.350   1.021   4.608 -2.8222  0.1585 -1.7388
 2401SOL    HW2 8943   5.256   1.121   4.673 -0.5922  0.2159  1.6507
 2402SOL     OW 8944   1.309   3.063   1.176 -0.2785  0.3282  0.1867
 2402SOL    HW1 8945   1.315   3.058   1.081  1.0077  1.7160  0.1505
 2402SOL    HW2 8946   1.261   3.145   1.193  0.2561  0.5381  0.7286
 2403SOL     OW 8947   8.881   8.634   8.789  0.4834 -0.6987 -0.1114
 2403SOL    HW1 8948   8.860   8.558   8.844  1.1606 -0.9509 -0.1959
 2403SOL    HW2 8949   8.900   8.704   8.852  0.0686 -0.6472 -0.0350
 2404SOL     OW 8950   4.728   1.091   0.060  0.5523  0.3924 -0.2976
 2404SOL    HW1 8951   4.754   1.091   0.152 -2.1197  0.3453  0.5137
 2404SOL    HW2 8952   4.683   1.174   0.047  0.0573 -0.0133 -1.3053
 2405SOL     OW 8953   3.266   1.268   6.308 -0.1352 -0.3395  0.4739
 2405SOL    HW1 8954   3.179   1.285   6.272 -0.2265  0.3770  1.0043
 2405SOL    HW2 8955   3.290   1.182   6.274 -0.1608  0.3547 -1.3840
 2406SOL     OW 8956   5.474   8.284   7.127 -0.4025  0.2123 -0.5414
 2406SOL    HW1 8957   5.524   8.329   7.059  0.6751 -0.9657 -0.5694
 2406SOL    HW2 8958   5.495   8.331   7.208  0.8103 -0.2860 -0.5505
 2407SOL     OW 8959   6.157   4.963   2.509 -0.4520  0.3748  0.0064
 2407SOL    HW1 8960   6.064   4.958   2.488 -0.7796 -0.9183  1.5793
 2407SOL    HW2 8961   6.183   5.051   2.483 -1.7867  0.3126 -1.6847
 2408SOL     OW 8962   1.556   7.740   0.621 -0.5057  0.9235  0.0357
 2408SOL    HW1 8963   1.548   7.834   0.604 -0.9084  0.8794 -0.0216
 2408SOL    HW2 8964   1.493   7.699   0.562 -0.0394  0.5852 -0.2309
 2409SOL     OW 8965   7.864   5.971   3.047  0.1408 -0.0165 -0.0392
 2409SOL    HW1 8966   7.908   5.889   3.068 -1.2440 -1.2831 -1.7541
 2409SOL    HW2 8967   7.770   5.950   3.053 -0.2537  1.7778  0.6564
 2410SOL     OW 8968   6.287   0.601   6.147 -0.0383  0.4975 -0.4709
 2410SOL    HW1 8969   6.281   0.595   6.052  0.7133 -1.1227 -0.4460
 2410SOL    HW2 8970   6.251   0.519   6.179  3.0099 -0.6082  0.4467
 2411SOL     OW 8971   2.700   4.032   0.289  0.1615 -0.0494 -0.2327
 2411SOL    HW1 8972   2.761   4.090   0.335 -0.3821 -0.4127  0.9706
 2411SOL    HW2 8973   2.753   3.992   0.219  0.7506  1.2326 -0.5392
 2412SOL     OW 8974   3.249   7.345   4.960 -0.3412  0.3187 -0.1947
 2412SOL    HW1 8975   3.186   7.279   4.929  0.6895  0.6678 -3.3418
 2412SOL    HW2 8976   3.200   7.427   4.958 -1.0473  0.0062  1.8435
 2413SOL     OW 8977   8.408   6.526   7.706 -0.3740 -0.5024 -0.4441
 2413SOL    HW1 8978   8.464   6.566   7.772  0.2220 -2.1940  0.1459
 2413SOL    HW2 8979   8.344   6.593   7.684  0.6772  0.7983  0.3330
 2414SOL     OW 8980   6.360   5.958   8.123 -0.1682  0.1366 -0.0139
 2414SOL    HW1 8981   6.406   5.974   8.206 -1.6250 -0.4153  0.9439
 2414SOL    HW2 8982   6.337   5.865   8.127 -2.6815  0.6967  0.2782
 2415SOL     OW 8983   6.583   9.538   4.193 -0.0802  0.6345  0.4600
 2415SOL    HW1 8984   6.548   9.451   4.209 -2.3464  1.0961 -1.5015
 2415SOL    HW2 8985   6.646   9.526   4.121  0.3081  0.4969  0.8191
 2416SOL     OW 8986   7.187   4.792   5.788  0.3157 -0.2680 -0.0805
 2416SOL    HW1 8987   7.258   4.854   5.808  0.1854  0.4366 -1.5911
 2416SOL    HW2 8988   7.107   4.840   5.809  0.2544 -0.6127  0.4772
 2417SOL     OW 8989   9.486   5.736   1.818 -0.0253 -0.0026  0.4191
 2417SOL    HW1 8990   9.582   5.734   1.809  0.0891 -0.9581  1.6375
 2417SOL    HW2 8991   9.471   5.766   1.908 -0.8752  0.0484  0.2661
 2418SOL     OW 8992   5.759   8.863   5.881  0.3479 -0.4066 -0.1689
 2418SOL    HW1 8993   5.665   8.867   5.868  0.5715  1.0530 -1.6018
 2418SOL    HW2 8994   5.778   8.933   5.944  0.7651  1.2595 -2.0680
 2419SOL     OW 8995   5.012   4.910   1.897  0.7250 -0.5377 -0.2110
 2419SOL    HW1 8996   5.102   4.890   1.873  1.5524  1.0578  1.3607
 2419SOL    HW2 8997   5.002   4.875   1.985  0.3081  0.5698  0.2079
 2420SOL     OW 8998   2.240   9.390   1.339 -0.3467  0.0905 -0.5667
 2420SOL    HW1 8999   2.179   9.318   1.355  0.1080 -0.1990 -0.0778
 2420SOL    HW2 9000   2.187   9.459   1.301 -1.0633 -0.0099  0.2179
 2421SOL     OW 9001   2.997   1.982   6.701  0.1400 -0.1913 -0.3454
 2421SOL    HW1 9002   2.911   1.952   6.670 -0.4814  1.5792 -0.4596
 2421SOL    HW2 9003   3.005   1.943   6.788 -0.0258 -1.6996 -0.9683
 2422SOL     OW 9004   0.067   7.780   4.477  0.2867  0.7736 -0.2129
 2422SOL    HW1 9005   0.019   7.778   4.395  2.8916  1.0247 -1.8689
 2422SOL    HW2 9006   0.114   7.697   4.480  1.3556  1.3665  0.2810
 2423SOL     OW 9007   1.037   6.169   7.168  0.2675  0.6044 -0.1818
 2423SOL    HW1 9008   1.031   6.208   7.081  1.9627  0.3961 -0.4324
 2423SOL    HW2 9009   1.106   6.103   7.160  1.4297  1.4933  1.6286
 2424SOL     OW 9010   3.201   1.281   1.249 -0.0077 -0.0572  0.2192
 2424SOL    HW1 9011   3.108   1.302   1.238  0.1879  0.9404  0.3945
 2424SOL    HW2 9012   3.209   1.192   1.214 -0.6052  0.6424 -1.8769
 2425SOL     OW 9013   6.423   4.217   1.311  0.2065 -0.5092  0.1994
 2425SOL    HW1 9014   6.516   4.221   1.334  0.5473  0.6303 -1.1944
 2425SOL    HW2 9015   6.382   4.285   1.365  0.5010  0.1611 -0.3970
 2426SOL     OW 9016   3.941   3.177   7.635 -0.3441 -0.3315 -0.2835
 2426SOL    HW1 9017   3.859   3.144   7.598  0.2879 -2.3838 -0.0046
 2426SOL    HW2 9018   3.926   3.180   7.729 -0.2868 -0.0981 -0.2806
 2427SOL     OW 9019   1.916   9.588   9.087 -0.3087  0.0506  0.0904
 2427SOL    HW1 9020   1.966   9.520   9.042 -0.3203  0.7219 -0.9688
 2427SOL    HW2 9021   1.876   9.639   9.017 -2.3528 -0.3471  0.8959
 2428SOL     OW 9022   1.496   3.269   4.513 -0.6363 -0.0254  0.1016
 2428SOL    HW1 9023   1.566   3.228   4.462 -1.0494 -0.8124  0.1495
 2428SOL    HW2 9024   1.538   3.343   4.556 -0.1450  0.2989 -0.9105
 2429SOL     OW 9025   3.329   5.001   6.511 -0.4440  0.2283 -0.4451
 2429SOL    HW1 9026   3.312   5.016   6.418  0.3823 -1.0335 -0.8209
 2429SOL    HW2 9027   3.382   5.076   6.538  0.3877 -0.0343 -1.3116
 2430SOL     OW 9028   9.366   5.181   5.035 -0.1599  0.6621  0.1077
 2430SOL    HW1 9029   9.272   5.180   5.015 -0.2019 -1.4715  0.2248
 2430SOL    HW2 9030   9.383   5.270   5.067 -2.1127  1.1133 -0.0103
 2431SOL     OW 9031   9.276   5.250   8.307 -0.4642 -0.5382  0.5429
 2431SOL    HW1 9032   9.231   5.199   8.375 -0.7447  0.9985  1.5580
 2431SOL    HW2 9033   9.237   5.337   8.313  3.3679  1.2891  2.2867
 2432SOL     OW 9034   0.484   1.896   8.654  0.6437  0.3126 -0.4946
 2432SOL    HW1 9035   0.540   1.927   8.724  0.8080 -4.2232  1.7903
 2432SOL    HW2 9036   0.544   1.874   8.583  1.1637  0.1250 -0.0013
 2433SOL     OW 9037   9.565   6.952   5.820 -0.2917 -0.3090 -0.1628
 2433SOL    HW1 9038   9.496   7.018   5.825 -0.2056 -0.1694 -0.7483
 2433SOL    HW2 9039   9.565   6.910   5.906 -1.1104 -0.3154 -0.1605
 2434SOL     OW 9040   3.768   3.371   3.746  0.4196 -0.0106 -0.0841
 2434SOL    HW1 9041   3.860   3.394   3.757  0.4063 -0.6170  1.6399
 2434SOL    HW2 9042   3.764   3.277   3.768 -1.0077  0.6317  3.0578
 2435SOL     OW 9043   1.011   8.349   5.172 -0.2467  0.1489 -0.2997
 2435SOL    HW1 9044   1.052   8.374   5.089  0.1726 -1.2252 -0.5333
 2435SOL    HW2 9045   0.976   8.261   5.155  1.4670 -0.9536  1.5196
 2436SOL     OW 9046   7.383   4.455   4.588  0.1899 -0.1159 -0.0187
 2436SOL    HW1 9047   7.298   4.417   4.564  0.8745 -1.5443 -0.3127
 2436SOL    HW2 9048   7.426   4.385   4.638  1.7479  0.0331 -1.1049
 2437SOL     OW 9049   6.933   7.725   2.711  0.0285 -0.3546 -0.0596
 2437SOL    HW1 9050   6.895   7.662   2.650 -0.1668 -2.1909  1.8347
 2437SOL    HW2 9051   6.861   7.746   2.771  0.6909 -0.0667  0.6435
 2438SOL     OW 9052   1.202   0.428   4.468 -0.5677  0.2103 -0.0067
 2438SOL    HW1 9053   1.199   0.493   4.397  0.1282  0.6309  0.3434
 2438SOL    HW2 9054   1.124   0.446   4.521 -0.5494  0.5419 -0.0938
 2439SOL     OW 9055   5.027   5.416   9.108 -0.1477  0.1757  0.1547
 2439SOL    HW1 9056   5.068   5.348   9.054 -0.4516  0.6875 -0.7420
 2439SOL    HW2 9057   5.061   5.498   9.073 -0.2142  0.5167  0.8713
 2440SOL     OW 9058   9.355   4.047   7.986 -0.1456 -0.3600  0.2995
 2440SOL    HW1 9059   9.271   4.067   7.945 -0.8447 -0.2983  1.6959
 2440SOL    HW2 9060   9.361   3.952   7.982 -0.6148 -0.4160  0.8001
 2441SOL     OW 9061   1.305   2.760   3.445  0.0397  0.3949 -0.5317
 2441SOL    HW1 9062   1.323   2.803   3.528 -0.3425 -1.5213  0.6018
 2441SOL    HW2 9063   1.373   2.793   3.386 -0.0741  2.2915  0.3065
 2442SOL     OW 9064   9.294   3.441   3.371 -0.3183  0.3021 -0.3985
 2442SOL    HW1 9065   9.264   3.351   3.364 -0.3985  0.2182  0.7659
 2442SOL    HW2 9066   9.345   3.443   3.452  0.4123  1.1036 -0.8564
 2443SOL     OW 9067   8.239   1.344   2.883 -0.0964  0.0892 -0.2295
 2443SOL    HW1 9068   8.268   1.290   2.956  1.9693  0.6483 -0.5694
 2443SOL    HW2 9069   8.186   1.285   2.829 -0.3883 -0.7331  0.9179
 2444SOL     OW 9070   5.672   8.524   4.319  0.6030 -0.1930 -0.7289
 2444SOL    HW1 9071   5.694   8.549   4.229 -0.0488 -1.8640 -1.3860
 2444SOL    HW2 9072   5.639   8.435   4.312  1.5213 -0.7425  1.3290
 2445SOL     OW 9073   1.904   6.382   6.068 -0.4285  0.4026 -0.1341
 2445SOL    HW1 9074   1.830   6.431   6.103 -1.8455 -1.1839 -0.7638
 2445SOL    HW2 9075   1.865   6.315   6.012  1.4672 -0.6639 -0.2863
 2446SOL     OW 9076   2.252   2.440   0.259 -0.0818  0.1634  0.0833
 2446SOL    HW1 9077   2.265   2.472   0.170 -3.2598 -2.4207 -1.5392
 2446SOL    HW2 9078   2.210   2.513   0.305 -1.2855  0.5627 -1.5524
 2447SOL     OW 9079   2.789   1.109   2.096 -0.4220 -0.6108 -0.0718
 2447SOL    HW1 9080   2.792   1.017   2.069  0.5764 -0.4806 -0.4299
 2447SOL    HW2 9081   2.714   1.145   2.049  0.0720 -0.8879 -1.0866
 2448SOL     OW 9082   0.317   1.297   4.498  0.3071 -0.1817 -0.2678
 2448SOL    HW1 9083   0.404   1.268   4.471  1.1277  1.0285  0.9552
 2448SOL    HW2 9084   0.319   1.295   4.593 -1.4703 -1.3564 -0.1910
 2449SOL     OW 9085   1.625   8.512   2.726  0.0929  0.2077  0.6726
 2449SOL    HW1 9086   1.553   8.467   2.682 -0.2630 -0.4836  1.8947
 2449SOL    HW2 9087   1.607   8.605   2.714 -0.6213  0.0368  0.3642
 2450SOL     OW 9088   5.407   2.282   7.428 -0.7873  0.3339 -0.1601
 2450SOL    HW1 9089   5.477   2.311   7.485 -1.0633 -0.7478  0.7783
 2450SOL    HW2 9090   5.368   2.362   7.393 -0.1477  0.9837  0.6091
 2451SOL     OW 9091   0.549   2.911   6.292 -0.0680  0.1442  0.6284
 2451SOL    HW1 9092   0.599   2.992   6.301  0.8467 -0.4102  0.6487
 2451SOL    HW2 9093   0.582   2.854   6.361  1.3187 -1.2335 -1.0553
 2452SOL     OW 9094   3.149   7.280   3.377  0.0600 -0.6642  0.3358
 2452SOL    HW1 9095   3.060   7.260   3.347 -1.2097  1.5329  2.3159
 2452SOL    HW2 9096   3.179   7.200   3.418 -1.1392 -1.3556 -0.0714
 2453SOL     OW 9097   2.814   3.529   6.920  0.6984  0.2184 -0.4691
 2453SOL    HW1 9098   2.898   3.572   6.938  0.1419  0.8105  0.8365
 2453SOL    HW2 9099   2.835   3.464   6.853  2.0184  0.9735 -0.8309
 2454SOL     OW 9100   6.808   6.543   2.094 -0.1311  0.3397  0.0220
 2454SOL    HW1 9101   6.722   6.536   2.052 -0.4598 -1.3259  0.8832
 2454SOL    HW2 9102   6.840   6.453   2.100  2.3708  1.0185 -1.5718
 2455SOL     OW 9103   6.756   7.144   4.669  0.0857 -0.2344 -0.3439
 2455SOL    HW1 9104   6.822   7.119   4.733  0.6966  0.3813 -0.7108
 2455SOL    HW2 9105   6.675   7.102   4.699  0.6892 -1.1738 -0.0050
 2456SOL     OW 9106   5.789   7.736   5.750 -0.2036  0.5948  0.4147
 2456SOL    HW1 9107   5.753   7.824   5.739 -2.6365 -0.3166  0.5072
 2456SOL    HW2 9108   5.766   7.691   5.669  0.4461 -0.1651  0.6386
 2457SOL     OW 9109   0.682   2.631   9.335 -0.0461  0.1297  0.8578
 2457SOL    HW1 9110   0.599   2.669   9.363  0.0001  0.5672  0.4139
 2457SOL    HW2 9111   0.706   2.679   9.256  1.0462  0.5692  1.4299
 2458SOL     OW 9112   0.633   3.476   2.065  0.2865  0.0598 -0.0365
 2458SOL    HW1 9113   0.647   3.417   2.139  1.8055 -0.6490 -0.8412
 2458SOL    HW2 9114   0.602   3.558   2.105  0.3795 -0.5354  1.3053
 2459SOL     OW 9115   5.550   2.227   4.018  0.6755 -0.2845 -0.3786
 2459SOL    HW1 9116   5.456   2.211   4.017  0.5794  0.2384 -0.1582
 2459SOL    HW2 9117   5.590   2.140   4.007  0.1743 -0.7477  1.2076
 2460SOL     OW 9118   1.894   1.731   6.967 -0.1198 -0.8519 -0.1861
 2460SOL    HW1 9119   1.863   1.728   6.876  0.2365 -0.0818 -0.3351
 2460SOL    HW2 9120   1.863   1.815   7.000 -0.0643 -1.0397  0.3460
 2461SOL     OW 9121   7.798   8.684   5.525  0.2620  0.3068  0.2845
 2461SOL    HW1 9122   7.730   8.618   5.541 -0.1971 -0.8273 -4.5515
 2461SOL    HW2 9123   7.879   8.633   5.518  0.4045  0.6338 -0.5453
 2462SOL     OW 9124   5.313   5.185   4.696 -0.7274 -0.1812  0.0575
 2462SOL    HW1 9125   5.263   5.258   4.661 -0.5111  0.1062  0.3466
 2462SOL    HW2 9126   5.401   5.196   4.660 -0.7283 -0.3769 -0.0088
 2463SOL     OW 9127   8.204   8.829   4.904 -0.4668 -0.1574  0.2487
 2463SOL    HW1 9128   8.198   8.755   4.965 -1.5358 -0.6958 -0.4869
 2463SOL    HW2 9129   8.125   8.880   4.920  0.7177  1.3915  1.4203
 2464SOL     OW 9130   8.800   5.141   8.358  0.2106  0.2533 -0.6879
 2464SOL    HW1 9131   8.809   5.211   8.294 -0.7175  0.1398 -0.9583
 2464SOL    HW2 9132   8.817   5.061   8.309 -1.3345  0.0999 -1.0182
 2465SOL     OW 9133   7.906   0.826   2.291  0.2615  0.3768  0.0969
 2465SOL    HW1 9134   7.949   0.911   2.303  1.1791 -0.3283  2.2271
 2465SOL    HW2 9135   7.828   0.846   2.240  0.0043  2.6501  1.2448
 2466SOL     OW 9136   3.397   6.791   5.863  0.0030  0.1174  0.2601
 2466SOL    HW1 9137   3.434   6.721   5.811 -0.1431 -1.1370  1.7794
 2466SOL    HW2 9138   3.430   6.871   5.822  1.6073 -0.8589 -0.4630
 2467SOL     OW 9139   8.704   7.029   0.336  0.2096  0.4321  0.1394
 2467SOL    HW1 9140   8.660   7.029   0.251  0.8975 -0.3468 -0.2334
 2467SOL    HW2 9141   8.638   6.996   0.397 -0.0261  0.1876 -0.2440
 2468SOL     OW 9142   3.345   9.193   5.565 -0.3306 -0.0612 -0.0184
 2468SOL    HW1 9143   3.285   9.157   5.499  0.0887 -1.4637  0.3236
 2468SOL    HW2 9144   3.300   9.177   5.649  0.0052 -0.0894  0.1574
 2469SOL     OW 9145   6.542   8.532   2.423  0.3261 -0.3950 -0.6492
 2469SOL    HW1 9146   6.619   8.530   2.366 -0.3250 -0.6820 -1.5443
 2469SOL    HW2 9147   6.552   8.455   2.479  2.8767  1.8308  2.2984
 2470SOL     OW 9148   1.556   8.600   3.821 -0.1235 -0.0622  0.1627
 2470SOL    HW1 9149   1.483   8.603   3.882 -0.6519 -0.3350 -0.4500
 2470SOL    HW2 9150   1.630   8.570   3.874 -0.2314  1.0856  0.9939
 2471SOL     OW 9151   6.385   8.815   8.051  0.4944  0.4008 -0.1044
 2471SOL    HW1 9152   6.479   8.815   8.069  0.1450 -1.8709  2.2559
 2471SOL    HW2 9153   6.377   8.782   7.962  1.9054  0.7984 -0.4044
 2472SOL     OW 9154   6.311   2.619   3.298 -0.9827  0.2903 -0.4907
 2472SOL    HW1 9155   6.272   2.532   3.289  1.2024 -1.3522  3.5054
 2472SOL    HW2 9156   6.390   2.616   3.244 -0.6456 -0.4037  0.0391
 2473SOL     OW 9157   1.826   1.315   7.961 -0.7655 -0.0240 -0.2061
 2473SOL    HW1 9158   1.801   1.223   7.952  1.1639 -0.8227  1.7395
 2473SOL    HW2 9159   1.766   1.350   8.027 -1.4029  0.0977 -0.8379
 2474SOL     OW 9160   1.621   0.754   2.503  0.7625 -0.0399  0.3407
 2474SOL    HW1 9161   1.581   0.679   2.548 -1.9325  0.3774 -1.1831
 2474SOL    HW2 9162   1.635   0.723   2.413  0.6745  0.9256 -0.0121
 2475SOL     OW 9163   6.594   0.444   2.710 -0.0729  0.0910 -0.5022
 2475SOL    HW1 9164   6.683   0.409   2.700  1.1719  2.2555  1.7862
 2475SOL    HW2 9165   6.538   0.367   2.709  1.7364 -1.3329 -2.3934
 2476SOL     OW 9166   2.374   3.767   3.997  0.5295 -0.0527 -0.7424
 2476SOL    HW1 9167   2.377   3.854   4.038  3.3564 -0.4077  0.0340
 2476SOL    HW2 9168   2.283   3.739   4.005  0.3798  1.0160  3.0116
 2477SOL     OW 9169   5.976   8.166   1.097  0.1751 -0.1562  0.0276
 2477SOL    HW1 9170   5.884   8.193   1.094 -0.4765 -2.0622  1.1609
 2477SOL    HW2 9171   6.000   8.175   1.189  0.5211 -1.4987  0.0792
 2478SOL     OW 9172   1.859   3.616   9.381 -0.1659 -0.2146 -0.0473
 2478SOL    HW1 9173   1.833   3.538   9.430  0.6269 -0.2699  0.2892
 2478SOL    HW2 9174   1.778   3.643   9.337 -0.5421 -1.0059  0.1228
 2479SOL     OW 9175   7.902   4.313   3.415 -0.0662  0.3554  0.1485
 2479SOL    HW1 9176   7.893   4.357   3.331  1.1360  1.2082  0.4458
 2479SOL    HW2 9177   7.950   4.374   3.470  0.7591 -0.9043  0.8943
 2480SOL     OW 9178   3.765   7.910   6.042 -0.1753 -0.0228 -0.0167
 2480SOL    HW1 9179   3.724   7.829   6.071  0.7288 -1.4072 -2.3824
 2480SOL    HW2 9180   3.843   7.918   6.097  0.2936 -1.3443 -0.4663
 2481SOL     OW 9181   1.244   1.588   7.017  0.4897  0.0838 -0.0501
 2481SOL    HW1 9182   1.168   1.532   7.008 -0.7194  1.4921  0.9683
 2481SOL    HW2 9183   1.238   1.649   6.943  0.6338  0.1998  0.0329
 2482SOL     OW 9184   5.669   8.497   8.158 -0.7435 -0.6862 -0.0768
 2482SOL    HW1 9185   5.749   8.446   8.176 -0.5460 -0.5300 -0.4982
 2482SOL    HW2 9186   5.636   8.520   8.245 -1.3556 -2.3138  0.1552
 2483SOL     OW 9187   6.836   2.187   2.729 -0.1051  0.3606 -0.3343
 2483SOL    HW1 9188   6.850   2.281   2.743 -0.9275  0.2331  1.7748
 2483SOL    HW2 9189   6.864   2.147   2.811 -1.6091 -1.0315 -0.4558
 2484SOL     OW 9190   6.514   2.691   4.046  0.0690 -0.0559 -0.4199
 2484SOL    HW1 9191   6.595   2.700   4.094 -0.6204 -0.2644  0.8171
 2484SOL    HW2 9192   6.494   2.780   4.015  0.0709  0.2556  0.4444
 2485SOL     OW 9193   9.172   6.972   0.534  0.1323 -0.5174  0.3178
 2485SOL    HW1 9194   9.217   6.916   0.471 -1.2076 -1.9831  0.6042
 2485SOL    HW2 9195   9.080   6.948   0.527 -0.6941  2.4696 -0.3325
 2486SOL     OW 9196   4.747   3.754   2.530  0.0135 -0.2982 -0.5204
 2486SOL    HW1 9197   4.833   3.793   2.516  0.3235 -0.4477  0.8202
 2486SOL    HW2 9198   4.701   3.817   2.587  0.2081 -1.4271  0.9471
 2487SOL     OW 9199   4.519   0.528   9.048  0.0874 -0.6185 -0.0269
 2487SOL    HW1 9200   4.525   0.517   8.953  1.1473  0.7558 -0.1499
 2487SOL    HW2 9201   4.453   0.463   9.075 -1.0871 -0.2635 -1.8244
 2488SOL     OW 9202   7.515   1.606   6.361 -0.0961 -0.7147  0.2303
 2488SOL    HW1 9203   7.460   1.583   6.287  1.0800 -1.7262 -0.3758
 2488SOL    HW2 9204   7.526   1.524   6.409 -1.3053  0.0464  1.8664
 2489SOL     OW 9205   1.606   6.231   3.821  0.0919 -0.3074  0.2806
 2489SOL    HW1 9206   1.653   6.278   3.890  0.7931 -1.5932  0.7203
 2489SOL    HW2 9207   1.554   6.166   3.869 -0.2649 -0.4885 -0.3517
 2490SOL     OW 9208   0.374   0.106   2.942  0.5731  0.2405 -0.6214
 2490SOL    HW1 9209   0.333   0.019   2.942  1.9616 -0.6112  3.2780
 2490SOL    HW2 9210   0.402   0.119   2.851 -1.9857 -2.1646 -1.9168
 2491SOL     OW 9211   4.646   7.571   7.216  0.3177 -0.1386 -0.3280
 2491SOL    HW1 9212   4.734   7.573   7.179  0.4157  1.9145 -0.1054
 2491SOL    HW2 9213   4.592   7.531   7.148  1.2640 -0.5998 -0.8202
 2492SOL     OW 9214   0.266   8.404   1.804 -0.3728  0.0767  0.5485
 2492SOL    HW1 9215   0.214   8.337   1.759 -0.0609  0.6793 -0.7684
 2492SOL    HW2 9216   0.294   8.463   1.734  1.7164  0.0371  1.2856
 2493SOL     OW 9217   8.175   6.879   4.783  0.1927 -0.3408  0.4468
 2493SOL    HW1 9218   8.170   6.923   4.698 -1.9542  0.5684  0.9667
 2493SOL    HW2 9219   8.229   6.802   4.767  1.0459  0.5786 -1.3787
 2494SOL     OW 9220   8.461   6.387   9.412  0.6614  0.4657 -0.7764
 2494SOL    HW1 9221   8.533   6.376   9.351 -0.4644  0.2579 -2.1272
 2494SOL    HW2 9222   8.395   6.323   9.384 -0.2500  0.9906  0.0874
 2495SOL     OW 9223   7.093   7.061   4.637 -0.3403 -0.3419 -0.2222
 2495SOL    HW1 9224   7.027   7.105   4.691 -0.2247  0.3412 -0.6275
 2495SOL    HW2 9225   7.164   7.040   4.698 -0.0857  0.6776 -0.1499
 2496SOL     OW 9226   2.142   2.502   0.521 -0.2733 -0.3218  0.6776
 2496SOL    HW1 9227   2.220   2.488   0.574  0.9081 -1.0858 -1.1820
 2496SOL    HW2 9228   2.072   2.513   0.585  1.0292 -1.4375  2.3877
 2497SOL     OW 9229   0.319   3.959   6.818  0.1538 -0.4700 -0.1455
 2497SOL    HW1 9230   0.282   3.873   6.797 -1.3153  0.0640  0.1706
 2497SOL    HW2 9231   0.291   3.976   6.907 -0.4078  0.7664 -0.5431
 2498SOL     OW 9232   0.687   3.932   4.085  0.5080 -0.1429 -0.6369
 2498SOL    HW1 9233   0.774   3.893   4.084  0.4081 -0.4237  0.5702
 2498SOL    HW2 9234   0.656   3.924   3.994  1.6492 -0.2039 -1.0348
 2499SOL     OW 9235   4.969   3.662   0.198  0.1481  0.9533 -0.6864
 2499SOL    HW1 9236   5.045   3.609   0.176  0.1970  1.0247 -0.6898
 2499SOL    HW2 9237   4.927   3.679   0.114 -1.4742 -1.4734 -0.4571
 2500SOL     OW 9238   5.126   1.112   0.731  0.1986 -0.3508  0.2221
 2500SOL    HW1 9239   5.049   1.168   0.738  0.5231  0.2697 -0.9311
 2500SOL    HW2 9240   5.091   1.026   0.705 -0.1970 -0.3677  0.8045
 2501SOL     OW 9241   0.423   6.167   0.510  0.2266 -0.0103  0.1272
 2501SOL    HW1 9242   0.506   6.204   0.480 -0.8457  1.1204 -1.6081
 2501SOL    HW2 9243   0.386   6.234   0.568  0.1183 -0.1341  0.2037
 2502SOL     OW 9244   0.005   0.059   3.334  0.5269  0.3132 -0.4887
 2502SOL    HW1 9245   0.007   0.041   3.240  0.3910 -1.7831 -0.1439
 2502SOL    HW2 9246  -0.004   0.154   3.340 -1.0614  0.3824 -2.6067
 2503SOL     OW 9247   3.372   6.458   7.058  0.4748  0.0866 -0.3912
 2503SOL    HW1 9248   3.297   6.437   7.003  0.1891  2.1039 -0.8315
 2503SOL    HW2 9249   3.333   6.491   7.139  0.9121 -0.6546  0.1377
 2504SOL     OW 9250   2.548   7.603   4.373  0.0842 -0.1659 -0.6047
 2504SOL    HW1 9251   2.454   7.614   4.362 -0.3887 -0.3662  2.5072
 2504SOL    HW2 9252   2.563   7.510   4.356 -0.7028 -0.6282  1.0404
 2505SOL     OW 9253   0.169   4.653   1.939  0.4038 -0.4119 -0.3023
 2505SOL    HW1 9254   0.171   4.744   1.969  1.3365 -0.3724 -0.4510
 2505SOL    HW2 9255   0.135   4.658   1.849  0.0217 -0.2564 -0.1479
 2506SOL     OW 9256   3.688   6.991   3.572 -0.1502  0.2879  0.0821
 2506SOL    HW1 9257   3.635   6.921   3.533  1.4808 -0.4980 -0.8124
 2506SOL    HW2 9258   3.769   6.948   3.598 -0.2157  1.2935  2.1995
 2507SOL     OW 9259   9.214   1.207   0.999  0.3607 -0.0239  0.2834
 2507SOL    HW1 9260   9.212   1.220   1.094  1.3416  0.0258  0.3151
 2507SOL    HW2 9261   9.307   1.194   0.979  0.1237 -0.4400 -0.6176
 2508SOL     OW 9262   7.287   4.297   0.470  0.9347  1.0044 -0.5652
 2508SOL    HW1 9263   7.200   4.268   0.443  0.2161  0.7557  1.7817
 2508SOL    HW2 9264   7.293   4.387   0.439 -0.6295  1.3953  0.1794
 2509SOL     OW 9265   3.213   4.200   6.241  0.2370 -0.1897  0.3533
 2509SOL    HW1 9266   3.152   4.146   6.291  0.7548 -0.9578  0.1601
 2509SOL    HW2 9267   3.299   4.178   6.277  0.7923 -1.8238 -1.8067
 2510SOL     OW 9268   7.912   6.521   8.223 -0.5128  0.2986  0.8192
 2510SOL    HW1 9269   7.834   6.561   8.185  0.8060  2.3866  0.1656
 2510SOL    HW2 9270   7.929   6.445   8.167 -2.4476 -0.6340  1.4192
 2511SOL     OW 9271   0.017   2.345   4.121  0.1004  0.6522 -0.0871
 2511SOL    HW1 9272   0.024   2.264   4.071  1.0014  0.9590 -0.4870
 2511SOL    HW2 9273  -0.068   2.340   4.164  0.3395 -0.7166  0.2734
 2512SOL     OW 9274   4.612   0.070   1.761  0.2216 -0.4283  0.1791
 2512SOL    HW1 9275   4.542   0.081   1.697  0.4287  2.7776  0.3283
 2512SOL    HW2 9276   4.686   0.037   1.710 -0.5778 -1.1368 -0.5449
 2513SOL     OW 9277   4.337   4.064   6.356 -0.0717 -0.2048  0.0890
 2513SOL    HW1 9278   4.336   3.981   6.309  0.8844  0.9947 -2.1851
 2513SOL    HW2 9279   4.274   4.119   6.311 -0.3890  0.4616  1.3018
 2514SOL     OW 9280   9.521   0.264   1.208  0.2768  0.2180  0.6037
 2514SOL    HW1 9281   9.429   0.287   1.220  0.2485  1.8069 -1.8799
 2514SOL    HW2 9282   9.565   0.347   1.193  1.7977 -0.6541  0.0045
 2515SOL     OW 9283   5.988   6.243   9.311  0.1293 -0.2196 -0.0869
 2515SOL    HW1 9284   5.911   6.186   9.315  0.2062 -0.3640 -0.5574
 2515SOL    HW2 9285   5.960   6.325   9.350 -0.6022  0.1036 -1.2274
 2516SOL     OW 9286   1.079   6.047   4.126  0.4474  0.3883 -0.4721
 2516SOL    HW1 9287   1.085   5.984   4.054  1.5733 -0.0702 -0.0151
 2516SOL    HW2 9288   1.016   6.112   4.097  0.1237 -0.3383 -1.4450
 2517SOL     OW 9289   0.613   1.153   2.193 -0.3810 -0.3532  0.4961
 2517SOL    HW1 9290   0.553   1.109   2.132 -0.3784  0.9623 -0.4957
 2517SOL    HW2 9291   0.559   1.170   2.271 -0.8729 -0.5404  0.2042
 2518SOL     OW 9292   8.810   0.885   7.873 -0.2465  0.1321  0.2504
 2518SOL    HW1 9293   8.895   0.854   7.904 -1.2137 -2.3962  0.6502
 2518SOL    HW2 9294   8.772   0.929   7.949  0.8331  1.6799 -0.0644
 2519SOL     OW 9295   5.380   9.067   4.394  0.7409  0.3006 -0.0193
 2519SOL    HW1 9296   5.312   9.042   4.331  0.4466  0.2154  0.3326
 2519SOL    HW2 9297   5.431   8.986   4.407  0.2824  0.0936  0.5017
 2520SOL     OW 9298   5.388   3.135   9.611  0.0660  0.5821 -0.1720
 2520SOL    HW1 9299   5.337   3.214   9.624 -0.5904  0.4572 -1.7139
 2520SOL    HW2 9300   5.332   3.078   9.558  0.7472 -0.6871  0.4077
 2521SOL     OW 9301   6.510   4.204   0.925  0.6601  0.3205  0.1068
 2521SOL    HW1 9302   6.563   4.284   0.926  0.1295  0.6920  1.5379
 2521SOL    HW2 9303   6.426   4.231   0.964 -0.1776 -0.5178 -1.0561
 2522SOL     OW 9304   5.634   9.200   2.150  0.0220 -0.0013 -0.0269
 2522SOL    HW1 9305   5.641   9.129   2.214  0.1773 -0.4402 -0.5218
 2522SOL    HW2 9306   5.698   9.177   2.082 -1.0284 -0.2298 -0.9785
 2523SOL     OW 9307   0.913   4.522   9.427 -0.0702 -0.1030  0.4622
 2523SOL    HW1 9308   0.906   4.570   9.509 -0.3790 -2.0568  1.6497
 2523SOL    HW2 9309   0.822   4.499   9.405  0.0262  0.2484 -0.3424
 2524SOL     OW 9310   0.130   2.690   4.939 -0.1623 -0.2253 -0.2279
 2524SOL    HW1 9311   0.153   2.725   4.853 -1.3708  0.7657 -0.1790
 2524SOL    HW2 9312   0.116   2.597   4.924 -0.8311  0.0178 -1.2208
 2525SOL     OW 9313   6.123   5.603   1.194  0.0594 -0.1896 -0.2016
 2525SOL    HW1 9314   6.057   5.629   1.130 -1.9720 -1.6897  1.1801
 2525SOL    HW2 9315   6.173   5.683   1.209 -2.4484  1.4769 -0.1485
 2526SOL     OW 9316   5.983   5.220   2.702  0.0343  0.0679  0.3444
 2526SOL    HW1 9317   5.911   5.277   2.674  0.6431  1.0621  0.7278
 2526SOL    HW2 9318   6.060   5.255   2.656  0.9811  1.4644  2.7695
 2527SOL     OW 9319   1.875   3.828   4.617  0.4611  0.0419 -0.1842
 2527SOL    HW1 9320   1.901   3.746   4.575  0.1479 -0.5389  0.7260
 2527SOL    HW2 9321   1.805   3.863   4.562 -0.5312 -1.1393  0.3079
 2528SOL     OW 9322   3.548   3.565   5.720  0.1049 -0.3228 -0.7464
 2528SOL    HW1 9323   3.525   3.644   5.671 -1.0216  0.8186  1.4693
 2528SOL    HW2 9324   3.465   3.533   5.754  0.8914 -0.5894  1.0515
 2529SOL     OW 9325   3.959   6.253   2.236  0.4610  0.1431  0.3918
 2529SOL    HW1 9326   4.006   6.289   2.161  1.9846  1.0733  1.7321
 2529SOL    HW2 9327   4.003   6.170   2.254 -0.9327 -0.8655 -0.6793
 2530SOL     OW 9328   5.969   5.791   8.231  0.4221 -0.2012  0.0365
 2530SOL    HW1 9329   5.897   5.826   8.283  0.1374 -0.4856 -0.1658
 2530SOL    HW2 9330   6.007   5.868   8.188 -0.4524 -0.1687 -0.7148
 2531SOL     OW 9331   5.509   5.571   8.896  0.0462  0.5427 -0.2274
 2531SOL    HW1 9332   5.453   5.634   8.942 -0.3074 -0.5874  0.9517
 2531SOL    HW2 9333   5.449   5.525   8.837 -0.1030  0.0267  0.3056
 2532SOL     OW 9334   7.791   0.819   3.351 -0.3474  0.0546 -0.0678
 2532SOL    HW1 9335   7.830   0.829   3.264 -1.5452  0.6887 -0.5598
 2532SOL    HW2 9336   7.771   0.726   3.359  1.7055 -0.3774  0.4129
 2533SOL     OW 9337   7.564   9.381   2.533 -0.5759 -0.1698  0.5401
 2533SOL    HW1 9338   7.546   9.336   2.450 -1.1680  0.6713  0.1969
 2533SOL    HW2 9339   7.588   9.470   2.507 -0.0929 -0.0870  1.2434
 2534SOL     OW 9340   1.682   6.736   1.129  0.1820 -0.3373 -0.1706
 2534SOL    HW1 9341   1.725   6.708   1.210 -0.8279 -2.0565 -0.1833
 2534SOL    HW2 9342   1.700   6.830   1.123  1.9770 -0.5646  0.9828
 2535SOL     OW 9343   8.207   7.441   3.998 -0.1269  0.1004  0.0383
 2535SOL    HW1 9344   8.167   7.492   3.928  0.4127  0.2337 -0.1765
 2535SOL    HW2 9345   8.167   7.354   3.990  1.6835 -0.6399 -2.0269
 2536SOL     OW 9346   6.806   5.943   4.475  0.2645 -0.1465 -0.2943
 2536SOL    HW1 9347   6.888   5.968   4.431  0.5040 -1.1235 -0.4119
 2536SOL    HW2 9348   6.825   5.859   4.516 -0.2612  0.2793  0.8601
 2537SOL     OW 9349   6.510   5.787   9.158  0.1815  0.0062  0.4729
 2537SOL    HW1 9350   6.416   5.781   9.172  0.3540 -0.4441  1.5743
 2537SOL    HW2 9351   6.543   5.699   9.178  1.0615  0.6776  2.1385
 2538SOL     OW 9352   4.918   7.195   1.236 -0.5658 -0.2058  0.0582
 2538SOL    HW1 9353   4.941   7.105   1.260 -1.0700  0.1280  1.9836
 2538SOL    HW2 9354   4.869   7.228   1.311 -1.0705  1.4356 -0.9411
 2539SOL     OW 9355   1.311   1.078   8.088  0.1819 -0.0464 -0.0016
 2539SOL    HW1 9356   1.301   0.986   8.062  0.3501 -0.7972  2.3552
 2539SOL    HW2 9357   1.223   1.105   8.114  0.5943 -0.4957  2.0376
 2540SOL     OW 9358   7.235   2.713   6.211 -0.3001 -0.4035 -0.1988
 2540SOL    HW1 9359   7.263   2.787   6.264 -1.6221  0.5085 -0.7093
 2540SOL    HW2 9360   7.189   2.655   6.273  0.3350 -0.5897  0.1099
 2541SOL     OW 9361   2.277   4.899   8.079  0.0561 -0.7937 -0.3876
 2541SOL    HW1 9362   2.370   4.880   8.087  0.3775  0.4619 -0.9596
 2541SOL    HW2 9363   2.236   4.850   8.151  1.4492  0.5417  1.4041
 2542SOL     OW 9364   1.248   6.481   9.545 -0.3707  0.3173 -0.0376
 2542SOL    HW1 9365   1.205   6.445   9.467 -0.4058 -2.0323  0.9762
 2542SOL    HW2 9366   1.316   6.538   9.511 -1.3211  0.5000 -1.7539
 2543SOL     OW 9367   3.598   5.871   4.465 -0.1431  0.9581  0.2362
 2543SOL    HW1 9368   3.616   5.848   4.374  1.0969  2.6223  0.0102
 2543SOL    HW2 9369   3.503   5.882   4.469 -0.3334 -0.2889 -0.5529
 2544SOL     OW 9370   9.453   7.104   7.412  0.3662  0.0482 -0.5039
 2544SOL    HW1 9371   9.512   7.137   7.480 -0.9662  0.8857  0.3158
 2544SOL    HW2 9372   9.510   7.064   7.347  1.7544  0.0010  0.6885
 2545SOL     OW 9373   7.367   2.864   0.819  0.0285 -0.3272  0.2074
 2545SOL    HW1 9374   7.363   2.776   0.780 -1.7009  0.0279 -0.5147
 2545SOL    HW2 9375   7.315   2.918   0.760  0.9906  1.1881  0.6985
 2546SOL     OW 9376   6.677   1.132   3.158 -0.0493  0.0120  0.2229
 2546SOL    HW1 9377   6.664   1.222   3.187  0.0827  0.0771  0.0808
 2546SOL    HW2 9378   6.624   1.124   3.079 -1.9446 -0.7263  1.5111
 2547SOL     OW 9379   6.906   1.360   8.554  0.1053  0.3866 -0.0733
 2547SOL    HW1 9380   6.867   1.360   8.642 -1.3659 -1.0389 -0.6606
 2547SOL    HW2 9381   6.894   1.271   8.523 -0.5752  1.1604 -2.2109
 2548SOL     OW 9382   0.871   7.381   4.818 -0.1249  0.0724 -0.4043
 2548SOL    HW1 9383   0.890   7.287   4.823 -1.3528 -0.2323 -0.8490
 2548SOL    HW2 9384   0.861   7.397   4.724 -0.4660  0.5245 -0.2902
 2549SOL     OW 9385   6.558   0.340   7.108  0.0964  0.0865 -0.0858
 2549SOL    HW1 9386   6.633   0.283   7.118  1.2611  1.7345  1.2237
 2549SOL    HW2 9387   6.561   0.370   7.017  1.3073  0.4576  0.0614
 2550SOL     OW 9388   5.596   2.791   0.972  0.1111 -0.0472 -0.1568
 2550SOL    HW1 9389   5.644   2.858   1.020  3.4816 -0.8614 -2.0375
 2550SOL    HW2 9390   5.549   2.839   0.904  1.0711  0.5975 -0.3891
 2551SOL     OW 9391   7.112   3.441   8.832  0.1187 -0.0048  0.1362
 2551SOL    HW1 9392   7.178   3.398   8.887 -1.2970 -1.0360  1.1175
 2551SOL    HW2 9393   7.160   3.471   8.755  1.4108 -2.3543 -0.0589
 2552SOL     OW 9394   0.491   9.241   4.075  0.0880 -0.6463 -0.8445
 2552SOL    HW1 9395   0.483   9.209   4.165 -0.3843 -0.5072 -0.8319
 2552SOL    HW2 9396   0.529   9.328   4.084  0.8397 -0.9687 -0.8401
 2553SOL     OW 9397   0.984   3.803   6.050 -0.0710  0.2438  0.2507
 2553SOL    HW1 9398   1.060   3.861   6.047 -0.7778  1.2735  1.4718
 2553SOL    HW2 9399   0.914   3.854   6.009 -0.7395  0.3446  1.4703
 2554SOL     OW 9400   0.561   7.355   6.391  0.5277  0.0496  0.1450
 2554SOL    HW1 9401   0.550   7.432   6.334 -0.4178 -0.2424 -0.0917
 2554SOL    HW2 9402   0.482   7.356   6.446  1.2462  0.1093  1.1923
 2555SOL     OW 9403   2.842   1.221   0.689  0.1029  0.0746  0.1232
 2555SOL    HW1 9404   2.757   1.261   0.671 -0.4570 -0.9760  0.3761
 2555SOL    HW2 9405   2.906   1.284   0.653 -0.7513  1.0176  0.2025
 2556SOL     OW 9406   4.064   8.150   4.175 -0.2316 -0.8701 -0.1021
 2556SOL    HW1 9407   4.114   8.073   4.147  0.5182 -0.2273 -0.5703
 2556SOL    HW2 9408   4.130   8.213   4.203 -0.8473 -0.4456  0.4286
 2557SOL     OW 9409   3.103   2.092   9.304  0.3432 -0.0257 -0.0447
 2557SOL    HW1 9410   3.055   2.039   9.368 -0.5149 -0.3987 -0.9643
 2557SOL    HW2 9411   3.050   2.170   9.292  0.7583  0.2780  0.0601
 2558SOL     OW 9412   3.837   5.105   5.836 -0.1582  0.3072 -0.1683
 2558SOL    HW1 9413   3.911   5.048   5.818  0.7293  1.0980  0.8513
 2558SOL    HW2 9414   3.868   5.165   5.903 -2.0602 -0.0233  1.1104
 2559SOL     OW 9415   6.325   4.323   1.064  0.4038 -0.2648  0.0615
 2559SOL    HW1 9416   6.256   4.383   1.092  1.2111  1.0154 -0.5569
 2559SOL    HW2 9417   6.358   4.284   1.145 -0.1821  0.0849  0.4751
 2560SOL     OW 9418   4.953   1.088   4.642  0.1045  0.2675 -0.1730
 2560SOL    HW1 9419   5.013   1.118   4.574 -0.3630  0.0604 -0.6779
 2560SOL    HW2 9420   4.936   0.996   4.621  1.4266 -0.3658  1.2896
 2561SOL     OW 9421   3.774   3.731   8.489 -0.5836  0.8483 -0.4083
 2561SOL    HW1 9422   3.680   3.717   8.476 -0.3944  0.9186 -1.9940
 2561SOL    HW2 9423   3.812   3.721   8.402  0.6620  2.4616 -0.1023
 2562SOL     OW 9424   5.687   9.593   9.178  0.1780 -0.2040 -0.6915
 2562SOL    HW1 9425   5.666   9.606   9.085  1.0807 -0.9130 -1.0223
 2562SOL    HW2 9426   5.782   9.580   9.178  0.0944 -0.8958  0.2481
 2563SOL     OW 9427   3.250   5.457   9.270 -0.1170 -0.1691 -0.0220
 2563SOL    HW1 9428   3.187   5.422   9.206  0.5584 -0.9715 -0.2615
 2563SOL    HW2 9429   3.288   5.379   9.312 -0.2330  0.3340  1.0605
 2564SOL     OW 9430   5.032   9.507   2.099  0.1769 -0.7641  0.2397
 2564SOL    HW1 9431   5.066   9.519   2.011 -0.8075  0.1548 -0.0376
 2564SOL    HW2 9432   5.094   9.553   2.156  0.0525 -0.1301 -0.1333
 2565SOL     OW 9433   7.953   2.739   4.467 -0.3703 -0.3557  0.1487
 2565SOL    HW1 9434   7.989   2.673   4.526 -2.5452 -0.8811  0.9782
 2565SOL    HW2 9435   7.998   2.724   4.383  1.2552 -0.9559  1.0886
 2566SOL     OW 9436   6.939   1.646   2.962  0.1889 -1.0186  0.0792
 2566SOL    HW1 9437   6.902   1.569   2.920 -0.2805 -0.9941  0.4431
 2566SOL    HW2 9438   7.028   1.652   2.927  0.3748 -1.9627  0.3600
 2567SOL     OW 9439   5.022   3.231   6.455  0.0836 -0.0895  0.0607
 2567SOL    HW1 9440   5.041   3.138   6.451  1.5510  0.1624  0.5156
 2567SOL    HW2 9441   4.943   3.242   6.401 -1.5167 -1.9088  1.8357
 2568SOL     OW 9442   6.365   2.408   8.241 -0.3732  0.8494 -0.0707
 2568SOL    HW1 9443   6.433   2.475   8.240  1.3293 -0.7887  0.6292
 2568SOL    HW2 9444   6.377   2.360   8.159  0.2381 -0.3044  0.6760
 2569SOL     OW 9445   7.748   6.390   4.896 -0.1324 -0.4501  0.3839
 2569SOL    HW1 9446   7.732   6.434   4.812 -0.2621  0.0085  0.6447
 2569SOL    HW2 9447   7.838   6.359   4.891  0.3259  0.7759  0.6025
 2570SOL     OW 9448   7.846   8.512   4.029 -0.3187  0.1882  0.0770
 2570SOL    HW1 9449   7.757   8.482   4.047 -0.3756  0.3212  0.0235
 2570SOL    HW2 9450   7.848   8.602   4.063  0.2151 -0.2902  1.3321
 2571SOL     OW 9451   5.316   8.113   3.012  0.1076 -0.1320 -0.3437
 2571SOL    HW1 9452   5.409   8.109   2.988 -0.0857 -0.7575 -1.0041
 2571SOL    HW2 9453   5.310   8.190   3.069  1.3405 -1.0144  1.0523
 2572SOL     OW 9454   7.102   4.387   7.722  0.2057 -0.6297  0.1722
 2572SOL    HW1 9455   7.046   4.388   7.644 -0.0172 -0.4120  0.3321
 2572SOL    HW2 9456   7.083   4.470   7.766 -0.0511 -0.9786  0.7207
 2573SOL     OW 9457   7.180   1.744   5.257  0.3485  0.2027  0.3049
 2573SOL    HW1 9458   7.152   1.756   5.348  0.1753  0.7911  0.1748
 2573SOL    HW2 9459   7.184   1.649   5.246 -0.3340  0.1209  0.7175
 2574SOL     OW 9460   2.648   8.953   7.596 -0.1445 -0.2782 -0.2904
 2574SOL    HW1 9461   2.736   8.943   7.558 -0.4116  1.0778 -1.3344
 2574SOL    HW2 9462   2.662   8.943   7.691  1.2107  0.3381 -0.3977
 2575SOL     OW 9463   2.933   7.603   8.700 -0.0447 -0.5140  0.5292
 2575SOL    HW1 9464   2.901   7.657   8.628  0.0434 -0.0670  0.8199
 2575SOL    HW2 9465   3.000   7.547   8.661  0.9596  0.6557  0.5171
 2576SOL     OW 9466   4.258   1.923   4.896  0.6820 -0.3311 -0.1133
 2576SOL    HW1 9467   4.202   1.990   4.857  0.5954 -0.2282  0.1889
 2576SOL    HW2 9468   4.267   1.948   4.987  2.8729  0.7550 -0.5651
 2577SOL     OW 9469   0.578   8.278   1.344 -0.7176  0.2277 -0.1719
 2577SOL    HW1 9470   0.648   8.213   1.342 -2.1246 -1.3233 -0.9655
 2577SOL    HW2 9471   0.611   8.347   1.403  2.0369  0.2592 -1.5988
 2578SOL     OW 9472   7.741   0.169   2.756  0.4585  0.1336 -0.4364
 2578SOL    HW1 9473   7.754   0.075   2.767  1.7315  0.4879  1.8187
 2578SOL    HW2 9474   7.704   0.197   2.840 -0.8739  1.5158 -1.4370
 2579SOL     OW 9475   0.723   6.748   2.846  0.7183 -0.4425 -0.5879
 2579SOL    HW1 9476   0.751   6.753   2.755  1.8713  1.2654 -0.1831
 2579SOL    HW2 9477   0.795   6.786   2.896  0.6350 -2.4347  1.1934
 2580SOL     OW 9478   8.181   7.283   9.429  0.1845 -0.0312  0.6566
 2580SOL    HW1 9479   8.220   7.239   9.354 -1.4882  0.7728 -0.7612
 2580SOL    HW2 9480   8.250   7.340   9.463  1.0562 -0.6189 -0.0982
 2581SOL     OW 9481   5.396   7.927   2.389  0.0273 -0.1546 -0.4071
 2581SOL    HW1 9482   5.465   7.944   2.452  2.1556 -2.0001 -2.0935
 2581SOL    HW2 9483   5.329   7.880   2.438  0.9907 -0.3407  0.7713
 2582SOL     OW 9484   4.561   4.824   0.128 -0.1396 -0.2567  0.8412
 2582SOL    HW1 9485   4.479   4.813   0.175  0.7874 -0.7691  2.4345
 2582SOL    HW2 9486   4.592   4.911   0.153 -1.1125  0.7873 -1.3443
 2583SOL     OW 9487   1.155   7.166   8.482 -0.7384  1.0709  0.5851
 2583SOL    HW1 9488   1.154   7.118   8.565 -0.7076 -0.1390 -0.0940
 2583SOL    HW2 9489   1.115   7.251   8.502  0.6393  1.3845  2.1807
 2584SOL     OW 9490   2.676   5.609   9.373  0.1387 -0.0588  0.4397
 2584SOL    HW1 9491   2.625   5.630   9.451  0.4582 -0.0375  0.6475
 2584SOL    HW2 9492   2.672   5.688   9.319  0.5217  0.1950  0.7708
 2585SOL     OW 9493   6.713   3.744   6.193 -0.7137  0.6660  0.0842
 2585SOL    HW1 9494   6.763   3.757   6.113  0.4230  0.3743  0.7229
 2585SOL    HW2 9495   6.690   3.651   6.192  1.0689  0.1728  1.0539
 2586SOL     OW 9496   6.825   0.811   3.201 -0.6627  0.0445  0.3305
 2586SOL    HW1 9497   6.771   0.814   3.280 -2.3443 -1.4198 -0.6719
 2586SOL    HW2 9498   6.862   0.899   3.193 -0.1839  0.1410  2.8783
 2587SOL     OW 9499   5.227   6.922   1.729 -0.3130  0.0322  0.5197
 2587SOL    HW1 9500   5.291   6.965   1.672  0.4246 -1.6717 -0.0007
 2587SOL    HW2 9501   5.278   6.858   1.779 -1.4269 -0.5741  0.9183
 2588SOL     OW 9502   4.616   1.117   8.568  0.0037 -0.2978  0.4451
 2588SOL    HW1 9503   4.525   1.092   8.587 -0.9197 -0.8700 -3.7693
 2588SOL    HW2 9504   4.615   1.143   8.476  4.1306 -0.1843  0.2524
 2589SOL     OW 9505   7.244   2.599   1.001 -0.3354 -0.5044  0.0102
 2589SOL    HW1 9506   7.334   2.615   1.028 -0.1505 -0.9732 -0.3276
 2589SOL    HW2 9507   7.209   2.687   0.982  0.6835 -0.4495 -1.8507
 2590SOL     OW 9508   6.152   4.614   9.078 -0.4603 -0.1011  0.1932
 2590SOL    HW1 9509   6.173   4.558   9.152  1.2902 -0.4146 -0.4909
 2590SOL    HW2 9510   6.152   4.555   9.003  0.4471  0.6252 -0.4021
 2591SOL     OW 9511   5.043   2.984   9.217  0.3177  0.5252 -0.1403
 2591SOL    HW1 9512   5.054   3.042   9.142 -1.8971  1.4107  0.1362
 2591SOL    HW2 9513   4.999   2.907   9.182 -0.8101  0.9812  0.2170
 2592SOL     OW 9514   2.204   1.916   5.657  0.4273 -0.4406  0.1639
 2592SOL    HW1 9515   2.195   1.864   5.736  1.5466 -1.0733 -0.1082
 2592SOL    HW2 9516   2.265   1.867   5.602  2.4532  1.6734  0.3511
 2593SOL     OW 9517   1.645   2.299   0.118  0.2200  0.3488  0.0486
 2593SOL    HW1 9518   1.686   2.376   0.077  1.4771 -0.2610  0.1063
 2593SOL    HW2 9519   1.649   2.317   0.212 -2.2399  1.5373 -0.0084
 2594SOL     OW 9520   3.942   6.330   0.179 -0.1782  0.5290 -0.1615
 2594SOL    HW1 9521   3.914   6.382   0.104 -0.4345 -2.3028 -2.1822
 2594SOL    HW2 9522   3.860   6.310   0.226 -0.1389  1.3953  0.3080
 2595SOL     OW 9523   6.492   7.427   3.143  0.1692  0.4212 -0.1574
 2595SOL    HW1 9524   6.483   7.456   3.052  0.0570  0.8692 -0.0030
 2595SOL    HW2 9525   6.489   7.331   3.137 -0.1772  0.4530 -0.5917
 2596SOL     OW 9526   7.947   8.714   1.999  1.0258 -0.1809 -0.6289
 2596SOL    HW1 9527   7.973   8.719   1.907  0.6823 -0.4870 -0.7455
 2596SOL    HW2 9528   7.922   8.622   2.012  0.4519  0.0007 -0.4046
 2597SOL     OW 9529   1.042   5.720   8.382  0.3914  0.1526  0.2871
 2597SOL    HW1 9530   1.060   5.764   8.465 -1.5050  1.6142 -0.0154
 2597SOL    HW2 9531   1.089   5.772   8.316 -0.3416  0.6415  0.1428
 2598SOL     OW 9532   1.498   2.793   6.059 -0.2760  0.0469  0.3512
 2598SOL    HW1 9533   1.538   2.865   6.010  0.2964 -1.0743 -0.9009
 2598SOL    HW2 9534   1.508   2.717   6.002 -2.7956 -0.6289  0.6798
 2599SOL     OW 9535   5.922   7.372   8.039  0.2549  0.2699 -0.8726
 2599SOL    HW1 9536   5.940   7.456   8.080 -0.2663 -0.5595  1.1388
 2599SOL    HW2 9537   6.000   7.319   8.055 -0.3529 -0.3956  0.0270
 2600SOL     OW 9538   5.801   8.108   2.743  0.4701  0.0611 -0.3636
 2600SOL    HW1 9539   5.848   8.152   2.672 -0.4006  0.7268 -0.5506
 2600SOL    HW2 9540   5.868   8.059   2.790  1.4560  1.4376 -0.2697
 2601SOL     OW 9541   2.822   1.140   2.912  0.1889 -1.1451 -0.1088
 2601SOL    HW1 9542   2.747   1.084   2.896  0.6085 -1.4578 -1.0522
 2601SOL    HW2 9543   2.895   1.080   2.926  0.5493 -0.8497 -0.6701
 2602SOL     OW 9544   1.438   7.853   8.690  0.3559  0.5379 -0.3254
 2602SOL    HW1 9545   1.470   7.810   8.770  0.0076  0.2959 -0.3132
 2602SOL    HW2 9546   1.495   7.930   8.680  1.6435 -0.4543 -0.9104
 2603SOL     OW 9547   3.988   6.193   4.110 -0.2709 -0.1741  0.4283
 2603SOL    HW1 9548   3.951   6.273   4.146  1.7847  0.6411  0.8988
 2603SOL    HW2 9549   4.066   6.177   4.164  0.6903 -1.1344 -1.1790
 2604SOL     OW 9550   3.852   7.981   5.231 -0.1572  0.9017  0.2365
 2604SOL    HW1 9551   3.893   7.958   5.147 -0.5058  2.9188 -0.5416
 2604SOL    HW2 9552   3.893   7.922   5.294  1.3160  0.4254 -1.0838
 2605SOL     OW 9553   5.494   1.920   6.444  0.0197  0.7078  0.9212
 2605SOL    HW1 9554   5.413   1.871   6.460  0.6687  0.3110  3.3887
 2605SOL    HW2 9555   5.476   2.007   6.481  0.1506  1.1705 -0.0784
 2606SOL     OW 9556   5.067   4.078   4.596  0.8476 -0.4753  0.4154
 2606SOL    HW1 9557   5.083   4.135   4.520 -0.3275  0.4863  0.8549
 2606SOL    HW2 9558   4.996   4.121   4.643  2.4485 -0.2929  2.8264
 2607SOL     OW 9559   2.817   1.513   2.206  0.8250  0.4183  0.2962
 2607SOL    HW1 9560   2.749   1.445   2.212 -1.7730  2.9378  2.8576
 2607SOL    HW2 9561   2.801   1.555   2.121 -1.0126  1.0273  0.8831
 2608SOL     OW 9562   7.760   5.068   7.784 -0.1592 -0.3973 -0.1508
 2608SOL    HW1 9563   7.783   5.057   7.876 -1.6716  0.5082  0.3767
 2608SOL    HW2 9564   7.745   4.979   7.752  3.1725 -1.0203 -0.3879
 2609SOL     OW 9565   4.446   4.182   9.217 -0.5260 -0.2565 -0.1529
 2609SOL    HW1 9566   4.402   4.099   9.198  0.8096 -0.9587 -0.3202
 2609SOL    HW2 9567   4.440   4.191   9.312  1.3164 -1.7584  0.1649
 2610SOL     OW 9568   5.524   4.068   7.268 -0.6359  0.1434  0.8761
 2610SOL    HW1 9569   5.539   4.039   7.178 -0.2100 -1.4873  1.4273
 2610SOL    HW2 9570   5.489   4.157   7.259 -3.0679 -0.8757 -1.0311
 2611SOL     OW 9571   9.441   7.106   9.558  0.7675 -0.3476 -0.0285
 2611SOL    HW1 9572   9.410   7.197   9.554  1.9265  0.0407 -0.7317
 2611SOL    HW2 9573   9.446   7.086   9.651 -0.6559 -0.1093  0.1160
 2612SOL     OW 9574   7.682   5.022   4.425  0.0107 -0.5828  0.0279
 2612SOL    HW1 9575   7.637   4.999   4.507  0.9124 -0.2899  0.6260
 2612SOL    HW2 9576   7.740   4.948   4.408 -2.8092 -2.4379 -2.4228
 2613SOL     OW 9577   5.883   4.711   9.090 -0.0014 -0.4057  0.1607
 2613SOL    HW1 9578   5.978   4.719   9.104 -0.0288  0.6586 -0.1637
 2613SOL    HW2 9579   5.849   4.681   9.174  0.3437  1.5924  1.0693
 2614SOL     OW 9580   6.920   4.823   1.432 -0.6657 -0.3932 -0.0534
 2614SOL    HW1 9581   6.901   4.893   1.494  0.6250 -0.0633 -0.0015
 2614SOL    HW2 9582   6.834   4.788   1.408 -1.6298  3.1022 -2.3561
 2615SOL     OW 9583   2.062   7.237   1.850  0.2502  0.1711  0.2288
 2615SOL    HW1 9584   2.045   7.185   1.929  1.2518  0.4853  0.6785
 2615SOL    HW2 9585   1.993   7.303   1.850 -0.0076 -0.0883  0.6107
 2616SOL     OW 9586   2.211   7.963   7.896  0.7310  0.1134 -0.2098
 2616SOL    HW1 9587   2.210   8.027   7.825  0.9808 -0.8205 -1.0855
 2616SOL    HW2 9588   2.119   7.936   7.905  0.7371  0.0420 -0.3575
 2617SOL     OW 9589   0.881   8.260   6.037  0.3561 -0.0804 -0.2409
 2617SOL    HW1 9590   0.843   8.248   5.950  0.9800 -0.5313 -0.4513
 2617SOL    HW2 9591   0.837   8.194   6.091 -0.8508  0.9305  0.0579
 2618SOL     OW 9592   5.221   8.083   5.468  0.1300  0.3024 -0.6396
 2618SOL    HW1 9593   5.250   7.997   5.499 -1.4750 -0.5251 -1.3065
 2618SOL    HW2 9594   5.131   8.068   5.436 -0.3233  2.3063 -0.4304
 2619SOL     OW 9595   2.478   2.388   1.239  0.2323 -0.2725 -0.1128
 2619SOL    HW1 9596   2.498   2.354   1.327 -0.6661  0.2380  0.3112
 2619SOL    HW2 9597   2.388   2.359   1.223  0.8659 -1.5682 -1.4843
 2620SOL     OW 9598   4.870   8.648   4.221  0.3289 -0.3223 -0.4988
 2620SOL    HW1 9599   4.864   8.640   4.317  0.0993  1.0080 -0.3728
 2620SOL    HW2 9600   4.957   8.616   4.199  0.0024 -1.6164  0.0277
 2621SOL     OW 9601   7.086   5.943   6.888 -0.2770  0.1752 -0.2875
 2621SOL    HW1 9602   7.005   5.972   6.931  0.4007  0.7954  0.5977
 2621SOL    HW2 9603   7.120   6.022   6.845  1.1001  0.5558  1.3753
 2622SOL     OW 9604   2.524   4.909   7.078 -0.3611 -0.3859  0.4697
 2622SOL    HW1 9605   2.479   4.869   7.153  0.6121 -0.0708  1.2546
 2622SOL    HW2 9606   2.454   4.938   7.020 -1.1940  0.6621  1.9360
 2623SOL     OW 9607   0.999   3.929   6.344  0.0300 -0.1724  0.2453
 2623SOL    HW1 9608   0.986   3.978   6.426 -0.9517  1.3211 -0.7459
 2623SOL    HW2 9609   0.916   3.940   6.297  0.9102 -0.1841 -1.3542
 2624SOL     OW 9610   5.534   7.720   6.111 -0.0203  0.7015 -0.0036
 2624SOL    HW1 9611   5.515   7.781   6.040 -1.1505 -1.9705 -2.1669
 2624SOL    HW2 9612   5.622   7.688   6.092 -0.5357 -0.4274 -0.5847
 2625SOL     OW 9613   6.732   6.234   3.927 -0.3800  0.9582  0.8146
 2625SOL    HW1 9614   6.678   6.265   3.854 -0.0021 -0.9668 -0.3282
 2625SOL    HW2 9615   6.676   6.246   4.004 -1.4679  1.3514 -0.0081
 2626SOL     OW 9616   5.265   5.387   3.734 -0.3008  0.1163 -0.0805
 2626SOL    HW1 9617   5.309   5.393   3.819 -1.3730  0.2720  0.4700
 2626SOL    HW2 9618   5.327   5.337   3.679  0.9024  0.9876  0.4369
 2627SOL     OW 9619   5.622   8.160   9.257  0.6492  0.0686 -0.0885
 2627SOL    HW1 9620   5.571   8.081   9.276  1.3460 -0.1337  1.0927
 2627SOL    HW2 9621   5.587   8.192   9.174 -1.8498  0.3069  0.9691
 2628SOL     OW 9622   9.258   9.334   8.666 -0.0717  0.7294  0.2147
 2628SOL    HW1 9623   9.312   9.397   8.619  1.9644  0.9858  2.7268
 2628SOL    HW2 9624   9.184   9.385   8.698 -0.2287  1.0449 -0.6093
 2629SOL     OW 9625   6.109   4.618   4.417 -0.1696  0.0871 -0.4422
 2629SOL    HW1 9626   6.080   4.657   4.334 -0.1007 -0.0735 -0.5431
 2629SOL    HW2 9627   6.051   4.655   4.483 -1.9698 -1.7334 -0.8912
 2630SOL     OW 9628   1.033   4.603   2.120  0.1251  0.1297  0.3829
 2630SOL    HW1 9629   1.031   4.534   2.186 -1.3525 -0.1548  0.0679
 2630SOL    HW2 9630   1.022   4.558   2.037  0.4184  0.6347  0.0618
 2631SOL     OW 9631   6.348   5.767   2.831 -0.0847  0.0534  0.0477
 2631SOL    HW1 9632   6.384   5.853   2.854  0.2856 -0.1965  0.4219
 2631SOL    HW2 9633   6.266   5.761   2.881  0.9361 -0.6715  1.7157
 2632SOL     OW 9634   7.774   5.917   6.481  0.2002 -0.6500  0.1177
 2632SOL    HW1 9635   7.825   5.893   6.404  0.0581 -0.1923 -0.1241
 2632SOL    HW2 9636   7.683   5.906   6.455  0.1355  0.0467  0.0302
 2633SOL     OW 9637   4.115   3.635   8.929  0.6000 -0.2648  0.0592
 2633SOL    HW1 9638   4.147   3.582   8.856 -0.7408 -1.4386  0.2801
 2633SOL    HW2 9639   4.061   3.702   8.887 -0.0526 -0.8496 -0.0524
 2634SOL     OW 9640   3.278   6.642   7.717 -0.2615 -0.3039 -0.2497
 2634SOL    HW1 9641   3.228   6.616   7.640 -0.7792 -1.4640  0.4482
 2634SOL    HW2 9642   3.222   6.620   7.791  0.6377 -0.1664  0.4963
 2635SOL     OW 9643   4.089   4.954   2.002  0.1261  0.3122  0.0540
 2635SOL    HW1 9644   4.178   4.958   1.967  0.2006  0.4916  0.2667
 2635SOL    HW2 9645   4.073   4.860   2.017 -1.0312 -0.1752 -3.3613
 2636SOL     OW 9646   6.585   1.494   3.779 -0.3325  0.0514 -0.2012
 2636SOL    HW1 9647   6.660   1.531   3.732 -0.7886  1.2424 -0.0309
 2636SOL    HW2 9648   6.615   1.487   3.870 -0.1371 -0.3098 -0.2915
 2637SOL     OW 9649   7.802   3.308   6.305 -0.3936  0.2151 -0.5609
 2637SOL    HW1 9650   7.724   3.298   6.360  0.6277 -0.9808  0.7157
 2637SOL    HW2 9651   7.774   3.369   6.237 -1.5483  2.3132  1.6206
 2638SOL     OW 9652   3.167   8.699   0.702  0.3459  0.1235 -0.0049
 2638SOL    HW1 9653   3.072   8.691   0.702  0.1679  1.7961 -0.5628
 2638SOL    HW2 9654   3.187   8.755   0.777  0.5556  2.4733 -1.7228
 2639SOL     OW 9655   1.521   7.449   0.287 -0.1722 -0.8099  0.5281
 2639SOL    HW1 9656   1.605   7.403   0.294  0.7498  0.7674  0.2486
 2639SOL    HW2 9657   1.489   7.453   0.377  1.2041  0.5828  1.0008
 2640SOL     OW 9658   7.097   7.118   0.861 -0.6013  0.1397  0.0478
 2640SOL    HW1 9659   7.135   7.129   0.948 -0.1189  0.9173 -0.2465
 2640SOL    HW2 9660   7.019   7.173   0.862 -1.9017 -1.6332  0.7265
 2641SOL     OW 9661   9.593   7.635   7.324  0.0543  0.2780 -0.1553
 2641SOL    HW1 9662   9.578   7.713   7.270 -0.9832  1.7191  2.0243
 2641SOL    HW2 9663   9.688   7.622   7.321  0.3325  2.0094 -0.1435
 2642SOL     OW 9664   4.799   5.356   4.174 -0.5681  0.0235 -0.1330
 2642SOL    HW1 9665   4.748   5.403   4.108  0.2042  0.3921 -0.4716
 2642SOL    HW2 9666   4.848   5.425   4.219 -1.3695 -0.1720  1.1011
 2643SOL     OW 9667   8.595   2.737   6.011  0.0090  0.0419 -0.0453
 2643SOL    HW1 9668   8.636   2.670   6.066 -0.2068  0.2616  0.3957
 2643SOL    HW2 9669   8.506   2.705   5.996  0.0367  0.0299 -0.1837
 2644SOL     OW 9670   5.875   8.620   1.494 -0.2727 -0.4113  0.1430
 2644SOL    HW1 9671   5.863   8.532   1.459 -0.2687 -0.1843 -0.4432
 2644SOL    HW2 9672   5.797   8.668   1.467 -1.0661 -0.6528  1.8514
 2645SOL     OW 9673   2.171   3.603   5.080 -0.0265 -0.6327 -0.1314
 2645SOL    HW1 9674   2.228   3.552   5.022  1.2459 -0.0437  0.5742
 2645SOL    HW2 9675   2.174   3.692   5.045 -0.3916 -0.5607  0.0105
 2646SOL     OW 9676   8.086   6.041   6.666  0.1748 -0.6132 -0.1108
 2646SOL    HW1 9677   8.134   6.112   6.623  0.6397 -1.0189 -0.2674
 2646SOL    HW2 9678   7.995   6.069   6.664  0.5659  0.9995  1.7616
 2647SOL     OW 9679   4.070   8.720   4.558 -0.4254 -0.0549  0.0079
 2647SOL    HW1 9680   3.979   8.710   4.588 -0.9765  0.3129 -1.4665
 2647SOL    HW2 9681   4.076   8.811   4.531  0.9191  0.4122  1.6721
 2648SOL     OW 9682   5.300   6.151   8.279  0.4647 -0.1576 -0.0303
 2648SOL    HW1 9683   5.342   6.128   8.196  0.1216 -2.2426  0.3319
 2648SOL    HW2 9684   5.209   6.168   8.256  0.9812  2.3919 -0.5052
 2649SOL     OW 9685   8.055   8.683   1.729 -0.5562 -0.1130  0.2145
 2649SOL    HW1 9686   8.141   8.720   1.709 -0.5073  0.3791  1.2893
 2649SOL    HW2 9687   8.008   8.688   1.645 -0.3506  1.8790  0.1540
 2650SOL     OW 9688   2.830   5.861   7.897 -0.4057  0.4502  0.7446
 2650SOL    HW1 9689   2.872   5.917   7.962 -0.9517  0.7101  0.8820
 2650SOL    HW2 9690   2.902   5.813   7.857  0.2508  2.2790 -0.3878
 2651SOL     OW 9691   1.665   0.336   8.771  0.5363 -0.0160 -0.0523
 2651SOL    HW1 9692   1.748   0.294   8.749  0.9272  1.0785 -0.7939
 2651SOL    HW2 9693   1.654   0.320   8.865 -0.7879 -4.1755 -0.7441
 2652SOL     OW 9694   5.643   7.991   0.361 -0.7680  0.4604  0.2687
 2652SOL    HW1 9695   5.558   8.016   0.398 -1.0753 -1.1338  0.7337
 2652SOL    HW2 9696   5.688   7.947   0.433  0.8220  2.0236  0.2724
 2653SOL     OW 9697   6.201   2.051   9.166 -0.6424  0.4968 -0.1568
 2653SOL    HW1 9698   6.188   2.120   9.230 -0.1819  0.5039 -0.0707
 2653SOL    HW2 9699   6.210   1.971   9.218 -0.5598  0.4618 -0.2239
 2654SOL     OW 9700   0.726   3.225   9.100  0.2554 -0.0196 -0.4477
 2654SOL    HW1 9701   0.779   3.146   9.105  1.1344  0.6167  0.4349
 2654SOL    HW2 9702   0.742   3.272   9.182 -2.0560 -0.0426  0.0977
 2655SOL     OW 9703   8.063   0.318   4.152  0.0576  0.1747 -0.0686
 2655SOL    HW1 9704   8.008   0.315   4.074 -0.1089  0.5166  0.0340
 2655SOL    HW2 9705   8.152   0.330   4.118 -0.0760  0.8572 -0.1848
 2656SOL     OW 9706   5.110   0.599   8.037  0.6207  0.0171 -0.3604
 2656SOL    HW1 9707   5.179   0.653   8.075  0.7282  1.1840 -2.0738
 2656SOL    HW2 9708   5.132   0.510   8.063  1.4845  0.5884  1.0060
 2657SOL     OW 9709   5.868   0.934   1.988  0.5361 -0.0250 -0.2449
 2657SOL    HW1 9710   5.955   0.907   2.017  0.8397  0.2098 -0.9024
 2657SOL    HW2 9711   5.878   0.948   1.894 -1.0622 -3.5178 -1.1076
 2658SOL     OW 9712   9.050   3.845   1.505  0.1094  0.3986  0.4805
 2658SOL    HW1 9713   8.972   3.827   1.453  1.5545 -0.2670 -1.5988
 2658SOL    HW2 9714   9.038   3.934   1.536 -1.0813  0.6315 -0.5432
 2659SOL     OW 9715   4.215   4.558   3.037  0.2697  0.7897 -0.1314
 2659SOL    HW1 9716   4.256   4.569   2.952  0.0722  0.0705 -0.3235
 2659SOL    HW2 9717   4.289   4.554   3.099  0.6830 -2.3759 -0.6650
 2660SOL     OW 9718   2.123   2.514   8.725 -0.1294  0.3887 -0.1047
 2660SOL    HW1 9719   2.075   2.434   8.704  0.2350  0.6264 -2.0394
 2660SOL    HW2 9720   2.078   2.583   8.678 -0.5138  1.4036  1.6433
 2661SOL     OW 9721   8.965   9.041   3.318 -0.6127 -1.1522 -0.5492
 2661SOL    HW1 9722   9.003   8.993   3.244 -1.2991 -1.0532 -0.9745
 2661SOL    HW2 9723   8.949   9.129   3.283 -1.4017 -1.2467 -0.4372
 2662SOL     OW 9724   5.344   2.424   4.728  0.2264 -0.1915  0.0916
 2662SOL    HW1 9725   5.362   2.412   4.634 -1.8625 -3.0527 -0.0978
 2662SOL    HW2 9726   5.253   2.455   4.730  0.1767 -0.4036  1.1935
 2663SOL     OW 9727   6.585   0.939   7.921 -0.0655  0.0878  0.0900
 2663SOL    HW1 9728   6.496   0.919   7.951  0.1010 -1.5563 -0.4324
 2663SOL    HW2 9729   6.572   0.999   7.848 -0.6890  0.5929  0.5933
 2664SOL     OW 9730   8.890   5.943   3.995 -0.1581 -0.0843 -0.3727
 2664SOL    HW1 9731   8.943   5.898   3.930  0.7570 -0.0070  0.3061
 2664SOL    HW2 9732   8.826   5.993   3.944 -0.4088 -1.1850 -1.1656
 2665SOL     OW 9733   6.939   2.443   0.784  0.1060  0.2806 -0.3358
 2665SOL    HW1 9734   7.030   2.429   0.758  0.4965  0.6575  0.7863
 2665SOL    HW2 9735   6.921   2.534   0.763 -0.3711 -0.0774 -1.5629
 2666SOL     OW 9736   5.496   6.833   7.530  0.1197 -0.1895  0.3664
 2666SOL    HW1 9737   5.580   6.843   7.484  0.6086  0.4840  1.3711
 2666SOL    HW2 9738   5.511   6.872   7.616 -0.8241 -1.2538  1.0502
 2667SOL     OW 9739   8.884   3.542   7.541 -0.1971 -0.2252  0.6568
 2667SOL    HW1 9740   8.801   3.556   7.496  0.8939  0.2736 -1.3662
 2667SOL    HW2 9741   8.890   3.448   7.553 -0.6750 -0.3482  0.0020
 2668SOL     OW 9742   8.047   6.422   5.453 -0.3455 -0.2076 -0.0354
 2668SOL    HW1 9743   7.992   6.416   5.375  2.8318  1.2815 -2.5941
 2668SOL    HW2 9744   8.060   6.516   5.466  0.3772 -0.4841  1.4265
 2669SOL     OW 9745   0.288   1.682   6.840  0.5367  0.0150  0.5827
 2669SOL    HW1 9746   0.363   1.737   6.815  0.0142  0.1183 -0.8597
 2669SOL    HW2 9747   0.216   1.713   6.784 -0.0920 -1.3062  0.6221
 2670SOL     OW 9748   0.661   4.989   1.475 -0.4509  0.0747 -0.0101
 2670SOL    HW1 9749   0.643   4.966   1.384 -0.6903  0.7845 -0.1520
 2670SOL    HW2 9750   0.730   4.928   1.502  1.1326  1.1878 -1.3304
 2671SOL     OW 9751   1.598   6.692   9.015  0.3702 -0.5063 -0.0762
 2671SOL    HW1 9752   1.686   6.710   8.981 -0.8322  0.1973 -3.0730
 2671SOL    HW2 9753   1.557   6.638   8.948 -1.3736 -1.2472  1.4952
 2672SOL     OW 9754   3.311   3.169   1.997 -0.7487  0.2065 -0.6295
 2672SOL    HW1 9755   3.399   3.206   1.988  0.0444 -1.4933 -0.2011
 2672SOL    HW2 9756   3.267   3.228   2.058  1.4460 -1.0326  2.4218
 2673SOL     OW 9757   9.193   3.087   5.773  0.1200 -0.2145  0.0289
 2673SOL    HW1 9758   9.228   3.018   5.829 -0.8458 -0.7083  0.0496
 2673SOL    HW2 9759   9.250   3.087   5.696  0.3196 -0.8373  0.1683
 2674SOL     OW 9760   7.416   1.748   2.064  0.4473  0.4191  0.5418
 2674SOL    HW1 9761   7.384   1.725   1.977  0.7031  1.4867  0.1496
 2674SOL    HW2 9762   7.422   1.843   2.064  2.5600  0.3514  0.9579
 2675SOL     OW 9763   0.786   7.215   6.459  0.0579 -0.2392 -0.0188
 2675SOL    HW1 9764   0.708   7.270   6.449  0.0471  0.4810  2.9883
 2675SOL    HW2 9765   0.759   7.145   6.519  1.4345 -0.5445  0.2798
 2676SOL     OW 9766   0.936   2.121   7.510 -0.2786 -0.2865 -0.2372
 2676SOL    HW1 9767   0.948   2.204   7.464  0.5526  0.1024  0.6531
 2676SOL    HW2 9768   1.016   2.071   7.491  1.3741  0.9377  2.8849
 2677SOL     OW 9769   6.169   9.473   4.285  0.4075 -0.7715  0.1329
 2677SOL    HW1 9770   6.222   9.397   4.262  1.2596 -0.3454  0.6306
 2677SOL    HW2 9771   6.171   9.475   4.381  0.2811 -0.2068  0.1254
 2678SOL     OW 9772   6.639   3.162   3.118 -0.0938 -0.5431 -0.4698
 2678SOL    HW1 9773   6.718   3.111   3.100 -0.7243 -1.3788 -0.9608
 2678SOL    HW2 9774   6.668   3.233   3.176  1.0301 -0.7619 -0.7434
 2679SOL     OW 9775   5.632   8.227   1.398 -0.1147  0.0049  0.5226
 2679SOL    HW1 9776   5.606   8.271   1.479 -1.5963 -1.0899  0.6796
 2679SOL    HW2 9777   5.555   8.232   1.342  0.6080 -0.0192 -0.5132
 2680SOL     OW 9778   7.583   3.356   4.083  0.3652  0.5776  0.0673
 2680SOL    HW1 9779   7.516   3.295   4.112  2.0674 -1.0275  0.8237
 2680SOL    HW2 9780   7.542   3.442   4.092 -0.7228 -0.1240  3.2199
 2681SOL     OW 9781   1.773   6.911   0.901  0.3417 -0.4311  0.0387
 2681SOL    HW1 9782   1.716   6.852   0.852 -1.4987  0.3774  1.0931
 2681SOL    HW2 9783   1.846   6.856   0.929  1.5479 -0.9442 -3.5365
 2682SOL     OW 9784   8.403   3.930   0.378  0.0824  0.1279 -0.1235
 2682SOL    HW1 9785   8.498   3.932   0.384  0.2605 -2.0756 -1.1925
 2682SOL    HW2 9786   8.375   3.880   0.455 -0.4551  2.4225  1.2970
 2683SOL     OW 9787   8.692   9.207   8.700  0.0849  0.5675  0.8430
 2683SOL    HW1 9788   8.774   9.161   8.687 -0.8965 -0.6075 -1.7959
 2683SOL    HW2 9789   8.666   9.185   8.790  1.4571 -0.9882  0.8892
 2684SOL     OW 9790   4.769   2.583   8.891  0.2131  0.0676  0.2364
 2684SOL    HW1 9791   4.731   2.614   8.973 -0.6054  1.4591 -0.6269
 2684SOL    HW2 9792   4.839   2.645   8.871  0.8502 -0.6417  0.1881
 2685SOL     OW 9793   1.600   4.909   5.924  0.0562  0.0468 -0.3830
 2685SOL    HW1 9794   1.619   4.897   5.831  0.8462 -0.9158 -0.1213
 2685SOL    HW2 9795   1.510   4.941   5.926  0.4612  1.3642 -1.5253
 2686SOL     OW 9796   7.870   3.716   6.444  0.1425  0.0354 -0.2706
 2686SOL    HW1 9797   7.788   3.742   6.487  1.2157  0.9036  1.3687
 2686SOL    HW2 9798   7.865   3.756   6.357 -0.6275  1.1853  0.2687
 2687SOL     OW 9799   8.999   7.407   0.434  0.2799 -0.1083 -0.1592
 2687SOL    HW1 9800   8.918   7.356   0.425 -0.2889  0.4114  1.6954
 2687SOL    HW2 9801   9.061   7.347   0.475  0.5456 -0.1989 -0.6821
 2688SOL     OW 9802   9.084   0.636   3.510  0.0073  0.4119  0.2222
 2688SOL    HW1 9803   9.134   0.584   3.446  1.2112 -0.4885  1.8132
 2688SOL    HW2 9804   9.045   0.571   3.568  0.5738  1.2506  1.5782
 2689SOL     OW 9805   6.577   0.483   2.159  0.5623 -0.3494 -0.1349
 2689SOL    HW1 9806   6.605   0.495   2.249 -1.3584  2.0857  0.2180
 2689SOL    HW2 9807   6.490   0.442   2.166  0.6584 -0.7064 -0.9161
 2690SOL     OW 9808   4.748   3.922   0.974  0.3144 -0.4225 -0.1336
 2690SOL    HW1 9809   4.705   3.965   1.048  0.9166 -1.4622  0.8467
 2690SOL    HW2 9810   4.838   3.956   0.976  1.0729 -2.3559  1.2343
 2691SOL     OW 9811   7.738   7.583   9.563 -0.0568  0.0360  0.2217
 2691SOL    HW1 9812   7.663   7.524   9.552 -1.8386  2.2095  0.0463
 2691SOL    HW2 9813   7.794   7.563   9.488 -1.5222 -0.1812 -0.8645
 2692SOL     OW 9814   4.717   6.852   7.310 -0.3026  0.6944  0.3120
 2692SOL    HW1 9815   4.803   6.810   7.316  0.1191  1.7151  1.9618
 2692SOL    HW2 9816   4.662   6.803   7.372 -0.4664  1.0410  0.4426
 2693SOL     OW 9817   8.111   4.164   0.419 -0.6225  0.3235 -0.2137
 2693SOL    HW1 9818   8.057   4.090   0.447 -0.6602  0.1703 -0.6888
 2693SOL    HW2 9819   8.062   4.205   0.348  0.5287 -0.6833 -1.6445
 2694SOL     OW 9820   9.344   6.599   4.446  0.4461 -0.0773  0.6317
 2694SOL    HW1 9821   9.287   6.530   4.481  0.8679 -0.7441  0.0283
 2694SOL    HW2 9822   9.428   6.584   4.489  0.6018 -0.0828  0.3267
 2695SOL     OW 9823   6.513   3.837   0.475  0.0329 -0.6848 -0.6066
 2695SOL    HW1 9824   6.563   3.763   0.510 -1.3798 -0.8793  1.1880
 2695SOL    HW2 9825   6.421   3.812   0.489 -0.5880  0.0359 -2.9450
 2696SOL     OW 9826   6.553   6.810   6.763 -0.0997 -0.3323 -0.3919
 2696SOL    HW1 9827   6.544   6.742   6.697  0.2139 -0.3360 -0.4333
 2696SOL    HW2 9828   6.516   6.888   6.721 -1.3312 -0.6849  0.0066
 2697SOL     OW 9829   9.091   2.901   6.529 -0.0194  0.1354 -0.2752
 2697SOL    HW1 9830   9.174   2.860   6.503 -0.7725 -0.9847 -0.9933
 2697SOL    HW2 9831   9.114   2.955   6.604  0.9840 -1.9622  1.0276
 2698SOL     OW 9832   5.688   5.108   4.053 -0.7689  0.1568  0.4692
 2698SOL    HW1 9833   5.628   5.075   4.119 -2.1175  1.0243 -0.2836
 2698SOL    HW2 9834   5.633   5.126   3.976  0.4711  0.7763 -0.3158
 2699SOL     OW 9835   8.703   6.789   7.144 -0.2431  0.2735  0.1442
 2699SOL    HW1 9836   8.770   6.848   7.178 -0.1306  2.0697 -2.8561
 2699SOL    HW2 9837   8.746   6.704   7.140  2.1332  1.4481 -2.0479
 2700SOL     OW 9838   8.869   4.644   9.611  0.0326 -0.0313 -0.9076
 2700SOL    HW1 9839   8.806   4.656   9.682  1.1252 -0.8720  0.2571
 2700SOL    HW2 9840   8.817   4.617   9.536 -1.2473  1.6287 -0.6797
 2701SOL     OW 9841   6.371   8.636   7.836  0.6609  0.1940 -0.1327
 2701SOL    HW1 9842   6.375   8.543   7.860  1.4987  0.2247 -0.1401
 2701SOL    HW2 9843   6.373   8.637   7.740  0.7333  0.2230 -0.1310
 2702SOL     OW 9844   0.980   9.455   1.321  0.0443 -0.1373 -0.1521
 2702SOL    HW1 9845   0.949   9.382   1.374  1.2723 -0.6517 -0.1005
 2702SOL    HW2 9846   0.979   9.422   1.232 -0.8832  0.3293 -0.3303
 2703SOL     OW 9847   7.655   6.426   1.706  0.1632 -0.4703 -0.1799
 2703SOL    HW1 9848   7.619   6.500   1.657  2.1342  1.2930  0.8723
 2703SOL    HW2 9849   7.691   6.465   1.786  0.9012 -2.6366  0.6268
 2704SOL     OW 9850   5.889   1.253   7.344  0.0272 -0.6976 -0.3612
 2704SOL    HW1 9851   5.869   1.318   7.277 -0.0491  0.0973  0.4116
 2704SOL    HW2 9852   5.804   1.219   7.371  0.0374 -0.7969 -0.4541
 2705SOL     OW 9853   5.610   7.107   0.644  0.1777  0.3164  0.3993
 2705SOL    HW1 9854   5.564   7.063   0.716  0.8528 -3.4032 -1.1911
 2705SOL    HW2 9855   5.697   7.067   0.643  1.4033  2.8358 -0.3714
 2706SOL     OW 9856   0.910   0.442   8.181 -0.3171  0.0520  0.2683
 2706SOL    HW1 9857   1.000   0.470   8.200  0.0863 -0.9504 -0.0538
 2706SOL    HW2 9858   0.921   0.369   8.120 -1.3222 -0.6504  0.9056
 2707SOL     OW 9859   8.383   6.648   1.090 -0.3015 -0.2841 -0.4049
 2707SOL    HW1 9860   8.317   6.674   1.027 -1.1297  0.1437  0.6144
 2707SOL    HW2 9861   8.424   6.730   1.118 -0.7245 -0.3389  0.4342
 2708SOL     OW 9862   1.947   3.875   6.214  0.0261 -0.3525 -0.3102
 2708SOL    HW1 9863   1.870   3.931   6.214  1.0582  1.1603  1.6488
 2708SOL    HW2 9864   1.939   3.822   6.293  0.7481 -0.5767 -0.3821
 2709SOL     OW 9865   6.228   4.456   4.049  0.1590  0.2053  0.3122
 2709SOL    HW1 9866   6.155   4.455   4.111  1.1347  1.0022  1.5309
 2709SOL    HW2 9867   6.240   4.364   4.025  1.4214 -0.6124  3.4493
 2710SOL     OW 9868   3.787   7.058   5.268  0.3520 -0.1889 -0.1755
 2710SOL    HW1 9869   3.706   7.099   5.298  0.9996  2.0112 -1.2450
 2710SOL    HW2 9870   3.849   7.130   5.261  1.7162 -1.4377 -1.6895
 2711SOL     OW 9871   0.369   5.266   0.876 -0.6153  0.2471  0.1032
 2711SOL    HW1 9872   0.370   5.191   0.817 -0.7109  0.6451 -0.4086
 2711SOL    HW2 9873   0.444   5.253   0.934 -1.0514 -0.6144  0.4852
 2712SOL     OW 9874   2.473   6.503   2.991 -0.1083 -0.3252  0.5734
 2712SOL    HW1 9875   2.393   6.508   3.044 -0.1095 -0.0220  0.5415
 2712SOL    HW2 9876   2.476   6.411   2.963 -1.7191  0.1421 -1.3534
 2713SOL     OW 9877   9.408   4.702   0.735 -0.1381  0.4541 -0.0375
 2713SOL    HW1 9878   9.501   4.699   0.759 -0.1990  1.3820  0.3527
 2713SOL    HW2 9879   9.408   4.732   0.644 -0.0177 -0.5855 -0.3908
 2714SOL     OW 9880   3.303   5.155   5.370  0.1223  0.2789 -0.2762
 2714SOL    HW1 9881   3.292   5.162   5.464 -0.6733 -3.4207  0.0658
 2714SOL    HW2 9882   3.397   5.144   5.357  0.3454  1.7650 -0.0660
 2715SOL     OW 9883   1.910   5.131   8.991  0.1791 -0.1107  0.3915
 2715SOL    HW1 9884   1.935   5.201   8.931 -1.6674  0.3044  0.0437
 2715SOL    HW2 9885   1.972   5.138   9.064  1.3863  0.4556 -0.6517
 2716SOL     OW 9886   2.100   1.779   3.055 -0.1594 -0.1469 -0.5113
 2716SOL    HW1 9887   2.193   1.762   3.038 -0.4708 -2.4999 -0.1920
 2716SOL    HW2 9888   2.054   1.718   2.997 -1.5380  1.2687 -0.9480
 2717SOL     OW 9889   5.880   4.062   6.602  0.5428 -0.7490  0.2719
 2717SOL    HW1 9890   5.950   4.067   6.537  0.5291  0.4563  0.3365
 2717SOL    HW2 9891   5.924   4.073   6.686  0.1889  1.0814  0.2558
 2718SOL     OW 9892   0.546   6.804   8.670 -0.1436 -0.4117  0.4060
 2718SOL    HW1 9893   0.456   6.830   8.691 -0.1816 -0.9275  0.8964
 2718SOL    HW2 9894   0.586   6.784   8.755  0.1922 -0.9553  0.1274
 2719SOL     OW 9895   9.021   9.428   4.293 -0.7370  0.1268  0.2061
 2719SOL    HW1 9896   9.020   9.353   4.234  0.9020 -1.4726  2.0382
 2719SOL    HW2 9897   9.005   9.504   4.237 -1.3330 -1.4615 -1.9015
 2720SOL     OW 9898   8.193   5.077   7.218 -0.3552 -0.1040  0.7344
 2720SOL    HW1 9899   8.123   5.121   7.170 -0.5717 -0.4397  0.7458
 2720SOL    HW2 9900   8.222   5.007   7.161  0.0226  0.0794  0.6995
 2721SOL     OW 9901   8.642   4.415   3.759 -0.0676  0.9412 -0.5642
 2721SOL    HW1 9902   8.717   4.461   3.796  0.3297  0.7179 -1.0726
 2721SOL    HW2 9903   8.654   4.423   3.664  0.7158 -1.2916 -0.7048
 2722SOL     OW 9904   8.866   1.508   4.986 -0.4863 -0.2248 -0.2087
 2722SOL    HW1 9905   8.797   1.445   5.007 -0.8826  0.8186  1.8279
 2722SOL    HW2 9906   8.826   1.567   4.922 -1.4730  0.3030  0.8687
 2723SOL     OW 9907   3.540   6.815   3.420  0.8885 -0.6377  0.3028
 2723SOL    HW1 9908   3.623   6.835   3.377 -1.2772  2.6212 -2.9374
 2723SOL    HW2 9909   3.507   6.737   3.375  0.4153  0.5113 -1.4598
 2724SOL     OW 9910   6.058   5.321   7.209  0.0334  0.4175  0.1454
 2724SOL    HW1 9911   6.080   5.329   7.302  0.9456  1.9306 -0.1778
 2724SOL    HW2 9912   5.967   5.290   7.209  0.3291 -0.5628  1.5143
 2725SOL     OW 9913   1.376   8.466   6.824 -0.0195  0.0570 -0.5019
 2725SOL    HW1 9914   1.419   8.516   6.755 -0.5731  1.5706  0.2164
 2725SOL    HW2 9915   1.447   8.443   6.884 -0.1606  2.8334  0.8590
 2726SOL     OW 9916   6.258   6.253   3.805  0.6193 -0.1297  0.1198
 2726SOL    HW1 9917   6.297   6.311   3.870  1.1284  0.5512 -0.7570
 2726SOL    HW2 9918   6.174   6.227   3.842 -0.2578  2.2753 -0.0014
 2727SOL     OW 9919   2.008   7.669   7.560 -0.1923 -0.5660  0.1310
 2727SOL    HW1 9920   2.005   7.761   7.537  0.5235 -0.2803  1.0978
 2727SOL    HW2 9921   2.102   7.648   7.562 -0.3287 -1.1753  0.4094
 2728SOL     OW 9922   7.122   6.826   4.837 -0.6285  0.1786  0.3867
 2728SOL    HW1 9923   7.141   6.779   4.755 -1.5691 -0.5550  0.5662
 2728SOL    HW2 9924   7.183   6.789   4.900 -1.3334 -0.8081  0.5158
 2729SOL     OW 9925   5.657   2.381   0.167  0.2258 -0.1352 -0.9258
 2729SOL    HW1 9926   5.628   2.407   0.255 -1.0352  0.6995 -1.5583
 2729SOL    HW2 9927   5.683   2.289   0.177 -2.6913 -1.0144 -0.2549
 2730SOL     OW 9928   0.075   9.173   1.787 -0.8548  0.3051  0.5909
 2730SOL    HW1 9929   0.146   9.111   1.803 -1.3380  0.0324  1.8687
 2730SOL    HW2 9930   0.107   9.256   1.822 -0.1959  0.8217 -1.1467
 2731SOL     OW 9931   8.892   7.412   7.299 -0.0097  0.3481  0.2653
 2731SOL    HW1 9932   8.811   7.362   7.288  0.3624 -0.5244  1.3391
 2731SOL    HW2 9933   8.938   7.368   7.370  1.4056  0.8452 -0.3071
 2732SOL     OW 9934   6.671   6.523   1.305  0.0547  0.1170 -0.1172
 2732SOL    HW1 9935   6.756   6.565   1.293  0.1584 -0.0518  0.0126
 2732SOL    HW2 9936   6.671   6.496   1.397  0.4387 -1.1370 -0.4609
 2733SOL     OW 9937   0.837   7.828   6.207 -0.1689 -0.4449 -0.1619
 2733SOL    HW1 9938   0.786   7.909   6.220  0.4864  0.2228 -1.6011
 2733SOL    HW2 9939   0.927   7.857   6.200  0.4248 -1.5908  1.9435
 2734SOL     OW 9940   3.610   5.908   2.703 -0.3286 -0.1877  0.2985
 2734SOL    HW1 9941   3.548   5.971   2.740  2.1911  2.4450  0.3181
 2734SOL    HW2 9942   3.565   5.875   2.624 -1.7340  1.6716  0.2457
 2735SOL     OW 9943   1.973   2.105   3.235  0.1733 -1.1496 -0.0447
 2735SOL    HW1 9944   1.923   2.186   3.232  2.5406  0.3964 -0.3151
 2735SOL    HW2 9945   1.929   2.047   3.173 -0.3380  0.7088 -1.4980
 2736SOL     OW 9946   8.641   7.695   7.679 -0.4896 -0.3472 -0.0854
 2736SOL    HW1 9947   8.691   7.760   7.629  0.2627 -2.6096 -2.5151
 2736SOL    HW2 9948   8.664   7.713   7.770  1.2229  1.5357 -0.7956
 2737SOL     OW 9949   5.232   0.485   0.200  0.1196 -0.1678  0.1906
 2737SOL    HW1 9950   5.180   0.557   0.236  0.0225 -0.2729  0.2632
 2737SOL    HW2 9951   5.253   0.431   0.276 -1.1024 -1.0433 -0.0556
 2738SOL     OW 9952   7.969   2.780   0.456 -0.0777  0.2556 -0.0243
 2738SOL    HW1 9953   7.981   2.868   0.418 -1.5656  0.5976  0.2393
 2738SOL    HW2 9954   8.023   2.723   0.401 -1.3124  0.9064 -2.0333
 2739SOL     OW 9955   9.211   9.343   7.929 -0.5274  0.0829  0.4064
 2739SOL    HW1 9956   9.154   9.417   7.908 -1.4457  0.1637  2.8513
 2739SOL    HW2 9957   9.156   9.266   7.912 -0.8901  0.1160  1.3593
 2740SOL     OW 9958   4.745   8.009   9.073  0.5646  0.4247 -0.4997
 2740SOL    HW1 9959   4.784   8.025   8.987 -1.0625  0.7186 -1.2211
 2740SOL    HW2 9960   4.747   8.094   9.117  1.4389  0.2647 -0.1950
 2741SOL     OW 9961   6.837   9.332   3.565 -0.1305  0.1113 -0.0535
 2741SOL    HW1 9962   6.762   9.389   3.581 -1.0978 -1.3550  0.8514
 2741SOL    HW2 9963   6.855   9.292   3.650  0.3628 -1.1180 -0.7158
 2742SOL     OW 9964   7.940   5.571   6.928  0.1155 -0.0917 -0.1493
 2742SOL    HW1 9965   7.968   5.480   6.931 -1.0853 -0.4734 -0.0103
 2742SOL    HW2 9966   7.944   5.595   6.836  0.5725 -0.2450 -0.1673
 2743SOL     OW 9967   4.743   7.154   7.356  0.0189  0.2224 -0.1429
 2743SOL    HW1 9968   4.756   7.079   7.414 -0.2653  1.1785  1.2058
 2743SOL    HW2 9969   4.831   7.190   7.342  0.0567  0.1455 -0.0977
 2744SOL     OW 9970   1.548   4.433   7.440 -1.1062 -0.0684  0.1360
 2744SOL    HW1 9971   1.579   4.502   7.382 -1.4776 -0.5239 -0.6138
 2744SOL    HW2 9972   1.609   4.435   7.514  0.2843 -0.4707 -0.9623
 2745SOL     OW 9973   0.984   8.471   0.495  0.0777 -0.6748 -0.2465
 2745SOL    HW1 9974   1.013   8.556   0.529  0.2807  0.2751 -2.5521
 2745SOL    HW2 9975   0.993   8.480   0.400 -2.3117 -2.3940 -0.7173
 2746SOL     OW 9976   8.607   4.009   5.882 -0.0872  0.6483 -0.3646
 2746SOL    HW1 9977   8.522   3.966   5.881 -0.9139  2.1705 -2.4952
 2746SOL    HW2 9978   8.592   4.091   5.928  1.1606 -0.6005  2.4743
 2747SOL     OW 9979   3.736   7.406   5.973  0.2830  0.2035  0.1484
 2747SOL    HW1 9980   3.679   7.328   5.980 -0.9143  0.9833 -0.5140
 2747SOL    HW2 9981   3.807   7.379   5.916  0.2562 -0.6096  0.4815
 2748SOL     OW 9982   6.880   8.797   3.231  0.0610  0.3319 -0.4935
 2748SOL    HW1 9983   6.835   8.746   3.298 -0.5151  0.8755 -0.4534
 2748SOL    HW2 9984   6.970   8.806   3.264  0.0354 -0.2365 -0.2722
 2749SOL     OW 9985   0.970   2.394   9.003  0.2089 -0.4467 -0.2512
 2749SOL    HW1 9986   1.066   2.394   9.010  0.1598 -2.0980  1.0297
 2749SOL    HW2 9987   0.940   2.412   9.092 -0.6638 -0.8841 -0.4498
 2750SOL     OW 9988   1.693   6.339   4.056 -0.0032 -0.1407 -0.5675
 2750SOL    HW1 9989   1.661   6.260   4.099 -1.1113 -0.5091 -2.0058
 2750SOL    HW2 9990   1.662   6.411   4.112 -1.1324 -0.6159 -0.5726
 2751SOL     OW 9991   1.953   1.144   0.702  0.2775  0.2173  0.5804
 2751SOL    HW1 9992   1.878   1.136   0.643 -0.0455  0.4050  0.9605
 2751SOL    HW2 9993   1.941   1.229   0.745  0.2614 -0.1097  1.2423
 2752SOL     OW 9994   7.176   8.821   3.237  0.0809  0.1362 -0.1402
 2752SOL    HW1 9995   7.237   8.784   3.173  2.2790  2.8032  0.1973
 2752SOL    HW2 9996   7.183   8.764   3.313  0.9082 -0.5573 -0.7223
 2753SOL     OW 9997   5.427   9.149   9.312 -0.0044 -0.5527 -0.0370
 2753SOL    HW1 9998   5.394   9.170   9.399  0.5218 -0.8291  0.2395
 2753SOL    HW2 9999   5.445   9.234   9.272  0.2535 -0.4324  0.3268
 2754SOL     OW10000   9.474   7.609   0.731  0.0253 -0.0824 -0.4615
 2754SOL    HW110001   9.399   7.586   0.785 -0.9745  1.0175 -1.3129
 2754SOL    HW210002   9.477   7.541   0.664  1.0265 -1.2266  0.6980
 2755SOL     OW10003   8.135   1.522   4.148 -0.4221 -0.6259  0.7200
 2755SOL    HW110004   8.210   1.494   4.201  0.8743 -0.9847 -1.2123
 2755SOL    HW210005   8.157   1.612   4.122 -0.9891 -0.4930  0.6945
 2756SOL     OW10006   5.756   7.601   8.190  0.1132  0.3306  0.0657
 2756SOL    HW110007   5.827   7.595   8.254 -1.0103 -1.8273  1.2344
 2756SOL    HW210008   5.677   7.590   8.242 -1.0292  1.5952 -1.3469
 2757SOL     OW10009   3.552   5.990   8.861 -0.2727 -0.2176 -0.1908
 2757SOL    HW110010   3.474   5.936   8.878  0.5550 -0.8874  1.7167
 2757SOL    HW210011   3.538   6.024   8.772 -1.7949 -1.9121 -0.6683
 2758SOL     OW10012   1.263   7.157   6.368  0.1059  0.1585  0.4957
 2758SOL    HW110013   1.185   7.186   6.416  0.2945  0.5042  0.5939
 2758SOL    HW210014   1.230   7.134   6.281  0.0387  1.1800  0.2422
 2759SOL     OW10015   1.645   0.192   1.830 -0.0221  0.0281 -0.2725
 2759SOL    HW110016   1.640   0.189   1.925  0.1221  0.6806 -0.2352
 2759SOL    HW210017   1.656   0.285   1.810 -2.6692  0.2775 -1.0457
 2760SOL     OW10018   7.630   7.365   2.146 -0.0287 -0.1801 -0.0996
 2760SOL    HW110019   7.628   7.331   2.235  0.0950 -0.4563 -0.2043
 2760SOL    HW210020   7.540   7.393   2.129  0.2794  1.4933  0.7413
 2761SOL     OW10021   1.747   6.620   8.724 -0.1716 -0.2845 -0.2295
 2761SOL    HW110022   1.825   6.564   8.725 -1.9712 -2.9628 -0.8179
 2761SOL    HW210023   1.706   6.604   8.639 -2.3361 -0.3974  0.7683
 2762SOL     OW10024   2.532   2.704   4.401  0.0579  0.6224 -0.2878
 2762SOL    HW110025   2.578   2.745   4.328 -0.1478  1.7760  0.1912
 2762SOL    HW210026   2.447   2.679   4.365  0.3004  0.3336 -0.6676
 2763SOL     OW10027   1.259   7.290   4.039 -0.2063  0.0174 -0.2170
 2763SOL    HW110028   1.288   7.291   3.948  1.3729  1.7127  0.2389
 2763SOL    HW210029   1.335   7.322   4.088 -1.5768  0.7826  1.5035
 2764SOL     OW10030   6.028   0.787   4.470 -0.3736 -0.6706  0.0622
 2764SOL    HW110031   6.116   0.816   4.494 -0.5342 -0.1051 -0.0219
 2764SOL    HW210032   6.001   0.847   4.400 -0.5802 -1.2299 -0.3501
 2765SOL     OW10033   7.964   6.704   5.096 -0.1507  0.6671  0.8735
 2765SOL    HW110034   7.919   6.632   5.141  0.5683 -0.0675  0.4431
 2765SOL    HW210035   8.027   6.661   5.039  0.1536  1.6436  0.4522
 2766SOL     OW10036   0.386   2.848   7.662 -1.0204 -0.2237  0.1174
 2766SOL    HW110037   0.414   2.830   7.752 -1.5300 -0.2631  0.2735
 2766SOL    HW210038   0.449   2.912   7.629  0.4565 -1.7953 -0.2318
 2767SOL     OW10039   6.071   1.020   5.735 -0.2785  0.1150  0.2951
 2767SOL    HW110040   5.999   1.077   5.708  0.4705  0.4894 -1.0442
 2767SOL    HW210041   6.143   1.080   5.755 -0.2928 -0.2573  1.5344
 2768SOL     OW10042   4.616   8.632   6.367 -0.0679  0.4254 -0.4169
 2768SOL    HW110043   4.705   8.599   6.362 -0.1504  0.0325  0.4558
 2768SOL    HW210044   4.625   8.727   6.362  0.5258  0.4581  0.9591
 2769SOL     OW10045   5.347   0.602   8.694  0.1157 -0.5262  0.0643
 2769SOL    HW110046   5.317   0.518   8.659  0.9658 -0.5631 -0.6138
 2769SOL    HW210047   5.292   0.617   8.770 -1.9564 -0.3579 -1.3856
 2770SOL     OW10048   1.758   6.849   4.564  0.4156  0.2228  0.0327
 2770SOL    HW110049   1.764   6.780   4.497 -1.9578 -1.3930  1.3596
 2770SOL    HW210050   1.759   6.802   4.647 -1.5402  1.7575  0.9835
 2771SOL     OW10051   9.405   1.794   7.865 -0.2264  0.2173  0.2404
 2771SOL    HW110052   9.386   1.701   7.853 -0.7036  0.1648  1.3283
 2771SOL    HW210053   9.348   1.838   7.802 -1.1709 -0.1508  0.8226
 2772SOL     OW10054   6.025   6.838   8.505 -0.0920 -0.6064 -0.3457
 2772SOL    HW110055   6.041   6.750   8.470  0.8558 -0.7346  0.3707
 2772SOL    HW210056   5.976   6.822   8.586  3.8099 -0.8983  2.2465
 2773SOL     OW10057   3.195   2.943   6.389 -0.1008 -0.5018 -0.3961
 2773SOL    HW110058   3.222   2.852   6.383  0.3559 -0.3773 -0.2557
 2773SOL    HW210059   3.111   2.941   6.436  0.8897 -0.6833  1.4295
 2774SOL     OW10060   6.072   0.394   0.000  0.0026  0.0107  0.7241
 2774SOL    HW110061   6.165   0.415   0.003  0.0628 -0.2229  0.5558
 2774SOL    HW210062   6.068   0.309  -0.044 -0.3914  0.6541 -0.5347
 2775SOL     OW10063   7.095   3.683   4.576 -0.0673  0.0228  0.0478
 2775SOL    HW110064   7.013   3.705   4.621 -0.1920  0.2528 -0.2867
 2775SOL    HW210065   7.069   3.618   4.510  0.0923 -0.2135  0.2179
 2776SOL     OW10066   7.730   5.302   9.430  0.1569 -0.2045  0.4480
 2776SOL    HW110067   7.718   5.290   9.336  1.6083  2.2402 -0.1227
 2776SOL    HW210068   7.802   5.242   9.453 -0.6628 -1.3230  0.1968
 2777SOL     OW10069   3.566   5.673   1.603  0.6222 -0.1738 -0.0678
 2777SOL    HW110070   3.536   5.687   1.514  0.7157  0.0192 -0.0722
 2777SOL    HW210071   3.496   5.707   1.658  1.0644  0.8235 -0.0829
 2778SOL     OW10072   2.885   0.975   5.273 -0.3796 -0.0993 -0.1394
 2778SOL    HW110073   2.832   1.005   5.200 -0.8363  1.0096  0.6118
 2778SOL    HW210074   2.863   1.036   5.345 -0.6226 -1.6685  1.1770
 2779SOL     OW10075   1.359   4.052   8.777  0.2070  0.3171  0.3225
 2779SOL    HW110076   1.416   4.028   8.850  0.4625 -1.8187 -0.4829
 2779SOL    HW210077   1.285   3.990   8.784 -1.0870  1.7958  0.2562
 2780SOL     OW10078   6.922   0.718   1.830 -0.2071  0.3783  0.1512
 2780SOL    HW110079   7.013   0.750   1.832 -0.4519  1.0382  0.8863
 2780SOL    HW210080   6.920   0.658   1.755  1.3986 -1.3481  1.3871
 2781SOL     OW10081   3.113   9.608   6.258  0.2845 -0.0039 -0.4411
 2781SOL    HW110082   3.162   9.660   6.195  0.4880 -1.0527 -1.1835
 2781SOL    HW210083   3.179   9.570   6.315  0.3841 -1.3267 -1.3722
 2782SOL     OW10084   2.733   2.618   0.207 -0.2558  0.0244 -0.1805
 2782SOL    HW110085   2.727   2.542   0.150 -0.3723  0.3322 -0.5803
 2782SOL    HW210086   2.815   2.606   0.255 -0.4649 -0.5469  0.0454
 2783SOL     OW10087   6.591   1.778   9.502  0.0193  0.0266 -0.0261
 2783SOL    HW110088   6.597   1.869   9.472 -0.1294 -0.3888 -1.4087
 2783SOL    HW210089   6.504   1.771   9.541  0.8910  1.0500  2.2277
 2784SOL     OW10090   3.838   7.973   1.405  0.6873 -0.1663 -0.2748
 2784SOL    HW110091   3.826   8.053   1.355 -0.8342 -0.6449 -0.7214
 2784SOL    HW210092   3.750   7.937   1.414  1.1132 -0.8556  1.4863
 2785SOL     OW10093   9.117   9.001   8.300 -0.0633  0.1385 -0.0563
 2785SOL    HW110094   9.120   9.094   8.324  0.0043  0.5712 -1.6282
 2785SOL    HW210095   9.100   9.001   8.206 -2.5043 -1.4959  0.3138
 2786SOL     OW10096   1.479   3.004   2.693  0.0559  0.2664  0.1827
 2786SOL    HW110097   1.552   2.985   2.634  0.2255  0.5494  0.3000
 2786SOL    HW210098   1.438   2.919   2.709  0.6992  0.0159  0.5544
 2787SOL     OW10099   0.494   5.733   8.522 -0.0178 -0.1669 -0.4281
 2787SOL    HW110100   0.571   5.689   8.486 -0.1036 -1.3037  0.7269
 2787SOL    HW210101   0.496   5.821   8.482  1.8584 -0.1794 -0.4320
 2788SOL     OW10102   4.210   1.046   1.388 -0.0519 -0.2312 -0.4211
 2788SOL    HW110103   4.164   1.100   1.452 -0.5573  0.4135 -1.3108
 2788SOL    HW210104   4.301   1.048   1.417 -0.1167  0.8363 -0.2465
 2789SOL     OW10105   7.724   7.214   6.834  0.0467 -0.4365 -0.6188
 2789SOL    HW110106   7.666   7.148   6.796 -0.5383 -0.5628  0.4594
 2789SOL    HW210107   7.672   7.254   6.903  0.9928 -0.0224 -0.1395
 2790SOL     OW10108   1.978   1.778   4.077  0.2575 -0.6695  0.1960
 2790SOL    HW110109   2.069   1.753   4.088  1.0418  2.2133  1.0060
 2790SOL    HW210110   1.964   1.775   3.982  1.2698 -0.8209  0.0434
 2791SOL     OW10111   0.752   0.825   5.469  0.1835  0.2389 -0.1651
 2791SOL    HW110112   0.807   0.873   5.530  1.1157 -0.5051 -0.4069
 2791SOL    HW210113   0.734   0.887   5.398  1.0648  0.3661 -0.2896
 2792SOL     OW10114   9.039   9.471   3.724 -0.4753 -0.0125 -0.6437
 2792SOL    HW110115   9.085   9.419   3.658  1.2739  1.6646 -0.8556
 2792SOL    HW210116   8.990   9.536   3.672 -0.8688 -0.0655 -0.3402
 2793SOL     OW10117   0.422   6.592   7.646 -0.1224 -0.2118 -0.5824
 2793SOL    HW110118   0.359   6.637   7.589 -0.5556 -0.4064 -0.2579
 2793SOL    HW210119   0.486   6.554   7.585 -0.9566 -0.9960 -0.9919
 2794SOL     OW10120   8.146   3.578   4.935  0.1470 -0.0941 -0.1440
 2794SOL    HW110121   8.229   3.578   4.887 -0.4227 -1.1408 -1.1868
 2794SOL    HW210122   8.097   3.651   4.899  0.0714 -0.3283 -0.5136
 2795SOL     OW10123   3.066   5.297   5.007 -0.4065  0.4164 -0.5380
 2795SOL    HW110124   3.039   5.382   4.973  0.3222  0.8921  0.0499
 2795SOL    HW210125   3.130   5.317   5.075 -0.4405 -0.5935 -0.1920
 2796SOL     OW10126   5.570   3.320   1.705  0.8482  0.4853 -0.7101
 2796SOL    HW110127   5.502   3.281   1.650  1.7412  0.0477 -1.5246
 2796SOL    HW210128   5.645   3.261   1.696  0.8678  0.0965  1.4061
 2797SOL     OW10129   5.730   5.437   9.486  1.2765 -0.2117 -0.4055
 2797SOL    HW110130   5.686   5.399   9.562 -0.9676  1.6877 -0.6001
 2797SOL    HW210131   5.791   5.501   9.523  2.1470 -1.1472 -0.1833
 2798SOL     OW10132   7.764   0.613   7.346 -0.2716 -0.0279 -0.1497
 2798SOL    HW110133   7.733   0.556   7.277  0.3542  1.3909 -1.6674
 2798SOL    HW210134   7.705   0.689   7.344 -0.4052 -0.0729  1.0593
 2799SOL     OW10135   6.447   2.155   2.340 -0.3654  0.2414 -0.2377
 2799SOL    HW110136   6.526   2.168   2.393 -0.7916 -0.5163  0.6265
 2799SOL    HW210137   6.408   2.075   2.375 -0.8731 -0.0743 -1.4751
 2800SOL     OW10138   0.876   6.724   8.648  0.1817  0.4458  0.1520
 2800SOL    HW110139   0.946   6.673   8.607  0.3486  0.2098  0.7248
 2800SOL    HW210140   0.879   6.700   8.741 -0.1853  0.9802  0.3118
 2801SOL     OW10141   4.531   3.502   7.969  0.1338 -0.2260 -0.2609
 2801SOL    HW110142   4.584   3.474   8.044 -1.6702  1.2181  1.6869
 2801SOL    HW210143   4.590   3.496   7.894  2.3450 -0.7893  1.4087
 2802SOL     OW10144   2.359   4.532   6.816  0.0968  0.3863 -0.3714
 2802SOL    HW110145   2.274   4.567   6.844  0.3520  0.1453  0.7548
 2802SOL    HW210146   2.418   4.553   6.889  0.1710 -2.8262  0.6444
 2803SOL     OW10147   4.788   7.449   5.756 -0.2065 -0.1415  0.8992
 2803SOL    HW110148   4.851   7.402   5.702 -1.1914 -1.5459  0.9281
 2803SOL    HW210149   4.834   7.464   5.839  0.1052 -1.1258  0.9127
 2804SOL     OW10150   5.762   0.331   5.520 -0.2475 -0.2787 -0.6102
 2804SOL    HW110151   5.742   0.423   5.503 -1.1097 -0.6118 -1.5732
 2804SOL    HW210152   5.770   0.292   5.432  1.3000 -0.8900 -0.2269
 2805SOL     OW10153   2.378   3.049   4.112 -0.6621  0.1463 -0.3822
 2805SOL    HW110154   2.381   3.058   4.207 -0.7035 -0.1034 -0.3575
 2805SOL    HW210155   2.416   2.963   4.094  3.7462  1.9215 -0.9201
 2806SOL     OW10156   7.768   8.566   4.490  0.5980 -0.1490  0.1839
 2806SOL    HW110157   7.693   8.532   4.538  0.6902  0.4345  0.7548
 2806SOL    HW210158   7.842   8.516   4.523  0.4747 -0.6753 -0.3274
 2807SOL     OW10159   2.632   0.019   1.502 -0.3093 -0.3550 -0.2236
 2807SOL    HW110160   2.673   0.099   1.469 -1.1747 -0.0387 -0.5777
 2807SOL    HW210161   2.588  -0.019   1.425  0.3797 -1.3669 -0.1400
 2808SOL     OW10162   0.689   3.079   7.438  0.3021 -0.3131  0.0178
 2808SOL    HW110163   0.637   3.147   7.479  1.3256  1.2324 -1.1477
 2808SOL    HW210164   0.768   3.073   7.492 -0.0107 -0.9898  0.4232
 2809SOL     OW10165   4.663   6.235   6.741 -0.0490  0.0554  0.0924
 2809SOL    HW110166   4.732   6.302   6.747  0.9976 -0.9624 -0.1081
 2809SOL    HW210167   4.704   6.164   6.692 -0.7008 -1.2434  1.3620
 2810SOL     OW10168   3.816   1.641   0.145  0.1585  0.3790 -0.3867
 2810SOL    HW110169   3.861   1.716   0.185  1.7011 -0.2130 -0.9460
 2810SOL    HW210170   3.886   1.580   0.123 -1.0345 -1.0141 -0.4187
 2811SOL     OW10171   2.070   3.794   7.757 -0.6257  0.3963 -0.0330
 2811SOL    HW110172   1.999   3.859   7.753 -0.8583  0.4012  2.5480
 2811SOL    HW210173   2.144   3.842   7.795  1.0953  0.5627 -3.2245
 2812SOL     OW10174   3.118   8.285   7.032 -0.2155 -0.2027 -0.3958
 2812SOL    HW110175   3.173   8.271   6.955 -0.1934  2.8758 -1.0591
 2812SOL    HW210176   3.161   8.357   7.079 -0.2970 -1.8880  2.5030
 2813SOL     OW10177   4.460   2.255   2.125  0.3701 -0.1328 -0.0581
 2813SOL    HW110178   4.550   2.246   2.091 -0.0486  0.1069 -1.2913
 2813SOL    HW210179   4.471   2.257   2.220  1.6324 -0.5628 -0.1652
 2814SOL     OW10180   6.876   5.443   0.389 -0.0135  0.2885  0.3929
 2814SOL    HW110181   6.793   5.489   0.373 -0.1942  0.3810  1.5343
 2814SOL    HW210182   6.866   5.359   0.345 -0.7314  0.2849  0.5563
 2815SOL     OW10183   8.845   3.281   7.503  0.6018  0.6649 -0.4411
 2815SOL    HW110184   8.790   3.281   7.425  0.7886  0.2653 -0.5745
 2815SOL    HW210185   8.782   3.276   7.576  0.3632  2.3778 -0.5029
 2816SOL     OW10186   1.858   6.091   8.324  0.8010 -0.1190  0.0038
 2816SOL    HW110187   1.800   6.048   8.387  3.0464 -1.6557  1.1612
 2816SOL    HW210188   1.881   6.174   8.365  1.4268 -0.6511  0.7568
 2817SOL     OW10189   7.504   4.133   8.153  0.0175 -0.1585 -0.0128
 2817SOL    HW110190   7.448   4.055   8.161  0.6298 -0.6354 -0.2925
 2817SOL    HW210191   7.575   4.105   8.095  0.4907  0.4708  0.2577
 2818SOL     OW10192   6.451   6.665   6.302 -0.2080  0.5550 -0.1058
 2818SOL    HW110193   6.473   6.653   6.210 -1.3764  1.5981 -0.5580
 2818SOL    HW210194   6.458   6.760   6.316  0.5556  0.3486  1.0491
 2819SOL     OW10195   6.284   0.084   8.362 -0.1948  0.5286 -0.2845
 2819SOL    HW110196   6.322  -0.001   8.384 -2.7082 -0.3051  1.2625
 2819SOL    HW210197   6.222   0.102   8.433  0.6257  3.9441 -0.2943
 2820SOL     OW10198   2.936   7.367   5.815 -0.1141 -0.0263 -0.5814
 2820SOL    HW110199   3.018   7.319   5.826  0.6549  1.7827  2.7838
 2820SOL    HW210200   2.962   7.452   5.779 -0.6410  0.2543 -0.3136
 2821SOL     OW10201   5.748   3.534   1.749 -0.2419  0.8915 -0.4567
 2821SOL    HW110202   5.688   3.460   1.749  0.3851  0.3691  0.1231
 2821SOL    HW210203   5.701   3.602   1.799  0.0013  0.1786  0.7820
 2822SOL     OW10204   0.128   6.827   0.071 -0.2977  0.4960  0.4536
 2822SOL    HW110205   0.043   6.838   0.029 -0.8164 -0.6249  1.1455
 2822SOL    HW210206   0.112   6.763   0.141  1.2617 -0.3351  0.0968
 2823SOL     OW10207   6.138   4.313   0.337 -0.1790  0.5601  0.1679
 2823SOL    HW110208   6.222   4.343   0.373 -0.3714  2.1841 -0.6565
 2823SOL    HW210209   6.093   4.273   0.411 -0.5918  3.8195  1.8638
 2824SOL     OW10210   0.230   6.302   1.897 -0.5911 -0.6835  0.2933
 2824SOL    HW110211   0.152   6.274   1.945 -1.2884 -0.1464 -0.5041
 2824SOL    HW210212   0.277   6.220   1.878 -1.9625 -1.2325 -0.9280
 2825SOL     OW10213   2.573   7.119   8.779 -0.4365  0.1918  0.3619
 2825SOL    HW110214   2.648   7.060   8.784  1.0856  2.0333 -0.0375
 2825SOL    HW210215   2.589   7.185   8.846 -2.1824  0.1285  0.8937
 2826SOL     OW10216   2.588   3.984   1.477 -0.1676  0.2533  0.0231
 2826SOL    HW110217   2.620   4.074   1.491  1.3072 -0.5453  2.5065
 2826SOL    HW210218   2.503   3.983   1.520 -0.6031  0.6762 -0.8080
 2827SOL     OW10219   1.010   3.225   4.791 -0.2322 -0.1190 -0.2397
 2827SOL    HW110220   1.024   3.289   4.861 -0.0974 -1.7668  1.3221
 2827SOL    HW210221   1.098   3.197   4.766 -0.3058 -0.0971 -0.5292
 2828SOL     OW10222   5.398   6.225   2.702 -0.1256 -0.5201 -0.4106
 2828SOL    HW110223   5.478   6.278   2.694  1.5898 -2.7036  1.2553
 2828SOL    HW210224   5.388   6.184   2.616  1.1743 -1.0214 -0.3418
 2829SOL     OW10225   5.248   6.746   0.215  0.1665  0.2945  0.3360
 2829SOL    HW110226   5.297   6.762   0.296  0.0936  0.0501  0.4284
 2829SOL    HW210227   5.156   6.755   0.241  0.0850 -1.0392  0.5651
 2830SOL     OW10228   2.328   4.660   5.210 -0.0522  0.1837 -0.0674
 2830SOL    HW110229   2.366   4.651   5.123  0.3710 -0.6828  0.1998
 2830SOL    HW210230   2.382   4.726   5.254  0.1704  0.1049 -0.2236
 2831SOL     OW10231   6.474   8.125   5.931  0.2629 -0.2340  0.2868
 2831SOL    HW110232   6.529   8.089   6.001  2.0422  0.7389 -0.5318
 2831SOL    HW210233   6.424   8.050   5.900  1.6597 -1.3612  0.6064
 2832SOL     OW10234   2.452   9.275   2.054 -0.4668  0.2318 -0.5679
 2832SOL    HW110235   2.440   9.365   2.026 -1.3430  0.1152 -0.5931
 2832SOL    HW210236   2.363   9.240   2.064 -0.1826 -0.1183  1.0922
 2833SOL     OW10237   8.146   6.554   1.455  0.1235 -0.1797  0.5231
 2833SOL    HW110238   8.151   6.648   1.434 -1.2370  0.1545  1.5796
 2833SOL    HW210239   8.198   6.512   1.387  0.2416  1.2924 -0.3401
 2834SOL     OW10240   4.217   4.978   2.934  0.1096  0.0294  0.1218
 2834SOL    HW110241   4.302   5.021   2.929  0.3226 -0.1674  1.6177
 2834SOL    HW210242   4.217   4.916   2.861  1.9954 -1.2545  1.1465
 2835SOL     OW10243   7.641   2.272   2.298  0.4182 -0.0910 -0.3081
 2835SOL    HW110244   7.698   2.277   2.374  1.2269 -3.0055 -0.6258
 2835SOL    HW210245   7.690   2.316   2.229  1.3513 -0.6992 -0.0458
 2836SOL     OW10246   3.463   2.971   7.440  0.4382  0.4478 -0.5329
 2836SOL    HW110247   3.522   3.046   7.430  0.3790  0.4911 -0.5655
 2836SOL    HW210248   3.382   2.999   7.397 -0.3586  1.2313  1.3863
 2837SOL     OW10249   4.952   2.095   4.163  0.3520 -0.4143 -0.1686
 2837SOL    HW110250   4.952   2.108   4.258  0.2031 -0.2375 -0.1920
 2837SOL    HW210251   5.024   2.033   4.148  1.1708  0.4784 -0.0597
 2838SOL     OW10252   3.469   3.940   8.131 -0.4526  0.4146 -0.5800
 2838SOL    HW110253   3.484   3.864   8.075 -2.4836 -0.2636 -0.2992
 2838SOL    HW210254   3.381   3.969   8.109 -0.5963  1.2682  0.9415
 2839SOL     OW10255   8.930   5.689   6.044  0.1564  0.1042  0.0171
 2839SOL    HW110256   8.994   5.720   5.980 -0.2566 -0.5970 -0.7538
 2839SOL    HW210257   8.983   5.642   6.109  0.3198 -2.2158 -1.6569
 2840SOL     OW10258   3.446   4.602   8.666  0.2764 -0.4944  0.0002
 2840SOL    HW110259   3.422   4.600   8.758  0.8792  0.7565  0.1940
 2840SOL    HW210260   3.540   4.616   8.665 -0.0479  2.2759 -0.7719
 2841SOL     OW10261   4.126   0.827   1.266  0.1402 -0.9614 -0.4389
 2841SOL    HW110262   4.208   0.810   1.220  1.1016 -1.1070  1.2386
 2841SOL    HW210263   4.148   0.891   1.333 -1.5454  0.3805 -1.1022
 2842SOL     OW10264   5.385   2.938   3.420 -0.2029  0.6469 -0.2729
 2842SOL    HW110265   5.364   2.845   3.424  0.9860  0.3835  0.0983
 2842SOL    HW210266   5.325   2.973   3.354 -1.5447 -0.1220  0.4945
 2843SOL     OW10267   7.990   5.282   2.865  0.4934  0.1600 -0.0878
 2843SOL    HW110268   7.954   5.218   2.803 -0.1929  0.8270 -0.3881
 2843SOL    HW210269   7.998   5.363   2.815 -0.9912  0.9845  0.9155
 2844SOL     OW10270   7.508   7.300   3.004 -0.1030 -0.4008  0.0504
 2844SOL    HW110271   7.424   7.322   2.966 -0.2916 -1.2519 -0.0520
 2844SOL    HW210272   7.542   7.230   2.948  0.2017 -0.7716  0.6858
 2845SOL     OW10273   1.016   6.907   9.348 -0.2258  0.7834  0.1068
 2845SOL    HW110274   0.957   6.882   9.419 -0.5383  1.6729  0.1837
 2845SOL    HW210275   1.022   6.830   9.293 -0.3426  0.2266  0.8604
 2846SOL     OW10276   7.022   1.910   7.285 -0.8302  0.2937  0.2433
 2846SOL    HW110277   7.065   1.864   7.213 -2.5125  0.5654 -0.9881
 2846SOL    HW210278   7.025   1.848   7.358  1.9294  0.4436  0.3567
 2847SOL     OW10279   0.472   0.197   2.064  0.1068  0.2990 -0.1382
 2847SOL    HW110280   0.499   0.132   2.130  0.4806  0.8217  0.2329
 2847SOL    HW210281   0.544   0.260   2.062  0.6230 -0.3103 -1.8698
 2848SOL     OW10282   5.919   3.089   3.765 -0.5675 -0.1278 -0.2298
 2848SOL    HW110283   5.873   3.021   3.814  0.9720 -0.2175  1.1855
 2848SOL    HW210284   5.975   3.040   3.704 -2.9242 -0.0160 -2.6541
 2849SOL     OW10285   9.290   3.997   2.510  0.0707 -0.2647  0.0428
 2849SOL    HW110286   9.257   3.924   2.458  0.3329 -1.2401  1.2209
 2849SOL    HW210287   9.216   4.023   2.566 -1.2720  2.7878 -2.7809
 2850SOL     OW10288   6.752   2.558   6.161 -0.2920 -0.2882  0.2929
 2850SOL    HW110289   6.749   2.464   6.181  0.1312 -0.4565 -0.3978
 2850SOL    HW210290   6.792   2.562   6.074  0.2213  0.5753  0.5691
 2851SOL     OW10291   5.478   0.713   3.673  0.2215  0.0406  0.2099
 2851SOL    HW110292   5.458   0.733   3.581 -0.3656  0.5399  0.4420
 2851SOL    HW210293   5.403   0.663   3.703 -0.6062  1.6783  1.0026
 2852SOL     OW10294   4.248   5.269   2.011  0.5772 -0.2824 -0.4024
 2852SOL    HW110295   4.247   5.344   1.952 -1.5182  0.9814  1.1096
 2852SOL    HW210296   4.179   5.211   1.977  2.0739 -1.5445 -1.4671
 2853SOL     OW10297   0.508   0.339   4.364  0.1622 -0.4224 -0.9645
 2853SOL    HW110298   0.412   0.348   4.363  0.2224  0.5704  0.0861
 2853SOL    HW210299   0.540   0.429   4.360  0.9963 -0.5330  1.6575
 2854SOL     OW10300   0.685   5.141   2.118  0.0676  0.0153 -0.1310
 2854SOL    HW110301   0.743   5.091   2.176 -1.8478 -0.7039  1.2461
 2854SOL    HW210302   0.700   5.102   2.031  1.5163 -0.2350  0.2000
 2855SOL     OW10303   2.874   5.746   1.468 -0.0630 -0.7246  0.5894
 2855SOL    HW110304   2.947   5.809   1.469 -1.1627  0.6113  0.4847
 2855SOL    HW210305   2.907   5.672   1.417  0.2860  1.0641 -1.9670
 2856SOL     OW10306   5.723   1.955   1.486 -0.1841  0.1713 -0.1869
 2856SOL    HW110307   5.734   2.049   1.498  1.2281 -0.2225  2.2186
 2856SOL    HW210308   5.784   1.932   1.416  0.5604  0.8561  0.2249
 2857SOL     OW10309   8.157   1.718   6.919  0.1467  0.3018 -0.4826
 2857SOL    HW110310   8.165   1.688   6.828 -1.5265 -0.3854 -0.4315
 2857SOL    HW210311   8.083   1.779   6.918 -2.3049 -2.4462  1.0135
 2858SOL     OW10312   2.300   5.839   4.385  0.1029 -0.2449 -0.0902
 2858SOL    HW110313   2.292   5.903   4.456 -1.5571 -2.1721  1.5660
 2858SOL    HW210314   2.374   5.871   4.334  0.9884  1.6038  2.1267
 2859SOL     OW10315   1.395   4.029   3.968 -0.0327 -0.7492 -0.4018
 2859SOL    HW110316   1.449   4.094   3.922  0.5075  0.0545  1.2709
 2859SOL    HW210317   1.379   4.069   4.053 -0.8840 -2.2362  0.1579
 2860SOL     OW10318   0.492   2.580   5.021 -0.2028  0.1265  0.1989
 2860SOL    HW110319   0.481   2.636   4.944 -1.1614  1.1764  1.0776
 2860SOL    HW210320   0.576   2.536   5.006 -0.5524  0.0141 -1.6183
 2861SOL     OW10321   9.274   1.796   1.940  0.3135 -0.4342 -0.3985
 2861SOL    HW110322   9.272   1.884   1.978  0.3467  0.6303 -2.6690
 2861SOL    HW210323   9.235   1.807   1.853  0.3923 -2.6686 -0.7719
 2862SOL     OW10324   4.744   9.392   3.719  0.0823 -0.2004  0.3561
 2862SOL    HW110325   4.737   9.478   3.761  0.3279 -1.3215  2.8848
 2862SOL    HW210326   4.835   9.386   3.693  0.1323  0.1888  0.4287
 2863SOL     OW10327   1.801   1.833   1.327  0.7145 -0.3742  0.3950
 2863SOL    HW110328   1.869   1.900   1.319  0.6709 -0.5243 -1.8718
 2863SOL    HW210329   1.723   1.882   1.353  1.1018  0.1798  0.5327
 2864SOL     OW10330   5.785   4.991   9.158 -0.5266 -0.2764  0.2647
 2864SOL    HW110331   5.789   5.068   9.101 -0.9442 -0.4851 -0.0557
 2864SOL    HW210332   5.876   4.975   9.183 -0.1741 -0.8539 -1.2610
 2865SOL     OW10333   5.067   8.848   2.300  0.5528 -0.0463 -0.1517
 2865SOL    HW110334   4.998   8.819   2.241  1.0439  0.7406 -1.1548
 2865SOL    HW210335   5.073   8.780   2.366 -1.4796  0.0772  0.2285
 2866SOL     OW10336   9.273   4.359   5.793 -0.2714  0.4500  0.0248
 2866SOL    HW110337   9.193   4.399   5.828 -2.0200 -1.9792 -0.9535
 2866SOL    HW210338   9.261   4.360   5.698 -1.1430 -3.4822 -0.0750
 2867SOL     OW10339   9.035   7.946   2.644 -0.1238  0.0071  0.3264
 2867SOL    HW110340   9.053   8.038   2.624 -0.1542 -0.3121 -1.2418
 2867SOL    HW210341   9.112   7.899   2.614 -1.2007 -0.7572 -1.3547
 2868SOL     OW10342   1.427   5.962   0.111 -0.1097 -0.0976 -0.7490
 2868SOL    HW110343   1.378   6.029   0.064  0.8489 -0.6842 -2.6862
 2868SOL    HW210344   1.364   5.890   0.123 -1.3416  1.2748  1.9286
 2869SOL     OW10345   5.554   7.148   6.391 -0.5709 -0.6863  0.5252
 2869SOL    HW110346   5.524   7.190   6.471  0.5239 -1.7354  1.5353
 2869SOL    HW210347   5.620   7.208   6.355 -0.7155 -0.4347  0.6817
 2870SOL     OW10348   0.090   7.847   2.128 -0.3105 -0.0041  0.5452
 2870SOL    HW110349   0.050   7.899   2.197  0.3977  0.6262  0.4928
 2870SOL    HW210350   0.059   7.887   2.047 -0.9513 -0.5955  0.4906
 2871SOL     OW10351   3.494   1.849   6.466 -0.4594 -0.1023 -0.8917
 2871SOL    HW110352   3.400   1.861   6.478 -0.5516 -0.0294 -1.6393
 2871SOL    HW210353   3.535   1.902   6.534 -0.9756 -1.1989  0.3075
 2872SOL     OW10354   3.579   4.213   4.303 -0.4122 -0.0953 -0.1334
 2872SOL    HW110355   3.483   4.217   4.309 -0.4885 -1.4264 -0.1321
 2872SOL    HW210356   3.596   4.148   4.235  0.5004  0.4984 -0.4900
 2873SOL     OW10357   9.394   1.058   1.941 -0.3711  0.2054  0.1184
 2873SOL    HW110358   9.334   1.084   1.871  1.0659  1.4574 -0.7160
 2873SOL    HW210359   9.480   1.087   1.910  0.1993  1.7486  2.8268
 2874SOL     OW10360   8.683   7.993   2.470  0.1224 -0.5942  0.1421
 2874SOL    HW110361   8.756   8.019   2.413 -0.1115  0.2184  0.2103
 2874SOL    HW210362   8.620   8.064   2.462 -2.0458 -2.5976 -2.2318
 2875SOL     OW10363   8.285   7.279   6.902  0.5257 -0.0588  0.7788
 2875SOL    HW110364   8.207   7.327   6.928  0.9018  0.6683  0.5824
 2875SOL    HW210365   8.352   7.346   6.887  1.1271 -0.6503  0.7233
 2876SOL     OW10366   4.804   6.941   0.822  0.3141  0.2796  0.3746
 2876SOL    HW110367   4.864   6.950   0.748 -1.9496 -1.2883 -1.7759
 2876SOL    HW210368   4.803   6.847   0.840  0.5708  0.5935  2.2731
 2877SOL     OW10369   8.027   5.317   1.746 -0.0055 -0.7073  0.3449
 2877SOL    HW110370   8.111   5.299   1.703 -0.0445  2.3474 -1.2963
 2877SOL    HW210371   8.048   5.380   1.814 -0.9455  0.0031 -0.0103
 2878SOL     OW10372   6.160   8.527   0.753  0.6254 -0.4710 -0.4905
 2878SOL    HW110373   6.178   8.466   0.824  0.9418 -1.0976 -1.0933
 2878SOL    HW210374   6.149   8.612   0.796  0.5643 -0.8839  0.3201
 2879SOL     OW10375   7.283   5.709   3.690 -0.1742  0.3120 -0.2191
 2879SOL    HW110376   7.189   5.723   3.702 -0.1166  1.9764 -1.3284
 2879SOL    HW210377   7.300   5.735   3.600  1.6415  2.0137  0.5224
 2880SOL     OW10378   7.654   0.124   5.625 -0.6113 -0.1421  0.4473
 2880SOL    HW110379   7.641   0.104   5.532 -0.1967 -0.4491  0.4554
 2880SOL    HW210380   7.672   0.218   5.626  1.7881 -0.5292 -0.0537
 2881SOL     OW10381   3.019   4.218   4.577 -0.2041 -0.1421 -0.4718
 2881SOL    HW110382   3.112   4.203   4.565  0.3451  3.1890 -1.1854
 2881SOL    HW210383   3.011   4.259   4.662 -0.7945  0.9983 -1.0524
 2882SOL     OW10384   1.889   2.151   1.054 -0.2740 -0.2326 -0.3695
 2882SOL    HW110385   1.847   2.229   1.090 -0.5131 -0.0519 -1.0427
 2882SOL    HW210386   1.947   2.121   1.124 -1.6701 -0.6144  0.6901
 2883SOL     OW10387   4.194   6.460   1.560 -0.1032  0.2387  0.1725
 2883SOL    HW110388   4.254   6.507   1.618 -0.2812  1.3106 -0.4780
 2883SOL    HW210389   4.110   6.505   1.570 -0.4784 -0.4308  0.1011
 2884SOL     OW10390   5.105   8.824   1.629 -0.0429  0.5566 -0.3098
 2884SOL    HW110391   5.037   8.872   1.676 -0.8306 -0.5341 -0.3179
 2884SOL    HW210392   5.159   8.893   1.589 -1.0080  1.4376 -0.1439
 2885SOL     OW10393   4.511   3.025   8.795 -0.6548 -0.3287  0.1743
 2885SOL    HW110394   4.432   3.005   8.845 -1.6785  0.5977 -0.9948
 2885SOL    HW210395   4.573   3.058   8.860 -0.6207 -2.5813  1.3576
 2886SOL     OW10396   2.105   5.438   4.874  0.5334  0.3891  0.3646
 2886SOL    HW110397   2.138   5.352   4.850  0.5731  0.8535 -1.3961
 2886SOL    HW210398   2.097   5.436   4.969 -2.2512 -2.5864  0.2376
 2887SOL     OW10399   5.691   2.613   4.767  0.0758 -0.3782 -0.1970
 2887SOL    HW110400   5.780   2.647   4.776  0.0398 -0.3250 -0.0226
 2887SOL    HW210401   5.644   2.680   4.717  0.0949 -0.3348 -0.1568
 2888SOL     OW10402   4.826   2.445   0.939  0.5543 -0.1154 -0.5089
 2888SOL    HW110403   4.736   2.461   0.969  0.7066 -1.3971  0.7500
 2888SOL    HW210404   4.852   2.527   0.898 -0.2215  1.2755  1.6171
 2889SOL     OW10405   1.195   7.160   6.095 -0.4282  0.0322  0.0043
 2889SOL    HW110406   1.166   7.250   6.104  1.4247  0.6226  0.5867
 2889SOL    HW210407   1.239   7.157   6.011  0.1721 -0.1120  0.3140
 2890SOL     OW10408   9.539   6.283   0.969 -0.4426 -0.4700  0.4567
 2890SOL    HW110409   9.583   6.367   0.960  0.1621 -0.7999  0.1926
 2890SOL    HW210410   9.596   6.233   1.028  0.3408 -1.4045 -1.0150
 2891SOL     OW10411   6.935   9.581   7.107  0.4312  0.0036 -0.2628
 2891SOL    HW110412   6.846   9.553   7.084  0.3499  0.6175 -0.7216
 2891SOL    HW210413   6.930   9.598   7.202  0.3027 -0.8304 -0.1125
 2892SOL     OW10414   6.804   3.544   2.889  0.0291  0.5347 -0.5729
 2892SOL    HW110415   6.773   3.553   2.799 -0.4011  2.5718 -0.2920
 2892SOL    HW210416   6.886   3.594   2.891  0.0382  0.4959  0.1580
 2893SOL     OW10417   3.805   2.237   9.334  0.3556  0.0366  0.0976
 2893SOL    HW110418   3.824   2.279   9.418  1.9194 -0.6405  0.1084
 2893SOL    HW210419   3.885   2.190   9.312  1.0672  2.4551 -3.1731
 2894SOL     OW10420   7.364   2.535   3.481 -0.0486  0.1628 -0.1782
 2894SOL    HW110421   7.426   2.602   3.452  3.3151 -1.6760  1.9818
 2894SOL    HW210422   7.353   2.552   3.575  0.9705 -2.1848  0.4551
 2895SOL     OW10423   4.585   1.148   3.269  0.1552 -0.4284  0.0197
 2895SOL    HW110424   4.650   1.119   3.204  0.5870 -0.6337  0.5397
 2895SOL    HW210425   4.623   1.125   3.353  0.8859  2.3095  0.5289
 2896SOL     OW10426   2.510   8.476   8.395 -0.2357 -0.1245 -0.2052
 2896SOL    HW110427   2.428   8.434   8.372  1.1848 -1.6912 -2.9001
 2896SOL    HW210428   2.545   8.509   8.312  2.1109  0.0079  0.7370
 2897SOL     OW10429   8.570   9.033   4.851 -0.0026 -0.2616  0.2506
 2897SOL    HW110430   8.516   9.019   4.773 -0.2549  0.9854  0.1903
 2897SOL    HW210431   8.508   9.032   4.924 -0.2013  1.5056  0.1529
 2898SOL     OW10432   1.054   5.094   5.274  0.3759 -0.2663 -0.3874
 2898SOL    HW110433   1.142   5.058   5.263  0.2453 -0.6085 -0.3406
 2898SOL    HW210434   0.996   5.023   5.249  0.0893 -0.5340  0.9250
 2899SOL     OW10435   6.524   4.819   6.422 -0.2626  0.0140 -0.1272
 2899SOL    HW110436   6.497   4.767   6.346 -0.8678  0.7483 -0.4264
 2899SOL    HW210437   6.610   4.784   6.445 -0.7680 -1.3179 -0.1383
 2900SOL     OW10438   1.973   7.562   6.061 -0.1969  0.0201  0.3643
 2900SOL    HW110439   2.064   7.561   6.089  0.5099 -1.3596 -1.7359
 2900SOL    HW210440   1.927   7.504   6.122  0.5701 -0.2505  0.6856
 2901SOL     OW10441   0.544   7.213   5.104 -0.1880  0.3861 -0.1708
 2901SOL    HW110442   0.507   7.130   5.134  1.9146 -0.1835  1.0883
 2901SOL    HW210443   0.564   7.261   5.184  0.5996  1.1833 -0.8160
 2902SOL     OW10444   8.749   8.220   5.499 -0.4870 -0.1208 -0.4790
 2902SOL    HW110445   8.710   8.245   5.415 -2.0057  2.1889  0.7888
 2902SOL    HW210446   8.836   8.260   5.497 -0.9153  0.8439 -0.5729
 2903SOL     OW10447   5.930   6.607   0.607  0.2944  0.1848 -0.0745
 2903SOL    HW110448   5.843   6.604   0.568 -0.2190 -0.7696  1.0873
 2903SOL    HW210449   5.925   6.676   0.673  0.1345 -0.4643  0.6055
 2904SOL     OW10450   3.936   1.589   0.912 -0.2141 -0.3756 -0.1721
 2904SOL    HW110451   4.014   1.636   0.941  0.4764 -1.4072 -0.2905
 2904SOL    HW210452   3.908   1.539   0.990  0.5808 -1.7465 -0.7322
 2905SOL     OW10453   1.259   4.135   5.537  0.1333  0.4372 -0.0041
 2905SOL    HW110454   1.239   4.061   5.595 -0.0839  1.1092  0.7973
 2905SOL    HW210455   1.173   4.163   5.504 -0.1183  2.0293  1.8324
 2906SOL     OW10456   0.057   6.700   6.843  0.3418 -0.1764  0.2798
 2906SOL    HW110457  -0.027   6.701   6.888  0.0241  2.2451 -0.2472
 2906SOL    HW210458   0.056   6.618   6.794 -1.2961 -0.6416  1.0136
 2907SOL     OW10459   3.889   9.600   0.685 -0.3618 -0.9995 -0.3236
 2907SOL    HW110460   3.926   9.544   0.617 -0.0758 -1.8116  0.4802
 2907SOL    HW210461   3.826   9.545   0.731 -0.4982 -0.4877  0.1171
 2908SOL     OW10462   6.389   3.192   1.243  0.4728 -0.0829  0.2259
 2908SOL    HW110463   6.334   3.219   1.170 -1.6858  0.2556  1.8798
 2908SOL    HW210464   6.459   3.258   1.246 -0.3145  0.8122 -0.5617
 2909SOL     OW10465   9.257   2.842   5.923  0.2797 -0.1417 -0.3552
 2909SOL    HW110466   9.195   2.868   5.991 -0.5309  1.0446 -1.5089
 2909SOL    HW210467   9.335   2.894   5.940 -0.4682  1.3079 -1.2083
 2910SOL     OW10468   1.205   6.145   8.606 -1.0615  0.1041  0.3233
 2910SOL    HW110469   1.197   6.117   8.697 -1.8377  3.1246  1.3218
 2910SOL    HW210470   1.294   6.120   8.580 -0.0565  0.9990  2.6498
 2911SOL     OW10471   1.520   1.352   0.811  0.2944  0.4846  0.1354
 2911SOL    HW110472   1.568   1.302   0.877  0.8781  1.3902  0.4176
 2911SOL    HW210473   1.490   1.286   0.748  0.2043 -0.3277  1.0062
 2912SOL     OW10474   8.023   7.797   4.717 -0.5393  0.6923 -0.0015
 2912SOL    HW110475   7.984   7.782   4.803  0.1100  1.6162  0.4694
 2912SOL    HW210476   7.970   7.744   4.657 -2.1276  1.4266  0.7013
 2913SOL     OW10477   2.229   4.265   5.867 -0.1995 -0.0546  0.3952
 2913SOL    HW110478   2.215   4.306   5.782  1.0746 -0.0945  0.1443
 2913SOL    HW210479   2.144   4.230   5.891 -0.4736 -0.5043 -1.1232
 2914SOL     OW10480   0.491   3.464   5.479  0.1405 -0.9180  0.2668
 2914SOL    HW110481   0.484   3.476   5.574  0.4083 -1.1791  0.3218
 2914SOL    HW210482   0.551   3.391   5.469  0.5738 -0.5176 -0.1151
 2915SOL     OW10483   5.202   3.740   6.742 -0.1013  0.3789 -0.7532
 2915SOL    HW110484   5.193   3.741   6.647 -0.0907  0.5895 -0.7510
 2915SOL    HW210485   5.224   3.649   6.763 -0.0785  0.3385 -0.9545
 2916SOL     OW10486   3.137   4.838   7.884  0.1168  0.2588 -0.3352
 2916SOL    HW110487   3.130   4.913   7.943 -0.0238 -1.0300  1.3673
 2916SOL    HW210488   3.230   4.817   7.882  0.2035  0.6927 -1.1070
 2917SOL     OW10489   6.733   4.357   7.877  0.0242 -0.0753 -0.4233
 2917SOL    HW110490   6.705   4.297   7.809  0.2654 -0.5856 -0.0810
 2917SOL    HW210491   6.722   4.444   7.839  0.5798 -0.3669 -1.2637
 2918SOL     OW10492   6.930   8.986   0.063 -0.1771 -0.1336 -0.8459
 2918SOL    HW110493   6.865   8.918   0.076  1.0417 -1.1819  0.0000
 2918SOL    HW210494   6.985   8.954  -0.009 -0.2218  0.4424 -1.1408
 2919SOL     OW10495   3.285   5.896   4.385 -0.5366 -0.2480 -0.0426
 2919SOL    HW110496   3.198   5.858   4.374 -0.6895  0.2990 -0.8152
 2919SOL    HW210497   3.280   5.980   4.339  0.5488 -0.4329 -0.5244
 2920SOL     OW10498   7.707   1.975   9.092 -0.5087  0.5119 -0.0149
 2920SOL    HW110499   7.744   2.047   9.041  0.2331 -0.4803 -0.9311
 2920SOL    HW210500   7.737   1.896   9.047 -0.2436 -0.3972  1.6778
 2921SOL     OW10501   4.860   4.229   6.118 -0.4836  0.6356 -0.1447
 2921SOL    HW110502   4.835   4.166   6.050 -0.0606  0.4432 -0.1220
 2921SOL    HW210503   4.893   4.175   6.190  1.1116  0.9239 -0.6203
 2922SOL     OW10504   8.414   6.796   4.469 -0.1033 -0.3078  0.6501
 2922SOL    HW110505   8.454   6.812   4.383  1.0395  2.1310  1.5544
 2922SOL    HW210506   8.320   6.800   4.453  0.0957  1.2992 -0.3277
 2923SOL     OW10507   7.483   6.005   0.560  0.3946 -0.1354  0.2949
 2923SOL    HW110508   7.465   6.043   0.646  1.9359  1.0136  0.1400
 2923SOL    HW210509   7.573   5.973   0.566  1.6106  2.5694 -1.7152
 2924SOL     OW10510   4.740   7.270   0.257 -0.4805 -0.1878 -0.2647
 2924SOL    HW110511   4.686   7.261   0.335  0.4545  0.9879  0.5666
 2924SOL    HW210512   4.701   7.342   0.208 -2.2774 -2.1992 -1.9957
 2925SOL     OW10513   3.604   4.806   3.094 -0.5936  0.7029  0.1287
 2925SOL    HW110514   3.562   4.826   3.011 -0.1205  2.2040  0.2354
 2925SOL    HW210515   3.686   4.854   3.092  1.7021 -2.8868 -0.4831
 2926SOL     OW10516   5.109   5.571   8.519 -0.5069 -0.2263 -0.2313
 2926SOL    HW110517   5.171   5.535   8.582  0.4782  0.1548 -0.9599
 2926SOL    HW210518   5.162   5.628   8.463 -1.8390  1.7279  0.3607
 2927SOL     OW10519   1.494   2.450   7.979  0.2419  0.1817 -0.1168
 2927SOL    HW110520   1.522   2.494   7.898  1.1311  0.1624  0.1744
 2927SOL    HW210521   1.404   2.423   7.961  0.2154  0.7378 -0.8731
 2928SOL     OW10522   8.631   7.867   4.556 -0.3738 -0.3681 -0.4444
 2928SOL    HW110523   8.540   7.846   4.574  0.1617 -1.6733  0.9704
 2928SOL    HW210524   8.666   7.788   4.514  0.6474 -0.7681  1.0920
 2929SOL     OW10525   5.978   1.859   5.924 -0.0593  0.4343  0.0867
 2929SOL    HW110526   5.993   1.952   5.910  0.1260  0.1692 -1.6688
 2929SOL    HW210527   5.893   1.842   5.885  0.2389 -0.2670 -0.2819
 2930SOL     OW10528   5.194   2.850   2.693 -0.4653  0.5281  0.1076
 2930SOL    HW110529   5.198   2.759   2.663  1.2026  1.0836 -1.5502
 2930SOL    HW210530   5.115   2.854   2.748 -2.6627 -1.0667 -2.6657
 2931SOL     OW10531   2.538   4.796   0.382 -0.6188 -0.3382  0.1381
 2931SOL    HW110532   2.595   4.729   0.419 -0.7315  0.1712  1.2737
 2931SOL    HW210533   2.517   4.854   0.456 -3.3243 -0.9959  0.0013
 2932SOL     OW10534   4.055   3.243   5.380  0.8506 -0.3880  0.1187
 2932SOL    HW110535   4.056   3.206   5.292  0.5187  0.6222 -0.3166
 2932SOL    HW210536   4.033   3.168   5.437  2.9025 -1.4594 -0.4249
 2933SOL     OW10537   6.933   6.425   7.952  0.3674  0.4449 -0.8827
 2933SOL    HW110538   7.027   6.421   7.931  0.3401 -0.4938 -0.8716
 2933SOL    HW210539   6.908   6.334   7.964 -0.5816  0.6889 -0.9905
 2934SOL     OW10540   2.481   1.983   5.860  0.6073  0.4860 -0.2707
 2934SOL    HW110541   2.392   1.956   5.881  0.9037 -1.2090 -1.0651
 2934SOL    HW210542   2.476   2.079   5.857 -1.5126  0.4025 -1.7003
 2935SOL     OW10543   5.862   6.527   3.980  0.1073  0.1474  0.2882
 2935SOL    HW110544   5.942   6.476   3.993  0.7348  0.7841 -0.9034
 2935SOL    HW210545   5.891   6.619   3.984 -0.7880  0.4118  1.1076
 2936SOL     OW10546   1.140   2.209   5.283  0.3568 -0.3062 -0.3557
 2936SOL    HW110547   1.163   2.296   5.314 -1.2826 -0.4655  1.5021
 2936SOL    HW210548   1.134   2.219   5.188  0.7779  1.4477 -0.2372
 2937SOL     OW10549   6.424   4.541   5.787 -0.1342 -0.4959  0.4903
 2937SOL    HW110550   6.407   4.451   5.813 -1.2689 -0.5454 -0.3232
 2937SOL    HW210551   6.339   4.574   5.757  0.8261 -0.1746 -2.1866
 2938SOL     OW10552   5.465   1.475   2.149  0.6317 -0.4170  0.3644
 2938SOL    HW110553   5.522   1.517   2.084  0.5944 -0.5929  0.2200
 2938SOL    HW210554   5.401   1.543   2.172  1.8095  0.3082  1.6613
 2939SOL     OW10555   8.056   7.547   0.017 -0.7430  0.0736  0.4446
 2939SOL    HW110556   8.039   7.506   0.101 -1.1916  1.2107  0.9219
 2939SOL    HW210557   7.979   7.527  -0.036  0.3368 -2.2315 -0.3613
 2940SOL     OW10558   5.478   7.031   6.719  0.1506 -0.2644  0.2297
 2940SOL    HW110559   5.429   6.967   6.668  0.5065 -1.1380  0.9729
 2940SOL    HW210560   5.463   7.008   6.810  0.6009  0.4691  0.5053
 2941SOL     OW10561   6.082   0.659   7.525 -0.3524  0.1976  0.3670
 2941SOL    HW110562   6.055   0.724   7.590  1.6855 -0.3735  1.8693
 2941SOL    HW210563   6.151   0.703   7.475 -1.3597  0.3470 -0.9649
 2942SOL     OW10564   6.479   2.047   4.422 -0.4202  0.0487 -0.4255
 2942SOL    HW110565   6.499   2.140   4.414  0.7251 -0.2428 -1.2836
 2942SOL    HW210566   6.448   2.022   4.335  1.0980 -0.7466 -0.7846
 2943SOL     OW10567   4.031   7.803   1.396 -0.4218 -0.2034  0.2680
 2943SOL    HW110568   3.970   7.876   1.405 -0.1241 -0.0172  0.8779
 2943SOL    HW210569   3.978   7.725   1.416 -0.3094  0.0167  1.5230
 2944SOL     OW10570   6.505   3.588   1.671 -0.2844 -0.2698  0.2067
 2944SOL    HW110571   6.493   3.678   1.642  0.8029 -0.8685 -2.3741
 2944SOL    HW210572   6.593   3.586   1.709  0.1722 -0.4624 -0.8304
 2945SOL     OW10573   6.232   2.988   6.796 -0.3717  0.1374  0.3709
 2945SOL    HW110574   6.227   3.084   6.800  0.4102  0.3133 -1.7539
 2945SOL    HW210575   6.157   2.962   6.742  0.2039 -0.3151 -0.2282
 2946SOL     OW10576   0.543   0.025   3.673  0.1351 -1.1255 -0.7180
 2946SOL    HW110577   0.456   0.062   3.688  1.3189  1.1801  1.1816
 2946SOL    HW210578   0.571   0.063   3.590  0.5260  0.8393  0.2405
 2947SOL     OW10579   6.624   1.425   3.205 -0.7048  0.3015 -0.4413
 2947SOL    HW110580   6.613   1.476   3.125 -0.4064  0.2865 -0.4940
 2947SOL    HW210581   6.548   1.448   3.259 -1.5128 -0.5639 -1.1848
 2948SOL     OW10582   1.518   9.230   7.183  0.2043 -0.0629  0.1528
 2948SOL    HW110583   1.539   9.300   7.246 -1.9728  0.8512 -0.0650
 2948SOL    HW210584   1.493   9.155   7.238  1.2165 -0.2494  0.3755
 2949SOL     OW10585   3.975   3.902   8.865  0.2128 -0.0703 -0.2622
 2949SOL    HW110586   3.885   3.872   8.880 -0.3656  1.8297  0.3966
 2949SOL    HW210587   3.986   3.898   8.770 -0.9128  0.5552 -0.4391
 2950SOL     OW10588   8.804   0.868   2.299 -0.3178  0.2558 -0.1010
 2950SOL    HW110589   8.758   0.902   2.222 -0.1428  0.0509 -0.2969
 2950SOL    HW210590   8.850   0.790   2.268  1.0768  1.0735 -0.1877
 2951SOL     OW10591   8.718   7.784   1.812 -0.5100 -0.3659 -0.5755
 2951SOL    HW110592   8.806   7.752   1.832  0.7647  2.1359 -1.7131
 2951SOL    HW210593   8.727   7.828   1.728 -2.7425  0.3984 -0.4768
 2952SOL     OW10594   0.137   4.748   0.988 -0.1442  0.1158 -0.0206
 2952SOL    HW110595   0.125   4.653   0.989 -0.5916  0.1118  2.7032
 2952SOL    HW210596   0.215   4.763   0.936 -0.3343 -1.6913 -0.8808
 2953SOL     OW10597   0.158   6.511   7.811 -0.1519 -0.2274 -0.7870
 2953SOL    HW110598   0.086   6.556   7.854 -0.0717 -0.0290 -0.8567
 2953SOL    HW210599   0.216   6.581   7.782 -0.5057 -0.3210 -1.7559
 2954SOL     OW10600   2.641   9.220   8.211 -0.3247 -0.1286  0.3809
 2954SOL    HW110601   2.629   9.305   8.169 -4.1064 -0.3781  0.6695
 2954SOL    HW210602   2.597   9.228   8.296 -0.3982 -2.2353  0.5949
 2955SOL     OW10603   8.108   4.973   1.236  0.1555 -0.1856 -0.4827
 2955SOL    HW110604   8.040   4.928   1.185  0.4474 -1.8540  0.5199
 2955SOL    HW210605   8.190   4.945   1.195  0.5567 -3.5548  2.2238
 2956SOL     OW10606   4.061   7.645   0.550  0.5642  0.6151  0.2077
 2956SOL    HW110607   4.029   7.599   0.628  1.5518  0.4265  0.5129
 2956SOL    HW210608   4.140   7.597   0.524 -0.7768 -0.5212 -2.0744
 2957SOL     OW10609   6.795   8.591   2.304  0.3075 -0.0884 -0.1934
 2957SOL    HW110610   6.830   8.645   2.234 -1.2339  0.6195 -0.4548
 2957SOL    HW210611   6.854   8.516   2.308  0.4777 -0.1067 -2.1817
 2958SOL     OW10612   6.343   7.063   0.550  0.2687  0.2725 -0.2959
 2958SOL    HW110613   6.404   6.998   0.514  0.3477 -0.1297  0.5304
 2958SOL    HW210614   6.275   7.010   0.592  0.0625  0.7228 -0.0606
 2959SOL     OW10615   3.849   6.310   6.997  0.0806 -0.5160 -0.0466
 2959SOL    HW110616   3.815   6.378   7.054 -0.2368  0.1928 -1.0654
 2959SOL    HW210617   3.861   6.352   6.913  1.0543 -1.4075 -0.3857
 2960SOL     OW10618   0.603   0.912   0.331  0.2200 -0.6040 -0.0509
 2960SOL    HW110619   0.554   0.935   0.410  0.7584 -1.6417  0.6045
 2960SOL    HW210620   0.675   0.974   0.329 -0.5197  0.2535 -0.4412
 2961SOL     OW10621   8.570   4.246   6.055  0.2431  0.6028  0.4400
 2961SOL    HW110622   8.482   4.248   6.016  0.2500 -3.0689 -0.0433
 2961SOL    HW210623   8.556   4.276   6.146 -1.9784 -1.8296  1.0173
 2962SOL     OW10624   6.911   7.611   5.427 -0.2652 -0.0738  0.7704
 2962SOL    HW110625   6.923   7.519   5.405  1.2080  0.1449  0.5998
 2962SOL    HW210626   6.992   7.637   5.471  0.6989  1.9365 -1.9242
 2963SOL     OW10627   0.469   3.648   9.092 -0.3840  0.3953  0.9952
 2963SOL    HW110628   0.403   3.717   9.083 -0.4843  0.0809 -1.2436
 2963SOL    HW210629   0.532   3.682   9.155 -1.1049  2.0044  0.8735
 2964SOL     OW10630   0.575   3.894   6.468 -0.4061  0.3254  0.1574
 2964SOL    HW110631   0.509   3.829   6.494 -0.8985  0.5467 -0.5092
 2964SOL    HW210632   0.548   3.974   6.513 -1.7550  0.9370 -1.6167
 2965SOL     OW10633   2.880   4.233   5.005  0.2978 -0.3169  0.4040
 2965SOL    HW110634   2.943   4.233   5.077  0.2890  2.6349  0.5677
 2965SOL    HW210635   2.795   4.234   5.048  0.2918  2.9004  0.5668
 2966SOL     OW10636   6.405   4.974   0.881 -0.5697 -0.0764 -0.0200
 2966SOL    HW110637   6.359   4.989   0.963 -1.3018 -2.7898  0.1482
 2966SOL    HW210638   6.397   4.880   0.865 -0.5842  0.3534 -3.2790
 2967SOL     OW10639   4.815   2.606   1.276  0.2541  0.2297  0.2833
 2967SOL    HW110640   4.745   2.547   1.247  0.1610 -0.1502  1.2418
 2967SOL    HW210641   4.833   2.579   1.366  0.6289  1.2705  0.5342
 2968SOL     OW10642   5.073   5.374   4.766 -0.5475 -0.3549 -0.0455
 2968SOL    HW110643   5.156   5.417   4.786  0.0129 -0.4020 -2.0479
 2968SOL    HW210644   5.045   5.412   4.682 -2.6079 -0.2887  0.6010
 2969SOL     OW10645   9.518   3.736   2.271 -0.0014 -0.1971 -0.0159
 2969SOL    HW110646   9.480   3.677   2.337 -0.1457 -0.0115  0.0675
 2969SOL    HW210647   9.577   3.680   2.221 -1.8228 -0.9720 -1.4116
 2970SOL     OW10648   4.585   6.649   7.516  0.1259 -0.2296  0.2440
 2970SOL    HW110649   4.558   6.610   7.600 -0.8060 -0.6012 -0.2093
 2970SOL    HW210650   4.654   6.592   7.484  0.2629 -0.2717  0.6064
 2971SOL     OW10651   4.994   8.507   2.840 -0.6220 -0.1293 -0.0599
 2971SOL    HW110652   5.084   8.519   2.811 -0.0776  1.1261  1.9638
 2971SOL    HW210653   4.985   8.565   2.916 -2.3106 -2.1685  1.4363
 2972SOL     OW10654   0.053   0.792   1.884 -0.2021 -0.1748  0.3523
 2972SOL    HW110655   0.113   0.783   1.958 -0.0598  0.0225  0.2612
 2972SOL    HW210656   0.047   0.703   1.848  1.6425  0.1542 -0.8832
 2973SOL     OW10657   7.275   9.238   1.163  0.4974 -0.1269 -0.1537
 2973SOL    HW110658   7.185   9.246   1.131  0.1249  0.1193  0.9020
 2973SOL    HW210659   7.328   9.231   1.084 -0.5560 -1.4004 -0.7918
 2974SOL     OW10660   5.284   9.124   7.509 -0.1896 -0.0943 -0.2352
 2974SOL    HW110661   5.339   9.165   7.575 -0.3098  0.7166 -0.6244
 2974SOL    HW210662   5.345   9.085   7.447  0.0447  2.2140 -1.5628
 2975SOL     OW10663   3.554   9.593   4.876 -0.1936  0.4056  0.3841
 2975SOL    HW110664   3.551   9.672   4.929  0.2629  0.9376 -0.3711
 2975SOL    HW210665   3.646   9.565   4.879 -0.1995  0.3477 -0.0028
 2976SOL     OW10666   0.434   0.950   1.735 -0.1850 -0.3192 -0.2845
 2976SOL    HW110667   0.510   0.943   1.676  1.0563 -2.1573  1.4012
 2976SOL    HW210668   0.359   0.960   1.676  1.4463  4.0554 -1.9903
 2977SOL     OW10669   5.980   2.828   6.439  0.6821  0.2114  0.1861
 2977SOL    HW110670   5.909   2.799   6.383 -2.4210  0.1926  3.6798
 2977SOL    HW210671   6.013   2.748   6.480 -0.6865  0.5338  2.0659
 2978SOL     OW10672   6.345   4.117   6.569  0.5025  0.2824  0.1120
 2978SOL    HW110673   6.441   4.114   6.565  0.5380 -0.9044  1.3878
 2978SOL    HW210674   6.324   4.211   6.567  1.4934  0.5672 -3.1139
 2979SOL     OW10675   4.242   5.180   1.181  0.3155 -0.4258  0.0915
 2979SOL    HW110676   4.309   5.221   1.236 -1.6651  2.0722  0.8552
 2979SOL    HW210677   4.196   5.121   1.241 -0.8710  1.1484  0.7938
 2980SOL     OW10678   0.387   9.468   4.823  0.0264  0.0794 -0.1659
 2980SOL    HW110679   0.476   9.474   4.789  0.6456 -1.6715  0.9640
 2980SOL    HW210680   0.357   9.558   4.831  1.3358  0.6540 -1.4711
 2981SOL     OW10681   1.090   2.882   5.468 -0.8006  0.5628 -0.2983
 2981SOL    HW110682   1.144   2.869   5.390 -1.1873  1.2213 -0.6825
 2981SOL    HW210683   1.133   2.830   5.536 -0.1193  0.4691 -0.7916
 2982SOL     OW10684   5.639   2.940   1.626 -0.5309 -0.6298 -0.2693
 2982SOL    HW110685   5.677   3.013   1.577  0.5650 -2.0281 -1.5778
 2982SOL    HW210686   5.675   2.950   1.715  1.2666 -0.7152 -0.9466
 2983SOL     OW10687   8.762   0.256   1.150  0.1481  0.2079 -0.0479
 2983SOL    HW110688   8.799   0.181   1.196 -1.6317 -1.4194 -1.0958
 2983SOL    HW210689   8.694   0.289   1.209  0.3187  0.4046  0.0352
 2984SOL     OW10690   5.791   8.675   5.469 -0.3849 -0.6553 -0.0263
 2984SOL    HW110691   5.880   8.708   5.484 -0.5579 -0.6410  1.0611
 2984SOL    HW210692   5.766   8.712   5.384 -0.3499  1.5714  0.8704
 2985SOL     OW10693   2.365   7.741   3.282 -0.5570 -0.3362  0.2574
 2985SOL    HW110694   2.395   7.828   3.258 -1.4626 -0.4081 -1.2180
 2985SOL    HW210695   2.428   7.711   3.348 -0.2870  1.4449  0.8507
 2986SOL     OW10696   9.338   8.551   0.613  0.3851  0.1890  0.0912
 2986SOL    HW110697   9.405   8.619   0.599  1.3511 -0.7175  0.1938
 2986SOL    HW210698   9.386   8.469   0.604 -1.0522 -0.5239 -1.5349
 2987SOL     OW10699   9.116   1.833   0.768 -0.3863 -0.0187  0.2584
 2987SOL    HW110700   9.056   1.890   0.816 -0.5149  1.0537 -1.1112
 2987SOL    HW210701   9.158   1.890   0.703  1.3414 -0.9736  0.4689
 2988SOL     OW10702   0.432   1.262   5.810 -0.4558  0.0720  0.3604
 2988SOL    HW110703   0.403   1.352   5.798 -0.9970 -0.3323 -1.7514
 2988SOL    HW210704   0.442   1.227   5.721  0.6585 -1.6724  1.1056
 2989SOL     OW10705   3.452   6.289   1.097 -0.1666  0.4576 -0.3012
 2989SOL    HW110706   3.466   6.239   1.177  0.6254 -0.5014 -1.0064
 2989SOL    HW210707   3.423   6.224   1.033 -0.5156  1.1606 -0.8804
 2990SOL     OW10708   4.432   8.523   0.725  0.1783  0.1651  0.3921
 2990SOL    HW110709   4.355   8.580   0.717  0.3493  0.1468 -2.1786
 2990SOL    HW210710   4.505   8.583   0.742 -0.0796  0.3851  0.7395
 2991SOL     OW10711   8.421   5.857   4.933  0.3593 -0.1749 -0.6177
 2991SOL    HW110712   8.382   5.905   4.861 -0.5683  1.3021  0.8009
 2991SOL    HW210713   8.424   5.920   5.006  1.3516 -1.5573  0.6051
 2992SOL     OW10714   8.470   3.481   3.355  0.1883 -0.0974  0.1323
 2992SOL    HW110715   8.443   3.399   3.313 -1.6254  0.2112  0.5799
 2992SOL    HW210716   8.555   3.461   3.393 -0.8284 -2.3167  1.5205
 2993SOL     OW10717   2.300   6.952   2.777  0.1882 -0.2212 -0.3868
 2993SOL    HW110718   2.342   7.020   2.829  0.0400 -0.6864  0.3461
 2993SOL    HW210719   2.265   6.890   2.841  2.1798 -2.1380 -1.0187
 2994SOL     OW10720   0.411   2.818   1.110 -0.1360  0.1822  0.4613
 2994SOL    HW110721   0.355   2.753   1.068 -0.5291  1.4767 -1.1326
 2994SOL    HW210722   0.350   2.871   1.162 -0.5887  1.9870 -1.7753
 2995SOL     OW10723   7.144   5.850   5.769 -1.0752  0.2664  0.1652
 2995SOL    HW110724   7.174   5.786   5.833 -0.6613 -0.6252 -0.8946
 2995SOL    HW210725   7.215   5.914   5.763 -1.1386  0.3803  0.6323
 2996SOL     OW10726   0.449   8.167   8.663  0.6686  0.2786  0.1994
 2996SOL    HW110727   0.380   8.212   8.712 -0.2278 -1.6489  0.8190
 2996SOL    HW210728   0.404   8.126   8.590  1.6282  1.1546 -0.9232
 2997SOL     OW10729   6.731   6.756   0.279 -0.4028 -0.2749  0.4411
 2997SOL    HW110730   6.660   6.704   0.317  0.4749 -0.2624  2.1941
 2997SOL    HW210731   6.805   6.743   0.337  0.6566  0.7967 -0.5863
 2998SOL     OW10732   0.252   0.227   6.083  0.1472  0.0653 -0.1816
 2998SOL    HW110733   0.269   0.139   6.049  4.3646  0.4747  0.3774
 2998SOL    HW210734   0.174   0.216   6.139  0.3663 -3.2394 -0.3283
 2999SOL     OW10735   3.069   5.769   6.486  0.6032 -0.2494  0.1110
 2999SOL    HW110736   2.985   5.780   6.443  0.2344  0.2565  0.9342
 2999SOL    HW210737   3.121   5.845   6.458  0.8760 -0.6810 -0.5783
 3000SOL     OW10738   3.840   7.621   5.593 -0.4448 -0.1570  0.4586
 3000SOL    HW110739   3.835   7.675   5.514  0.2581 -0.9098 -0.1241
 3000SOL    HW210740   3.752   7.585   5.603 -0.5527 -0.0140  0.0491
 3001SOL     OW10741   8.161   4.874   0.196 -0.7603  0.2665 -0.5567
 3001SOL    HW110742   8.190   4.862   0.287 -0.4470 -2.9368 -0.9675
 3001SOL    HW210743   8.072   4.908   0.204 -1.0119 -0.6470  0.9937
 3002SOL     OW10744   5.163   1.881   6.134 -0.2647 -0.5769 -0.0976
 3002SOL    HW110745   5.147   1.790   6.112  2.0746 -1.0280 -0.1871
 3002SOL    HW210746   5.142   1.887   6.227 -0.5796 -1.1641 -0.1263
 3003SOL     OW10747   0.854   0.595   7.088  0.7113  0.5792  0.2019
 3003SOL    HW110748   0.912   0.654   7.136  1.0083  0.9584 -0.5944
 3003SOL    HW210749   0.830   0.527   7.151  0.3277  1.5691  1.1540
 3004SOL     OW10750   1.716   5.854   5.714 -0.2263  0.6131 -0.2636
 3004SOL    HW110751   1.763   5.800   5.778 -2.4013 -0.9581  0.1095
 3004SOL    HW210752   1.752   5.828   5.630 -0.1168 -0.2328  0.0389
 3005SOL     OW10753   1.499   1.158   4.928 -0.5333  0.3203 -0.1993
 3005SOL    HW110754   1.538   1.146   4.841  1.9013 -2.6423  1.1220
 3005SOL    HW210755   1.531   1.244   4.956 -1.5088  1.4201 -2.1926
 3006SOL     OW10756   7.112   6.798   0.901  0.4832 -0.6133  0.4044
 3006SOL    HW110757   7.113   6.887   0.937  0.4720 -0.3921 -0.1244
 3006SOL    HW210758   7.199   6.787   0.862 -0.4003  0.2297 -2.0125
 3007SOL     OW10759   6.379   9.052   4.701 -0.0513 -0.3650  0.7282
 3007SOL    HW110760   6.331   8.974   4.672 -0.7533 -0.0643  1.0678
 3007SOL    HW210761   6.317   9.124   4.693  0.4387  0.0838  0.8807
 3008SOL     OW10762   0.133   1.736   4.571 -0.1104 -0.1046  0.1925
 3008SOL    HW110763   0.226   1.723   4.556  0.4656  1.8000  1.7344
 3008SOL    HW210764   0.125   1.828   4.595 -2.4972 -0.0372 -0.6104
 3009SOL     OW10765   8.408   3.395   6.251  1.0012 -0.3329 -0.0571
 3009SOL    HW110766   8.374   3.310   6.223  1.4267 -0.1682 -1.1220
 3009SOL    HW210767   8.345   3.426   6.316  0.4233 -1.1060 -0.2342
 3010SOL     OW10768   2.320   6.062   4.550  0.5649 -0.3728  0.4062
 3010SOL    HW110769   2.237   6.110   4.545  0.5363 -0.5469 -1.9013
 3010SOL    HW210770   2.385   6.124   4.518  1.2256 -0.5183  1.4163
 3011SOL     OW10771   6.784   3.392   1.790 -0.7330  0.3082  0.4362
 3011SOL    HW110772   6.754   3.355   1.707 -2.6112 -0.9725  1.6229
 3011SOL    HW210773   6.864   3.343   1.811 -0.4097  0.4416 -0.4404
 3012SOL     OW10774   0.624   6.267   0.359  0.0660 -0.1495  0.4894
 3012SOL    HW110775   0.655   6.192   0.307  0.6516  1.1831 -1.1803
 3012SOL    HW210776   0.704   6.312   0.385 -0.3037  0.2591  0.9124
 3013SOL     OW10777   3.849   0.788   7.642 -0.0246 -0.1264 -0.3742
 3013SOL    HW110778   3.801   0.776   7.724 -0.0078 -0.0292 -0.3510
 3013SOL    HW210779   3.941   0.776   7.666  0.0776  0.9830 -0.1746
 3014SOL     OW10780   6.349   5.965   7.808 -0.1189  0.0757 -0.1157
 3014SOL    HW110781   6.326   5.889   7.754 -1.3789  0.4448 -0.1392
 3014SOL    HW210782   6.322   6.040   7.756 -2.0746  0.4269  1.2752
 3015SOL     OW10783   0.328   9.269   5.753  0.5135 -0.0963  0.0504
 3015SOL    HW110784   0.302   9.273   5.845  0.7229  0.5306  0.0833
 3015SOL    HW210785   0.383   9.191   5.747 -1.2905 -1.4335 -0.0044
 3016SOL     OW10786   2.813   0.940   8.852  0.0185  0.9777  0.5819
 3016SOL    HW110787   2.792   1.033   8.848  0.0564  1.1114  2.7669
 3016SOL    HW210788   2.906   0.936   8.873 -0.0485  0.4406  0.8065
 3017SOL     OW10789   5.601   7.225   4.847 -0.6163 -0.1499  0.1218
 3017SOL    HW110790   5.681   7.199   4.893 -0.9481 -0.7658  0.3633
 3017SOL    HW210791   5.576   7.148   4.797 -1.3062 -0.1202  0.4063
 3018SOL     OW10792   4.905   8.261   0.038 -0.1792 -0.1715 -0.2065
 3018SOL    HW110793   4.817   8.278   0.070 -0.2273 -0.3391 -0.2481
 3018SOL    HW210794   4.928   8.339  -0.012 -0.7056 -0.5409 -1.0506
 3019SOL     OW10795   1.308   4.303   6.955 -0.3797  0.1369 -0.3331
 3019SOL    HW110796   1.217   4.316   6.983 -0.4209 -2.5759  1.1158
 3019SOL    HW210797   1.360   4.313   7.035  0.4081  0.0599 -0.8210
 3020SOL     OW10798   6.018   2.114   2.307  0.0462  0.3898 -0.3948
 3020SOL    HW110799   6.044   2.144   2.394  0.4279 -0.1126 -0.3279
 3020SOL    HW210800   5.940   2.062   2.323  0.4050 -0.1265 -0.2783
 3021SOL     OW10801   2.712   7.592   8.422  0.2709 -0.1060 -0.0362
 3021SOL    HW110802   2.757   7.673   8.401  1.2941 -0.1028  1.9093
 3021SOL    HW210803   2.764   7.524   8.379  0.9665  0.0711  0.5074
 3022SOL     OW10804   9.149   4.272   4.187  0.0188 -0.0035 -0.0080
 3022SOL    HW110805   9.163   4.232   4.101 -1.3790  1.1347 -0.8155
 3022SOL    HW210806   9.066   4.236   4.218 -0.0129  0.3865  0.3765
 3023SOL     OW10807   2.933   3.210   9.581 -0.0498 -0.0084 -0.1183
 3023SOL    HW110808   3.000   3.145   9.561  0.0222  0.4037 -1.3350
 3023SOL    HW210809   2.865   3.161   9.626  0.0058 -0.9406 -1.0033
 3024SOL     OW10810   5.591   9.221   4.328 -0.2132  0.2286 -0.2651
 3024SOL    HW110811   5.515   9.172   4.359 -0.7786  0.5980 -1.0146
 3024SOL    HW210812   5.584   9.306   4.371  0.7868 -0.3289  1.0621
 3025SOL     OW10813   2.558   3.494   8.636  0.1940 -0.4057 -1.1616
 3025SOL    HW110814   2.576   3.401   8.642  2.8088  0.0713 -0.3002
 3025SOL    HW210815   2.633   3.536   8.679 -1.7395  2.0593  0.0590
 3026SOL     OW10816   1.053   8.251   5.652 -0.0330 -0.3303  0.7457
 3026SOL    HW110817   0.972   8.302   5.656  0.3699  0.5143 -1.0048
 3026SOL    HW210818   1.051   8.210   5.565  1.4828 -0.1605  0.6065
 3027SOL     OW10819   2.507   1.712   5.775 -0.4480  0.5804 -0.6164
 3027SOL    HW110820   2.536   1.712   5.683 -1.1287  1.0300 -0.8428
 3027SOL    HW210821   2.507   1.805   5.800  1.6964  0.3403  0.4984
 3028SOL     OW10822   6.913   8.218   8.143  0.1955  0.7127 -0.2635
 3028SOL    HW110823   6.873   8.274   8.211 -1.2788  0.1377 -0.6209
 3028SOL    HW210824   6.845   8.154   8.122  0.6287  0.8511 -2.2677
 3029SOL     OW10825   6.085   0.078   6.221  0.4589 -1.0037 -0.0940
 3029SOL    HW110826   6.003   0.051   6.179  0.2071 -0.8396  0.2780
 3029SOL    HW210827   6.087   0.028   6.303  0.4051 -0.5352  0.2015
 3030SOL     OW10828   2.286   3.166   0.001 -0.2069 -0.2047 -0.6726
 3030SOL    HW110829   2.219   3.211  -0.051 -1.3369  0.2056  1.0372
 3030SOL    HW210830   2.363   3.222  -0.005 -1.3173  1.5774  0.6844
 3031SOL     OW10831   2.464   7.815   6.976  0.9543 -0.2596 -0.2669
 3031SOL    HW110832   2.549   7.815   7.019  0.1345 -1.1459  1.4698
 3031SOL    HW210833   2.444   7.722   6.962  0.3669 -0.0570 -0.8225
 3032SOL     OW10834   5.481   4.076   0.121 -0.1299  0.1897 -0.0958
 3032SOL    HW110835   5.416   4.142   0.099 -0.0767  1.1235  2.2639
 3032SOL    HW210836   5.565   4.114   0.095 -0.0853  1.1792  1.3640
 3033SOL     OW10837   8.418   0.069   6.937  0.1321 -0.3943 -0.0028
 3033SOL    HW110838   8.479   0.142   6.935 -0.7042  0.3147 -1.6543
 3033SOL    HW210839   8.335   0.107   6.964  0.2117 -1.2285  1.5619
 3034SOL     OW10840   2.230   1.045   3.327  0.9795 -0.0873  0.3580
 3034SOL    HW110841   2.196   1.007   3.408 -1.3766  1.4007  0.1829
 3034SOL    HW210842   2.200   0.985   3.258  1.2447 -0.2953  0.4215
 3035SOL     OW10843   4.407   8.422   7.202 -0.3386  0.1237 -0.2597
 3035SOL    HW110844   4.400   8.396   7.110 -0.9727  0.2202 -0.2458
 3035SOL    HW210845   4.501   8.430   7.218 -0.2335  0.3795 -0.9759
 3036SOL     OW10846   9.430   0.197   2.153  0.1485  0.0663  0.0661
 3036SOL    HW110847   9.351   0.165   2.110  1.2582 -1.6078 -0.8368
 3036SOL    HW210848   9.399   0.262   2.216 -1.6051  2.3071 -2.8473
 3037SOL     OW10849   4.071   0.953   3.259  0.2729  0.0065 -0.2751
 3037SOL    HW110850   4.165   0.951   3.272  0.0898  0.0739  1.1909
 3037SOL    HW210851   4.035   0.985   3.342 -1.0592 -0.3847 -0.6659
 3038SOL     OW10852   4.583   0.928   6.751  0.3447 -0.2454  0.0726
 3038SOL    HW110853   4.511   0.977   6.712  1.2701  1.6797  0.6628
 3038SOL    HW210854   4.544   0.885   6.828 -0.1920  0.7888  0.4004
 3039SOL     OW10855   4.637   4.221   0.358  0.4238 -0.0125 -0.8848
 3039SOL    HW110856   4.722   4.236   0.400  0.2089 -0.7143 -0.1867
 3039SOL    HW210857   4.578   4.202   0.430  0.5172 -3.5594 -1.5597
 3040SOL     OW10858   9.356   2.871   4.637 -0.0209 -0.3103 -0.3440
 3040SOL    HW110859   9.275   2.843   4.594 -1.0965 -0.6310  1.7893
 3040SOL    HW210860   9.359   2.820   4.718  1.8177  0.4329  0.0955
 3041SOL     OW10861   5.090   4.415   3.467 -0.0639  0.3061  0.4510
 3041SOL    HW110862   5.077   4.428   3.561  0.6568  0.9091  0.4790
 3041SOL    HW210863   5.016   4.459   3.426  1.2307  2.8506  0.6317
 3042SOL     OW10864   1.705   2.946   2.064  0.1883  0.4225 -0.5686
 3042SOL    HW110865   1.616   2.925   2.036 -0.0949  1.6833 -0.6322
 3042SOL    HW210866   1.694   3.018   2.126  1.1062  0.0467  0.0483
 3043SOL     OW10867   1.215   7.624   0.771 -0.0730  0.4359 -0.2299
 3043SOL    HW110868   1.221   7.655   0.861  0.8544 -0.3207 -0.0145
 3043SOL    HW210869   1.226   7.702   0.718  2.0789  0.5620  0.3024
 3044SOL     OW10870   7.105   4.319   3.409 -0.2300 -0.3880  0.7836
 3044SOL    HW110871   7.131   4.234   3.446 -0.3023 -1.0866 -0.6788
 3044SOL    HW210872   7.178   4.377   3.429  0.1364 -0.9848  1.2126
 3045SOL     OW10873   6.162   7.365   0.611  0.1486  0.0017 -0.2966
 3045SOL    HW110874   6.144   7.442   0.664 -1.8781  0.3619 -1.4100
 3045SOL    HW210875   6.254   7.373   0.587  1.1573 -0.1285  2.9687
 3046SOL     OW10876   4.628   1.339   5.659  0.7878  0.3075  0.3910
 3046SOL    HW110877   4.550   1.287   5.642  1.2968  0.1971 -1.9431
 3046SOL    HW210878   4.599   1.430   5.647  0.7786  0.3362  0.6212
 3047SOL     OW10879   4.870   1.089   0.277  0.0974 -0.2726 -0.4680
 3047SOL    HW110880   4.943   1.151   0.272  0.9945 -1.4038 -2.5132
 3047SOL    HW210881   4.910   1.006   0.300 -1.2281 -0.0619  3.4079
 3048SOL     OW10882   1.322   6.437   7.812  0.5264 -0.0689 -0.2142
 3048SOL    HW110883   1.373   6.500   7.863 -0.3260  0.7293 -0.3142
 3048SOL    HW210884   1.326   6.356   7.863  1.1187  0.2351  0.2372
 3049SOL     OW10885   8.446   9.236   1.735 -0.4323  0.0424  0.1164
 3049SOL    HW110886   8.428   9.307   1.673 -1.2782 -0.3707 -0.1214
 3049SOL    HW210887   8.424   9.273   1.820 -0.4515  0.2098  0.0403
 3050SOL     OW10888   7.470   8.804   7.794  0.3832  0.1464 -0.2458
 3050SOL    HW110889   7.495   8.864   7.863  0.0753  0.8530 -0.7410
 3050SOL    HW210890   7.480   8.854   7.713 -0.5774 -0.2293 -0.6108
 3051SOL     OW10891   1.144   2.748   1.155  0.3334 -0.3173  0.2621
 3051SOL    HW110892   1.182   2.836   1.150 -3.1223  1.5987  2.6957
 3051SOL    HW210893   1.161   2.720   1.245 -1.4428 -0.5423  0.5741
 3052SOL     OW10894   1.012   1.334   4.688  0.0621  0.2158 -0.0505
 3052SOL    HW110895   0.939   1.378   4.730 -1.1373 -0.4493 -1.3668
 3052SOL    HW210896   1.042   1.395   4.621  1.1108  0.7189  0.8399
 3053SOL     OW10897   1.705   3.056   2.562  0.2772  0.1180  0.1310
 3053SOL    HW110898   1.697   3.070   2.467 -1.5165 -0.8541  0.0936
 3053SOL    HW210899   1.782   2.999   2.571  0.1951 -0.1680 -0.7952
 3054SOL     OW10900   7.996   2.442   5.857  0.3216 -0.2505  0.2760
 3054SOL    HW110901   8.063   2.507   5.833 -0.3201 -0.2232 -1.6079
 3054SOL    HW210902   8.014   2.423   5.949  0.2575  2.9294  1.0840
 3055SOL     OW10903   2.185   3.670   5.873 -0.7261  0.1609 -0.3649
 3055SOL    HW110904   2.198   3.588   5.824 -1.7844  0.2960 -0.9051
 3055SOL    HW210905   2.144   3.729   5.810 -1.1640  0.6830  0.3924
 3056SOL     OW10906   1.107   7.957   3.580 -0.2573 -0.0969 -0.1878
 3056SOL    HW110907   1.186   7.915   3.614  0.0120  0.2485 -0.3796
 3056SOL    HW210908   1.039   7.934   3.643  0.4488  1.4549  1.2396
 3057SOL     OW10909   4.830   5.527   0.938 -0.3496 -0.3722  0.1277
 3057SOL    HW110910   4.894   5.490   0.998 -0.5909  0.2025  0.7540
 3057SOL    HW210911   4.812   5.614   0.973  0.2866  0.4035 -1.3671
 3058SOL     OW10912   8.131   2.611   2.971  0.3868 -0.0611  0.1394
 3058SOL    HW110913   8.157   2.519   2.975 -0.7586 -0.4096 -0.1222
 3058SOL    HW210914   8.152   2.638   2.882 -2.3598 -1.0706 -0.9314
 3059SOL     OW10915   3.874   3.308   4.368 -0.3699  0.3418 -0.1134
 3059SOL    HW110916   3.956   3.357   4.361 -0.1300 -0.1675 -1.1047
 3059SOL    HW210917   3.814   3.351   4.308 -0.7425  0.5186  0.3738
 3060SOL     OW10918   2.114   4.966   6.728  0.0519 -0.0344  0.5032
 3060SOL    HW110919   2.194   4.928   6.691  0.3079  0.0745  0.9377
 3060SOL    HW210920   2.134   5.060   6.737 -0.7972  0.3431 -1.1516
 3061SOL     OW10921   0.108   1.573   3.256 -0.3404  0.1633 -0.0946
 3061SOL    HW110922   0.164   1.626   3.199  0.1948 -0.7164 -0.4001
 3061SOL    HW210923   0.123   1.483   3.228  0.0088 -0.3053  1.5222
 3062SOL     OW10924   0.153   7.802   5.658  0.4918  0.3123  0.0551
 3062SOL    HW110925   0.096   7.728   5.679  0.3672  1.0217  2.5532
 3062SOL    HW210926   0.241   7.771   5.677  0.6062  0.2607 -0.5649
 3063SOL     OW10927   4.040   6.233   5.046  0.5286  0.1825 -0.1717
 3063SOL    HW110928   4.035   6.202   4.955  0.8225  1.6122 -0.6982
 3063SOL    HW210929   4.133   6.253   5.059  0.5324 -0.2687  0.5448
 3064SOL     OW10930   8.464   5.200   1.454  0.2565  0.8549  0.4392
 3064SOL    HW110931   8.531   5.132   1.460 -0.2681  0.3685  0.8424
 3064SOL    HW210932   8.512   5.279   1.428  0.9794  0.5022  0.6956
 3065SOL     OW10933   6.782   1.836   8.253  0.5332  0.4335 -0.2586
 3065SOL    HW110934   6.724   1.913   8.251  0.3768  0.3186 -0.1402
 3065SOL    HW210935   6.744   1.779   8.320  0.8361  0.3967 -0.1202
 3066SOL     OW10936   1.815   0.785   0.612 -0.3417 -0.3300 -0.0337
 3066SOL    HW110937   1.895   0.799   0.662  1.4059  1.7285 -3.0973
 3066SOL    HW210938   1.777   0.872   0.603 -0.3351 -0.5247 -2.5268
 3067SOL     OW10939   2.049   8.163   8.100  0.1790  0.7896  0.1282
 3067SOL    HW110940   1.984   8.102   8.134  1.8297 -1.2360 -0.1148
 3067SOL    HW210941   2.021   8.182   8.011 -0.1274 -0.0043  0.0498
 3068SOL     OW10942   9.454   5.781   3.424 -0.6805 -0.1614  0.1726
 3068SOL    HW110943   9.548   5.785   3.405 -0.7944 -0.4266 -0.4513
 3068SOL    HW210944   9.416   5.854   3.374 -0.9346 -0.6565 -0.3712
 3069SOL     OW10945   6.361   2.596   7.504  0.2202 -0.0007 -0.2906
 3069SOL    HW110946   6.369   2.610   7.410  1.9873 -0.1697 -0.1975
 3069SOL    HW210947   6.361   2.684   7.541 -0.5479  0.0688 -0.4361
 3070SOL     OW10948   5.559   0.146   0.575 -0.4827 -0.1844  0.1951
 3070SOL    HW110949   5.618   0.214   0.543 -0.9460  0.6089  0.9818
 3070SOL    HW210950   5.517   0.185   0.652 -1.6764 -0.9146 -0.0690
 3071SOL     OW10951   1.762   1.616   5.788  0.0701  0.4914 -0.1117
 3071SOL    HW110952   1.849   1.578   5.778  0.3012  1.0931 -0.4550
 3071SOL    HW210953   1.708   1.568   5.726  0.5397  1.2366 -1.1354
 3072SOL     OW10954   9.201   7.922   5.752  0.5651  0.0712  0.1558
 3072SOL    HW110955   9.251   7.855   5.798 -0.1884 -0.8968 -0.3834
 3072SOL    HW210956   9.267   7.974   5.706  1.2519  0.5085  1.5887
 3073SOL     OW10957   7.915   5.442   0.501 -0.0484  0.2051 -0.3021
 3073SOL    HW110958   8.007   5.465   0.487 -0.4981  1.9316 -0.6018
 3073SOL    HW210959   7.906   5.435   0.596 -0.0875  2.3558 -0.1046
 3074SOL     OW10960   0.245   7.680   7.216  0.7863  0.2630  0.5694
 3074SOL    HW110961   0.329   7.717   7.245  0.2042  1.5783  0.6573
 3074SOL    HW210962   0.263   7.587   7.204  1.6082  0.0053  3.1256
 3075SOL     OW10963   1.707   4.390   5.103  0.3557  0.2246 -0.0307
 3075SOL    HW110964   1.759   4.450   5.049 -0.1479 -0.6379 -1.5530
 3075SOL    HW210965   1.618   4.427   5.101  0.3839  0.3206  0.4250
 3076SOL     OW10966   5.228   0.165   6.760  0.4272 -0.0452  0.1856
 3076SOL    HW110967   5.238   0.222   6.837  0.2327  0.7339 -0.3543
 3076SOL    HW210968   5.317   0.136   6.740  0.3099 -1.6390  1.7094
 3077SOL     OW10969   0.825   8.397   8.134  0.0927  0.3018  0.4641
 3077SOL    HW110970   0.821   8.392   8.039  0.6332  1.8234  0.3336
 3077SOL    HW210971   0.793   8.312   8.164  1.1789 -0.7036 -1.0977
 3078SOL     OW10972   9.246   4.126   1.645  0.1442  0.4664  0.3600
 3078SOL    HW110973   9.297   4.049   1.668 -0.4742 -0.4751 -1.2686
 3078SOL    HW210974   9.222   4.166   1.729  2.8804  0.5365  1.1737
 3079SOL     OW10975   4.487   2.917   1.560 -0.5165 -0.1789 -0.3572
 3079SOL    HW110976   4.404   2.869   1.553 -1.0259  0.8379 -2.0946
 3079SOL    HW210977   4.541   2.882   1.489  0.1346 -0.0583  0.0684
 3080SOL     OW10978   7.574   1.414   3.015  0.0914  0.4461  0.5611
 3080SOL    HW110979   7.507   1.420   2.947 -0.7339  0.0067  1.3084
 3080SOL    HW210980   7.647   1.370   2.973 -1.0157 -1.3180  0.3602
 3081SOL     OW10981   3.863   8.355   3.884  0.1617 -0.4771  0.2676
 3081SOL    HW110982   3.886   8.343   3.976  3.3877  1.2119 -0.2137
 3081SOL    HW210983   3.778   8.400   3.886  0.6676  0.4859  2.4583
 3082SOL     OW10984   2.933   0.449   4.953  0.3092  0.2302  0.0210
 3082SOL    HW110985   2.980   0.366   4.944 -2.0011 -1.0861 -0.6386
 3082SOL    HW210986   2.963   0.502   4.880  2.0693  0.1455  0.6367
 3083SOL     OW10987   5.331   5.823   1.987  0.2305 -0.4040  0.0203
 3083SOL    HW110988   5.363   5.766   1.917  0.7659  1.0172 -0.9419
 3083SOL    HW210989   5.236   5.811   1.986  0.2938 -0.9555 -0.4448
 3084SOL     OW10990   8.676   0.715   8.598 -0.1189  0.4044  0.3533
 3084SOL    HW110991   8.612   0.690   8.664 -0.4290 -1.5237 -0.5972
 3084SOL    HW210992   8.639   0.792   8.556 -0.5443  0.8566  1.5156
 3085SOL     OW10993   0.304   8.171   3.267 -0.6481 -0.8137 -0.2394
 3085SOL    HW110994   0.245   8.096   3.254 -0.4576 -1.4834  2.2575
 3085SOL    HW210995   0.261   8.243   3.221 -0.9323 -2.3548 -2.5625
 3086SOL     OW10996   8.279   7.479   6.402  0.9372  0.5619  0.3131
 3086SOL    HW110997   8.259   7.386   6.412 -0.5747  0.8298  0.1007
 3086SOL    HW210998   8.329   7.485   6.321  0.8314 -0.0504  0.2010
 3087SOL     OW10999   5.247   8.838   7.090  0.2382  0.4215 -0.0403
 3087SOL    HW111000   5.177   8.878   7.142 -1.8133 -1.3245 -1.2900
 3087SOL    HW211001   5.263   8.901   7.020 -2.1385 -0.2888 -1.3283
 3088SOL     OW11002   5.775   3.559   5.310  0.0457 -0.2621 -0.2505
 3088SOL    HW111003   5.721   3.628   5.350 -0.7970 -1.1821  0.2463
 3088SOL    HW211004   5.789   3.496   5.381  0.4321 -0.8184 -0.8120
 3089SOL     OW11005   8.599   1.558   3.626 -0.0042 -0.0101 -0.1470
 3089SOL    HW111006   8.625   1.644   3.659  0.1671 -0.1119 -0.0162
 3089SOL    HW211007   8.679   1.505   3.631  0.8497  0.7806 -3.4812
 3090SOL     OW11008   7.753   3.574   6.755  0.7979  0.1098 -0.0983
 3090SOL    HW111009   7.702   3.646   6.716 -1.0175  0.1003  2.0257
 3090SOL    HW211010   7.758   3.596   6.847  0.3512 -2.3620  0.6009
 3091SOL     OW11011   9.582   5.195   4.869  0.5202 -0.2562 -0.3552
 3091SOL    HW111012   9.494   5.192   4.905 -0.2056  0.8581 -1.8786
 3091SOL    HW211013   9.640   5.183   4.944 -0.8857  1.6433  1.1320
 3092SOL     OW11014   7.299   6.388   4.282  0.1678  0.3535  0.2332
 3092SOL    HW111015   7.379   6.440   4.292  0.2805  0.2699 -0.1867
 3092SOL    HW211016   7.288   6.379   4.187 -1.7997  2.5641  0.1722
 3093SOL     OW11017   4.805   5.801   1.026  0.2856  0.0036 -0.0880
 3093SOL    HW111018   4.852   5.851   0.959  1.5302 -0.4677  0.4056
 3093SOL    HW211019   4.867   5.795   1.099  0.2791 -2.4110 -0.2065
 3094SOL     OW11020   2.832   7.783   1.960 -0.9049 -0.0955  0.1602
 3094SOL    HW111021   2.843   7.690   1.943  4.0901  0.3763 -0.6454
 3094SOL    HW211022   2.802   7.788   2.051  0.6479 -2.5119  0.8816
 3095SOL     OW11023   1.765   0.769   8.863 -0.0884 -0.5945  0.3205
 3095SOL    HW111024   1.816   0.812   8.795  1.3887 -1.9684  0.4813
 3095SOL    HW211025   1.717   0.699   8.817 -0.2106 -0.6143  0.4752
 3096SOL     OW11026   1.652   1.596   5.246  0.0647  0.4985  0.6553
 3096SOL    HW111027   1.706   1.672   5.269  0.0859  0.0172  2.3239
 3096SOL    HW211028   1.571   1.634   5.211 -0.0979  1.3105  1.8625
 3097SOL     OW11029   0.389   4.026   6.190  0.1011  0.0175 -0.7770
 3097SOL    HW111030   0.353   3.947   6.230  1.1309 -0.1552 -0.1391
 3097SOL    HW211031   0.330   4.046   6.118 -0.6484 -0.8502 -0.4200
 3098SOL     OW11032   0.763   0.435   7.869  0.6247  0.1852  0.5101
 3098SOL    HW111033   0.702   0.434   7.943  0.1663 -1.3591  0.1455
 3098SOL    HW211034   0.826   0.366   7.889  0.0646 -0.7721 -0.8593
 3099SOL     OW11035   4.236   9.098   5.555 -0.2144  0.1537 -0.1750
 3099SOL    HW111036   4.239   9.008   5.586 -2.6321 -0.0721 -0.4344
 3099SOL    HW211037   4.273   9.095   5.467  1.0294 -0.2868  0.3350
 3100SOL     OW11038   9.527   4.735   5.923 -0.3753 -0.7806 -0.0470
 3100SOL    HW111039   9.617   4.764   5.939 -1.1320  1.5974  0.3038
 3100SOL    HW211040   9.523   4.717   5.830  0.5099 -1.1034 -0.0297
 3101SOL     OW11041   2.756   2.510   1.741  0.6010 -0.0833 -0.2693
 3101SOL    HW111042   2.821   2.445   1.713  1.2381  0.0137  0.9070
 3101SOL    HW211043   2.758   2.576   1.672  1.9350  0.0332 -0.1505
 3102SOL     OW11044   1.917   7.656   9.510 -0.4238 -0.2796 -0.0926
 3102SOL    HW111045   1.984   7.701   9.458  0.6570 -1.1424  0.5085
 3102SOL    HW211046   1.879   7.725   9.565 -2.3162  0.8789 -2.6461
 3103SOL     OW11047   8.774   0.586   1.081 -0.0178 -0.2697  0.2494
 3103SOL    HW111048   8.703   0.626   1.131 -0.4310 -1.2687  0.4858
 3103SOL    HW211049   8.817   0.527   1.143  0.9337  0.2042  0.0663
 3104SOL     OW11050   6.040   4.740   0.492 -0.4305  0.8500 -0.1338
 3104SOL    HW111051   6.079   4.737   0.405 -1.8415 -0.1236 -0.7710
 3104SOL    HW211052   5.954   4.778   0.478 -1.2328 -0.6183  0.5879
 3105SOL     OW11053   1.206   2.397   3.263 -0.0326  0.0301  0.2956
 3105SOL    HW111054   1.190   2.468   3.200 -0.8831 -1.2857 -1.0383
 3105SOL    HW211055   1.143   2.413   3.334 -1.3033 -0.2124 -0.7322
 3106SOL     OW11056   9.072   0.791   0.597 -0.4296 -0.1178 -0.3996
 3106SOL    HW111057   9.133   0.814   0.527  1.6511 -0.5458  1.1801
 3106SOL    HW211058   9.084   0.698   0.612 -0.4464  0.0562  0.8628
 3107SOL     OW11059   7.589   1.522   4.557  0.3027  0.0206  0.3481
 3107SOL    HW111060   7.536   1.445   4.537  0.7055  0.0270 -0.7989
 3107SOL    HW211061   7.546   1.561   4.633 -3.1726  1.7302 -2.1981
 3108SOL     OW11062   6.856   8.703   7.848  0.3194  0.3284 -0.4760
 3108SOL    HW111063   6.939   8.751   7.852  0.8812 -0.6659  0.0023
 3108SOL    HW211064   6.875   8.619   7.889 -0.4161 -0.6360 -2.0122
 3109SOL     OW11065   2.782   4.064   7.577 -0.4289  0.0493 -0.3038
 3109SOL    HW111066   2.740   4.051   7.662  0.6624 -0.6304  0.1603
 3109SOL    HW211067   2.825   4.150   7.584 -1.1578  0.4440 -0.5423
 3110SOL     OW11068   2.554   1.767   9.247  0.5344  0.0932 -0.1141
 3110SOL    HW111069   2.596   1.818   9.317  1.8630 -0.3221 -0.5902
 3110SOL    HW211070   2.618   1.765   9.177 -0.1079 -0.9559 -0.6929
 3111SOL     OW11071   3.678   5.340   1.593 -0.2203 -0.3012  0.4611
 3111SOL    HW111072   3.664   5.283   1.668 -1.0233 -0.4939  0.1784
 3111SOL    HW211073   3.749   5.398   1.619  0.5882 -1.4079  0.7645
 3112SOL     OW11074   2.457   7.978   1.388 -0.2857 -0.2806  0.8139
 3112SOL    HW111075   2.486   8.050   1.334  0.2428 -0.5020  0.7967
 3112SOL    HW211076   2.362   7.979   1.381 -0.3233  0.8249  1.3503
 3113SOL     OW11077   2.786   5.819   3.937  0.4078 -0.1299 -0.7468
 3113SOL    HW111078   2.776   5.812   4.032  1.1109 -0.7778 -0.7122
 3113SOL    HW211079   2.872   5.782   3.919  0.3119  0.0521 -1.6356
 3114SOL     OW11080   8.294   5.074   4.833  0.6437  0.6247  0.2742
 3114SOL    HW111081   8.358   5.021   4.881 -0.4663  1.4720  2.9095
 3114SOL    HW211082   8.301   5.161   4.872 -1.6158  0.9021  0.2271
 3115SOL     OW11083   9.007   1.319   2.645  0.0072 -0.4074 -0.1769
 3115SOL    HW111084   9.044   1.372   2.574  0.5193 -0.9997 -0.3520
 3115SOL    HW211085   9.026   1.229   2.620  1.4931 -0.5724  1.4393
 3116SOL     OW11086   3.755   2.921   9.056  0.2058  0.0591  0.4040
 3116SOL    HW111087   3.727   2.937   8.966  1.3234 -0.4965 -0.0600
 3116SOL    HW211088   3.705   2.984   9.108 -0.0193  0.7941 -0.6651
 3117SOL     OW11089   8.417   0.642   2.837 -0.2515 -0.1537  0.0838
 3117SOL    HW111090   8.454   0.574   2.781  0.8362  0.9818 -0.6198
 3117SOL    HW211091   8.333   0.606   2.864  0.5630 -2.0560  0.2782
 3118SOL     OW11092   3.242   4.862   4.751 -0.4625  0.3076 -0.3280
 3118SOL    HW111093   3.200   4.779   4.731 -1.9397  0.3037  2.3452
 3118SOL    HW211094   3.336   4.842   4.755 -0.8188 -1.3299  0.6562
 3119SOL     OW11095   2.520   6.232   2.875  0.3081  0.4898 -0.1949
 3119SOL    HW111096   2.504   6.184   2.794  0.3565 -1.6461  0.9809
 3119SOL    HW211097   2.457   6.196   2.938  1.3869  0.8800  1.1716
 3120SOL     OW11098   3.439   6.541   6.287 -0.6362  0.4894  0.0585
 3120SOL    HW111099   3.388   6.486   6.228  2.6627 -1.1858 -1.4753
 3120SOL    HW211100   3.404   6.629   6.274 -3.3099 -0.5517 -0.5563
 3121SOL     OW11101   2.131   0.927   7.032 -0.0943  0.1521  0.4695
 3121SOL    HW111102   2.040   0.900   7.021 -0.3160  0.7059  0.9242
 3121SOL    HW211103   2.171   0.915   6.945 -0.9913  1.3884 -0.1446
 3122SOL     OW11104   8.921   2.486   7.671 -0.3826 -0.0700 -0.0496
 3122SOL    HW111105   8.889   2.559   7.724  0.4334 -1.9516  3.3854
 3122SOL    HW211106   8.867   2.412   7.698  0.4388 -1.2662 -1.5250
 3123SOL     OW11107   5.696   5.439   0.251 -0.1200 -0.2240 -0.3886
 3123SOL    HW111108   5.726   5.508   0.193  1.6177  0.3766  1.1448
 3123SOL    HW211109   5.771   5.380   0.260 -0.0793  0.0839  1.7707
 3124SOL     OW11110   9.024   6.588   4.176 -0.2191  0.2490  0.3999
 3124SOL    HW111111   9.108   6.572   4.134 -0.3670  1.0433 -0.2086
 3124SOL    HW211112   9.045   6.646   4.249 -0.5151  2.3925 -1.1295
 3125SOL     OW11113   3.122   5.822   8.358 -0.3786  0.4506 -1.2928
 3125SOL    HW111114   3.213   5.849   8.345 -0.0858  0.9170  1.1786
 3125SOL    HW211115   3.106   5.756   8.290  2.0309 -0.1726 -1.3388
 3126SOL     OW11116   9.205   0.053   8.205 -0.5089 -0.0617  1.0312
 3126SOL    HW111117   9.149  -0.022   8.222 -0.2685 -0.7791 -1.1115
 3126SOL    HW211118   9.157   0.107   8.143  1.5148 -1.3298 -1.8918
 3127SOL     OW11119   5.786   9.026   6.103 -0.1517  0.0657 -0.0564
 3127SOL    HW111120   5.735   9.055   6.179  0.8285 -1.3852  1.2380
 3127SOL    HW211121   5.877   9.035   6.131  0.2811 -4.3370  0.6813
 3128SOL     OW11122   1.772   3.940   3.952  0.2379 -0.0188 -0.5452
 3128SOL    HW111123   1.824   3.860   3.956 -0.8180 -0.6679  0.9565
 3128SOL    HW211124   1.834   4.009   3.977  1.0482 -0.3961 -1.4395
 3129SOL     OW11125   4.777   8.389   8.517  0.1328 -0.1217 -0.4915
 3129SOL    HW111126   4.730   8.313   8.551 -0.2427 -0.0500 -0.8465
 3129SOL    HW211127   4.728   8.414   8.439  1.1185 -0.4268 -1.2244
 3130SOL     OW11128   4.167   5.864   4.918 -0.0653 -0.0158 -0.7493
 3130SOL    HW111129   4.163   5.854   5.013  2.2725  0.3060 -0.5650
 3130SOL    HW211130   4.178   5.774   4.885  2.2155  0.1050 -0.4470
 3131SOL     OW11131   9.506   2.435   9.464  0.5472  0.2587  0.1656
 3131SOL    HW111132   9.463   2.361   9.507 -0.6080 -0.8959 -2.7462
 3131SOL    HW211133   9.579   2.456   9.522 -0.0143 -2.1185  1.9158
 3132SOL     OW11134   0.979   7.377   8.539  0.1338 -0.1675 -0.0740
 3132SOL    HW111135   0.952   7.417   8.457  1.3308  0.1117 -0.3534
 3132SOL    HW211136   0.903   7.327   8.568 -1.3086  2.0120  0.1135
 3133SOL     OW11137   2.269   0.955   4.031 -0.0498 -0.3341 -0.3957
 3133SOL    HW111138   2.350   0.923   4.069  1.1939  0.9836 -1.8214
 3133SOL    HW211139   2.208   0.959   4.105  1.7151  0.3502  1.0901
 3134SOL     OW11140   4.378   3.714   7.412  0.1480  0.0562 -0.0624
 3134SOL    HW111141   4.329   3.692   7.491 -1.9138  0.7612 -1.0608
 3134SOL    HW211142   4.397   3.808   7.421 -0.4449  0.2329 -0.5402
 3135SOL     OW11143   8.275   6.560   2.535  0.0545 -0.6172 -0.9452
 3135SOL    HW111144   8.367   6.549   2.559  0.9267  2.1353 -2.5736
 3135SOL    HW211145   8.226   6.530   2.612  2.3673 -0.1053  0.8448
 3136SOL     OW11146   8.239   7.522   2.239 -0.7090 -0.3576  0.5227
 3136SOL    HW111147   8.177   7.548   2.307 -1.9302 -0.5023 -0.4977
 3136SOL    HW211148   8.211   7.571   2.161  0.0963 -0.8762 -0.1082
 3137SOL     OW11149   6.482   2.907   5.439 -0.2317  0.1276 -0.0131
 3137SOL    HW111150   6.437   2.825   5.459 -0.7963  0.6429  0.8994
 3137SOL    HW211151   6.482   2.912   5.344  0.7579 -1.4409 -0.1313
 3138SOL     OW11152   2.659   8.947   1.071  0.7720 -0.0048  0.0189
 3138SOL    HW111153   2.597   8.876   1.056 -0.2012  0.6189  0.9206
 3138SOL    HW211154   2.611   9.026   1.045  1.5960  0.3966 -0.3242
 3139SOL     OW11155   7.063   2.607   8.889 -0.5101  0.2458 -0.2307
 3139SOL    HW111156   7.035   2.551   8.817  0.4405 -1.7535  0.9010
 3139SOL    HW211157   7.050   2.555   8.968 -0.5769  2.0099  0.9967
 3140SOL     OW11158   1.748   0.314   4.344 -0.2661 -0.2003 -0.8190
 3140SOL    HW111159   1.787   0.361   4.417  3.2765 -1.8445 -1.4441
 3140SOL    HW211160   1.764   0.369   4.268  0.8749 -0.8451 -1.0673
 3141SOL     OW11161   7.994   0.821   4.103 -0.2693 -0.0715  0.0825
 3141SOL    HW111162   8.007   0.761   4.029 -0.3137  1.3918 -1.1652
 3141SOL    HW211163   7.953   0.898   4.064 -0.7648  0.5383  1.7427
 3142SOL     OW11164   6.138   6.423   8.735  0.1999 -0.0095 -0.3283
 3142SOL    HW111165   6.165   6.501   8.783  1.4007 -0.1576 -0.7238
 3142SOL    HW211166   6.202   6.356   8.759  2.1446  0.4347 -3.5393
 3143SOL     OW11167   4.105   7.511   5.593 -0.5411  0.2882 -0.5694
 3143SOL    HW111168   4.013   7.537   5.586 -1.2370 -2.0749 -1.0835
 3143SOL    HW211169   4.130   7.486   5.503  0.8748  1.6495 -0.5984
 3144SOL     OW11170   0.929   9.288   2.243 -0.0474  0.3860  0.0374
 3144SOL    HW111171   0.855   9.345   2.263  0.9067  0.2612  5.1777
 3144SOL    HW211172   0.918   9.212   2.300  3.1356 -0.4625 -0.2649
 3145SOL     OW11173   2.896   7.511   4.507 -0.0699  0.0245  0.5022
 3145SOL    HW111174   2.877   7.579   4.572  0.2951 -0.5680  1.2476
 3145SOL    HW211175   2.853   7.432   4.542 -0.0406 -0.2535 -0.0825
 3146SOL     OW11176   4.547   6.732   6.418  0.0753 -0.4853 -0.1581
 3146SOL    HW111177   4.625   6.774   6.382  1.1794  0.5315  3.0867
 3146SOL    HW211178   4.474   6.772   6.370  1.3559  1.3093 -0.7248
 3147SOL     OW11179   5.835   3.153   1.487  0.2524 -0.1246  0.4116
 3147SOL    HW111180   5.901   3.091   1.455 -0.6429 -0.9863  0.1939
 3147SOL    HW211181   5.851   3.157   1.582  0.9403  0.0790  0.2954
 3148SOL     OW11182   7.617   9.564   6.937  0.5938  0.0613 -0.3051
 3148SOL    HW111183   7.541   9.617   6.962  1.5033  1.0323  0.4403
 3148SOL    HW211184   7.655   9.534   7.020  2.5115  1.7219 -0.5129
 3149SOL     OW11185   2.180   3.724   3.552 -0.9055 -0.5635 -0.5352
 3149SOL    HW111186   2.221   3.691   3.633 -0.3988  0.6958 -0.2604
 3149SOL    HW211187   2.149   3.645   3.508 -3.1658 -1.1749  1.9171
 3150SOL     OW11188   9.204   1.940   8.426 -0.1812 -0.2151 -0.3796
 3150SOL    HW111189   9.203   1.980   8.512 -1.0808 -0.5914 -0.2076
 3150SOL    HW211190   9.192   1.846   8.442  2.7305 -0.7415 -0.7114
 3151SOL     OW11191   9.479   4.660   7.944  0.5715 -0.1777 -0.2375
 3151SOL    HW111192   9.400   4.635   7.992  0.2552  0.7175 -0.2849
 3151SOL    HW211193   9.456   4.646   7.852  1.4325 -2.6306 -0.1466
 3152SOL     OW11194   1.700   4.703   5.233 -0.4432 -0.2125 -0.2574
 3152SOL    HW111195   1.751   4.780   5.259 -0.1847 -0.1209 -1.0079
 3152SOL    HW211196   1.733   4.632   5.288  0.8037 -0.2484 -1.0140
 3153SOL     OW11197   7.908   5.046   6.889  0.3779  0.1726 -0.2168
 3153SOL    HW111198   7.937   5.090   6.969  0.7289  0.3626 -0.4468
 3153SOL    HW211199   7.814   5.031   6.902  0.7993 -1.6380  1.1004
 3154SOL     OW11200   2.476   5.068   9.038 -0.6824 -0.0514  0.7221
 3154SOL    HW111201   2.396   5.076   9.089 -1.1439  1.6631 -0.2219
 3154SOL    HW211202   2.451   5.017   8.961 -0.6780 -0.1116  0.7595
 3155SOL     OW11203   3.165   6.992   1.481  0.2925 -0.2054  0.2672
 3155SOL    HW111204   3.146   6.899   1.472 -0.1729 -0.1411  0.6065
 3155SOL    HW211205   3.179   7.005   1.574  1.2319 -0.1007  0.1220
 3156SOL     OW11206   3.805   1.783   7.709 -0.3586 -0.0295  0.3422
 3156SOL    HW111207   3.721   1.798   7.753 -0.7585  0.5676 -0.6032
 3156SOL    HW211208   3.856   1.862   7.728 -0.9029  0.6925 -1.0788
 3157SOL     OW11209   8.823   2.340   1.041 -0.1014 -0.0729 -0.0640
 3157SOL    HW111210   8.740   2.358   1.087  0.3294  0.7980  0.3868
 3157SOL    HW211211   8.850   2.424   1.006 -0.0051 -0.5767 -1.2702
 3158SOL     OW11212   1.450   8.688   8.626 -0.2278 -0.3175  0.2081
 3158SOL    HW111213   1.429   8.643   8.545  1.7719 -2.7494  0.9008
 3158SOL    HW211214   1.545   8.701   8.622 -0.2529  0.5798  1.6789
 3159SOL     OW11215   3.703   7.112   1.434 -0.7921 -0.1251 -0.2028
 3159SOL    HW111216   3.747   7.029   1.452  0.4957  0.6562  0.4054
 3159SOL    HW211217   3.610   7.094   1.449 -0.5501 -1.4631 -0.1786
 3160SOL     OW11218   3.267   1.369   1.943  0.0337 -0.5188  0.7356
 3160SOL    HW111219   3.235   1.355   1.854 -0.7435  1.3204  0.6832
 3160SOL    HW211220   3.260   1.283   1.985  1.6299 -1.7390 -1.3128
 3161SOL     OW11221   5.522   5.752   5.148  0.8132 -0.0875  0.4265
 3161SOL    HW111222   5.569   5.729   5.228  2.5712 -1.1006 -0.8255
 3161SOL    HW211223   5.504   5.668   5.105 -0.4926  0.4082 -0.0441
 3162SOL     OW11224   7.169   4.413   2.796  0.0575  0.1786 -0.6297
 3162SOL    HW111225   7.218   4.451   2.870 -0.3426 -0.0635 -0.2311
 3162SOL    HW211226   7.181   4.319   2.805 -2.8731 -0.1506  1.2805
 3163SOL     OW11227   2.966   8.290   0.652 -0.2436  0.5175  0.0451
 3163SOL    HW111228   3.012   8.326   0.576  0.8752 -1.4803 -0.2990
 3163SOL    HW211229   2.907   8.360   0.680  1.1314  2.2183 -1.1152
 3164SOL     OW11230   5.086   0.461   3.075  0.7530 -0.0720 -0.6305
 3164SOL    HW111231   5.068   0.441   3.167  2.7825 -1.3487 -0.4636
 3164SOL    HW211232   5.050   0.549   3.063  1.6603  0.7165  1.7784
 3165SOL     OW11233   1.356   4.809   9.460  0.8875 -0.3024  0.1618
 3165SOL    HW111234   1.422   4.841   9.399  2.4155 -1.7221  0.9720
 3165SOL    HW211235   1.396   4.820   9.547 -0.2647 -0.4887  0.7489
 3166SOL     OW11236   8.415   7.384   5.182  0.4341 -0.2090 -0.2366
 3166SOL    HW111237   8.456   7.397   5.097  1.1178  0.7240  0.2109
 3166SOL    HW211238   8.386   7.472   5.208  0.2718 -0.4716  0.4989
 3167SOL     OW11239   3.200   4.587   5.970 -0.1119 -0.5101  0.1037
 3167SOL    HW111240   3.191   4.535   6.050  0.3517  0.1192  0.5678
 3167SOL    HW211241   3.238   4.670   5.999 -0.4807 -0.0560 -0.6873
 3168SOL     OW11242   5.561   6.223   4.830  0.1843 -0.3071 -0.6475
 3168SOL    HW111243   5.641   6.181   4.860 -0.1528 -1.1001 -0.8266
 3168SOL    HW211244   5.544   6.184   4.744 -0.1352  0.1996 -0.8178
 3169SOL     OW11245   7.259   7.565   8.298  0.4649  0.1671  0.6966
 3169SOL    HW111246   7.276   7.652   8.261 -0.8517  1.0568  2.0599
 3169SOL    HW211247   7.310   7.505   8.243  1.8579  1.8460  0.0658
 3170SOL     OW11248   6.171   1.020   7.095  0.4795 -0.1026 -0.9420
 3170SOL    HW111249   6.191   1.113   7.079  1.2345  0.0244  0.5691
 3170SOL    HW211250   6.133   1.019   7.183  0.6596 -1.2523 -0.8682
 3171SOL     OW11251   3.663   3.914   7.194 -0.1683 -0.3383 -0.0357
 3171SOL    HW111252   3.574   3.924   7.228 -0.5327 -0.2443 -1.0056
 3171SOL    HW211253   3.720   3.932   7.269 -0.9706 -1.2226  0.8163
 3172SOL     OW11254   2.033   7.989   3.649 -0.3155  0.1123  0.3335
 3172SOL    HW111255   2.071   7.901   3.658 -2.5365 -1.2028 -1.7456
 3172SOL    HW211256   2.062   8.036   3.727  0.1906 -2.7862  2.0485
 3173SOL     OW11257   7.959   8.529   9.399 -0.3784  1.0551  0.4499
 3173SOL    HW111258   7.993   8.486   9.478  0.0342  0.1350 -0.2149
 3173SOL    HW211259   7.925   8.458   9.346 -0.1320  1.6013 -0.4616
 3174SOL     OW11260   7.938   2.784   1.902 -0.7467  0.2141  0.3903
 3174SOL    HW111261   7.882   2.723   1.855 -0.4603 -0.5604  1.0273
 3174SOL    HW211262   8.025   2.743   1.900 -0.6023  0.4662  1.0389
 3175SOL     OW11263   3.679   9.177   5.716 -0.2474  0.7537 -0.4151
 3175SOL    HW111264   3.772   9.194   5.702  0.0727 -1.1014 -0.8021
 3175SOL    HW211265   3.637   9.262   5.701  1.3263  1.5546 -0.5848
 3176SOL     OW11266   7.396   7.878   6.130 -0.1328 -0.2804  0.1087
 3176SOL    HW111267   7.386   7.819   6.205  0.8135  0.0392  0.4938
 3176SOL    HW211268   7.306   7.896   6.102 -0.4954 -0.4980  1.0935
 3177SOL     OW11269   1.157   1.915   9.295 -0.2575 -0.4606 -0.0839
 3177SOL    HW111270   1.106   1.986   9.256 -0.2740  0.8655  2.1669
 3177SOL    HW211271   1.094   1.867   9.349 -0.1019 -1.8328 -1.0721
 3178SOL     OW11272   5.268   8.756   8.772 -0.3327  0.4682  0.1025
 3178SOL    HW111273   5.309   8.705   8.702 -0.9167 -0.0952  0.1649
 3178SOL    HW211274   5.294   8.712   8.853 -0.5305  0.5000  0.1818
 3179SOL     OW11275   7.204   0.874   0.210  0.5198  0.3080  0.2325
 3179SOL    HW111276   7.204   0.815   0.135 -0.7045 -0.1463  0.5537
 3179SOL    HW211277   7.271   0.839   0.268 -0.9753 -1.5522  0.9524
 3180SOL     OW11278   4.227   4.654   1.717  0.2831  0.9444  0.0254
 3180SOL    HW111279   4.180   4.649   1.800 -2.2988  1.0094 -1.3259
 3180SOL    HW211280   4.283   4.576   1.715  0.2250  0.8339  1.6799
 3181SOL     OW11281   9.074   5.533   1.817  0.1166  0.4354 -0.1096
 3181SOL    HW111282   9.090   5.447   1.780  1.4563  1.1249 -1.2349
 3181SOL    HW211283   8.982   5.551   1.797 -0.5121 -1.1663  1.1562
 3182SOL     OW11284   9.500   3.966   6.592  0.4566 -0.1661 -0.2131
 3182SOL    HW111285   9.526   3.879   6.623  1.4738 -0.3520 -1.5126
 3182SOL    HW211286   9.562   4.026   6.635  0.6819 -0.2330 -0.4439
 3183SOL     OW11287   1.008   1.725   2.154  0.3381 -0.0069  0.0518
 3183SOL    HW111288   0.958   1.653   2.116 -0.6744  1.4902 -1.6236
 3183SOL    HW211289   0.945   1.771   2.211  0.2099  0.9760 -0.8457
 3184SOL     OW11290   1.352   1.336   9.558  0.1216 -0.7811  0.6311
 3184SOL    HW111291   1.434   1.363   9.599 -0.4441  0.3658  1.0298
 3184SOL    HW211292   1.309   1.417   9.532 -0.8144 -1.3715  0.2657
 3185SOL     OW11293   7.487   5.949   3.995 -0.3006  0.0428  0.6183
 3185SOL    HW111294   7.427   5.890   4.040 -1.0479 -0.3047 -0.7975
 3185SOL    HW211295   7.431   6.004   3.940  0.5860  0.4754  0.1213
 3186SOL     OW11296   2.497   1.575   9.012 -0.1496 -0.4035 -0.0671
 3186SOL    HW111297   2.411   1.613   8.998 -0.2057 -0.2363  0.7184
 3186SOL    HW211298   2.502   1.559   9.106  0.8503  0.0090 -0.0350
 3187SOL     OW11299   7.646   1.464   1.606  0.0139 -0.3093 -0.2656
 3187SOL    HW111300   7.568   1.505   1.568 -0.0015  0.8015  0.8786
 3187SOL    HW211301   7.638   1.481   1.700  1.3012 -0.7537 -0.0551
 3188SOL     OW11302   4.538   8.675   7.133 -0.5595  0.4394 -0.1353
 3188SOL    HW111303   4.444   8.684   7.147 -0.6803  0.4445 -0.9427
 3188SOL    HW211304   4.570   8.765   7.122 -0.2979  0.5182  1.0680
 3189SOL     OW11305   2.675   3.224   8.184 -0.1437  0.5595 -0.3040
 3189SOL    HW111306   2.640   3.222   8.095 -0.9261 -1.6520 -0.0199
 3189SOL    HW211307   2.635   3.148   8.226  1.6880  0.4561  1.3713
 3190SOL     OW11308   1.889   7.181   5.426  0.9193  0.0257 -0.3821
 3190SOL    HW111309   1.841   7.170   5.344  1.0723  1.9640 -0.7732
 3190SOL    HW211310   1.850   7.118   5.486 -0.8344  0.2463 -1.2491
 3191SOL     OW11311   1.590   4.105   5.532 -0.8128  0.1397 -0.0062
 3191SOL    HW111312   1.635   4.119   5.448  0.2809  1.1117  0.7082
 3191SOL    HW211313   1.498   4.126   5.513 -0.4719  1.0051 -0.8191
 3192SOL     OW11314   8.797   8.430   1.955 -0.0588 -0.0838 -0.1662
 3192SOL    HW111315   8.763   8.450   2.042 -1.0168 -1.3486 -0.2246
 3192SOL    HW211316   8.738   8.363   1.921  0.5235  0.1209 -1.6483
 3193SOL     OW11317   5.831   1.706   0.745  0.2443  0.1783  0.2697
 3193SOL    HW111318   5.921   1.681   0.726  0.7732 -0.4653  3.1332
 3193SOL    HW211319   5.810   1.660   0.826 -1.9479  1.8888  0.7743
 3194SOL     OW11320   4.135   2.451   8.231 -0.2616 -0.3170  0.3966
 3194SOL    HW111321   4.172   2.398   8.301 -1.0875 -0.1076  1.0191
 3194SOL    HW211322   4.164   2.541   8.251  0.5712 -0.4314 -0.2684
 3195SOL     OW11323   8.396   0.257   5.039  0.2856  0.4601  0.6955
 3195SOL    HW111324   8.345   0.333   5.011 -0.4057 -0.3585 -0.3544
 3195SOL    HW211325   8.354   0.229   5.121 -0.5360  0.2234  0.2133
 3196SOL     OW11326   0.166   8.756   0.254 -0.6660 -0.6407 -0.0745
 3196SOL    HW111327   0.161   8.661   0.255  1.9508 -0.9894 -3.3800
 3196SOL    HW211328   0.208   8.779   0.337  0.0685 -2.5295  0.1127
 3197SOL     OW11329   0.871   2.032   7.809 -0.1985  0.3915  0.0152
 3197SOL    HW111330   0.904   2.059   7.723 -0.4782  0.2351 -0.1408
 3197SOL    HW211331   0.810   2.101   7.834 -2.3942 -0.9845 -1.2403
 3198SOL     OW11332   9.071   1.950   4.925 -0.4461  0.2213  0.0311
 3198SOL    HW111333   9.038   1.945   5.014  0.4505 -0.6974  0.3247
 3198SOL    HW211334   9.165   1.931   4.932 -0.3478  0.1906 -1.0939
 3199SOL     OW11335   7.039   5.119   3.930 -0.3460 -0.0633  0.4806
 3199SOL    HW111336   7.128   5.085   3.926 -0.2560  0.2699 -2.9208
 3199SOL    HW211337   7.049   5.214   3.939 -0.3589 -0.0271  0.1121
 3200SOL     OW11338   8.664   1.963   4.872 -0.3622  0.6678  0.1766
 3200SOL    HW111339   8.575   1.997   4.884 -0.5474 -0.3197  1.9943
 3200SOL    HW211340   8.718   2.020   4.926 -0.2365 -0.0441  0.8216
 3201SOL     OW11341   3.698   6.542   0.234  0.9589  0.0542  0.1354
 3201SOL    HW111342   3.711   6.585   0.150 -1.4591  1.1518  0.2212
 3201SOL    HW211343   3.677   6.613   0.295 -1.1588 -1.0083  0.7555
 3202SOL     OW11344   9.256   7.023   8.823 -0.5582 -0.1838 -0.1340
 3202SOL    HW111345   9.197   6.948   8.818 -2.0677  0.8100  1.5252
 3202SOL    HW211346   9.198   7.098   8.838  1.1150  0.8190  1.8295
 3203SOL     OW11347   4.008   5.040   6.914 -0.7967  0.2628  0.1811
 3203SOL    HW111348   4.049   4.964   6.873  0.7884  2.3222 -2.3881
 3203SOL    HW211349   4.026   5.029   7.007  2.2573 -0.9489 -0.4169
 3204SOL     OW11350   2.983   1.235   4.764 -0.5115  0.0096  0.1189
 3204SOL    HW111351   2.972   1.144   4.737 -0.1211  0.4352 -1.5672
 3204SOL    HW211352   2.958   1.287   4.688  3.4838  1.2078 -0.6228
 3205SOL     OW11353   8.994   2.597   5.443  0.3472 -0.2166  0.4738
 3205SOL    HW111354   9.040   2.632   5.367  1.0982  1.9706  1.8556
 3205SOL    HW211355   8.915   2.650   5.450  0.5943  0.0331  1.5558
 3206SOL     OW11356   7.825   4.411   7.612  0.3526 -0.6375 -0.0147
 3206SOL    HW111357   7.907   4.407   7.661 -0.5338 -1.5903  1.4419
 3206SOL    HW211358   7.787   4.496   7.637  1.3065  0.2657 -1.4584
 3207SOL     OW11359   2.149   9.476   2.940 -0.5323 -0.1583  0.0191
 3207SOL    HW111360   2.074   9.481   2.999 -1.3158  0.2570 -0.9875
 3207SOL    HW211361   2.200   9.555   2.959 -1.3915  0.5778 -0.6486
 3208SOL     OW11362   8.800   8.777   4.807 -0.4349 -0.2559 -0.0023
 3208SOL    HW111363   8.882   8.753   4.763 -0.0745 -0.7690  0.9095
 3208SOL    HW211364   8.804   8.873   4.815  1.2406 -0.4134  2.1211
 3209SOL     OW11365   2.347   7.038   6.628  0.3200 -0.0702  0.0590
 3209SOL    HW111366   2.423   7.005   6.677  0.0856 -0.8358 -0.0779
 3209SOL    HW211367   2.289   6.963   6.621 -0.0230  0.2545 -0.6716
 3210SOL     OW11368   2.844   0.914   5.707  0.0709  0.5777 -0.3036
 3210SOL    HW111369   2.844   1.009   5.723  0.4186  0.3371  1.3689
 3210SOL    HW211370   2.798   0.877   5.783 -0.4576 -0.5694 -1.1577
 3211SOL     OW11371   0.717   8.912   3.262 -0.0879  0.3174 -0.0368
 3211SOL    HW111372   0.650   8.936   3.198  0.0381 -0.1370 -0.3469
 3211SOL    HW211373   0.780   8.859   3.212 -0.2605 -0.4942  0.5787
 3212SOL     OW11374   5.586   2.363   4.832  0.6053  0.6518  0.5555
 3212SOL    HW111375   5.493   2.372   4.812  0.9305  0.8601 -1.0498
 3212SOL    HW211376   5.620   2.452   4.825  1.2412  0.3284 -0.7527
 3213SOL     OW11377   5.469   1.267   6.391  0.0284  0.3370 -0.8380
 3213SOL    HW111378   5.418   1.345   6.367  0.0570  1.1053  1.3348
 3213SOL    HW211379   5.415   1.193   6.362 -1.4614  1.1556 -0.2951
 3214SOL     OW11380   6.070   6.929   3.538 -0.0950  0.8017 -0.0422
 3214SOL    HW111381   6.006   6.935   3.468 -0.8359 -0.4136  0.5082
 3214SOL    HW211382   6.019   6.917   3.618  0.7216  2.3048  0.7678
 3215SOL     OW11383   9.362   7.386   5.655  0.1688  0.5199  0.3169
 3215SOL    HW111384   9.374   7.429   5.570  0.0715 -2.2177 -1.1943
 3215SOL    HW211385   9.267   7.374   5.662  0.1961  0.5473  0.7169
 3216SOL     OW11386   7.660   5.906   3.640 -0.1765 -0.6863 -0.1942
 3216SOL    HW111387   7.674   5.876   3.729 -0.2895  1.5308  0.6183
 3216SOL    HW211388   7.684   5.830   3.585  0.0375 -2.0324  1.6713
 3217SOL     OW11389   5.700   4.505   6.738 -0.4298 -0.5340  0.4380
 3217SOL    HW111390   5.618   4.529   6.694  0.2857  0.3128 -0.4558
 3217SOL    HW211391   5.740   4.441   6.679 -0.8901 -1.7223  1.3569
 3218SOL     OW11392   8.272   4.876   7.057 -0.2863  0.0331 -0.0251
 3218SOL    HW111393   8.333   4.803   7.046  0.3958  0.5754  0.0996
 3218SOL    HW211394   8.266   4.916   6.970 -0.2872  0.1219  0.0156
 3219SOL     OW11395   3.791   2.404   8.854 -0.0888 -0.1283 -0.2621
 3219SOL    HW111396   3.844   2.334   8.893  0.0454  1.3847  2.5432
 3219SOL    HW211397   3.848   2.443   8.788  0.8982 -0.8468  0.1361
 3220SOL     OW11398   0.986   9.201   5.440  0.3153  0.3193  0.5362
 3220SOL    HW111399   1.047   9.270   5.464  1.5597 -0.1303 -1.1192
 3220SOL    HW211400   0.932   9.240   5.370  0.2414 -0.0118  0.4056
 3221SOL     OW11401   2.246   7.317   3.253  0.7734  0.2134  0.0171
 3221SOL    HW111402   2.325   7.359   3.217  0.2534 -0.1617 -1.6576
 3221SOL    HW211403   2.236   7.237   3.201 -0.5082  0.0767  0.4486
 3222SOL     OW11404   7.129   4.965   2.438 -0.9304 -0.7063  0.0936
 3222SOL    HW111405   7.071   4.889   2.447 -3.3734  1.0954  0.2542
 3222SOL    HW211406   7.097   5.028   2.501 -0.6006  1.4553 -1.7822
 3223SOL     OW11407   6.355   3.161   4.181  0.1733  0.5668 -0.0963
 3223SOL    HW111408   6.321   3.224   4.244  2.5258  0.2282  1.6505
 3223SOL    HW211409   6.383   3.086   4.234  0.5722 -0.4965 -1.7434
 3224SOL     OW11410   6.676   7.385   6.532 -0.2155  0.3531 -0.5077
 3224SOL    HW111411   6.618   7.448   6.489 -0.3950  0.4940 -0.0658
 3224SOL    HW211412   6.644   7.380   6.622  1.3574  1.5731  0.1864
 3225SOL     OW11413   1.165   7.186   2.869  0.3236  0.1922  0.1714
 3225SOL    HW111414   1.079   7.227   2.859  0.7622  0.9337 -0.7027
 3225SOL    HW211415   1.170   7.163   2.961 -0.9266 -0.1232  0.1759
 3226SOL     OW11416   6.570   6.178   8.114 -0.0690 -0.0700  0.7069
 3226SOL    HW111417   6.598   6.134   8.194 -0.4840 -1.4077  0.1494
 3226SOL    HW211418   6.529   6.259   8.144 -0.2036 -0.5485  1.8496
 3227SOL     OW11419   5.509   7.767   0.503  1.0567 -0.2230 -0.1929
 3227SOL    HW111420   5.546   7.688   0.463 -0.8411 -1.0408 -0.4381
 3227SOL    HW211421   5.571   7.789   0.573  0.7188 -3.0612  1.1595
 3228SOL     OW11422   1.196   6.012   8.847  0.5227  0.4882  0.0160
 3228SOL    HW111423   1.119   6.041   8.896  0.2628  1.1565 -0.7668
 3228SOL    HW211424   1.176   5.921   8.825  0.7070  0.1354  1.2547
 3229SOL     OW11425   8.098   0.977   4.866 -0.6629  0.2722  0.0511
 3229SOL    HW111426   8.086   1.062   4.908 -2.2076  1.1288 -1.9571
 3229SOL    HW211427   8.012   0.936   4.870 -0.1988 -0.7416 -0.0188
 3230SOL     OW11428   2.973   2.996   0.291 -0.0465  0.2558 -0.3290
 3230SOL    HW111429   2.901   3.046   0.329 -0.0188  0.2312 -0.2444
 3230SOL    HW211430   2.972   2.912   0.339  1.1759  0.9279  0.9454
 3231SOL     OW11431   3.564   0.424   3.178  0.0341  0.0026  0.8606
 3231SOL    HW111432   3.562   0.334   3.148 -0.7709  0.1815  0.3472
 3231SOL    HW211433   3.508   0.472   3.117  1.7872  1.1882  0.0975
 3232SOL     OW11434   8.619   7.813   0.333  0.0992 -1.0627 -0.1075
 3232SOL    HW111435   8.689   7.806   0.267 -0.0383  0.6768 -0.4689
 3232SOL    HW211436   8.642   7.891   0.384 -0.7337 -1.3988  0.8079
 3233SOL     OW11437   8.934   3.025   5.397 -0.0106  0.3992  0.3457
 3233SOL    HW111438   8.872   2.967   5.353 -0.1561  0.3085  0.6676
 3233SOL    HW211439   9.003   2.968   5.428  0.2428  0.5019 -0.0207
 3234SOL     OW11440   6.700   9.058   7.973 -0.0958 -0.0998  0.9652
 3234SOL    HW111441   6.655   9.017   7.899 -0.3401  1.5889  0.1253
 3234SOL    HW211442   6.655   9.023   8.050 -0.0248 -1.6818  0.3273
 3235SOL     OW11443   5.983   7.104   0.594 -0.6626  0.2235  0.2574
 3235SOL    HW111444   6.008   7.173   0.654  3.4406 -3.4771  3.5205
 3235SOL    HW211445   6.030   7.123   0.513 -1.3958  2.2395  0.2699
 3236SOL     OW11446   3.167   2.226   4.583  0.4397 -0.5026  0.2504
 3236SOL    HW111447   3.230   2.247   4.515 -0.0201 -1.1162 -0.3859
 3236SOL    HW211448   3.210   2.157   4.634 -0.2473 -1.9597 -1.0554
 3237SOL     OW11449   6.960   5.735   3.093 -0.1904  0.1212 -0.1237
 3237SOL    HW111450   6.956   5.791   3.015  1.0476 -0.2553 -0.4789
 3237SOL    HW211451   6.916   5.655   3.067  1.0581 -0.3784 -0.7891
 3238SOL     OW11452   7.606   6.576   0.495  0.2534 -0.1250 -0.1980
 3238SOL    HW111453   7.534   6.634   0.522 -0.5127 -0.9328 -0.4632
 3238SOL    HW211454   7.662   6.632   0.442 -0.9612  0.1583 -1.2305
 3239SOL     OW11455   6.787   2.963   9.190 -0.4120 -0.4291  0.1183
 3239SOL    HW111456   6.844   2.976   9.114  0.8063  1.7588  1.3128
 3239SOL    HW211457   6.703   3.002   9.164  0.3937  1.5159  0.2943
 3240SOL     OW11458   0.909   3.616   9.294  0.0866  0.1984  0.4711
 3240SOL    HW111459   0.876   3.530   9.321 -1.6402  0.7119  0.1501
 3240SOL    HW211460   0.932   3.605   9.202  0.5531 -0.1021  0.6228
 3241SOL     OW11461   7.481   5.686   6.988 -0.1428  0.3612  0.3067
 3241SOL    HW111462   7.571   5.700   7.019  1.0282 -1.6544 -1.7959
 3241SOL    HW211463   7.450   5.611   7.038 -0.5783  0.8976  0.8493
 3242SOL     OW11464   4.622   9.023   0.993  0.7120 -0.0024 -0.3721
 3242SOL    HW111465   4.678   8.951   0.962 -0.6261 -1.1498 -0.2074
 3242SOL    HW211466   4.560   8.981   1.053 -0.9870  1.0320 -1.3288
 3243SOL     OW11467   0.918   4.843   4.986  0.1090  0.3366  0.1826
 3243SOL    HW111468   0.842   4.790   4.961  0.2844  0.0029  0.3547
 3243SOL    HW211469   0.894   4.881   5.071 -0.1058  0.7129 -0.0445
 3244SOL     OW11470   4.088   8.929   4.833  0.1622 -0.1650  0.1177
 3244SOL    HW111471   4.134   8.845   4.829 -1.4221 -1.0066 -2.2923
 3244SOL    HW211472   3.995   8.907   4.836 -0.2984  1.5374  2.6540
 3245SOL     OW11473   3.023   5.278   6.080 -0.4308 -0.3501 -0.0769
 3245SOL    HW111474   3.078   5.354   6.100  1.5224 -1.6530 -0.2269
 3245SOL    HW211475   3.077   5.224   6.023 -2.1254 -1.4430 -0.7144
 3246SOL     OW11476   4.854   3.620   7.205  0.4247 -0.3512  0.1145
 3246SOL    HW111477   4.794   3.694   7.213  0.3291 -0.4693  0.5439
 3246SOL    HW211478   4.893   3.611   7.292  0.1147 -1.0676  0.1878
 3247SOL     OW11479   3.173   7.975   7.499  0.0714  0.0950  0.3327
 3247SOL    HW111480   3.197   8.020   7.418 -0.3623  1.3219  0.8498
 3247SOL    HW211481   3.210   8.030   7.568 -0.7163 -0.1932  1.0016
 3248SOL     OW11482   9.385   0.545   4.722 -0.1578 -0.4045 -0.4006
 3248SOL    HW111483   9.387   0.607   4.795 -0.2492  0.5809 -1.2283
 3248SOL    HW211484   9.306   0.493   4.738  0.3433 -0.8646  0.7270
 3249SOL     OW11485   0.662   2.800   4.755 -0.8027  0.0818 -0.2612
 3249SOL    HW111486   0.654   2.713   4.716 -0.5725 -0.2097  0.3243
 3249SOL    HW211487   0.752   2.827   4.733 -0.7296 -0.0112 -0.0787
 3250SOL     OW11488   1.159   7.251   0.739 -0.6186  0.1110 -0.0688
 3250SOL    HW111489   1.133   7.283   0.825  0.8619  0.7954  0.1576
 3250SOL    HW211490   1.077   7.240   0.691 -1.4371  0.0704  1.2974
 3251SOL     OW11491   6.469   4.369   6.407 -0.2279 -0.2880  0.3135
 3251SOL    HW111492   6.401   4.359   6.340 -1.2692 -1.2893  1.4560
 3251SOL    HW211493   6.507   4.282   6.415 -0.5565 -0.3441  1.4402
 3252SOL     OW11494   5.840   1.049   7.002 -0.0182 -0.7143 -0.0317
 3252SOL    HW111495   5.898   0.986   7.044 -0.4505 -1.4150 -0.4755
 3252SOL    HW211496   5.777   0.996   6.954 -0.8950  0.0441  0.2569
 3253SOL     OW11497   8.898   6.417   4.440 -0.0733  0.4736 -0.1889
 3253SOL    HW111498   8.829   6.428   4.506  1.7746  0.6270  1.8321
 3253SOL    HW211499   8.851   6.387   4.362 -2.1805 -1.7834  1.7559
 3254SOL     OW11500   3.681   8.323   8.819 -0.0481  0.1603 -0.1308
 3254SOL    HW111501   3.723   8.297   8.737 -0.7365 -0.8096 -0.2005
 3254SOL    HW211502   3.603   8.372   8.791 -2.5537 -3.4770 -0.3298
 3255SOL     OW11503   1.865   9.573   2.451  0.0670 -0.7051  0.2059
 3255SOL    HW111504   1.878   9.617   2.535 -0.3319 -0.2521  0.0340
 3255SOL    HW211505   1.776   9.538   2.455 -0.1132 -0.3014 -0.1982
 3256SOL     OW11506   2.556   4.393   0.740 -0.1617 -0.3049  0.3851
 3256SOL    HW111507   2.594   4.455   0.678  0.1607 -0.1640  0.7260
 3256SOL    HW211508   2.477   4.436   0.771 -2.2886 -1.7562 -2.5008
 3257SOL     OW11509   4.601   7.980   0.918  0.5071 -0.0947 -0.5331
 3257SOL    HW111510   4.603   8.054   0.980  0.4819 -1.2110  0.8580
 3257SOL    HW211511   4.592   8.021   0.832  3.5608  1.7040 -0.1380
 3258SOL     OW11512   8.597   0.744   4.672 -0.2724 -0.4694  0.2205
 3258SOL    HW111513   8.644   0.731   4.754  0.7485 -2.3427 -0.5770
 3258SOL    HW211514   8.659   0.715   4.605 -1.1506  0.8361 -1.2000
 3259SOL     OW11515   6.773   0.334   7.404 -0.7453 -0.1798 -0.5157
 3259SOL    HW111516   6.725   0.251   7.405  0.1602 -0.8410  3.1534
 3259SOL    HW211517   6.705   0.401   7.399 -1.9115 -1.1449  1.1297
 3260SOL     OW11518   2.746   0.277   5.949 -0.2545  0.0323  0.7128
 3260SOL    HW111519   2.683   0.309   5.884  0.2457  2.6215  1.3636
 3260SOL    HW211520   2.764   0.354   6.004  2.0784 -1.1012  1.6653
 3261SOL     OW11521   6.665   2.341   2.948 -0.1681 -1.0710 -0.2231
 3261SOL    HW111522   6.589   2.300   2.906 -0.6304 -1.7766  1.2049
 3261SOL    HW211523   6.688   2.280   3.018 -0.2514  0.6485  1.3661
 3262SOL     OW11524   8.962   6.576   6.125 -0.1042 -0.2809 -0.1407
 3262SOL    HW111525   8.922   6.499   6.087 -1.9028 -0.1723  1.3772
 3262SOL    HW211526   9.054   6.572   6.098 -0.6154 -1.7898 -1.8261
 3263SOL     OW11527   9.363   5.517   2.892 -0.0265 -0.4771  0.0414
 3263SOL    HW111528   9.354   5.612   2.900 -0.6507 -0.5436  0.1726
 3263SOL    HW211529   9.274   5.485   2.880  0.2877 -0.9341 -1.3218
 3264SOL     OW11530   1.368   3.072   0.878 -0.1966 -0.1136 -0.0743
 3264SOL    HW111531   1.358   3.149   0.821 -0.8690 -0.6939 -0.7714
 3264SOL    HW211532   1.462   3.061   0.887 -0.0551  1.7396  1.3707
 3265SOL     OW11533   6.429   1.805   0.484  0.0168  0.0036  0.0340
 3265SOL    HW111534   6.483   1.784   0.408 -0.5011  0.6965 -0.5413
 3265SOL    HW211535   6.468   1.884   0.520 -0.3788  0.3048 -0.1763
 3266SOL     OW11536   6.707   8.041   0.468 -0.5090  0.0903  0.3824
 3266SOL    HW111537   6.757   8.080   0.396 -0.5619 -0.5996 -0.0427
 3266SOL    HW211538   6.622   8.083   0.464 -0.2878  0.5508  0.4766
 3267SOL     OW11539   5.798   3.342   9.607  0.3634 -0.3728 -0.4669
 3267SOL    HW111540   5.752   3.282   9.548 -0.9391  0.5176 -0.4232
 3267SOL    HW211541   5.744   3.343   9.686  1.5397 -0.7821  0.3512
 3268SOL     OW11542   3.569   9.295   7.214  0.0490  0.2946 -0.1596
 3268SOL    HW111543   3.588   9.380   7.175 -0.7698  0.6718  0.2490
 3268SOL    HW211544   3.583   9.308   7.308 -1.3556  0.3453  0.0521
 3269SOL     OW11545   3.065   2.284   6.564 -0.1133  0.4925 -0.7158
 3269SOL    HW111546   3.083   2.233   6.643 -0.5756 -0.3168 -1.1125
 3269SOL    HW211547   3.137   2.262   6.505 -2.5115 -3.4115 -2.6227
 3270SOL     OW11548   5.200   7.758   7.868 -0.1176 -0.2782 -0.7791
 3270SOL    HW111549   5.121   7.766   7.922 -0.0610  0.3533 -0.7905
 3270SOL    HW211550   5.188   7.820   7.797 -1.9293 -3.6744 -3.7331
 3271SOL     OW11551   0.806   2.666   7.411 -0.5021 -0.1822 -0.6558
 3271SOL    HW111552   0.895   2.658   7.377 -0.1457  0.5652  0.0823
 3271SOL    HW211553   0.816   2.664   7.506 -1.2936 -0.2209 -0.5648
 3272SOL     OW11554   1.518   5.602   5.037  0.4055  0.0435  0.1612
 3272SOL    HW111555   1.428   5.611   5.070  0.0870  0.8700 -0.8818
 3272SOL    HW211556   1.564   5.553   5.105 -1.1749 -1.6205  0.1159
 3273SOL     OW11557   0.245   8.399   3.116  0.0018  0.0338 -0.1609
 3273SOL    HW111558   0.300   8.405   3.038  1.1368  0.2431  0.6276
 3273SOL    HW211559   0.290   8.452   3.181  1.1852 -3.0625  1.7945
 3274SOL     OW11560   3.356   2.979   5.149 -0.7085  0.4556 -0.1899
 3274SOL    HW111561   3.433   3.011   5.196  0.1024 -0.3324 -0.9523
 3274SOL    HW211562   3.352   2.886   5.170 -2.7641  0.8810  1.6220
 3275SOL     OW11563   8.210   9.250   4.960 -0.1118  0.0332 -0.3007
 3275SOL    HW111564   8.168   9.227   4.878  0.9623 -2.0534 -0.3372
 3275SOL    HW211565   8.146   9.228   5.027 -0.7131  1.0432 -0.5365
 3276SOL     OW11566   9.353   6.879   1.622 -0.0533 -0.1535  0.7624
 3276SOL    HW111567   9.392   6.929   1.549 -0.0002 -0.2950  0.6939
 3276SOL    HW211568   9.262   6.867   1.597 -0.1448  0.1900  0.9289
 3277SOL     OW11569   1.830   7.335   4.080 -0.5539  0.2883 -0.3902
 3277SOL    HW111570   1.849   7.353   4.172  1.2593  0.6074 -0.7748
 3277SOL    HW211571   1.857   7.244   4.068 -1.6466 -0.0412 -0.4120
 3278SOL     OW11572   5.731   6.852   2.313 -0.1944  0.4401 -0.1358
 3278SOL    HW111573   5.707   6.804   2.393  0.6497  1.5502  0.8228
 3278SOL    HW211574   5.685   6.806   2.243 -0.6276 -0.8247  0.9310
 3279SOL     OW11575   9.392   2.177   0.370  0.6178  0.1920  0.4436
 3279SOL    HW111576   9.442   2.103   0.403 -1.4746 -1.0380  1.0506
 3279SOL    HW211577   9.438   2.204   0.291  0.8414 -2.4921 -0.4455
 3280SOL     OW11578   5.582   2.744   6.782 -0.7002 -0.4856 -0.1194
 3280SOL    HW111579   5.607   2.828   6.822  0.0170 -0.5964 -0.3311
 3280SOL    HW211580   5.614   2.750   6.692 -2.3945 -0.1969 -0.7450
 3281SOL     OW11581   2.214   0.715   0.107 -0.0942  0.5691 -0.5429
 3281SOL    HW111582   2.267   0.689   0.182  1.4062  2.2221 -0.9397
 3281SOL    HW211583   2.215   0.811   0.109 -1.8568  0.6516 -1.4436
 3282SOL     OW11584   5.496   2.908   0.102 -0.4340 -0.1438 -0.6073
 3282SOL    HW111585   5.455   2.850   0.038  1.6201 -1.0739 -1.1633
 3282SOL    HW211586   5.456   2.994   0.086 -2.2834 -1.0176 -0.9238
 3283SOL     OW11587   5.043   6.042   8.462 -0.0830  0.7817  0.0439
 3283SOL    HW111588   5.076   6.111   8.519 -1.7655  0.1967  1.8293
 3283SOL    HW211589   5.039   5.964   8.518 -1.4646  0.0845 -0.9655
 3284SOL     OW11590   1.387   1.956   1.011  0.0406 -0.1752  0.4045
 3284SOL    HW111591   1.442   1.893   1.057 -0.2689 -2.2745 -1.9297
 3284SOL    HW211592   1.299   1.943   1.048 -0.1104 -1.4963 -0.3582
 3285SOL     OW11593   8.399   8.991   9.458  0.7346  0.1195 -0.0381
 3285SOL    HW111594   8.435   8.979   9.371  2.3760  0.8445  0.4943
 3285SOL    HW211595   8.474   9.017   9.512 -0.6084  1.8841  1.1229
 3286SOL     OW11596   5.715   3.103   4.195  0.1024  0.0474 -0.2499
 3286SOL    HW111597   5.657   3.031   4.222 -1.1504  0.8152 -0.8225
 3286SOL    HW211598   5.803   3.070   4.212 -0.5032 -0.5998  2.0857
 3287SOL     OW11599   5.788   0.467   9.335  0.1082  0.0128 -0.3363
 3287SOL    HW111600   5.795   0.384   9.383 -0.9656 -0.6041 -1.1910
 3287SOL    HW211601   5.696   0.490   9.342  0.3786  1.0766 -0.2260
 3288SOL     OW11602   1.030   8.693   6.564  0.1839 -0.4526 -0.1009
 3288SOL    HW111603   0.957   8.751   6.547 -1.1410 -1.8751  0.4689
 3288SOL    HW211604   0.993   8.605   6.556  2.6288 -1.3734 -3.3277
 3289SOL     OW11605   9.023   1.516   1.851  0.0646 -0.2069 -0.1513
 3289SOL    HW111606   9.095   1.460   1.879 -0.0720  0.9560  2.8823
 3289SOL    HW211607   8.945   1.474   1.887 -0.4889 -0.0651 -1.1542
 3290SOL     OW11608   9.062   9.548   7.754  0.0610 -0.6421 -0.1866
 3290SOL    HW111609   9.020   9.616   7.806  0.7634 -1.3120  1.2890
 3290SOL    HW211610   9.074   9.589   7.668 -0.0501  0.8984  0.4865
 3291SOL     OW11611   4.256   5.365   0.982  0.6274 -0.0648 -0.0415
 3291SOL    HW111612   4.298   5.445   1.013  0.2711  0.4628 -0.9157
 3291SOL    HW211613   4.235   5.317   1.062 -0.8363  1.5459  0.5889
 3292SOL     OW11614   5.935   8.868   6.406  0.1751  0.9538  0.2449
 3292SOL    HW111615   5.855   8.912   6.437  0.5251  1.3679  0.5643
 3292SOL    HW211616   5.909   8.828   6.323 -1.2916 -1.6571  1.8287
 3293SOL     OW11617   1.756   3.212   4.407  0.0973 -0.5483  0.1084
 3293SOL    HW111618   1.813   3.277   4.450  0.8032 -0.7987 -0.4416
 3293SOL    HW211619   1.814   3.164   4.348 -1.1956  1.2438 -2.8613
 3294SOL     OW11620   9.480   1.387   1.747  0.4081 -0.0993  0.0735
 3294SOL    HW111621   9.401   1.335   1.760  0.4033 -0.2002 -0.3312
 3294SOL    HW211622   9.541   1.327   1.703  0.0100  0.5533 -1.4231
 3295SOL     OW11623   3.209   3.356   7.373  0.1738  0.4579  0.2640
 3295SOL    HW111624   3.193   3.311   7.456  0.3064 -2.1960 -1.0675
 3295SOL    HW211625   3.131   3.338   7.320  1.2548 -0.2366 -1.1449
 3296SOL     OW11626   2.223   8.370   5.597  0.3637  0.5182 -0.6069
 3296SOL    HW111627   2.235   8.457   5.560  0.8599  0.8727  0.3370
 3296SOL    HW211628   2.243   8.381   5.690  0.0471 -0.5228 -0.4018
 3297SOL     OW11629   3.959   4.423   7.554  0.4423 -0.3602 -0.6989
 3297SOL    HW111630   3.933   4.515   7.546 -1.3514 -0.6840  0.8968
 3297SOL    HW211631   4.049   4.421   7.521  0.0776  1.7028 -2.0119
 3298SOL     OW11632   9.295   3.989   8.250  0.3329  0.9277  0.1299
 3298SOL    HW111633   9.328   4.004   8.161  0.0135 -1.3109 -0.4227
 3298SOL    HW211634   9.199   3.995   8.241  0.2949  0.5871  0.2883
 3299SOL     OW11635   5.653   5.126   3.726  0.0074  0.1883 -0.2034
 3299SOL    HW111636   5.574   5.169   3.761 -0.3033 -0.2479 -0.3614
 3299SOL    HW211637   5.621   5.045   3.688  0.7780 -0.9383  1.4360
 3300SOL     OW11638   6.707   5.229   1.750 -0.2617 -0.2012  0.2026
 3300SOL    HW111639   6.726   5.269   1.835  0.8939  1.9758 -0.9875
 3300SOL    HW211640   6.791   5.230   1.703 -1.1348 -0.1044 -1.4354
 3301SOL     OW11641   5.199   0.649   6.659  0.7556  0.2656  0.5371
 3301SOL    HW111642   5.112   0.630   6.693 -0.3836  0.7907 -1.9022
 3301SOL    HW211643   5.196   0.742   6.636  1.3169 -0.1169 -1.2414
 3302SOL     OW11644   0.392   0.816   7.915 -0.4126  0.0470 -0.1889
 3302SOL    HW111645   0.336   0.867   7.857 -1.0712 -2.3128 -1.7828
 3302SOL    HW211646   0.456   0.774   7.856  0.0463 -1.0093  1.0043
 3303SOL     OW11647   6.719   8.807   3.841  0.3825  0.0435 -0.4078
 3303SOL    HW111648   6.669   8.819   3.761  0.5315 -2.2641 -0.9164
 3303SOL    HW211649   6.653   8.790   3.908  0.2800  1.5745 -0.0953
 3304SOL     OW11650   9.080   1.616   6.630 -0.1481 -0.0602  0.6211
 3304SOL    HW111651   9.077   1.690   6.569  0.1452  2.4441  3.3937
 3304SOL    HW211652   8.988   1.597   6.649 -0.2155  0.0898  0.4534
 3305SOL     OW11653   0.965   8.804   0.704 -0.2392  0.1005 -0.3139
 3305SOL    HW111654   1.002   8.892   0.714  1.9735 -0.8829  0.9265
 3305SOL    HW211655   0.877   8.811   0.740 -0.0337  1.7547 -0.0315
 3306SOL     OW11656   0.783   0.862   0.820  0.1500 -0.0913  0.6102
 3306SOL    HW111657   0.749   0.931   0.763 -1.5116 -1.2399  0.1561
 3306SOL    HW211658   0.864   0.834   0.777  0.9090  1.5807  0.8477
 3307SOL     OW11659   4.986   4.297   5.232  0.3096  0.0526 -0.0278
 3307SOL    HW111660   4.972   4.343   5.150 -1.4676 -0.6807 -0.1836
 3307SOL    HW211661   5.064   4.338   5.270  0.9049  0.7011 -1.8428
 3308SOL     OW11662   6.113   2.616   6.569 -0.4675 -0.1680 -0.1749
 3308SOL    HW111663   6.093   2.578   6.483 -3.3051 -0.2561  0.4288
 3308SOL    HW211664   6.091   2.547   6.631  0.4166  0.3144  0.6973
 3309SOL     OW11665   0.042   4.120   3.956 -0.1535 -0.3148 -0.1553
 3309SOL    HW111666  -0.034   4.085   3.910  0.6562 -1.3354 -0.7691
 3309SOL    HW211667   0.042   4.075   4.041 -0.5541  0.1299  0.0877
 3310SOL     OW11668   1.296   4.684   2.347  0.7005  0.9132 -0.3928
 3310SOL    HW111669   1.374   4.668   2.294  0.7819  0.1761 -0.0684
 3310SOL    HW211670   1.258   4.597   2.360  0.6040  1.0971  0.6300
 3311SOL     OW11671   8.397   4.163   7.123 -0.1339 -0.6435 -0.2744
 3311SOL    HW111672   8.320   4.146   7.179 -0.8010  0.6491 -0.7687
 3311SOL    HW211673   8.467   4.113   7.164 -0.7002 -0.0566  1.5074
 3312SOL     OW11674   1.720   8.606   1.488  0.2353 -0.0208 -0.3721
 3312SOL    HW111675   1.687   8.695   1.498 -0.0722 -0.0196 -1.3346
 3312SOL    HW211676   1.777   8.593   1.564  2.4785  1.9449 -1.5933
 3313SOL     OW11677   7.836   7.964   1.448 -0.0863  0.0356  0.6293
 3313SOL    HW111678   7.769   7.943   1.383  1.8057 -0.5502 -1.2623
 3313SOL    HW211679   7.794   7.947   1.532 -1.6650 -2.3003 -0.5185
 3314SOL     OW11680   6.538   4.700   2.248 -0.3082  0.0387  0.2105
 3314SOL    HW111681   6.513   4.649   2.324 -0.6465 -0.5140 -0.2610
 3314SOL    HW211682   6.634   4.702   2.251 -0.3326  0.4269  0.9032
 3315SOL     OW11683   6.819   5.493   3.986  0.0911 -0.5902 -0.2432
 3315SOL    HW111684   6.763   5.519   3.913 -0.4301 -0.5515  0.1696
 3315SOL    HW211685   6.770   5.425   4.031 -0.2752  0.4457  0.9673
 3316SOL     OW11686   2.800   7.770   2.257 -0.0174  0.1687  0.2879
 3316SOL    HW111687   2.771   7.753   2.347  1.0524  0.3173  0.6869
 3316SOL    HW211688   2.876   7.827   2.268 -1.0625  1.8504 -0.8176
 3317SOL     OW11689   7.088   0.080   7.919  0.4303  0.3082  0.4634
 3317SOL    HW111690   7.027   0.138   7.873 -0.6481  0.0674  1.5387
 3317SOL    HW211691   7.130   0.029   7.850 -0.7150  0.3773 -0.3024
 3318SOL     OW11692   7.886   9.274   5.799  0.0700 -0.6213 -0.1762
 3318SOL    HW111693   7.934   9.351   5.832  0.6242 -1.1684  0.3192
 3318SOL    HW211694   7.830   9.249   5.872 -1.2683  0.2244 -0.8695
 3319SOL     OW11695   8.280   8.814   6.479  0.3468  0.6028 -1.2233
 3319SOL    HW111696   8.244   8.765   6.404  1.3304  0.0312 -1.3303
 3319SOL    HW211697   8.276   8.752   6.552  1.7483  0.2820 -1.3965
 3320SOL     OW11698   1.656   2.156   6.086 -0.3852 -0.2451 -0.2286
 3320SOL    HW111699   1.740   2.168   6.041  0.5876  0.3923  1.6758
 3320SOL    HW211700   1.616   2.243   6.085  0.4599  0.2143  1.6204
 3321SOL     OW11701   4.197   5.863   1.338 -0.5748 -0.1875  0.3087
 3321SOL    HW111702   4.151   5.796   1.288 -0.7482 -0.3646  0.7010
 3321SOL    HW211703   4.151   5.945   1.317  0.5730  0.0871 -1.3708
 3322SOL     OW11704   3.657   9.513   2.305 -0.2792  0.4868 -0.2862
 3322SOL    HW111705   3.592   9.453   2.340  0.3856  2.2855  5.1889
 3322SOL    HW211706   3.608   9.593   2.284 -0.3721  0.2595 -0.9469
 3323SOL     OW11707   9.314   5.177   1.895  0.1682 -0.2243 -0.2207
 3323SOL    HW111708   9.306   5.086   1.867 -0.0297 -1.4255  3.2263
 3323SOL    HW211709   9.230   5.196   1.937  0.8118  0.9505  0.5976
 3324SOL     OW11710   3.816   1.941   0.778  0.2653  0.0706  0.3047
 3324SOL    HW111711   3.731   1.918   0.817 -0.6369  1.8552 -0.4839
 3324SOL    HW211712   3.814   1.899   0.692  0.2716 -0.0523  0.3638
 3325SOL     OW11713   0.048   0.811   2.548  1.0531 -0.3890 -0.2930
 3325SOL    HW111714  -0.025   0.862   2.515  0.7151  0.7212  1.9609
 3325SOL    HW211715   0.031   0.722   2.520  0.0070  0.2218 -1.6694
 3326SOL     OW11716   2.015   5.986   5.899 -0.4707 -0.0924 -0.4626
 3326SOL    HW111717   1.950   6.056   5.899  0.3352  0.6907  0.7506
 3326SOL    HW211718   2.097   6.029   5.923  0.3949 -1.1653 -1.3470
 3327SOL     OW11719   2.134   6.252   3.421 -0.3896 -0.1157 -0.3215
 3327SOL    HW111720   2.090   6.307   3.356 -0.3626 -1.4080 -1.4693
 3327SOL    HW211721   2.090   6.167   3.416  0.1170 -0.4774  0.8297
 3328SOL     OW11722   1.149   1.110   2.149 -0.0398  0.1698 -0.2788
 3328SOL    HW111723   1.060   1.144   2.152 -1.0978 -2.3389 -1.3147
 3328SOL    HW211724   1.156   1.056   2.228  0.0123 -0.8529 -0.9689
 3329SOL     OW11725   7.888   2.447   2.208 -0.3753 -0.5389  0.3044
 3329SOL    HW111726   7.864   2.494   2.288  1.3199 -1.5495  1.4749
 3329SOL    HW211727   7.827   2.479   2.142  0.4672  3.0460  1.0656
 3330SOL     OW11728   8.849   8.569   9.513 -0.2270  0.6398  0.1571
 3330SOL    HW111729   8.764   8.547   9.550 -0.2472  1.9991  1.0310
 3330SOL    HW211730   8.893   8.485   9.500 -1.7017 -0.0830 -0.3531
 3331SOL     OW11731   7.316   5.823   3.417  0.5661 -0.2204  0.4396
 3331SOL    HW111732   7.252   5.790   3.354 -0.6753  0.9391  1.0419
 3331SOL    HW211733   7.296   5.916   3.426  2.3282  0.1688  0.6937
 3332SOL     OW11734   2.518   8.799   0.422 -0.6977 -0.3007 -0.2081
 3332SOL    HW111735   2.515   8.891   0.448  0.4946  0.1701 -1.5873
 3332SOL    HW211736   2.487   8.800   0.331 -1.9179 -1.4627  0.1728
 3333SOL     OW11737   2.459   7.037   4.495 -0.0810 -0.0839 -0.1854
 3333SOL    HW111738   2.516   6.960   4.504 -1.0508 -0.9144 -0.9001
 3333SOL    HW211739   2.427   7.053   4.584  0.7212 -0.0233  0.1030
 3334SOL     OW11740   7.834   0.762   8.890  0.3719 -0.6445 -0.0217
 3334SOL    HW111741   7.786   0.808   8.958 -0.5151  0.4513 -1.3439
 3334SOL    HW211742   7.891   0.702   8.938  1.5685  1.7649  1.8194
 3335SOL     OW11743   7.834   6.358   0.260  0.0741 -0.1804  0.3547
 3335SOL    HW111744   7.793   6.300   0.196 -1.2700  0.4709  0.5849
 3335SOL    HW211745   7.907   6.398   0.213 -0.6551 -0.0078 -0.6655
 3336SOL     OW11746   1.363   8.583   8.372 -0.2412  0.6418  0.2268
 3336SOL    HW111747   1.364   8.488   8.367  0.4407  0.6810 -0.6549
 3336SOL    HW211748   1.272   8.606   8.388 -0.5231 -0.1322 -0.2227
 3337SOL     OW11749   7.536   7.192   7.852 -0.3240  0.2372  0.6440
 3337SOL    HW111750   7.461   7.239   7.815 -0.6888 -1.0344 -0.3134
 3337SOL    HW211751   7.500   7.146   7.928 -0.4334 -0.0808  0.4008
 3338SOL     OW11752   1.654   7.501   2.689 -0.0601 -0.0308 -0.3668
 3338SOL    HW111753   1.702   7.420   2.673  1.8677  0.7551  1.1362
 3338SOL    HW211754   1.718   7.570   2.677 -0.9564  1.1089  1.0642
 3339SOL     OW11755   8.476   7.658   0.490 -0.0857  0.4662  0.0924
 3339SOL    HW111756   8.502   7.725   0.427  0.4328  1.6179  1.4671
 3339SOL    HW211757   8.393   7.624   0.456 -0.7020  2.2750 -0.3107
 3340SOL     OW11758   3.438   1.557   1.867 -0.0179 -0.4143 -0.5481
 3340SOL    HW111759   3.401   1.605   1.793  1.2449 -1.5587 -1.9957
 3340SOL    HW211760   3.383   1.479   1.875  0.1607 -0.5512 -0.6390
 3341SOL     OW11761   5.404   5.409   0.063 -0.4533  0.6501 -0.2890
 3341SOL    HW111762   5.400   5.467  -0.013  1.1243  0.7336 -0.3331
 3341SOL    HW211763   5.486   5.362   0.053 -0.9505 -0.4495  0.5868
 3342SOL     OW11764   4.354   2.059   3.171 -0.1063  0.0986 -0.1067
 3342SOL    HW111765   4.391   1.972   3.155  2.5846  0.9326  0.9978
 3342SOL    HW211766   4.363   2.072   3.265 -1.3540  1.2463 -0.1181
 3343SOL     OW11767   6.205   0.159   6.829  0.3000  0.0077  0.4685
 3343SOL    HW111768   6.253   0.219   6.772 -1.0220  0.0606 -0.6285
 3343SOL    HW211769   6.260   0.080   6.832  1.9479  1.1118  1.7477
 3344SOL     OW11770   4.831   2.805   7.012 -0.2291 -0.5920 -0.1018
 3344SOL    HW111771   4.800   2.745   6.943 -1.2745  1.2414 -1.3115
 3344SOL    HW211772   4.757   2.812   7.072 -0.8892  0.9701 -1.0401
 3345SOL     OW11773   2.529   4.246   5.763  0.4418 -0.1447  0.0681
 3345SOL    HW111774   2.499   4.287   5.682 -1.0279 -1.0068  0.1359
 3345SOL    HW211775   2.605   4.194   5.737 -0.7025 -1.3757 -1.0683
 3346SOL     OW11776   5.523   5.149   5.485  0.3603  0.1461  0.4551
 3346SOL    HW111777   5.521   5.181   5.576 -0.3781 -0.7650  0.7723
 3346SOL    HW211778   5.535   5.229   5.433 -1.1279  0.9402  1.2409
 3347SOL     OW11779   2.748   6.908   2.072 -0.0449  0.1706 -0.5857
 3347SOL    HW111780   2.791   6.941   1.993  0.9100 -0.7814 -0.4845
 3347SOL    HW211781   2.766   6.814   2.072 -0.6629  0.0392  0.3821
 3348SOL     OW11782   0.556   2.764   8.167  0.1776 -0.1709  0.3110
 3348SOL    HW111783   0.464   2.791   8.168 -0.2649 -1.5936 -0.2560
 3348SOL    HW211784   0.559   2.685   8.220  0.6681 -1.2978 -1.3036
 3349SOL     OW11785   4.441   2.719   8.784  0.1111  0.4332  0.5158
 3349SOL    HW111786   4.406   2.795   8.829 -1.5466  0.8557 -1.3401
 3349SOL    HW211787   4.390   2.645   8.818 -0.0564  0.5314  0.4813
 3350SOL     OW11788   2.551   8.824   1.528 -0.5567  0.1925  0.0897
 3350SOL    HW111789   2.519   8.810   1.617 -2.3319 -1.1916 -0.7077
 3350SOL    HW211790   2.596   8.909   1.532 -1.5813  0.7046  2.0311
 3351SOL     OW11791   5.175   5.214   1.542  0.1517 -0.2547 -0.0996
 3351SOL    HW111792   5.110   5.233   1.474  2.2791 -0.9937 -2.5139
 3351SOL    HW211793   5.178   5.294   1.595  0.6565  1.7333 -2.8914
 3352SOL     OW11794   5.488   5.414   5.418 -0.3287  0.3572  0.1813
 3352SOL    HW111795   5.399   5.442   5.435 -0.1981 -0.7134  3.1481
 3352SOL    HW211796   5.541   5.493   5.427 -0.6077  0.3483  2.4413
 3353SOL     OW11797   8.875   8.757   1.977  0.0301  0.7343 -0.1268
 3353SOL    HW111798   8.842   8.674   1.944  0.9118  0.7136 -1.0138
 3353SOL    HW211799   8.966   8.760   1.947  0.0591  1.9412  0.0356
 3354SOL     OW11800   9.161   8.029   9.376 -0.5061  0.2742 -0.0015
 3354SOL    HW111801   9.071   7.996   9.374 -0.7090  0.7953  0.4760
 3354SOL    HW211802   9.152   8.123   9.390  0.1485  0.1390  1.4675
 3355SOL     OW11803   2.447   1.468   4.299 -0.2498  0.2986  0.1002
 3355SOL    HW111804   2.540   1.481   4.321  1.5205  0.5274 -5.8699
 3355SOL    HW211805   2.432   1.375   4.318  1.5995 -0.0573  0.0997
 3356SOL     OW11806   6.487   6.509   0.710 -0.2372 -0.1325  0.4163
 3356SOL    HW111807   6.503   6.424   0.670  1.4935  0.1289  0.4747
 3356SOL    HW211808   6.539   6.508   0.790  1.2711  1.6121 -0.4786
 3357SOL     OW11809   6.769   6.568   5.237  0.2127  0.0996  0.1674
 3357SOL    HW111810   6.812   6.510   5.301  0.9737  0.1465 -0.2879
 3357SOL    HW211811   6.818   6.650   5.244 -1.1652  0.8730  1.1587
 3358SOL     OW11812   9.082   4.531   3.712 -0.0735 -0.1754 -0.1391
 3358SOL    HW111813   9.081   4.453   3.657 -1.2603  0.0657 -0.4956
 3358SOL    HW211814   8.995   4.570   3.701  0.0576  0.5140  1.0064
 3359SOL     OW11815   2.990   7.015   6.284  0.2156 -0.0702  0.0819
 3359SOL    HW111816   3.014   6.922   6.281  1.2283  0.1177  1.4242
 3359SOL    HW211817   2.897   7.016   6.260  0.3273 -1.3671 -0.4827
 3360SOL     OW11818   1.665   6.183   4.878 -0.5859 -0.0849  0.5424
 3360SOL    HW111819   1.681   6.190   4.972  0.4318  2.6076  0.2688
 3360SOL    HW211820   1.730   6.119   4.848  0.5098  0.5780  1.4048
 3361SOL     OW11821   6.695   2.830   2.126 -0.2659  0.0739 -0.0639
 3361SOL    HW111822   6.765   2.858   2.068  0.0863  0.6655  0.6440
 3361SOL    HW211823   6.618   2.878   2.095 -0.3264 -0.4369 -0.7233
 3362SOL     OW11824   4.336   0.931   9.100  0.1865 -0.2352  0.0636
 3362SOL    HW111825   4.367   0.900   9.185 -0.2030 -0.5598  0.0854
 3362SOL    HW211826   4.288   0.857   9.063  1.2064 -0.4389 -0.8795
 3363SOL     OW11827   9.511   4.477   3.594 -0.0328  0.3394 -0.0058
 3363SOL    HW111828   9.456   4.401   3.572  0.6101 -1.1370  2.8447
 3363SOL    HW211829   9.452   4.536   3.641  0.2572 -0.2125  1.0946
 3364SOL     OW11830   1.767   8.074   3.754 -0.0012 -0.5170  0.7522
 3364SOL    HW111831   1.853   8.074   3.713 -0.0974  0.1284  0.5381
 3364SOL    HW211832   1.734   8.163   3.741 -1.5253 -1.2534 -0.9077
 3365SOL     OW11833   4.102   0.372   0.531  0.1202 -0.0792  0.0765
 3365SOL    HW111834   4.069   0.460   0.512 -2.9875 -1.1939 -0.2506
 3365SOL    HW211835   4.028   0.327   0.571  1.4186 -2.7351 -0.3144
 3366SOL     OW11836   2.163   2.088   0.410 -0.2270  0.1312 -0.1640
 3366SOL    HW111837   2.090   2.142   0.441 -1.6616 -1.4940 -0.5583
 3366SOL    HW211838   2.145   2.074   0.317  0.8226  0.0270 -0.3654
 3367SOL     OW11839   1.104   1.651   8.710  0.0879 -0.0876 -0.3100
 3367SOL    HW111840   1.111   1.693   8.795 -2.5780  0.0070 -0.0279
 3367SOL    HW211841   1.166   1.578   8.713 -0.1875 -0.2915  1.8756
 3368SOL     OW11842   9.075   1.923   2.279  0.3829  0.0001 -0.5934
 3368SOL    HW111843   9.075   1.968   2.363  0.4307 -2.2070  0.6662
 3368SOL    HW211844   9.131   1.977   2.223  0.4827  1.4406  0.8288
 3369SOL     OW11845   8.664   4.474   2.701 -0.1677  0.1140  0.2920
 3369SOL    HW111846   8.693   4.561   2.729  0.8488 -0.2117  0.2662
 3369SOL    HW211847   8.736   4.416   2.723 -1.1356 -0.8651  1.0009
 3370SOL     OW11848   8.110   2.049   2.794 -0.3707 -0.3090  0.5218
 3370SOL    HW111849   8.079   2.010   2.712 -1.1264  0.9884  0.1548
 3370SOL    HW211850   8.068   2.135   2.796 -2.2930 -1.1592  3.4111
 3371SOL     OW11851   0.318   0.579   1.047 -0.5564  0.3228  0.0119
 3371SOL    HW111852   0.363   0.500   1.079 -2.2751 -0.6018  0.2545
 3371SOL    HW211853   0.363   0.651   1.091  0.7766 -0.5277  0.1186
 3372SOL     OW11854   8.642   3.006   1.589  0.0278 -0.4839  0.4897
 3372SOL    HW111855   8.662   2.912   1.597 -0.5026 -0.6723 -0.2696
 3372SOL    HW211856   8.554   3.014   1.625 -0.4985 -0.5363 -0.7345
 3373SOL     OW11857   9.004   4.806   3.805 -0.2551 -0.6701 -0.2708
 3373SOL    HW111858   9.087   4.795   3.852  0.1699 -1.6844 -1.2068
 3373SOL    HW211859   8.980   4.898   3.820  1.8153  0.1001 -1.1782
 3374SOL     OW11860   3.247   6.839   0.150  0.2419 -0.1899 -0.4567
 3374SOL    HW111861   3.226   6.931   0.170  1.7655  0.5498 -2.0702
 3374SOL    HW211862   3.302   6.811   0.223  2.4437  1.2372 -1.4809
 3375SOL     OW11863   0.358   2.191   3.632  0.6971  0.3885 -0.1797
 3375SOL    HW111864   0.401   2.170   3.550  1.0567 -1.7593  0.4940
 3375SOL    HW211865   0.283   2.132   3.636  1.6971 -0.8651  1.7990
 3376SOL     OW11866   7.214   8.633   4.897  0.0450 -0.4440  0.1332
 3376SOL    HW111867   7.261   8.705   4.854 -1.0722  0.2829  0.1024
 3376SOL    HW211868   7.167   8.589   4.826 -1.8453  0.7886  0.5472
 3377SOL     OW11869   7.317   3.247   7.003 -0.0343  0.5401 -0.0707
 3377SOL    HW111870   7.335   3.156   6.980  1.2498  0.9150 -0.6212
 3377SOL    HW211871   7.398   3.293   6.985 -0.5718  1.7563  0.4899
 3378SOL     OW11872   5.593   1.776   6.854  0.2033  0.5301  0.6392
 3378SOL    HW111873   5.652   1.747   6.924 -0.0239 -0.8862  0.2694
 3378SOL    HW211874   5.643   1.763   6.773  0.9140  3.2497  0.5300
 3379SOL     OW11875   1.219   2.993   7.001 -0.6478 -0.3570  0.4619
 3379SOL    HW111876   1.171   2.910   7.000  0.4626 -1.0228  0.7833
 3379SOL    HW211877   1.277   2.987   7.077 -0.6558  0.7866  0.5843
 3380SOL     OW11878   5.300   8.203   4.750  0.0231 -0.3162 -0.2136
 3380SOL    HW111879   5.370   8.200   4.685  0.8252  1.4144  0.5048
 3380SOL    HW211880   5.236   8.265   4.713  0.6223  0.9110  0.7217
 3381SOL     OW11881   3.141   9.337   4.095  0.3609  0.4783 -0.0960
 3381SOL    HW111882   3.055   9.359   4.130  0.2645 -1.9853  1.5387
 3381SOL    HW211883   3.192   9.311   4.172  1.1847 -2.1494 -1.3799
 3382SOL     OW11884   9.559   3.483   6.803  0.0405 -0.3694 -0.8368
 3382SOL    HW111885   9.469   3.459   6.822 -0.1931  0.2642 -1.1087
 3382SOL    HW211886   9.586   3.426   6.731  0.6329 -2.1620  0.7209
 3383SOL     OW11887   9.293   4.928   1.059  0.1119  0.3776  0.2135
 3383SOL    HW111888   9.213   4.920   1.112 -0.0035 -1.4455 -0.1768
 3383SOL    HW211889   9.355   4.972   1.116 -0.3243 -0.6546  1.5377
 3384SOL     OW11890   4.756   9.173   5.493  0.2189  0.9814  0.3720
 3384SOL    HW111891   4.703   9.108   5.540  0.8748  0.9691  1.1290
 3384SOL    HW211892   4.693   9.236   5.459 -0.4877 -0.3471 -0.8769
 3385SOL     OW11893   2.694   2.409   0.012  0.6796  0.7020 -0.2198
 3385SOL    HW111894   2.634   2.337  -0.007  1.4759  0.1353 -0.6302
 3385SOL    HW211895   2.739   2.382   0.092  0.1284  1.3002  0.3031
 3386SOL     OW11896   9.156   3.852   6.581  0.2796  0.0413 -0.3120
 3386SOL    HW111897   9.235   3.816   6.542 -0.3070 -0.9883 -0.5993
 3386SOL    HW211898   9.120   3.910   6.514 -0.9666 -2.0600 -1.5777
 3387SOL     OW11899   8.799   4.069   6.415 -0.0872  0.0240  0.5443
 3387SOL    HW111900   8.819   4.154   6.377 -0.8684 -0.2477 -0.5489
 3387SOL    HW211901   8.734   4.031   6.355  0.1766 -1.2971  1.0571
 3388SOL     OW11902   3.868   8.306   2.863  0.4974  0.3386  0.7568
 3388SOL    HW111903   3.947   8.282   2.815 -0.4378 -4.1032  1.0524
 3388SOL    HW211904   3.810   8.344   2.797  0.8807 -1.5155 -0.7185
 3389SOL     OW11905   8.177   9.322   0.819 -0.1682  0.9054 -0.0961
 3389SOL    HW111906   8.097   9.369   0.796  0.8329  2.4837 -0.5110
 3389SOL    HW211907   8.238   9.390   0.847  1.3450 -0.1348 -0.7131
 3390SOL     OW11908   7.504   9.430   1.341 -0.1314  0.1081  0.0868
 3390SOL    HW111909   7.499   9.461   1.251  1.6562 -0.0321 -0.1004
 3390SOL    HW211910   7.431   9.369   1.350 -1.9111  2.0498 -0.4381
 3391SOL     OW11911   6.726   5.948   1.835  0.0185 -0.2312  0.1570
 3391SOL    HW111912   6.808   5.898   1.834 -0.1565 -0.5944  1.3902
 3391SOL    HW211913   6.664   5.891   1.879 -0.9778 -0.0442 -0.9631
 3392SOL     OW11914   7.079   0.090   5.393 -0.3768  0.7697 -0.5523
 3392SOL    HW111915   7.033   0.098   5.310 -2.4122  0.1879  0.4577
 3392SOL    HW211916   7.040   0.013   5.435 -1.2408  2.4576  1.9983
 3393SOL     OW11917   9.057   8.913   1.449  0.1430 -0.6245  0.1383
 3393SOL    HW111918   9.019   8.879   1.530 -0.0121  1.1527  0.8552
 3393SOL    HW211919   9.087   8.835   1.403  0.6028 -1.6753  2.0843
 3394SOL     OW11920   0.685   3.514   1.010  0.4406 -0.2101 -0.4281
 3394SOL    HW111921   0.644   3.508   1.096 -0.0611 -1.5447 -0.7392
 3394SOL    HW211922   0.772   3.551   1.027 -0.3941  1.4855  0.3806
 3395SOL     OW11923   3.093   0.091   8.180 -0.2157 -0.5329  0.3589
 3395SOL    HW111924   3.136   0.163   8.133 -0.0112  1.2654  3.0753
 3395SOL    HW211925   3.159   0.061   8.242 -0.9168 -1.8842  0.4714
 3396SOL     OW11926   9.505   2.621   7.064 -0.0139  0.8856 -0.0634
 3396SOL    HW111927   9.482   2.691   7.125  1.0383 -0.2599  1.7504
 3396SOL    HW211928   9.562   2.563   7.115 -1.8186 -1.9535 -1.0914
 3397SOL     OW11929   1.721   1.415   9.046  0.3070  0.3065  0.1407
 3397SOL    HW111930   1.808   1.452   9.059  0.5046 -0.3438  0.6650
 3397SOL    HW211931   1.684   1.409   9.134 -1.5277  3.5662 -0.2472
 3398SOL     OW11932   5.320   0.563   4.901  0.1173 -0.4604  0.1906
 3398SOL    HW111933   5.295   0.649   4.866 -0.1107 -0.7209 -0.2968
 3398SOL    HW211934   5.309   0.571   4.995  0.8908  0.3102  0.2302
 3399SOL     OW11935   7.959   8.951   4.901  0.2353 -0.5243  0.2498
 3399SOL    HW111936   7.918   8.885   4.845 -1.3938  1.7547 -1.4231
 3399SOL    HW211937   7.888   9.011   4.923  2.2522  2.8984 -1.6839
 3400SOL     OW11938   8.429   6.302   5.612 -0.2541  0.3725 -0.1139
 3400SOL    HW111939   8.487   6.355   5.667  1.4667 -1.2856 -0.2055
 3400SOL    HW211940   8.425   6.349   5.529 -0.5941  1.4644  0.4929
 3401SOL     OW11941   5.739   0.504   1.071  0.1636 -0.3223 -0.1089
 3401SOL    HW111942   5.760   0.457   1.151  0.5016  1.5555  0.9473
 3401SOL    HW211943   5.753   0.596   1.092 -0.5420  0.2899 -2.0798
 3402SOL     OW11944   6.635   8.938   4.760  0.2780  0.2480 -0.0431
 3402SOL    HW111945   6.695   9.010   4.740 -0.2338  1.2949  1.9183
 3402SOL    HW211946   6.549   8.979   4.761  0.0417 -0.2199  1.7477
 3403SOL     OW11947   7.255   0.344   8.968 -0.0453  0.0686  0.1335
 3403SOL    HW111948   7.255   0.401   9.045  1.0245  0.2765  0.0020
 3403SOL    HW211949   7.313   0.271   8.993 -0.7550 -0.5468  0.0044
 3404SOL     OW11950   9.158   8.792   7.683 -0.3231  0.0917  0.5813
 3404SOL    HW111951   9.158   8.867   7.743 -0.1609  0.3284  0.2909
 3404SOL    HW211952   9.232   8.808   7.625 -1.5210  0.7701 -0.8065
 3405SOL     OW11953   0.717   0.848   2.872 -0.0339 -0.1664 -0.1905
 3405SOL    HW111954   0.656   0.892   2.813 -1.4730 -1.2988  0.3873
 3405SOL    HW211955   0.698   0.755   2.861  0.9188 -0.4946  0.7376
 3406SOL     OW11956   1.727   0.377   2.127 -0.0813 -0.1909 -0.0640
 3406SOL    HW111957   1.644   0.334   2.108 -0.0076  0.7105 -2.7652
 3406SOL    HW211958   1.788   0.305   2.141 -0.8556 -0.8946 -0.2013
 3407SOL     OW11959   8.330   4.391   7.709 -0.3262 -0.2284 -0.4016
 3407SOL    HW111960   8.267   4.333   7.751  0.5827 -0.1607  1.1308
 3407SOL    HW211961   8.309   4.478   7.744  1.4363 -0.3970  1.2409
 3408SOL     OW11962   0.245   0.067   4.455 -0.2771 -0.7130  0.0749
 3408SOL    HW111963   0.304   0.076   4.530 -0.6427 -0.4837  0.3425
 3408SOL    HW211964   0.192   0.147   4.456 -1.8261 -1.6842  0.9412
 3409SOL     OW11965   8.464   5.880   6.978 -0.1808  0.5209  0.4459
 3409SOL    HW111966   8.552   5.841   6.980 -0.7554 -0.8380  0.8481
 3409SOL    HW211967   8.466   5.946   7.047  1.0746  1.8393 -0.7815
 3410SOL     OW11968   2.168   9.605   8.205  0.0001  0.0082 -0.9591
 3410SOL    HW111969   2.119   9.631   8.282  1.4600  0.1745 -0.0565
 3410SOL    HW211970   2.207   9.521   8.228  0.7010  0.2018 -1.3912
 3411SOL     OW11971   3.536   0.470   4.884  0.3962  0.1871 -0.5720
 3411SOL    HW111972   3.485   0.426   4.816  1.1274 -1.2233 -0.2609
 3411SOL    HW211973   3.524   0.563   4.867 -0.6756 -0.1273 -1.6871
 3412SOL     OW11974   0.085   9.457   4.445 -0.3063 -0.7823 -0.2169
 3412SOL    HW111975   0.136   9.531   4.477 -1.0751 -0.3817  0.0978
 3412SOL    HW211976   0.135   9.380   4.473 -0.1234 -0.4061  0.5265
 3413SOL     OW11977   5.399   6.220   6.570  0.0302  0.4569  1.2269
 3413SOL    HW111978   5.362   6.308   6.562  3.5055  1.9463 -1.7828
 3413SOL    HW211979   5.460   6.227   6.643  0.3922  0.6318  0.9145
 3414SOL     OW11980   2.066   7.282   8.115 -0.2478 -0.0264 -0.0923
 3414SOL    HW111981   1.993   7.336   8.143 -0.4024  0.3215 -1.1076
 3414SOL    HW211982   2.135   7.299   8.179 -1.0543 -0.3794  0.8881
 3415SOL     OW11983   6.535   8.620   6.228  0.2552  0.4736  0.5799
 3415SOL    HW111984   6.542   8.527   6.208  2.1406  0.9208 -1.1395
 3415SOL    HW211985   6.446   8.644   6.204  0.3876 -0.4739 -0.9416
 3416SOL     OW11986   9.091   7.292   4.389 -0.3817  0.4191  0.0388
 3416SOL    HW111987   9.143   7.285   4.470 -0.6928 -1.9773  0.0938
 3416SOL    HW211988   9.000   7.298   4.419 -0.4474  0.3236 -0.1423
 3417SOL     OW11989   4.671   5.588   4.339 -0.4764  0.3308 -0.6388
 3417SOL    HW111990   4.709   5.610   4.254 -0.0795  1.7548 -0.1188
 3417SOL    HW211991   4.695   5.661   4.396 -0.1456 -0.9173  0.8917
 3418SOL     OW11992   1.029   8.623   8.170 -0.2542 -0.2670  0.4099
 3418SOL    HW111993   1.102   8.563   8.157  1.1197  0.9434  2.0835
 3418SOL    HW211994   0.953   8.566   8.183  0.0560 -1.5430 -2.5926
 3419SOL     OW11995   0.496   9.200   2.200  0.4651 -0.3378 -0.2414
 3419SOL    HW111996   0.463   9.126   2.251  0.6126  0.2548  0.7360
 3419SOL    HW211997   0.581   9.221   2.240  1.5838 -1.1644 -2.0509
 3420SOL     OW11998   7.834   0.202   7.353  0.0020 -0.1010  0.2230
 3420SOL    HW111999   7.781   0.126   7.330  0.3253 -0.1849 -0.2755
 3420SOL    HW212000   7.829   0.259   7.276 -1.1896  0.9433  1.0305
 3421SOL     OW12001   2.759   3.583   5.848 -0.5830  0.8327 -0.1799
 3421SOL    HW112002   2.697   3.611   5.915  0.8613  1.8989  0.7777
 3421SOL    HW212003   2.812   3.516   5.891 -1.1976 -0.2653 -1.0755
 3422SOL     OW12004   3.477   6.089   1.261 -0.0362  0.1468 -0.1708
 3422SOL    HW112005   3.465   6.133   1.345  0.2668 -0.7928  0.3774
 3422SOL    HW212006   3.533   6.014   1.280 -1.5878 -1.2579 -0.8120
 3423SOL     OW12007   9.467   8.536   9.380 -0.3041 -0.3687  0.8783
 3423SOL    HW112008   9.534   8.471   9.403  1.6106  1.9211  2.2314
 3423SOL    HW212009   9.479   8.550   9.286  0.5200 -0.6511  0.9348
 3424SOL     OW12010   4.920   5.541   3.431  0.2487  0.1216 -0.7629
 3424SOL    HW112011   4.982   5.482   3.389 -0.1557  0.0877 -1.3130
 3424SOL    HW212012   4.857   5.483   3.474 -0.2934  0.1499 -1.5161
 3425SOL     OW12013   7.395   6.211   4.545  0.0832  0.0641  0.2144
 3425SOL    HW112014   7.347   6.272   4.602  0.7423  0.5354  0.2741
 3425SOL    HW212015   7.393   6.253   4.459 -1.8821 -1.1743 -0.4065
 3426SOL     OW12016   7.087   5.936   7.663  0.5175 -0.5652  0.1887
 3426SOL    HW112017   7.026   5.984   7.608  1.8280  0.5652 -0.3286
 3426SOL    HW212018   7.117   5.863   7.608 -0.0856 -0.9305  0.3298
 3427SOL     OW12019   3.422   9.361   2.039 -0.0729  0.3618 -0.0824
 3427SOL    HW112020   3.336   9.341   2.001 -0.1461 -0.3664  0.4517
 3427SOL    HW212021   3.444   9.284   2.092  1.9268 -0.4284 -1.9283
 3428SOL     OW12022   4.958   2.282   5.751 -0.0348  0.0414  0.5604
 3428SOL    HW112023   4.938   2.189   5.760 -0.4635 -0.0968 -1.4307
 3428SOL    HW212024   4.940   2.302   5.660  1.0008  1.8667  0.7038
 3429SOL     OW12025   5.288   4.857   1.868 -0.0145  0.0286 -0.0914
 3429SOL    HW112026   5.371   4.829   1.905  0.2813 -0.6673 -1.2183
 3429SOL    HW212027   5.313   4.909   1.791 -0.6096  0.7302  0.1833
 3430SOL     OW12028   4.775   2.367   3.060  0.2312  0.0645  0.0636
 3430SOL    HW112029   4.721   2.406   2.992 -1.2863 -1.8844  0.0577
 3430SOL    HW212030   4.826   2.300   3.014 -1.7063 -2.1233  0.9230
 3431SOL     OW12031   0.279   6.908   4.010 -0.0500  0.0530  0.5174
 3431SOL    HW112032   0.269   6.842   4.079  1.4639 -0.8206 -0.0438
 3431SOL    HW212033   0.286   6.857   3.929  2.3311  0.7722  0.1978
 3432SOL     OW12034   0.430   5.615   5.577  0.5733  1.3488  0.7138
 3432SOL    HW112035   0.509   5.643   5.530  1.2853 -0.5391  0.7060
 3432SOL    HW212036   0.358   5.653   5.526  1.2565 -1.1775 -2.4932
 3433SOL     OW12037   1.509   5.989   8.766 -0.1221  0.2819  0.0500
 3433SOL    HW112038   1.507   6.000   8.671  0.8372  1.0792  0.1116
 3433SOL    HW212039   1.422   5.955   8.788 -1.2616  2.4720 -0.8241
 3434SOL     OW12040   3.425   5.699   9.168 -0.1284  0.1754  0.6809
 3434SOL    HW112041   3.386   5.632   9.225  1.6148 -0.8120  0.7842
 3434SOL    HW212042   3.492   5.741   9.222  1.4146 -0.6345 -0.5099
 3435SOL     OW12043   6.475   4.939   2.127  0.2529 -0.0216  0.1829
 3435SOL    HW112044   6.477   4.855   2.173  0.5402 -0.4871 -0.6715
 3435SOL    HW212045   6.568   4.961   2.114  0.1745  0.3028  0.1598
 3436SOL     OW12046   8.851   6.804   8.992  0.0259 -0.6584 -0.2202
 3436SOL    HW112047   8.824   6.713   8.976 -2.3256  0.1321 -1.0883
 3436SOL    HW212048   8.785   6.838   9.052  1.6942  0.1054  1.2405
 3437SOL     OW12049   3.299   7.085   4.668  0.7441  0.3130 -0.0794
 3437SOL    HW112050   3.242   7.160   4.652  0.4641  0.4193  1.3122
 3437SOL    HW212051   3.310   7.083   4.763  2.9016  0.1693 -0.2784
 3438SOL     OW12052   0.623   5.746   5.460  0.0997 -0.2378 -0.2298
 3438SOL    HW112053   0.633   5.820   5.401  1.6284  0.7413  1.1473
 3438SOL    HW212054   0.709   5.704   5.460  0.2621  0.0162  1.5094
 3439SOL     OW12055   8.256   2.807   0.709  0.5603 -0.4766  0.1956
 3439SOL    HW112056   8.280   2.892   0.671  1.2581 -0.2418  1.1163
 3439SOL    HW212057   8.208   2.829   0.789 -1.1637 -0.9626 -0.6480
 3440SOL     OW12058   4.820   8.041   5.007 -0.2625 -0.0207  0.3692
 3440SOL    HW112059   4.751   8.108   5.004 -1.5862 -1.3024  1.1208
 3440SOL    HW212060   4.879   8.064   4.935 -2.8488 -0.3218 -1.9880
 3441SOL     OW12061   2.966   2.359   8.302 -0.5637 -0.6151 -0.2343
 3441SOL    HW112062   2.923   2.385   8.221 -0.8523  1.1524  0.4277
 3441SOL    HW212063   2.936   2.270   8.318 -0.0617 -1.2183 -2.3252
 3442SOL     OW12064   2.567   7.352   8.957 -0.5589  0.4223  0.0659
 3442SOL    HW112065   2.529   7.436   8.932 -0.9545  0.8992  2.0533
 3442SOL    HW212066   2.657   7.373   8.982  0.3193 -0.2910 -2.2309
 3443SOL     OW12067   3.460   0.025   2.614  0.2865  0.3210 -0.3531
 3443SOL    HW112068   3.517   0.100   2.596  0.9714 -0.0726  0.1338
 3443SOL    HW212069   3.511  -0.030   2.674  0.3068 -1.1611 -1.6827
 3444SOL     OW12070   0.948   5.000   5.544  0.1525  0.1346 -0.2111
 3444SOL    HW112071   0.933   5.042   5.629 -0.1489  1.2108 -0.7705
 3444SOL    HW212072   0.869   4.948   5.529 -0.9353  1.8959 -0.9172
 3445SOL     OW12073   6.175   5.760   0.701  0.4821 -0.1028  0.0202
 3445SOL    HW112074   6.162   5.767   0.606  1.6345 -0.8229 -0.2109
 3445SOL    HW212075   6.169   5.850   0.733 -0.9521  0.0439 -0.5747
 3446SOL     OW12076   3.872   4.431   8.290 -0.6973 -0.3047  0.1318
 3446SOL    HW112077   3.935   4.479   8.345 -0.0413 -1.6483  0.5803
 3446SOL    HW212078   3.816   4.386   8.352 -0.0479 -1.7160 -0.2746
 3447SOL     OW12079   3.180   4.454   6.190 -0.3815 -0.1529 -0.3217
 3447SOL    HW112080   3.184   4.364   6.222  1.4304  0.2001  0.5623
 3447SOL    HW212081   3.183   4.507   6.270  0.1247  0.7052 -0.9036
 3448SOL     OW12082   6.954   8.454   7.942 -0.4539  0.1274  0.5891
 3448SOL    HW112083   7.017   8.454   8.014  1.1462  2.1408 -0.6783
 3448SOL    HW212084   6.991   8.393   7.877 -1.4007 -0.9562  1.0275
 3449SOL     OW12085   1.421   0.239   3.041  0.0686 -0.6436 -0.2017
 3449SOL    HW112086   1.409   0.333   3.054  1.7790 -0.3148 -0.7591
 3449SOL    HW212087   1.393   0.199   3.123 -0.9827  0.3162 -0.0728
 3450SOL     OW12088   5.235   3.189   3.680  0.7608  0.2592  0.0112
 3450SOL    HW112089   5.190   3.273   3.691  1.2356  0.8346 -2.0474
 3450SOL    HW212090   5.179   3.140   3.619  0.3737 -1.0494  1.3568
 3451SOL     OW12091   3.087   4.046   3.786 -0.0205 -0.1032 -0.3519
 3451SOL    HW112092   3.011   3.991   3.768 -0.1190 -0.0097 -0.2143
 3451SOL    HW212093   3.085   4.113   3.717 -0.7039  0.5795  0.3083
 3452SOL     OW12094   7.178   4.800   4.622 -0.0823  0.3595  0.1871
 3452SOL    HW112095   7.232   4.727   4.654  0.8834  1.0130  0.0983
 3452SOL    HW212096   7.240   4.858   4.577 -1.1450  0.2544 -1.5058
 3453SOL     OW12097   4.740   5.436   2.359 -0.0066  0.3387  0.3216
 3453SOL    HW112098   4.759   5.528   2.339  0.7577 -0.1112 -1.2313
 3453SOL    HW212099   4.670   5.413   2.298  0.8152 -0.4820 -0.3404
 3454SOL     OW12100   4.607   6.322   8.413 -0.5528  0.2766  0.0621
 3454SOL    HW112101   4.533   6.357   8.464 -0.6030 -0.2469  0.3594
 3454SOL    HW212102   4.668   6.291   8.479  0.0879  0.9965 -0.1799
 3455SOL     OW12103   9.488   5.142   4.179  0.3300 -0.2069  0.0564
 3455SOL    HW112104   9.505   5.218   4.234 -1.0832  0.6563 -0.6398
 3455SOL    HW212105   9.405   5.162   4.136  0.5307 -1.6236 -1.0534
 3456SOL     OW12106   1.225   6.083   9.315  0.1568  0.0230 -0.4267
 3456SOL    HW112107   1.158   6.016   9.299 -0.1232 -0.1429  1.2412
 3456SOL    HW212108   1.280   6.081   9.237 -0.6251 -1.2152 -0.9820
 3457SOL     OW12109   5.283   2.168   2.879 -0.1484  0.3702 -0.1976
 3457SOL    HW112110   5.345   2.099   2.855  0.5647  0.9243  0.0258
 3457SOL    HW212111   5.320   2.247   2.840 -0.4217  0.7995  0.4175
 3458SOL     OW12112   2.301   6.673   1.921 -0.3617  0.1247  0.1707
 3458SOL    HW112113   2.327   6.764   1.933 -1.2901  0.2294  1.5333
 3458SOL    HW212114   2.363   6.623   1.974 -0.2366 -0.0021 -0.0897
 3459SOL     OW12115   1.863   9.336   7.833  0.6674 -0.4799  0.2701
 3459SOL    HW112116   1.839   9.245   7.814 -0.8673  0.0032 -0.2879
 3459SOL    HW212117   1.875   9.338   7.928 -0.3385 -1.0554  0.4324
 3460SOL     OW12118   3.685   9.272   0.411  0.4037  0.2608  0.0760
 3460SOL    HW112119   3.741   9.196   0.431  0.7656  0.2249 -0.9946
 3460SOL    HW212120   3.746   9.345   0.406 -0.1170  0.9838  2.6941
 3461SOL     OW12121   0.224   4.113   5.348 -0.5381 -0.1675 -0.3300
 3461SOL    HW112122   0.149   4.075   5.393  0.9053 -2.5875  0.2384
 3461SOL    HW212123   0.234   4.059   5.269  0.5868  0.1314 -0.4062
 3462SOL     OW12124   4.512   7.433   4.971  0.6590  0.2312 -0.3427
 3462SOL    HW112125   4.574   7.477   4.912  0.7811  1.4456  0.6333
 3462SOL    HW212126   4.426   7.450   4.932  0.7397  1.0047 -0.2000
 3463SOL     OW12127   5.886   8.024   6.285  0.3738  0.0145 -0.3748
 3463SOL    HW112128   5.917   7.986   6.367  0.7481  1.7258  0.3339
 3463SOL    HW212129   5.796   7.994   6.276  0.8959 -1.6703 -0.3111
 3464SOL     OW12130   4.260   0.970   5.080  0.3673  0.1449  0.4526
 3464SOL    HW112131   4.342   1.017   5.063  0.5456  0.1355  1.2622
 3464SOL    HW212132   4.196   1.040   5.098  0.4549  0.1091  0.9062
 3465SOL     OW12133   1.037   1.688   0.332  0.3998 -0.2656  0.0057
 3465SOL    HW112134   0.954   1.728   0.308  0.0168 -0.6130  0.7258
 3465SOL    HW212135   1.049   1.709   0.425  0.5686 -1.1514  0.1957
 3466SOL     OW12136   6.275   8.627   2.364 -0.0368 -0.2934  0.4901
 3466SOL    HW112137   6.366   8.605   2.384  0.6220 -0.1548 -2.0387
 3466SOL    HW212138   6.272   8.722   2.375  0.4942 -0.1326 -0.5588
 3467SOL     OW12139   7.418   3.881   7.401 -0.3930  0.5143  0.2775
 3467SOL    HW112140   7.410   3.839   7.316  0.3238  1.2980 -0.1818
 3467SOL    HW212141   7.506   3.918   7.402 -0.7671  1.4154  0.9407
 3468SOL     OW12142   0.094   5.432   1.915  0.0894 -0.0658 -0.1774
 3468SOL    HW112143   0.151   5.403   1.985  0.3339 -1.0567 -0.7701
 3468SOL    HW212144   0.136   5.511   1.880 -0.2223  0.6385  0.9991
 3469SOL     OW12145   7.809   7.174   5.152  0.0691 -0.1751 -0.0749
 3469SOL    HW112146   7.821   7.268   5.164 -0.1342 -0.2373  0.7113
 3469SOL    HW212147   7.841   7.135   5.234  0.5835 -0.8286 -0.5746
 3470SOL     OW12148   4.951   7.638   2.591 -0.5168  0.6648 -0.6429
 3470SOL    HW112149   4.938   7.685   2.673 -0.4749 -0.0056 -0.2471
 3470SOL    HW212150   5.033   7.674   2.556  0.0557  0.1728  0.1657
 3471SOL     OW12151   2.235   4.330   1.686  0.3943  0.1136  0.0747
 3471SOL    HW112152   2.240   4.240   1.654  1.8968 -0.3189  1.3753
 3471SOL    HW212153   2.176   4.326   1.762 -0.8378  0.5711 -0.8279
 3472SOL     OW12154   2.870   9.123   1.017  0.2715 -0.5103 -0.2504
 3472SOL    HW112155   2.812   9.198   1.008  1.3354  0.2069 -1.4138
 3472SOL    HW212156   2.815   9.047   0.998  0.1467  0.2826 -3.7348
 3473SOL     OW12157   0.495   2.466   5.386  0.2040  0.3541  0.2333
 3473SOL    HW112158   0.437   2.477   5.310 -0.3160  3.5332  0.9539
 3473SOL    HW212159   0.453   2.398   5.438 -0.8183 -0.0622 -1.0590
 3474SOL     OW12160   0.908   6.457   5.443  0.3167 -0.1692  0.0862
 3474SOL    HW112161   0.855   6.534   5.423  2.0518  0.6711 -1.6240
 3474SOL    HW212162   0.976   6.490   5.502  1.4493 -0.1690 -1.1598
 3475SOL     OW12163   1.524   4.234   3.822  0.2660  0.3655  0.1680
 3475SOL    HW112164   1.464   4.289   3.772  0.0751  1.0317  1.0987
 3475SOL    HW212165   1.568   4.180   3.756 -0.8570  0.3396 -0.5945
 3476SOL     OW12166   5.024   5.352   3.790  0.1177 -0.1350  0.2663
 3476SOL    HW112167   5.115   5.365   3.762 -0.1799  0.4143 -0.4653
 3476SOL    HW212168   4.978   5.325   3.711 -0.0151 -2.2245  0.9871
 3477SOL     OW12169   3.286   5.722   2.861  0.1882 -0.4863  0.3474
 3477SOL    HW112170   3.208   5.668   2.870 -0.6529  0.6672  0.2629
 3477SOL    HW212171   3.336   5.681   2.791 -0.8175 -0.7003 -0.2667
 3478SOL     OW12172   8.851   8.567   7.434  0.2559  0.2652 -0.0820
 3478SOL    HW112173   8.869   8.650   7.478 -0.2041 -0.5448  1.7191
 3478SOL    HW212174   8.757   8.570   7.415  0.2302  0.1326  0.0231
 3479SOL     OW12175   9.345   5.044   6.396  0.8743 -0.3354  0.6477
 3479SOL    HW112176   9.309   5.059   6.309 -1.3768  1.6182  1.7979
 3479SOL    HW212177   9.288   4.977   6.434 -1.7790  2.6566  2.4225
 3480SOL     OW12178   1.678   7.898   2.439  0.4552  0.5066  0.1536
 3480SOL    HW112179   1.730   7.946   2.502 -2.4076  1.6797  1.8209
 3480SOL    HW212180   1.623   7.964   2.397 -0.0585 -0.7019 -1.1743
 3481SOL     OW12181   6.305   9.477   0.647 -0.6141  0.1846 -0.3382
 3481SOL    HW112182   6.328   9.392   0.684 -0.6070  0.7974  1.1293
 3481SOL    HW212183   6.210   9.477   0.643 -0.7225  0.8085  1.4844
 3482SOL     OW12184   3.392   6.126   3.424 -0.0589  0.3760  0.5012
 3482SOL    HW112185   3.468   6.104   3.371 -0.6750  0.2205 -0.3437
 3482SOL    HW212186   3.413   6.093   3.511  1.4152  1.5719  0.6487
 3483SOL     OW12187   3.121   3.230   3.121  0.1465  0.5722 -0.2670
 3483SOL    HW112188   3.074   3.246   3.203  1.0264  0.4474  0.2750
 3483SOL    HW212189   3.203   3.189   3.148  0.3832  0.3846 -1.2261
 3484SOL     OW12190   4.162   3.675   3.077 -0.0644 -0.4677 -0.3290
 3484SOL    HW112191   4.124   3.696   2.992 -1.9075  0.0754  0.5757
 3484SOL    HW212192   4.159   3.579   3.082 -2.7852 -0.4239  0.2805
 3485SOL     OW12193   1.412   4.407   3.055  0.1088 -0.4401 -0.2278
 3485SOL    HW112194   1.417   4.331   2.997  0.5381 -0.7093  0.1615
 3485SOL    HW212195   1.466   4.473   3.013  0.9544 -0.8543  0.1936
 3486SOL     OW12196   1.147   7.709   8.889 -0.1999  0.0508  0.0080
 3486SOL    HW112197   1.166   7.790   8.842  2.0090 -1.2336 -1.5113
 3486SOL    HW212198   1.161   7.640   8.824  0.0450 -1.6719  1.8077
 3487SOL     OW12199   4.737   2.606   4.195 -0.2791 -0.1640 -0.1930
 3487SOL    HW112200   4.651   2.606   4.154  0.2975 -0.0528 -1.4492
 3487SOL    HW212201   4.778   2.525   4.166  0.7068  0.6381 -1.1173
 3488SOL     OW12202   9.455   3.373   3.595 -0.3298 -0.0102 -0.3018
 3488SOL    HW112203   9.540   3.392   3.557 -0.3922  0.0786 -0.3954
 3488SOL    HW212204   9.470   3.295   3.648 -0.6023 -1.1678 -1.8436
 3489SOL     OW12205   5.429   9.016   4.007 -0.1543 -0.2553  0.2966
 3489SOL    HW112206   5.473   8.946   3.960 -1.1361 -1.7578  1.5455
 3489SOL    HW212207   5.336   9.003   3.988 -0.3876  0.4016  0.9606
 3490SOL     OW12208   7.579   3.677   9.532 -0.3231  0.0229 -0.2135
 3490SOL    HW112209   7.671   3.701   9.543  0.3969 -2.3230 -0.7108
 3490SOL    HW212210   7.571   3.657   9.439 -1.3240  0.0955 -0.1481
 3491SOL     OW12211   4.640   0.285   7.744  0.4291 -0.5367 -0.1631
 3491SOL    HW112212   4.596   0.275   7.660  0.8020 -0.7506 -0.3359
 3491SOL    HW212213   4.717   0.338   7.725 -0.4080  0.9347  0.3666
 3492SOL     OW12214   7.271   3.653   2.736  0.8141 -0.0111  0.0293
 3492SOL    HW112215   7.244   3.608   2.656 -0.7854 -1.7848  1.4834
 3492SOL    HW212216   7.348   3.605   2.766 -0.7788 -1.7720  1.4775
 3493SOL     OW12217   1.673   4.684   1.800  0.3183  0.0687  0.3237
 3493SOL    HW112218   1.641   4.713   1.886 -0.0560  0.2094  0.1358
 3493SOL    HW212219   1.628   4.740   1.737 -0.1203 -0.6470 -0.0190
 3494SOL     OW12220   0.613   9.473   0.397  0.3898  0.0309  0.1642
 3494SOL    HW112221   0.533   9.470   0.449  0.2470  0.7229  0.0068
 3494SOL    HW212222   0.586   9.514   0.315  1.2334  1.9313  0.7782
 3495SOL     OW12223   9.448   9.163   2.399  0.2375 -0.3597 -0.4056
 3495SOL    HW112224   9.378   9.219   2.366  0.1581 -0.9911 -1.3347
 3495SOL    HW212225   9.525   9.188   2.349  0.7075  0.3272  0.6087
 3496SOL     OW12226   7.312   4.963   6.657 -0.4130  0.4064  0.5384
 3496SOL    HW112227   7.407   4.957   6.668 -0.4754 -0.3977  0.7302
 3496SOL    HW212228   7.276   4.925   6.737 -0.8770 -1.1575 -0.3731
 3497SOL     OW12229   9.514   8.405   5.008 -0.3493 -0.1506 -0.3062
 3497SOL    HW112230   9.582   8.349   5.046 -1.1105 -0.9821 -0.1432
 3497SOL    HW212231   9.434   8.353   5.013 -0.9158  0.6330 -0.9290
 3498SOL     OW12232   0.564   0.304   2.462  0.6180 -0.8289  0.0095
 3498SOL    HW112233   0.611   0.337   2.386  1.0824 -1.0987  0.1674
 3498SOL    HW212234   0.472   0.312   2.440  0.7498 -0.9778 -0.6101
 3499SOL     OW12235   2.984   7.645   4.289  0.2097 -1.1806  0.2959
 3499SOL    HW112236   2.954   7.606   4.370 -2.0513  0.0271  0.1084
 3499SOL    HW212237   3.064   7.692   4.313 -0.3910 -0.8879  1.8068
 3500SOL     OW12238   2.001   1.786   8.481 -0.5335  0.1510  0.0239
 3500SOL    HW112239   2.081   1.736   8.498 -0.3763  0.4699  0.2179
 3500SOL    HW212240   1.935   1.744   8.536 -0.9107 -1.1632 -1.3368
 3501SOL     OW12241   5.313   4.145   1.564 -0.3660 -0.0117 -0.6738
 3501SOL    HW112242   5.378   4.180   1.503 -2.0901  0.6936 -2.1567
 3501SOL    HW212243   5.271   4.073   1.516 -2.1450  0.9242 -0.5949
 3502SOL     OW12244   6.146   2.399   4.623 -0.8937 -0.2966 -0.1981
 3502SOL    HW112245   6.232   2.398   4.666 -0.9063  0.2979 -0.1494
 3502SOL    HW212246   6.126   2.492   4.613 -1.8862 -0.4284  0.4814
 3503SOL     OW12247   7.805   5.793   7.546 -0.1479  0.4525 -0.3690
 3503SOL    HW112248   7.754   5.792   7.465 -0.6342  0.8912 -0.0797
 3503SOL    HW212249   7.854   5.711   7.545 -0.1527  0.4557 -1.1005
 3504SOL     OW12250   1.281   3.301   5.952 -0.3188  0.1852 -0.2895
 3504SOL    HW112251   1.288   3.226   6.011 -1.3751 -1.1102 -1.7399
 3504SOL    HW212252   1.240   3.369   6.006 -1.0934 -0.9032  0.5492
 3505SOL     OW12253   8.340   8.402   4.127  0.0995 -0.2461  0.8044
 3505SOL    HW112254   8.322   8.489   4.092  0.6986  0.3719  1.9889
 3505SOL    HW212255   8.259   8.375   4.168  0.8824  1.3384  3.6428
 3506SOL     OW12256   5.891   5.200   8.716  0.1159 -0.4205 -0.1567
 3506SOL    HW112257   5.828   5.270   8.699 -0.2342 -0.8485 -0.6695
 3506SOL    HW212258   5.934   5.186   8.632 -0.1359 -1.1239 -0.1786
 3507SOL     OW12259   1.386   6.174   5.257  0.1297 -0.5465 -0.2035
 3507SOL    HW112260   1.324   6.102   5.269  0.5235 -0.5595  2.1262
 3507SOL    HW212261   1.332   6.245   5.221 -0.5951 -1.4775 -1.0170
 3508SOL     OW12262   7.187   9.456   1.725 -0.2929  0.6130 -0.7681
 3508SOL    HW112263   7.127   9.481   1.655 -1.7919 -1.3436 -0.2336
 3508SOL    HW212264   7.141   9.479   1.806 -0.1669 -0.5421 -0.3573
 3509SOL     OW12265   2.161   3.456   6.207  0.1635  0.1059 -0.5619
 3509SOL    HW112266   2.182   3.445   6.300 -3.7897  0.5328  0.5815
 3509SOL    HW212267   2.164   3.550   6.192 -0.4774  0.1509 -0.4554
 3510SOL     OW12268   7.164   3.612   7.847 -0.1084  0.2580 -0.4647
 3510SOL    HW112269   7.151   3.643   7.757  0.6984  1.0770 -0.3106
 3510SOL    HW212270   7.255   3.633   7.866 -0.3469  0.3109  0.6428
 3511SOL     OW12271   7.465   5.672   9.540 -0.0799 -0.1514 -0.3233
 3511SOL    HW112272   7.478   5.584   9.576  1.5749 -0.0292 -0.5231
 3511SOL    HW212273   7.403   5.713   9.600  0.0369 -1.0688  0.4606
 3512SOL     OW12274   0.539   5.340   7.631  0.2002  0.6769 -0.2920
 3512SOL    HW112275   0.452   5.350   7.591  0.4894  1.0940 -0.8405
 3512SOL    HW212276   0.540   5.402   7.704 -0.9310 -1.2592  1.4696
 3513SOL     OW12277   5.517   5.681   0.679  0.0432 -0.1467  0.5931
 3513SOL    HW112278   5.595   5.721   0.718  0.4907 -0.6417  0.2158
 3513SOL    HW212279   5.531   5.686   0.585  0.2065 -1.3735  0.5403
 3514SOL     OW12280   8.155   7.566   8.266  0.2995  0.3509  0.0828
 3514SOL    HW112281   8.071   7.529   8.241 -0.0345  1.6400 -0.8343
 3514SOL    HW212282   8.220   7.501   8.239 -0.3641 -0.4852  0.4625
 3515SOL     OW12283   9.381   8.071   5.615 -0.0672  0.7528 -0.0589
 3515SOL    HW112284   9.416   8.155   5.648  0.4446  0.2536  0.7255
 3515SOL    HW212285   9.447   8.041   5.553 -0.5393  1.2077 -0.7928
 3516SOL     OW12286   2.238   2.676   3.385  0.5460  0.3720  0.0835
 3516SOL    HW112287   2.317   2.623   3.381  0.1564 -0.2074 -0.1398
 3516SOL    HW212288   2.268   2.763   3.410  1.1378 -0.1007  1.0707
 3517SOL     OW12289   1.508   2.541   0.290 -0.1718  0.1490 -0.0406
 3517SOL    HW112290   1.468   2.546   0.377 -0.7044  1.6490 -0.3425
 3517SOL    HW212291   1.574   2.611   0.290  1.8359 -1.6413  0.1009
 3518SOL     OW12292   1.186   0.555   3.626  0.0721 -0.1273 -0.4016
 3518SOL    HW112293   1.196   0.475   3.575 -0.2792 -0.5200  0.1414
 3518SOL    HW212294   1.112   0.539   3.684  0.1923  0.4715 -0.0642
 3519SOL     OW12295   5.825   0.605   3.246 -0.6089 -0.1599  0.3504
 3519SOL    HW112296   5.883   0.653   3.306  0.7290 -1.7835  0.4500
 3519SOL    HW212297   5.821   0.660   3.168 -0.3734  0.8251  1.0097
 3520SOL     OW12298   7.868   8.213   1.538  0.0040  0.1378 -0.2954
 3520SOL    HW112299   7.877   8.134   1.484 -1.7427 -0.6860  0.5370
 3520SOL    HW212300   7.786   8.253   1.510  0.0206  0.7254  0.4495
 3521SOL     OW12301   1.176   4.048   0.316 -0.1736  0.3679 -0.0438
 3521SOL    HW112302   1.220   4.061   0.400 -0.1263 -0.6728  0.0954
 3521SOL    HW212303   1.180   4.135   0.275  0.2593  0.7675  0.7999
 3522SOL     OW12304   8.144   8.607   0.833  0.0855 -0.3901 -0.2969
 3522SOL    HW112305   8.057   8.617   0.873  0.6407  2.5936  0.4150
 3522SOL    HW212306   8.197   8.566   0.902 -0.1301  0.2415  0.2558
 3523SOL     OW12307   5.959   4.568   6.481  0.0107 -0.3125 -0.7341
 3523SOL    HW112308   5.929   4.641   6.427  0.4840 -0.6605 -1.4922
 3523SOL    HW212309   5.987   4.608   6.563 -3.3671 -0.0590  0.4354
 3524SOL     OW12310   1.347   5.225   2.342 -0.1378  0.1054 -0.5881
 3524SOL    HW112311   1.355   5.143   2.294 -1.4169 -0.0778 -0.5245
 3524SOL    HW212312   1.327   5.199   2.432  2.2207  0.4457  0.0854
 3525SOL     OW12313   8.041   8.375   2.831 -0.0585  0.1251 -0.1619
 3525SOL    HW112314   7.968   8.405   2.885 -1.4807  1.9231 -2.8437
 3525SOL    HW212315   8.119   8.410   2.875 -1.1475  1.6606  0.6649
 3526SOL     OW12316   2.992   6.364   4.738  0.1593 -0.5427  0.7027
 3526SOL    HW112317   2.898   6.344   4.734 -0.0173  0.2229  0.8908
 3526SOL    HW212318   3.022   6.319   4.817 -0.1485 -0.4031  0.9004
 3527SOL     OW12319   4.469   6.140   8.216  0.0282 -0.3956 -0.0313
 3527SOL    HW112320   4.500   6.176   8.133  2.5132 -1.3754  0.4034
 3527SOL    HW212321   4.530   6.173   8.282 -1.4034 -0.3137  1.3332
 3528SOL     OW12322   3.523   3.807   3.816 -0.0102  0.5933  0.0173
 3528SOL    HW112323   3.445   3.751   3.820 -0.0338  0.6780  1.1431
 3528SOL    HW212324   3.489   3.895   3.833  0.2236  0.7481 -0.3159
 3529SOL     OW12325   8.661   8.514   2.189  0.0614  0.1166  0.1851
 3529SOL    HW112326   8.688   8.550   2.273 -0.6323 -1.0330  0.9446
 3529SOL    HW212327   8.579   8.559   2.168  1.0508  1.5591 -0.7022
 3530SOL     OW12328   3.093   5.588   5.636 -0.5141  0.0317  0.0253
 3530SOL    HW112329   3.152   5.530   5.684 -2.3648 -2.2245 -0.2283
 3530SOL    HW212330   3.052   5.642   5.703  0.9870  0.8845  0.3044
 3531SOL     OW12331   8.635   4.407   8.043 -0.0083 -0.4513 -0.2626
 3531SOL    HW112332   8.656   4.356   7.965 -0.0932  1.0249 -1.3150
 3531SOL    HW212333   8.574   4.353   8.092 -1.5447 -0.6169 -2.2489
 3532SOL     OW12334   6.017   9.476   0.018  0.7262 -0.4433  0.0329
 3532SOL    HW112335   6.051   9.478  -0.071  2.2521 -1.6185  0.5426
 3532SOL    HW212336   6.079   9.529   0.068 -0.6174  0.9681  0.2832
 3533SOL     OW12337   2.466   5.157   6.057 -0.3016  0.1464 -0.5225
 3533SOL    HW112338   2.543   5.206   6.084 -1.4687  1.7266  0.0778
 3533SOL    HW212339   2.445   5.190   5.970 -0.9906  0.5966 -0.1918
 3534SOL     OW12340   9.385   2.275   5.274 -0.1609 -0.2076 -0.6931
 3534SOL    HW112341   9.328   2.341   5.315 -0.5895  0.1336 -1.7923
 3534SOL    HW212342   9.452   2.326   5.230 -0.3009 -0.5231 -1.2732
 3535SOL     OW12343   4.574   5.949   2.556 -0.3271  0.1137 -0.4503
 3535SOL    HW112344   4.499   6.003   2.583 -0.0704 -0.0961  0.7585
 3535SOL    HW212345   4.539   5.860   2.555 -0.5683  0.1961 -1.7654
 3536SOL     OW12346   1.277   3.576   5.548 -0.0102 -0.0047  0.0484
 3536SOL    HW112347   1.230   3.506   5.503  0.5537 -1.6816  1.9384
 3536SOL    HW212348   1.215   3.608   5.614  0.3128  0.1236  0.2935
 3537SOL     OW12349   3.735   6.222   8.439 -0.0312 -0.3160 -0.4562
 3537SOL    HW112350   3.828   6.240   8.424  0.1376 -0.8826 -0.1232
 3537SOL    HW212351   3.701   6.200   8.352  0.0747  0.1696 -0.6286
 3538SOL     OW12352   7.583   3.341   6.997  0.0716 -0.4433 -0.4359
 3538SOL    HW112353   7.645   3.278   7.033 -1.2207 -0.6887  1.5564
 3538SOL    HW212354   7.615   3.427   7.026  0.3577 -0.4202 -0.8157
 3539SOL     OW12355   6.711   5.678   7.703 -0.8583  0.1599 -0.2115
 3539SOL    HW112356   6.713   5.759   7.753 -0.5357  0.0754 -0.0853
 3539SOL    HW212357   6.801   5.665   7.674 -0.0600 -2.0459  2.7947
 3540SOL     OW12358   7.919   1.136   6.618  0.2180 -0.2309 -0.1466
 3540SOL    HW112359   7.849   1.106   6.676  0.4200  2.0627  1.4208
 3540SOL    HW212360   8.000   1.104   6.659  0.4665  2.4931  1.7658
 3541SOL     OW12361   0.482   3.445   1.186  0.3321  0.6951 -0.1561
 3541SOL    HW112362   0.432   3.510   1.137 -0.0531  0.0330 -0.6569
 3541SOL    HW212363   0.443   3.447   1.274 -0.0336  0.7499 -0.3187
 3542SOL     OW12364   6.552   7.352   8.422  0.1607  0.8015  0.0639
 3542SOL    HW112365   6.461   7.331   8.400  0.4455  0.1969 -0.5891
 3542SOL    HW212366   6.549   7.379   8.513 -0.7282  1.1188 -0.0468
 3543SOL     OW12367   7.069   2.710   0.484  0.4472  0.1601 -0.0271
 3543SOL    HW112368   7.096   2.689   0.395  1.4463 -0.8065  0.4752
 3543SOL    HW212369   7.133   2.775   0.514  1.0334 -0.6296  0.4784
 3544SOL     OW12370   6.297   4.147   7.837 -0.6254  0.4843  0.1842
 3544SOL    HW112371   6.247   4.144   7.756 -1.0868  0.7919  0.4476
 3544SOL    HW212372   6.232   4.127   7.905 -0.4090  0.9593  0.5357
 3545SOL     OW12373   4.795   9.292   2.118  0.3231  0.2161 -0.0614
 3545SOL    HW112374   4.720   9.350   2.124  0.1866 -0.0646  1.5379
 3545SOL    HW212375   4.758   9.204   2.123  0.7036  0.0536 -0.0560
 3546SOL     OW12376   5.154   0.152   5.529  0.4531 -0.8194  0.4501
 3546SOL    HW112377   5.145   0.247   5.518  1.3024 -0.7901 -0.0785
 3546SOL    HW212378   5.160   0.140   5.624 -0.5429 -0.4465  0.5827
 3547SOL     OW12379   9.503   1.986   4.534  0.2580  0.2948 -0.0866
 3547SOL    HW112380   9.477   1.894   4.546  1.7285  0.0124  1.3033
 3547SOL    HW212381   9.548   2.008   4.615  1.2897  1.7830 -1.0351
 3548SOL     OW12382   4.445   7.140   7.902  0.2389  0.7872  0.1787
 3548SOL    HW112383   4.468   7.048   7.918 -1.7956  0.5277  2.1495
 3548SOL    HW212384   4.501   7.189   7.962  0.7464  0.7818 -0.2838
 3549SOL     OW12385   3.538   6.103   7.655  0.7912 -0.1235 -0.2844
 3549SOL    HW112386   3.511   6.012   7.641  1.8761 -0.3461 -0.9760
 3549SOL    HW212387   3.527   6.145   7.570  0.3658  0.3802  0.0149
 3550SOL     OW12388   8.273   1.823   7.997  0.7643 -0.1202  0.3104
 3550SOL    HW112389   8.334   1.750   8.007 -0.7811 -1.6581 -0.8752
 3550SOL    HW212390   8.258   1.830   7.903  0.0486  1.0416  0.4817
 3551SOL     OW12391   6.916   8.125   9.380  0.6943  0.6395 -0.3547
 3551SOL    HW112392   6.980   8.194   9.360  1.0356  0.1157 -1.1160
 3551SOL    HW212393   6.832   8.171   9.379  0.8705  0.9798 -1.3179
 3552SOL     OW12394   7.373   8.066   8.332  0.0776 -0.6549  0.1465
 3552SOL    HW112395   7.345   8.134   8.394  1.4676  0.6585 -0.5995
 3552SOL    HW212396   7.416   8.114   8.261  0.1848 -2.2579 -0.9282
 3553SOL     OW12397   3.916   8.633   8.638 -0.3491  0.2724  0.1169
 3553SOL    HW112398   3.974   8.616   8.564 -0.5005 -0.9335  0.2622
 3553SOL    HW212399   3.829   8.639   8.600 -0.7182 -2.3124  0.3520
 3554SOL     OW12400   4.995   6.032   1.527 -0.4270  0.0847  0.4852
 3554SOL    HW112401   5.005   6.090   1.602  0.0740  1.3854 -0.5491
 3554SOL    HW212402   4.936   5.962   1.558  1.9277 -0.9842  2.9390
 3555SOL     OW12403   5.339   3.873   9.604 -0.7890  0.2000 -0.1176
 3555SOL    HW112404   5.407   3.930   9.641  0.2377 -0.6110 -0.7159
 3555SOL    HW212405   5.327   3.805   9.670 -1.7558  0.8641  0.4302
 3556SOL     OW12406   6.049   9.393   9.179 -0.0897  0.2484 -0.1972
 3556SOL    HW112407   5.959   9.365   9.197 -0.2389  1.6598  1.6315
 3556SOL    HW212408   6.102   9.315   9.192 -0.8916 -0.2036  0.4689
 3557SOL     OW12409   9.560   8.320   8.027  0.1607  0.6655 -0.5044
 3557SOL    HW112410   9.516   8.319   7.942  1.0415 -0.2228 -0.9782
 3557SOL    HW212411   9.534   8.403   8.067 -0.9284  0.7252 -1.2831
 3558SOL     OW12412   0.970   0.016   5.739  0.5110  0.0719 -0.3705
 3558SOL    HW112413   0.938   0.047   5.824  1.9194  0.6221 -0.0033
 3558SOL    HW212414   0.911  -0.055   5.716  0.6800 -0.7848  1.5829
 3559SOL     OW12415   3.080   2.176   7.263  0.4946  0.3223  0.6253
 3559SOL    HW112416   3.080   2.081   7.249  1.2798  0.3935  0.1018
 3559SOL    HW212417   3.056   2.213   7.178 -0.5693  0.5741  1.0285
 3560SOL     OW12418   7.882   0.496   4.946 -0.5068 -0.1939 -0.2658
 3560SOL    HW112419   7.902   0.417   4.998 -0.8898  0.8754  1.6031
 3560SOL    HW212420   7.915   0.476   4.859  1.2400 -1.6613  0.6530
 3561SOL     OW12421   5.659   3.524   1.281 -0.1661 -0.0266  0.1732
 3561SOL    HW112422   5.680   3.581   1.206 -0.0941  1.3064  1.1611
 3561SOL    HW212423   5.722   3.550   1.348 -1.1237 -0.2128  1.1606
 3562SOL     OW12424   4.437   1.522   8.381  0.3480  0.0520  0.5073
 3562SOL    HW112425   4.411   1.614   8.382 -0.5380 -0.1838  1.3188
 3562SOL    HW212426   4.529   1.523   8.355  0.3121  1.1538  0.3794
 3563SOL     OW12427   1.031   0.842   4.508  0.5118 -0.6623  0.3509
 3563SOL    HW112428   1.059   0.803   4.591 -0.1494 -1.6174  0.1446
 3563SOL    HW212429   1.098   0.816   4.445  1.0690  0.1490  0.5872
 3564SOL     OW12430   4.729   4.784   8.216  0.2454 -0.9012  0.3332
 3564SOL    HW112431   4.812   4.737   8.217  1.0001  0.3387  2.5768
 3564SOL    HW212432   4.679   4.745   8.288  0.0292  0.2628  0.8239
 3565SOL     OW12433   2.230   8.017   5.280 -0.0260  0.6600 -0.1282
 3565SOL    HW112434   2.224   7.943   5.340 -0.8354  1.0844  0.3383
 3565SOL    HW212435   2.295   8.076   5.319  2.3198 -0.7747 -1.6303
 3566SOL     OW12436   8.127   4.728   3.250 -0.1029 -0.6279 -0.2425
 3566SOL    HW112437   8.084   4.762   3.328 -2.4070 -2.3025 -0.6735
 3566SOL    HW212438   8.215   4.705   3.279 -0.2714  0.5848  1.3370
 3567SOL     OW12439   3.304   6.337   9.505  0.1929  0.7266 -0.4336
 3567SOL    HW112440   3.304   6.403   9.436  0.6411  0.2230 -0.9288
 3567SOL    HW212441   3.286   6.386   9.585 -2.9380  0.9708 -1.1871
 3568SOL     OW12442   8.988   7.342   0.775 -0.0712  0.5321  0.3032
 3568SOL    HW112443   8.940   7.259   0.767  0.1535  0.2328  1.7065
 3568SOL    HW212444   8.960   7.393   0.700 -0.7477 -0.5570 -0.2177
 3569SOL     OW12445   4.467   2.578   8.533 -0.0356  0.5431 -0.6809
 3569SOL    HW112446   4.463   2.636   8.610  0.4344 -1.1710  0.7015
 3569SOL    HW212447   4.536   2.617   8.478  0.9871  0.7754  0.6910
 3570SOL     OW12448   0.307   6.058   1.801 -0.0114 -0.3492 -0.1778
 3570SOL    HW112449   0.354   6.073   1.719 -1.1253 -0.9052 -0.9389
 3570SOL    HW212450   0.354   5.986   1.842  1.2181  0.6454  0.2288
 3571SOL     OW12451   7.922   2.527   8.678  0.9507  0.4934  0.1516
 3571SOL    HW112452   8.008   2.557   8.650  0.5646  1.0024 -0.5239
 3571SOL    HW212453   7.866   2.538   8.601  0.5362 -0.9131  0.2308
 3572SOL     OW12454   3.773   4.880   0.928 -0.1957  0.3237  0.0673
 3572SOL    HW112455   3.787   4.949   0.863  0.0626 -0.6000 -0.8941
 3572SOL    HW212456   3.785   4.798   0.879  1.3878 -0.4165  1.5610
 3573SOL     OW12457   4.215   8.244   2.311 -0.7374  0.4242  0.1827
 3573SOL    HW112458   4.158   8.173   2.339 -0.6792  0.0173 -0.7021
 3573SOL    HW212459   4.257   8.274   2.391 -0.3951 -0.8677  0.5109
 3574SOL     OW12460   8.850   4.138   3.980  0.1067  0.1165 -0.0939
 3574SOL    HW112461   8.933   4.100   3.951  1.0856  1.9682  0.1617
 3574SOL    HW212462   8.789   4.064   3.979  1.7637 -1.3248 -0.1619
 3575SOL     OW12463   3.773   0.174   6.644  0.2128 -0.7834 -0.0098
 3575SOL    HW112464   3.868   0.164   6.635  0.3602  0.0117  0.5584
 3575SOL    HW212465   3.746   0.100   6.698  0.6565 -0.4564  0.6691
 3576SOL     OW12466   7.003   7.856   1.509 -0.3154  0.6021 -0.8689
 3576SOL    HW112467   7.001   7.871   1.603 -1.1106 -1.9706 -0.3874
 3576SOL    HW212468   7.094   7.871   1.483  0.2420 -0.0758  0.6087
 3577SOL     OW12469   6.410   8.491   2.926 -0.2304  0.4185 -0.2061
 3577SOL    HW112470   6.343   8.448   2.873 -0.5238  0.3615  0.2050
 3577SOL    HW212471   6.452   8.553   2.866 -2.3046  2.2675  0.1149
 3578SOL     OW12472   3.778   8.110   4.584 -0.0113 -0.1178  0.5340
 3578SOL    HW112473   3.740   8.176   4.641 -0.9988  0.8237 -1.1343
 3578SOL    HW212474   3.759   8.027   4.627  0.1671  0.5922  2.0549
 3579SOL     OW12475   4.905   9.448   1.417 -0.0426 -0.0255 -0.2049
 3579SOL    HW112476   4.893   9.379   1.481  2.8236  0.7959  1.3700
 3579SOL    HW212477   4.988   9.428   1.374  0.4059  1.8966 -0.3527
 3580SOL     OW12478   7.596   8.377   4.611  0.1225  0.4439  0.0004
 3580SOL    HW112479   7.539   8.329   4.550 -1.6480  1.0115  1.1248
 3580SOL    HW212480   7.651   8.309   4.650 -1.9503 -0.6690  1.1572
 3581SOL     OW12481   8.940   8.850   3.699  0.4270  0.0683  0.4774
 3581SOL    HW112482   8.900   8.789   3.637  0.1638  0.2633  0.4557
 3581SOL    HW212483   9.033   8.824   3.701  0.7810  1.0786 -1.2133
 3582SOL     OW12484   3.895   5.246   6.075 -0.2811  0.8371 -0.3838
 3582SOL    HW112485   3.911   5.338   6.097  0.1894  0.4437  0.9931
 3582SOL    HW212486   3.977   5.202   6.096 -0.9429 -0.1140  0.2652
 3583SOL     OW12487   6.036   2.424   6.755  0.6556  0.0904  0.1246
 3583SOL    HW112488   6.038   2.338   6.714  1.9890  0.9312 -1.7080
 3583SOL    HW212489   5.943   2.438   6.775  0.3794 -1.6306  0.2128
 3584SOL     OW12490   6.162   5.374   9.341  0.3893  0.1946  0.9838
 3584SOL    HW112491   6.223   5.396   9.411  2.9375  0.3992 -1.1374
 3584SOL    HW212492   6.206   5.305   9.291 -0.6783  1.0036 -1.2030
 3585SOL     OW12493   8.384   6.885   3.282  0.2407  0.7316  0.1148
 3585SOL    HW112494   8.473   6.920   3.277  0.3287  0.5105  0.0890
 3585SOL    HW212495   8.327   6.962   3.279  0.4553  0.9496  1.2071
 3586SOL     OW12496   3.185   8.245   5.254 -0.6849 -0.2073  0.5178
 3586SOL    HW112497   3.192   8.221   5.347  1.0769  2.4604  1.1890
 3586SOL    HW212498   3.262   8.299   5.238 -0.3975 -1.4112 -2.8368
 3587SOL     OW12499   8.855   2.832   7.634 -0.2071 -0.7125 -0.0339
 3587SOL    HW112500   8.780   2.845   7.576 -1.1783  0.7964  1.4945
 3587SOL    HW212501   8.931   2.836   7.575 -1.2436 -1.4258 -1.4862
 3588SOL     OW12502   7.193   2.288   9.376 -0.4244 -0.1411  0.4521
 3588SOL    HW112503   7.239   2.358   9.331 -2.2826  0.2071 -1.0219
 3588SOL    HW212504   7.150   2.238   9.307 -0.6147 -1.6781  1.6016
 3589SOL     OW12505   4.271   7.391   4.344 -0.2986 -0.5372  0.4498
 3589SOL    HW112506   4.195   7.378   4.401  0.1967 -2.0442  0.8173
 3589SOL    HW212507   4.273   7.312   4.289  0.8681 -0.4079  0.2884
 3590SOL     OW12508   8.410   3.735   3.436 -0.2318  0.5249 -0.4801
 3590SOL    HW112509   8.403   3.643   3.412  1.1455  0.0890  0.6404
 3590SOL    HW212510   8.408   3.782   3.353  0.5604 -0.6419 -1.1854
 3591SOL     OW12511   7.842   6.235   3.918  0.1830 -0.5911 -0.1935
 3591SOL    HW112512   7.824   6.324   3.950 -1.2482 -1.0184  0.2190
 3591SOL    HW212513   7.912   6.203   3.975 -1.2353 -0.7492  1.5551
 3592SOL     OW12514   6.035   7.225   2.594  0.1808  0.0227  0.3244
 3592SOL    HW112515   6.105   7.234   2.529 -1.0246  2.8630 -0.7329
 3592SOL    HW212516   5.997   7.139   2.576  2.4098 -0.9542 -0.0315
 3593SOL     OW12517   3.662   5.230   9.322 -0.6936  0.4918 -0.0701
 3593SOL    HW112518   3.714   5.196   9.394 -0.6946 -3.1049 -1.5477
 3593SOL    HW212519   3.571   5.215   9.349 -0.7111 -0.1837 -0.4740
 3594SOL     OW12520   6.951   0.333   4.144  0.3073 -0.1663 -0.3113
 3594SOL    HW112521   6.882   0.393   4.114  0.2087  0.0954  0.4020
 3594SOL    HW212522   6.912   0.289   4.220  1.3138  0.8607  0.8625
 3595SOL     OW12523   4.412   6.164   6.696  0.6068  0.6125  0.5988
 3595SOL    HW112524   4.384   6.234   6.637  1.9900  1.0788  0.4639
 3595SOL    HW212525   4.501   6.189   6.723  0.7160 -0.5481  1.4007
 3596SOL     OW12526   1.211   5.407   5.023  0.4039 -0.1673  0.0802
 3596SOL    HW112527   1.270   5.442   5.090  0.1645  0.1594  0.1199
 3596SOL    HW212528   1.124   5.411   5.063  0.2870 -0.1662 -0.1756
 3597SOL     OW12529   3.490   9.048   1.712 -0.1709  0.1401 -0.3714
 3597SOL    HW112530   3.551   8.975   1.714  1.4893  1.4765  0.7054
 3597SOL    HW212531   3.431   9.033   1.786  0.6827  0.2857  0.3559
 3598SOL     OW12532   4.403   1.495   5.830  0.3594  0.9178 -0.0487
 3598SOL    HW112533   4.453   1.544   5.895  0.5606  0.9905 -0.2602
 3598SOL    HW212534   4.380   1.559   5.763 -1.4677  1.2822  0.8580
 3599SOL     OW12535   5.011   3.352   3.378 -0.2664 -0.1221  1.1376
 3599SOL    HW112536   5.068   3.279   3.356 -2.0443 -1.0279 -0.9814
 3599SOL    HW212537   4.986   3.389   3.293 -2.0379  0.8295  2.0062
 3600SOL     OW12538   2.625   4.701   6.216  0.2470 -0.2895  0.2401
 3600SOL    HW112539   2.536   4.707   6.252 -0.1459 -0.3398 -0.6952
 3600SOL    HW212540   2.682   4.730   6.288 -0.7022  2.7154 -0.0780
 3601SOL     OW12541   0.290   5.056   3.490 -0.1042 -0.7393 -0.4799
 3601SOL    HW112542   0.254   5.069   3.577  0.4548  1.5809 -0.5522
 3601SOL    HW212543   0.352   4.983   3.500 -0.9294 -1.3029  0.7545
 3602SOL     OW12544   4.197   7.884   9.571  0.1614 -0.3909  0.1163
 3602SOL    HW112545   4.167   7.807   9.619 -0.6789  1.2465  2.4187
 3602SOL    HW212546   4.122   7.911   9.520 -0.8864  0.9839  2.2368
 3603SOL     OW12547   2.665   9.452   9.434 -0.0195 -0.1692 -0.1375
 3603SOL    HW112548   2.733   9.387   9.420 -0.2296 -0.5861  0.6959
 3603SOL    HW212549   2.678   9.516   9.364 -0.1666 -1.3872 -1.3225
 3604SOL     OW12550   3.900   6.767   7.379 -0.0482  0.4497  0.2113
 3604SOL    HW112551   3.886   6.847   7.328  0.3342 -0.2052 -0.9556
 3604SOL    HW212552   3.852   6.699   7.331 -0.3779 -0.0334  1.1901
 3605SOL     OW12553   6.920   9.188   7.700 -0.2545  0.4970 -0.2288
 3605SOL    HW112554   7.014   9.206   7.700 -0.7504  3.7407 -1.0742
 3605SOL    HW212555   6.889   9.219   7.784 -0.5934 -0.6982  0.1073
 3606SOL     OW12556   0.242   0.220   9.593 -0.8150  0.0675  0.0316
 3606SOL    HW112557   0.314   0.271   9.629 -0.7835 -1.3140  2.1441
 3606SOL    HW212558   0.193   0.192   9.671 -0.3545 -3.7474 -0.8818
 3607SOL     OW12559   2.181   9.553   2.031 -0.2826 -0.1697  0.0777
 3607SOL    HW112560   2.125   9.542   2.107 -0.1619 -1.1364  0.0441
 3607SOL    HW212561   2.127   9.600   1.968 -0.9993 -0.9144  0.1215
 3608SOL     OW12562   1.566   8.544   5.082  0.1524  0.1123 -0.4852
 3608SOL    HW112563   1.592   8.602   5.011 -0.7451  0.9352 -0.1711
 3608SOL    HW212564   1.577   8.456   5.048  2.9016  0.3882 -0.5137
 3609SOL     OW12565   8.489   2.755   0.978  0.4374 -0.0560 -0.3785
 3609SOL    HW112566   8.445   2.839   0.964  0.5531  0.0073 -0.3685
 3609SOL    HW212567   8.546   2.770   1.053  0.5076 -0.1239 -0.4171
 3610SOL     OW12568   8.973   7.045   5.104 -0.2477 -0.5022 -0.1463
 3610SOL    HW112569   9.032   6.981   5.064 -0.5946 -1.3493  0.6624
 3610SOL    HW212570   9.016   7.130   5.090  1.7194 -1.1817  1.3182
 3611SOL     OW12571   6.248   5.342   5.107  0.5378  0.0502  0.2606
 3611SOL    HW112572   6.238   5.290   5.028  1.8808 -0.3952  0.3592
 3611SOL    HW212573   6.335   5.320   5.140  0.8562  1.7872  0.7133
 3612SOL     OW12574   8.862   2.103   8.631  0.2710 -0.1945 -0.5992
 3612SOL    HW112575   8.779   2.105   8.678  0.3329  1.4623 -0.4979
 3612SOL    HW212576   8.928   2.089   8.699  0.2428  0.7466 -0.3664
 3613SOL     OW12577   2.700   7.245   4.100 -0.2853  0.6985  0.5641
 3613SOL    HW112578   2.677   7.168   4.049  1.2042 -0.0864  1.0224
 3613SOL    HW212579   2.635   7.247   4.170 -0.1005 -0.3892  0.7848
 3614SOL     OW12580   4.492   3.059   3.371  0.9560 -0.3490  0.0055
 3614SOL    HW112581   4.546   3.115   3.315 -0.4542 -0.7158 -1.8482
 3614SOL    HW212582   4.511   3.087   3.460  0.3762  3.0601 -0.8127
 3615SOL     OW12583   7.086   4.723   2.129  0.0951 -0.1882  0.2599
 3615SOL    HW112584   7.086   4.628   2.119  1.3419 -0.1483 -0.3230
 3615SOL    HW212585   7.179   4.746   2.139  0.1385  1.1860 -2.2613
 3616SOL     OW12586   0.090   1.620   7.419 -0.1694  0.2626 -0.4722
 3616SOL    HW112587   0.122   1.545   7.369 -1.0528 -0.3713 -0.1154
 3616SOL    HW212588   0.156   1.688   7.406  0.6969 -0.6072 -0.7241
 3617SOL     OW12589   5.078   5.629   0.736 -0.3067  0.1728 -0.3493
 3617SOL    HW112590   5.051   5.537   0.734  0.2797  0.0060 -1.1326
 3617SOL    HW212591   5.056   5.663   0.650 -0.5331  0.7801 -0.0593
 3618SOL     OW12592   7.153   6.194   8.759  0.0344 -0.0044 -0.1402
 3618SOL    HW112593   7.175   6.104   8.782 -0.7846 -0.4170 -0.9017
 3618SOL    HW212594   7.181   6.246   8.834  1.5152 -0.7548 -0.1418
 3619SOL     OW12595   6.933   9.152   5.490 -0.1044  0.2663 -0.4362
 3619SOL    HW112596   6.907   9.164   5.399 -0.7366  3.9317  0.0798
 3619SOL    HW212597   6.864   9.193   5.541  2.0625  1.8246  1.4699
 3620SOL     OW12598   4.653   6.435   9.331  0.3339  0.0008  0.5522
 3620SOL    HW112599   4.691   6.351   9.358  1.5661  0.9932  2.0835
 3620SOL    HW212600   4.561   6.415   9.315  0.3916 -1.4845  1.7967
 3621SOL     OW12601   0.006   7.992   5.484 -0.1088  0.4672 -0.5132
 3621SOL    HW112602   0.073   8.042   5.438  1.8710 -0.1813  1.4662
 3621SOL    HW212603   0.055   7.922   5.529 -2.4397 -1.6811 -1.0967
 3622SOL     OW12604   3.785   7.071   6.169 -0.5482 -0.2669  0.0882
 3622SOL    HW112605   3.750   6.984   6.188 -1.7222  0.1419 -0.1193
 3622SOL    HW212606   3.720   7.111   6.112 -1.3539  1.6978  2.2376
 3623SOL     OW12607   3.709   2.939   0.001 -0.2886  0.3658  0.1991
 3623SOL    HW112608   3.680   2.890   0.078  0.1981 -0.3383 -0.0564
 3623SOL    HW212609   3.630   2.951  -0.052 -0.4929  0.2483  0.4781
 3624SOL     OW12610   5.222   6.013   5.619  0.0511 -0.4514  0.0073
 3624SOL    HW112611   5.129   5.996   5.632 -0.4089  0.8001 -1.3099
 3624SOL    HW212612   5.249   6.062   5.697 -0.9999  1.2121 -0.6230
 3625SOL     OW12613   6.925   7.891   1.161 -0.5116 -0.0187 -0.0313
 3625SOL    HW112614   7.013   7.908   1.195 -0.6974  1.1341 -0.0545
 3625SOL    HW212615   6.872   7.877   1.239 -0.4568  0.1040  0.0300
 3626SOL     OW12616   7.630   8.735   3.787  0.5347 -0.2538 -0.6082
 3626SOL    HW112617   7.668   8.768   3.868 -1.1055 -1.8722  0.9095
 3626SOL    HW212618   7.705   8.722   3.729  1.8006  0.5502  0.7816
 3627SOL     OW12619   2.028   5.001   5.517  0.6683  0.3802 -0.6013
 3627SOL    HW112620   2.027   4.910   5.545  1.5531  0.2150 -1.0746
 3627SOL    HW212621   1.994   5.000   5.427 -2.2084  0.9146  0.3496
 3628SOL     OW12622   2.444   5.483   3.378 -0.0699 -0.2504  0.4059
 3628SOL    HW112623   2.357   5.445   3.393 -0.1538 -0.3999 -0.3734
 3628SOL    HW212624   2.435   5.575   3.403 -0.6009 -0.1482 -0.1181
 3629SOL     OW12625   5.745   6.694   2.582 -0.7141 -0.1844  0.2161
 3629SOL    HW112626   5.793   6.644   2.648 -2.3248 -1.6900  0.3280
 3629SOL    HW212627   5.714   6.628   2.520 -0.1098  1.0889 -1.5221
 3630SOL     OW12628   6.610   8.782   7.023  0.2866 -0.1878  0.0499
 3630SOL    HW112629   6.572   8.694   7.031 -0.2808 -0.0067 -0.5796
 3630SOL    HW212630   6.557   8.825   6.956 -0.2894  1.1078  1.3097
 3631SOL     OW12631   4.021   7.315   4.473 -0.2889  0.1954  0.2242
 3631SOL    HW112632   3.973   7.258   4.533  1.2291  1.1602  2.4723
 3631SOL    HW212633   3.959   7.384   4.450 -1.2403 -0.7910 -0.2584
 3632SOL     OW12634   1.051   3.932   7.987  0.6182 -0.7880  0.0981
 3632SOL    HW112635   1.070   4.025   7.973 -0.3753 -0.4399  0.8392
 3632SOL    HW212636   1.108   3.885   7.926 -0.3163  0.3888 -1.7730
 3633SOL     OW12637   8.460   4.100   6.350  0.3416 -0.1483  0.9296
 3633SOL    HW112638   8.455   4.011   6.315 -0.2602 -0.5015  1.8641
 3633SOL    HW212639   8.376   4.113   6.394  0.5996  0.7173  1.1814
 3634SOL     OW12640   9.373   4.337   1.527 -0.1839 -0.1993  0.0508
 3634SOL    HW112641   9.344   4.249   1.552 -1.6420  0.6002  1.3108
 3634SOL    HW212642   9.468   4.333   1.533 -0.2491 -1.5171  0.7103
 3635SOL     OW12643   3.062   5.361   7.665 -0.2963 -0.1417 -0.3118
 3635SOL    HW112644   3.143   5.404   7.640  0.1378 -1.3692 -1.0555
 3635SOL    HW212645   3.089   5.278   7.703 -1.1793 -0.2701  0.0669
 3636SOL     OW12646   2.181   3.579   3.162  0.2249 -0.3664 -0.0268
 3636SOL    HW112647   2.200   3.655   3.217  0.5951  0.1597 -0.8592
 3636SOL    HW212648   2.123   3.613   3.094  0.1120 -0.9149 -0.2069
 3637SOL     OW12649   0.353   5.058   0.503  0.2715 -0.7812 -0.2630
 3637SOL    HW112650   0.286   5.106   0.455 -0.0120 -1.1509 -0.2436
 3637SOL    HW212651   0.356   4.972   0.461  0.6208 -0.8207 -0.1603
 3638SOL     OW12652   4.101   1.347   0.754 -0.3490 -0.7492 -0.3436
 3638SOL    HW112653   4.041   1.417   0.779 -1.2228 -1.3140 -0.8151
 3638SOL    HW212654   4.186   1.390   0.745 -0.9603  0.3474 -1.0889
 3639SOL     OW12655   3.930   3.975   1.194  0.2108 -0.5783 -0.0809
 3639SOL    HW112656   4.005   3.942   1.144  0.8507 -1.6380  1.4936
 3639SOL    HW212657   3.854   3.934   1.153  0.5615 -0.2206 -1.1205
 3640SOL     OW12658   7.037   1.879   6.467  0.4667  0.5469  0.0864
 3640SOL    HW112659   6.980   1.846   6.397  1.1014  0.1792 -0.2704
 3640SOL    HW212660   6.981   1.939   6.516  0.0286  0.8930 -0.7943
 3641SOL     OW12661   7.648   3.639   8.696 -0.2509  0.4585  0.2090
 3641SOL    HW112662   7.667   3.662   8.605 -0.6155  0.4354  0.1263
 3641SOL    HW212663   7.570   3.691   8.718 -0.0526  0.6037  0.5642
 3642SOL     OW12664   3.570   0.288   9.140  0.2559 -0.1123  0.2853
 3642SOL    HW112665   3.476   0.307   9.134  0.4791  0.8972 -0.1844
 3642SOL    HW212666   3.581   0.253   9.228 -0.7615 -1.4557 -0.0951
 3643SOL     OW12667   0.281   4.742   4.740  0.3343 -0.3663  0.2666
 3643SOL    HW112668   0.377   4.742   4.732  0.4026 -1.5399  0.8170
 3643SOL    HW212669   0.264   4.747   4.834 -0.1873  0.8667  0.1297
 3644SOL     OW12670   0.367   3.592   6.131 -0.2784  0.2591 -0.2796
 3644SOL    HW112671   0.291   3.539   6.153 -1.0774  2.2219  2.2006
 3644SOL    HW212672   0.439   3.552   6.180 -0.3905  0.1673 -0.1881
 3645SOL     OW12673   3.283   1.375   6.566  0.3687 -0.6365 -0.0429
 3645SOL    HW112674   3.279   1.320   6.488  0.8865 -0.9298  0.1274
 3645SOL    HW212675   3.230   1.328   6.631 -1.4160  0.4324 -0.6949
 3646SOL     OW12676   2.713   5.057   3.346 -0.4515  0.5341 -0.2759
 3646SOL    HW112677   2.763   5.070   3.427  2.1709 -3.7106 -0.9123
 3646SOL    HW212678   2.624   5.036   3.376 -0.4130  2.2938  1.2374
 3647SOL     OW12679   4.678   2.833   8.610  0.4568 -0.0751 -0.1467
 3647SOL    HW112680   4.646   2.865   8.525  0.1282  0.6498  0.2426
 3647SOL    HW212681   4.599   2.819   8.662  0.6961  2.9907  1.2779
 3648SOL     OW12682   8.843   6.106   9.610 -0.0494 -0.1325 -0.1982
 3648SOL    HW112683   8.807   6.018   9.610  3.4168 -1.7446 -1.1237
 3648SOL    HW212684   8.894   6.111   9.691 -1.1106  1.4958  0.4053
 3649SOL     OW12685   8.640   6.808   5.551  0.1787  0.3536  0.0314
 3649SOL    HW112686   8.670   6.718   5.539 -0.0578  0.4545 -1.4425
 3649SOL    HW212687   8.645   6.847   5.464 -0.7023  1.4706  0.4621
 3650SOL     OW12688   2.723   1.054   7.550  0.1857 -0.2138 -0.0702
 3650SOL    HW112689   2.654   1.116   7.526  0.2919 -0.2867 -0.5624
 3650SOL    HW212690   2.763   1.029   7.467 -0.8664 -2.1269 -0.0597
 3651SOL     OW12691   8.020   1.193   6.218  0.0025  0.0489 -0.6164
 3651SOL    HW112692   8.102   1.242   6.214  0.8521 -1.3624 -1.3694
 3651SOL    HW212693   7.954   1.252   6.181  0.8558  0.8673 -0.8591
 3652SOL     OW12694   0.426   1.354   1.630  0.1278  0.1943 -0.0918
 3652SOL    HW112695   0.465   1.307   1.704 -0.3248 -0.1464 -0.0669
 3652SOL    HW212696   0.386   1.286   1.576 -0.8784  0.5669  0.1515
 3653SOL     OW12697   6.546   7.574   3.809  0.2785  0.5124 -0.3529
 3653SOL    HW112698   6.621   7.532   3.852  0.7208  0.4818 -1.1354
 3653SOL    HW212699   6.505   7.625   3.878 -1.0722 -2.2030  0.9905
 3654SOL     OW12700   2.146   6.807   0.634 -0.2903 -0.1689 -0.2983
 3654SOL    HW112701   2.129   6.881   0.693  1.1755  0.2196 -0.3016
 3654SOL    HW212702   2.205   6.750   0.684  0.0826 -0.3892 -0.9802
 3655SOL     OW12703   8.679   7.132   7.573  0.3277 -0.5080 -0.0481
 3655SOL    HW112704   8.757   7.150   7.624 -0.0869 -1.5337  0.9868
 3655SOL    HW212705   8.667   7.037   7.580 -0.5600 -0.4710 -0.8455
 3656SOL     OW12706   9.332   9.613   1.071 -0.0748 -0.1492 -0.4928
 3656SOL    HW112707   9.332   9.683   1.005  2.2673  0.7980  0.4074
 3656SOL    HW212708   9.351   9.658   1.153 -0.3897 -1.6310  0.4244
 3657SOL     OW12709   8.442   3.609   6.077 -0.4792  0.0406 -0.8532
 3657SOL    HW112710   8.532   3.622   6.047 -0.4939 -0.7142 -1.2370
 3657SOL    HW212711   8.449   3.548   6.150 -0.8219 -1.5362 -2.0715
 3658SOL     OW12712   8.358   1.139   5.146 -0.4511 -0.1597 -0.1727
 3658SOL    HW112713   8.351   1.054   5.103 -1.8821  0.6588 -1.6701
 3658SOL    HW212714   8.435   1.131   5.203  1.2938 -1.4917 -2.5365
 3659SOL     OW12715   2.850   2.702   2.747  0.5792  0.4709  0.0946
 3659SOL    HW112716   2.830   2.794   2.731 -2.6741 -0.2698 -0.8650
 3659SOL    HW212717   2.891   2.672   2.665 -0.1524  0.6301 -0.3330
 3660SOL     OW12718   8.545   3.861   8.163 -0.8277 -0.1271  0.0272
 3660SOL    HW112719   8.565   3.768   8.171 -0.9125 -0.3365 -1.8195
 3660SOL    HW212720   8.521   3.888   8.252 -0.9248 -1.8854  0.5725
 3661SOL     OW12721   9.335   2.742   9.011  0.1082 -0.3506  0.2243
 3661SOL    HW112722   9.356   2.665   9.064  0.5903 -0.1886  0.2706
 3661SOL    HW212723   9.401   2.741   8.941 -0.3822 -0.4368 -0.2405
 3662SOL     OW12724   6.366   2.064   6.741 -0.7157 -0.3783 -0.0505
 3662SOL    HW112725   6.286   2.038   6.695 -0.5383 -0.8502 -0.1024
 3662SOL    HW212726   6.436   2.018   6.694 -0.5728 -1.1905  0.9407
 3663SOL     OW12727   6.802   2.879   0.104  0.1570  0.2401 -0.4007
 3663SOL    HW112728   6.732   2.867   0.040  1.9731 -0.9708 -2.2601
 3663SOL    HW212729   6.873   2.919   0.054  2.1333 -1.9954  0.4769
 3664SOL     OW12730   9.552   7.067   0.469 -0.4972  0.3115  0.0487
 3664SOL    HW112731   9.609   7.102   0.539 -2.4949 -0.0121  1.9526
 3664SOL    HW212732   9.564   6.972   0.474  0.0684  0.3364 -0.7264
 3665SOL     OW12733   8.716   1.865   5.459 -0.1657 -0.0613  0.1904
 3665SOL    HW112734   8.795   1.884   5.509  0.5446 -0.7526 -0.6352
 3665SOL    HW212735   8.706   1.940   5.401  0.4355 -0.3931 -0.3590
 3666SOL     OW12736   6.255   9.140   7.500 -0.3737 -0.1303  0.8209
 3666SOL    HW112737   6.265   9.102   7.412  0.1073  0.4222  0.6325
 3666SOL    HW212738   6.291   9.073   7.558  0.3795 -0.0209  0.4980
 3667SOL     OW12739   1.709   2.389   7.763  0.7082 -0.2869 -0.5605
 3667SOL    HW112740   1.694   2.484   7.765  1.4923 -0.1559 -0.1874
 3667SOL    HW212741   1.727   2.367   7.855 -1.3380 -1.1382 -0.3150
 3668SOL     OW12742   0.988   4.406   2.317 -0.0788 -0.0683 -0.0718
 3668SOL    HW112743   1.046   4.329   2.316 -0.0755 -0.0792 -1.3306
 3668SOL    HW212744   0.969   4.420   2.409  0.1900 -1.3863  0.2168
 3669SOL     OW12745   6.057   1.048   4.334  0.0105  0.1893 -0.1381
 3669SOL    HW112746   6.089   1.134   4.306  0.5864  0.3892  1.1068
 3669SOL    HW212747   6.107   0.985   4.281  0.0615  0.6010 -0.5798
 3670SOL     OW12748   6.545   2.367   7.645 -0.3345  0.1809 -0.2052
 3670SOL    HW112749   6.512   2.409   7.725  1.6885  2.2787 -0.3815
 3670SOL    HW212750   6.494   2.406   7.574 -0.3491  0.2672 -0.1475
 3671SOL     OW12751   6.410   1.081   6.197 -0.3970 -0.5502 -0.7401
 3671SOL    HW112752   6.503   1.093   6.178 -0.3480  1.6886  0.6320
 3671SOL    HW212753   6.365   1.120   6.123 -0.2062  1.1968  0.0269
 3672SOL     OW12754   2.345   6.113   5.067  0.3561  0.4918 -0.0415
 3672SOL    HW112755   2.390   6.028   5.070 -3.3027 -1.6574  3.3995
 3672SOL    HW212756   2.273   6.100   5.006  0.5158  1.6093 -0.4827
 3673SOL     OW12757   4.944   0.642   6.739  0.6261  0.1562  0.1015
 3673SOL    HW112758   4.888   0.684   6.673 -1.4638 -1.1391  0.9453
 3673SOL    HW212759   4.882   0.601   6.800  2.4775  0.5140  2.3794
 3674SOL     OW12760   4.504   7.237   5.370 -0.2252 -0.2994  0.0729
 3674SOL    HW112761   4.549   7.231   5.285 -1.1334 -1.5691 -0.3565
 3674SOL    HW212762   4.484   7.146   5.392 -0.5153  0.0672  1.3810
 3675SOL     OW12763   0.456   5.809   4.869  0.2687 -0.5624  0.2478
 3675SOL    HW112764   0.410   5.821   4.786  1.7321 -1.9745 -0.8481
 3675SOL    HW212765   0.482   5.897   4.896 -3.3619  0.3872  1.2022
 3676SOL     OW12766   8.321   6.102   5.739  0.1079  0.0870  0.3155
 3676SOL    HW112767   8.339   6.187   5.699 -1.0874  0.2922  0.1648
 3676SOL    HW212768   8.258   6.061   5.679 -1.4412  0.2461  1.7787
 3677SOL     OW12769   8.643   7.542   0.679  0.3313  0.3019 -0.3370
 3677SOL    HW112770   8.583   7.582   0.616  0.7628 -1.1282 -1.7083
 3677SOL    HW212771   8.728   7.581   0.659  0.2394  0.8548  0.2964
 3678SOL     OW12772   2.649   7.398   8.174  0.3794  0.4882 -0.1549
 3678SOL    HW112773   2.610   7.485   8.188  0.7428  0.8904 -1.4771
 3678SOL    HW212774   2.701   7.408   8.094 -0.6413 -1.2884 -1.1022
 3679SOL     OW12775   2.469   5.195   5.772 -0.0793  0.0788 -0.3288
 3679SOL    HW112776   2.427   5.140   5.706  0.6893  0.1010 -0.8507
 3679SOL    HW212777   2.401   5.255   5.801 -0.8048 -0.8307 -0.0951
 3680SOL     OW12778   4.505   5.053   2.857 -0.2431 -0.7011 -0.1039
 3680SOL    HW112779   4.591   5.023   2.830  0.4892  0.7442  0.4828
 3680SOL    HW212780   4.507   5.049   2.953 -0.0438  1.2219  0.0236
 3681SOL     OW12781   9.391   6.202   7.977  0.8045  0.3553  0.2769
 3681SOL    HW112782   9.445   6.187   7.900  3.4689  1.5111  1.8007
 3681SOL    HW212783   9.336   6.277   7.954 -0.2310 -0.8052 -1.2716
 3682SOL     OW12784   7.325   7.094   6.648  0.1894 -0.3070 -0.5202
 3682SOL    HW112785   7.397   7.056   6.598  1.6248 -1.1099  1.9750
 3682SOL    HW212786   7.365   7.166   6.697 -0.7911 -0.4574  0.5387
 3683SOL     OW12787   9.227   6.079   6.782 -0.8072  0.4094  0.6321
 3683SOL    HW112788   9.219   6.070   6.687  0.4220 -0.6519  0.6000
 3683SOL    HW212789   9.140   6.107   6.811 -1.5942 -0.5739 -0.6628
 3684SOL     OW12790   5.283   0.358   8.585 -0.0560  0.2746 -0.4176
 3684SOL    HW112791   5.223   0.290   8.618  0.5196  0.0785  0.2635
 3684SOL    HW212792   5.320   0.321   8.506 -0.3435  0.1225 -0.4830
 3685SOL     OW12793   6.183   8.309   4.182  0.3767  0.1665  0.0332
 3685SOL    HW112794   6.254   8.304   4.246  0.2428  0.2501  0.1855
 3685SOL    HW212795   6.199   8.391   4.135 -1.2306  1.6663  1.9424
 3686SOL     OW12796   7.402   1.537   1.377  0.0506  0.5415  0.0809
 3686SOL    HW112797   7.350   1.513   1.454  1.4144 -2.1177  0.2802
 3686SOL    HW212798   7.403   1.458   1.323  0.4897  1.8430 -1.9177
 3687SOL     OW12799   4.848   1.310   7.164 -0.2761 -0.1486  0.0280
 3687SOL    HW112800   4.841   1.387   7.108  0.5689 -0.4064 -0.4422
 3687SOL    HW212801   4.761   1.300   7.202 -0.8829  0.0115 -1.2676
 3688SOL     OW12802   0.495   0.130   6.443  0.2515  0.7443 -0.3031
 3688SOL    HW112803   0.473   0.053   6.495  0.4581  0.4139 -0.6991
 3688SOL    HW212804   0.414   0.152   6.397  0.4393  0.2083 -0.8945
 3689SOL     OW12805   1.286   0.964   4.507 -0.0252 -0.1400  0.1494
 3689SOL    HW112806   1.251   1.009   4.584 -0.7088 -0.0354 -0.2225
 3689SOL    HW212807   1.328   1.034   4.456  1.3740 -0.3721  0.9381
 3690SOL     OW12808   0.126   7.199   0.650  0.3419 -0.2474 -0.2660
 3690SOL    HW112809   0.149   7.153   0.730 -1.7803 -1.3783 -0.2225
 3690SOL    HW212810   0.208   7.236   0.619  1.3094 -0.2013  2.1411
 3691SOL     OW12811   5.932   4.218   5.689  0.1161 -0.0915 -0.3650
 3691SOL    HW112812   6.005   4.260   5.644  0.7973 -1.0696 -0.1969
 3691SOL    HW212813   5.883   4.174   5.619  0.4172 -0.4971 -0.3244
 3692SOL     OW12814   0.311   0.602   0.775  0.0171  0.3436  0.6205
 3692SOL    HW112815   0.295   0.611   0.869 -0.8462 -1.6463  0.7172
 3692SOL    HW212816   0.328   0.508   0.763 -1.9567  0.1670 -1.4752
 3693SOL     OW12817   7.056   0.918   7.822 -0.0445  0.2987 -0.1122
 3693SOL    HW112818   7.141   0.953   7.793 -0.1858  0.8682  0.1457
 3693SOL    HW212819   6.997   0.936   7.749  0.0850 -0.2590 -0.3664
 3694SOL     OW12820   3.472   3.927   2.132 -0.1626  0.2175  0.0035
 3694SOL    HW112821   3.524   3.946   2.210 -0.3379  1.4630 -0.1576
 3694SOL    HW212822   3.532   3.937   2.059 -0.0667 -0.6756 -0.0512
 3695SOL     OW12823   6.591   0.035   1.660 -0.2515 -0.3577  0.0870
 3695SOL    HW112824   6.528  -0.023   1.703 -1.6707  0.6870 -0.5113
 3695SOL    HW212825   6.593   0.114   1.714 -0.8068  0.3084 -0.8327
 3696SOL     OW12826   4.826   7.808   7.347  0.3173  0.0740  0.3086
 3696SOL    HW112827   4.845   7.769   7.262  1.1689  1.9584 -0.4325
 3696SOL    HW212828   4.774   7.886   7.327 -1.4371 -0.6571  1.7267
 3697SOL     OW12829   9.307   5.727   7.277 -0.4093 -0.3014  0.0793
 3697SOL    HW112830   9.334   5.670   7.349 -1.1021  0.2119  0.7572
 3697SOL    HW212831   9.233   5.682   7.236  1.3630 -1.7487 -1.8336
 3698SOL     OW12832   0.389   6.655   1.736  0.6846 -0.6390 -0.1351
 3698SOL    HW112833   0.416   6.744   1.759 -3.1902  1.1988 -1.7605
 3698SOL    HW212834   0.422   6.641   1.647 -1.4206  0.6537 -1.1995
 3699SOL     OW12835   9.473   4.880   5.378  0.5111 -0.3204  0.2613
 3699SOL    HW112836   9.540   4.934   5.419 -0.8593  1.9809 -0.3277
 3699SOL    HW212837   9.487   4.892   5.284 -0.6153  0.0569  0.1310
 3700SOL     OW12838   8.794   0.414   9.499  0.4352 -0.4457 -0.4583
 3700SOL    HW112839   8.836   0.350   9.558 -1.6510 -1.6282 -0.1711
 3700SOL    HW212840   8.714   0.439   9.545  2.0070  3.9356  0.3485
 3701SOL     OW12841   3.806   8.451   5.908 -0.3711 -0.1295 -0.1920
 3701SOL    HW112842   3.714   8.468   5.890 -0.1011  1.4446 -0.2481
 3701SOL    HW212843   3.815   8.465   6.002 -0.0263  0.5511 -0.3255
 3702SOL     OW12844   5.784   4.524   8.547 -0.0614  0.1267 -0.0756
 3702SOL    HW112845   5.710   4.584   8.537  0.9220  1.3482 -0.1955
 3702SOL    HW212846   5.850   4.575   8.594  0.3314 -1.2786  0.9728
 3703SOL     OW12847   2.198   8.711   6.145 -0.4723 -0.0710  0.0568
 3703SOL    HW112848   2.252   8.677   6.074  1.5950  1.6151  0.7110
 3703SOL    HW212849   2.176   8.635   6.198 -0.9726 -1.1690 -1.6439
 3704SOL     OW12850   9.007   3.987   8.437 -0.4358 -0.0448 -0.1269
 3704SOL    HW112851   9.001   4.034   8.520  2.0133  0.3156 -0.0659
 3704SOL    HW212852   9.004   3.894   8.462 -0.6688  0.0615  0.2473
 3705SOL     OW12853   9.074   8.352   9.164  0.0503  0.4161  0.8470
 3705SOL    HW112854   9.148   8.340   9.104 -1.3722 -1.0634 -0.6920
 3705SOL    HW212855   9.114   8.352   9.251  1.9623  0.6717  0.0169
 3706SOL     OW12856   3.115   1.535   4.008 -0.1231 -0.8833 -0.5136
 3706SOL    HW112857   3.038   1.545   3.952 -0.3572 -1.0307 -0.2175
 3706SOL    HW212858   3.145   1.624   4.026 -1.7012 -0.6879  1.4305
 3707SOL     OW12859   6.565   3.602   4.141  0.0675  0.2081  0.5085
 3707SOL    HW112860   6.591   3.692   4.161 -1.8879  0.8710  0.2945
 3707SOL    HW212861   6.475   3.610   4.109 -0.9117 -2.0518  2.4558
 3708SOL     OW12862   2.210   3.731   6.151 -0.1816  0.1396  0.1296
 3708SOL    HW112863   2.197   3.709   6.059 -0.9186 -0.7603  0.4206
 3708SOL    HW212864   2.146   3.800   6.169 -1.1508 -0.7705  0.3217
 3709SOL     OW12865   9.563   4.966   5.107  0.4049 -0.1526  0.0094
 3709SOL    HW112866   9.479   5.005   5.084  0.4679 -0.5997 -1.0759
 3709SOL    HW212867   9.624   5.039   5.108  0.0451  0.1469  0.6158
 3710SOL     OW12868   4.025   5.839   9.579  0.0612  0.0106 -0.1631
 3710SOL    HW112869   3.936   5.806   9.586 -1.0482  2.3036 -1.8070
 3710SOL    HW212870   4.077   5.764   9.551 -1.8663 -0.8775 -1.6000
 3711SOL     OW12871   8.739   8.303   5.748 -0.0864  0.2200 -0.4518
 3711SOL    HW112872   8.746   8.266   5.660  1.9458  0.7390 -0.5731
 3711SOL    HW212873   8.760   8.396   5.737  1.6603  0.0154  0.7264
 3712SOL     OW12874   2.372   4.747   7.301  0.8769 -0.2950  0.5229
 3712SOL    HW112875   2.280   4.723   7.293  1.1475 -1.5250  0.8425
 3712SOL    HW212876   2.398   4.714   7.388  1.4103  0.7654  0.7862
 3713SOL     OW12877   0.555   6.674   8.417  0.4330  0.1983 -0.0433
 3713SOL    HW112878   0.478   6.690   8.363 -0.6097 -1.9803  0.6652
 3713SOL    HW212879   0.544   6.733   8.492 -0.1859  0.3835 -0.2721
 3714SOL     OW12880   0.511   3.077   8.241 -0.1800 -0.6751  0.2131
 3714SOL    HW112881   0.523   2.998   8.188  1.3987 -0.2680 -0.0812
 3714SOL    HW212882   0.482   3.044   8.326 -1.9822 -1.3833 -0.6208
 3715SOL     OW12883   4.712   5.458   0.391 -0.1494 -0.5062 -0.1831
 3715SOL    HW112884   4.636   5.459   0.449  0.2419  0.3366  0.3312
 3715SOL    HW212885   4.757   5.541   0.408 -0.6204  0.3040 -2.4752
 3716SOL     OW12886   3.755   5.872   3.176  0.3134  0.4378 -0.2354
 3716SOL    HW112887   3.752   5.920   3.093 -0.2282 -0.4746 -0.7690
 3716SOL    HW212888   3.836   5.900   3.218  1.3205 -0.1357 -1.7347
 3717SOL     OW12889   6.675   8.567   5.887 -0.1591  0.3128 -0.5601
 3717SOL    HW112890   6.767   8.548   5.902 -0.5511 -0.8725  0.5389
 3717SOL    HW212891   6.638   8.484   5.856 -0.7946  0.8677 -1.3244
 3718SOL     OW12892   9.329   6.974   1.306  0.3724 -0.2566 -0.0309
 3718SOL    HW112893   9.358   7.056   1.265  2.3030  0.5612  2.6204
 3718SOL    HW212894   9.274   7.003   1.379  0.1419 -1.3806  0.2537
 3719SOL     OW12895   1.813   0.815   7.864 -0.0505 -0.2997  0.6663
 3719SOL    HW112896   1.799   0.831   7.957 -0.4073  1.2025  0.3783
 3719SOL    HW212897   1.898   0.854   7.846 -0.1104 -0.3319  0.3099
 3720SOL     OW12898   8.909   7.263   8.575 -0.5511 -0.2752  0.0982
 3720SOL    HW112899   8.957   7.251   8.657  1.4262 -1.2366 -1.1296
 3720SOL    HW212900   8.914   7.178   8.532  0.5712  0.7924 -2.0562
 3721SOL     OW12901   4.043   6.778   1.927 -0.0808 -0.8220 -0.4234
 3721SOL    HW112902   3.982   6.848   1.907 -0.4813 -1.3217 -0.9717
 3721SOL    HW212903   3.992   6.698   1.919  0.3415 -1.1759  0.3088
 3722SOL     OW12904   2.586   1.159   5.640  0.3868  0.5312  0.5793
 3722SOL    HW112905   2.580   1.254   5.641  1.0791  0.6267 -1.4762
 3722SOL    HW212906   2.648   1.139   5.570 -0.5755 -1.4706  0.2249
 3723SOL     OW12907   7.030   5.118   2.655 -0.6563  0.6184  0.1696
 3723SOL    HW112908   7.002   5.031   2.683  0.7189 -0.1923 -0.8926
 3723SOL    HW212909   6.957   5.175   2.679 -1.1729 -0.6475  1.7904
 3724SOL     OW12910   2.331   0.972   8.819 -0.0157 -0.5790  0.3497
 3724SOL    HW112911   2.356   0.960   8.728  1.5763  1.7331  0.3772
 3724SOL    HW212912   2.355   0.890   8.862  2.9611 -0.3747 -0.6528
 3725SOL     OW12913   7.026   6.022   2.345  0.0244  0.8158 -0.5270
 3725SOL    HW112914   7.016   6.004   2.252 -0.2416  1.9016 -0.7318
 3725SOL    HW212915   6.952   6.080   2.366 -0.7380 -0.5286  0.6903
 3726SOL     OW12916   6.821   4.367   1.546  0.1152 -0.2029  0.2509
 3726SOL    HW112917   6.915   4.352   1.548  0.0032 -1.6969 -1.8688
 3726SOL    HW212918   6.785   4.291   1.499 -2.0439  0.7560  0.1945
 3727SOL     OW12919   5.022   0.368   7.273  0.0979  0.3140 -0.3845
 3727SOL    HW112920   4.964   0.373   7.197 -0.8492  0.0238  0.3057
 3727SOL    HW212921   5.099   0.418   7.247  0.4927 -1.1202 -2.1449
 3728SOL     OW12922   6.285   6.901   3.058  0.1323  0.6568  0.1957
 3728SOL    HW112923   6.257   6.988   3.029 -0.6428  0.8765  1.5251
 3728SOL    HW212924   6.212   6.844   3.034  1.2133  0.0522 -1.9637
 3729SOL     OW12925   4.399   0.694   4.784  0.3106  0.3833  0.1691
 3729SOL    HW112926   4.352   0.690   4.868 -0.7933 -0.8497 -0.4778
 3729SOL    HW212927   4.411   0.603   4.759 -0.8559  0.7221 -1.8107
 3730SOL     OW12928   4.143   5.835   8.210 -0.4342  0.4814 -0.2730
 3730SOL    HW112929   4.221   5.885   8.233  0.8991 -1.7917  0.4319
 3730SOL    HW212930   4.087   5.841   8.288  1.9081 -3.0815  1.9434
 3731SOL     OW12931   3.341   9.262   0.100  0.0193  0.4143 -0.5628
 3731SOL    HW112932   3.334   9.347   0.142 -0.2463  0.0464  0.1508
 3731SOL    HW212933   3.321   9.199   0.169 -2.6818 -0.1588 -1.7470
 3732SOL     OW12934   1.501   3.453   5.884 -0.3157  0.1061  0.4018
 3732SOL    HW112935   1.564   3.466   5.955 -0.7385 -0.7610  0.9428
 3732SOL    HW212936   1.434   3.395   5.920  0.6533 -2.2899 -1.4084
 3733SOL     OW12937   8.970   6.929   7.488 -0.1461  0.6095  0.8588
 3733SOL    HW112938   8.923   6.901   7.567  0.2893  0.3221  1.0209
 3733SOL    HW212939   9.063   6.922   7.512  0.0430 -1.2390 -0.2670
 3734SOL     OW12940   0.161   2.029   3.522 -0.1962 -0.1366 -0.3285
 3734SOL    HW112941   0.084   2.009   3.574  0.3835 -0.5117  0.4057
 3734SOL    HW212942   0.171   1.953   3.464  0.0140 -0.4055  0.0564
 3735SOL     OW12943   5.473   7.392   0.106  0.2927 -0.2295  0.2771
 3735SOL    HW112944   5.512   7.408   0.192 -1.0892 -0.6869  1.0144
 3735SOL    HW212945   5.524   7.447   0.046  2.6280 -1.4363  1.0233
 3736SOL     OW12946   5.474   8.363   6.813  0.2074  0.2969 -0.2193
 3736SOL    HW112947   5.516   8.277   6.812 -1.6156 -0.6444  0.4401
 3736SOL    HW212948   5.508   8.406   6.892 -0.6555 -0.7788  0.7652
 3737SOL     OW12949   4.315   2.439   5.852 -0.1620  0.0798 -0.1757
 3737SOL    HW112950   4.267   2.358   5.873 -1.5352  0.5563 -1.2603
 3737SOL    HW212951   4.382   2.411   5.790 -0.8988 -0.1988 -0.8752
 3738SOL     OW12952   4.888   5.291   7.182 -0.1955  0.0556  0.7194
 3738SOL    HW112953   4.852   5.302   7.094  0.5590 -0.0658  0.3866
 3738SOL    HW212954   4.819   5.323   7.241 -0.3427  1.0372  0.0438
 3739SOL     OW12955   7.842   8.804   2.886  0.6833  0.1631 -0.0199
 3739SOL    HW112956   7.759   8.827   2.846  0.1856 -0.4165  0.6509
 3739SOL    HW212957   7.894   8.884   2.882  0.3808  0.3211 -1.1323
 3740SOL     OW12958   6.667   4.485   5.339 -0.7966 -0.1479 -0.2575
 3740SOL    HW112959   6.579   4.447   5.349 -1.5260  1.4443 -0.4154
 3740SOL    HW212960   6.660   4.573   5.376  0.9772 -0.2688  0.4931
 3741SOL     OW12961   1.377   0.748   8.968  0.5250 -0.3195 -0.1284
 3741SOL    HW112962   1.440   0.820   8.967 -0.5048  0.5806 -0.9213
 3741SOL    HW212963   1.305   0.779   9.022  1.2493 -1.8231  1.8146
 3742SOL     OW12964   5.320   8.673   7.705 -0.4225 -0.0242  0.1452
 3742SOL    HW112965   5.316   8.767   7.723 -1.1667 -0.5547  3.3090
 3742SOL    HW212966   5.412   8.657   7.684 -0.5428  1.5564 -1.9156
 3743SOL     OW12967   7.553   4.769   6.536 -0.3206  0.1252  0.2732
 3743SOL    HW112968   7.573   4.730   6.451 -1.0239 -1.7087  0.9027
 3743SOL    HW212969   7.632   4.819   6.558  0.0684  0.2128 -1.2146
 3744SOL     OW12970   9.110   3.881   1.196 -1.1129 -0.4377  0.4580
 3744SOL    HW112971   9.053   3.854   1.268 -1.0880  0.9369  1.0075
 3744SOL    HW212972   9.172   3.808   1.186 -0.7014 -0.3634  2.2597
 3745SOL     OW12973   4.819   0.608   3.289 -0.2604  0.5985 -0.2953
 3745SOL    HW112974   4.815   0.611   3.194 -0.5817  1.0143 -0.2718
 3745SOL    HW212975   4.786   0.522   3.312 -0.9773  0.8039 -0.5225
 3746SOL     OW12976   8.684   7.361   3.249 -0.3523  0.1839  0.5072
 3746SOL    HW112977   8.625   7.305   3.299 -0.2168  1.6358  2.4046
 3746SOL    HW212978   8.770   7.347   3.289  0.0069  0.4244 -0.1631
 3747SOL     OW12979   0.204   4.578   8.390 -0.5862  0.1277  0.0766
 3747SOL    HW112980   0.223   4.669   8.410 -3.8260  0.7812  0.6888
 3747SOL    HW212981   0.151   4.581   8.310 -1.6233 -1.0939  0.6826
 3748SOL     OW12982   9.154   9.266   8.399  0.0879 -0.2322  0.2045
 3748SOL    HW112983   9.169   9.285   8.491  0.4053 -0.8180  0.2751
 3748SOL    HW212984   9.093   9.334   8.370  1.4936  1.1511  0.3532
 3749SOL     OW12985   3.086   6.087   0.909  0.1438  0.0914 -0.0453
 3749SOL    HW112986   3.153   6.090   0.841  0.2007  3.0011  0.0113
 3749SOL    HW212987   3.003   6.091   0.861  0.1374  0.1691 -0.0292
 3750SOL     OW12988   1.282   3.215   7.389  0.4823 -0.5975 -0.0374
 3750SOL    HW112989   1.371   3.244   7.408  0.5183 -0.8987  0.2547
 3750SOL    HW212990   1.278   3.212   7.293  0.2058  1.2214 -0.1111
 3751SOL     OW12991   2.182   4.086   3.149  0.2137  0.4694  0.4313
 3751SOL    HW112992   2.220   4.004   3.180  0.1446  0.4040  0.3418
 3751SOL    HW212993   2.151   4.130   3.228  0.5760  0.5739  0.5177
 3752SOL     OW12994   4.406   3.755   0.708  0.3712  0.0529  0.0343
 3752SOL    HW112995   4.391   3.810   0.631 -1.4504  1.2408  1.1584
 3752SOL    HW212996   4.396   3.665   0.675  0.8936  0.4651 -1.3318
 3753SOL     OW12997   9.388   3.219   8.137  0.2814 -0.2326  0.5666
 3753SOL    HW112998   9.449   3.194   8.207  0.9191 -0.2261  0.0183
 3753SOL    HW212999   9.437   3.203   8.056 -0.5135 -0.3951  0.1165
 3754SOL     OW13000   2.796   3.381   2.074  0.3798  0.1006  0.4784
 3754SOL    HW113001   2.845   3.441   2.018  0.3567 -0.9191 -0.6917
 3754SOL    HW213002   2.708   3.381   2.037 -0.2236  1.0481  1.8658
 3755SOL     OW13003   9.106   2.695   5.198  0.3636  0.3505  0.5741
 3755SOL    HW113004   9.029   2.667   5.149  0.4767 -0.0218  0.6051
 3755SOL    HW213005   9.097   2.790   5.206 -0.7097  0.1713  1.6355
 3756SOL     OW13006   8.816   3.199   1.504  0.3560 -0.1466  0.4119
 3756SOL    HW113007   8.852   3.241   1.582  0.3289  0.8493 -0.0921
 3756SOL    HW213008   8.755   3.134   1.538 -2.2561  2.5189  1.2730
 3757SOL     OW13009   4.640   7.622   3.937 -0.5026 -0.2963 -0.3615
 3757SOL    HW113010   4.608   7.648   3.851  1.9456 -1.6289 -1.8083
 3757SOL    HW213011   4.707   7.687   3.959 -0.6585 -0.3295  0.2369
 3758SOL     OW13012   7.222   1.658   5.754  0.0048  0.1199 -0.2079
 3758SOL    HW113013   7.292   1.686   5.812  0.2455  1.5215 -1.1148
 3758SOL    HW213014   7.180   1.585   5.799  0.4920  0.8389  1.4623
 3759SOL     OW13015   6.920   2.702   0.714  0.3923  0.0219  0.3559
 3759SOL    HW113016   6.915   2.791   0.749 -0.0717  0.7925 -1.5722
 3759SOL    HW213017   6.977   2.709   0.638 -2.2570 -0.5833 -1.8229
 3760SOL     OW13018   8.415   3.474   0.380  0.0043  0.2004 -0.6561
 3760SOL    HW113019   8.415   3.500   0.288 -1.5230  1.3262 -0.3695
 3760SOL    HW213020   8.502   3.497   0.412  0.6438 -0.4576 -1.8709
 3761SOL     OW13021   1.071   1.383   9.367 -1.2407  0.0075  0.5913
 3761SOL    HW113022   1.138   1.450   9.355  0.0233 -0.9420  1.9776
 3761SOL    HW213023   0.999   1.410   9.310 -0.0103  1.4967 -0.3208
 3762SOL     OW13024   2.005   2.319   5.364 -0.0809 -0.0632  0.0324
 3762SOL    HW113025   2.021   2.377   5.290  1.5083  1.2996  1.3847
 3762SOL    HW213026   2.075   2.254   5.359 -0.8024 -0.8416 -0.4233
 3763SOL     OW13027   0.277   2.471   1.968 -0.9909  0.1162  0.1740
 3763SOL    HW113028   0.370   2.458   1.949 -0.9475  0.5363  0.0906
 3763SOL    HW213029   0.234   2.460   1.883 -1.1222 -0.9766  0.3631
 3764SOL     OW13030   8.395   4.669   1.700 -0.6605  0.3952  0.0530
 3764SOL    HW113031   8.383   4.681   1.795 -1.4492 -0.4071  0.0702
 3764SOL    HW213032   8.468   4.608   1.693 -1.8946 -1.1665  0.2387
 3765SOL     OW13033   0.611   8.870   0.972  0.4848  0.1054  0.0716
 3765SOL    HW113034   0.621   8.793   1.028  0.3320 -0.1263 -0.2165
 3765SOL    HW213035   0.639   8.841   0.886 -1.5071 -0.2545 -0.5160
 3766SOL     OW13036   4.482   8.034   7.800  0.0822  0.7938 -0.1965
 3766SOL    HW113037   4.510   8.037   7.891  0.1955  0.5635 -0.2239
 3766SOL    HW213038   4.388   8.015   7.804  0.3520 -0.6993 -0.1563
 3767SOL     OW13039   6.426   1.363   5.381 -0.4635 -0.0009 -0.3808
 3767SOL    HW113040   6.391   1.346   5.294  0.3817  0.2107 -0.7805
 3767SOL    HW213041   6.461   1.453   5.375  1.0595 -0.5575 -0.3430
 3768SOL     OW13042   8.859   6.388   7.434  0.4163  0.3165 -0.0258
 3768SOL    HW113043   8.903   6.462   7.394  1.3127  0.0529  0.4244
 3768SOL    HW213044   8.856   6.409   7.527 -0.4356  0.3281 -0.0451
 3769SOL     OW13045   6.665   1.986   6.348  0.4491  0.1481  0.3323
 3769SOL    HW113046   6.743   1.954   6.302  0.1889  0.7157 -0.5360
 3769SOL    HW213047   6.624   2.045   6.285 -0.7057 -0.1798  0.7645
 3770SOL     OW13048   3.686   4.235   9.331 -0.5015 -0.0441  0.0982
 3770SOL    HW113049   3.618   4.199   9.388  0.6929  0.1037  1.6909
 3770SOL    HW213050   3.689   4.175   9.256 -0.6732 -1.4917  1.2011
 3771SOL     OW13051   6.370   0.803   6.333  0.1693 -0.2389 -0.2142
 3771SOL    HW113052   6.370   0.734   6.266 -0.0478 -0.0879 -0.3710
 3771SOL    HW213053   6.397   0.882   6.286 -1.0391  0.1010 -0.3749
 3772SOL     OW13054   6.809   3.029   7.704 -0.3734 -0.1806  0.0826
 3772SOL    HW113055   6.831   2.981   7.784  2.4720  0.9670  0.0935
 3772SOL    HW213056   6.859   3.110   7.711 -0.9620  0.4569 -2.3657
 3773SOL     OW13057   4.777   6.497   0.348 -0.2132 -0.3086 -0.1817
 3773SOL    HW113058   4.754   6.489   0.256  1.7221 -0.2117 -0.7317
 3773SOL    HW213059   4.770   6.591   0.367  0.2359 -0.1987 -0.5128
 3774SOL     OW13060   7.980   6.451   7.918  0.4697  0.0312  0.5203
 3774SOL    HW113061   7.949   6.541   7.927 -0.4014 -0.4081  2.5574
 3774SOL    HW213062   7.923   6.413   7.851  1.6246  1.2612 -1.2499
 3775SOL     OW13063   8.998   7.013   1.339  0.3271  0.0171  0.0054
 3775SOL    HW113064   9.048   7.034   1.418  0.5362 -0.9810  0.1444
 3775SOL    HW213065   9.059   7.027   1.267  0.1540  0.8682  0.0062
 3776SOL     OW13066   6.185   7.466   8.962 -0.5192  0.5632  0.0807
 3776SOL    HW113067   6.271   7.490   8.996 -1.3121  1.2312  1.7317
 3776SOL    HW213068   6.190   7.487   8.868  1.3119 -0.0693  0.0024
 3777SOL     OW13069   7.317   6.362   8.902 -0.2327 -0.3101  0.4063
 3777SOL    HW113070   7.390   6.312   8.866 -1.5335 -1.6648 -0.4582
 3777SOL    HW213071   7.335   6.452   8.876  0.0174 -0.9279 -1.7816
 3778SOL     OW13072   2.947   4.327   5.560 -0.2184 -0.7876  0.5500
 3778SOL    HW113073   2.956   4.406   5.614  0.0640 -0.4488  0.0105
 3778SOL    HW213074   2.901   4.265   5.617 -1.5141  0.1506  0.5862
 3779SOL     OW13075   2.122   8.349   8.418 -0.3273 -0.1440  0.1641
 3779SOL    HW113076   2.028   8.335   8.404 -0.7310  1.4004  1.0527
 3779SOL    HW213077   2.134   8.442   8.402  1.0818 -0.3322  0.0347
 3780SOL     OW13078   3.038   8.716   0.242  0.2147  0.2335 -0.2031
 3780SOL    HW113079   3.017   8.626   0.217  1.5176  0.2191 -1.3565
 3780SOL    HW213080   2.954   8.755   0.264 -0.4105 -1.1583 -0.0241
 3781SOL     OW13081   9.596   3.536   5.705 -0.3388  0.0248  0.4736
 3781SOL    HW113082   9.629   3.502   5.622 -2.9681 -0.1844 -0.5743
 3781SOL    HW213083   9.672   3.534   5.764  1.0951 -1.8090 -1.3035
 3782SOL     OW13084   7.627   3.610   5.352 -0.3719 -0.3570 -0.2606
 3782SOL    HW113085   7.693   3.661   5.398 -0.5489  0.9380 -1.3827
 3782SOL    HW213086   7.675   3.561   5.286 -0.4246 -0.0989 -0.4926
 3783SOL     OW13087   6.212   1.505   6.225  0.1357  0.1806 -0.2407
 3783SOL    HW113088   6.187   1.495   6.133  1.1665  0.8136 -0.6079
 3783SOL    HW213089   6.158   1.442   6.272  0.6647 -1.2447 -1.4618
 3784SOL     OW13090   3.265   7.136   7.782  0.2166 -0.1331 -0.4387
 3784SOL    HW113091   3.323   7.168   7.850 -2.1838  1.5221  1.0187
 3784SOL    HW213092   3.297   7.176   7.701  0.7066  1.3191  0.4432
 3785SOL     OW13093   1.050   6.246   7.419  0.3284  0.6193 -0.4326
 3785SOL    HW113094   1.123   6.307   7.428  0.9290 -0.1520  0.0567
 3785SOL    HW213095   1.056   6.214   7.329  0.2724  0.9449 -0.5543
 3786SOL     OW13096   4.662   5.194   6.433  0.1408 -0.0651  0.3955
 3786SOL    HW113097   4.569   5.180   6.414 -0.1918  1.0144  1.1456
 3786SOL    HW213098   4.665   5.278   6.477  1.5722  0.2783 -0.2948
 3787SOL     OW13099   0.250   9.545   0.960 -0.2161  0.7585 -0.2769
 3787SOL    HW113100   0.185   9.592   1.011  0.3874  1.1365  0.1631
 3787SOL    HW213101   0.208   9.462   0.937 -0.3538  0.3851  1.2127
 3788SOL     OW13102   2.144   4.594   6.204 -0.2210 -0.2609 -0.1983
 3788SOL    HW113103   2.141   4.551   6.289 -0.4679  2.3999  1.2465
 3788SOL    HW213104   2.059   4.638   6.197  0.4521  0.9630 -1.0111
 3789SOL     OW13105   6.783   0.342   0.076 -0.4628  0.3209  0.3153
 3789SOL    HW113106   6.833   0.304   0.004 -2.2926  0.0291 -0.8696
 3789SOL    HW213107   6.810   0.291   0.153  0.4839 -0.3129 -0.4115
 3790SOL     OW13108   7.070   0.146   7.592 -0.1309 -0.5382  0.2960
 3790SOL    HW113109   7.005   0.162   7.661 -0.1431 -2.3668  0.7742
 3790SOL    HW213110   7.145   0.200   7.616  0.0023 -1.4163  1.9705
 3791SOL     OW13111   0.610   8.008   2.022  0.5229  0.2846  0.1605
 3791SOL    HW113112   0.545   8.077   2.011  0.0972 -0.1991 -0.4719
 3791SOL    HW213113   0.647   8.023   2.109 -0.4825  0.5337  0.5669
 3792SOL     OW13114   4.872   2.429   8.443 -0.3937 -0.3374  0.1062
 3792SOL    HW113115   4.819   2.359   8.480 -1.3728  0.5572  0.4150
 3792SOL    HW213116   4.932   2.454   8.513  0.0465 -0.9284 -0.0456
 3793SOL     OW13117   5.500   1.638   3.878  0.0455  0.1097 -0.4387
 3793SOL    HW113118   5.594   1.637   3.899 -0.3153  0.0384  1.2262
 3793SOL    HW213119   5.456   1.639   3.962 -1.5159 -2.1054 -1.1563
 3794SOL     OW13120   5.867   0.025   6.075  0.2914 -0.0841  0.4894
 3794SOL    HW113121   5.792   0.070   6.114 -0.6575 -1.1673 -0.0266
 3794SOL    HW213122   5.831  -0.058   6.043  1.8218 -0.8550  0.6916
 3795SOL     OW13123   2.933   6.778   6.701 -0.4805  0.0746  0.3789
 3795SOL    HW113124   3.004   6.715   6.694  1.5767  2.2449  0.5734
 3795SOL    HW213125   2.866   6.733   6.754  1.0100 -1.8015  0.7684
 3796SOL     OW13126   2.908   5.748   7.445 -0.1907 -0.1472 -0.1561
 3796SOL    HW113127   2.960   5.751   7.525 -1.1752 -0.0492  0.5075
 3796SOL    HW213128   2.834   5.807   7.463 -0.2505  0.1331 -1.2675
 3797SOL     OW13129   4.772   0.316   4.957 -0.0626 -0.3231 -0.4843
 3797SOL    HW113130   4.831   0.365   5.016 -3.0336  1.0327  1.6059
 3797SOL    HW213131   4.777   0.226   4.989 -1.3160  0.3232  1.7294
 3798SOL     OW13132   0.267   5.121   3.791 -0.0858  0.2543  0.2714
 3798SOL    HW113133   0.349   5.077   3.811  0.9260  1.9503  0.0350
 3798SOL    HW213134   0.221   5.125   3.875 -1.4005 -3.3948 -0.1049
 3799SOL     OW13135   1.343   7.032   0.296 -0.2473  0.1813 -0.1198
 3799SOL    HW113136   1.305   6.947   0.274  0.8345 -0.4878  0.5557
 3799SOL    HW213137   1.394   7.016   0.375 -1.0202  1.7279  0.7444
 3800SOL     OW13138   2.949   0.819   0.465  0.1153 -0.5597 -0.4929
 3800SOL    HW113139   2.996   0.894   0.430  0.2575 -0.7611 -0.7408
 3800SOL    HW213140   2.867   0.817   0.415  0.7250 -1.4118 -1.5203
 3801SOL     OW13141   1.425   8.139   4.400  0.2681 -0.0681  0.2185
 3801SOL    HW113142   1.458   8.056   4.435 -0.8183 -1.1596 -1.2126
 3801SOL    HW213143   1.431   8.129   4.305 -0.4572  1.2605  0.0130
 3802SOL     OW13144   5.726   3.857   7.336  0.3667 -0.2975 -0.0883
 3802SOL    HW113145   5.647   3.815   7.302 -0.7445 -0.0327  2.0084
 3802SOL    HW213146   5.698   3.945   7.362  0.9506 -0.6328  1.9198
 3803SOL     OW13147   8.020   3.485   8.800  0.3551 -0.0243 -0.2277
 3803SOL    HW113148   7.956   3.420   8.830 -0.8779  0.8518 -0.9025
 3803SOL    HW213149   8.025   3.471   8.706  0.0916  0.8394 -0.3761
 3804SOL     OW13150   1.295   6.973   7.449 -0.2522  0.3313 -0.7988
 3804SOL    HW113151   1.389   6.969   7.467 -0.3305 -0.3049 -0.5324
 3804SOL    HW213152   1.257   7.018   7.525 -0.3442 -0.6925 -0.2295
 3805SOL     OW13153   1.335   7.527   6.720  0.1470  0.3331  0.1359
 3805SOL    HW113154   1.257   7.507   6.770  1.5821 -2.3356  1.5348
 3805SOL    HW213155   1.396   7.564   6.784  0.4891  1.2158 -0.6695
 3806SOL     OW13156   9.339   4.703   2.225  0.3140 -0.2439  0.1059
 3806SOL    HW113157   9.316   4.683   2.134 -0.8508 -0.5202  0.4406
 3806SOL    HW213158   9.345   4.617   2.267 -1.0572 -0.0562  0.7139
 3807SOL     OW13159   7.308   2.196   4.969  0.2217 -0.1392  0.2210
 3807SOL    HW113160   7.264   2.255   5.030 -0.6922  0.4091 -0.9154
 3807SOL    HW213161   7.317   2.113   5.017 -0.6331  0.2181  1.0264
 3808SOL     OW13162   7.056   3.010   3.384 -0.1650 -0.0862 -0.0043
 3808SOL    HW113163   7.032   3.059   3.463  2.0344 -0.4296  0.9638
 3808SOL    HW213164   7.016   2.924   3.397 -2.0243  0.6453 -0.5716
 3809SOL     OW13165   6.282   2.458   6.301  0.8193  0.2735  0.3227
 3809SOL    HW113166   6.343   2.482   6.371 -0.9430  2.3374  1.2599
 3809SOL    HW213167   6.258   2.367   6.320  1.4552  0.3544  1.5793
 3810SOL     OW13168   9.221   8.454   1.664 -0.5873  0.3217 -0.6105
 3810SOL    HW113169   9.183   8.380   1.617  1.0298 -0.0565 -1.3747
 3810SOL    HW213170   9.255   8.416   1.745  0.9527  0.0435 -1.3600
 3811SOL     OW13171   4.527   1.280   0.903  0.6016  0.2379  0.0774
 3811SOL    HW113172   4.457   1.333   0.865  0.5131 -0.9151 -1.4299
 3811SOL    HW213173   4.602   1.340   0.908 -0.3429  1.3836  1.3809
 3812SOL     OW13174   8.441   5.097   3.191  0.1181  0.0074  0.7896
 3812SOL    HW113175   8.490   5.174   3.161  0.9028 -0.8449 -0.2017
 3812SOL    HW213176   8.371   5.133   3.245 -0.0290  1.4749 -0.2999
 3813SOL     OW13177   4.385   3.424   9.187 -0.8306 -0.3142  0.0640
 3813SOL    HW113178   4.390   3.475   9.106 -1.0316 -2.0138 -1.0585
 3813SOL    HW213179   4.476   3.422   9.219 -0.8713  1.0201  0.3489
 3814SOL     OW13180   8.622   8.476   6.307 -0.0644 -0.9501 -0.3391
 3814SOL    HW113181   8.538   8.438   6.334  1.1608 -2.7340  1.1796
 3814SOL    HW213182   8.634   8.552   6.363  0.2456 -1.8714  0.8712
 3815SOL     OW13183   8.614   2.531   8.802  0.5117  0.7206 -0.2604
 3815SOL    HW113184   8.693   2.526   8.748  1.6169 -0.3807  1.3704
 3815SOL    HW213185   8.638   2.490   8.884 -0.8249  3.1478  1.4833
 3816SOL     OW13186   5.728   7.353   4.604  0.3318  0.2125  0.3550
 3816SOL    HW113187   5.653   7.339   4.547  1.4201 -1.9986 -0.6691
 3816SOL    HW213188   5.694   7.341   4.693 -0.9178  1.4226  0.0712
 3817SOL     OW13189   4.144   3.123   1.331  0.2586  0.1163 -0.3544
 3817SOL    HW113190   4.152   3.112   1.236  2.5860  0.1120 -0.2182
 3817SOL    HW213191   4.050   3.116   1.348 -0.3078  0.8788 -2.7375
 3818SOL     OW13192   2.151   5.516   8.665 -0.4156  0.3418 -0.6590
 3818SOL    HW113193   2.113   5.602   8.647  0.6923  2.2302  4.3924
 3818SOL    HW213194   2.084   5.471   8.717 -0.2647 -1.2565 -1.7553
 3819SOL     OW13195   0.903   7.313   6.712  0.5006 -0.1318 -0.8738
 3819SOL    HW113196   0.969   7.251   6.681  0.5370 -2.0033  2.5091
 3819SOL    HW213197   0.819   7.273   6.692  0.5149 -0.8136  0.3463
 3820SOL     OW13198   0.075   8.099   2.307 -0.1762  0.4089  0.0791
 3820SOL    HW113199   0.058   8.149   2.227  1.0443  1.6021  0.5222
 3820SOL    HW213200   0.024   8.144   2.374  1.3080  1.4461  0.5783
 3821SOL     OW13201   8.316   0.337   4.074  0.2985  0.3155  0.0172
 3821SOL    HW113202   8.341   0.245   4.089 -0.9955  0.2686  2.3652
 3821SOL    HW213203   8.306   0.344   3.980 -1.4911 -2.5130 -0.1100
 3822SOL     OW13204   5.127   9.238   1.271 -0.1019 -0.1477  0.4367
 3822SOL    HW113205   5.152   9.146   1.277 -0.0985 -0.2576 -0.9384
 3822SOL    HW213206   5.104   9.250   1.179  1.3924  1.6101  0.2586
 3823SOL     OW13207   6.470   8.362   4.335 -0.2361 -0.3186 -0.1792
 3823SOL    HW113208   6.440   8.452   4.351 -1.9368 -0.8039 -0.4463
 3823SOL    HW213209   6.564   8.371   4.321 -0.4192  1.4733 -0.5610
 3824SOL     OW13210   7.863   6.911   3.566 -0.1864 -0.6776  0.1523
 3824SOL    HW113211   7.925   6.983   3.559  1.6201 -1.9477  2.0601
 3824SOL    HW213212   7.889   6.850   3.498  1.0932 -1.4790  1.3278
 3825SOL     OW13213   0.773   6.528   8.356 -0.0986  0.1826  0.6901
 3825SOL    HW113214   0.820   6.574   8.287 -0.5894 -1.3393 -0.7127
 3825SOL    HW213215   0.683   6.560   8.350 -0.4765 -0.9848 -0.3894
 3826SOL     OW13216   6.888   7.058   2.969 -0.4095 -0.6687  0.5809
 3826SOL    HW113217   6.793   7.051   2.959 -0.7648 -0.0226  2.9152
 3826SOL    HW213218   6.901   7.139   3.020  1.4650 -0.2820 -0.4106
 3827SOL     OW13219   8.335   0.911   1.503 -0.9337 -0.2325  0.2742
 3827SOL    HW113220   8.429   0.929   1.508 -1.1755  3.2052 -3.0721
 3827SOL    HW213221   8.298   0.960   1.576 -0.2614 -0.7722  1.0010
 3828SOL     OW13222   1.267   2.552   6.582 -0.0024  0.0888  0.2882
 3828SOL    HW113223   1.261   2.581   6.673 -3.5906 -0.2956  0.3277
 3828SOL    HW213224   1.221   2.620   6.532 -0.1398 -0.8381 -0.8918
 3829SOL     OW13225   5.333   7.469   5.327 -0.4611 -0.2920  0.3729
 3829SOL    HW113226   5.237   7.469   5.322 -0.5119  0.4853  1.0765
 3829SOL    HW213227   5.357   7.559   5.303 -0.2104  0.9157  4.4974
 3830SOL     OW13228   5.641   1.979   4.696 -0.2560  0.3692 -0.3203
 3830SOL    HW113229   5.586   1.907   4.666  0.2285 -0.2235  0.1885
 3830SOL    HW213230   5.600   2.058   4.659 -0.4705 -0.2086 -1.3571
 3831SOL     OW13231   1.986   1.390   7.028  0.4881 -0.0503  0.1828
 3831SOL    HW113232   1.939   1.466   7.061 -1.1682 -1.0205  0.1799
 3831SOL    HW213233   1.921   1.342   6.977  2.1771 -0.1175 -2.0765
 3832SOL     OW13234   0.207   2.434   9.249  0.0835 -0.7038 -0.0335
 3832SOL    HW113235   0.140   2.396   9.306  0.4663  1.8669  2.3043
 3832SOL    HW213236   0.290   2.400   9.282  0.1911 -1.1729 -0.7417
 3833SOL     OW13237   6.746   5.627   8.356 -0.2788 -0.5932 -0.4096
 3833SOL    HW113238   6.807   5.580   8.299  0.2371 -0.7168  0.2334
 3833SOL    HW213239   6.684   5.559   8.384 -0.1685 -0.6598 -0.3285
 3834SOL     OW13240   9.544   2.081   2.455 -0.4939 -0.3541 -0.1282
 3834SOL    HW113241   9.487   2.112   2.526 -1.5124 -1.2522 -0.5358
 3834SOL    HW213242   9.619   2.141   2.458 -1.3606  0.7502  0.5398
 3835SOL     OW13243   8.465   0.447   6.324 -0.1027  0.3102 -0.2967
 3835SOL    HW113244   8.371   0.457   6.315 -0.5036 -1.7655  0.8552
 3835SOL    HW213245   8.476   0.362   6.367  2.2929  0.5125 -0.3627
 3836SOL     OW13246   3.673   8.174   5.331  0.4547  0.0584 -0.1310
 3836SOL    HW113247   3.729   8.108   5.291  1.9972  0.4152  1.3107
 3836SOL    HW213248   3.717   8.197   5.412 -1.1615  1.3041  0.4623
 3837SOL     OW13249   7.273   7.004   2.949  0.0415 -0.0712 -0.0818
 3837SOL    HW113250   7.230   6.971   2.870 -0.3504  0.2827 -0.0205
 3837SOL    HW213251   7.210   7.066   2.986 -0.6140 -1.6593  1.5711
 3838SOL     OW13252   6.332   5.702   6.737  0.1044 -0.3211  0.0053
 3838SOL    HW113253   6.249   5.655   6.747 -0.9215  1.1930 -0.8660
 3838SOL    HW213254   6.337   5.757   6.816 -0.9681  1.3231 -0.9992
 3839SOL     OW13255   0.988   5.140   7.728 -0.3261 -0.2355 -0.0725
 3839SOL    HW113256   0.973   5.140   7.633  0.8401  0.6751 -0.2811
 3839SOL    HW213257   0.916   5.192   7.764 -0.3072  0.1288 -0.5539
 3840SOL     OW13258   0.069   0.185   8.571 -0.4049 -0.0278  0.5459
 3840SOL    HW113259  -0.027   0.184   8.565 -0.4399 -1.5663  0.9273
 3840SOL    HW213260   0.098   0.201   8.481 -1.0174 -0.7402  0.2105
 3841SOL     OW13261   0.983   5.392   0.551  0.2291 -0.1997  0.3903
 3841SOL    HW113262   0.971   5.430   0.464  0.0979 -0.3234  0.3528
 3841SOL    HW213263   0.894   5.367   0.578  0.4583 -1.5676 -0.0858
 3842SOL     OW13264   8.805   4.523   5.100  0.3641  0.0728  0.0361
 3842SOL    HW113265   8.718   4.494   5.128  0.3599  0.5980  0.5935
 3842SOL    HW213266   8.848   4.443   5.069  0.5762 -0.6931  2.1100
 3843SOL     OW13267   0.996   9.113   3.192  0.0943 -0.0433  0.2287
 3843SOL    HW113268   0.934   9.185   3.185 -2.0874 -1.9862 -3.0839
 3843SOL    HW213269   0.946   9.042   3.231  0.5968 -1.2182 -1.1700
 3844SOL     OW13270   5.149   0.550   1.023 -0.0851  0.2028  0.5004
 3844SOL    HW113271   5.226   0.600   0.993  0.6672 -0.7851  0.7366
 3844SOL    HW213272   5.077   0.613   1.019  0.6867  1.0890  0.0424
 3845SOL     OW13273   2.374   2.105   2.000 -0.4171  0.2533  0.0800
 3845SOL    HW113274   2.303   2.043   1.986 -0.9586  0.9677 -0.3955
 3845SOL    HW213275   2.358   2.141   2.087  0.1489 -0.5810  0.5424
 3846SOL     OW13276   6.683   2.186   0.143  0.0045  0.3820  0.3013
 3846SOL    HW113277   6.679   2.275   0.177  3.0846  0.8948 -0.4488
 3846SOL    HW213278   6.741   2.140   0.204 -1.0932 -0.9958  0.3566
 3847SOL     OW13279   5.518   1.722   8.755 -0.0684 -0.6857 -0.4995
 3847SOL    HW113280   5.512   1.750   8.847  3.3203 -1.5922  0.1291
 3847SOL    HW213281   5.479   1.635   8.755 -1.2067 -0.2005 -0.2280
 3848SOL     OW13282   5.508   2.468   2.156  0.0386 -0.1175 -0.3248
 3848SOL    HW113283   5.509   2.422   2.240  0.2429 -1.1354 -0.8748
 3848SOL    HW213284   5.598   2.499   2.145 -0.1055  0.4601  0.0579
 3849SOL     OW13285   8.256   1.131   1.901 -0.0629  0.1102 -0.1797
 3849SOL    HW113286   8.209   1.053   1.929 -0.6429  0.6309  0.3236
 3849SOL    HW213287   8.254   1.127   1.805  1.3352 -1.3175 -0.1926
 3850SOL     OW13288   2.852   7.047   3.755  0.5225  0.2138  0.8626
 3850SOL    HW113289   2.936   7.085   3.778  2.2208 -1.8186 -1.4665
 3850SOL    HW213290   2.825   7.093   3.675 -0.3221  0.4284  1.2501
 3851SOL     OW13291   6.593   8.141   3.940  0.3760  0.4251  0.4943
 3851SOL    HW113292   6.498   8.144   3.933  0.1950 -1.0654  1.6174
 3851SOL    HW213293   6.624   8.124   3.851 -0.2701  2.3926 -0.1478
 3852SOL     OW13294   1.140   5.299   0.004  0.4605  0.1073  0.5516
 3852SOL    HW113295   1.130   5.375  -0.054  0.3598 -1.5035 -1.6880
 3852SOL    HW213296   1.057   5.253  -0.003  0.8361 -0.6797  1.1457
 3853SOL     OW13297   7.038   3.668   2.197 -0.1785 -0.0911  0.5270
 3853SOL    HW113298   7.109   3.715   2.240 -0.7369  0.8164  0.4843
 3853SOL    HW213299   7.067   3.657   2.107 -0.0491  0.1883  0.5349
 3854SOL     OW13300   6.922   3.526   5.406  0.3568  0.3099 -0.2817
 3854SOL    HW113301   7.003   3.517   5.355  0.1882  0.5874 -0.6011
 3854SOL    HW213302   6.857   3.556   5.343  0.7274  3.1885  0.5475
 3855SOL     OW13303   4.848   3.844   2.874 -0.4567  0.0914  0.3971
 3855SOL    HW113304   4.762   3.803   2.878 -0.8167  0.8619  0.6125
 3855SOL    HW213305   4.836   3.930   2.913  0.4163  0.2029  0.4468
 3856SOL     OW13306   1.581   5.904   1.462  0.3377  0.3719 -0.0469
 3856SOL    HW113307   1.550   5.992   1.484 -1.5259  0.2212 -1.7652
 3856SOL    HW213308   1.615   5.912   1.373 -0.4972 -0.7622 -0.4906
 3857SOL     OW13309   6.874   6.306   1.650  0.5773 -0.0923 -0.3295
 3857SOL    HW113310   6.937   6.258   1.704  0.0740 -0.3760  0.0216
 3857SOL    HW213311   6.914   6.310   1.564  1.0344 -0.3448 -0.1352
 3858SOL     OW13312   9.490   6.790   3.582 -0.0307  0.3055  0.3870
 3858SOL    HW113313   9.521   6.873   3.545  0.8281  0.0788  0.5746
 3858SOL    HW213314   9.530   6.723   3.527 -1.4516  0.0022 -0.3396
 3859SOL     OW13315   5.856   7.303   8.403 -0.7438  0.1806 -0.4402
 3859SOL    HW113316   5.892   7.223   8.367 -1.1438 -0.9104  1.4475
 3859SOL    HW213317   5.921   7.370   8.382 -0.0780 -0.7481 -1.4596
 3860SOL     OW13318   0.792   1.367   1.739  0.2753 -0.2692 -0.1621
 3860SOL    HW113319   0.838   1.284   1.755 -0.0741 -0.5228 -0.4429
 3860SOL    HW213320   0.700   1.345   1.750  0.1813  0.0866 -0.2365
 3861SOL     OW13321   5.880   4.234   7.136 -0.6433 -0.5656  0.0121
 3861SOL    HW113322   5.856   4.197   7.221 -0.3444 -1.6524 -0.3538
 3861SOL    HW213323   5.805   4.213   7.080 -2.1564  2.6487  0.6336
 3862SOL     OW13324   6.575   6.403   1.529 -0.6462 -0.1254  0.0127
 3862SOL    HW113325   6.636   6.353   1.582  0.9444  1.4502 -0.2031
 3862SOL    HW213326   6.525   6.456   1.592 -1.8588 -1.4354  0.1912
 3863SOL     OW13327   2.520   3.503   1.525 -0.3270 -0.1810  0.1733
 3863SOL    HW113328   2.440   3.552   1.539  0.1113  0.4074  0.6557
 3863SOL    HW213329   2.587   3.569   1.510  0.9830 -0.3263  4.1384
 3864SOL     OW13330   6.107   5.695   3.478  0.2778 -0.1302 -0.4927
 3864SOL    HW113331   6.117   5.603   3.457  1.0493 -0.2681  0.4063
 3864SOL    HW213332   6.018   5.703   3.512 -0.2308 -0.2887 -1.7241
 3865SOL     OW13333   3.715   1.287   6.225  0.3013  0.0177  0.1903
 3865SOL    HW113334   3.758   1.320   6.304  0.4641 -0.6155  0.3723
 3865SOL    HW213335   3.663   1.213   6.255  1.9018 -1.4927 -0.5684
 3866SOL     OW13336   1.556   8.642   7.289  0.1617  0.0076 -0.5789
 3866SOL    HW113337   1.622   8.698   7.330 -0.7142  0.4406  0.2730
 3866SOL    HW213338   1.579   8.641   7.196  1.0686  0.5464 -0.3709
 3867SOL     OW13339   2.337   9.517   9.075  0.1632  0.3055 -0.3605
 3867SOL    HW113340   2.294   9.598   9.047  0.7709  1.1374  0.9672
 3867SOL    HW213341   2.335   9.522   9.171  0.2442 -1.2508 -0.2636
 3868SOL     OW13342   1.602   3.016   5.921 -0.5337  0.1988  0.4961
 3868SOL    HW113343   1.599   3.093   5.977 -1.5661 -0.5176  1.4849
 3868SOL    HW213344   1.659   3.040   5.848  1.1150  1.0605  2.0078
 3869SOL     OW13345   8.145   0.117   2.668 -0.3603  0.7495 -0.4083
 3869SOL    HW113346   8.153   0.072   2.584  0.3180  1.4094 -0.7075
 3869SOL    HW213347   8.079   0.184   2.654 -0.2701  0.8390 -0.4030
 3870SOL     OW13348   8.302   4.086   6.864 -0.1757  0.2050 -0.2397
 3870SOL    HW113349   8.313   4.117   6.954  0.8197 -1.9211  0.4303
 3870SOL    HW213350   8.391   4.068   6.833 -0.5550  0.2135 -1.4084
 3871SOL     OW13351   0.210   3.171   8.535  0.5049 -0.0495  0.3538
 3871SOL    HW113352   0.271   3.136   8.470  1.6557 -0.7515  1.7613
 3871SOL    HW213353   0.189   3.259   8.504  1.8979  0.0404 -0.4020
 3872SOL     OW13354   5.713   8.558   2.862 -0.6449  0.5516  0.2862
 3872SOL    HW113355   5.643   8.621   2.845 -0.0596  1.6251  1.6771
 3872SOL    HW213356   5.740   8.529   2.775 -1.3068  1.8072 -0.3666
 3873SOL     OW13357   4.909   2.577   4.465  0.3925  0.9025 -0.1005
 3873SOL    HW113358   4.840   2.560   4.401  0.9842  3.7377 -1.6432
 3873SOL    HW213359   4.974   2.508   4.449 -1.4491 -1.0840  0.5679
 3874SOL     OW13360   2.740   5.089   6.294 -0.0006  0.2033 -0.0743
 3874SOL    HW113361   2.775   5.163   6.244 -0.2834 -0.8438 -1.9165
 3874SOL    HW213362   2.815   5.030   6.306 -0.1129  0.0817  0.0480
 3875SOL     OW13363   6.959   0.128   5.113 -0.8711 -0.0168  0.3168
 3875SOL    HW113364   6.968   0.047   5.063 -3.1491 -0.1811  0.0408
 3875SOL    HW213365   6.947   0.196   5.046 -0.1728  0.3642  0.5704
 3876SOL     OW13366   0.564   5.126   5.588  0.3476 -0.1410 -0.1957
 3876SOL    HW113367   0.578   5.213   5.626  1.3380  0.8609 -2.6364
 3876SOL    HW213368   0.470   5.111   5.596 -0.1003  1.8634 -1.0540
 3877SOL     OW13369   7.365   1.696   4.799  0.3490 -0.4169  0.3003
 3877SOL    HW113370   7.430   1.760   4.828 -2.6283  2.8754  0.4161
 3877SOL    HW213371   7.339   1.726   4.712  1.6344 -3.9912 -1.4940
 3878SOL     OW13372   6.095   2.487   7.612 -0.0174  0.1072 -0.4513
 3878SOL    HW113373   6.035   2.545   7.565 -0.0753 -1.3277 -2.2390
 3878SOL    HW213374   6.161   2.463   7.547  1.7259  0.5176  1.0837
 3879SOL     OW13375   9.521   4.873   9.606 -0.2627  0.0591 -0.0523
 3879SOL    HW113376   9.549   4.956   9.568  0.0065 -0.3869 -0.8533
 3879SOL    HW213377   9.549   4.807   9.543 -2.3736 -0.4901 -0.4877
 3880SOL     OW13378   4.010   8.292   4.950  0.2186  0.2242  0.6603
 3880SOL    HW113379   3.980   8.274   5.039  0.8112  1.2560  1.0812
 3880SOL    HW213380   4.096   8.332   4.961  0.2090  0.5562 -0.3685
 3881SOL     OW13381   4.577   4.152   4.894 -0.1066 -0.7006  0.0203
 3881SOL    HW113382   4.500   4.103   4.924  1.0214 -1.4568  1.9091
 3881SOL    HW213383   4.578   4.231   4.948  0.0122 -0.2963 -0.5630
 3882SOL     OW13384   6.760   4.253   4.881  0.1237 -0.3223  0.0829
 3882SOL    HW113385   6.698   4.325   4.870 -1.2347 -1.3995  0.3680
 3882SOL    HW213386   6.803   4.270   4.964  1.9544  1.6662 -1.1737
 3883SOL     OW13387   7.128   3.843   1.073 -1.1420  0.0522  0.3927
 3883SOL    HW113388   7.178   3.925   1.070 -0.3296 -0.4481 -0.6230
 3883SOL    HW213389   7.046   3.867   1.115  0.0828  0.8165  2.4804
 3884SOL     OW13390   5.015   7.387   2.472  0.5217 -0.7319  0.6257
 3884SOL    HW113391   5.023   7.407   2.378 -1.5912 -0.5515  0.4447
 3884SOL    HW213392   5.001   7.472   2.513 -0.4110 -0.9833  0.8534
 3885SOL     OW13393   0.317   6.372   9.121  0.6876 -0.5597 -0.1714
 3885SOL    HW113394   0.258   6.440   9.153  1.7198  0.5697 -0.5926
 3885SOL    HW213395   0.293   6.294   9.171 -1.6006 -0.3429 -0.8040
 3886SOL     OW13396   0.170   2.035   7.014  0.2987  0.0611 -0.1094
 3886SOL    HW113397   0.116   1.960   7.039 -0.0474  0.9001  1.8546
 3886SOL    HW213398   0.113   2.088   6.958 -0.8679  0.7570  1.6422
 3887SOL     OW13399   9.436   0.573   8.958  0.2807  0.2646  0.3780
 3887SOL    HW113400   9.385   0.649   8.931 -2.3921 -0.4321  2.8895
 3887SOL    HW213401   9.384   0.498   8.928  1.2069 -0.5272  0.7121
 3888SOL     OW13402   0.410   4.485   5.005  0.4268  0.3633  0.9319
 3888SOL    HW113403   0.503   4.461   5.009  0.9691  2.1817 -0.0596
 3888SOL    HW213404   0.383   4.459   4.917  0.7906  2.4217  0.1662
 3889SOL     OW13405   8.629   3.258   4.115  0.0770  0.7653 -0.1285
 3889SOL    HW113406   8.629   3.219   4.028  0.6191 -0.4966  0.4146
 3889SOL    HW213407   8.538   3.252   4.144  0.5015 -2.6898  0.9949
 3890SOL     OW13408   3.113   0.926   7.713  0.2915 -0.0203  0.1645
 3890SOL    HW113409   3.115   1.014   7.673  0.2120 -0.5460 -1.0423
 3890SOL    HW213410   3.103   0.867   7.639 -0.9712 -0.9848  1.0770
 3891SOL     OW13411   1.406   3.990   3.531 -0.0487  0.1571 -0.3822
 3891SOL    HW113412   1.350   3.968   3.606 -0.6615 -0.7857 -1.0954
 3891SOL    HW213413   1.476   4.042   3.569 -0.5881  0.0806  0.7816
 3892SOL     OW13414   2.525   7.000   0.499  0.4805 -0.1949  0.5065
 3892SOL    HW113415   2.601   7.057   0.510 -1.3833  2.4601  0.4093
 3892SOL    HW213416   2.482   7.000   0.584 -0.8454  0.5866 -0.1307
 3893SOL     OW13417   5.650   5.494   8.125 -0.3093 -0.3173 -0.6207
 3893SOL    HW113418   5.584   5.491   8.055 -0.3823 -1.9775 -0.5251
 3893SOL    HW213419   5.726   5.536   8.084 -1.0263  0.5916 -1.0651
 3894SOL     OW13420   5.608   1.712   4.331  0.1664 -0.8356 -0.0804
 3894SOL    HW113421   5.675   1.676   4.272  0.2327 -0.0226 -0.5038
 3894SOL    HW213422   5.621   1.806   4.327 -0.3294 -0.7348  0.6546
 3895SOL     OW13423   2.628   4.880   8.755 -0.0040 -0.0637 -0.2109
 3895SOL    HW113424   2.539   4.883   8.790  0.1432  0.5152  0.1118
 3895SOL    HW213425   2.656   4.971   8.750  0.3915 -0.2086 -0.7847
 3896SOL     OW13426   6.405   3.460   2.050  0.5246  0.3171  0.3529
 3896SOL    HW113427   6.455   3.537   2.022  1.6136 -0.1746  0.8726
 3896SOL    HW213428   6.349   3.492   2.120  1.2656  0.5752  0.8420
 3897SOL     OW13429   2.744   7.680   9.587 -0.4647  0.0345  0.0339
 3897SOL    HW113430   2.791   7.599   9.608 -1.3712 -0.2024  1.2837
 3897SOL    HW213431   2.803   7.728   9.530  1.3540 -0.2313  1.5828
 3898SOL     OW13432   2.716   7.748   2.530  0.3419 -0.3436  0.6032
 3898SOL    HW113433   2.672   7.676   2.576 -0.8662  0.8419  1.3775
 3898SOL    HW213434   2.746   7.806   2.600  2.3648 -0.6317  0.0427
 3899SOL     OW13435   0.682   9.316   0.029  0.2657  0.1073 -0.1041
 3899SOL    HW113436   0.727   9.233   0.043  1.4419  0.2497 -2.5743
 3899SOL    HW213437   0.675   9.324  -0.066 -1.0752  2.1931  0.1103
 3900SOL     OW13438   0.479   8.874   7.127 -0.2715  0.5660  0.4284
 3900SOL    HW113439   0.431   8.911   7.053 -0.6746 -1.4420 -0.3922
 3900SOL    HW213440   0.422   8.804   7.159  0.1245  1.0613  2.3509
 3901SOL     OW13441   2.432   5.746   2.420 -0.3807 -0.3305  0.1357
 3901SOL    HW113442   2.463   5.827   2.461  0.3603  0.0377 -1.1126
 3901SOL    HW213443   2.485   5.677   2.460 -0.0264 -0.0335  0.1850
 3902SOL     OW13444   6.641   7.534   8.618 -0.3204 -0.0337 -0.0301
 3902SOL    HW113445   6.608   7.614   8.578  1.8036  0.9443  0.0541
 3902SOL    HW213446   6.679   7.563   8.702 -1.5111 -1.4956  1.0698
 3903SOL     OW13447   2.948   3.536   8.514  0.0130 -0.5009 -0.0719
 3903SOL    HW113448   2.896   3.613   8.493 -0.6780 -0.8259  0.3889
 3903SOL    HW213449   2.908   3.466   8.462 -2.3643 -1.5441  2.8603
 3904SOL     OW13450   9.487   4.445   4.464 -0.0708 -0.1629 -0.1832
 3904SOL    HW113451   9.507   4.461   4.372 -2.6244  0.6054 -0.6928
 3904SOL    HW213452   9.528   4.517   4.511 -0.2832  0.4816 -0.9598
 3905SOL     OW13453   3.932   3.074   8.615  0.0550  0.2013  0.2228
 3905SOL    HW113454   4.025   3.059   8.601  0.5840 -0.4921  3.6405
 3905SOL    HW213455   3.893   2.987   8.616 -0.5473  0.4495 -0.5855
 3906SOL     OW13456   0.640   5.679   3.121 -0.4452 -0.2173 -0.0105
 3906SOL    HW113457   0.618   5.713   3.208  0.4005  0.0548  0.1076
 3906SOL    HW213458   0.589   5.599   3.112 -0.2419 -0.4600  0.9068
 3907SOL     OW13459   4.809   8.032   4.614 -0.2625 -0.1217 -0.2502
 3907SOL    HW113460   4.862   8.051   4.691  1.1630 -0.9314 -0.9688
 3907SOL    HW213461   4.867   8.052   4.540 -2.0067  1.8270 -1.1720
 3908SOL     OW13462   7.947   3.451   8.174 -0.4912  0.0472 -0.7015
 3908SOL    HW113463   8.041   3.470   8.176 -0.5977  0.4968  0.2642
 3908SOL    HW213464   7.913   3.506   8.103 -0.3145  1.2621  0.1369
 3909SOL     OW13465   7.176   8.461   0.316  0.3576  0.2448  0.0802
 3909SOL    HW113466   7.082   8.444   0.322  0.0816  2.1303  2.8416
 3909SOL    HW213467   7.183   8.541   0.264  0.3010  0.8106  0.9261
 3910SOL     OW13468   9.297   6.647   0.922  0.3890 -0.4426 -0.0228
 3910SOL    HW113469   9.289   6.693   1.006  1.9463  0.6924 -0.4464
 3910SOL    HW213470   9.302   6.716   0.857 -0.1539 -1.3004 -1.0085
 3911SOL     OW13471   8.184   3.553   6.808  0.1410  0.1289  0.5282
 3911SOL    HW113472   8.144   3.632   6.772 -1.2687  0.5884  2.9121
 3911SOL    HW213473   8.116   3.486   6.800  0.6218 -0.3503  0.3436
 3912SOL     OW13474   6.747   1.379   4.380  0.7680  0.3075  0.3965
 3912SOL    HW113475   6.750   1.444   4.309 -2.7299 -0.6961 -0.8503
 3912SOL    HW213476   6.740   1.431   4.460 -3.2534  1.7359 -0.6395
 3913SOL     OW13477   6.418   7.714   1.309  0.6115 -0.3048 -0.2415
 3913SOL    HW113478   6.372   7.682   1.232  1.2128 -1.2963 -0.2006
 3913SOL    HW213479   6.470   7.789   1.278  0.7242 -0.6001 -0.7590
 3914SOL     OW13480   8.470   8.723   9.239 -0.5649  0.2848 -0.4178
 3914SOL    HW113481   8.564   8.703   9.241 -0.4265  0.9131  1.8278
 3914SOL    HW213482   8.429   8.643   9.205  0.6441 -0.6815  0.3175
 3915SOL     OW13483   0.192   7.225   2.322  0.5955 -0.1105 -0.3273
 3915SOL    HW113484   0.262   7.290   2.332  0.9000 -0.5546  0.5158
 3915SOL    HW213485   0.135   7.262   2.255  0.4706  1.2878  0.5122
 3916SOL     OW13486   5.768   4.589   5.745  0.3292 -0.4210  0.2828
 3916SOL    HW113487   5.847   4.553   5.704  0.4615  0.4679 -0.2644
 3916SOL    HW213488   5.725   4.639   5.675  0.6694  1.3041  1.2597
 3917SOL     OW13489   0.940   6.587   5.957 -0.6331  0.4388 -0.3382
 3917SOL    HW113490   0.909   6.598   5.867  0.3289  1.6002 -0.5640
 3917SOL    HW213491   0.937   6.675   5.994  1.7638  0.5538 -0.2201
 3918SOL     OW13492   5.632   7.983   0.093 -0.3657 -0.1632 -0.0628
 3918SOL    HW113493   5.579   8.062   0.077  0.0404  0.1502  0.1394
 3918SOL    HW213494   5.652   7.986   0.186  0.4799  0.0171 -0.2395
 3919SOL     OW13495   0.811   3.985   7.826  0.8183 -0.4806 -0.8712
 3919SOL    HW113496   0.885   3.934   7.860  1.8386  1.1006 -0.6437
 3919SOL    HW213497   0.807   4.062   7.883 -0.2641  0.0305 -1.6232
 3920SOL     OW13498   1.010   3.588   6.784  0.3391  0.4294  0.8125
 3920SOL    HW113499   1.035   3.669   6.740  1.0713  0.7592  1.7949
 3920SOL    HW213500   1.077   3.576   6.851  1.1355 -1.8156 -0.3001
 3921SOL     OW13501   8.197   5.313   8.818 -0.1537 -0.1749  0.0804
 3921SOL    HW113502   8.196   5.222   8.787 -0.0778  0.0668 -0.6623
 3921SOL    HW213503   8.117   5.321   8.871  0.9297 -1.2525  1.9460
 3922SOL     OW13504   2.416   4.326   3.174 -0.5486 -0.2146 -0.5149
 3922SOL    HW113505   2.326   4.359   3.174 -0.6445 -0.4621  0.5635
 3922SOL    HW213506   2.453   4.355   3.257 -0.2005 -1.6163 -0.1494
 3923SOL     OW13507   9.592   4.923   7.768 -0.5051  0.5876 -0.1592
 3923SOL    HW113508   9.500   4.903   7.787 -0.3650  0.2611  0.1933
 3923SOL    HW213509   9.604   4.894   7.677 -0.6022  0.1026 -0.0204
 3924SOL     OW13510   0.512   1.358   8.666  0.0990 -0.0044 -0.0054
 3924SOL    HW113511   0.509   1.428   8.731  1.7088  1.0714 -1.0192
 3924SOL    HW213512   0.450   1.386   8.598 -0.3671 -0.3263  0.2782
 3925SOL     OW13513   7.495   1.860   9.304 -0.2889 -0.7537  0.6449
 3925SOL    HW113514   7.514   1.899   9.389  1.1993 -1.4902  0.6976
 3925SOL    HW213515   7.455   1.930   9.253  0.6706  0.3177  1.3076
 3926SOL     OW13516   1.508   5.100   3.998  0.2663  0.6497  0.1993
 3926SOL    HW113517   1.497   5.076   3.906 -0.6608 -0.3571  0.5583
 3926SOL    HW213518   1.497   5.018   4.046 -1.3326  1.4906  1.3529
 3927SOL     OW13519   8.809   4.277   7.764 -0.1054 -0.3617  0.5199
 3927SOL    HW113520   8.745   4.240   7.704 -0.6871  1.0154  0.2522
 3927SOL    HW213521   8.834   4.361   7.725  0.1847  0.1516  1.7356
 3928SOL     OW13522   2.154   8.592   1.305  0.0350 -0.0636 -0.2727
 3928SOL    HW113523   2.142   8.579   1.399 -0.0049 -2.0695 -0.5081
 3928SOL    HW213524   2.231   8.649   1.298 -0.3063  0.5860  0.9602
 3929SOL     OW13525   7.743   4.540   4.729 -0.4482  0.1037  0.2453
 3929SOL    HW113526   7.774   4.520   4.641  2.0593 -0.4058  1.1564
 3929SOL    HW213527   7.701   4.459   4.760  2.0562 -1.0624  0.8262
 3930SOL     OW13528   3.477   6.911   4.495  0.3907 -0.5920  0.1701
 3930SOL    HW113529   3.448   6.912   4.404  1.0064  0.8620 -0.0307
 3930SOL    HW213530   3.402   6.945   4.545 -0.4377 -2.5964  0.4156
 3931SOL     OW13531   8.720   9.458   2.839 -0.1859  0.1848 -0.7701
 3931SOL    HW113532   8.744   9.381   2.891 -0.2152  1.0007  0.4971
 3931SOL    HW213533   8.653   9.427   2.779  0.0578 -0.8548 -0.5286
 3932SOL     OW13534   3.899   7.544   4.371  0.4033 -0.4949  0.7123
 3932SOL    HW113535   3.957   7.593   4.312  0.9535  0.7358  2.2156
 3932SOL    HW213536   3.884   7.603   4.445 -2.8240 -0.7668  0.3885
 3933SOL     OW13537   0.356   1.042   0.009  0.1017  0.1701  1.0978
 3933SOL    HW113538   0.329   1.067   0.097 -1.6654  0.4378  0.5219
 3933SOL    HW213539   0.297   1.090  -0.049  2.0864  1.0522 -0.3077
 3934SOL     OW13540   7.342   6.286   3.634 -0.0559 -0.0795  0.4968
 3934SOL    HW113541   7.400   6.227   3.587 -0.6754 -1.3538  1.2517
 3934SOL    HW213542   7.379   6.292   3.722  0.9461  2.0655 -0.0169
 3935SOL     OW13543   4.130   2.360   4.135 -0.3164  0.4423  0.4996
 3935SOL    HW113544   4.113   2.266   4.131  0.0518  0.4254 -1.2640
 3935SOL    HW213545   4.210   2.368   4.187 -0.8229 -0.1327  1.3924
 3936SOL     OW13546   0.138   2.734   1.729 -0.5428  0.5494 -0.2507
 3936SOL    HW113547   0.171   2.770   1.811  0.8445  0.0722 -0.5641
 3936SOL    HW213548   0.157   2.640   1.734 -2.3024  0.1646 -0.2737
 3937SOL     OW13549   3.124   2.350   1.357 -0.1149 -0.1521 -0.3468
 3937SOL    HW113550   3.057   2.293   1.319 -0.2614 -0.0574 -0.2362
 3937SOL    HW213551   3.138   2.315   1.445 -1.3755  0.9100  0.3318
 3938SOL     OW13552   3.531   8.503   8.666 -0.1374 -0.1538  0.0463
 3938SOL    HW113553   3.599   8.491   8.600  0.1653 -0.2933  0.3802
 3938SOL    HW213554   3.458   8.449   8.635 -0.2647  0.3438 -0.5403
 3939SOL     OW13555   1.515   1.158   3.570 -0.5249  0.2605 -0.4307
 3939SOL    HW113556   1.450   1.123   3.631 -1.4326  0.6092 -1.1754
 3939SOL    HW213557   1.586   1.093   3.570 -0.4231  0.3311  1.0976
 3940SOL     OW13558   1.183   9.132   4.239  0.0311 -0.1688  0.1824
 3940SOL    HW113559   1.166   9.076   4.163  0.2528  1.1186 -0.8469
 3940SOL    HW213560   1.115   9.199   4.235 -0.8986 -0.9303  2.0213
 3941SOL     OW13561   8.826   6.724   8.613 -0.4442  0.1154  0.0662
 3941SOL    HW113562   8.853   6.727   8.521  0.7529 -0.3010  0.3876
 3941SOL    HW213563   8.760   6.792   8.621 -1.8888 -1.0053 -1.5174
 3942SOL     OW13564   1.012   6.394   4.413 -0.2355  0.5548  0.7154
 3942SOL    HW113565   0.922   6.406   4.384 -0.3028  0.1512  0.7592
 3942SOL    HW213566   1.017   6.303   4.442 -0.2037  0.9833  2.1089
 3943SOL     OW13567   7.049   1.969   3.766 -0.5976  0.0238 -0.0416
 3943SOL    HW113568   6.982   1.906   3.793 -5.0966  3.5491 -1.8419
 3943SOL    HW213569   7.100   1.922   3.700 -3.3131 -2.0372 -0.8664
 3944SOL     OW13570   2.457   8.301   2.768 -0.6981 -0.2150 -0.4399
 3944SOL    HW113571   2.487   8.254   2.845  0.7793  0.8819 -0.2803
 3944SOL    HW213572   2.431   8.387   2.802 -2.9007 -0.7120 -0.7765
 3945SOL     OW13573   4.405   2.890   5.922 -0.2801  0.2291 -0.7360
 3945SOL    HW113574   4.344   2.961   5.942 -0.9173  0.4223 -3.0698
 3945SOL    HW213575   4.454   2.877   6.003 -3.0331  0.4114  1.0627
 3946SOL     OW13576   2.559   0.995   4.646  0.5342 -0.0191  0.0697
 3946SOL    HW113577   2.517   1.081   4.644 -1.2977 -0.7365  2.2298
 3946SOL    HW213578   2.552   0.963   4.556 -1.7787  0.7996 -0.1263
 3947SOL     OW13579   2.105   2.743   8.168  0.3246 -0.3211  0.0621
 3947SOL    HW113580   2.180   2.754   8.227  0.5561 -0.9254 -0.1093
 3947SOL    HW213581   2.056   2.825   8.175  0.3402 -0.3913  1.1043
 3948SOL     OW13582   0.555   0.287   7.375  0.3362 -0.2936  0.4143
 3948SOL    HW113583   0.643   0.251   7.367  0.8790  0.7378  1.4554
 3948SOL    HW213584   0.545   0.345   7.299  1.2478  0.9420  1.1967
 3949SOL     OW13585   0.135   8.392   2.054 -0.1902  0.2687 -0.0960
 3949SOL    HW113586   0.173   8.417   1.970  0.9621 -1.4409 -0.1437
 3949SOL    HW213587   0.204   8.410   2.117 -0.6588  0.5295  0.3471
 3950SOL     OW13588   0.848   0.947   2.072  0.4382 -0.4481 -0.2768
 3950SOL    HW113589   0.767   0.935   2.023 -0.7573  0.2739  1.4619
 3950SOL    HW213590   0.826   0.926   2.163  1.2621  2.9980  0.8708
 3951SOL     OW13591   0.190   8.935   3.146 -0.5188 -0.9853  0.7750
 3951SOL    HW113592   0.178   8.903   3.236 -1.9361  0.1449  1.0298
 3951SOL    HW213593   0.231   9.021   3.157 -0.4543 -0.9549  0.3173
 3952SOL     OW13594   2.871   0.100   4.945 -0.1364 -0.1400 -0.2836
 3952SOL    HW113595   2.861   0.019   4.894 -0.9568 -0.1140 -0.1651
 3952SOL    HW213596   2.951   0.139   4.910  0.3605 -1.0706 -0.2410
 3953SOL     OW13597   0.519   5.691   7.429 -0.2067  0.0617  0.6452
 3953SOL    HW113598   0.585   5.654   7.370 -3.0625  0.0866 -2.8889
 3953SOL    HW213599   0.570   5.731   7.499  3.3649 -2.8409  0.0494
 3954SOL     OW13600   4.205   6.638   5.993 -0.2912  0.1573  0.2022
 3954SOL    HW113601   4.170   6.636   5.904  0.7951 -0.1905 -0.2310
 3954SOL    HW213602   4.299   6.653   5.982  0.1797 -1.7223  1.1745
 3955SOL     OW13603   5.484   8.916   5.776  0.3059 -0.1025  0.0399
 3955SOL    HW113604   5.472   8.872   5.692  0.8554 -0.6110  0.2136
 3955SOL    HW213605   5.504   9.007   5.753  3.7775 -0.8657 -0.6089
 3956SOL     OW13606   7.168   4.125   5.162  0.3531 -0.2309  0.1824
 3956SOL    HW113607   7.212   4.105   5.245  0.3473  2.3733  0.9011
 3956SOL    HW213608   7.232   4.176   5.113 -0.4874  0.3364 -0.3583
 3957SOL     OW13609   2.490   7.990   8.891  0.2329 -0.1161  0.0230
 3957SOL    HW113610   2.435   8.037   8.829  1.3692  0.6266 -0.4604
 3957SOL    HW213611   2.561   7.955   8.838  2.2747  2.1166  1.0765
 3958SOL     OW13612   0.172   3.639   5.890 -0.0389 -0.1677  0.1048
 3958SOL    HW113613   0.242   3.642   5.956 -0.0906 -1.8799  0.2812
 3958SOL    HW213614   0.113   3.570   5.921 -1.0001  0.2162 -0.8356
 3959SOL     OW13615   6.235   2.744   0.174 -0.1298 -0.1168  0.1532
 3959SOL    HW113616   6.189   2.796   0.240 -0.5142 -1.4537  0.9734
 3959SOL    HW213617   6.166   2.692   0.132  0.4419 -1.1236  0.4438
 3960SOL     OW13618   0.602   8.906   1.443 -0.0874  0.9101  0.0560
 3960SOL    HW113619   0.684   8.894   1.396 -0.7784  1.4972 -1.3486
 3960SOL    HW213620   0.546   8.953   1.382 -1.6295  0.1395  0.8226
 3961SOL     OW13621   1.809   7.295   3.485 -0.5554 -0.8272 -0.6209
 3961SOL    HW113622   1.904   7.308   3.484 -0.6602  0.0501 -1.8546
 3961SOL    HW213623   1.773   7.383   3.480 -1.4511 -1.1340  0.1974
 3962SOL     OW13624   2.237   1.396   8.490  0.1432 -0.6128 -0.3370
 3962SOL    HW113625   2.167   1.332   8.480 -0.4068 -0.1439  0.4585
 3962SOL    HW213626   2.224   1.434   8.576  1.5688 -0.7277 -0.0458
 3963SOL     OW13627   6.514   2.612   2.283  0.9320  0.0238 -0.1291
 3963SOL    HW113628   6.553   2.607   2.196 -0.0645  1.3112 -0.6816
 3963SOL    HW213629   6.584   2.648   2.338  1.7004 -1.1845 -0.2891
 3964SOL     OW13630   0.526   5.513   7.841  0.4020 -0.5754  0.5428
 3964SOL    HW113631   0.551   5.605   7.851 -0.6455 -0.3372  1.0337
 3964SOL    HW213632   0.557   5.471   7.921  0.5000 -0.5705  0.5080
 3965SOL     OW13633   5.025   1.035   1.785  0.2659 -0.0443 -0.3996
 3965SOL    HW113634   5.060   1.074   1.705 -0.3602 -0.4663 -0.8982
 3965SOL    HW213635   5.008   0.943   1.761 -2.6272  0.4791 -0.7207
 3966SOL     OW13636   2.114   9.471   2.619  0.6183  0.1558 -0.3676
 3966SOL    HW113637   2.049   9.405   2.643 -1.2589  1.6157 -1.1615
 3966SOL    HW213638   2.138   9.512   2.702 -0.4203  0.4272 -0.1984
 3967SOL     OW13639   7.919   0.262   5.546  0.5621 -0.2758 -0.2796
 3967SOL    HW113640   7.940   0.169   5.532  2.1910  0.2275 -1.5204
 3967SOL    HW213641   7.964   0.285   5.627 -0.1075 -0.6308  0.2027
 3968SOL     OW13642   8.180   4.223   4.463 -0.0295 -0.4989  0.7164
 3968SOL    HW113643   8.229   4.290   4.511  0.4236  0.3338 -0.8478
 3968SOL    HW213644   8.136   4.271   4.393 -2.0022 -1.4374  1.2466
 3969SOL     OW13645   7.319   8.062   0.293  0.2549  0.3945  0.1531
 3969SOL    HW113646   7.412   8.081   0.286  0.6039 -1.5660 -1.9924
 3969SOL    HW213647   7.315   7.968   0.313 -1.2592  0.4874  0.4437
 3970SOL     OW13648   2.501   0.914   7.940  0.6164  0.1773 -0.5059
 3970SOL    HW113649   2.594   0.906   7.961  0.8905 -1.5544 -2.1805
 3970SOL    HW213650   2.461   0.834   7.975 -0.3753  1.1074  0.5997
 3971SOL     OW13651   6.891   2.480   3.539  0.0088 -0.0874 -0.0852
 3971SOL    HW113652   6.874   2.535   3.615 -0.5000  1.3084 -1.1729
 3971SOL    HW213653   6.940   2.406   3.574 -0.7059  0.2229  1.6910
 3972SOL     OW13654   0.690   0.922   8.250  0.5018  0.4065  0.3199
 3972SOL    HW113655   0.725   0.846   8.203 -2.5335 -1.4536  0.7779
 3972SOL    HW213656   0.609   0.944   8.203 -0.0907  1.5897  1.8101
 3973SOL     OW13657   8.675   9.396   6.444 -0.1648 -0.2220 -0.2308
 3973SOL    HW113658   8.623   9.418   6.366 -0.0247 -1.7410 -0.7885
 3973SOL    HW213659   8.766   9.404   6.415 -0.1113 -0.5374 -0.1519
 3974SOL     OW13660   1.445   3.304   1.286  0.2250 -0.2192  0.6204
 3974SOL    HW113661   1.362   3.352   1.286  1.2600  1.6771  2.3061
 3974SOL    HW213662   1.494   3.341   1.212 -0.0847 -0.7698  0.1279
 3975SOL     OW13663   8.765   5.998   1.551  0.8925 -0.0108 -0.8974
 3975SOL    HW113664   8.778   5.970   1.460  0.7053 -0.8126 -0.6845
 3975SOL    HW213665   8.677   5.968   1.572  0.6144  0.8912 -0.7000
 3976SOL     OW13666   0.133   3.122   2.533  0.2912 -0.0379  0.3031
 3976SOL    HW113667   0.065   3.189   2.526  1.0438  0.6086 -1.5255
 3976SOL    HW213668   0.200   3.150   2.470  1.7964 -1.1710  1.3426
 3977SOL     OW13669   6.460   5.066   6.455 -0.1005  0.3363  0.2321
 3977SOL    HW113670   6.471   5.112   6.372  0.0198 -1.1729 -0.6311
 3977SOL    HW213671   6.495   4.978   6.439 -3.1478 -1.1298  0.7585
 3978SOL     OW13672   8.342   5.698   5.492  0.2604  0.6512  0.6026
 3978SOL    HW113673   8.332   5.606   5.470  1.3481  0.0726  2.3298
 3978SOL    HW213674   8.252   5.732   5.495 -0.4356 -1.1036  2.7793
 3979SOL     OW13675   7.010   1.353   1.346  0.0062  0.2612  0.1161
 3979SOL    HW113676   7.056   1.435   1.324 -0.0187  0.7978  1.8847
 3979SOL    HW213677   7.001   1.308   1.263  0.6695  1.7363 -0.8061
 3980SOL     OW13678   6.959   0.298   2.945  0.0066 -0.3909 -0.1112
 3980SOL    HW113679   6.913   0.334   2.868  0.0587 -0.8939 -0.3818
 3980SOL    HW213680   7.049   0.327   2.934  0.6503 -2.7272 -1.7189
 3981SOL     OW13681   6.404   8.335   0.251  0.4738  0.0156 -0.0724
 3981SOL    HW113682   6.378   8.391   0.323  1.5729  0.6293 -0.1277
 3981SOL    HW213683   6.336   8.348   0.185 -0.7369 -0.8380  0.9710
 3982SOL     OW13684   2.712   4.686   8.571 -0.3763 -0.6522  0.0539
 3982SOL    HW113685   2.690   4.758   8.630 -0.1406 -0.6768  0.1740
 3982SOL    HW213686   2.686   4.717   8.484 -0.4535 -0.4984  0.1315
 3983SOL     OW13687   5.541   4.222   2.703  0.2163  0.0967 -0.4282
 3983SOL    HW113688   5.605   4.206   2.773 -0.4154 -1.0258 -0.0772
 3983SOL    HW213689   5.540   4.141   2.653 -0.6084  0.2678 -0.6992
 3984SOL     OW13690   1.342   4.911   2.922 -0.3409 -0.3407 -0.4055
 3984SOL    HW113691   1.397   4.858   2.980 -1.2595 -1.0480 -0.1548
 3984SOL    HW213692   1.397   4.986   2.899 -0.1808  0.3055  1.9164
 3985SOL     OW13693   9.096   3.278   0.188 -0.4510  0.5118 -0.5801
 3985SOL    HW113694   9.055   3.340   0.129  2.0003  0.6300 -2.3360
 3985SOL    HW213695   9.104   3.197   0.137  0.4565  0.1775  0.0549
 3986SOL     OW13696   7.478   0.039   4.551  0.3507 -0.4469 -0.2572
 3986SOL    HW113697   7.566   0.015   4.579  0.7458  0.2583 -0.8797
 3986SOL    HW213698   7.455   0.113   4.607  0.1371 -0.6421 -0.0826
 3987SOL     OW13699   1.125   3.679   9.453  0.1071  0.2123  0.3203
 3987SOL    HW113700   1.044   3.657   9.407 -0.5540  0.4081  1.3599
 3987SOL    HW213701   1.115   3.770   9.479  1.0338  0.4977 -0.2716
 3988SOL     OW13702   3.709   7.177   1.979 -0.2060  0.0532  0.3778
 3988SOL    HW113703   3.627   7.227   1.972 -0.1735  0.4371  2.1482
 3988SOL    HW213704   3.702   7.133   2.064  1.2700 -0.2052  0.3866
 3989SOL     OW13705   5.618   8.313   3.992 -0.2161 -0.3607  0.2717
 3989SOL    HW113706   5.581   8.225   3.993  1.6278 -1.1973  1.2755
 3989SOL    HW213707   5.602   8.346   4.080  0.5130 -0.3590  0.4128
 3990SOL     OW13708   0.370   4.070   8.226 -0.2261  0.3048 -0.3583
 3990SOL    HW113709   0.452   4.116   8.246  0.1206 -0.3097 -0.3598
 3990SOL    HW213710   0.312   4.138   8.193  0.9910  0.3789 -2.4624
 3991SOL     OW13711   0.889   2.937   4.682  0.0599  0.1014  0.5616
 3991SOL    HW113712   0.985   2.941   4.679 -0.0052  1.7945 -0.7040
 3991SOL    HW213713   0.860   3.022   4.650 -1.8853  0.2707  2.5321
 3992SOL     OW13714   9.005   4.409   5.495  0.2878  0.4091  0.8106
 3992SOL    HW113715   8.959   4.355   5.559  2.8039 -0.1941  2.2395
 3992SOL    HW213716   8.971   4.498   5.509 -1.9804 -0.2951  0.2366
 3993SOL     OW13717   9.238   7.190   7.789 -0.0964  0.1136  0.1403
 3993SOL    HW113718   9.143   7.179   7.791 -0.1224  0.2360 -0.3422
 3993SOL    HW213719   9.251   7.281   7.763  0.1617 -0.0577 -0.3324
 3994SOL     OW13720   2.909   7.069   0.164 -0.3101  0.2619 -0.3988
 3994SOL    HW113721   2.912   7.100   0.255  0.3185  1.0504 -0.6727
 3994SOL    HW213722   2.990   7.103   0.125 -1.0370  0.7683 -1.5140
 3995SOL     OW13723   4.471   5.114   5.611 -0.1433 -0.0078 -0.3867
 3995SOL    HW113724   4.427   5.173   5.549 -1.1333 -0.4084 -0.0771
 3995SOL    HW213725   4.565   5.126   5.592 -0.2381  2.3440  0.2715
 3996SOL     OW13726   2.226   5.275   0.192  0.1021  0.4393  0.2401
 3996SOL    HW113727   2.319   5.252   0.202 -0.2337 -0.9265  0.4007
 3996SOL    HW213728   2.181   5.191   0.190 -1.1052  1.0816 -0.2395
 3997SOL     OW13729   0.289   0.590   5.917 -0.5910  0.0563 -0.5124
 3997SOL    HW113730   0.263   0.515   5.971  3.1102 -1.3990 -0.3869
 3997SOL    HW213731   0.294   0.555   5.828 -0.8169  0.7377 -0.7961
 3998SOL     OW13732   8.854   2.763   2.600 -0.1757  0.1317 -0.2468
 3998SOL    HW113733   8.906   2.766   2.680  0.1642 -2.0573 -0.3324
 3998SOL    HW213734   8.883   2.840   2.550  3.0167 -0.9401 -0.2716
 3999SOL     OW13735   5.330   5.710   6.855  0.4681 -0.1270 -0.4313
 3999SOL    HW113736   5.393   5.740   6.789  0.6852 -0.4493 -0.3759
 3999SOL    HW213737   5.327   5.615   6.842  0.7317 -0.2268  0.2105
 4000SOL     OW13738   2.413   6.392   9.056 -0.5611  0.6258 -0.2111
 4000SOL    HW113739   2.398   6.299   9.039 -0.7766  0.3138  1.4659
 4000SOL    HW213740   2.415   6.433   8.970 -0.1141 -0.9872 -1.0035
 4001SOL     OW13741   9.463   5.912   4.410  0.1600 -0.5871 -0.4147
 4001SOL    HW113742   9.401   5.985   4.416 -0.2535 -0.9738  0.0359
 4001SOL    HW213743   9.421   5.840   4.458  0.4124 -1.2303 -1.1371
 4002SOL     OW13744   7.414   3.740   7.165  0.3104  0.5591  0.1487
 4002SOL    HW113745   7.337   3.693   7.132 -0.8190  3.1009 -1.0595
 4002SOL    HW213746   7.484   3.718   7.103 -0.3709  0.9571 -0.7859
 4003SOL     OW13747   9.060   4.141   9.423 -1.0004  0.1590 -0.5699
 4003SOL    HW113748   8.997   4.122   9.492  0.6289 -3.0873  0.1987
 4003SOL    HW213749   9.078   4.057   9.382  0.7922  1.4125 -2.6289
 4004SOL     OW13750   3.652   8.335   6.454  0.2470 -0.4554 -0.3989
 4004SOL    HW113751   3.743   8.365   6.451  0.2428 -0.4872 -1.0611
 4004SOL    HW213752   3.658   8.243   6.481  0.3849 -0.3597 -0.1016
 4005SOL     OW13753   7.144   8.158   1.700  0.3450  0.2274  0.0886
 4005SOL    HW113754   7.067   8.208   1.674  0.3422 -0.0718 -0.4956
 4005SOL    HW213755   7.199   8.221   1.747 -0.9968  0.0469  2.0430
 4006SOL     OW13756   6.399   3.285   0.195  0.2378 -0.1890 -0.1240
 4006SOL    HW113757   6.433   3.197   0.212 -1.0361 -0.4746  1.1662
 4006SOL    HW213758   6.357   3.277   0.109 -0.1021 -0.9272  0.0992
 4007SOL     OW13759   2.703   5.338   5.779 -0.5990 -0.0208 -0.0756
 4007SOL    HW113760   2.710   5.303   5.868  0.6342 -0.9280 -0.5097
 4007SOL    HW213761   2.617   5.309   5.748 -0.1315 -1.6092  0.0387
 4008SOL     OW13762   8.535   8.260   3.967 -0.4251  0.1649  0.1204
 4008SOL    HW113763   8.533   8.349   3.931  1.2446  0.0361 -0.3858
 4008SOL    HW213764   8.484   8.266   4.048 -3.1942  0.7488 -1.5368
 4009SOL     OW13765   9.243   0.939   4.100  0.5981  0.0723 -0.0406
 4009SOL    HW113766   9.218   0.913   4.011  1.7135  0.3291 -0.4509
 4009SOL    HW213767   9.184   1.011   4.122 -1.7548 -1.9403  0.6606
 4010SOL     OW13768   2.647   3.997   4.902  0.1915 -0.2738 -0.2891
 4010SOL    HW113769   2.599   3.919   4.874  0.0886  0.0190 -0.9634
 4010SOL    HW213770   2.584   4.069   4.888  0.2626 -0.0788  0.3815
 4011SOL     OW13771   0.048   1.841   6.794  0.1547  0.2900  0.1417
 4011SOL    HW113772  -0.041   1.809   6.807  0.7286 -1.4123  0.2097
 4011SOL    HW213773   0.038   1.927   6.754 -1.5032 -0.4451 -1.1061
 4012SOL     OW13774   0.809   3.023   8.053 -0.2703 -0.3396 -0.1248
 4012SOL    HW113775   0.769   2.959   7.994 -0.5501 -0.2920  0.0143
 4012SOL    HW213776   0.901   2.995   8.059  0.1330  0.5207 -1.7695
 4013SOL     OW13777   3.685   6.600   4.357  0.4005 -0.7911  0.2769
 4013SOL    HW113778   3.642   6.546   4.291  1.7081 -1.4904 -0.0232
 4013SOL    HW213779   3.728   6.537   4.415 -2.7001 -0.3874  3.3286
 4014SOL     OW13780   8.129   5.867   7.756  0.6139 -0.1013  0.2356
 4014SOL    HW113781   8.131   5.886   7.663  0.6262  3.3151  0.8145
 4014SOL    HW213782   8.036   5.869   7.779  0.7044  0.5511  0.5473
 4015SOL     OW13783   6.993   5.153   2.205 -0.3291  0.5626  0.0885
 4015SOL    HW113784   6.954   5.104   2.132 -0.8426 -0.6955  1.1527
 4015SOL    HW213785   6.997   5.089   2.276  3.3725  0.7205  0.1971
 4016SOL     OW13786   4.522   0.287   7.237  0.0364  0.3226 -0.1687
 4016SOL    HW113787   4.521   0.324   7.325 -0.7524  2.2790 -0.9451
 4016SOL    HW213788   4.461   0.341   7.187  2.0815  0.6953 -2.4665
 4017SOL     OW13789   6.319   2.827   7.001 -0.0870 -0.3374 -0.1528
 4017SOL    HW113790   6.282   2.873   6.927 -3.9707  0.7030  2.1690
 4017SOL    HW213791   6.388   2.885   7.034 -1.0620  1.1309 -0.6107
 4018SOL     OW13792   9.284   9.153   3.916 -1.0121 -0.4076  0.0429
 4018SOL    HW113793   9.341   9.140   3.991  0.0401  0.1814 -0.6342
 4018SOL    HW213794   9.336   9.124   3.841 -1.6945 -0.0962 -0.5685
 4019SOL     OW13795   7.092   2.122   3.455  0.0527 -0.4529 -0.4641
 4019SOL    HW113796   7.041   2.133   3.535  0.7885 -0.9803  0.0939
 4019SOL    HW213797   7.183   2.121   3.484  0.4033  0.6160 -1.4540
 4020SOL     OW13798   2.122   7.545   1.123 -0.0179  0.2176 -0.5328
 4020SOL    HW113799   2.179   7.553   1.199 -0.7635 -0.4837  0.1229
 4020SOL    HW213800   2.041   7.590   1.149  0.2568  1.3316 -1.5020
 4021SOL     OW13801   8.782   5.585   3.498 -0.5545  0.3570  0.4565
 4021SOL    HW113802   8.700   5.553   3.461  1.2981 -2.1427 -1.8973
 4021SOL    HW213803   8.788   5.676   3.470 -1.4918 -0.0854 -1.3196
 4022SOL     OW13804   5.860   4.096   7.736 -0.6998  0.6987 -0.2511
 4022SOL    HW113805   5.888   4.022   7.789  0.5176  1.7884  0.7185
 4022SOL    HW213806   5.790   4.137   7.787 -0.3522  1.0530 -0.0492
 4023SOL     OW13807   7.443   4.752   3.046 -0.6978 -0.1102  0.1324
 4023SOL    HW113808   7.453   4.815   3.118 -0.6097  0.6122 -0.4910
 4023SOL    HW213809   7.457   4.805   2.967 -0.7338 -0.9010 -0.4105
 4024SOL     OW13810   7.111   9.538   0.460  0.0476 -0.4351 -0.1305
 4024SOL    HW113811   7.046   9.469   0.466  0.0155 -0.3708  0.2657
 4024SOL    HW213812   7.114   9.561   0.367  2.0114 -2.8419 -0.7638
 4025SOL     OW13813   0.575   8.439   4.405 -0.0377  0.5895  0.2965
 4025SOL    HW113814   0.550   8.461   4.316 -0.7207 -0.3305  0.2366
 4025SOL    HW213815   0.509   8.376   4.433  1.8157 -1.4369  0.3910
 4026SOL     OW13816   7.119   7.999   9.500  0.1620  0.8946 -0.3006
 4026SOL    HW113817   7.189   8.064   9.508  0.1261  0.8322  0.6812
 4026SOL    HW213818   7.040   8.051   9.484  0.1496  1.0984  0.3839
 4027SOL     OW13819   9.450   1.738   2.688  0.1291  0.1848 -0.3285
 4027SOL    HW113820   9.473   1.651   2.719 -1.3568 -0.6495 -1.4694
 4027SOL    HW213821   9.494   1.745   2.603 -0.2640  0.2953 -0.5241
 4028SOL     OW13822   3.951   6.787   5.848 -0.0991  0.4615  0.1710
 4028SOL    HW113823   4.040   6.815   5.826  0.2621 -0.8414 -0.1080
 4028SOL    HW213824   3.896   6.828   5.781  0.4023  0.5414 -0.2004
 4029SOL     OW13825   5.108   3.380   6.988  0.0453 -0.1615 -0.2708
 4029SOL    HW113826   5.077   3.470   6.977  0.1313 -0.1535 -0.4505
 4029SOL    HW213827   5.062   3.330   6.921  1.6019  0.1368 -1.6489
 4030SOL     OW13828   5.761   8.081   4.442 -0.5266 -0.2387 -0.3750
 4030SOL    HW113829   5.666   8.080   4.431 -0.9167 -3.1871  1.9625
 4030SOL    HW213830   5.790   8.156   4.390 -3.5337 -1.9542 -5.3321
 4031SOL     OW13831   2.474   5.046   1.904  0.1868 -0.4975 -0.3557
 4031SOL    HW113832   2.542   5.070   1.967 -0.4152 -1.1263  0.5711
 4031SOL    HW213833   2.517   5.050   1.819  0.8964  0.8153  0.0515
 4032SOL     OW13834   0.150   2.361   4.567  0.2851  0.5201 -0.5481
 4032SOL    HW113835   0.201   2.403   4.497  0.4321  1.3175  0.0216
 4032SOL    HW213836   0.064   2.403   4.562 -0.3380 -0.7963 -1.4840
 4033SOL     OW13837   8.891   2.752   8.063  0.6418 -0.0861  0.3079
 4033SOL    HW113838   8.874   2.823   8.002 -1.0780 -0.8858 -0.2147
 4033SOL    HW213839   8.889   2.793   8.149  0.7077  0.6694 -0.0476
 4034SOL     OW13840   6.568   5.965   4.332 -0.1229 -0.3713  0.2131
 4034SOL    HW113841   6.625   5.938   4.260 -0.9308  0.0974 -0.6319
 4034SOL    HW213842   6.628   5.984   4.405  0.5882 -2.5406  0.2522
 4035SOL     OW13843   7.346   0.124   0.374 -0.2137  0.1325  0.0435
 4035SOL    HW113844   7.294   0.098   0.299  0.0469 -1.1840  0.3029
 4035SOL    HW213845   7.332   0.055   0.439  2.5075 -0.7416 -0.1905
 4036SOL     OW13846   4.753   1.801   8.390 -0.1883 -0.0937 -0.1624
 4036SOL    HW113847   4.776   1.832   8.303  0.1056  0.9066  0.2592
 4036SOL    HW213848   4.773   1.707   8.388 -0.8451 -0.2198 -1.3754
 4037SOL     OW13849   0.542   5.166   9.399  0.2603  0.3552  0.0832
 4037SOL    HW113850   0.499   5.205   9.475  0.1079  1.0381 -0.3431
 4037SOL    HW213851   0.571   5.080   9.429 -0.3998  0.3438  0.7091
 4038SOL     OW13852   0.532   6.520   9.207  0.0268 -0.1926  0.0427
 4038SOL    HW113853   0.499   6.603   9.172  0.0348 -0.3122 -0.2531
 4038SOL    HW213854   0.465   6.456   9.184 -0.3761 -0.1267  1.0071
 4039SOL     OW13855   0.292   0.164   9.316 -0.0809 -0.1868  0.6002
 4039SOL    HW113856   0.314   0.071   9.308  0.1139 -0.1459  0.6626
 4039SOL    HW213857   0.285   0.180   9.410  2.7720  0.5210  0.7743
 4040SOL     OW13858   3.836   3.807   4.093 -0.3231 -0.5681  0.0990
 4040SOL    HW113859   3.927   3.825   4.070 -0.4006 -1.6099 -1.0871
 4040SOL    HW213860   3.818   3.866   4.167  1.0291  0.2854 -0.2234
 4041SOL     OW13861   5.011   8.132   9.061 -0.5853  0.3572  0.4006
 4041SOL    HW113862   5.059   8.190   9.001 -0.2927 -0.4060 -0.1298
 4041SOL    HW213863   5.001   8.183   9.141  1.5960  0.3737  0.7158
 4042SOL     OW13864   5.000   7.485   2.894 -0.7455  0.1242  0.1707
 4042SOL    HW113865   5.005   7.514   2.985  0.8426  0.2727  0.0592
 4042SOL    HW213866   4.911   7.451   2.885 -1.2848  1.1081  1.4650
 4043SOL     OW13867   7.004   7.543   2.092 -0.6492 -0.3920  0.5600
 4043SOL    HW113868   7.086   7.550   2.141  0.3761  1.0056 -1.1962
 4043SOL    HW213869   6.961   7.628   2.105 -1.1860 -0.6390  0.4210
 4044SOL     OW13870   8.925   7.571   2.385 -0.3745 -0.0388  0.4193
 4044SOL    HW113871   8.892   7.650   2.428  1.5652  1.0846 -0.0404
 4044SOL    HW213872   8.903   7.500   2.445  0.5568  1.2438  2.3866
 4045SOL     OW13873   8.570   6.676   5.012  0.2442  0.3847 -0.4772
 4045SOL    HW113874   8.587   6.743   5.078  3.8491 -1.1964  0.4610
 4045SOL    HW213875   8.614   6.708   4.933  1.3542 -0.4855 -0.2326
 4046SOL     OW13876   7.639   4.244   7.485 -0.0407 -0.0954 -0.2740
 4046SOL    HW113877   7.575   4.253   7.556  0.3587  0.0694  0.0701
 4046SOL    HW213878   7.711   4.301   7.511  0.1961 -0.1948 -0.7152
 4047SOL     OW13879   8.896   9.198   5.502  0.2417  0.4508  0.7084
 4047SOL    HW113880   8.985   9.177   5.529  0.2926  0.0862  0.2683
 4047SOL    HW213881   8.901   9.288   5.469  0.8688 -0.2078 -1.1302
 4048SOL     OW13882   9.154   8.219   8.277  0.1389 -0.2665  0.4026
 4048SOL    HW113883   9.228   8.164   8.302  0.1142 -0.1911  0.6483
 4048SOL    HW213884   9.174   8.248   8.188 -0.1551 -1.1909  0.0211
 4049SOL     OW13885   8.896   7.099   0.713  0.1217 -0.1581 -0.3013
 4049SOL    HW113886   8.803   7.121   0.717 -0.1518 -1.3514  0.1529
 4049SOL    HW213887   8.903   7.038   0.639  0.4637 -0.4332 -0.0433
 4050SOL     OW13888   7.140   3.506   3.102 -0.5997  0.4316 -0.0405
 4050SOL    HW113889   7.158   3.458   3.183 -2.5183  1.9294  1.3892
 4050SOL    HW213890   7.194   3.463   3.036  1.2610 -0.6984  2.0643
 4051SOL     OW13891   0.554   1.287   1.856  0.3061  0.4704 -0.0281
 4051SOL    HW113892   0.546   1.192   1.867 -0.4963  0.3260 -1.5968
 4051SOL    HW213893   0.531   1.323   1.942 -0.1293 -0.7163  0.3728
 4052SOL     OW13894   6.810   3.553   3.979 -0.0911 -0.4839 -0.2487
 4052SOL    HW113895   6.752   3.599   4.040 -0.9167  0.2105 -1.5245
 4052SOL    HW213896   6.762   3.474   3.955 -1.5162  1.0764 -2.8978
 4053SOL     OW13897   8.854   4.221   0.558  0.9678 -0.1409 -0.5487
 4053SOL    HW113898   8.894   4.151   0.611 -0.8445 -0.0298  1.0572
 4053SOL    HW213899   8.925   4.283   0.544  1.6639 -0.4329  1.3484
 4054SOL     OW13900   2.935   1.289   1.233  0.0257  0.0515  0.6468
 4054SOL    HW113901   2.912   1.235   1.309 -2.4991  0.3688  0.2050
 4054SOL    HW213902   2.921   1.231   1.158 -4.3169  1.4937  0.0338
 4055SOL     OW13903   0.903   2.011   0.428  0.3496  0.5644  0.0309
 4055SOL    HW113904   0.855   1.952   0.370 -0.0018 -2.8207  3.3537
 4055SOL    HW213905   0.993   1.976   0.428  0.2549  0.2233  1.6746
 4056SOL     OW13906   9.593   6.033   3.473 -0.2422 -0.0600 -0.0117
 4056SOL    HW113907   9.605   6.067   3.561 -1.1141  2.0792 -0.6399
 4056SOL    HW213908   9.646   5.954   3.469  0.9937  0.6254  1.9502
 4057SOL     OW13909   0.929   3.174   8.515 -0.6800 -0.2780  0.2253
 4057SOL    HW113910   1.011   3.131   8.495 -1.6266 -4.3431  3.7189
 4057SOL    HW213911   0.862   3.118   8.476 -1.8958  0.4337  1.2117
 4058SOL     OW13912   5.539   4.492   7.862 -0.5931  0.3098  0.2569
 4058SOL    HW113913   5.585   4.575   7.874 -0.1733 -0.0458  1.2361
 4058SOL    HW213914   5.447   4.517   7.855 -0.3144  1.0022 -1.3677
 4059SOL     OW13915   3.173   5.924   6.116 -0.1825 -0.2419 -0.8130
 4059SOL    HW113916   3.085   5.892   6.095 -0.1429  0.6596 -2.4868
 4059SOL    HW213917   3.173   6.015   6.088  1.4680 -0.3880 -1.3990
 4060SOL     OW13918   8.357   0.222   5.489 -0.1106 -0.6642 -0.1930
 4060SOL    HW113919   8.352   0.195   5.581  2.1104 -3.8117 -0.8115
 4060SOL    HW213920   8.365   0.317   5.492  0.7065 -0.7134  2.9378
 4061SOL     OW13921   8.805   0.982   4.403 -0.3078  0.4792 -0.3686
 4061SOL    HW113922   8.884   1.031   4.380  0.5226 -0.9739 -0.7128
 4061SOL    HW213923   8.758   0.971   4.321 -0.3944  0.5310 -0.3260
 4062SOL     OW13924   8.823   4.640   3.711  0.2368  0.1469 -0.1135
 4062SOL    HW113925   8.878   4.699   3.762 -0.6015 -0.2374  1.2970
 4062SOL    HW213926   8.759   4.697   3.668 -0.6994  0.2933  1.4096
 4063SOL     OW13927   3.014   8.667   3.306  0.1331  0.0687  0.0811
 4063SOL    HW113928   2.985   8.689   3.394 -0.0037 -4.6657  1.5090
 4063SOL    HW213929   3.109   8.657   3.315  0.3788  1.2848 -0.8597
 4064SOL     OW13930   0.003   6.156   1.284  0.6199  0.1061  0.3012
 4064SOL    HW113931   0.064   6.082   1.275  1.0937  0.6278 -0.9368
 4064SOL    HW213932  -0.081   6.115   1.306  0.9092 -0.7901 -0.2023
 4065SOL     OW13933   8.055   9.153   5.166 -0.2276 -0.1421 -0.1263
 4065SOL    HW113934   8.097   9.126   5.247  2.1798  0.2114 -1.1710
 4065SOL    HW213935   7.991   9.219   5.193  2.7881  2.4555  1.3012
 4066SOL     OW13936   7.180   4.798   5.274 -0.1659  0.4741  0.2197
 4066SOL    HW113937   7.120   4.780   5.346  1.3344 -0.7216  1.2120
 4066SOL    HW213938   7.218   4.883   5.296  0.0643  0.2531  0.6750
 4067SOL     OW13939   3.518   1.829   7.861  0.0102 -0.9392  0.3498
 4067SOL    HW113940   3.424   1.845   7.873 -0.2609 -1.5295 -0.9048
 4067SOL    HW213941   3.559   1.876   7.934 -1.3282 -1.7772  1.6934
 4068SOL     OW13942   0.751   3.892   7.182 -0.6047 -0.6468  0.2997
 4068SOL    HW113943   0.720   3.841   7.107  1.1576 -1.2918 -0.0425
 4068SOL    HW213944   0.839   3.858   7.199  0.0195  1.2149  1.0489
 4069SOL     OW13945   7.028   5.343   6.159  0.5535  0.4157  0.5549
 4069SOL    HW113946   7.015   5.437   6.172  1.5476  0.7218 -0.5379
 4069SOL    HW213947   7.080   5.337   6.079 -0.2147 -1.1084  0.1444
 4070SOL     OW13948   6.747   6.932   1.367  0.6152  0.0864 -0.1583
 4070SOL    HW113949   6.827   6.959   1.412  1.8246 -1.3932 -1.3093
 4070SOL    HW213950   6.774   6.859   1.311 -1.1616  0.7176 -1.9634
 4071SOL     OW13951   3.471   1.498   7.426  0.1434  0.1932  0.1428
 4071SOL    HW113952   3.566   1.514   7.426 -0.0940  1.7056 -0.4730
 4071SOL    HW213953   3.438   1.550   7.499 -0.4775  1.5217 -1.0470
 4072SOL     OW13954   2.501   0.353   3.040  0.0605 -0.2576  0.2244
 4072SOL    HW113955   2.564   0.424   3.026 -0.1771 -0.4394 -2.1440
 4072SOL    HW213956   2.423   0.397   3.074 -0.1321  0.6936 -1.3288
 4073SOL     OW13957   0.601   5.964   2.061  0.2672  0.1460  0.0741
 4073SOL    HW113958   0.655   5.929   1.990  0.8527  1.7636 -0.3309
 4073SOL    HW213959   0.649   5.941   2.141  0.2950 -0.5434 -0.1398
 4074SOL     OW13960   5.465   9.271   6.861  0.2815  0.5326  0.2483
 4074SOL    HW113961   5.484   9.177   6.862 -0.8319  0.2790  1.6703
 4074SOL    HW213962   5.371   9.276   6.878  0.4553  1.9100  0.9201
 4075SOL     OW13963   6.837   5.282   0.748 -0.2014 -0.5759 -0.1456
 4075SOL    HW113964   6.877   5.202   0.782 -0.6732  0.0410  1.9915
 4075SOL    HW213965   6.884   5.299   0.667  1.9043 -1.4373  0.8233
 4076SOL     OW13966   8.102   1.362   5.736  0.4118  0.1772  0.1203
 4076SOL    HW113967   8.135   1.272   5.741  1.5768  0.5980  0.2417
 4076SOL    HW213968   8.165   1.408   5.681 -0.5089  0.7900 -0.4721
 4077SOL     OW13969   6.222   3.958   5.943  0.2414 -0.0749 -0.0878
 4077SOL    HW113970   6.178   3.883   5.983 -0.4238  0.5466  0.3778
 4077SOL    HW213971   6.180   3.967   5.857  0.6226 -0.4979 -0.3183
 4078SOL     OW13972   9.478   5.508   2.186  0.2393  0.6189 -0.2742
 4078SOL    HW113973   9.542   5.486   2.118 -0.3672  0.3790 -0.7818
 4078SOL    HW213974   9.435   5.587   2.154 -1.1329 -0.3634 -0.9567
 4079SOL     OW13975   6.207   7.491   8.686 -0.3030 -0.0232  0.0804
 4079SOL    HW113976   6.117   7.474   8.657 -0.0443  0.1019 -0.8395
 4079SOL    HW213977   6.241   7.553   8.622  0.3398  0.1768  0.6063
 4080SOL     OW13978   6.858   8.923   1.140  0.0994  0.3873  0.3329
 4080SOL    HW113979   6.800   8.852   1.167 -0.7578  0.7596 -0.4554
 4080SOL    HW213980   6.827   9.000   1.189  0.5347  0.3904  0.6115
 4081SOL     OW13981   5.235   6.420   5.282 -0.1470  0.4949 -0.5919
 4081SOL    HW113982   5.319   6.440   5.243  0.3063 -0.2235 -0.0233
 4081SOL    HW213983   5.255   6.358   5.352 -1.0113  1.1666  0.2877
 4082SOL     OW13984   9.362   6.806   5.323  0.1636  0.5594  0.9576
 4082SOL    HW113985   9.395   6.789   5.411 -0.1038 -1.0887  0.7691
 4082SOL    HW213986   9.297   6.738   5.308  1.7067 -0.5414 -1.3218
 4083SOL     OW13987   5.476   3.340   7.175 -0.0501  0.0289  0.2133
 4083SOL    HW113988   5.562   3.331   7.215 -1.1639 -0.0457  2.7545
 4083SOL    HW213989   5.450   3.430   7.193 -0.1015  0.3844 -1.4779
 4084SOL     OW13990   8.420   5.100   4.050 -0.2049  0.3205 -0.1610
 4084SOL    HW113991   8.400   5.030   4.113 -1.2296 -1.7964 -2.6360
 4084SOL    HW213992   8.338   5.148   4.042  0.0136  0.7818  0.3102
 4085SOL     OW13993   5.409   9.348   2.762 -0.0214 -0.3279 -0.2521
 4085SOL    HW113994   5.379   9.373   2.849 -1.2796 -0.3327 -0.6649
 4085SOL    HW213995   5.330   9.322   2.715  0.8260 -1.7917 -0.9343
 4086SOL     OW13996   8.318   7.569   3.438 -0.7256 -0.6117  0.3748
 4086SOL    HW113997   8.223   7.576   3.449 -0.9491 -0.9235 -1.1559
 4086SOL    HW213998   8.330   7.539   3.348  0.8350 -0.5471  0.5285
 4087SOL     OW13999   3.264   3.741   5.041  0.3354 -0.6469  0.4904
 4087SOL    HW114000   3.332   3.732   4.974  0.5059 -0.2415  0.6042
 4087SOL    HW214001   3.291   3.818   5.092 -1.1790  0.6962 -0.6275
 4088SOL     OW14002   2.004   6.495   2.278 -0.4458 -0.0281  0.3262
 4088SOL    HW114003   1.975   6.413   2.239  1.7384 -0.8370  0.3113
 4088SOL    HW214004   2.023   6.552   2.203  0.0055 -0.2264  0.2888
 4089SOL     OW14005   5.733   2.794   6.272 -0.0812  0.2614 -0.1065
 4089SOL    HW114006   5.692   2.709   6.257 -0.5426  0.3124  0.8270
 4089SOL    HW214007   5.740   2.833   6.185 -0.4387 -0.4690 -0.4663
 4090SOL     OW14008   8.188   3.517   3.330  0.4754 -0.6489  0.1986
 4090SOL    HW114009   8.224   3.450   3.388 -0.8724 -0.5793  1.1577
 4090SOL    HW214010   8.257   3.533   3.266  2.0936 -0.5756  1.9086
 4091SOL     OW14011   0.584   5.460   1.414 -0.2078 -0.8363 -0.2345
 4091SOL    HW114012   0.502   5.427   1.450 -0.5008 -0.0340 -0.1664
 4091SOL    HW214013   0.573   5.452   1.319 -0.1061 -1.3385 -0.2067
 4092SOL     OW14014   5.302   8.662   3.100 -0.3215 -0.3193 -0.2098
 4092SOL    HW114015   5.271   8.753   3.099 -1.6066 -0.7401 -0.6049
 4092SOL    HW214016   5.396   8.669   3.116 -0.3532  1.0933 -0.4973
 4093SOL     OW14017   8.220   7.011   6.087 -0.0209  0.1033  0.4008
 4093SOL    HW114018   8.255   6.983   6.002 -0.3692 -2.2057  0.9594
 4093SOL    HW214019   8.297   7.041   6.136  0.1606  1.5934 -0.7360
 4094SOL     OW14020   8.831   7.789   2.576  0.7980 -0.0890  0.0643
 4094SOL    HW114021   8.902   7.823   2.631  1.2065 -0.1573 -0.4142
 4094SOL    HW214022   8.799   7.866   2.528 -0.2172  0.1640  1.1050
 4095SOL     OW14023   2.389   2.470   4.646 -0.0990 -0.1120  0.0094
 4095SOL    HW114024   2.473   2.458   4.691  0.6445  1.2122 -0.9487
 4095SOL    HW214025   2.413   2.504   4.559 -1.5906 -0.5730 -0.6189
 4096SOL     OW14026   0.114   2.642   6.092  0.2666  0.6754  0.9352
 4096SOL    HW114027   0.115   2.734   6.118  1.6474  0.7753  0.6114
 4096SOL    HW214028   0.203   2.625   6.061  0.0107 -0.7505  0.9169
 4097SOL     OW14029   2.333   1.241   0.780 -0.5462  0.3411 -0.9857
 4097SOL    HW114030   2.268   1.273   0.842 -0.7275 -1.7030 -0.0300
 4097SOL    HW214031   2.375   1.167   0.824 -0.7166 -1.2488 -3.2579
 4098SOL     OW14032   1.921   9.313   1.345  0.1034  0.3408 -0.3381
 4098SOL    HW114033   1.834   9.293   1.310  0.9713 -0.8664 -1.9735
 4098SOL    HW214034   1.904   9.368   1.422 -2.0423  1.0823 -1.2499
 4099SOL     OW14035   2.382   4.027   4.137 -0.1384 -0.2506  0.3881
 4099SOL    HW114036   2.302   4.049   4.185  0.5092  1.7457  0.6651
 4099SOL    HW214037   2.448   4.015   4.206 -0.1743 -1.9282  0.1668
 4100SOL     OW14038   6.809   3.772   5.935 -0.2665 -0.4524 -0.4355
 4100SOL    HW114039   6.818   3.847   5.877 -2.7088  0.4343  0.2137
 4100SOL    HW214040   6.839   3.698   5.883  1.1071  0.7784 -1.4846
 4101SOL     OW14041   6.120   5.433   3.426  0.8088 -0.1593 -0.1996
 4101SOL    HW114042   6.135   5.445   3.332  0.2417  2.1107 -0.0593
 4101SOL    HW214043   6.043   5.376   3.431 -0.4738  1.3909 -1.2024
 4102SOL     OW14044   1.346   6.011   2.151 -0.0271  0.1745 -0.7506
 4102SOL    HW114045   1.328   6.008   2.245  1.1725 -1.2956 -0.5382
 4102SOL    HW214046   1.267   5.974   2.111  0.2553 -1.0981 -0.1766
 4103SOL     OW14047   2.733   7.577   8.879 -0.7333 -0.6306  0.1968
 4103SOL    HW114048   2.669   7.577   8.809  1.4669  1.6648 -2.0366
 4103SOL    HW214049   2.817   7.569   8.835  0.6785 -2.0171  2.8586
 4104SOL     OW14050   3.352   7.736   5.005  0.0885 -0.0977  0.3136
 4104SOL    HW114051   3.337   7.735   5.099 -3.3217 -1.2537 -0.0910
 4104SOL    HW214052   3.298   7.808   4.973 -2.2988 -2.2846 -1.0329
 4105SOL     OW14053   5.851   7.621   6.866 -0.2484  0.1292  0.2220
 4105SOL    HW114054   5.866   7.678   6.941 -2.0831  0.9887 -0.0115
 4105SOL    HW214055   5.841   7.534   6.904  0.5133  0.2795  0.7886
 4106SOL     OW14056   2.186   7.936   1.302  0.0805 -0.1710  0.0746
 4106SOL    HW114057   2.125   7.863   1.289 -1.0684  0.7365  0.2157
 4106SOL    HW214058   2.130   8.012   1.316  1.2567  0.7098  0.1588
 4107SOL     OW14059   2.610   0.232   8.108  0.2138 -0.2190 -0.2775
 4107SOL    HW114060   2.683   0.171   8.113  0.2580 -0.0846  1.4421
 4107SOL    HW214061   2.532   0.176   8.111  0.2253 -0.3214 -1.4319
 4108SOL     OW14062   8.659   0.928   4.162  0.4419 -0.3538  0.3088
 4108SOL    HW114063   8.666   0.966   4.074  1.3471 -1.3243 -0.0520
 4108SOL    HW214064   8.575   0.961   4.195 -0.0453 -0.1955 -1.0246
 4109SOL     OW14065   0.967   3.974   7.560  0.1251  0.1378  0.8394
 4109SOL    HW114066   0.973   4.069   7.570  1.3772 -0.0405  2.0767
 4109SOL    HW214067   1.010   3.956   7.476 -0.9859  0.7271  0.1217
 4110SOL     OW14068   2.809   8.911   2.830  0.2051 -0.2219 -0.0887
 4110SOL    HW114069   2.763   8.993   2.810 -0.2194 -0.7735 -1.4789
 4110SOL    HW214070   2.811   8.907   2.926  0.4611  1.5366  0.0192
 4111SOL     OW14071   6.239   6.299   4.386 -0.1921 -0.3917  0.2669
 4111SOL    HW114072   6.213   6.335   4.471  0.5450 -0.3472  0.4788
 4111SOL    HW214073   6.324   6.339   4.368 -0.4020 -0.2947 -0.5591
 4112SOL     OW14074   7.918   1.471   8.132  0.4861 -0.0415  0.1422
 4112SOL    HW114075   7.859   1.528   8.181 -0.3029 -0.1977 -0.6084
 4112SOL    HW214076   7.958   1.528   8.067  0.0928 -0.2241 -0.2654
 4113SOL     OW14077   9.196   7.590   0.524 -0.4464 -0.1355  0.1545
 4113SOL    HW114078   9.156   7.518   0.476  1.6384 -0.8021 -0.6593
 4113SOL    HW214079   9.145   7.667   0.498 -1.8075 -1.0685 -0.0491
 4114SOL     OW14080   1.627   2.287   4.613 -0.1523 -0.0465  0.3140
 4114SOL    HW114081   1.580   2.204   4.603  0.0228 -0.1042 -0.0533
 4114SOL    HW214082   1.669   2.280   4.699 -0.3670 -0.2235  0.4047
 4115SOL     OW14083   3.859   5.794   7.284 -0.0740  0.1569  0.1829
 4115SOL    HW114084   3.831   5.703   7.292  0.9919 -0.3157 -1.0963
 4115SOL    HW214085   3.920   5.794   7.210 -0.0263  1.9080  0.1806
 4116SOL     OW14086   8.577   7.716   8.942 -0.1804 -0.2527  0.8089
 4116SOL    HW114087   8.500   7.763   8.976 -1.3301 -1.5985  0.1752
 4116SOL    HW214088   8.629   7.784   8.899 -1.8126  0.4885 -0.1161
 4117SOL     OW14089   4.345   8.063   6.883  0.2338  0.6115 -0.6465
 4117SOL    HW114090   4.420   8.080   6.826  0.2000  0.4946 -0.7260
 4117SOL    HW214091   4.301   7.987   6.843  0.5559  0.1465 -0.1362
 4118SOL     OW14092   6.597   7.277   4.094 -0.0357  0.0879 -0.6741
 4118SOL    HW114093   6.667   7.328   4.055 -0.1140 -0.3644 -1.4236
 4118SOL    HW214094   6.518   7.329   4.080  0.0104  0.1520 -0.6925
 4119SOL     OW14095   8.100   2.034   7.217  0.0763 -0.2065 -0.2154
 4119SOL    HW114096   8.029   2.006   7.160 -0.0014 -0.3759 -0.0374
 4119SOL    HW214097   8.147   2.101   7.167 -0.4829  0.2401 -0.1441
 4120SOL     OW14098   8.908   5.247   5.500  0.2201 -0.5800  0.0215
 4120SOL    HW114099   8.919   5.252   5.595  1.1534  0.6280 -0.1278
 4120SOL    HW214100   8.981   5.192   5.470  0.7087  0.1172 -0.1043
 4121SOL     OW14101   0.166   3.686   7.286 -0.4139 -0.2205  0.2131
 4121SOL    HW114102   0.142   3.711   7.197  0.2462  1.0739  0.3657
 4121SOL    HW214103   0.211   3.602   7.278 -0.4815 -0.1770 -0.6510
 4122SOL     OW14104   4.535   4.482   8.171 -0.6371  0.2404 -0.1839
 4122SOL    HW114105   4.469   4.414   8.187  0.4158 -0.8709 -0.3416
 4122SOL    HW214106   4.541   4.488   8.076  0.1807 -0.3990 -0.1858
 4123SOL     OW14107   0.186   2.807   4.681 -0.9441  0.0258  0.4014
 4123SOL    HW114108   0.265   2.862   4.687  0.1061 -1.1720 -1.4346
 4123SOL    HW214109   0.120   2.864   4.644 -0.5831  0.7075  0.7844
 4124SOL     OW14110   4.838   2.221   0.332 -0.2754 -0.1840  0.2483
 4124SOL    HW114111   4.849   2.196   0.240  0.7279  0.6775  0.1090
 4124SOL    HW214112   4.766   2.284   0.331 -0.5402 -0.4890  0.1127
 4125SOL     OW14113   6.056   6.158   3.981  0.0107  0.4424 -0.6619
 4125SOL    HW114114   5.961   6.162   3.988 -0.1285 -2.0934 -0.2655
 4125SOL    HW214115   6.088   6.168   4.071  0.0506  0.0070 -0.6281
 4126SOL     OW14116   8.800   3.272   1.791 -0.6752 -0.0606 -0.3082
 4126SOL    HW114117   8.791   3.367   1.777 -0.0892 -0.1260 -1.1386
 4126SOL    HW214118   8.847   3.265   1.874  1.2252  0.4247 -1.3084
 4127SOL     OW14119   8.424   9.528   2.847 -0.4307  0.0960 -0.1868
 4127SOL    HW114120   8.470   9.449   2.817  0.4894  0.7960 -0.6774
 4127SOL    HW214121   8.331   9.507   2.835 -0.1766 -0.6404 -1.0288
 4128SOL     OW14122   1.750   2.325   8.292 -0.2000  0.5952 -0.0287
 4128SOL    HW114123   1.724   2.409   8.330  2.2747  1.4699 -0.1312
 4128SOL    HW214124   1.829   2.299   8.340  1.1034  0.0845 -2.2861
 4129SOL     OW14125   2.215   6.419   3.021 -0.1385  0.1708 -0.3981
 4129SOL    HW114126   2.147   6.428   3.087 -1.1730  0.6271 -1.4934
 4129SOL    HW214127   2.168   6.402   2.940  1.1083 -0.4662 -1.0108
 4130SOL     OW14128   2.796   9.317   1.287 -0.3275  0.0134  0.0247
 4130SOL    HW114129   2.800   9.361   1.372  1.2951  0.4658 -0.2569
 4130SOL    HW214130   2.733   9.246   1.299 -0.2471  0.1793  1.5466
 4131SOL     OW14131   9.479   3.385   8.362  0.1191  0.2750 -0.1664
 4131SOL    HW114132   9.422   3.430   8.299  0.0237  1.8669  1.0067
 4131SOL    HW214133   9.565   3.426   8.350  0.3602 -0.1761 -0.0059
 4132SOL     OW14134   7.852   4.921   0.520 -0.3452  0.3449 -0.4116
 4132SOL    HW114135   7.939   4.930   0.481  0.1626  1.6696  0.9258
 4132SOL    HW214136   7.863   4.852   0.586 -0.8273 -0.8467 -1.5418
 4133SOL     OW14137   1.260   4.854   4.984 -0.7586 -0.4105 -0.1084
 4133SOL    HW114138   1.230   4.789   4.921 -1.0984 -0.3238 -0.0388
 4133SOL    HW214139   1.329   4.810   5.034  1.4623  0.3632 -2.3043
 4134SOL     OW14140   4.261   0.264   4.240 -0.1149  0.5273 -0.2033
 4134SOL    HW114141   4.210   0.344   4.223  1.5433  1.3540 -1.6339
 4134SOL    HW214142   4.208   0.193   4.204 -2.4220  0.6549  2.5877
 4135SOL     OW14143   8.675   5.301   2.763  0.2606  0.1733  0.2613
 4135SOL    HW114144   8.583   5.319   2.744  0.4446  2.3887  1.1570
 4135SOL    HW214145   8.677   5.284   2.857  0.8647  1.0980  0.4284
 4136SOL     OW14146   8.488   4.679   9.442  0.1807 -0.1054 -0.0527
 4136SOL    HW114147   8.431   4.621   9.392  0.6063 -0.0603 -0.5969
 4136SOL    HW214148   8.569   4.630   9.452  0.8350  0.6935 -1.2128
 4137SOL     OW14149   1.882   8.048   7.287  0.4529 -0.1797  0.7404
 4137SOL    HW114150   1.789   8.066   7.273  0.3218 -1.2410  0.1313
 4137SOL    HW214151   1.912   8.012   7.203  1.6913  1.1858  0.5519
 4138SOL     OW14152   0.406   7.373   2.393 -0.2649 -0.5979  0.0283
 4138SOL    HW114153   0.464   7.442   2.360 -1.5927  0.1338 -0.8153
 4138SOL    HW214154   0.366   7.412   2.471  1.3962 -1.6271  1.4935
 4139SOL     OW14155   7.239   6.038   7.354 -0.6045 -0.3312 -0.2166
 4139SOL    HW114156   7.274   6.043   7.265 -1.0833  1.1422 -0.3571
 4139SOL    HW214157   7.308   5.996   7.405 -0.3650 -1.3117 -1.2914
 4140SOL     OW14158   2.105   8.086   3.388 -0.0375  0.2383 -0.0998
 4140SOL    HW114159   2.162   8.142   3.440  0.7243 -0.3143 -0.3248
 4140SOL    HW214160   2.070   8.142   3.319 -2.2610  1.4019  1.8175
 4141SOL     OW14161   8.636   2.382   5.074 -0.2820  0.1571  0.1431
 4141SOL    HW114162   8.608   2.292   5.089 -1.6207  0.5016 -0.1823
 4141SOL    HW214163   8.660   2.385   4.982  1.0684 -0.1802  0.4597
 4142SOL     OW14164   5.086   7.709   3.055  0.7705  0.3600 -0.1620
 4142SOL    HW114165   5.036   7.688   3.134 -0.4660  0.0465 -1.0065
 4142SOL    HW214166   5.096   7.805   3.058  1.1589  0.3058  0.6076
 4143SOL     OW14167   0.820   8.246   0.208 -0.3748 -0.1176  0.7872
 4143SOL    HW114168   0.842   8.171   0.153 -0.6623  1.2363 -1.2845
 4143SOL    HW214169   0.741   8.219   0.254 -0.9691 -0.8310 -0.5715
 4144SOL     OW14170   1.049   0.652   5.146 -0.3934 -0.4231  0.1526
 4144SOL    HW114171   0.994   0.581   5.179 -1.1390 -0.7932 -1.7578
 4144SOL    HW214172   1.082   0.620   5.062  0.3608  0.9598 -0.1093
 4145SOL     OW14173   0.304   1.709   3.095 -0.4356 -1.2130 -0.0188
 4145SOL    HW114174   0.364   1.638   3.072 -0.9260 -1.1487 -1.6323
 4145SOL    HW214175   0.281   1.748   3.011 -0.8464  0.3184  0.7796
 4146SOL     OW14176   5.583   6.318   2.187 -0.1187  0.0610  0.7059
 4146SOL    HW114177   5.546   6.328   2.099 -0.9245  0.2247  1.0541
 4146SOL    HW214178   5.591   6.408   2.220  0.5119  0.0246  0.6812
 4147SOL     OW14179   8.674   3.627   1.272  0.4591  0.1351 -0.3720
 4147SOL    HW114180   8.745   3.586   1.322  1.1053  0.2348 -1.1893
 4147SOL    HW214181   8.598   3.622   1.330  0.8195 -1.1300  0.0232
 4148SOL     OW14182   5.924   4.013   8.409 -0.3285 -0.1423  0.2346
 4148SOL    HW114183   5.848   3.957   8.396 -0.3008 -0.0794 -0.2172
 4148SOL    HW214184   5.925   4.032   8.503 -0.4932 -0.6742  0.3435
 4149SOL     OW14185   8.341   6.676   4.769  0.1631 -0.1604  0.1416
 4149SOL    HW114186   8.420   6.674   4.823 -0.7218  0.7644  1.5513
 4149SOL    HW214187   8.328   6.586   4.739  1.7119 -0.3218 -0.0879
 4150SOL     OW14188   9.299   1.638   0.787  0.0018  0.0238 -0.0677
 4150SOL    HW114189   9.357   1.671   0.855  1.3481  1.7682 -1.9174
 4150SOL    HW214190   9.221   1.692   0.793  0.1604  0.2418  0.0351
 4151SOL     OW14191   3.466   0.519   3.488 -0.3158 -0.0524  0.2153
 4151SOL    HW114192   3.402   0.579   3.528 -0.3225 -0.2184  0.4547
 4151SOL    HW214193   3.514   0.574   3.425  0.0663  0.3494  0.8458
 4152SOL     OW14194   8.981   7.596   5.620  0.4869 -0.1326  0.0069
 4152SOL    HW114195   9.039   7.631   5.687  1.5279 -1.9264  0.0879
 4152SOL    HW214196   9.017   7.510   5.599 -0.1860  0.1023 -2.4011
 4153SOL     OW14197   2.619   7.796   1.307  0.7656  0.3123  0.2041
 4153SOL    HW114198   2.589   7.711   1.339 -0.6320  0.3786 -0.8481
 4153SOL    HW214199   2.553   7.858   1.337 -0.8294  0.3344 -2.9372
 4154SOL     OW14200   0.368   3.790   4.260 -0.1781  0.1030  0.1607
 4154SOL    HW114201   0.389   3.698   4.275 -0.3400  0.0212 -0.1024
 4154SOL    HW214202   0.408   3.810   4.175  0.9142  0.6146  0.7648
 4155SOL     OW14203   3.621   8.042   0.733  0.5686  0.6715 -0.4415
 4155SOL    HW114204   3.571   8.044   0.814  0.8273  2.3398 -0.2957
 4155SOL    HW214205   3.590   7.963   0.688  0.5194 -0.3697  1.3133
 4156SOL     OW14206   7.116   3.115   8.004  0.1330 -0.0012 -0.2592
 4156SOL    HW114207   7.128   3.125   7.909  2.8809  1.1482  0.1086
 4156SOL    HW214208   7.025   3.140   8.019  0.1620  1.7198 -2.3764
 4157SOL     OW14209   8.650   3.183   3.833  0.5255 -0.5248  0.0175
 4157SOL    HW114210   8.662   3.091   3.811 -2.2688 -0.7726 -0.9347
 4157SOL    HW214211   8.700   3.231   3.767  1.4522 -1.3360  0.1155
 4158SOL     OW14212   7.937   2.756   4.952 -0.2955 -0.1217  0.2938
 4158SOL    HW114213   7.876   2.705   4.899  0.0743  0.0253 -0.2809
 4158SOL    HW214214   7.917   2.848   4.931 -0.9376 -0.0112  1.2980
 4159SOL     OW14215   5.751   1.864   5.038 -0.0661  0.3796  0.0078
 4159SOL    HW114216   5.775   1.824   5.122  0.4614  0.0942 -0.2716
 4159SOL    HW214217   5.681   1.808   5.004 -0.9555  1.0464  0.6914
 4160SOL     OW14218   9.545   3.467   6.450 -0.5071  0.2495 -0.4175
 4160SOL    HW114219   9.476   3.522   6.488 -0.3578 -0.9353  1.7127
 4160SOL    HW214220   9.517   3.377   6.470 -0.0974 -0.4369 -2.6784
 4161SOL     OW14221   6.828   1.871   4.845  0.6071  0.9048  0.3387
 4161SOL    HW114222   6.900   1.850   4.905  0.0493  2.9367  1.8103
 4161SOL    HW214223   6.749   1.861   4.897 -0.1641 -0.4230 -1.0189
 4162SOL     OW14224   9.382   1.212   4.256  0.3178 -0.2446 -0.9913
 4162SOL    HW114225   9.325   1.207   4.334  0.5851  0.9586 -0.7089
 4162SOL    HW214226   9.322   1.232   4.184  0.1691 -0.6397 -0.9800
 4163SOL     OW14227   0.782   7.857   5.841 -0.1040 -0.5885 -0.1584
 4163SOL    HW114228   0.863   7.907   5.844  1.3934 -2.9011  0.1075
 4163SOL    HW214229   0.744   7.880   5.756 -0.2980  2.0873  0.5651
 4164SOL     OW14230   8.961   0.300   3.225 -0.4586  0.2418 -0.3849
 4164SOL    HW114231   8.970   0.212   3.188  0.9826 -0.2838  1.0920
 4164SOL    HW214232   9.038   0.310   3.281 -1.2426  1.9758  0.4436
 4165SOL     OW14233   6.400   0.907   2.276  0.1048 -0.5257 -0.7740
 4165SOL    HW114234   6.455   0.975   2.314 -0.9803  0.9124 -1.6962
 4165SOL    HW214235   6.433   0.896   2.186 -0.7314 -0.0566 -1.1499
 4166SOL     OW14236   2.804   0.279   1.766  0.1110  0.1887 -0.6167
 4166SOL    HW114237   2.854   0.308   1.689  0.3797 -0.7703 -0.8163
 4166SOL    HW214238   2.842   0.194   1.788  2.0608  1.6653  2.3714
 4167SOL     OW14239   5.186   7.876   4.922 -0.4180 -0.2699  0.1635
 4167SOL    HW114240   5.106   7.831   4.949  0.3861 -1.1667  1.1868
 4167SOL    HW214241   5.218   7.918   5.003 -0.2454  0.7120 -0.3972
 4168SOL     OW14242   1.985   6.326   4.016 -0.0193  0.3900  0.2394
 4168SOL    HW114243   1.900   6.350   4.052  0.6143  0.7441  1.5596
 4168SOL    HW214244   2.030   6.282   4.088  0.5488 -0.7316 -0.7465
 4169SOL     OW14245   6.589   5.826   9.591  0.1743  0.5536  0.3583
 4169SOL    HW114246   6.664   5.799   9.537  0.1980 -0.2531  0.7904
 4169SOL    HW214247   6.626   5.892   9.650  0.6296 -0.0852  0.7995
 4170SOL     OW14248   1.406   0.248   3.493 -0.2365  0.2561 -0.1641
 4170SOL    HW114249   1.419   0.330   3.444 -0.1519  0.0623 -0.4661
 4170SOL    HW214250   1.495   0.216   3.510 -0.2346  0.7395  0.8305
 4171SOL     OW14251   0.763   4.211   8.446 -0.5057 -0.1558  0.6404
 4171SOL    HW114252   0.791   4.133   8.398 -0.8478  1.1870 -1.9104
 4171SOL    HW214253   0.748   4.180   8.536  1.5748 -2.5015  0.2761
 4172SOL     OW14254   1.218   2.716   1.649  0.2315  0.0006  0.3200
 4172SOL    HW114255   1.249   2.794   1.695  0.0683 -0.8085  1.8563
 4172SOL    HW214256   1.244   2.643   1.705 -0.9148 -0.9556 -0.3482
 4173SOL     OW14257   2.396   7.051   3.273  0.1217 -0.0834 -0.8132
 4173SOL    HW114258   2.338   7.067   3.199 -1.5740  0.8982  0.6483
 4173SOL    HW214259   2.350   6.986   3.327 -1.7247  3.4183  2.3254
 4174SOL     OW14260   0.451   0.351   0.132  0.1550  0.0736  0.1696
 4174SOL    HW114261   0.387   0.387   0.194 -0.9934  2.2430 -2.0829
 4174SOL    HW214262   0.515   0.307   0.187 -2.3973 -0.8510  2.6856
 4175SOL     OW14263   5.438   3.983   2.895 -0.6753  0.3174  0.1875
 4175SOL    HW114264   5.393   3.925   2.956  0.5910 -0.7205  0.1688
 4175SOL    HW214265   5.403   4.070   2.915 -1.7558 -0.2790  1.0068
 4176SOL     OW14266   2.240   9.593   2.351 -0.2792  0.4907  0.1518
 4176SOL    HW114267   2.164   9.565   2.301 -0.7637  1.5078  0.2843
 4176SOL    HW214268   2.245   9.532   2.424 -2.2006  1.5595  1.2765
 4177SOL     OW14269   9.175   6.424   4.553  0.7139 -0.0080  0.1478
 4177SOL    HW114270   9.090   6.427   4.508  0.7751  0.5841  0.0599
 4177SOL    HW214271   9.159   6.373   4.632  0.4148 -0.3922 -0.1554
 4178SOL     OW14272   2.228   3.374   8.615  0.1745  0.3180 -0.2332
 4178SOL    HW114273   2.280   3.299   8.646  0.3857  0.5697  0.0302
 4178SOL    HW214274   2.247   3.378   8.521 -1.5087 -1.2741 -0.7015
 4179SOL     OW14275   1.472   3.290   9.522 -0.2031  0.0171 -0.2663
 4179SOL    HW114276   1.408   3.239   9.473 -0.3477  0.5521 -0.6431
 4179SOL    HW214277   1.534   3.320   9.455 -0.6992  1.2040 -0.2129
 4180SOL     OW14278   0.876   1.828   8.862 -0.1279 -0.4461  0.4238
 4180SOL    HW114279   0.898   1.910   8.817  0.0920 -0.1279  1.0863
 4180SOL    HW214280   0.956   1.806   8.910 -0.2374 -0.9703  0.3636
 4181SOL     OW14281   2.783   8.997   7.012  0.1466 -0.2596  0.4463
 4181SOL    HW114282   2.856   8.973   7.069  0.9899  2.9161  0.8969
 4181SOL    HW214283   2.824   9.045   6.940 -1.4855  2.4046  1.1651
 4182SOL     OW14284   6.140   8.494   3.568 -0.0630 -0.4495 -0.1450
 4182SOL    HW114285   6.122   8.442   3.646  0.8665 -1.0720 -0.3291
 4182SOL    HW214286   6.215   8.451   3.527  1.6899  1.7906  0.4459
 4183SOL     OW14287   5.516   0.528   7.759  0.3251 -0.4087 -0.2029
 4183SOL    HW114288   5.447   0.565   7.815  1.7867 -0.4494  1.7301
 4183SOL    HW214289   5.497   0.435   7.757  0.7039 -0.5235  0.9243
 4184SOL     OW14290   0.884   7.794   3.925 -0.7794 -0.1977  0.3398
 4184SOL    HW114291   0.959   7.828   3.877 -0.8082 -0.5049  0.0798
 4184SOL    HW214292   0.857   7.716   3.877 -0.1515 -1.1139  1.4430
 4185SOL     OW14293   2.422   0.059   3.859 -0.4139 -0.5642  0.0128
 4185SOL    HW114294   2.445   0.142   3.817  1.3542  0.3102  2.4231
 4185SOL    HW214295   2.504   0.009   3.860 -0.5340 -0.7940  1.7276
 4186SOL     OW14296   1.328   1.244   9.021 -0.1012 -0.0759 -0.3713
 4186SOL    HW114297   1.394   1.201   8.966 -0.8588 -0.0328 -1.3532
 4186SOL    HW214298   1.378   1.285   9.092  1.0845  1.0931 -1.8086
 4187SOL     OW14299   8.964   7.527   3.027 -0.4022  0.6765 -0.2210
 4187SOL    HW114300   8.939   7.435   3.028  0.2974  0.4678 -0.7808
 4187SOL    HW214301   8.945   7.557   2.938 -0.0598  0.9032 -0.2240
 4188SOL     OW14302   0.675   5.076   1.138  0.2022  0.2029 -0.0072
 4188SOL    HW114303   0.586   5.088   1.171 -0.2742 -1.7146 -0.4661
 4188SOL    HW214304   0.675   5.120   1.053 -1.3531 -2.3896 -1.4824
 4189SOL     OW14305   1.763   1.971   7.030 -0.2034  0.5177 -0.3580
 4189SOL    HW114306   1.812   2.036   6.979 -0.3800  0.7985 -0.1721
 4189SOL    HW214307   1.718   2.022   7.097 -0.6799  0.2545 -0.4734
 4190SOL     OW14308   4.387   2.673   3.318  0.2655  0.2476 -0.1161
 4190SOL    HW114309   4.295   2.696   3.322  0.2371 -0.0035  1.2822
 4190SOL    HW214310   4.426   2.738   3.259 -0.7946  0.3380 -0.7299
 4191SOL     OW14311   5.157   4.152   0.263  0.2307  0.0233  0.4879
 4191SOL    HW114312   5.105   4.076   0.236 -0.8061 -0.2157  2.9222
 4191SOL    HW214313   5.113   4.227   0.223 -0.3059 -0.4237  0.2234
 4192SOL     OW14314   0.127   0.857   5.336  0.0730  0.3731  0.0665
 4192SOL    HW114315   0.129   0.942   5.292  1.1585  1.0820  1.3957
 4192SOL    HW214316   0.047   0.815   5.304 -0.3677  1.7938 -0.7892
 4193SOL     OW14317   2.807   2.205   1.956 -0.1023 -0.3458  0.1727
 4193SOL    HW114318   2.797   2.261   2.033 -0.2446  1.6402 -1.2184
 4193SOL    HW214319   2.829   2.119   1.992  0.1159  0.5679  2.4060
 4194SOL     OW14320   3.687   8.258   4.809  0.4735 -0.7005  0.0010
 4194SOL    HW114321   3.605   8.307   4.812  0.3234 -0.9780  0.9998
 4194SOL    HW214322   3.707   8.240   4.901  1.1999 -1.3838 -0.2802
 4195SOL     OW14323   5.398   1.157   7.329  0.7261  0.1987 -0.3841
 4195SOL    HW114324   5.426   1.225   7.268  0.6293  0.3139 -0.3030
 4195SOL    HW214325   5.310   1.184   7.355  1.1519  0.6975  0.5839
 4196SOL     OW14326   4.682   3.448   5.305 -0.2682  0.1379 -0.3938
 4196SOL    HW114327   4.673   3.371   5.361 -1.5487 -0.4276 -1.3205
 4196SOL    HW214328   4.744   3.421   5.238  1.5217  0.9268  0.8788
 4197SOL     OW14329   5.489   9.103   5.022  0.7275  0.2686  0.0659
 4197SOL    HW114330   5.483   9.078   4.929 -0.4741 -0.3221  0.2818
 4197SOL    HW214331   5.443   9.033   5.068  0.5329  1.0160  1.0292
 4198SOL     OW14332   0.898   3.515   4.805 -0.0924  0.1743  0.1157
 4198SOL    HW114333   0.862   3.520   4.893  0.4106 -1.8288  0.4726
 4198SOL    HW214334   0.822   3.504   4.748 -0.4421  1.7657  0.2125
 4199SOL     OW14335   1.267   2.531   1.857 -0.2299 -0.1881  0.3567
 4199SOL    HW114336   1.348   2.541   1.907  0.3033 -0.2693 -0.4699
 4199SOL    HW214337   1.204   2.497   1.920  0.1025  0.7966  1.2586
 4200SOL     OW14338   4.488   5.691   2.563 -0.1951 -0.1427 -1.1619
 4200SOL    HW114339   4.398   5.668   2.541 -0.5725  0.4505 -0.3049
 4200SOL    HW214340   4.542   5.632   2.510 -1.1055 -2.2906  0.1553
 4201SOL     OW14341   5.831   8.346   2.342  0.1318  0.3089  0.1194
 4201SOL    HW114342   5.824   8.385   2.255  1.4720  1.8441  0.6432
 4201SOL    HW214343   5.919   8.306   2.343  1.1575  2.4036  1.4984
 4202SOL     OW14344   0.204   6.802   0.719  0.1363 -0.0360  0.1447
 4202SOL    HW114345   0.294   6.770   0.732 -0.2141 -0.6470  1.1917
 4202SOL    HW214346   0.200   6.882   0.771  0.3212  0.4604 -0.5966
 4203SOL     OW14347   8.933   3.417   1.097  0.0464 -0.4691  0.0908
 4203SOL    HW114348   8.979   3.412   1.181  0.9174 -0.4227 -0.3649
 4203SOL    HW214349   8.877   3.340   1.096 -0.0068 -0.4462  0.7343
 4204SOL     OW14350   0.672   4.242   6.375 -0.4194  0.5944 -0.1453
 4204SOL    HW114351   0.700   4.179   6.309  0.1036  1.3586 -0.6717
 4204SOL    HW214352   0.577   4.236   6.377 -0.3753 -0.2022 -0.1864
 4205SOL     OW14353   5.537   1.590   8.172 -0.0578  0.1940 -0.1124
 4205SOL    HW114354   5.485   1.510   8.172  1.4887 -0.8767 -1.0059
 4205SOL    HW214355   5.558   1.606   8.264 -1.8296  0.6241  0.2647
 4206SOL     OW14356   6.916   6.446   0.583  0.2252 -0.3336 -0.1194
 4206SOL    HW114357   6.860   6.522   0.567 -0.3288 -0.9198 -1.0141
 4206SOL    HW214358   6.989   6.457   0.522  0.3095 -0.3597 -0.0243
 4207SOL     OW14359   0.048   2.717   7.623  0.5827 -0.6211  0.0098
 4207SOL    HW114360   0.096   2.683   7.547  0.6280  0.6704 -0.5537
 4207SOL    HW214361  -0.037   2.674   7.618  0.6178 -0.6118 -0.7162
 4208SOL     OW14362   0.379   9.497   0.543 -0.2071 -0.0082 -0.1138
 4208SOL    HW114363   0.425   9.551   0.608 -1.1553  1.8935 -0.9377
 4208SOL    HW214364   0.286   9.510   0.563 -0.5501  1.0707 -2.1248
 4209SOL     OW14365   0.861   4.365   4.749 -0.0491 -0.2252 -0.6020
 4209SOL    HW114366   0.804   4.293   4.725 -2.6278  1.2687  0.5609
 4209SOL    HW214367   0.869   4.359   4.844  0.1137  0.7173 -0.5409
 4210SOL     OW14368   6.787   7.536   4.420  0.3649 -0.3416  0.0160
 4210SOL    HW114369   6.880   7.528   4.401  0.4375 -1.5432  0.8007
 4210SOL    HW214370   6.773   7.630   4.431  0.8245  0.1956 -3.1792
 4211SOL     OW14371   2.343   8.293   0.122 -0.0503  0.0917  0.3508
 4211SOL    HW114372   2.393   8.212   0.127  0.1472 -0.1544 -3.2880
 4211SOL    HW214373   2.254   8.267   0.145  0.1287 -1.0319 -0.1504
 4212SOL     OW14374   2.432   1.065   7.716  0.0593 -0.3786  0.0253
 4212SOL    HW114375   2.461   1.156   7.716 -1.1488  0.0574 -1.1993
 4212SOL    HW214376   2.449   1.033   7.805 -1.0757  1.5936  1.0204
 4213SOL     OW14377   3.546   8.514   6.630  0.2071 -0.1469 -0.2401
 4213SOL    HW114378   3.612   8.557   6.684  0.7352 -0.0491 -0.9457
 4213SOL    HW214379   3.596   8.473   6.559 -0.6287  1.7927 -2.0451
 4214SOL     OW14380   6.789   7.377   1.237 -0.4395 -0.4079  0.0250
 4214SOL    HW114381   6.804   7.472   1.234 -0.5036 -0.3925  0.1705
 4214SOL    HW214382   6.768   7.360   1.329  0.7075 -0.7353  0.2447
 4215SOL     OW14383   8.301   9.554   0.135 -0.2510 -0.4995 -0.8095
 4215SOL    HW114384   8.219   9.592   0.167  0.0951 -0.0068 -0.4922
 4215SOL    HW214385   8.274   9.494   0.066 -0.9673 -1.2222  0.0782
 4216SOL     OW14386   2.643   7.784   9.311 -0.0175  0.0973 -0.2531
 4216SOL    HW114387   2.698   7.756   9.237 -0.6044 -0.3027 -0.5446
 4216SOL    HW214388   2.676   7.871   9.334  0.0224  0.3298 -1.1419
 4217SOL     OW14389   0.675   4.136   4.749 -0.4409  0.1724  0.3334
 4217SOL    HW114390   0.597   4.087   4.777 -0.3648 -0.4664 -0.5468
 4217SOL    HW214391   0.663   4.148   4.655  1.3419 -1.4441 -0.1427
 4218SOL     OW14392   7.058   9.092   6.786 -0.1094 -0.5480  0.0501
 4218SOL    HW114393   7.000   9.059   6.855  0.9963  0.5890  1.5940
 4218SOL    HW214394   6.999   9.130   6.721 -1.1369 -0.1206  1.1972
 4219SOL     OW14395   4.632   1.596   2.393 -0.0856 -0.5373  0.5337
 4219SOL    HW114396   4.666   1.641   2.470  2.2684 -3.1069  1.1458
 4219SOL    HW214397   4.701   1.603   2.327 -0.8240 -0.9062 -0.3098
 4220SOL     OW14398   2.562   8.569   5.689 -0.1923 -0.0967  0.1276
 4220SOL    HW114399   2.641   8.556   5.635 -0.0424 -1.0496  0.5520
 4220SOL    HW214400   2.586   8.639   5.751  1.0324 -1.6727  1.5235
 4221SOL     OW14401   3.276   6.266   3.139 -0.2013 -0.6039 -0.4541
 4221SOL    HW114402   3.283   6.227   3.051  0.6523  0.0458 -0.6778
 4221SOL    HW214403   3.248   6.356   3.123 -0.5866 -0.6440 -0.0214
 4222SOL     OW14404   7.911   8.262   3.500  0.4040 -0.0973 -0.3568
 4222SOL    HW114405   7.911   8.294   3.590  1.1263 -1.0031 -0.0267
 4222SOL    HW214406   7.918   8.342   3.447  0.6438  0.3975  0.4009
 4223SOL     OW14407   2.819   8.639   4.189 -0.3857  0.0950 -0.3825
 4223SOL    HW114408   2.838   8.619   4.097 -0.3063 -0.5607 -0.2267
 4223SOL    HW214409   2.879   8.584   4.239 -0.6690  0.1880  0.0696
 4224SOL     OW14410   8.950   0.931   5.325  0.0961 -0.2070  0.2502
 4224SOL    HW114411   8.970   1.022   5.307 -1.2675  0.3256  1.2910
 4224SOL    HW214412   9.023   0.882   5.286  1.7665  1.4023  1.2098
 4225SOL     OW14413   9.359   6.248   6.392 -0.4834  0.7982  0.5709
 4225SOL    HW114414   9.306   6.321   6.359 -0.2310 -0.1657 -2.2538
 4225SOL    HW214415   9.448   6.283   6.398 -0.6861  1.2353  1.1688
 4226SOL     OW14416   3.931   0.467   7.479  0.7090 -0.2601 -0.3015
 4226SOL    HW114417   3.995   0.407   7.439  1.3111  0.8126 -0.9918
 4226SOL    HW214418   3.936   0.447   7.573 -0.8338 -2.9158 -0.6928
 4227SOL     OW14419   1.911   8.555   6.373 -0.4397 -0.1870  0.1471
 4227SOL    HW114420   1.882   8.644   6.353 -0.8736 -0.7156 -1.7934
 4227SOL    HW214421   1.984   8.540   6.313 -2.0211 -1.9826 -1.4921
 4228SOL     OW14422   3.284   2.691   5.238  0.2976  0.0825  0.2266
 4228SOL    HW114423   3.286   2.620   5.173  0.3808 -2.0423  2.3998
 4228SOL    HW214424   3.371   2.687   5.279 -0.5446 -0.2635  2.0530
 4229SOL     OW14425   6.933   7.311   0.438 -0.3021  0.4614 -0.1601
 4229SOL    HW114426   6.904   7.221   0.429  0.4057  0.1199  0.6854
 4229SOL    HW214427   6.909   7.354   0.356 -1.4649 -0.2549 -0.2097
 4230SOL     OW14428   2.111   4.500   0.052 -0.7038 -0.3294  0.1514
 4230SOL    HW114429   2.057   4.570   0.090 -0.8252  0.5358 -1.5515
 4230SOL    HW214430   2.175   4.545  -0.002 -0.7434 -1.5227 -0.9310
 4231SOL     OW14431   2.430   4.101   7.419  0.5187  0.2448  0.5013
 4231SOL    HW114432   2.393   4.175   7.371  1.8830 -0.1289 -1.2120
 4231SOL    HW214433   2.511   4.080   7.373  1.3936 -0.8086  2.3837
 4232SOL     OW14434   7.332   5.555   1.963 -0.2731  0.0954  0.2006
 4232SOL    HW114435   7.293   5.485   2.014 -0.4924 -1.4849 -2.0161
 4232SOL    HW214436   7.263   5.621   1.957 -1.8971 -1.6533 -1.7160
 4233SOL     OW14437   1.349   7.670   0.444 -0.2413  0.0884  0.2128
 4233SOL    HW114438   1.300   7.630   0.373 -0.2162 -0.4634  0.5058
 4233SOL    HW214439   1.288   7.734   0.482 -0.5149 -0.1467  0.1715
 4234SOL     OW14440   5.622   5.507   2.185  0.6958 -0.2107 -0.0075
 4234SOL    HW114441   5.706   5.463   2.195  0.3541 -0.8640  0.0404
 4234SOL    HW214442   5.558   5.437   2.188  0.2643  0.0267 -2.2529
 4235SOL     OW14443   8.582   6.326   4.512 -0.0906 -0.1558 -0.0694
 4235SOL    HW114444   8.552   6.354   4.599 -1.8245 -0.2489 -0.6003
 4235SOL    HW214445   8.596   6.231   4.522  1.9928  0.1613  0.6776
 4236SOL     OW14446   5.338   3.943   8.851 -0.4826 -0.4892 -0.0771
 4236SOL    HW114447   5.275   4.014   8.843 -0.2109 -0.3147 -0.7600
 4236SOL    HW214448   5.404   3.976   8.912 -0.2106 -0.0363 -0.6050
 4237SOL     OW14449   9.157   5.685   6.712 -0.4896  0.3285  0.5091
 4237SOL    HW114450   9.183   5.776   6.729 -0.6445 -0.0521  3.3383
 4237SOL    HW214451   9.232   5.648   6.665 -0.5188  1.9279 -0.9052
 4238SOL     OW14452   5.269   4.534   7.842  0.4214  0.4071  0.2655
 4238SOL    HW114453   5.219   4.487   7.908 -0.5710  0.6462 -0.3006
 4238SOL    HW214454   5.264   4.479   7.764 -1.2106  1.6437 -0.5712
 4239SOL     OW14455   6.169   4.470   2.134  0.5257  0.0264  0.1972
 4239SOL    HW114456   6.162   4.380   2.102 -0.1205  0.0186  0.3485
 4239SOL    HW214457   6.247   4.504   2.091  1.7361 -1.1190  1.4023
 4240SOL     OW14458   5.106   3.911   8.242 -0.1541  0.3573 -0.6095
 4240SOL    HW114459   5.187   3.959   8.230 -0.1120  0.6063  0.5814
 4240SOL    HW214460   5.043   3.976   8.273 -0.0362 -0.3469  1.2457
 4241SOL     OW14461   6.629   4.402   0.286 -0.0099 -0.0802  0.3765
 4241SOL    HW114462   6.542   4.421   0.321 -0.0029  1.5151 -0.3380
 4241SOL    HW214463   6.613   4.376   0.195  0.1309 -1.8284  0.8356
 4242SOL     OW14464   1.671   7.001   5.443  0.0820 -0.2294  0.3933
 4242SOL    HW114465   1.626   7.047   5.372  1.4079 -0.8094 -0.8717
 4242SOL    HW214466   1.675   6.910   5.413 -3.1626 -1.5201  3.1552
 4243SOL     OW14467   9.506   2.592   9.203 -0.4131  0.7784  0.3250
 4243SOL    HW114468   9.483   2.525   9.266  2.6379  0.9447  1.8116
 4243SOL    HW214469   9.510   2.546   9.119 -2.0123 -0.0049  0.6453
 4244SOL     OW14470   5.986   5.199   8.454  0.2915  0.5940 -0.0578
 4244SOL    HW114471   5.956   5.124   8.403  1.5385 -1.4794  2.0297
 4244SOL    HW214472   6.081   5.189   8.458  0.3713  1.5695  1.3402
 4245SOL     OW14473   6.616   2.033   8.501 -0.5164 -0.6292  0.3283
 4245SOL    HW114474   6.534   1.989   8.520  0.2806 -1.9522  0.8640
 4245SOL    HW214475   6.591   2.116   8.460 -2.1169 -0.5902  1.3359
 4246SOL     OW14476   6.669   0.889   0.425 -0.1291 -0.0967 -0.7272
 4246SOL    HW114477   6.651   0.815   0.368 -1.9327  1.4699 -2.3419
 4246SOL    HW214478   6.735   0.940   0.379  1.0339 -0.5974  0.3291
 4247SOL     OW14479   5.430   3.382   0.580  0.4840  0.0407 -0.0531
 4247SOL    HW114480   5.349   3.423   0.551 -0.0679 -1.5155 -0.8226
 4247SOL    HW214481   5.497   3.450   0.571 -0.4520  0.8693 -0.8893
 4248SOL     OW14482   3.001   1.898   5.515 -0.0955 -0.5339 -0.4856
 4248SOL    HW114483   2.915   1.936   5.497  0.8278  0.5023 -3.1129
 4248SOL    HW214484   3.039   1.954   5.582 -0.6444  0.2896 -0.8528
 4249SOL     OW14485   5.026   5.728   4.995  0.2184 -0.4318 -0.6827
 4249SOL    HW114486   5.034   5.754   4.904  0.1887 -0.0731 -0.5832
 4249SOL    HW214487   4.943   5.765   5.024  0.0299 -0.8865 -0.6225
 4250SOL     OW14488   8.673   0.459   1.360  0.4741 -0.0871 -0.2312
 4250SOL    HW114489   8.755   0.444   1.408  0.7753 -0.3635 -0.8161
 4250SOL    HW214490   8.661   0.554   1.362  0.9683 -0.0155 -0.3948
 4251SOL     OW14491   2.752   1.903   8.210  0.1194  0.0514  0.4167
 4251SOL    HW114492   2.685   1.914   8.278  1.2541 -0.0095  1.5799
 4251SOL    HW214493   2.811   1.977   8.223 -0.9645  1.5109 -2.1504
 4252SOL     OW14494   3.751   4.660   9.098  0.2226 -0.1603 -0.7216
 4252SOL    HW114495   3.662   4.694   9.111 -0.2519 -1.7917  0.7011
 4252SOL    HW214496   3.791   4.665   9.184  0.8121 -1.2937 -0.9144
 4253SOL     OW14497   6.309   7.457   5.805 -0.0632  0.2924  0.3440
 4253SOL    HW114498   6.296   7.487   5.714  0.2261  2.0091  0.8309
 4253SOL    HW214499   6.323   7.363   5.797 -1.4861  0.1551 -1.2543
 4254SOL     OW14500   1.615   2.868   8.802  0.4182 -0.4734 -0.1564
 4254SOL    HW114501   1.540   2.890   8.857 -0.3395  0.4810 -1.5357
 4254SOL    HW214502   1.688   2.913   8.843 -0.1689  0.3714 -0.0206
 4255SOL     OW14503   5.318   0.839   4.879  0.6051 -0.2210  0.0457
 4255SOL    HW114504   5.370   0.857   4.958 -0.5264  1.9546  0.3916
 4255SOL    HW214505   5.317   0.923   4.833 -0.9834 -0.7328 -0.9049
 4256SOL     OW14506   8.014   6.565   0.975  0.0270 -0.6749  0.4512
 4256SOL    HW114507   7.970   6.577   1.059 -1.8073 -0.7609 -0.4392
 4256SOL    HW214508   8.074   6.639   0.969 -0.9165  0.1824  1.1878
 4257SOL     OW14509   1.016   8.502   2.909 -0.1655 -0.0209  0.1953
 4257SOL    HW114510   1.098   8.509   2.959  0.9865  0.4659 -1.6618
 4257SOL    HW214511   0.949   8.486   2.976  1.2579  0.7129  1.8967
 4258SOL     OW14512   2.221   3.171   3.440  0.0299 -0.1634  0.5512
 4258SOL    HW114513   2.210   3.212   3.355  0.8782  0.7788  0.8777
 4258SOL    HW214514   2.294   3.217   3.480  1.2726 -2.2356  0.8035
 4259SOL     OW14515   1.237   6.683   8.068  0.9623 -0.1110  0.0374
 4259SOL    HW114516   1.146   6.698   8.042  0.3705 -0.1013  1.9939
 4259SOL    HW214517   1.288   6.742   8.012 -0.2449  0.1756 -0.8065
 4260SOL     OW14518   4.570   3.859   6.756  0.4130 -0.3647 -0.0102
 4260SOL    HW114519   4.665   3.865   6.746  0.4248 -2.2084 -1.6799
 4260SOL    HW214520   4.548   3.924   6.822  2.9388 -0.5108  1.0689
 4261SOL     OW14521   0.453   1.982   5.818 -0.4905 -0.2892  0.3805
 4261SOL    HW114522   0.460   1.896   5.859 -0.6470  0.1984  1.4762
 4261SOL    HW214523   0.490   2.042   5.883 -1.0525  0.5532 -0.0606
 4262SOL     OW14524   4.575   0.521   4.040  0.3979  0.2063 -0.5721
 4262SOL    HW114525   4.571   0.564   4.126 -1.0775  0.1376 -0.5833
 4262SOL    HW214526   4.632   0.577   3.988 -1.4526  2.2034 -0.5787
 4263SOL     OW14527   0.162   9.120   9.221  0.3524 -0.2642 -0.3595
 4263SOL    HW114528   0.203   9.092   9.139 -0.0490 -0.0052 -0.6446
 4263SOL    HW214529   0.082   9.068   9.227 -1.0433  1.6538 -1.4986
 4264SOL     OW14530   0.561   7.665   2.591 -0.2664  0.5091 -0.4098
 4264SOL    HW114531   0.623   7.595   2.570 -1.1483 -0.7790  1.0806
 4264SOL    HW214532   0.599   7.743   2.551  1.9921 -0.3484 -0.1023
 4265SOL     OW14533   3.629   6.326   1.873 -0.2074 -0.4271  0.1108
 4265SOL    HW114534   3.571   6.306   1.799  0.1418 -1.2884  0.0497
 4265SOL    HW214535   3.669   6.241   1.895  1.1078  0.1527  0.0748
 4266SOL     OW14536   4.595   4.527   9.353  0.3847  0.3281  0.0663
 4266SOL    HW114537   4.653   4.555   9.424  0.5316  0.8933 -0.2734
 4266SOL    HW214538   4.567   4.439   9.379  1.2596  0.1063  0.3166
 4267SOL     OW14539   8.651   3.879   6.173 -0.3656  0.1597  0.7272
 4267SOL    HW114540   8.633   3.900   6.081 -0.9664 -2.7682  0.0751
 4267SOL    HW214541   8.722   3.816   6.170 -0.8492 -0.5026  2.2108
 4268SOL     OW14542   3.091   0.214   2.113  0.0709 -0.0978 -1.0005
 4268SOL    HW114543   3.177   0.221   2.070 -0.3995  1.8724 -1.7591
 4268SOL    HW214544   3.092   0.128   2.155  2.0740 -0.4902 -1.7158
 4269SOL     OW14545   3.994   6.130   6.523 -0.0099  0.0664  0.4257
 4269SOL    HW114546   4.071   6.116   6.468  0.3405 -2.0214  1.3449
 4269SOL    HW214547   4.020   6.097   6.609 -1.6944 -0.0587  0.9296
 4270SOL     OW14548   5.689   6.715   6.960 -0.6076  0.2599 -0.2563
 4270SOL    HW114549   5.692   6.800   6.916 -1.3191 -0.8558 -2.6833
 4270SOL    HW214550   5.753   6.662   6.913 -0.2559 -0.6117  1.1475
 4271SOL     OW14551   8.060   6.510   0.029 -0.1261 -0.2297 -0.1330
 4271SOL    HW114552   8.137   6.456   0.047  0.9116  0.9369 -0.9181
 4271SOL    HW214553   8.093   6.599   0.029 -1.3670  0.2573 -1.1358
 4272SOL     OW14554   8.939   1.212   9.554 -0.4423  0.0401  0.4354
 4272SOL    HW114555   8.938   1.117   9.559  1.4170 -0.0928 -0.5488
 4272SOL    HW214556   8.900   1.232   9.469 -0.1220  0.0824  0.2938
 4273SOL     OW14557   6.641   5.109   1.181  0.3812 -0.2112  0.2317
 4273SOL    HW114558   6.684   5.157   1.251  0.1380  1.3167 -0.6119
 4273SOL    HW214559   6.601   5.033   1.224  0.9577  0.2318  1.5851
 4274SOL     OW14560   9.304   5.854   5.654  0.1590  0.1302 -0.3016
 4274SOL    HW114561   9.388   5.874   5.613  0.0954  1.5852  0.2072
 4274SOL    HW214562   9.241   5.910   5.608 -0.5839 -1.0537 -0.7810
 4275SOL     OW14563   2.467   0.767   8.925  0.3346 -0.1024 -0.1436
 4275SOL    HW114564   2.488   0.783   9.016  0.9365  1.5213 -0.5266
 4275SOL    HW214565   2.550   0.741   8.885  0.3531  0.4378 -0.4679
 4276SOL     OW14566   3.543   1.627   3.544 -0.1180  0.0551 -0.1438
 4276SOL    HW114567   3.630   1.591   3.562 -0.3728 -1.2696 -1.3355
 4276SOL    HW214568   3.484   1.578   3.601 -0.3183 -0.5947 -0.8848
 4277SOL     OW14569   8.844   3.415   0.425 -0.5077  0.1559  0.3567
 4277SOL    HW114570   8.855   3.437   0.333 -0.2646  2.4315  0.8712
 4277SOL    HW214571   8.923   3.366   0.448  0.9099  2.1804  0.0295
 4278SOL     OW14572   1.197   8.413   1.065  0.6234  0.1912  0.3137
 4278SOL    HW114573   1.252   8.478   1.021  0.9105 -0.4947 -0.3671
 4278SOL    HW214574   1.111   8.423   1.024  1.1067 -1.0417 -1.0732
 4279SOL     OW14575   0.301   2.306   5.585 -0.5216 -0.1606 -0.4780
 4279SOL    HW114576   0.246   2.310   5.663 -0.6032 -1.6434 -0.4283
 4279SOL    HW214577   0.383   2.267   5.616 -0.1769  0.1920 -0.9369
 4280SOL     OW14578   2.086   5.900   8.899  0.1181  0.3748  0.1021
 4280SOL    HW114579   2.095   5.981   8.949  1.5335  0.9873 -1.0281
 4280SOL    HW214580   1.998   5.868   8.918 -0.6000  2.3711  0.3148
 4281SOL     OW14581   4.171   2.244   5.498 -0.9388 -0.2236  0.0291
 4281SOL    HW114582   4.225   2.219   5.423 -1.0258  2.0536 -0.8858
 4281SOL    HW214583   4.082   2.221   5.472 -0.7126 -1.7594  0.5307
 4282SOL     OW14584   6.477   0.699   8.176  0.3975 -0.8663  0.8843
 4282SOL    HW114585   6.563   0.736   8.196 -0.2571  2.1221 -1.1268
 4282SOL    HW214586   6.494   0.636   8.106  1.0887 -1.2984  1.4300
 4283SOL     OW14587   4.058   2.043   2.232 -0.6627 -0.0530  0.2303
 4283SOL    HW114588   3.986   2.103   2.211 -0.4832 -0.0134 -0.2798
 4283SOL    HW214589   4.032   1.961   2.191 -1.1856 -0.5050  1.4092
 4284SOL     OW14590   6.095   4.383   4.973 -0.5963  0.3858 -0.4444
 4284SOL    HW114591   6.034   4.367   5.045 -1.0846 -1.9051 -1.2763
 4284SOL    HW214592   6.181   4.379   5.013 -0.9024  1.2368  0.3371
 4285SOL     OW14593   8.907   3.388   5.704 -0.0570 -0.0031 -0.0004
 4285SOL    HW114594   8.872   3.309   5.662  2.9438 -1.0185 -0.8156
 4285SOL    HW214595   8.953   3.355   5.781  1.7278  0.8405 -0.6707
 4286SOL     OW14596   6.679   8.310   0.810 -1.2478 -0.1303 -0.6478
 4286SOL    HW114597   6.695   8.229   0.761  1.9743 -0.5772  0.8312
 4286SOL    HW214598   6.724   8.378   0.760  1.3400 -0.4491  1.0361
 4287SOL     OW14599   3.707   4.601   8.774 -0.2536  0.0558 -0.2108
 4287SOL    HW114600   3.720   4.691   8.804 -5.2020  0.7581  0.5737
 4287SOL    HW214601   3.758   4.548   8.835  1.8258  2.1805  0.0495
 4288SOL     OW14602   6.556   2.993   9.058  0.8511 -0.1246  0.0677
 4288SOL    HW114603   6.505   2.963   9.133  2.6483  0.1327  1.4829
 4288SOL    HW214604   6.519   3.079   9.036 -1.1521 -1.1600 -0.8630
 4289SOL     OW14605   6.439   2.424   5.765  0.0040 -0.3947  0.1897
 4289SOL    HW114606   6.444   2.393   5.674  1.0991  0.4739 -0.0619
 4289SOL    HW214607   6.480   2.355   5.816 -1.4350 -1.3195  0.1682
 4290SOL     OW14608   0.375   8.755   1.517 -0.1318  0.3629 -0.3148
 4290SOL    HW114609   0.328   8.832   1.548  2.2816  0.7087  2.9805
 4290SOL    HW214610   0.458   8.788   1.484  0.0463 -0.6735 -0.9532
 4291SOL     OW14611   8.571   2.579   1.777 -0.2498  0.8598  0.1894
 4291SOL    HW114612   8.501   2.514   1.782 -0.1317  0.6774 -0.3824
 4291SOL    HW214613   8.580   2.612   1.866  0.2323 -0.4740  0.6580
 4292SOL     OW14614   4.041   1.756   2.648  0.1325  0.0233 -0.7330
 4292SOL    HW114615   3.980   1.707   2.703 -0.8378  1.9907  0.0472
 4292SOL    HW214616   4.128   1.732   2.680 -0.2865 -1.3495 -0.5651
 4293SOL     OW14617   5.303   9.192   6.244  0.0586  0.6146  0.0018
 4293SOL    HW114618   5.326   9.101   6.263 -1.5971  0.4092  1.2916
 4293SOL    HW214619   5.224   9.186   6.190  0.0698  1.2987 -0.1021
 4294SOL     OW14620   4.406   9.452   4.512 -0.0931  0.2684 -0.6122
 4294SOL    HW114621   4.498   9.474   4.526  0.0413  0.1452 -1.2606
 4294SOL    HW214622   4.366   9.456   4.599  0.4951  0.4596 -0.3499
 4295SOL     OW14623   4.178   7.075   1.339 -0.1290 -0.6966  0.2841
 4295SOL    HW114624   4.221   7.146   1.388 -1.5346 -0.1770  0.8336
 4295SOL    HW214625   4.096   7.114   1.308 -1.7657 -2.4976  2.0367
 4296SOL     OW14626   8.132   6.937   6.346 -0.5577  0.1388  0.3902
 4296SOL    HW114627   8.179   6.862   6.383  0.6809  1.0778  0.7886
 4296SOL    HW214628   8.166   6.943   6.256 -2.3669 -1.1534 -0.4321
 4297SOL     OW14629   0.946   5.485   0.275 -0.0376 -0.1834  0.0427
 4297SOL    HW114630   0.931   5.578   0.260 -1.4160 -0.4940 -0.7185
 4297SOL    HW214631   1.033   5.468   0.238  0.5584  0.9277  0.8945
 4298SOL     OW14632   6.654   7.454   7.881  0.8088  0.3394 -0.1421
 4298SOL    HW114633   6.723   7.429   7.943 -0.5979 -2.5601  0.4261
 4298SOL    HW214634   6.656   7.385   7.814 -1.1717  0.4735 -0.3820
 4299SOL     OW14635   6.524   2.975   8.631 -0.4495  0.2224 -0.3305
 4299SOL    HW114636   6.568   3.046   8.676 -1.7040 -0.1303  1.5703
 4299SOL    HW214637   6.532   2.997   8.538 -1.0331  3.0139  0.1764
 4300SOL     OW14638   3.091   1.140   7.537  0.4896  0.4683  0.7540
 4300SOL    HW114639   3.023   1.179   7.591  0.4113 -0.9430  1.7285
 4300SOL    HW214640   3.169   1.192   7.556  0.0720  1.0506  0.9083
 4301SOL     OW14641   5.161   5.192   7.748  0.5383  0.0479 -0.3195
 4301SOL    HW114642   5.243   5.239   7.762  0.4254  0.2594 -0.3640
 4301SOL    HW214643   5.094   5.261   7.745  0.1876 -0.2027  1.0568
 4302SOL     OW14644   8.618   4.502   1.700  0.1002 -0.1402 -0.3041
 4302SOL    HW114645   8.687   4.476   1.760 -0.2644 -1.8913 -0.5876
 4302SOL    HW214646   8.635   4.452   1.621 -1.9118 -1.2136 -0.1113
 4303SOL     OW14647   2.781   7.840   8.846 -0.2634 -0.1970  0.1349
 4303SOL    HW114648   2.811   7.845   8.755 -0.0100  0.1085  0.2309
 4303SOL    HW214649   2.740   7.754   8.853 -0.4125 -0.1639 -0.3073
 4304SOL     OW14650   7.752   9.079   3.393 -0.6911  0.5038 -0.0902
 4304SOL    HW114651   7.777   9.122   3.311 -0.9720 -1.2267 -1.1406
 4304SOL    HW214652   7.657   9.089   3.398 -0.4395  2.6584  1.2832
 4305SOL     OW14653   1.841   9.228   4.116 -0.3984 -0.0031 -0.2748
 4305SOL    HW114654   1.752   9.253   4.090 -0.2982  0.8997  0.2020
 4305SOL    HW214655   1.859   9.148   4.066 -1.5210 -0.2723 -0.2780
 4306SOL     OW14656   8.895   9.469   5.451 -0.7883 -0.3545  0.4284
 4306SOL    HW114657   8.808   9.484   5.489 -0.5641  1.3191  0.3357
 4306SOL    HW214658   8.936   9.555   5.449  0.2573 -0.8495 -1.0549
 4307SOL     OW14659   8.934   1.750   4.541  0.3181  0.1569 -0.0032
 4307SOL    HW114660   8.862   1.804   4.572 -1.0838 -1.4211 -0.4097
 4307SOL    HW214661   8.944   1.682   4.609 -0.2437 -1.0659 -1.1022
 4308SOL     OW14662   7.273   4.255   7.893 -0.2079 -0.2239 -0.1708
 4308SOL    HW114663   7.193   4.275   7.843 -0.0737 -0.6948 -0.5799
 4308SOL    HW214664   7.249   4.274   7.983 -0.4474  0.6699 -0.4119
 4309SOL     OW14665   8.425   5.961   2.488 -0.5440  0.1476 -0.0643
 4309SOL    HW114666   8.343   5.913   2.476 -0.4491 -0.0648  0.1011
 4309SOL    HW214667   8.477   5.940   2.410 -0.7324  0.4561 -0.2692
 4310SOL     OW14668   6.075   7.595   2.270 -0.3106  0.1938 -0.0901
 4310SOL    HW114669   6.047   7.524   2.211  2.5707 -1.7814  0.7011
 4310SOL    HW214670   6.043   7.567   2.356  0.8855 -0.2368  0.2329
 4311SOL     OW14671   5.105   1.801   3.036 -0.0044  0.8268 -0.4242
 4311SOL    HW114672   5.195   1.783   3.062  0.1221 -1.7440 -2.2508
 4311SOL    HW214673   5.065   1.840   3.114  1.4652 -2.3703  2.2105
 4312SOL     OW14674   2.225   8.355   3.828 -0.2477 -0.4103  0.8213
 4312SOL    HW114675   2.140   8.373   3.869  0.7597  1.3066  2.3186
 4312SOL    HW214676   2.279   8.319   3.898  0.8889  0.6036  0.5138
 4313SOL     OW14677   5.637   6.540   4.495 -0.3575 -0.2492  0.2116
 4313SOL    HW114678   5.726   6.574   4.504  0.0888 -1.6065  1.2572
 4313SOL    HW214679   5.626   6.527   4.401  1.2895 -1.8801  0.1837
 4314SOL     OW14680   3.699   5.102   2.304 -0.5298 -0.2816  0.3970
 4314SOL    HW114681   3.780   5.072   2.263 -2.0219 -1.6998 -1.7071
 4314SOL    HW214682   3.706   5.197   2.304  1.0553 -0.3704  0.1477
 4315SOL     OW14683   7.891   2.833   8.793 -0.7175 -0.0380  0.0969
 4315SOL    HW114684   7.851   2.747   8.782 -0.1350 -0.6081  2.0365
 4315SOL    HW214685   7.953   2.822   8.865  1.9881  1.1483 -1.8927
 4316SOL     OW14686   2.609   2.126   7.963 -0.1374 -0.2131 -0.8830
 4316SOL    HW114687   2.644   2.038   7.975 -0.9680 -0.2307  2.0836
 4316SOL    HW214688   2.686   2.182   7.962  0.2783 -0.7671 -0.4175
 4317SOL     OW14689   9.528   4.288   2.966 -0.4949  0.3765  0.2518
 4317SOL    HW114690   9.606   4.235   2.949 -0.4334  0.5879 -0.1247
 4317SOL    HW214691   9.455   4.236   2.933 -0.5392  0.0735  0.8194
 4318SOL     OW14692   1.025   0.953   8.387  0.0625 -0.9001 -0.5744
 4318SOL    HW114693   0.946   0.931   8.437  0.6182  1.2438  1.3974
 4318SOL    HW214694   1.096   0.906   8.431  0.4569  0.4888  0.3409
 4319SOL     OW14695   1.451   7.433   0.732 -0.0752 -0.3967  0.0407
 4319SOL    HW114696   1.399   7.513   0.739 -0.7108 -0.9438  2.7833
 4319SOL    HW214697   1.400   7.376   0.673 -0.7812  0.3588 -0.0928
 4320SOL     OW14698   4.504   8.345   1.309 -0.2225 -0.3907 -0.3564
 4320SOL    HW114699   4.478   8.333   1.400  0.5488  1.9191  0.2244
 4320SOL    HW214700   4.453   8.420   1.279 -0.8925 -1.4648 -2.0409
 4321SOL     OW14701   4.472   3.174   9.195  0.8655  0.1943 -0.6631
 4321SOL    HW114702   4.411   3.248   9.186 -0.1229 -0.6001 -0.7823
 4321SOL    HW214703   4.516   3.189   9.279  1.3955  1.4142 -1.1380
 4322SOL     OW14704   7.894   8.086   5.046 -0.4839  0.6656  0.3741
 4322SOL    HW114705   7.927   8.081   5.135  0.1356  1.6532  0.2221
 4322SOL    HW214706   7.850   8.003   5.031  0.3630  0.0466  1.2228
 4323SOL     OW14707   0.332   8.055   7.016  0.1593  0.5751  0.2992
 4323SOL    HW114708   0.405   7.993   7.023 -0.2595  0.1265  0.7648
 4323SOL    HW214709   0.328   8.077   6.923 -0.6590 -1.2922 -0.1482
 4324SOL     OW14710   3.496   1.016   4.771 -0.6844 -0.1898  0.2120
 4324SOL    HW114711   3.476   1.004   4.863 -1.1257 -1.5203 -0.0432
 4324SOL    HW214712   3.424   1.069   4.737 -0.6070  0.1606  0.5871
 4325SOL     OW14713   7.292   6.828   8.414 -0.1991 -0.2617 -0.1452
 4325SOL    HW114714   7.327   6.890   8.478 -0.9990 -0.2611  0.3097
 4325SOL    HW214715   7.200   6.854   8.403 -0.9494 -2.1468  1.0648
 4326SOL     OW14716   1.584   7.715   2.059  0.1734  0.2651 -0.2324
 4326SOL    HW114717   1.591   7.622   2.081  0.9589  0.8503  2.2982
 4326SOL    HW214718   1.491   7.734   2.066 -0.2544 -0.6200 -2.4470
 4327SOL     OW14719   1.170   4.723   0.073  0.0159  0.2681 -0.6693
 4327SOL    HW114720   1.100   4.788   0.076  0.2970  0.5518 -0.0414
 4327SOL    HW214721   1.245   4.770   0.036  0.5862  0.6782  0.9328
 4328SOL     OW14722   1.035   4.335   6.967  0.2735 -0.1006  0.3001
 4328SOL    HW114723   0.996   4.248   6.956  0.0008 -0.0072  0.5081
 4328SOL    HW214724   0.997   4.388   6.897 -0.2630  0.0861  0.7212
 4329SOL     OW14725   3.498   8.044   0.993 -0.0775 -0.7753  0.0449
 4329SOL    HW114726   3.494   8.139   0.995  0.1470 -0.7458 -0.6466
 4329SOL    HW214727   3.478   8.017   1.083 -1.8271 -0.1532 -0.1277
 4330SOL     OW14728   8.770   4.308   8.858  0.0311  0.2864 -0.1902
 4330SOL    HW114729   8.678   4.308   8.888 -0.5206  1.6421 -1.7758
 4330SOL    HW214730   8.816   4.360   8.924 -0.2220 -0.7371  0.8401
 4331SOL     OW14731   6.820   9.002   3.995  0.1124 -0.3125 -0.3057
 4331SOL    HW114732   6.880   8.943   4.041  1.1650  0.7746 -0.2322
 4331SOL    HW214733   6.797   8.955   3.915  2.1709 -0.2109 -1.0155
 4332SOL     OW14734   7.426   2.734   0.543 -0.1678  0.1336  0.1427
 4332SOL    HW114735   7.521   2.741   0.531 -0.2819  1.8865  0.0485
 4332SOL    HW214736   7.405   2.645   0.515  1.4465 -0.2743  0.1514
 4333SOL     OW14737   1.028   3.912   0.120  0.2241  0.0629  0.1217
 4333SOL    HW114738   1.059   3.986   0.172 -1.0216  0.1294  0.7940
 4333SOL    HW214739   1.067   3.926   0.033  2.7942 -0.3285  1.1025
 4334SOL     OW14740   0.699   9.358   8.900 -0.4524 -0.1470  0.1276
 4334SOL    HW114741   0.770   9.306   8.937  0.9154  2.7357  1.8739
 4334SOL    HW214742   0.739   9.406   8.828 -0.9936  0.4508  0.2166
 4335SOL     OW14743   6.007   1.830   1.051 -0.3765 -0.7253  0.1059
 4335SOL    HW114744   6.018   1.746   1.007 -0.1262 -0.2388 -0.7906
 4335SOL    HW214745   6.059   1.891   1.000 -2.0126  0.3545 -0.3644
 4336SOL     OW14746   1.601   1.295   4.679  0.6999 -0.5371 -0.5196
 4336SOL    HW114747   1.654   1.258   4.608  0.4880 -0.7022 -0.5926
 4336SOL    HW214748   1.657   1.362   4.719  0.2083  0.7436 -1.9026
 4337SOL     OW14749   1.017   6.224   5.844  0.0664 -0.5928 -0.4412
 4337SOL    HW114750   0.966   6.297   5.880 -0.0271 -0.7681 -0.2177
 4337SOL    HW214751   0.957   6.149   5.847  0.1837 -0.6947 -0.6090
 4338SOL     OW14752   1.884   0.485   9.363 -0.3404 -0.1469  0.1540
 4338SOL    HW114753   1.802   0.442   9.337 -0.9565  1.4513 -0.6917
 4338SOL    HW214754   1.950   0.416   9.359 -0.6809 -0.5209 -4.1129
 4339SOL     OW14755   1.315   5.639   8.565 -0.2563  0.4161 -0.0269
 4339SOL    HW114756   1.394   5.641   8.511 -0.3779 -1.2004 -0.3089
 4339SOL    HW214757   1.348   5.652   8.654  0.1603  1.1162 -0.2671
 4340SOL     OW14758   1.311   6.300   1.810 -0.1333  0.2986 -0.3832
 4340SOL    HW114759   1.372   6.230   1.837  0.6206  0.7461 -0.8866
 4340SOL    HW214760   1.363   6.355   1.751 -1.7457 -0.6761 -2.8645
 4341SOL     OW14761   0.678   9.261   2.997 -0.5360 -0.7573 -0.1231
 4341SOL    HW114762   0.736   9.189   2.974  0.4126 -0.2320  0.5348
 4341SOL    HW214763   0.609   9.260   2.930  2.1078  0.7824 -3.1239
 4342SOL     OW14764   3.748   5.275   0.663  0.2172  0.3388  0.6679
 4342SOL    HW114765   3.674   5.290   0.604  0.5051 -0.6238  0.0247
 4342SOL    HW214766   3.810   5.344   0.642 -0.2102  0.7462  0.7296
 4343SOL     OW14767   6.800   4.755   8.367  0.1848 -0.0294  0.4072
 4343SOL    HW114768   6.769   4.665   8.373 -0.2712  0.1949  1.5709
 4343SOL    HW214769   6.895   4.748   8.379  0.1023 -0.3144  0.9264
 4344SOL     OW14770   4.045   0.156   5.295  0.7285  0.8500 -0.5563
 4344SOL    HW114771   4.038   0.184   5.386 -2.4677 -2.6941  0.5656
 4344SOL    HW214772   3.984   0.212   5.247 -0.2704  0.4387  0.2185
 4345SOL     OW14773   6.038   4.676   5.085  0.4017  0.2230 -0.3808
 4345SOL    HW114774   6.118   4.709   5.126 -0.2696  0.7853  0.5131
 4345SOL    HW214775   6.065   4.650   4.997  1.4578  0.9072 -0.2729
 4346SOL     OW14776   3.925   0.321   3.299 -0.2789 -0.5063 -0.4786
 4346SOL    HW114777   3.873   0.401   3.306  1.7195  0.7679  1.1598
 4346SOL    HW214778   3.899   0.270   3.376 -0.0494 -0.4783 -0.3840
 4347SOL     OW14779   0.994   1.995   4.510  0.1020  0.2276 -0.3822
 4347SOL    HW114780   1.026   1.971   4.423  1.5218  0.8277 -0.0486
 4347SOL    HW214781   0.951   2.079   4.498 -0.1300  0.0827 -0.5802
 4348SOL     OW14782   4.189   5.472   3.890  0.5390 -0.2774  0.2088
 4348SOL    HW114783   4.253   5.409   3.923  0.6835 -0.6819 -0.8067
 4348SOL    HW214784   4.235   5.556   3.891  1.3111 -0.6703 -1.1091
 4349SOL     OW14785   5.806   2.170   4.393 -0.4031  0.0477 -0.1625
 4349SOL    HW114786   5.887   2.119   4.391 -0.4160 -0.1541  1.7974
 4349SOL    HW214787   5.832   2.259   4.371  0.2983 -0.1009  0.0461
 4350SOL     OW14788   7.539   4.984   6.176  0.3237  0.5102 -0.0034
 4350SOL    HW114789   7.550   5.079   6.187 -0.6640  0.3895  3.4258
 4350SOL    HW214790   7.456   4.965   6.219  1.0282 -2.0267  0.3895
 4351SOL     OW14791   8.915   2.554   6.884 -0.6871 -0.3181  0.1939
 4351SOL    HW114792   8.938   2.488   6.819  0.2271  0.6253 -0.4605
 4351SOL    HW214793   8.821   2.568   6.872 -0.4991 -0.0130 -1.0708
 4352SOL     OW14794   4.432   2.276   2.430  0.0147  0.7018 -0.3676
 4352SOL    HW114795   4.345   2.292   2.393 -1.4185 -0.9284  2.0332
 4352SOL    HW214796   4.472   2.363   2.436 -1.1598  1.4166 -2.0961
 4353SOL     OW14797   1.994   7.707   2.477  0.0776  0.0616 -0.1058
 4353SOL    HW114798   2.051   7.630   2.485 -0.1314 -0.1200 -0.3566
 4353SOL    HW214799   1.959   7.702   2.388  1.0854  1.1699 -0.5930
 4354SOL     OW14800   4.550   2.833   2.357 -0.2260  0.3222 -0.3632
 4354SOL    HW114801   4.627   2.872   2.316 -0.3219  0.7217 -0.1640
 4354SOL    HW214802   4.484   2.829   2.288  0.5794 -1.8259 -1.0901
 4355SOL     OW14803   3.877   8.472   5.341 -0.0972  0.5687 -0.3543
 4355SOL    HW114804   3.949   8.529   5.366 -0.5669  0.4640  1.3573
 4355SOL    HW214805   3.919   8.393   5.307  0.5907  0.5015  0.6345
 4356SOL     OW14806   5.262   2.163   2.267  0.4504  0.4280 -0.1457
 4356SOL    HW114807   5.248   2.070   2.251 -0.4518  0.6536 -0.7716
 4356SOL    HW214808   5.309   2.166   2.350  0.2108 -0.5770  0.0460
 4357SOL     OW14809   8.603   9.607   8.071  0.0714  0.0087 -0.1697
 4357SOL    HW114810   8.554   9.579   7.994  1.2348 -0.5752 -0.7234
 4357SOL    HW214811   8.693   9.582   8.052  0.4957  0.5433  1.0655
 4358SOL     OW14812   1.230   8.874   8.688  0.3357 -0.0719 -0.2105
 4358SOL    HW114813   1.290   8.799   8.688 -1.5206 -1.6372 -0.4015
 4358SOL    HW214814   1.231   8.905   8.597  1.4510  0.4690 -0.0362
 4359SOL     OW14815   4.552   9.086   2.515  0.2234  0.1119  0.5409
 4359SOL    HW114816   4.633   9.049   2.548  0.4963  0.3925  0.2004
 4359SOL    HW214817   4.552   9.176   2.547  0.0231  0.0961  0.5863
 4360SOL     OW14818   5.153   4.258   7.044  0.0865  0.0746 -0.0432
 4360SOL    HW114819   5.062   4.269   7.017 -0.3217  0.1857  1.3458
 4360SOL    HW214820   5.160   4.167   7.070  0.7245 -0.2797 -1.3278
 4361SOL     OW14821   6.001   9.532   5.567 -0.1094 -0.1908 -0.4221
 4361SOL    HW114822   6.067   9.467   5.592  2.2957  0.9592 -3.1604
 4361SOL    HW214823   6.039   9.616   5.593 -1.4487  0.3766 -0.2345
 4362SOL     OW14824   4.160   3.666   8.072  0.0568 -0.5136  0.2838
 4362SOL    HW114825   4.128   3.671   8.162  0.4401 -0.0023  0.3971
 4362SOL    HW214826   4.083   3.687   8.019  0.2758  1.1363  0.5715
 4363SOL     OW14827   9.184   5.038   3.143 -0.0408  0.4605 -0.2405
 4363SOL    HW114828   9.227   5.117   3.111 -0.5748  1.0043  0.3641
 4363SOL    HW214829   9.120   5.017   3.075  1.0200 -0.2423 -1.0512
 4364SOL     OW14830   2.766   1.536   3.271 -0.0110 -0.2485 -0.1888
 4364SOL    HW114831   2.729   1.624   3.280  1.9853  0.8191 -1.6685
 4364SOL    HW214832   2.739   1.507   3.184 -0.1846 -0.9062  0.0714
 4365SOL     OW14833   9.275   3.396   7.479  0.3014 -0.2934  0.0376
 4365SOL    HW114834   9.305   3.480   7.513 -0.0153 -0.9695  2.1344
 4365SOL    HW214835   9.217   3.419   7.407 -0.2444  1.3429  0.9417
 4366SOL     OW14836   1.034   9.295   2.619  0.4467  1.2012  0.6497
 4366SOL    HW114837   1.038   9.390   2.619 -0.6604  1.3457 -2.0689
 4366SOL    HW214838   1.115   9.268   2.576  0.5012  0.9280  0.9185
 4367SOL     OW14839   1.134   3.416   6.411  0.1710 -0.1834 -0.3532
 4367SOL    HW114840   1.190   3.356   6.362 -0.0015 -0.3436 -0.3575
 4367SOL    HW214841   1.049   3.371   6.415  0.4003 -0.5592  0.7867
 4368SOL     OW14842   0.684   0.091   1.452  0.4575  0.6085 -0.4639
 4368SOL    HW114843   0.759   0.032   1.454  1.0278  1.2998 -0.9482
 4368SOL    HW214844   0.716   0.171   1.493 -0.3546  0.5444  0.3244
 4369SOL     OW14845   9.435   6.771   6.935  0.0667 -0.3350  0.3146
 4369SOL    HW114846   9.359   6.826   6.914  0.2139 -0.7061 -1.2791
 4369SOL    HW214847   9.438   6.771   7.031 -1.5434  0.2263  0.3992
 4370SOL     OW14848   1.212   7.967   3.904  0.2236 -0.1742  0.2797
 4370SOL    HW114849   1.252   7.918   3.976  0.4850 -2.1687 -1.1188
 4370SOL    HW214850   1.137   8.011   3.943 -0.0426 -1.7557  1.6558
 4371SOL     OW14851   1.128   3.595   0.758  0.0732  0.3557  0.0956
 4371SOL    HW114852   1.140   3.522   0.699  0.3783 -0.0580  0.6585
 4371SOL    HW214853   1.169   3.567   0.840  0.0453  1.0848  0.3706
 4372SOL     OW14854   6.278   3.444   5.954  0.5291  0.4906  0.0462
 4372SOL    HW114855   6.346   3.465   6.017  1.7399 -0.9079 -0.7236
 4372SOL    HW214856   6.304   3.359   5.918 -0.4323  0.9625 -1.9047
 4373SOL     OW14857   5.683   4.238   8.492 -0.1488  0.2751  0.1851
 4373SOL    HW114858   5.677   4.331   8.512 -0.8715  0.2430  0.1377
 4373SOL    HW214859   5.752   4.205   8.551  0.0779  0.8243  0.2320
 4374SOL     OW14860   0.597   4.543   7.234 -0.8097 -0.4009  0.0934
 4374SOL    HW114861   0.616   4.480   7.164 -0.3182  2.6846 -2.7989
 4374SOL    HW214862   0.682   4.566   7.270 -0.7814  0.1931 -0.3519
 4375SOL     OW14863   0.256   1.006   0.874 -0.1665  0.2981  0.3473
 4375SOL    HW114864   0.301   0.939   0.926  1.7988  0.0577 -1.5255
 4375SOL    HW214865   0.198   0.956   0.817  0.9180  0.1904 -0.6899
 4376SOL     OW14866   8.274   5.392   7.819  0.2157  0.2766 -0.5301
 4376SOL    HW114867   8.280   5.487   7.810 -2.5101  0.7362  1.3282
 4376SOL    HW214868   8.198   5.367   7.768  0.3790 -0.7984 -0.2820
 4377SOL     OW14869   0.791   5.491   0.867 -0.0106  0.3951  0.2269
 4377SOL    HW114870   0.707   5.533   0.886 -0.4926 -0.7645  0.7613
 4377SOL    HW214871   0.781   5.456   0.778 -0.8750 -1.4782  0.9991
 4378SOL     OW14872   3.943   9.566   4.817  0.0662 -0.2704  0.6725
 4378SOL    HW114873   3.927   9.654   4.849 -0.2727 -0.0389 -0.1259
 4378SOL    HW214874   3.930   9.510   4.894  1.3463  0.4456  1.4545
 4379SOL     OW14875   9.186   2.322   6.784 -0.4805 -0.0553  0.3107
 4379SOL    HW114876   9.101   2.303   6.825 -1.2145  2.8775  0.3224
 4379SOL    HW214877   9.180   2.283   6.697 -1.5123 -0.5289  0.5806
 4380SOL     OW14878   4.791   7.722   7.623  0.8529  0.2152  0.1178
 4380SOL    HW114879   4.799   7.746   7.530  0.6463  0.5020  0.1695
 4380SOL    HW214880   4.710   7.765   7.651  0.1388 -1.0568  0.0643
 4381SOL     OW14881   4.324   8.799   9.428 -0.0028  0.2905  0.1184
 4381SOL    HW114882   4.243   8.766   9.390 -0.4815 -2.0694  2.8415
 4381SOL    HW214883   4.308   8.892   9.441 -2.0570 -0.0050  0.0121
 4382SOL     OW14884   6.652   9.266   2.305  0.4528  0.1463  0.2294
 4382SOL    HW114885   6.736   9.222   2.318 -0.1017 -0.7305  0.8811
 4382SOL    HW214886   6.657   9.345   2.358  1.4948  0.9789 -1.0307
 4383SOL     OW14887   7.613   4.907   0.102 -0.3424 -0.3403  0.2320
 4383SOL    HW114888   7.562   4.968   0.048 -0.9847  0.4194  1.6515
 4383SOL    HW214889   7.548   4.850   0.143 -0.0207  0.1999  1.5250
 4384SOL     OW14890   5.813   0.025   7.043  0.5390 -0.2379 -0.2054
 4384SOL    HW114891   5.783  -0.045   6.985  2.1105 -0.0054 -1.3720
 4384SOL    HW214892   5.818   0.102   6.987  1.2342  0.2079  0.4518
 4385SOL     OW14893   3.285   0.698   0.816  0.3773  0.4931 -0.1370
 4385SOL    HW114894   3.240   0.677   0.734 -0.0061  0.4371  0.0860
 4385SOL    HW214895   3.214   0.715   0.878  0.6707  1.1676  0.0180
 4386SOL     OW14896   4.289   4.017   3.848 -0.1895  0.2787  0.2337
 4386SOL    HW114897   4.243   3.947   3.802 -0.0126 -0.3669  1.0088
 4386SOL    HW214898   4.369   3.975   3.880  0.3766  1.0827 -0.1045
 4387SOL     OW14899   6.194   5.429   2.705 -0.4044 -0.0082  0.5119
 4387SOL    HW114900   6.111   5.476   2.696 -0.6457 -0.4940  0.1577
 4387SOL    HW214901   6.261   5.496   2.693 -0.7372  0.1489 -0.5563
 4388SOL     OW14902   9.471   1.343   7.279  0.1798  0.2381  0.0438
 4388SOL    HW114903   9.557   1.385   7.273 -0.4643  2.0134  1.9752
 4388SOL    HW214904   9.417   1.408   7.325 -1.0890 -2.4890  2.6920
 4389SOL     OW14905   6.314   1.824   0.033  0.3327  0.2505  0.1627
 4389SOL    HW114906   6.345   1.901   0.080  0.9901  0.4493 -0.5790
 4389SOL    HW214907   6.242   1.791   0.087 -0.1358  1.5292  0.3688
 4390SOL     OW14908   5.336   1.469   2.714  0.0845  0.3127  0.3366
 4390SOL    HW114909   5.407   1.426   2.667  2.0352  2.1549  1.4123
 4390SOL    HW214910   5.313   1.407   2.783  0.1904 -0.5805 -0.4084
 4391SOL     OW14911   3.409   5.869   9.379  0.6552 -0.4038 -0.2200
 4391SOL    HW114912   3.417   5.945   9.436  0.1373  0.1205 -0.8235
 4391SOL    HW214913   3.371   5.801   9.434 -1.3545  0.5725 -0.3045
 4392SOL     OW14914   2.790   2.273   6.590 -0.2595 -0.8082 -0.0078
 4392SOL    HW114915   2.880   2.271   6.557 -0.0761 -1.4340  0.5196
 4392SOL    HW214916   2.755   2.187   6.570 -0.7105 -0.6063 -0.1047
 4393SOL     OW14917   6.136   1.467   7.077  0.4832  0.2298  0.0055
 4393SOL    HW114918   6.143   1.396   7.012 -1.0356 -0.5259  0.6010
 4393SOL    HW214919   6.165   1.428   7.159  0.7429  0.6537  0.1173
 4394SOL     OW14920   4.202   3.775   6.107 -0.2306 -0.1708 -0.0036
 4394SOL    HW114921   4.196   3.844   6.041  0.2424 -2.4838 -2.6516
 4394SOL    HW214922   4.288   3.788   6.148 -0.2152  0.8483 -0.3167
 4395SOL     OW14923   2.147   6.265   5.575 -0.2729 -0.1368 -0.6258
 4395SOL    HW114924   2.224   6.284   5.629 -0.4227 -2.0057  0.3626
 4395SOL    HW214925   2.183   6.217   5.500 -0.3551 -0.1498 -0.6563
 4396SOL     OW14926   8.053   2.800   1.344  0.3903  0.1927  0.1253
 4396SOL    HW114927   8.107   2.819   1.268  1.2512  0.5558  0.8137
 4396SOL    HW214928   8.075   2.869   1.407  1.0507 -1.1369  1.3935
 4397SOL     OW14929   4.890   1.666   2.282  0.6128 -0.4849 -0.1977
 4397SOL    HW114930   4.938   1.585   2.263  0.1933 -0.6374 -0.6442
 4397SOL    HW214931   4.957   1.730   2.305  0.9533 -0.9491  0.1161
 4398SOL     OW14932   6.708   7.123   1.671 -0.3182  0.3187 -0.1560
 4398SOL    HW114933   6.775   7.059   1.647 -1.0257 -0.7327  0.5647
 4398SOL    HW214934   6.757   7.196   1.708  0.5520  0.5216 -1.6372
 4399SOL     OW14935   0.647   3.702   2.345  0.3241  0.3563 -0.0928
 4399SOL    HW114936   0.655   3.709   2.250  0.2327  0.4517 -0.0929
 4399SOL    HW214937   0.731   3.734   2.378  0.0104  1.2045 -0.1012
 4400SOL     OW14938   5.501   3.671   8.353 -0.0275  0.2413 -0.0151
 4400SOL    HW114939   5.542   3.619   8.284  1.0630 -0.0355  0.8103
 4400SOL    HW214940   5.409   3.675   8.328  0.1330 -0.8352 -0.8769
 4401SOL     OW14941   1.539   4.753   3.069 -0.6382  0.0525 -0.5344
 4401SOL    HW114942   1.572   4.666   3.091  0.5379  0.5074 -0.4380
 4401SOL    HW214943   1.608   4.813   3.098 -1.0126  0.9612 -1.4665
 4402SOL     OW14944   6.597   4.127   8.481  0.3988  0.7264  0.3157
 4402SOL    HW114945   6.574   4.043   8.443  2.8142  0.1202  0.0686
 4402SOL    HW214946   6.585   4.190   8.410 -0.3067  0.4359  0.1720
 4403SOL     OW14947   0.622   3.948   1.744 -0.2643  0.3814  0.5176
 4403SOL    HW114948   0.542   3.924   1.696  0.5723  0.4093 -0.9480
 4403SOL    HW214949   0.636   3.876   1.805  0.2260 -1.1358 -1.3191
 4404SOL     OW14950   6.479   6.888   3.960 -0.3894  0.3630 -0.2446
 4404SOL    HW114951   6.517   6.923   3.879 -0.9492 -0.4363 -0.8707
 4404SOL    HW214952   6.391   6.859   3.935  0.1279 -1.7161  0.1555
 4405SOL     OW14953   9.281   0.250   3.271 -0.7717 -0.0376 -0.0671
 4405SOL    HW114954   9.369   0.271   3.240  0.0282  0.9830  2.5815
 4405SOL    HW214955   9.255   0.173   3.221  1.8219 -0.6604 -0.5721
 4406SOL     OW14956   6.788   8.108   4.665  0.5436 -0.3028  0.1054
 4406SOL    HW114957   6.710   8.121   4.719  0.7964  0.7446  0.2375
 4406SOL    HW214958   6.763   8.039   4.603  0.0467 -1.0902  1.1496
 4407SOL     OW14959   8.829   0.786   9.298 -0.0182 -0.5645 -0.2284
 4407SOL    HW114960   8.745   0.833   9.296  0.7042  0.7470 -1.0534
 4407SOL    HW214961   8.809   0.699   9.263 -1.0262 -0.2566 -0.4515
 4408SOL     OW14962   9.281   5.739   3.642  0.1533  0.3039 -0.2146
 4408SOL    HW114963   9.256   5.812   3.586  1.0675 -0.9035 -2.3065
 4408SOL    HW214964   9.291   5.665   3.582 -0.1221 -1.4062  1.7390
 4409SOL     OW14965   9.545   5.304   6.159  0.3050  0.7543 -0.7115
 4409SOL    HW114966   9.567   5.274   6.247  1.1077  0.4096 -1.0210
 4409SOL    HW214967   9.606   5.376   6.142 -0.4070  1.3839 -0.6712
 4410SOL     OW14968   4.835   8.486   6.331 -0.3686  0.7255 -0.3656
 4410SOL    HW114969   4.780   8.410   6.310  0.1339  0.6505 -1.5462
 4410SOL    HW214970   4.924   8.451   6.329 -0.1901  1.1426  0.0974
 4411SOL     OW14971   8.589   9.506   2.111  0.0837  0.0647  0.2138
 4411SOL    HW114972   8.634   9.469   2.187 -0.2532 -1.4231 -0.2724
 4411SOL    HW214973   8.658   9.547   2.060  0.8783 -1.8193 -0.3161
 4412SOL     OW14974   9.531   6.584   5.249  0.2180  0.4324 -0.0780
 4412SOL    HW114975   9.524   6.680   5.244 -0.3406  0.3312 -1.4727
 4412SOL    HW214976   9.441   6.553   5.237  0.4263 -0.2846  0.1715
 4413SOL     OW14977   1.803   4.018   6.947 -0.3176 -0.4366  0.2098
 4413SOL    HW114978   1.875   4.061   6.900 -0.9375 -0.5382 -0.8612
 4413SOL    HW214979   1.840   3.935   6.976  1.1681  1.0603  3.0332
 4414SOL     OW14980   8.413   8.664   0.795  0.0082  0.6163  0.0862
 4414SOL    HW114981   8.319   8.663   0.813 -0.0747 -0.4634 -0.3501
 4414SOL    HW214982   8.452   8.692   0.878 -0.6718  0.8536  0.3406
 4415SOL     OW14983   1.258   7.235   1.355 -0.1820 -0.6108  0.2829
 4415SOL    HW114984   1.338   7.287   1.356  0.1610 -1.1408  0.4490
 4415SOL    HW214985   1.287   7.145   1.339 -0.6002 -1.0394  1.7444
 4416SOL     OW14986   3.590   8.894   5.641 -0.3790 -0.1686  0.1626
 4416SOL    HW114987   3.536   8.886   5.563 -1.9840 -2.0579  1.3513
 4416SOL    HW214988   3.618   8.986   5.642 -1.4569  0.2350 -1.8576
 4417SOL     OW14989   6.047   1.434   6.648 -0.1994  0.0038 -0.0745
 4417SOL    HW114990   6.085   1.404   6.565  0.8429 -1.3710  0.8487
 4417SOL    HW214991   5.991   1.362   6.676 -1.9634  1.1967 -0.4220
 4418SOL     OW14992   6.701   3.286   6.845  0.3021 -0.6318  0.0996
 4418SOL    HW114993   6.712   3.373   6.807  0.6968 -0.6651  0.1358
 4418SOL    HW214994   6.695   3.302   6.940  2.0741 -0.7792  0.2656
 4419SOL     OW14995   7.285   2.716   2.502 -0.1137 -0.7365 -0.1007
 4419SOL    HW114996   7.263   2.670   2.583  1.1178  0.2765  0.8699
 4419SOL    HW214997   7.310   2.647   2.441 -0.7281 -1.5002  0.4920
 4420SOL     OW14998   4.726   1.895   2.503 -0.1498 -0.5329 -0.2102
 4420SOL    HW114999   4.695   1.949   2.576 -1.2060 -0.0746 -0.9621
 4420SOL    HW215000   4.733   1.807   2.539 -2.5096 -0.6971  0.0192
 4421SOL     OW15001   3.676   6.756   1.760  0.4341  0.3783  0.0456
 4421SOL    HW115002   3.614   6.728   1.693 -0.0550  0.4490  0.4583
 4421SOL    HW215003   3.661   6.695   1.833  1.9224 -0.5826 -0.4100
 4422SOL     OW15004   1.357   6.811   6.171 -0.3276 -0.6861  0.3521
 4422SOL    HW115005   1.367   6.906   6.170  0.8688 -0.7970  0.3618
 4422SOL    HW215006   1.428   6.779   6.115 -1.6077 -1.5220 -0.8719
 4423SOL     OW15007   7.666   8.332   3.038 -0.2897 -0.0638  0.1317
 4423SOL    HW115008   7.704   8.283   3.112  1.1437 -1.0968 -1.2103
 4423SOL    HW215009   7.732   8.399   3.019 -0.1831 -0.4370 -0.8205
 4424SOL     OW15010   1.925   6.023   0.658  0.3106 -0.7586 -0.1996
 4424SOL    HW115011   1.837   6.053   0.635 -0.0475 -0.6075  1.2978
 4424SOL    HW215012   1.948   6.074   0.735  1.0823 -1.9183  0.3616
 4425SOL     OW15013   1.303   4.114   4.537 -0.3342  0.2645 -0.2609
 4425SOL    HW115014   1.228   4.117   4.478  0.3412  1.3748 -1.0988
 4425SOL    HW215015   1.310   4.202   4.573 -0.4888 -0.2913  1.1955
 4426SOL     OW15016   6.804   1.156   7.904 -0.2695  0.0187 -0.0140
 4426SOL    HW115017   6.740   1.087   7.920 -0.0690 -0.0429  0.5520
 4426SOL    HW215018   6.764   1.235   7.941 -1.0894  0.5079 -1.8480
 4427SOL     OW15019   1.510   1.419   5.853  0.1297  0.2632 -0.3687
 4427SOL    HW115020   1.496   1.510   5.879 -0.5622 -0.2382  1.1308
 4427SOL    HW215021   1.476   1.414   5.764  0.6753  1.5799 -0.6801
 4428SOL     OW15022   8.603   6.276   6.664 -0.0101  0.3439 -0.1942
 4428SOL    HW115023   8.527   6.292   6.608  0.5744 -0.6726 -1.3220
 4428SOL    HW215024   8.620   6.361   6.705 -2.2194  0.4030  0.7200
 4429SOL     OW15025   8.178   0.223   6.931  0.0432 -0.2269  0.1927
 4429SOL    HW115026   8.095   0.188   6.898 -1.2640 -0.0445  2.9941
 4429SOL    HW215027   8.176   0.316   6.907  0.6743 -0.7073 -1.9185
 4430SOL     OW15028   1.768   1.073   5.135  0.0088 -0.7557 -0.1957
 4430SOL    HW115029   1.695   1.016   5.160  0.3710 -1.0525  0.1982
 4430SOL    HW215030   1.755   1.153   5.186 -1.5501  0.3088 -2.1079
 4431SOL     OW15031   8.883   9.052   4.183  0.2955  0.0910 -0.5887
 4431SOL    HW115032   8.922   9.125   4.135  0.6613 -0.8166 -1.7274
 4431SOL    HW215033   8.791   9.054   4.159 -0.0470  1.1544  0.6936
 4432SOL     OW15034   3.367   5.491   1.725  0.5508  0.0300 -0.9503
 4432SOL    HW115035   3.457   5.462   1.714  0.2455 -1.7305  0.6656
 4432SOL    HW215036   3.327   5.479   1.639  0.6891 -3.7380 -0.6319
 4433SOL     OW15037   5.842   3.125   8.294  0.0909  0.3339 -0.6097
 4433SOL    HW115038   5.878   3.039   8.315  1.6000  0.4535 -2.5172
 4433SOL    HW215039   5.747   3.111   8.293  0.3355 -1.5459 -1.8069
 4434SOL     OW15040   3.484   5.497   0.347  0.0482 -0.5619  0.3867
 4434SOL    HW115041   3.451   5.553   0.276  0.9661 -0.6902 -0.1589
 4434SOL    HW215042   3.570   5.534   0.368  0.4988 -1.5273  0.2886
 4435SOL     OW15043   2.240   1.997   4.644  0.2495  0.0158 -0.4794
 4435SOL    HW115044   2.217   1.972   4.733  0.7703 -0.9022 -0.5908
 4435SOL    HW215045   2.186   1.940   4.589 -1.0404  1.4662 -0.7835
 4436SOL     OW15046   2.216   8.750   3.265 -0.1690  0.3172 -0.4152
 4436SOL    HW115047   2.240   8.709   3.348  1.2466  0.5913 -0.6784
 4436SOL    HW215048   2.219   8.844   3.282  2.1538  0.4612 -1.2640
 4437SOL     OW15049   6.871   2.845   7.088  0.4981 -0.1238  0.0860
 4437SOL    HW115050   6.833   2.846   7.000  1.1140  1.4824 -0.1937
 4437SOL    HW215051   6.828   2.772   7.132 -1.0610  0.0778 -1.0163
 4438SOL     OW15052   9.179   8.503   2.586 -0.6458 -0.1450 -0.4070
 4438SOL    HW115053   9.084   8.501   2.585 -0.6680  0.5489 -0.4172
 4438SOL    HW215054   9.202   8.546   2.668 -0.3416 -0.4138 -0.3495
 4439SOL     OW15055   6.934   7.157   1.173 -0.2185  0.0328 -0.0124
 4439SOL    HW115056   6.859   7.102   1.151 -1.0125  0.4456  1.5446
 4439SOL    HW215057   6.896   7.240   1.200  0.9249  1.1036 -1.4899
 4440SOL     OW15058   3.184   7.008   8.893  0.5909  0.2949  0.7007
 4440SOL    HW115059   3.190   7.103   8.906  0.8185  0.4257 -0.2483
 4440SOL    HW215060   3.220   6.970   8.973  1.3206  1.0203  0.7310
 4441SOL     OW15061   5.418   8.064   0.512 -0.0442 -0.3792 -0.2711
 4441SOL    HW115062   5.380   8.110   0.586  0.0566  0.2733 -0.6167
 4441SOL    HW215063   5.499   8.026   0.545  2.0878  3.1619 -0.9437
 4442SOL     OW15064   9.441   6.002   2.259  0.2409  0.3042 -0.1775
 4442SOL    HW115065   9.463   6.074   2.319  0.0162  0.6382 -0.4884
 4442SOL    HW215066   9.475   5.924   2.302 -0.1617  0.5012  0.5197
 4443SOL     OW15067   0.166   8.559   9.374 -0.0754  0.3101 -0.0160
 4443SOL    HW115068   0.186   8.652   9.367  0.3719  0.1724 -0.6378
 4443SOL    HW215069   0.156   8.530   9.283  1.9135 -0.6997  0.0480
 4444SOL     OW15070   5.304   5.679   7.352  0.3952  0.3947 -0.4570
 4444SOL    HW115071   5.346   5.624   7.418 -0.4722  0.8798  0.5137
 4444SOL    HW215072   5.251   5.618   7.300 -2.7350  0.5738  2.2841
 4445SOL     OW15073   0.607   4.517   4.086  0.2225 -0.4702 -0.7377
 4445SOL    HW115074   0.614   4.604   4.047  1.6506 -0.2193  0.0143
 4445SOL    HW215075   0.696   4.496   4.113 -0.1142 -2.1500 -0.8464
 4446SOL     OW15076   3.448   3.466   5.123 -0.0022  0.3563 -0.1230
 4446SOL    HW115077   3.448   3.391   5.063  0.9473 -1.0511  1.5331
 4446SOL    HW215078   3.488   3.432   5.203 -0.9534  2.2461  1.2166
 4447SOL     OW15079   4.110   0.785   7.074 -0.1601 -0.3449  0.0823
 4447SOL    HW115080   4.088   0.744   7.158 -0.0682 -2.6252 -0.9405
 4447SOL    HW215081   4.074   0.874   7.081 -2.3328 -1.2429  1.6289
 4448SOL     OW15082   7.341   3.066   9.458 -0.2399  0.1379  0.1921
 4448SOL    HW115083   7.392   2.996   9.498 -1.8013 -0.0769  1.9600
 4448SOL    HW215084   7.250   3.037   9.465 -0.7445  1.2171 -1.3797
 4449SOL     OW15085   5.052   2.198   8.613  0.0056 -0.2178  0.0564
 4449SOL    HW115086   4.996   2.128   8.580  0.1746 -1.1946  1.6656
 4449SOL    HW215087   4.995   2.250   8.669  0.4335 -0.6022  0.8755
 4450SOL     OW15088   4.198   6.182   4.270 -0.3912  0.2218  0.4744
 4450SOL    HW115089   4.241   6.252   4.320  1.5839 -0.1135 -0.6607
 4450SOL    HW215090   4.238   6.101   4.303 -0.3564 -0.1204 -0.3750
 4451SOL     OW15091   3.753   0.148   2.713  0.4629 -0.3905  0.1134
 4451SOL    HW115092   3.677   0.197   2.742 -0.3579  0.6229 -3.2945
 4451SOL    HW215093   3.828   0.198   2.746 -0.2893 -0.5307  2.1530
 4452SOL     OW15094   6.010   5.903   3.880 -0.2991 -0.3020 -0.4424
 4452SOL    HW115095   6.057   5.968   3.932 -0.6524 -1.9424  2.1457
 4452SOL    HW215096   6.077   5.864   3.824  0.4985  0.3744  0.0137
 4453SOL     OW15097   5.387   1.011   3.482  0.0332  0.1183 -0.4502
 4453SOL    HW115098   5.472   1.029   3.523 -1.1070 -1.5014  3.0352
 4453SOL    HW215099   5.323   1.028   3.551 -2.4043 -0.0799 -2.5154
 4454SOL     OW15100   4.105   5.629   5.573  0.3020  0.1459  0.1330
 4454SOL    HW115101   4.056   5.704   5.539 -0.8635  0.3516  2.0895
 4454SOL    HW215102   4.186   5.628   5.522  0.1464  2.4703 -0.2622
 4455SOL     OW15103   2.575   0.951   1.633 -0.4295  0.0575 -0.0096
 4455SOL    HW115104   2.643   1.012   1.662 -0.0468 -1.4912  2.7199
 4455SOL    HW215105   2.619   0.866   1.629 -1.8898 -0.7651  0.5198
 4456SOL     OW15106   4.663   7.199   4.046  0.3351 -0.3187 -0.3721
 4456SOL    HW115107   4.751   7.185   4.011  1.4819  2.0826  1.2115
 4456SOL    HW215108   4.640   7.116   4.087  2.2308 -0.8146 -0.1805
 4457SOL     OW15109   5.575   3.724   5.480 -0.4704  0.1659 -0.0406
 4457SOL    HW115110   5.480   3.717   5.484 -0.3386 -2.0309  0.4400
 4457SOL    HW215111   5.604   3.716   5.571  0.2123 -0.3608 -0.2924
 4458SOL     OW15112   8.190   9.583   2.440  0.2743  0.7044 -0.2323
 4458SOL    HW115113   8.192   9.656   2.378  1.1671 -0.0715 -1.1615
 4458SOL    HW215114   8.257   9.522   2.407 -0.6448 -0.6667  0.3475
 4459SOL     OW15115   0.481   9.514   6.993 -0.1683  0.0292 -0.0310
 4459SOL    HW115116   0.446   9.496   7.080 -2.6039  2.7432 -0.2555
 4459SOL    HW215117   0.571   9.542   7.008  0.1143 -1.5030  1.3530
 4460SOL     OW15118   0.970   7.168   0.012 -0.6906  0.0297  0.1786
 4460SOL    HW115119   1.047   7.125  -0.025 -0.2638  1.2363 -0.3879
 4460SOL    HW215120   0.971   7.144   0.104 -0.9312 -1.8189 -0.2748
 4461SOL     OW15121   8.832   0.853   1.001  0.0132  0.0360  0.1097
 4461SOL    HW115122   8.796   0.772   1.036  1.1524 -0.6495 -0.2338
 4461SOL    HW215123   8.877   0.893   1.075 -0.8046  0.5143  0.3535
 4462SOL     OW15124   3.203   5.781   0.251 -0.0048 -0.1490  0.4597
 4462SOL    HW115125   3.258   5.856   0.227  0.7231 -0.5044  0.9990
 4462SOL    HW215126   3.208   5.778   0.346 -1.6745  0.3455  0.5948
 4463SOL     OW15127   6.912   2.786   3.491  0.7152  0.3166 -0.5112
 4463SOL    HW115128   6.920   2.704   3.541  0.5940  0.0762 -0.8771
 4463SOL    HW215129   6.835   2.772   3.436  1.7007 -0.0276 -1.8638
 4464SOL     OW15130   2.360   8.282   9.460 -0.1487 -0.1062  0.1071
 4464SOL    HW115131   2.282   8.313   9.414 -1.2189 -1.0293  1.2512
 4464SOL    HW215132   2.340   8.294   9.553  1.2006 -0.0924  0.4279
 4465SOL     OW15133   0.357   6.304   3.979 -0.2332 -0.1532  0.1615
 4465SOL    HW115134   0.342   6.256   3.897  2.1109  0.4320 -0.6788
 4465SOL    HW215135   0.271   6.304   4.022 -0.7454 -3.6495 -0.5276
 4466SOL     OW15136   6.028   3.097   0.452 -0.7453  0.0327 -0.0594
 4466SOL    HW115137   6.122   3.117   0.448 -0.3445 -1.5759  0.4730
 4466SOL    HW215138   6.015   3.031   0.384 -1.7310  1.0312 -0.8694
 4467SOL     OW15139   4.747   5.587   7.862  0.1468 -0.0291  0.5640
 4467SOL    HW115140   4.791   5.634   7.791 -1.7826  0.1782 -0.5917
 4467SOL    HW215141   4.690   5.652   7.903 -0.0490 -0.5611  1.1689
 4468SOL     OW15142   2.723   7.675   4.181 -0.0941 -0.1155  0.6646
 4468SOL    HW115143   2.670   7.667   4.260 -1.1560 -2.0108 -0.1636
 4468SOL    HW215144   2.809   7.639   4.205  0.0000  0.5178  1.2952
 4469SOL     OW15145   8.397   3.418   7.412  0.4703 -0.0525 -0.1969
 4469SOL    HW115146   8.356   3.332   7.420  0.1932  0.1992  1.7034
 4469SOL    HW215147   8.331   3.471   7.367 -0.2542 -0.3124  0.5229
 4470SOL     OW15148   2.778   6.627   6.850 -0.2142 -0.0215 -0.4029
 4470SOL    HW115149   2.728   6.565   6.797 -0.4923 -0.0996 -0.0538
 4470SOL    HW215150   2.730   6.632   6.932 -0.0056  0.4029 -0.3054
 4471SOL     OW15151   8.559   2.107   1.130  0.5783 -0.2482 -0.0625
 4471SOL    HW115152   8.606   2.045   1.187  0.5013 -1.2326 -1.0387
 4471SOL    HW215153   8.477   2.062   1.109  0.4489  0.2620 -0.6665
 4472SOL     OW15154   3.375   4.485   7.499  0.0999 -0.2463  0.1712
 4472SOL    HW115155   3.370   4.566   7.448 -0.7604  0.3298  1.1440
 4472SOL    HW215156   3.426   4.508   7.576 -2.2054  0.0849  1.6803
 4473SOL     OW15157   0.446   4.265   9.190 -0.2769  0.5557  0.2946
 4473SOL    HW115158   0.502   4.233   9.261 -0.3900 -1.8549 -0.5766
 4473SOL    HW215159   0.367   4.212   9.197 -0.3121  0.3021 -1.5416
 4474SOL     OW15160   1.794   6.409   3.287 -0.3673  0.1141  0.5630
 4474SOL    HW115161   1.714   6.392   3.336 -0.2919 -1.1234  0.3026
 4474SOL    HW215162   1.827   6.322   3.264  0.6022  0.6213 -0.0561
 4475SOL     OW15163   4.515   8.410   3.369 -0.1362 -0.0401  0.3222
 4475SOL    HW115164   4.566   8.367   3.300 -0.4990  0.4170 -0.2516
 4475SOL    HW215165   4.491   8.340   3.429 -2.3944 -1.0704 -1.6004
 4476SOL     OW15166   4.310   0.999   3.864  0.2474 -0.1051  0.0661
 4476SOL    HW115167   4.338   1.081   3.904  0.5374 -0.2563  0.1726
 4476SOL    HW215168   4.272   0.949   3.937 -2.5543  1.0390 -0.4445
 4477SOL     OW15169   4.392   5.032   7.433  0.2243 -0.0464 -0.2223
 4477SOL    HW115170   4.372   5.027   7.340  0.7348  1.9833 -0.4943
 4477SOL    HW215171   4.337   4.965   7.474  0.5313 -1.4646 -2.0398
 4478SOL     OW15172   0.075   2.840   5.158 -0.1417 -0.5363  0.4025
 4478SOL    HW115173   0.154   2.841   5.211  0.1924 -0.3201 -0.1023
 4478SOL    HW215174   0.100   2.796   5.077 -0.6052 -0.6958  0.3376
 4479SOL     OW15175   7.080   8.695   5.739  0.2013  0.7857  0.7575
 4479SOL    HW115176   7.054   8.774   5.786  1.7491  1.9150 -0.2024
 4479SOL    HW215177   7.069   8.716   5.647 -2.4707 -1.3003  0.4925
 4480SOL     OW15178   8.294   6.972   5.201  0.0239 -0.0888  0.2210
 4480SOL    HW115179   8.206   6.953   5.231 -0.1215  0.2853  0.0437
 4480SOL    HW215180   8.348   6.901   5.236 -0.6077 -1.1995 -0.9974
 4481SOL     OW15181   6.367   7.628   5.120  0.0232 -0.0496  0.0292
 4481SOL    HW115182   6.401   7.550   5.076  0.3993  0.2049 -0.1393
 4481SOL    HW215183   6.431   7.648   5.188  0.6166  0.8618 -0.7651
 4482SOL     OW15184   8.395   3.202   0.407 -0.3463  0.1503  0.5389
 4482SOL    HW115185   8.390   3.296   0.428 -2.1410  0.6648 -1.7989
 4482SOL    HW215186   8.304   3.176   0.395  0.2678 -1.2247 -1.5353
 4483SOL     OW15187   6.297   6.101   0.463 -0.1453  0.2564 -0.0793
 4483SOL    HW115188   6.305   6.196   0.472 -1.1820  0.2149  1.6713
 4483SOL    HW215189   6.388   6.069   0.464  0.2962  1.2786 -2.0138
 4484SOL     OW15190   8.604   5.561   8.021 -0.2802 -0.3224  0.0906
 4484SOL    HW115191   8.692   5.558   7.984 -0.4032 -0.3541 -0.2077
 4484SOL    HW215192   8.548   5.586   7.947 -0.2910  1.5733  0.7044
 4485SOL     OW15193   4.696   3.904   8.393 -0.4727 -0.5377  0.5262
 4485SOL    HW115194   4.689   3.813   8.421 -0.1816 -0.7523 -0.0677
 4485SOL    HW215195   4.791   3.921   8.393 -0.5812  0.6969  3.4777
 4486SOL     OW15196   1.637   2.711   5.230 -0.4008 -0.1154 -0.6267
 4486SOL    HW115197   1.547   2.681   5.244 -0.4889  0.1320 -0.6594
 4486SOL    HW215198   1.669   2.732   5.318 -0.0749 -1.0378 -0.5098
 4487SOL     OW15199   6.811   3.053   2.004  0.4518 -0.7030  0.3566
 4487SOL    HW115200   6.783   3.132   2.050 -0.7236 -0.4262 -0.7933
 4487SOL    HW215201   6.754   3.048   1.928  1.9187 -1.5089 -0.7297
 4488SOL     OW15202   3.962   4.613   5.575 -0.4553 -0.3121  0.0509
 4488SOL    HW115203   3.879   4.632   5.619 -0.3705 -0.6865  0.3732
 4488SOL    HW215204   3.937   4.598   5.484 -0.7983 -0.8588  0.2302
 4489SOL     OW15205   7.766   8.162   7.751  0.3330  0.4449  0.1826
 4489SOL    HW115206   7.858   8.138   7.743  1.0568  3.0923 -0.3992
 4489SOL    HW215207   7.736   8.117   7.830  1.1966 -2.8815 -1.1917
 4490SOL     OW15208   2.066   5.399   3.299  0.0282 -0.3705 -0.0876
 4490SOL    HW115209   1.985   5.391   3.349 -0.5462 -0.1987 -0.9672
 4490SOL    HW215210   2.113   5.317   3.314 -0.5624 -0.6931 -0.0058
 4491SOL     OW15211   8.985   1.107   3.489 -0.0658 -0.9481  0.8095
 4491SOL    HW115212   9.065   1.067   3.453  0.3610  0.2626  0.3707
 4491SOL    HW215213   8.917   1.043   3.471  0.2318 -0.6747 -1.6962
 4492SOL     OW15214   2.591   6.802   7.029  0.1159  0.0102 -0.4453
 4492SOL    HW115215   2.558   6.803   6.939 -0.0435 -0.4188 -0.3927
 4492SOL    HW215216   2.602   6.895   7.051 -0.6043  0.1510 -0.6331
 4493SOL     OW15217   8.312   9.336   4.351 -0.0863 -0.0991  0.3373
 4493SOL    HW115218   8.279   9.316   4.439  1.2264  0.2255  0.9285
 4493SOL    HW215219   8.338   9.251   4.315 -0.1934 -0.1784  0.4479
 4494SOL     OW15220   3.126   6.608   4.644  0.1054  0.1681 -0.3717
 4494SOL    HW115221   3.206   6.574   4.604  0.7837  1.7404 -0.4113
 4494SOL    HW215222   3.079   6.530   4.673  0.9618 -0.8543 -1.6332
 4495SOL     OW15223   3.844   2.832   8.689  0.3724 -0.0314 -0.4628
 4495SOL    HW115224   3.765   2.804   8.735 -0.2181  1.5997 -0.3864
 4495SOL    HW215225   3.833   2.798   8.600 -2.2210  2.9706 -1.4989
 4496SOL     OW15226   1.373   2.713   8.662 -0.0054 -0.5575 -0.3616
 4496SOL    HW115227   1.428   2.663   8.722  0.9392  1.5530  0.6179
 4496SOL    HW215228   1.356   2.795   8.707 -2.1616 -0.2545 -1.5850
 4497SOL     OW15229   1.189   0.956   7.509  0.5020  0.0332 -0.1360
 4497SOL    HW115230   1.132   0.883   7.533 -1.4620  1.3541 -0.4580
 4497SOL    HW215231   1.178   0.966   7.415 -1.3298  2.2489  0.2153
 4498SOL     OW15232   7.703   7.646   8.287 -0.2604  0.4686  0.2521
 4498SOL    HW115233   7.654   7.712   8.335 -0.1881  0.8073 -0.1382
 4498SOL    HW215234   7.677   7.563   8.328  1.9497  0.9142  2.8285
 4499SOL     OW15235   2.716   6.823   3.831 -0.2281 -0.3542 -0.8854
 4499SOL    HW115236   2.758   6.907   3.812 -0.0684 -0.4506 -0.9596
 4499SOL    HW215237   2.738   6.767   3.756  3.1849 -1.8105  0.9632
 4500SOL     OW15238   3.784   7.476   7.012 -0.1173 -0.6103 -0.0025
 4500SOL    HW115239   3.816   7.409   7.072 -1.0842 -1.6093 -0.5765
 4500SOL    HW215240   3.812   7.447   6.925  1.6965  1.0744 -0.0583
 4501SOL     OW15241   1.669   7.066   3.553  0.4446 -0.3400 -0.4348
 4501SOL    HW115242   1.716   7.139   3.514  0.9674 -0.5242 -0.1556
 4501SOL    HW215243   1.582   7.070   3.514  0.5980  0.1821 -0.7296
 4502SOL     OW15244   2.049   4.325   7.679 -0.2527  0.6351 -0.1194
 4502SOL    HW115245   2.065   4.322   7.774  3.0352 -1.6867 -0.5536
 4502SOL    HW215246   2.087   4.408   7.651  1.0483  0.2319  0.3663
 4503SOL     OW15247   3.825   5.768   4.846  0.3546  0.2963 -0.2177
 4503SOL    HW115248   3.831   5.673   4.854  1.0565  0.2809 -0.7956
 4503SOL    HW215249   3.862   5.787   4.760 -0.1641  1.0580 -0.2822
 4504SOL     OW15250   8.825   5.220   7.106 -0.4648 -0.2458 -0.5531
 4504SOL    HW115251   8.799   5.309   7.083 -0.5457 -0.0912  0.1090
 4504SOL    HW215252   8.786   5.205   7.192  0.6272 -0.4356 -0.0727
 4505SOL     OW15253   8.958   3.292   5.303 -0.2616 -0.2390  0.1111
 4505SOL    HW115254   8.881   3.293   5.245 -0.4926 -0.0631  0.4160
 4505SOL    HW215255   8.972   3.200   5.324  2.0742 -0.8073 -3.1638
 4506SOL     OW15256   0.954   6.626   0.855  0.5472 -0.1385 -0.0533
 4506SOL    HW115257   1.019   6.565   0.820  0.7305 -0.1632  0.3265
 4506SOL    HW215258   1.006   6.697   0.893  0.3472 -0.0783  0.1063
 4507SOL     OW15259   9.425   4.190   8.763  0.1263 -0.1125  0.0890
 4507SOL    HW115260   9.420   4.250   8.689 -2.7724  2.6666  2.2359
 4507SOL    HW215261   9.391   4.107   8.729  1.0484  0.3859 -2.1994
 4508SOL     OW15262   8.445   3.262   1.044  0.1506  0.2640  0.1877
 4508SOL    HW115263   8.492   3.345   1.040  0.2524  0.1985 -0.0093
 4508SOL    HW215264   8.369   3.279   1.099 -0.1691  0.6549 -0.3654
 4509SOL     OW15265   5.903   6.332   0.649  0.3535  0.0313  0.1450
 4509SOL    HW115266   5.923   6.337   0.743  2.5838  1.4600 -0.3345
 4509SOL    HW215267   5.894   6.424   0.622 -2.1229 -0.3852 -0.7408
 4510SOL     OW15268   7.383   8.000   3.708 -0.0166 -0.4985  0.4740
 4510SOL    HW115269   7.349   7.948   3.635 -1.2269  2.0594 -0.9465
 4510SOL    HW215270   7.478   7.999   3.696 -0.0817 -1.4854 -0.1157
 4511SOL     OW15271   8.382   0.283   4.723  0.1649  0.0833  0.1476
 4511SOL    HW115272   8.472   0.265   4.753  0.0411 -1.0732 -0.1214
 4511SOL    HW215273   8.387   0.370   4.683  1.4184 -0.4302 -0.8586
 4512SOL     OW15274   6.715   9.482   3.954  0.7208  0.0516  0.1887
 4512SOL    HW115275   6.805   9.495   3.983 -0.0508  1.5035  2.1803
 4512SOL    HW215276   6.694   9.559   3.902  0.9823 -0.9030 -1.4059
 4513SOL     OW15277   5.351   4.210   4.767 -0.1291 -0.2390 -0.9622
 4513SOL    HW115278   5.257   4.197   4.760 -0.1760  0.2967 -1.4014
 4513SOL    HW215279   5.372   4.272   4.697  0.2227  1.2978  0.4383
 4514SOL     OW15280   6.535   5.026   0.636  0.7915  0.5928  0.2767
 4514SOL    HW115281   6.595   5.076   0.581 -0.9133  1.3621 -0.9872
 4514SOL    HW215282   6.533   4.939   0.597  1.9384  0.2172  1.0265
 4515SOL     OW15283   8.394   0.685   5.841 -0.3311  0.1407 -0.2429
 4515SOL    HW115284   8.446   0.699   5.762  1.1426  0.7111  0.8000
 4515SOL    HW215285   8.355   0.770   5.859  0.6208  0.4255  0.5226
 4516SOL     OW15286   2.489   3.296   3.157 -0.5025  0.7553 -0.1583
 4516SOL    HW115287   2.494   3.364   3.089 -0.1590 -0.3375 -1.2518
 4516SOL    HW215288   2.399   3.263   3.150 -0.8729  1.4946  0.8035
 4517SOL     OW15289   5.979   2.317   2.688 -0.6096 -0.1117 -0.0266
 4517SOL    HW115290   6.008   2.389   2.632  0.4982  0.7049  1.5120
 4517SOL    HW215291   6.014   2.238   2.645 -0.4722  0.4016 -0.8892
 4518SOL     OW15292   9.346   8.202   0.050  0.2731  0.1352  0.5847
 4518SOL    HW115293   9.385   8.191  -0.037 -1.9160 -0.0264 -0.4457
 4518SOL    HW215294   9.266   8.252   0.034 -0.2393  0.0099  2.5076
 4519SOL     OW15295   2.058   5.713   3.899  0.0431  0.2689  0.6133
 4519SOL    HW115296   2.117   5.696   3.825 -0.3975  0.8303  0.1216
 4519SOL    HW215297   2.094   5.791   3.941 -0.7638  1.0905 -0.1602
 4520SOL     OW15298   8.818   0.699   3.256  0.3908 -0.2385 -0.0394
 4520SOL    HW115299   8.837   0.627   3.316  0.7485  0.9154  1.2808
 4520SOL    HW215300   8.780   0.657   3.179  2.1269 -1.9793 -0.0014
 4521SOL     OW15301   6.948   1.837   8.624  0.1352  0.6097 -0.8380
 4521SOL    HW115302   6.975   1.832   8.716  0.7616 -0.1537 -1.0508
 4521SOL    HW215303   6.977   1.754   8.586 -2.7343 -0.4060 -1.0445
 4522SOL     OW15304   3.852   7.060   0.616  0.4961  0.4985 -0.1822
 4522SOL    HW115305   3.888   7.128   0.673 -0.0080  1.5310 -1.0464
 4522SOL    HW215306   3.884   7.082   0.528  1.5846 -1.2834 -0.2790
 4523SOL     OW15307   2.240   6.103   7.765 -0.4196 -0.2278  0.5039
 4523SOL    HW115308   2.255   6.009   7.761  0.8610 -0.0043 -1.1345
 4523SOL    HW215309   2.310   6.136   7.822  0.3244 -0.0827 -0.4700
 4524SOL     OW15310   7.110   7.457   0.650  0.2563  0.0557 -0.5172
 4524SOL    HW115311   7.153   7.412   0.723 -1.2317 -0.4305  0.0997
 4524SOL    HW215312   7.075   7.386   0.596 -0.0150  0.4477 -0.8573
 4525SOL     OW15313   1.420   7.172   8.742  0.0429  0.1188 -0.4020
 4525SOL    HW115314   1.430   7.262   8.772  1.5788  0.2411 -1.2229
 4525SOL    HW215315   1.348   7.137   8.796 -0.7804  1.8986 -0.2763
 4526SOL     OW15316   7.913   1.820   8.246  0.2392 -0.0638  0.2683
 4526SOL    HW115317   7.928   1.752   8.311 -0.9758  1.0082  1.7475
 4526SOL    HW215318   7.919   1.775   8.162  0.0158 -1.8658  1.1698
 4527SOL     OW15319   6.422   1.387   5.958  0.1289 -0.0274 -0.3221
 4527SOL    HW115320   6.475   1.308   5.966  0.1832  0.0876  0.6967
 4527SOL    HW215321   6.445   1.438   6.036 -1.4969  0.0005  0.1824
 4528SOL     OW15322   5.293   4.107   0.986 -0.0599  0.2315  0.1409
 4528SOL    HW115323   5.283   4.133   1.078 -0.6833  1.3660 -0.2304
 4528SOL    HW215324   5.203   4.092   0.956  0.1386 -0.0636 -0.3097
 4529SOL     OW15325   0.534   4.786   3.357 -0.3104  0.3924 -0.0529
 4529SOL    HW115326   0.486   4.761   3.279 -0.5280  0.2826  0.1175
 4529SOL    HW215327   0.467   4.815   3.419 -0.2883 -1.0106  0.6660
 4530SOL     OW15328   6.829   0.731   0.765 -0.5008  0.0787 -0.8262
 4530SOL    HW115329   6.887   0.655   0.768 -0.6454 -0.0401 -0.9627
 4530SOL    HW215330   6.885   0.805   0.788 -0.7937 -0.3047  1.2961
 4531SOL     OW15331   6.255   0.905   2.915 -0.0847  0.1711 -0.3877
 4531SOL    HW115332   6.166   0.935   2.936 -0.4203 -1.0925  0.0897
 4531SOL    HW215333   6.249   0.809   2.917  1.0186  0.0556 -1.5322
 4532SOL     OW15334   2.993   1.623   7.820  0.7845  0.3936 -0.0569
 4532SOL    HW115335   2.945   1.641   7.739 -0.3654  0.0114  0.5081
 4532SOL    HW215336   2.925   1.592   7.881  1.6860  0.3139  0.9308
 4533SOL     OW15337   4.023   4.369   2.370  0.3531  0.2827 -0.2894
 4533SOL    HW115338   3.971   4.336   2.443 -0.1100  2.0128  0.2254
 4533SOL    HW215339   4.075   4.440   2.408 -1.3693  2.6134 -1.9553
 4534SOL     OW15340   7.669   5.178   6.464 -0.1510 -0.3731  0.1430
 4534SOL    HW115341   7.738   5.196   6.528  1.0109  1.0583 -1.3996
 4534SOL    HW215342   7.675   5.084   6.448  1.1130 -0.3688  0.4469
 4535SOL     OW15343   5.704   3.081   3.379  0.1244  0.1637  0.2116
 4535SOL    HW115344   5.686   3.134   3.301  1.0110 -1.0319 -0.8476
 4535SOL    HW215345   5.775   3.126   3.423  0.6489  0.0553 -0.5068
 4536SOL     OW15346   1.519   0.224   3.818  0.3108  0.0955 -0.3057
 4536SOL    HW115347   1.532   0.132   3.838  0.5636  0.2968  0.5387
 4536SOL    HW215348   1.481   0.261   3.899 -2.2337  0.2436 -1.4763
 4537SOL     OW15349   7.439   0.045   6.087 -0.3423  0.0569 -0.3923
 4537SOL    HW115350   7.453  -0.011   6.010  1.9144  0.0718 -0.0452
 4537SOL    HW215351   7.413  -0.016   6.156  0.2938 -0.3338 -0.4866
 4538SOL     OW15352   5.727   6.511   5.971 -0.0908  0.3133 -0.8469
 4538SOL    HW115353   5.821   6.511   5.985 -0.2770 -0.9763  0.6495
 4538SOL    HW215354   5.716   6.482   5.880  0.9371  0.3185 -0.9807
 4539SOL     OW15355   1.079   0.713   4.738 -0.0193  0.2545  0.2855
 4539SOL    HW115356   1.094   0.663   4.819 -0.0703 -2.7271 -1.3835
 4539SOL    HW215357   1.048   0.647   4.675 -0.8093  2.5977 -1.9467
 4540SOL     OW15358   0.887   7.147   1.806 -0.4135  0.1297  0.1215
 4540SOL    HW115359   0.805   7.102   1.787 -0.7218  0.7192  0.0313
 4540SOL    HW215360   0.921   7.105   1.884 -0.9882  0.1241  0.3678
 4541SOL     OW15361   1.578   1.282   2.685  0.3645  0.6275 -0.7803
 4541SOL    HW115362   1.584   1.208   2.625  0.6828 -0.9847  1.1380
 4541SOL    HW215363   1.660   1.281   2.734 -1.2777 -0.5004  2.2383
 4542SOL     OW15364   0.094   4.577   6.838  0.2050 -0.2166  0.2192
 4542SOL    HW115365   0.146   4.608   6.764 -0.2093 -2.1988 -0.9733
 4542SOL    HW215366   0.020   4.637   6.842  1.5503  1.4867  0.7361
 4543SOL     OW15367   2.291   3.101   8.106 -0.0094 -0.2172 -0.2960
 4543SOL    HW115368   2.248   3.185   8.093 -0.5556 -0.1777  1.4309
 4543SOL    HW215369   2.305   3.067   8.018 -0.4692  1.3264 -1.0021
 4544SOL     OW15370   6.555   3.081   3.761 -0.2524  0.2534 -0.1441
 4544SOL    HW115371   6.607   3.159   3.786  0.7484 -0.8869  1.5600
 4544SOL    HW215372   6.520   3.102   3.675  5.5157  0.0409 -3.0022
 4545SOL     OW15373   8.555   8.138   6.269  0.0635 -0.0411  0.7260
 4545SOL    HW115374   8.524   8.057   6.228  1.1088 -0.5262  0.8722
 4545SOL    HW215375   8.545   8.121   6.363 -0.9715  0.5246  0.7386
 4546SOL     OW15376   8.731   3.609   6.605  0.3141  0.1919  0.0777
 4546SOL    HW115377   8.816   3.622   6.646  0.8038 -0.7739 -0.6088
 4546SOL    HW215378   8.742   3.533   6.548 -0.5232  1.0848 -1.3450
 4547SOL     OW15379   9.552   1.812   1.961 -0.3146  0.2322 -0.0042
 4547SOL    HW115380   9.589   1.814   1.873 -1.9650  2.2085 -0.7193
 4547SOL    HW215381   9.460   1.791   1.948 -0.3962 -0.4152  1.3710
 4548SOL     OW15382   3.898   4.531   4.181 -0.6696 -0.1101 -0.1903
 4548SOL    HW115383   3.849   4.553   4.102  0.1042  2.1791 -0.1034
 4548SOL    HW215384   3.985   4.508   4.150 -0.3262  0.9213 -0.0105
 4549SOL     OW15385   1.153   8.683   9.213  0.4735 -0.3264  0.3284
 4549SOL    HW115386   1.150   8.688   9.118 -0.6337 -0.1119  0.3621
 4549SOL    HW215387   1.162   8.773   9.243  0.0914 -0.3175  0.4336
 4550SOL     OW15388   4.347   2.322   0.595  0.4741 -0.7222  0.2139
 4550SOL    HW115389   4.257   2.307   0.626 -0.4860  0.6363 -1.6750
 4550SOL    HW215390   4.394   2.356   0.671 -1.1416  0.3102  0.8075
 4551SOL     OW15391   6.759   0.212   5.911 -0.5665 -0.3289 -0.1855
 4551SOL    HW115392   6.704   0.279   5.871 -3.2580 -2.2614  0.0052
 4551SOL    HW215393   6.697   0.153   5.953  1.6419 -3.0319 -0.4751
 4552SOL     OW15394   4.521   6.187   0.676 -0.0966  0.6678 -0.4978
 4552SOL    HW115395   4.513   6.266   0.730  0.8295 -0.5677  1.6012
 4552SOL    HW215396   4.446   6.133   0.701 -1.5193  1.3513 -2.9391
 4553SOL     OW15397   2.633   7.908   3.863 -0.3131  0.2301 -0.1495
 4553SOL    HW115398   2.707   7.878   3.811 -1.5565 -0.0678 -1.8338
 4553SOL    HW215399   2.585   7.827   3.885  0.1347  0.3565  1.4206
 4554SOL     OW15400   5.568   5.963   6.963 -0.5603 -0.2367 -0.7924
 4554SOL    HW115401   5.538   5.904   7.034  1.7214 -1.6190 -0.8771
 4554SOL    HW215402   5.569   5.907   6.885 -0.1564  0.4396 -1.2778
 4555SOL     OW15403   8.953   1.147   0.636 -0.3497 -0.0402 -0.0071
 4555SOL    HW115404   9.045   1.129   0.652 -0.2299  0.9564  0.5384
 4555SOL    HW215405   8.944   1.146   0.541  0.5564  1.2731 -0.1408
 4556SOL     OW15406   8.645   7.219   6.382  0.0241  0.1104  0.2279
 4556SOL    HW115407   8.717   7.196   6.323  1.0522 -1.4206  1.9693
 4556SOL    HW215408   8.679   7.291   6.434 -0.7519  1.2194 -0.7417
 4557SOL     OW15409   2.659   2.686   5.036 -0.9587  0.2502  0.0742
 4557SOL    HW115410   2.573   2.644   5.030 -1.5697  1.1247  1.9609
 4557SOL    HW215411   2.640   2.779   5.021 -0.5461  0.5966  1.5207
 4558SOL     OW15412   3.612   1.768   0.501 -0.3185 -0.5953  0.3247
 4558SOL    HW115413   3.563   1.770   0.583  3.2756  4.0032  2.8692
 4558SOL    HW215414   3.696   1.727   0.524  1.3635  2.1809 -0.4524
 4559SOL     OW15415   2.390   4.160   0.148 -0.4082  0.7916 -0.5670
 4559SOL    HW115416   2.415   4.171   0.240  2.0072  0.5935 -1.1321
 4559SOL    HW215417   2.348   4.074   0.144  0.3272  0.3775  0.2186
 4560SOL     OW15418   6.644   9.555   3.221 -0.1469  0.2879  0.1174
 4560SOL    HW115419   6.658   9.650   3.211  0.5236  0.1355 -0.5094
 4560SOL    HW215420   6.725   9.516   3.189 -0.0049 -0.4723  1.3365
 4561SOL     OW15421   8.378   2.466   7.203  0.2987 -0.1251 -0.0404
 4561SOL    HW115422   8.435   2.537   7.233  0.0626  0.1247 -0.1880
 4561SOL    HW215423   8.307   2.463   7.267 -0.9641  1.3363 -1.3345
 4562SOL     OW15424   9.461   0.601   3.323  0.4087 -0.2328 -0.2952
 4562SOL    HW115425   9.416   0.587   3.406 -1.9031  0.2698 -1.3746
 4562SOL    HW215426   9.505   0.685   3.333  0.1114 -0.1532  0.3912
 4563SOL     OW15427   0.074   1.254   8.136  0.0823  0.1565 -0.0069
 4563SOL    HW115428   0.105   1.313   8.068  0.9503  0.2554  0.4674
 4563SOL    HW215429  -0.021   1.267   8.138 -0.0843 -0.4896 -1.8026
 4564SOL     OW15430   6.077   0.784   5.837  0.1088 -0.0004 -0.0360
 4564SOL    HW115431   6.059   0.816   5.925  2.0356 -0.3749  0.5576
 4564SOL    HW215432   6.064   0.859   5.780  1.2796  0.9694  0.9125
 4565SOL     OW15433   2.835   9.337   0.654  0.3527  0.3615  0.1227
 4565SOL    HW115434   2.913   9.325   0.600 -0.5536  0.5255 -1.2691
 4565SOL    HW215435   2.846   9.425   0.691  1.4280 -0.1134  0.9989
 4566SOL     OW15436   3.724   2.402   5.900 -0.2073 -0.6117 -0.0687
 4566SOL    HW115437   3.766   2.350   5.968 -0.6750  0.3131  0.9605
 4566SOL    HW215438   3.632   2.403   5.925 -0.5448 -1.0388 -1.2491
 4567SOL     OW15439   4.010   0.828   2.304 -0.1070  0.4354  0.1054
 4567SOL    HW115440   4.014   0.752   2.247  0.2171  1.2801 -1.0419
 4567SOL    HW215441   4.101   0.856   2.314 -0.3376  1.5707 -0.7664
 4568SOL     OW15442   8.534   8.993   7.055  0.4461 -0.2589 -0.0365
 4568SOL    HW115443   8.561   9.000   6.963  0.6026 -0.2302  0.0114
 4568SOL    HW215444   8.575   9.069   7.098  0.6452 -0.4523  0.1214
 4569SOL     OW15445   8.955   1.926   0.214 -0.4173  0.1102 -0.4649
 4569SOL    HW115446   8.991   1.894   0.296 -1.1225 -1.5539 -0.7702
 4569SOL    HW215447   8.876   1.973   0.240 -0.9396 -0.8825 -0.2164
 4570SOL     OW15448   7.166   6.498   8.139 -0.0782  0.5153 -0.1506
 4570SOL    HW115449   7.191   6.509   8.231 -1.1236  0.7914  0.1131
 4570SOL    HW215450   7.078   6.533   8.134 -0.7341 -1.1412 -0.8712
 4571SOL     OW15451   5.678   6.189   2.623 -0.0879  0.3276  0.3239
 4571SOL    HW115452   5.745   6.162   2.685  0.0379 -0.2887 -0.0678
 4571SOL    HW215453   5.643   6.107   2.589 -1.9147  0.6035  1.4374
 4572SOL     OW15454   0.114   9.372   9.329  0.4613 -0.3924  0.0675
 4572SOL    HW115455   0.024   9.373   9.363 -1.2865  1.7332 -3.8967
 4572SOL    HW215456   0.125   9.285   9.292  0.0673 -0.6746  0.5914
 4573SOL     OW15457   4.901   4.868   6.715 -0.4298 -0.4853 -0.6386
 4573SOL    HW115458   4.974   4.879   6.776  0.1715  0.8601 -1.5479
 4573SOL    HW215459   4.920   4.786   6.669  0.8219  0.1334 -1.2524
 4574SOL     OW15460   7.304   9.168   0.583  0.0186 -0.1308 -0.0073
 4574SOL    HW115461   7.363   9.094   0.592  1.1743  0.7891  0.2781
 4574SOL    HW215462   7.343   9.221   0.513 -1.1317 -0.0951 -0.6411
 4575SOL     OW15463   9.530   8.684   5.191 -0.2728 -0.4373 -0.0598
 4575SOL    HW115464   9.562   8.602   5.151 -0.8140 -0.3962 -0.6003
 4575SOL    HW215465   9.570   8.753   5.139  1.0254 -0.3162  1.0484
 4576SOL     OW15466   6.847   2.449   6.725 -0.0472 -0.1242  0.3793
 4576SOL    HW115467   6.774   2.400   6.687 -0.0675 -0.0362  0.3051
 4576SOL    HW215468   6.879   2.393   6.796 -0.8856  0.3131  1.1245
 4577SOL     OW15469   6.395   8.991   1.267  0.0429  0.4678  0.3981
 4577SOL    HW115470   6.432   8.929   1.205 -0.5506  0.2514  0.2499
 4577SOL    HW215471   6.311   9.016   1.228  0.2306  1.2932  0.4991
 4578SOL     OW15472   6.892   9.165   5.156  0.1706 -0.4736  0.6841
 4578SOL    HW115473   6.903   9.222   5.080 -2.2228 -1.8815 -0.8735
 4578SOL    HW215474   6.817   9.202   5.202  0.7184 -0.4481  1.5683
 4579SOL     OW15475   1.231   1.540   3.369  0.2548  0.1944 -0.4377
 4579SOL    HW115476   1.187   1.500   3.294 -0.5723  0.4868 -0.1182
 4579SOL    HW215477   1.223   1.634   3.354  1.0324  0.2469 -0.5244
 4580SOL     OW15478   4.998   1.549   5.400 -0.3872  0.3194 -0.0438
 4580SOL    HW115479   4.979   1.468   5.447 -0.9576 -0.2095 -1.1637
 4580SOL    HW215480   4.960   1.618   5.455  0.9171 -0.0362  1.4046
 4581SOL     OW15481   7.522   2.848   2.934 -1.0453 -0.1954  0.0362
 4581SOL    HW115482   7.531   2.905   3.011 -1.0923 -2.0580  1.4846
 4581SOL    HW215483   7.579   2.888   2.868  1.3697 -0.1245  2.0314
 4582SOL     OW15484   6.611   7.704   3.558  0.1261  0.0254  0.0488
 4582SOL    HW115485   6.625   7.629   3.500 -1.1857  0.6087 -1.0836
 4582SOL    HW215486   6.563   7.669   3.632 -1.4535 -0.1170 -0.9856
 4583SOL     OW15487   4.096   1.210   5.053 -0.4864 -0.2292 -0.2219
 4583SOL    HW115488   4.010   1.195   5.013 -0.4952  0.8845 -0.6728
 4583SOL    HW215489   4.132   1.283   5.003  0.6549 -0.5731  0.0811
 4584SOL     OW15490   1.587   9.008   5.201 -0.0371  0.2493 -0.2235
 4584SOL    HW115491   1.560   8.917   5.189 -2.7162  1.0538 -0.9282
 4584SOL    HW215492   1.650   9.024   5.131  2.3286 -1.6055  1.2764
 4585SOL     OW15493   2.183   9.212   4.782  0.1515  0.1961 -0.3199
 4585SOL    HW115494   2.230   9.295   4.781 -1.5878  1.2824  1.0731
 4585SOL    HW215495   2.156   9.200   4.873 -0.6975 -1.2726 -0.7189
 4586SOL     OW15496   7.786   6.957   2.888  0.1520 -0.8294 -0.3625
 4586SOL    HW115497   7.726   6.930   2.818  0.7681 -0.6536 -0.9699
 4586SOL    HW215498   7.814   6.874   2.928  1.9774 -1.1536 -2.1711
 4587SOL     OW15499   7.437   5.686   4.493 -0.3004  0.1664  0.2869
 4587SOL    HW115500   7.419   5.598   4.459  0.4998 -0.5176  1.5157
 4587SOL    HW215501   7.426   5.677   4.588 -0.4634  1.4725  0.4089
 4588SOL     OW15502   0.304   2.331   6.887  0.3910  0.0829  0.5989
 4588SOL    HW115503   0.242   2.352   6.957  0.5214  0.2359  0.6721
 4588SOL    HW215504   0.354   2.412   6.876 -0.5316  0.5137 -0.6236
 4589SOL     OW15505   1.344   5.431   4.809  0.1544 -0.2487  0.1127
 4589SOL    HW115506   1.437   5.429   4.828  0.0326  0.2269  0.7877
 4589SOL    HW215507   1.302   5.406   4.892 -0.3804  1.7533  0.5055
 4590SOL     OW15508   9.235   6.494   6.602  0.2937 -0.6715  0.6503
 4590SOL    HW115509   9.305   6.432   6.625  0.9852  0.0378  0.5060
 4590SOL    HW215510   9.237   6.498   6.507  0.2361 -0.4494  0.6579
 4591SOL     OW15511   4.154   0.505   7.944  0.7056 -0.1504 -0.2635
 4591SOL    HW115512   4.167   0.411   7.940  0.9151 -0.0955 -1.1326
 4591SOL    HW215513   4.160   0.527   8.037  2.1607 -0.8004 -0.1784
 4592SOL     OW15514   8.785   6.222   0.749 -0.5662 -0.1343  0.4668
 4592SOL    HW115515   8.841   6.188   0.679  1.0835 -0.4660  1.8647
 4592SOL    HW215516   8.697   6.221   0.712  0.5012  2.6073 -2.7188
 4593SOL     OW15517   1.346   1.908   6.147  1.2764  0.2531  0.0556
 4593SOL    HW115518   1.441   1.921   6.140  1.0589  2.8836  0.9828
 4593SOL    HW215519   1.333   1.868   6.233  1.5032  0.2808  0.1034
 4594SOL     OW15520   6.083   9.080   3.252 -0.0536 -0.2811  0.6900
 4594SOL    HW115521   6.176   9.099   3.239  0.0568 -0.6028  0.9916
 4594SOL    HW215522   6.057   9.135   3.326 -0.1867  0.0566  0.3952
 4595SOL     OW15523   5.168   9.480   5.241  0.6957  0.4117  0.1040
 4595SOL    HW115524   5.231   9.442   5.180  0.6267 -0.3293  0.4817
 4595SOL    HW215525   5.156   9.413   5.308 -2.5898 -0.6397 -1.3598
 4596SOL     OW15526   8.893   9.590   1.882 -0.0643  0.5292  0.2447
 4596SOL    HW115527   8.876   9.668   1.829  0.6911  0.0142 -0.7920
 4596SOL    HW215528   8.843   9.520   1.839  1.1193 -0.0473 -0.2468
 4597SOL     OW15529   9.093   0.782   0.873 -0.2690  0.5241 -0.1095
 4597SOL    HW115530   8.999   0.798   0.885 -0.7668 -1.9173 -0.2122
 4597SOL    HW215531   9.109   0.803   0.781 -0.7186  0.9442 -0.0975
 4598SOL     OW15532   7.826   5.255   4.372 -0.1178 -0.1442 -0.5304
 4598SOL    HW115533   7.919   5.234   4.380  0.1461  0.6506 -1.3141
 4598SOL    HW215534   7.781   5.170   4.380  0.5396 -0.3459  1.5143
 4599SOL     OW15535   9.562   1.418   4.484  0.2751  0.1137  0.2837
 4599SOL    HW115536   9.472   1.425   4.453 -0.1497  0.4064  1.5089
 4599SOL    HW215537   9.614   1.468   4.421 -0.7408  1.8763  0.7925
 4600SOL     OW15538   8.563   4.654   6.199  0.1937 -0.4337 -0.0730
 4600SOL    HW115539   8.496   4.587   6.203 -0.4431  0.2539  2.0781
 4600SOL    HW215540   8.516   4.736   6.214  1.2954  0.2262 -0.1166
 4601SOL     OW15541   9.070   4.462   0.235  0.5147 -0.0428  0.2574
 4601SOL    HW115542   9.044   4.552   0.258  1.6719  0.1563  0.8890
 4601SOL    HW215543   9.137   4.474   0.168 -1.4299 -0.5684 -1.9011
 4602SOL     OW15544   7.415   0.364   6.134 -0.0028  0.1110  0.2093
 4602SOL    HW115545   7.449   0.334   6.050  0.3821  0.5433  0.2077
 4602SOL    HW215546   7.337   0.310   6.148  0.7249 -0.9749  0.2648
 4603SOL     OW15547   7.244   1.665   8.376 -0.2177  0.3161 -0.0725
 4603SOL    HW115548   7.262   1.727   8.447 -0.8424 -1.0478  1.3393
 4603SOL    HW215549   7.150   1.650   8.381 -0.1252 -0.4778 -0.6022
 4604SOL     OW15550   0.774   8.642   7.932 -0.2448  0.8504 -0.2327
 4604SOL    HW115551   0.736   8.607   8.012 -0.0823  0.5940 -0.2653
 4604SOL    HW215552   0.869   8.639   7.947 -0.2131  3.1852  0.5825
 4605SOL     OW15553   3.128   8.607   1.431  0.0694 -0.3590  0.0788
 4605SOL    HW115554   3.157   8.526   1.389  0.5816 -1.1010  1.7528
 4605SOL    HW215555   3.199   8.669   1.415 -0.2366 -0.2764 -1.0505
 4606SOL     OW15556   1.694   6.747   6.611  0.5520  0.3191  0.4125
 4606SOL    HW115557   1.691   6.838   6.641  0.4321  0.8435 -1.1015
 4606SOL    HW215558   1.680   6.752   6.516  1.0162 -1.2438  0.2259
 4607SOL     OW15559   1.315   3.064   4.463  0.5158  0.0495  0.1658
 4607SOL    HW115560   1.391   3.122   4.475  0.9345 -0.4807  0.1311
 4607SOL    HW215561   1.333   2.990   4.521 -0.4672  0.3849  0.9123
 4608SOL     OW15562   2.860   4.107   6.810  0.0442 -0.0260 -0.1304
 4608SOL    HW115563   2.900   4.075   6.891 -0.0551 -0.1035 -0.1129
 4608SOL    HW215564   2.934   4.140   6.759  0.5506 -2.8167 -1.3674
 4609SOL     OW15565   0.700   3.973   9.046 -0.1705 -0.8135  0.3735
 4609SOL    HW115566   0.701   3.923   9.128 -0.8265  1.3918  1.8268
 4609SOL    HW215567   0.609   4.002   9.037  0.4456  1.2428  0.3680
 4610SOL     OW15568   3.338   9.160   6.484 -0.3743  0.0783 -0.2900
 4610SOL    HW115569   3.407   9.173   6.550 -1.2608  2.5833  0.2481
 4610SOL    HW215570   3.384   9.123   6.408  1.3940  0.8390  0.3499
 4611SOL     OW15571   6.221   3.815   8.866 -0.1975  0.2529 -0.3417
 4611SOL    HW115572   6.188   3.775   8.947 -1.3915 -3.0367 -2.2260
 4611SOL    HW215573   6.143   3.848   8.822  0.3179  1.1596 -0.5938
 4612SOL     OW15574   0.079   8.962   2.522  0.2253 -0.7197  0.1320
 4612SOL    HW115575   0.074   8.892   2.456  0.8404  0.5801 -1.3490
 4612SOL    HW215576   0.027   9.033   2.485  1.7590  0.5591  0.3553
 4613SOL     OW15577   2.052   6.731   0.032  0.1397 -0.4344  0.5649
 4613SOL    HW115578   2.001   6.682   0.096 -1.2483 -1.5322 -1.2471
 4613SOL    HW215579   2.141   6.700   0.042 -0.2598 -1.4195  1.1985
 4614SOL     OW15580   2.728   0.064   4.262 -0.1115 -0.4176 -0.1336
 4614SOL    HW115581   2.670   0.026   4.196 -1.7697  0.0214  1.0406
 4614SOL    HW215582   2.772  -0.011   4.302 -2.1146 -1.0347  1.0166
 4615SOL     OW15583   9.059   1.796   6.411  0.0845  0.2640 -0.5940
 4615SOL    HW115584   9.110   1.871   6.441  0.3584 -0.3856  0.6349
 4615SOL    HW215585   9.114   1.754   6.345  0.8499 -0.0138  0.1951
 4616SOL     OW15586   7.018   3.178   8.570  0.0236 -0.1881  0.2435
 4616SOL    HW115587   7.031   3.199   8.477 -0.8566  0.3518  0.2320
 4616SOL    HW215588   7.091   3.220   8.615  0.9719 -1.2203 -0.2888
 4617SOL     OW15589   3.008   6.442   9.559  0.2837  0.0898  0.0926
 4617SOL    HW115590   2.927   6.468   9.515  0.3793  1.3325  0.6111
 4617SOL    HW215591   3.026   6.354   9.525 -0.4638  0.3910 -1.1764
 4618SOL     OW15592   9.308   0.573   0.404 -0.1043  0.2326  0.1361
 4618SOL    HW115593   9.376   0.565   0.471  1.9861 -0.2971 -1.9006
 4618SOL    HW215594   9.279   0.483   0.390  0.7659  0.0836 -0.8604
 4619SOL     OW15595   6.802   4.104   0.331 -0.5303  0.0946  0.4821
 4619SOL    HW115596   6.811   4.021   0.378  1.1275 -0.0179  0.0018
 4619SOL    HW215597   6.723   4.143   0.368 -1.3185 -1.6612  0.7507
 4620SOL     OW15598   1.867   8.266   4.563  0.3917 -0.0695  0.0763
 4620SOL    HW115599   1.869   8.171   4.551  0.0058  0.0651 -1.1777
 4620SOL    HW215600   1.955   8.289   4.591  0.2392 -0.9003  1.3139
 4621SOL     OW15601   2.475   9.280   7.841  0.1351 -0.4069 -0.1936
 4621SOL    HW115602   2.399   9.333   7.819  0.4343 -0.5279 -1.6291
 4621SOL    HW215603   2.445   9.190   7.831 -0.1303 -0.5236  1.4026
 4622SOL     OW15604   3.670   0.439   2.550  0.4743  0.0046  0.3020
 4622SOL    HW115605   3.642   0.351   2.577  0.6221  0.4220  1.9361
 4622SOL    HW215606   3.588   0.489   2.543  0.4386 -0.0941 -0.0120
 4623SOL     OW15607   2.472   5.158   6.665 -0.6973  0.4267 -0.2772
 4623SOL    HW115608   2.505   5.193   6.582 -2.2606  2.1407 -0.2423
 4623SOL    HW215609   2.523   5.203   6.732  0.7452 -1.1493 -0.2633
 4624SOL     OW15610   8.549   4.327   6.910 -0.1695 -0.6502  0.0926
 4624SOL    HW115611   8.501   4.314   6.828 -2.2186 -1.7165  1.3809
 4624SOL    HW215612   8.482   4.326   6.978  1.4361  0.5056  1.7907
 4625SOL     OW15613   0.088   8.653   0.980 -0.6210  0.0621 -0.0531
 4625SOL    HW115614   0.080   8.740   0.941 -2.2573 -0.1454 -0.2528
 4625SOL    HW215615   0.176   8.624   0.956  0.2732  1.9520  0.6867
 4626SOL     OW15616   5.901   3.002   0.009 -0.4649  0.0414  0.4177
 4626SOL    HW115617   5.868   2.924   0.055  2.2802 -0.0475  2.5013
 4626SOL    HW215618   5.853   3.075   0.047 -0.3682 -0.3162  1.2381
 4627SOL     OW15619   7.474   1.483   0.149 -0.2854 -0.1946  0.0316
 4627SOL    HW115620   7.419   1.408   0.172 -2.2958  1.4013  0.7678
 4627SOL    HW215621   7.451   1.503   0.059  0.0329 -0.2831 -0.0692
 4628SOL     OW15622   5.411   9.323   8.019 -0.1719  0.2329  0.3003
 4628SOL    HW115623   5.467   9.391   7.982  1.0638 -0.4507  0.8578
 4628SOL    HW215624   5.334   9.321   7.962  0.5972  0.8461 -0.7840
 4629SOL     OW15625   1.311   8.067   4.806 -0.1701 -0.1836 -0.6039
 4629SOL    HW115626   1.304   8.099   4.716  3.3653  2.7777 -0.0412
 4629SOL    HW215627   1.386   8.008   4.805 -0.1406 -0.1720  0.4037
 4630SOL     OW15628   5.846   5.490   6.719  1.0605 -0.0820  0.1987
 4630SOL    HW115629   5.785   5.514   6.649  1.2715  0.0129  0.0486
 4630SOL    HW215630   5.812   5.407   6.753  0.3770  0.3631  0.6518
 4631SOL     OW15631   0.315   8.453   5.615  0.5294 -0.2365 -0.1456
 4631SOL    HW115632   0.251   8.414   5.556  0.3855 -0.7537  0.3410
 4631SOL    HW215633   0.346   8.379   5.669  1.8601 -0.0907 -0.6680
 4632SOL     OW15634   5.970   0.734   4.073 -0.5090 -0.3746 -0.6500
 4632SOL    HW115635   5.937   0.796   4.009  0.2830  2.5383  1.5507
 4632SOL    HW215636   6.043   0.779   4.116 -0.7505 -2.2706  2.0362
 4633SOL     OW15637   2.122   2.998   2.242  0.2022  0.1479  0.4296
 4633SOL    HW115638   2.179   2.949   2.182  0.4959  1.1006 -0.0963
 4633SOL    HW215639   2.055   2.935   2.270  0.0811 -0.3233 -0.8813
 4634SOL     OW15640   2.124   4.610   7.273 -0.3200  0.0185  0.2224
 4634SOL    HW115641   2.096   4.544   7.210 -1.5657  3.5351 -3.3038
 4634SOL    HW215642   2.046   4.662   7.290  0.3757  0.1739  3.6121
 4635SOL     OW15643   2.216   4.570   9.298  0.6312 -0.6479 -0.1974
 4635SOL    HW115644   2.247   4.593   9.386 -3.4081  1.4878  0.8941
 4635SOL    HW215645   2.247   4.641   9.242  1.0096 -0.6497  0.0033
 4636SOL     OW15646   6.239   8.146   4.591  0.4325  0.0690  0.0743
 4636SOL    HW115647   6.299   8.102   4.531 -0.0776 -0.1000 -0.3219
 4636SOL    HW215648   6.249   8.100   4.674  2.1237  1.1449  0.5119
 4637SOL     OW15649   4.339   7.388   8.407 -0.0132  0.9323  0.3887
 4637SOL    HW115650   4.326   7.442   8.485 -0.4922 -0.3479  1.2483
 4637SOL    HW215651   4.400   7.320   8.436 -2.9325 -1.7314  0.8295
 4638SOL     OW15652   9.337   3.366   0.940  0.1308 -0.1689  0.5793
 4638SOL    HW115653   9.285   3.446   0.934 -0.8631 -0.7379  1.4589
 4638SOL    HW215654   9.348   3.338   0.849 -0.2110  0.5195  0.3175
 4639SOL     OW15655   2.887   6.341   2.554 -0.1001  0.6055  0.1332
 4639SOL    HW115656   2.847   6.292   2.626  1.4731  1.1602  1.4482
 4639SOL    HW215657   2.891   6.431   2.586  1.6967  0.6581 -0.1280
 4640SOL     OW15658   4.198   2.623   9.098  1.1101  0.8384 -0.9128
 4640SOL    HW115659   4.217   2.565   9.171  2.6071 -0.8917 -2.5663
 4640SOL    HW215660   4.121   2.672   9.126  1.4560  0.0602  1.6727
 4641SOL     OW15661   1.893   4.849   5.745 -0.4387 -0.1397 -0.0237
 4641SOL    HW115662   1.939   4.802   5.675  0.5670  1.0673 -0.2016
 4641SOL    HW215663   1.801   4.824   5.733 -0.2235 -0.3480 -1.4772
 4642SOL     OW15664   8.445   8.085   3.522 -0.7710 -0.5602 -0.0759
 4642SOL    HW115665   8.429   8.155   3.459 -0.9196 -0.5160  0.0097
 4642SOL    HW215666   8.485   8.015   3.471 -1.2882 -0.6939 -0.3054
 4643SOL     OW15667   2.585   7.578   2.669 -0.5718  0.2557  0.0578
 4643SOL    HW115668   2.629   7.531   2.739 -0.6839 -0.4091 -0.3115
 4643SOL    HW215669   2.521   7.633   2.713 -1.6783 -1.2459  0.4231
 4644SOL     OW15670   4.537   1.954   6.120 -0.3050  0.2924  0.2145
 4644SOL    HW115671   4.584   1.905   6.187 -1.0998 -1.1876 -0.2724
 4644SOL    HW215672   4.451   1.971   6.158  0.1468  1.9167  0.6191
 4645SOL     OW15673   0.186   0.483   2.619  0.1059 -0.0041  0.1006
 4645SOL    HW115674   0.177   0.547   2.690 -0.4304 -1.1524  1.1070
 4645SOL    HW215675   0.178   0.398   2.663 -3.5449 -0.7760 -1.7431
 4646SOL     OW15676   6.982   4.472   9.446  0.0648  0.0591  0.3669
 4646SOL    HW115677   6.897   4.454   9.485 -0.0165 -1.4725 -0.4097
 4646SOL    HW215678   7.044   4.469   9.519 -0.6487  2.6769  1.1940
 4647SOL     OW15679   2.744   8.115   1.441  0.2795 -0.3941  0.2613
 4647SOL    HW115680   2.702   8.086   1.523 -0.9473 -1.2838 -0.6478
 4647SOL    HW215681   2.671   8.144   1.386  1.2618  2.4226  0.2711
 4648SOL     OW15682   5.824   1.764   7.313  0.1479  0.2609 -0.0465
 4648SOL    HW115683   5.865   1.695   7.365  0.9926 -1.1054 -2.3457
 4648SOL    HW215684   5.773   1.815   7.376 -0.3566 -2.3236  1.8064
 4649SOL     OW15685   1.613   3.062   4.014 -0.3402  1.0233  0.3104
 4649SOL    HW115686   1.575   3.049   4.101 -0.8915  1.0496  0.0798
 4649SOL    HW215687   1.644   2.976   3.987 -1.6162  0.6778 -0.1257
 4650SOL     OW15688   4.382   8.626   6.230  0.3032 -0.1520 -0.1896
 4650SOL    HW115689   4.386   8.559   6.162 -0.4324 -1.5269  1.0782
 4650SOL    HW215690   4.470   8.627   6.268  0.2809 -0.4746 -0.1322
 4651SOL     OW15691   2.090   4.476   5.755 -0.0707 -0.3410 -0.3044
 4651SOL    HW115692   2.092   4.443   5.665  0.2245  1.5981 -1.0559
 4651SOL    HW215693   2.002   4.511   5.766  0.1997  0.3420 -0.2172
 4652SOL     OW15694   4.799   3.942   5.322 -0.4839  0.7444  0.2557
 4652SOL    HW115695   4.840   3.964   5.405 -1.3356 -1.0458  1.2132
 4652SOL    HW215696   4.750   4.020   5.297  0.9578  1.8031  0.6644
 4653SOL     OW15697   0.761   9.355   7.986  0.0854  0.4647  0.0733
 4653SOL    HW115698   0.827   9.324   7.923 -0.2629 -0.8780  0.3353
 4653SOL    HW215699   0.758   9.286   8.053 -2.5452 -0.2206 -0.6376
 4654SOL     OW15700   9.482   1.469   2.677 -0.4213  0.0316 -0.6062
 4654SOL    HW115701   9.435   1.388   2.657 -2.6298  0.8824  0.7698
 4654SOL    HW215702   9.491   1.513   2.592 -2.5338  0.0009 -0.9060
 4655SOL     OW15703   2.927   9.533   3.724  0.2562 -0.1348 -0.8744
 4655SOL    HW115704   3.008   9.511   3.769 -0.3806 -0.5369  0.1144
 4655SOL    HW215705   2.895   9.449   3.689 -0.3846 -0.2147 -0.1296
 4656SOL     OW15706   4.286   3.141   7.828 -0.1832  0.2283 -0.3902
 4656SOL    HW115707   4.302   3.053   7.794 -1.4845  0.3070 -1.2680
 4656SOL    HW215708   4.246   3.188   7.755 -1.7705  0.8351  0.8208
 4657SOL     OW15709   9.089   0.981   8.212 -0.2660  0.1980 -0.0563
 4657SOL    HW115710   9.173   1.000   8.254  0.5433 -2.2080 -0.4726
 4657SOL    HW215711   9.024   1.009   8.276  0.8405  1.3963  0.6008
 4658SOL     OW15712   2.637   2.356   4.163  0.5545  0.3808 -0.7218
 4658SOL    HW115713   2.587   2.325   4.238 -0.5508  1.0399 -1.1502
 4658SOL    HW215714   2.697   2.421   4.198 -0.3819  1.1337 -0.4698
 4659SOL     OW15715   9.100   2.817   3.429  0.1359  0.0445  0.2016
 4659SOL    HW115716   9.042   2.788   3.359 -2.2054  2.7927  0.8406
 4659SOL    HW215717   9.183   2.772   3.411 -0.8388 -0.6422 -3.3407
 4660SOL     OW15718   4.977   1.449   1.370  0.2702  0.9073  0.5045
 4660SOL    HW115719   5.050   1.395   1.339 -0.0333  0.8356 -0.0857
 4660SOL    HW215720   4.914   1.386   1.406 -0.7405  0.7110 -1.4964
 4661SOL     OW15721   8.584   3.873   2.024  0.4514 -0.7900 -0.4682
 4661SOL    HW115722   8.585   3.935   1.951  0.3436 -0.2174 -0.0014
 4661SOL    HW215723   8.492   3.872   2.052  0.5440 -0.7892 -0.1647
 4662SOL     OW15724   4.153   4.340   6.889 -0.1244  0.2609  0.0239
 4662SOL    HW115725   4.072   4.302   6.923 -0.0062  0.0796  0.1024
 4662SOL    HW215726   4.125   4.393   6.814 -0.4765  1.2215  0.8195
 4663SOL     OW15727   2.599   4.422   7.815 -0.5398  0.2097 -0.1417
 4663SOL    HW115728   2.542   4.397   7.743  0.2172 -4.4376  0.6008
 4663SOL    HW215729   2.541   4.429   7.890 -0.6650 -0.3970 -0.1770
 4664SOL     OW15730   0.018   4.602   8.203  0.3190 -0.0231  0.1466
 4664SOL    HW115731   0.008   4.509   8.182  0.4418  0.2447 -1.2011
 4664SOL    HW215732  -0.036   4.647   8.138  0.5763  0.8715  0.5371
 4665SOL     OW15733   9.151   3.214   6.949 -0.6711 -0.2382 -0.3092
 4665SOL    HW115734   9.064   3.249   6.930  0.0648  1.4296 -0.7499
 4665SOL    HW215735   9.159   3.218   7.044 -1.6017 -1.7984 -0.1234
 4666SOL     OW15736   8.607   5.811   5.491 -0.2177 -0.1026  0.3174
 4666SOL    HW115737   8.517   5.778   5.487 -0.7723  1.4362 -0.8153
 4666SOL    HW215738   8.632   5.823   5.399  1.3850 -1.0448  0.5917
 4667SOL     OW15739   2.099   7.819   3.432  0.1409 -0.6257 -0.3954
 4667SOL    HW115740   2.098   7.915   3.436 -1.6287 -0.5072 -2.0565
 4667SOL    HW215741   2.173   7.798   3.375  1.1319 -0.3483  0.7331
 4668SOL     OW15742   8.666   9.225   7.140 -0.0597 -0.4064  0.6600
 4668SOL    HW115743   8.604   9.297   7.149  0.7965  0.6701 -1.5236
 4668SOL    HW215744   8.743   9.253   7.190 -0.8423 -1.2639  2.4492
 4669SOL     OW15745   1.520   0.869   8.637 -0.3185  0.0482  0.2288
 4669SOL    HW115746   1.535   0.774   8.636 -0.3009  0.0553 -0.1781
 4669SOL    HW215747   1.557   0.897   8.721  1.7042  0.0153 -0.5774
 4670SOL     OW15748   0.274   5.156   5.643 -0.2330  0.1253  0.2883
 4670SOL    HW115749   0.184   5.123   5.643 -0.5582  0.9255 -0.9461
 4670SOL    HW215750   0.272   5.233   5.700 -0.3398  0.1466  0.2558
 4671SOL     OW15751   1.343   4.204   3.312  0.2525 -0.6832 -0.5078
 4671SOL    HW115752   1.382   4.204   3.225  1.5690 -0.1893  0.0596
 4671SOL    HW215753   1.371   4.121   3.351  1.4617  0.0273  0.1916
 4672SOL     OW15754   7.864   8.708   5.044 -0.2481 -0.3272 -0.3275
 4672SOL    HW115755   7.851   8.756   4.962 -0.8783 -0.3904 -0.2680
 4672SOL    HW215756   7.939   8.751   5.086 -0.8487  0.6444 -0.2337
 4673SOL     OW15757   5.333   4.131   3.919  0.4300 -0.4028 -0.2122
 4673SOL    HW115758   5.418   4.105   3.884  1.1115  0.2530  0.9009
 4673SOL    HW215759   5.313   4.063   3.984  0.8891  0.3069  0.6908
 4674SOL     OW15760   6.958   3.099   2.926 -0.7848 -0.0352  1.0585
 4674SOL    HW115761   7.053   3.088   2.923 -0.6748  0.9017  0.7829
 4674SOL    HW215762   6.945   3.185   2.966 -1.4292  0.8122 -0.8527
 4675SOL     OW15763   1.753   2.370   1.122 -0.4711 -0.5498  0.2308
 4675SOL    HW115764   1.792   2.415   1.197  0.4039 -1.5921  0.4217
 4675SOL    HW215765   1.747   2.437   1.054  1.5312 -0.3001  0.2410
 4676SOL     OW15766   5.965   6.907   2.527  0.1140 -0.2598 -0.0903
 4676SOL    HW115767   5.886   6.883   2.477 -0.0308  0.1343 -0.0571
 4676SOL    HW215768   6.032   6.921   2.460  0.2021 -0.7514 -0.1091
 4677SOL     OW15769   2.677   5.925   7.479 -0.7471 -0.1756 -0.1622
 4677SOL    HW115770   2.662   5.963   7.565 -1.4280 -2.8779  1.0146
 4677SOL    HW215771   2.706   5.999   7.425 -0.1622  1.5829  2.3739
 4678SOL     OW15772   2.141   2.431   7.803  0.0233  0.0352  0.5150
 4678SOL    HW115773   2.097   2.464   7.881  1.1746  0.6365  0.9301
 4678SOL    HW215774   2.191   2.355   7.833 -0.7436 -0.6793  0.0359
 4679SOL     OW15775   8.788   0.910   3.435 -0.2315  0.0096 -0.0276
 4679SOL    HW115776   8.752   0.870   3.514  2.4965 -0.9250  0.8646
 4679SOL    HW215777   8.777   0.844   3.367 -1.6759  0.4230 -0.2302
 4680SOL     OW15778   3.499   9.067   6.864  0.5270 -0.2099 -0.0256
 4680SOL    HW115779   3.562   9.018   6.917  0.3492 -0.2764  0.1290
 4680SOL    HW215780   3.552   9.119   6.804  0.7366 -0.0197  0.3231
 4681SOL     OW15781   0.592   8.958   9.484  0.5417  0.5790  0.2225
 4681SOL    HW115782   0.508   8.997   9.459 -0.5529 -1.4541  0.5553
 4681SOL    HW215783   0.631   8.930   9.401  0.3723  0.5033  0.1689
 4682SOL     OW15784   1.769   2.624   5.654  0.2058  0.1239  0.1322
 4682SOL    HW115785   1.783   2.535   5.622 -0.2310  0.4822 -1.1002
 4682SOL    HW215786   1.840   2.638   5.717  0.7146 -0.8231 -0.2091
 4683SOL     OW15787   3.051   8.388   1.605 -0.1079  0.3913  0.1512
 4683SOL    HW115788   3.067   8.470   1.558 -0.9484  1.3280  1.4376
 4683SOL    HW215789   3.128   8.378   1.661  1.2104 -1.0646 -1.7801
 4684SOL     OW15790   9.256   4.612   0.959  0.2415 -0.0046  0.6195
 4684SOL    HW115791   9.298   4.622   0.874 -0.3428  0.3006  0.3652
 4684SOL    HW215792   9.251   4.702   0.994  1.1395 -0.2018  1.2997
 4685SOL     OW15793   0.822   5.961   6.464 -0.2738 -0.0358 -0.2862
 4685SOL    HW115794   0.906   5.989   6.427 -0.3201  0.0636 -0.3170
 4685SOL    HW215795   0.810   5.872   6.432  0.1902 -0.3354  0.3430
 4686SOL     OW15796   4.287   5.323   8.084  0.3191  0.0962 -0.4736
 4686SOL    HW115797   4.342   5.245   8.083 -0.4449 -0.4464 -1.1992
 4686SOL    HW215798   4.305   5.364   8.168  1.2183 -0.5072 -0.3595
 4687SOL     OW15799   6.091   8.510   1.221  0.3171  0.2055  0.4440
 4687SOL    HW115800   6.014   8.476   1.267  1.3757 -1.3929  1.1437
 4687SOL    HW215801   6.138   8.561   1.288 -0.8677  2.5595 -0.3976
 4688SOL     OW15802   1.038   3.066   6.579 -0.1311  0.4476 -0.9775
 4688SOL    HW115803   0.998   3.151   6.594  1.7504  1.6423 -2.4025
 4688SOL    HW215804   1.107   3.060   6.645 -0.4868 -0.1651 -0.6453
 4689SOL     OW15805   4.528   1.220   8.325  0.4957 -0.2815  0.0216
 4689SOL    HW115806   4.588   1.227   8.251 -0.4059  0.1439 -0.6819
 4689SOL    HW215807   4.460   1.159   8.296 -1.0780  1.5477 -0.3826
 4690SOL     OW15808   0.121   8.934   6.939  0.1449  0.0531 -0.2432
 4690SOL    HW115809   0.152   8.926   7.029  0.1643  0.9486 -0.1671
 4690SOL    HW215810   0.077   9.019   6.935 -0.4374 -0.2651 -0.9098
 4691SOL     OW15811   6.983   8.171   8.944  0.0276 -0.1137 -0.3162
 4691SOL    HW115812   7.036   8.196   8.869 -1.4871  2.5550 -0.6122
 4691SOL    HW215813   6.908   8.231   8.942 -0.5623 -0.5685  2.7693
 4692SOL     OW15814   1.147   1.776   1.657 -0.1790 -0.1831  0.6730
 4692SOL    HW115815   1.110   1.705   1.710  0.8802 -0.7463  0.6833
 4692SOL    HW215816   1.074   1.806   1.603 -1.0172 -0.2893  1.7055
 4693SOL     OW15817   5.209   6.364   2.148 -0.1928 -0.3422 -0.1075
 4693SOL    HW115818   5.128   6.392   2.191  0.0303  1.3354 -0.6876
 4693SOL    HW215819   5.265   6.334   2.220 -1.0713 -0.8954  0.3698
 4694SOL     OW15820   2.172   9.146   1.614  0.1559 -0.4056 -0.0765
 4694SOL    HW115821   2.250   9.150   1.559 -0.8155 -0.1501 -1.4803
 4694SOL    HW215822   2.120   9.074   1.578 -1.0871  0.5807 -0.3234
 4695SOL     OW15823   4.528   2.401   8.773  0.2053 -0.2413  0.3944
 4695SOL    HW115824   4.469   2.427   8.701  2.2417 -1.7877 -1.9833
 4695SOL    HW215825   4.597   2.467   8.771  1.1765 -1.2624 -0.2580
 4696SOL     OW15826   5.612   1.348   6.919 -0.6495  0.1677  0.1621
 4696SOL    HW115827   5.646   1.354   6.830 -1.0834 -2.0670 -0.1918
 4696SOL    HW215828   5.518   1.363   6.910 -0.8206 -0.8955  0.1129
 4697SOL     OW15829   5.664   5.002   1.764 -0.0769  0.1707 -0.1970
 4697SOL    HW115830   5.659   5.066   1.835 -0.9794 -0.3906  0.2680
 4697SOL    HW215831   5.587   4.946   1.777 -1.0860  0.9231 -2.4616
 4698SOL     OW15832   1.648   3.003   9.235  0.1301  0.0435  0.4307
 4698SOL    HW115833   1.740   2.982   9.218 -0.0394 -0.9834  0.7217
 4698SOL    HW215834   1.622   2.943   9.305 -0.4226  1.1833  1.2294
 4699SOL     OW15835   6.062   5.889   7.002 -0.6120  0.0261  0.8327
 4699SOL    HW115836   5.997   5.841   6.951  0.6723  0.4379 -1.2832
 4699SOL    HW215837   6.065   5.843   7.086 -2.1806 -1.2050  0.2581
 4700SOL     OW15838   5.660   0.081   6.486 -0.1836 -0.8677  0.3970
 4700SOL    HW115839   5.648   0.052   6.395  0.1181  1.9545 -0.6511
 4700SOL    HW215840   5.751   0.061   6.506  0.3912  0.3925 -0.7598
 4701SOL     OW15841   4.716   2.178   8.506  0.0239  0.2859 -0.5906
 4701SOL    HW115842   4.621   2.168   8.506  0.1077 -0.6099 -1.0605
 4701SOL    HW215843   4.747   2.117   8.439  1.1607 -1.9628  1.7748
 4702SOL     OW15844   2.197   7.252   4.418  0.1465  0.4871 -0.1237
 4702SOL    HW115845   2.265   7.261   4.486 -0.0764  1.0293  0.0325
 4702SOL    HW215846   2.225   7.176   4.367  0.1370 -0.1499  0.7861
 4703SOL     OW15847   2.633   3.229   8.684  0.2885  0.0411 -0.0164
 4703SOL    HW115848   2.677   3.204   8.765  1.8651  0.7609 -0.6052
 4703SOL    HW215849   2.542   3.201   8.696  0.8209 -1.2160  1.3831
 4704SOL     OW15850   7.256   8.654   7.868 -0.0601 -0.0705 -0.1535
 4704SOL    HW115851   7.221   8.615   7.789 -0.6644  0.0386  0.0556
 4704SOL    HW215852   7.346   8.678   7.846  1.1933 -3.6845  0.3695
 4705SOL     OW15853   8.394   7.574   5.809  0.1752  0.3207  0.2906
 4705SOL    HW115854   8.416   7.601   5.720  0.5010 -0.2568  0.1889
 4705SOL    HW215855   8.316   7.519   5.798 -0.1721  0.7730  0.4387
 4706SOL     OW15856   4.742   8.873   7.999  0.3023  0.4478  0.0191
 4706SOL    HW115857   4.715   8.854   7.909  0.6606  1.7042 -0.3848
 4706SOL    HW215858   4.827   8.916   7.990  0.5780  0.1302  0.9983
 4707SOL     OW15859   4.107   1.318   2.850  0.3919 -0.0985  0.1820
 4707SOL    HW115860   4.113   1.334   2.756 -1.5049 -2.4150 -0.4350
 4707SOL    HW215861   4.033   1.371   2.879 -0.8475 -1.5142 -0.2672
 4708SOL     OW15862   2.988   8.705   6.221  0.6334  0.4345 -0.0305
 4708SOL    HW115863   2.980   8.620   6.178 -0.3643  1.2108 -1.4586
 4708SOL    HW215864   3.004   8.684   6.313 -0.6758 -1.3033 -0.1466
 4709SOL     OW15865   7.289   6.324   9.211 -0.1727 -0.5914 -0.0314
 4709SOL    HW115866   7.371   6.372   9.194 -0.3590 -0.5340 -0.8242
 4709SOL    HW215867   7.273   6.276   9.129 -2.1313  1.1747 -0.7648
 4710SOL     OW15868   3.943   7.872   2.863 -0.1035 -0.3377  0.6672
 4710SOL    HW115869   3.973   7.813   2.932 -0.4384  0.8846  1.9077
 4710SOL    HW215870   3.869   7.826   2.823  0.1010 -1.0681  1.1115
 4711SOL     OW15871   9.375   4.176   3.336 -0.1290  0.1763  0.0349
 4711SOL    HW115872   9.437   4.237   3.297 -0.7008  0.4788 -0.4297
 4711SOL    HW215873   9.374   4.198   3.429  1.3147 -0.6114  0.2563
 4712SOL     OW15874   8.201   8.095   2.474  0.2668  0.2692 -0.2994
 4712SOL    HW115875   8.279   8.116   2.526  0.1119 -0.3499  0.1965
 4712SOL    HW215876   8.145   8.046   2.534 -0.1535  0.0042 -0.8994
 4713SOL     OW15877   8.830   2.165   7.117  0.3231 -0.2141  0.1851
 4713SOL    HW115878   8.841   2.254   7.151  2.3454 -0.2892 -0.1487
 4713SOL    HW215879   8.863   2.108   7.186  1.8245 -0.5181 -0.7457
 4714SOL     OW15880   1.031   2.190   6.074  0.2948  0.4008  0.2425
 4714SOL    HW115881   0.957   2.130   6.061 -1.3670  1.8819  2.1718
 4714SOL    HW215882   1.094   2.164   6.008 -1.4258 -1.7593 -0.7028
 4715SOL     OW15883   1.606   2.054   8.456  0.0468  0.1657 -0.2833
 4715SOL    HW115884   1.576   2.146   8.457 -0.6265 -0.0216 -1.4880
 4715SOL    HW215885   1.691   2.056   8.500  0.1808  1.4217 -0.5635
 4716SOL     OW15886   2.031   1.267   4.107 -0.0367 -0.6734  0.2851
 4716SOL    HW115887   1.945   1.226   4.091  0.1038 -0.9868  0.3182
 4716SOL    HW215888   2.073   1.209   4.170  0.5429 -1.0021 -0.3933
 4717SOL     OW15889   9.436   2.664   8.746  0.3227  0.2245  0.7300
 4717SOL    HW115890   9.397   2.738   8.697  0.5668  0.6749  1.2055
 4717SOL    HW215891   9.491   2.620   8.682  0.9585  1.0503  0.6872
 4718SOL     OW15892   0.138   2.729   8.643  0.1011  0.0371 -0.0439
 4718SOL    HW115893   0.169   2.763   8.727 -1.3247 -0.2025  0.6089
 4718SOL    HW215894   0.117   2.807   8.592 -0.3203  0.1683  0.3301
 4719SOL     OW15895   5.621   1.997   4.313  0.0880 -0.2839 -0.8579
 4719SOL    HW115896   5.679   2.067   4.343  0.5377 -0.8328 -0.4031
 4719SOL    HW215897   5.540   2.010   4.361  1.0353 -1.5770  1.2398
 4720SOL     OW15898   5.213   1.388   6.573  0.2624  0.0542 -0.0820
 4720SOL    HW115899   5.291   1.443   6.582  0.8194 -0.7380  0.0371
 4720SOL    HW215900   5.167   1.423   6.497 -0.8670  2.4327  1.5738
 4721SOL     OW15901   0.628   6.252   4.002  0.1425  0.4194  0.2122
 4721SOL    HW115902   0.533   6.259   4.004  0.1654  0.8140  0.0076
 4721SOL    HW215903   0.660   6.332   4.044  0.3810 -0.4629  1.7965
 4722SOL     OW15904   3.538   2.499   9.576 -0.3777 -0.1234  0.2422
 4722SOL    HW115905   3.605   2.511   9.509 -0.2805  0.9502  0.5099
 4722SOL    HW215906   3.456   2.489   9.527 -0.3016  0.5967 -0.0509
 4723SOL     OW15907   7.857   4.063   8.115  0.4042  0.3908  0.0700
 4723SOL    HW115908   7.873   4.012   8.194  0.2294  1.0000  0.5056
 4723SOL    HW215909   7.896   4.148   8.133 -0.2788  0.7710 -0.2090
 4724SOL     OW15910   3.545   2.229   8.840 -0.0244  0.0982  0.4620
 4724SOL    HW115911   3.557   2.153   8.897  1.3535 -0.1142 -0.0650
 4724SOL    HW215912   3.619   2.286   8.861 -0.2356  0.6204 -0.1858
 4725SOL     OW15913   3.700   7.307   8.025  0.3067 -0.2327  0.2015
 4725SOL    HW115914   3.742   7.347   7.949  0.8792  0.0140  0.6413
 4725SOL    HW215915   3.760   7.238   8.053 -0.6760 -1.4288 -0.5519
 4726SOL     OW15916   2.415   4.415   5.581 -0.6909 -0.8365 -0.0629
 4726SOL    HW115917   2.409   4.406   5.486 -0.5498 -0.8954 -0.0673
 4726SOL    HW215918   2.380   4.502   5.598 -0.8793 -0.8950 -0.1510
 4727SOL     OW15919   1.421   1.749   8.713 -0.2339 -0.4693  0.0365
 4727SOL    HW115920   1.345   1.725   8.660  0.5530 -0.9677 -0.8880
 4727SOL    HW215921   1.473   1.806   8.657 -0.2172  0.3704  0.8858
 4728SOL     OW15922   5.007   8.473   7.252  0.0523 -0.2669  0.7288
 4728SOL    HW115923   5.084   8.485   7.308  0.3436 -1.3326  0.5785
 4728SOL    HW215924   5.038   8.494   7.164 -0.4040  1.4012  0.9414
 4729SOL     OW15925   9.205   0.639   0.145 -0.2299  0.3721  0.3033
 4729SOL    HW115926   9.218   0.609   0.235 -0.7873 -0.4187  0.1285
 4729SOL    HW215927   9.236   0.567   0.091  0.7039  1.0943 -0.1619
 4730SOL     OW15928   6.978   1.012   2.599  0.1170  0.3215  0.2709
 4730SOL    HW115929   6.973   0.943   2.666  0.8396 -0.7580 -0.7526
 4730SOL    HW215930   7.061   1.057   2.618 -0.1066  0.5904  0.6273
 4731SOL     OW15931   4.597   0.487   5.643  0.2495 -0.3925  0.3711
 4731SOL    HW115932   4.513   0.530   5.626  0.0518 -1.1106 -0.5739
 4731SOL    HW215933   4.633   0.533   5.719 -1.4043 -0.6703  1.3624
 4732SOL     OW15934   9.189   8.942   3.492 -0.1558  0.7602 -0.6335
 4732SOL    HW115935   9.223   8.953   3.403 -1.3384 -1.2966 -1.4002
 4732SOL    HW215936   9.094   8.944   3.482 -0.3331  2.2814  0.8764
 4733SOL     OW15937   3.814   3.912   0.082  0.4338 -0.1249  0.6993
 4733SOL    HW115938   3.802   3.928   0.176  0.7791  0.1540  0.6961
 4733SOL    HW215939   3.875   3.839   0.078  0.2584 -0.2735  0.6906
 4734SOL     OW15940   5.081   0.393   9.504  0.2093  0.6601  0.1616
 4734SOL    HW115941   5.173   0.414   9.513  0.0262  1.7124 -0.2603
 4734SOL    HW215942   5.044   0.404   9.592  0.4243  0.5448  0.2661
 4735SOL     OW15943   0.014   5.167   1.862  0.4537 -0.0481  0.1796
 4735SOL    HW115944   0.045   5.256   1.877  1.1792 -0.6827  3.1211
 4735SOL    HW215945  -0.071   5.163   1.907  0.9095 -1.0762  0.9987
 4736SOL     OW15946   0.113   5.466   9.093  0.5333 -0.0332 -0.8815
 4736SOL    HW115947   0.030   5.485   9.048  0.0173  1.2789  0.5376
 4736SOL    HW215948   0.180   5.502   9.035 -0.0378  0.6509 -1.1381
 4737SOL     OW15949   4.530   1.834   5.247 -0.4497 -0.6691 -0.5171
 4737SOL    HW115950   4.545   1.777   5.171 -0.6918 -1.0009 -0.3155
 4737SOL    HW215951   4.437   1.825   5.266 -0.7804  0.7907 -1.2768
 4738SOL     OW15952   5.089   2.952   5.890 -0.4567 -0.0814  0.2348
 4738SOL    HW115953   5.133   2.881   5.843  1.5845 -0.4958  2.5658
 4738SOL    HW215954   5.101   3.029   5.836  0.0633 -0.9069 -0.8510
 4739SOL     OW15955   8.720   5.628   5.708  0.0776 -0.7646 -0.1628
 4739SOL    HW115956   8.701   5.661   5.620 -0.4218  0.9386  0.5388
 4739SOL    HW215957   8.636   5.599   5.742  0.1898 -0.9753 -0.0579
 4740SOL     OW15958   2.720   2.492   0.766 -0.4975 -0.1027 -0.3444
 4740SOL    HW115959   2.624   2.494   0.762 -0.4584  1.5601 -1.3226
 4740SOL    HW215960   2.744   2.572   0.811  0.4432 -0.9024  0.6348
 4741SOL     OW15961   6.188   5.459   6.566 -0.3886 -0.3815 -0.5221
 4741SOL    HW115962   6.193   5.461   6.662 -0.0907  1.5304 -0.5308
 4741SOL    HW215963   6.209   5.369   6.542  3.0516 -0.1540  1.0615
 4742SOL     OW15964   5.639   0.408   2.430  0.3869  0.3097 -0.2158
 4742SOL    HW115965   5.587   0.359   2.366  1.3557 -0.4983 -0.4142
 4742SOL    HW215966   5.575   0.459   2.479 -0.5196 -0.1460 -0.8973
 4743SOL     OW15967   7.537   3.560   0.605  0.0631 -0.2464 -0.1225
 4743SOL    HW115968   7.460   3.617   0.609 -0.6384 -1.0571 -1.4676
 4743SOL    HW215969   7.609   3.616   0.633 -0.7515  1.0255 -0.4908
 4744SOL     OW15970   6.341   0.894   8.019 -0.8883 -0.4520  0.0093
 4744SOL    HW115971   6.248   0.879   8.036 -0.9290  1.2011  1.6557
 4744SOL    HW215972   6.387   0.836   8.080 -0.9117  0.4378  0.8980
 4745SOL     OW15973   6.366   4.992   6.723  0.1030 -0.1386 -0.0806
 4745SOL    HW115974   6.454   4.954   6.727  0.4041  0.4680 -0.6178
 4745SOL    HW215975   6.360   5.028   6.634  0.2641  2.0509  0.7296
 4746SOL     OW15976   1.596   8.639   7.007  0.0351 -0.8058  0.7884
 4746SOL    HW115977   1.629   8.567   6.954 -1.9597 -0.1892 -1.4627
 4746SOL    HW215978   1.652   8.714   6.984 -1.1733 -0.4002 -0.9933
 4747SOL     OW15979   0.183   6.711   8.309  0.0043  0.5430  0.7956
 4747SOL    HW115980   0.234   6.735   8.386 -1.5688  0.1092  2.0013
 4747SOL    HW215981   0.248   6.707   8.238  1.5052  0.7943  2.1099
 4748SOL     OW15982   7.169   3.051   0.250 -0.4376 -0.4056 -0.2371
 4748SOL    HW115983   7.238   3.110   0.278 -1.4585  0.4417  0.5762
 4748SOL    HW215984   7.203   3.010   0.170  0.7224  0.4651 -0.2067
 4749SOL     OW15985   7.641   2.547   8.427  0.0492 -0.2968 -0.0769
 4749SOL    HW115986   7.632   2.484   8.355  1.9601  1.2143 -1.7815
 4749SOL    HW215987   7.673   2.627   8.384  0.4806  0.9391  2.3849
 4750SOL     OW15988   8.164   7.020   2.097 -0.3122  0.0920 -0.2200
 4750SOL    HW115989   8.196   6.965   2.026 -1.5183  0.1108 -0.8038
 4750SOL    HW215990   8.154   7.107   2.057  0.6968  0.5443  0.4530
 4751SOL     OW15991   2.916   1.835   3.276 -0.2831  0.3954 -0.5398
 4751SOL    HW115992   2.951   1.765   3.331 -2.9442  0.1937  1.0447
 4751SOL    HW215993   2.948   1.915   3.316 -0.7174  0.1877  0.2331
 4752SOL     OW15994   9.258   7.110   5.398  0.1583  0.0593 -0.3971
 4752SOL    HW115995   9.224   7.023   5.377  2.1667 -0.3329 -2.3716
 4752SOL    HW215996   9.305   7.098   5.481 -0.4698 -0.4638 -0.1073
 4753SOL     OW15997   8.774   9.363   6.905  0.4795  0.6225 -0.4234
 4753SOL    HW115998   8.735   9.286   6.946  2.5571 -0.8980 -1.1430
 4753SOL    HW215999   8.712   9.386   6.835  1.0388 -2.0789 -1.9399
 4754SOL     OW16000   9.459   7.381   2.467 -0.0183  0.6045 -0.2409
 4754SOL    HW116001   9.477   7.386   2.561 -0.9466  1.2735 -0.0927
 4754SOL    HW216002   9.522   7.442   2.427 -0.6919  1.5474  0.1076
 4755SOL     OW16003   7.451   5.827   6.035  0.5304 -0.1439 -0.2802
 4755SOL    HW116004   7.508   5.845   5.961  0.7203 -0.8189 -0.3028
 4755SOL    HW216005   7.377   5.780   5.998  0.4745 -0.2106 -0.0849
 4756SOL     OW16006   1.652   6.849   7.303  0.0473 -0.4303 -0.2628
 4756SOL    HW116007   1.591   6.818   7.236 -0.1302  0.5514 -0.5864
 4756SOL    HW216008   1.670   6.773   7.358  1.5718 -1.7423 -2.4372
 4757SOL     OW16009   6.696   1.348   3.510 -0.6883  0.9587 -0.2182
 4757SOL    HW116010   6.701   1.265   3.556 -2.3949  1.1193  0.3297
 4757SOL    HW216011   6.717   1.326   3.419  0.0163  0.1503  0.1309
 4758SOL     OW16012   3.820   2.276   0.836 -0.0492 -0.5304 -0.1480
 4758SOL    HW116013   3.803   2.291   0.929 -0.6864  1.3693 -0.5101
 4758SOL    HW216014   3.772   2.196   0.815 -2.5779  0.6713  0.5253
 4759SOL     OW16015   7.289   2.496   5.462 -0.2888 -0.6836 -0.1293
 4759SOL    HW116016   7.232   2.570   5.447  1.4781  0.6528 -0.6337
 4759SOL    HW216017   7.298   2.490   5.557 -0.1837 -0.0187 -0.0950
 4760SOL     OW16018   3.811   7.053   3.060  0.2175 -0.2983 -0.2635
 4760SOL    HW116019   3.862   7.106   2.999 -1.4694  0.2551 -1.2812
 4760SOL    HW216020   3.759   7.117   3.109  0.8608 -0.8057  1.1188
 4761SOL     OW16021   9.016   3.470   9.375 -0.0250  0.0710 -0.2672
 4761SOL    HW116022   9.060   3.502   9.454 -2.8635  0.3925  1.3664
 4761SOL    HW216023   8.976   3.387   9.403 -1.1801  0.2484 -1.3265
 4762SOL     OW16024   6.115   7.561   6.007  0.3489 -0.0070 -0.9286
 4762SOL    HW116025   6.125   7.656   5.995  2.7123 -0.2415 -1.2202
 4762SOL    HW216026   6.171   7.523   5.939 -0.4817 -1.6231 -0.7357
 4763SOL     OW16027   5.774   0.885   5.821 -0.9499 -0.5259 -0.3559
 4763SOL    HW116028   5.798   0.973   5.794  4.8229 -1.2324  1.1383
 4763SOL    HW216029   5.780   0.887   5.917  0.0050 -2.6327 -0.3203
 4764SOL     OW16030   8.987   5.333   1.032 -0.1207  0.5210 -0.0685
 4764SOL    HW116031   9.057   5.293   1.084  0.8663  0.6839 -1.2485
 4764SOL    HW216032   9.030   5.402   0.982 -0.9728  0.1209 -1.4048
 4765SOL     OW16033   7.473   1.945   8.103  0.3123  0.5340 -0.6398
 4765SOL    HW116034   7.393   1.953   8.154  0.1383  0.4933 -0.9044
 4765SOL    HW216035   7.543   1.936   8.168  0.0754  0.3255 -0.4127
 4766SOL     OW16036   6.104   2.563   8.878  0.4393 -0.0698  0.6830
 4766SOL    HW116037   6.139   2.476   8.858 -1.0585 -1.1536  2.3879
 4766SOL    HW216038   6.014   2.561   8.845 -0.0786  0.2704  1.9880
 4767SOL     OW16039   4.093   2.483   5.612 -0.7155 -0.2526  0.1607
 4767SOL    HW116040   4.104   2.396   5.574  0.7911 -0.6419  1.3763
 4767SOL    HW216041   4.178   2.503   5.651 -1.3794  1.2766  0.9151
 4768SOL     OW16042   3.438   2.956   9.531 -0.2166  0.0558  0.1573
 4768SOL    HW116043   3.397   2.973   9.446 -2.0029  1.2230  1.1979
 4768SOL    HW216044   3.415   3.031   9.585  2.6622  0.3689  1.1114
 4769SOL     OW16045   7.213   0.625   2.228 -0.2917 -0.1773  0.2459
 4769SOL    HW116046   7.144   0.566   2.259 -1.1718  0.8242  0.2433
 4769SOL    HW216047   7.275   0.629   2.301 -0.7617 -0.2753  0.6579
 4770SOL     OW16048   5.451   4.866   3.392  0.7150 -0.3638 -0.4214
 4770SOL    HW116049   5.433   4.782   3.434 -0.4587 -0.3490 -0.8512
 4770SOL    HW216050   5.415   4.931   3.453  0.2379 -0.2657 -0.8017
 4771SOL     OW16051   7.274   2.198   2.614  0.1167  0.4710 -0.2278
 4771SOL    HW116052   7.341   2.266   2.603 -1.2345  1.5823 -2.1871
 4771SOL    HW216053   7.196   2.246   2.642  0.1392 -0.8566  2.4477
 4772SOL     OW16054   3.815   4.872   6.565 -0.1682  0.3407 -0.7030
 4772SOL    HW116055   3.792   4.952   6.517 -0.7812  0.0918 -0.8376
 4772SOL    HW216056   3.731   4.830   6.582 -0.0764  0.8541  1.3528
 4773SOL     OW16057   6.010   2.955   2.233 -0.4724 -0.2130 -0.0336
 4773SOL    HW116058   6.015   2.940   2.139  0.0710  1.4976 -0.3158
 4773SOL    HW216059   5.970   3.042   2.241 -1.3412 -0.7086  1.3482
 4774SOL     OW16060   7.369   7.903   5.396 -0.4247 -0.3977  0.4011
 4774SOL    HW116061   7.288   7.940   5.431  0.8162  1.5702  1.4304
 4774SOL    HW216062   7.430   7.905   5.470  1.0361 -0.2040 -0.7545
 4775SOL     OW16063   1.361   4.074   1.731  0.2140  0.1431  0.4805
 4775SOL    HW116064   1.358   4.020   1.652 -0.2942  2.7150 -1.3483
 4775SOL    HW216065   1.284   4.048   1.781 -0.0679 -0.7425 -0.3830
 4776SOL     OW16066   7.836   2.186   8.489  0.3063  0.1493 -0.0860
 4776SOL    HW116067   7.886   2.161   8.566  0.0990  1.0760  0.3606
 4776SOL    HW216068   7.902   2.217   8.427  0.4842 -0.7019 -0.3365
 4777SOL     OW16069   4.448   7.723   4.574  0.1317 -0.1605 -0.2166
 4777SOL    HW116070   4.429   7.711   4.481 -1.3564  0.2538  0.0154
 4777SOL    HW216071   4.536   7.761   4.575 -0.9343  2.6562 -1.6537
 4778SOL     OW16072   3.283   5.509   7.963 -0.7120 -0.0554  0.4091
 4778SOL    HW116073   3.320   5.597   7.962 -0.9776  0.0667  0.9156
 4778SOL    HW216074   3.358   5.451   7.969 -0.4368  0.0651 -1.3446
 4779SOL     OW16075   2.504   4.652   8.084  0.6549 -0.3644  0.6699
 4779SOL    HW116076   2.517   4.558   8.078  1.0243 -0.2326 -1.4313
 4779SOL    HW216077   2.424   4.668   8.034  1.0408  0.4897  0.2989
 4780SOL     OW16078   3.746   8.081   6.483 -0.9418 -0.6821 -0.0047
 4780SOL    HW116079   3.780   8.040   6.403 -0.7287  1.4366 -1.0906
 4780SOL    HW216080   3.795   8.040   6.554  0.7836 -0.7893 -1.1886
 4781SOL     OW16081   3.611   0.406   5.949 -0.0755  0.1931  0.2834
 4781SOL    HW116082   3.632   0.353   6.026 -1.1161  1.9020  1.8177
 4781SOL    HW216083   3.517   0.393   5.935  0.3800 -1.3714 -1.7710
 4782SOL     OW16084   0.067   3.361   2.377  0.3377 -0.5665  0.6212
 4782SOL    HW116085   0.120   3.391   2.303  0.8135 -0.1514  1.1203
 4782SOL    HW216086  -0.018   3.340   2.338  0.4734 -0.0404  0.0082
 4783SOL     OW16087   0.676   4.746   0.960  0.1483  0.2054 -0.7274
 4783SOL    HW116088   0.711   4.825   0.921 -0.4486  1.2192  0.6762
 4783SOL    HW216089   0.750   4.706   1.006  0.3316  0.2507 -0.9873
 4784SOL     OW16090   4.689   8.240   2.692  0.5355  0.9140 -0.3232
 4784SOL    HW116091   4.597   8.212   2.698  0.2135  1.8545 -0.5882
 4784SOL    HW216092   4.688   8.329   2.728  1.3631  0.9041 -0.2714
 4785SOL     OW16093   4.038   3.133   1.700 -0.5290 -0.5392  0.0758
 4785SOL    HW116094   3.944   3.142   1.683 -0.9969 -2.3928  1.4036
 4785SOL    HW216095   4.054   3.190   1.775 -0.0111  1.7183 -1.6344
 4786SOL     OW16096   8.842   4.968   3.131 -0.4142  0.0403  0.0225
 4786SOL    HW116097   8.819   5.046   3.181  1.7931  0.4708  0.4945
 4786SOL    HW216098   8.808   4.985   3.043  1.3835  2.3629 -0.3519
 4787SOL     OW16099   3.444   1.423   8.542  0.0076 -0.4285 -0.3261
 4787SOL    HW116100   3.522   1.468   8.576 -1.4146  2.3770 -0.5457
 4787SOL    HW216101   3.388   1.413   8.619 -1.3653  1.9399 -0.9426
 4788SOL     OW16102   0.827   6.708   4.974 -0.5325  0.0340 -0.1998
 4788SOL    HW116103   0.845   6.659   4.894  0.0688  0.5499 -0.3839
 4788SOL    HW216104   0.778   6.785   4.945 -0.4572  0.1388 -0.0500
 4789SOL     OW16105   0.516   3.148   6.858  0.4210  0.1129 -0.1855
 4789SOL    HW116106   0.457   3.081   6.823 -0.1213  1.5775 -2.2206
 4789SOL    HW216107   0.503   3.143   6.953 -0.1921 -2.0768 -0.3175
 4790SOL     OW16108   5.924   0.983   1.299 -0.7100  0.4470  0.2491
 4790SOL    HW116109   5.916   0.936   1.216 -1.5960  0.5940  0.2406
 4790SOL    HW216110   5.952   0.916   1.362 -2.8810 -0.3546  0.4372
 4791SOL     OW16111   8.590   7.436   3.625 -0.2916  0.4212  0.4819
 4791SOL    HW116112   8.516   7.497   3.623  0.1301  0.9298  0.1369
 4791SOL    HW216113   8.661   7.483   3.581 -0.1812 -0.6024 -0.4850
 4792SOL     OW16114   2.661   4.203   6.266 -0.5074 -0.4836  0.3722
 4792SOL    HW116115   2.639   4.262   6.338 -0.2060 -1.4565  1.2889
 4792SOL    HW216116   2.753   4.223   6.246 -0.6504 -0.0748  0.1193
 4793SOL     OW16117   1.825   7.131   7.854 -0.5929 -0.1745 -0.3295
 4793SOL    HW116118   1.743   7.179   7.860 -0.0829  0.4630  3.1637
 4793SOL    HW216119   1.870   7.170   7.779 -2.6440  0.6949 -1.1862
 4794SOL     OW16120   2.571   2.381   7.063  0.3016  0.5204  0.2347
 4794SOL    HW116121   2.517   2.430   7.001 -0.8341  0.4821  1.1668
 4794SOL    HW216122   2.577   2.293   7.023 -1.7528  0.0220  0.8794
 4795SOL     OW16123   4.892   9.434   5.381  0.4378  0.0972 -0.6419
 4795SOL    HW116124   4.855   9.345   5.381 -0.2031  0.3375 -1.6705
 4795SOL    HW216125   4.986   9.421   5.386  0.3314 -0.6396 -0.4567
 4796SOL     OW16126   4.711   5.277   8.651  0.4225 -0.6604 -0.2058
 4796SOL    HW116127   4.703   5.239   8.739 -0.6036 -0.8866 -0.3843
 4796SOL    HW216128   4.798   5.252   8.622 -0.1931 -2.8434 -0.3030
 4797SOL     OW16129   0.650   8.350   9.605 -0.1598 -0.5013  0.0116
 4797SOL    HW116130   0.712   8.334   9.676  3.1324 -0.6471 -2.6258
 4797SOL    HW216131   0.647   8.445   9.596  0.0395 -0.5031 -0.0955
 4798SOL     OW16132   8.373   1.889   1.308 -1.0878 -0.0977 -0.0181
 4798SOL    HW116133   8.370   1.885   1.212 -0.3985 -0.1019 -0.0446
 4798SOL    HW216134   8.382   1.798   1.335  0.5818  0.0417 -0.0350
 4799SOL     OW16135   7.161   2.533   1.243  0.3184 -0.1335  0.3218
 4799SOL    HW116136   7.188   2.569   1.158  1.1931 -0.4618  0.4491
 4799SOL    HW216137   7.163   2.609   1.302  2.8633 -0.4236  0.7532
 4800SOL     OW16138   3.476   6.186   2.131  0.0530 -0.2714 -0.5433
 4800SOL    HW116139   3.479   6.267   2.182 -0.3626  0.0527 -1.0184
 4800SOL    HW216140   3.386   6.156   2.138  0.0246 -0.2983 -0.9639
 4801SOL     OW16141   2.660   0.830   4.963  0.5149 -0.1923  0.7104
 4801SOL    HW116142   2.584   0.874   4.924  0.1412  0.3446  1.9939
 4801SOL    HW216143   2.713   0.902   4.997  1.6706 -0.5593 -0.2722
 4802SOL     OW16144   9.207   2.012   6.456 -0.1956 -0.4966 -0.1038
 4802SOL    HW116145   9.224   2.021   6.550 -1.3397  0.5703  0.0324
 4802SOL    HW216146   9.293   2.018   6.416  0.2378 -0.1099  0.8317
 4803SOL     OW16147   2.378   7.800   1.129 -0.3875 -0.3485 -0.2962
 4803SOL    HW116148   2.438   7.869   1.100  0.6778  0.5385  3.4457
 4803SOL    HW216149   2.320   7.843   1.191  0.0081 -2.6654  1.8407
 4804SOL     OW16150   7.957   3.304   6.630 -0.0506 -0.0331 -0.1996
 4804SOL    HW116151   7.958   3.366   6.557  0.5961  0.4083  0.1736
 4804SOL    HW216152   7.968   3.218   6.588 -1.2916  0.0519 -0.7482
 4805SOL     OW16153   7.795   0.204   2.071 -0.2464  0.3800  0.1111
 4805SOL    HW116154   7.764   0.205   1.981 -1.3774 -1.0725  0.4459
 4805SOL    HW216155   7.783   0.294   2.101  2.3811  1.5041 -1.8434
 4806SOL     OW16156   2.284   4.282   4.504  0.4591  0.4428 -0.1389
 4806SOL    HW116157   2.198   4.271   4.463  0.0503  0.3237  0.7198
 4806SOL    HW216158   2.314   4.367   4.474  0.3494  0.1961 -0.9838
 4807SOL     OW16159   8.547   0.230   1.844 -0.4072  0.1093  0.2537
 4807SOL    HW116160   8.548   0.215   1.939 -0.9861 -1.8116  0.0118
 4807SOL    HW216161   8.465   0.189   1.815 -0.3029  0.7925 -1.0632
 4808SOL     OW16162   4.674   0.693   2.013 -0.1841  0.2773  0.4942
 4808SOL    HW116163   4.619   0.768   1.991 -0.4196 -0.5127 -1.9183
 4808SOL    HW216164   4.638   0.621   1.962  1.9644 -0.7175  0.2647
 4809SOL     OW16165   9.530   1.984   2.185 -0.1098  0.0462 -0.1864
 4809SOL    HW116166   9.503   1.992   2.277 -0.2715  1.1574 -0.3216
 4809SOL    HW216167   9.547   2.074   2.157  1.0764 -0.3832 -0.9114
 4810SOL     OW16168   6.125   4.041   6.729 -0.4947 -0.5906 -0.4538
 4810SOL    HW116169   6.214   4.037   6.695 -0.4313  0.3894 -0.4289
 4810SOL    HW216170   6.124   4.119   6.785 -0.8334 -1.6572  1.1134
 4811SOL     OW16171   8.098   1.161   3.405  0.1471  0.0772 -0.3528
 4811SOL    HW116172   8.180   1.118   3.384 -0.3993 -1.2330  0.0895
 4811SOL    HW216173   8.088   1.229   3.338  1.1926 -0.2755 -0.8808
 4812SOL     OW16174   7.926   4.070   4.328  0.1169 -0.3460  0.0557
 4812SOL    HW116175   8.012   4.049   4.291  0.5820 -0.1078  0.9468
 4812SOL    HW216176   7.932   4.041   4.419 -0.7634 -0.3501  0.1188
 4813SOL     OW16177   5.472   0.552   1.574  0.2948  0.2043 -0.6871
 4813SOL    HW116178   5.493   0.494   1.501  2.6895  1.0158 -0.7301
 4813SOL    HW216179   5.525   0.630   1.560  0.5424  0.5597  1.6848
 4814SOL     OW16180   8.863   5.045   3.754 -0.0599 -0.1826 -0.2834
 4814SOL    HW116181   8.894   5.136   3.753  0.5704 -0.3911 -0.2945
 4814SOL    HW216182   8.792   5.044   3.690 -0.8431  0.5549  0.5417
 4815SOL     OW16183   4.000   4.315   5.044  0.4645 -0.6405 -0.1963
 4815SOL    HW116184   3.960   4.230   5.023 -1.1838  0.0413  0.0517
 4815SOL    HW216185   3.929   4.367   5.082  1.0587  1.3707 -1.6836
 4816SOL     OW16186   3.857   6.474   8.518  0.2356  0.4768  0.6252
 4816SOL    HW116187   3.858   6.498   8.425 -1.1159 -1.1306  0.1458
 4816SOL    HW216188   3.764   6.469   8.540  0.4953 -1.4147  1.4361
 4817SOL     OW16189   0.923   7.451   4.543  0.0915 -0.2346  0.6048
 4817SOL    HW116190   0.864   7.472   4.470  0.9245 -0.1196 -0.0502
 4817SOL    HW216191   0.982   7.527   4.548  1.1632 -1.0235  0.2358
 4818SOL     OW16192   4.838   2.208   4.611  0.0675  0.0306  0.8946
 4818SOL    HW116193   4.775   2.246   4.550  0.2666  0.8177  1.1740
 4818SOL    HW216194   4.903   2.165   4.556  0.2627  0.7631  0.5570
 4819SOL     OW16195   6.840   0.113   9.195  0.1773 -0.0070  0.6088
 4819SOL    HW116196   6.892   0.033   9.189  0.6308  0.3769 -1.3079
 4819SOL    HW216197   6.785   0.111   9.117  1.0820  2.1199 -0.1615
 4820SOL     OW16198   8.708   4.164   5.359  0.2806  0.1524 -0.3114
 4820SOL    HW116199   8.803   4.173   5.353  0.3673 -0.2466  0.2846
 4820SOL    HW216200   8.689   4.168   5.453 -0.4745  1.8335 -0.4928
 4821SOL     OW16201   3.306   5.073   0.489  0.6798  0.4083  0.1208
 4821SOL    HW116202   3.279   4.981   0.490  0.2381  0.5250 -0.7597
 4821SOL    HW216203   3.255   5.113   0.560 -1.6240  0.6423 -1.5360
 4822SOL     OW16204   3.528   2.055   5.219  0.2095  0.7756  0.1617
 4822SOL    HW116205   3.493   2.007   5.294 -2.0124  0.1791 -1.1490
 4822SOL    HW216206   3.511   2.147   5.239  1.2613  0.7727  1.1395
 4823SOL     OW16207   0.470   6.821   4.969  0.3194 -0.0959  0.3786
 4823SOL    HW116208   0.425   6.753   5.019  2.5621 -0.5892  1.8534
 4823SOL    HW216209   0.524   6.867   5.033 -0.8233  2.9140 -0.6333
 4824SOL     OW16210   2.778   5.075   6.950  0.3704 -0.1542  0.8665
 4824SOL    HW116211   2.704   5.032   6.993 -0.1148  0.1709  0.3722
 4824SOL    HW216212   2.789   5.157   6.998 -0.3350  0.3274  0.2382
 4825SOL     OW16213   5.177   0.203   4.300 -0.1388  0.1445  0.0122
 4825SOL    HW116214   5.127   0.149   4.239 -1.0483 -0.6908  1.4470
 4825SOL    HW216215   5.265   0.166   4.299 -0.2882 -0.2006 -0.3683
 4826SOL     OW16216   7.703   0.886   3.623 -0.2828  0.7382 -0.0422
 4826SOL    HW116217   7.728   0.880   3.531 -0.2560  0.4924 -0.0185
 4826SOL    HW216218   7.657   0.970   3.629  0.3472  1.0969 -0.1261
 4827SOL     OW16219   2.108   0.403   1.732  0.4590  0.5704 -0.3024
 4827SOL    HW116220   2.176   0.350   1.772 -0.7970  0.2190  1.4899
 4827SOL    HW216221   2.132   0.493   1.754  1.0093  0.5559 -0.8045
 4828SOL     OW16222   5.799   5.177   0.197 -0.2216 -1.1548  0.5427
 4828SOL    HW116223   5.842   5.114   0.140  0.6101 -1.2694  1.2763
 4828SOL    HW216224   5.857   5.185   0.273 -0.7537 -0.1710  0.8685
 4829SOL     OW16225   8.679   6.036   8.554  0.3146  0.3838  0.3540
 4829SOL    HW116226   8.698   5.953   8.599  0.6401  1.5382  2.4534
 4829SOL    HW216227   8.584   6.043   8.556  0.2973  0.1619  0.3433
 4830SOL     OW16228   1.900   5.101   9.528 -0.7280  0.5508  0.1565
 4830SOL    HW116229   1.818   5.145   9.506 -1.2112 -0.0964  0.6375
 4830SOL    HW216230   1.948   5.166   9.580 -0.2941  1.4660 -1.3218
 4831SOL     OW16231   3.393   2.582   0.939 -0.1054 -0.2673  0.1184
 4831SOL    HW116232   3.366   2.519   1.006  1.6702 -0.5106  0.6510
 4831SOL    HW216233   3.423   2.658   0.989  0.4953 -0.1432 -0.4264
 4832SOL     OW16234   4.782   8.521   1.650  0.2391  0.5561  0.0148
 4832SOL    HW116235   4.698   8.527   1.695 -0.6661 -1.5608 -1.2777
 4832SOL    HW216236   4.761   8.532   1.557  1.6240  1.5745 -0.2085
 4833SOL     OW16237   4.244   7.390   8.986  0.1039 -0.4462  0.4164
 4833SOL    HW116238   4.177   7.341   9.033  0.4790  0.0809  1.5410
 4833SOL    HW216239   4.248   7.475   9.032 -0.5176  0.6576 -1.4541
 4834SOL     OW16240   7.712   9.055   6.607  0.1055  0.5272  0.0754
 4834SOL    HW116241   7.740   8.992   6.675  1.7583 -0.1598 -1.1670
 4834SOL    HW216242   7.784   9.117   6.601 -0.3035  0.9452 -0.6120
 4835SOL     OW16243   7.272   7.604   4.745  0.2088  0.6297  0.3703
 4835SOL    HW116244   7.348   7.662   4.755  0.8625 -0.3447  1.2660
 4835SOL    HW216245   7.306   7.517   4.764 -1.1092  0.1559  0.6372
 4836SOL     OW16246   5.338   2.768   4.020  0.4887 -0.8210 -0.1265
 4836SOL    HW116247   5.320   2.844   4.075  0.7310 -0.8792  0.0307
 4836SOL    HW216248   5.272   2.774   3.950 -0.0839 -0.9767  0.3869
 4837SOL     OW16249   3.395   5.257   9.493  0.5244  0.1764 -0.2496
 4837SOL    HW116250   3.371   5.218   9.577 -2.1515  3.4890  0.7626
 4837SOL    HW216251   3.373   5.190   9.428 -1.3045 -0.9948  1.4697
 4838SOL     OW16252   3.153   4.104   9.259 -0.4650  0.0178  0.5342
 4838SOL    HW116253   3.189   4.027   9.215  2.0581  1.5384 -0.2895
 4838SOL    HW216254   3.082   4.133   9.201 -1.6002 -1.7077  0.9587
 4839SOL     OW16255   6.338   7.042   6.875  0.2110  0.3678  0.4678
 4839SOL    HW116256   6.398   7.029   6.801 -1.2143 -4.5821 -0.1818
 4839SOL    HW216257   6.284   7.116   6.849  3.1117  2.1880 -0.9090
 4840SOL     OW16258   4.080   1.090   6.655  0.3634 -0.2015 -0.8675
 4840SOL    HW116259   4.117   1.170   6.692 -0.3682  0.2989 -1.1728
 4840SOL    HW216260   4.125   1.019   6.701 -0.0039  0.3892  0.4763
 4841SOL     OW16261   8.807   2.334   9.577  0.4033  0.2453 -0.7370
 4841SOL    HW116262   8.766   2.390   9.510 -0.5606  0.4735  0.0160
 4841SOL    HW216263   8.864   2.393   9.626  0.1838  0.3527 -0.6050
 4842SOL     OW16264   7.985   6.922   4.122 -0.5486  0.2912 -0.0530
 4842SOL    HW116265   8.062   6.979   4.119 -1.4021  1.4352 -0.8522
 4842SOL    HW216266   7.949   6.936   4.210 -0.1488  0.1607  0.1339
 4843SOL     OW16267   8.623   3.628   4.271 -0.2179  0.7302 -0.3494
 4843SOL    HW116268   8.663   3.711   4.299  0.0707  0.9569 -1.4095
 4843SOL    HW216269   8.693   3.582   4.225 -0.3266 -0.1960  0.3732
 4844SOL     OW16270   3.451   1.640   1.311 -0.3598  0.0204 -0.3293
 4844SOL    HW116271   3.425   1.549   1.322 -1.6358 -0.0598 -3.0262
 4844SOL    HW216272   3.483   1.645   1.221  1.0178  1.9634  0.1942
 4845SOL     OW16273   5.647   4.174   8.214  0.0270 -0.4835 -0.9561
 4845SOL    HW116274   5.661   4.196   8.306 -2.2703 -1.4253 -0.3103
 4845SOL    HW216275   5.612   4.254   8.176 -0.4513 -0.5320 -0.6298
 4846SOL     OW16276   8.470   0.681   3.432 -0.5698  0.3850  0.0490
 4846SOL    HW116277   8.394   0.623   3.446 -0.4242  0.2663  0.3574
 4846SOL    HW216278   8.546   0.626   3.449 -0.3759  0.2282 -1.2541
 4847SOL     OW16279   8.254   5.954   0.329  0.2821 -0.8710 -0.6059
 4847SOL    HW116280   8.277   5.943   0.237  0.1785 -0.4634 -0.6835
 4847SOL    HW216281   8.240   6.048   0.339 -2.1114 -1.1583 -0.7416
 4848SOL     OW16282   3.428   7.306   7.992 -0.0778 -0.4465  0.3204
 4848SOL    HW116283   3.387   7.323   8.078 -0.0749  0.5751  0.1393
 4848SOL    HW216284   3.522   7.318   8.008  0.1095 -2.1158  0.5820
 4849SOL     OW16285   8.218   7.325   0.844 -0.0901  0.0278 -0.0381
 4849SOL    HW116286   8.138   7.272   0.851  0.6565 -1.0703  0.5014
 4849SOL    HW216287   8.196   7.393   0.780 -1.6815  0.1736  0.6075
 4850SOL     OW16288   8.642   3.439   7.823 -0.0712  0.0988  0.1670
 4850SOL    HW116289   8.613   3.524   7.856  0.4895  0.0797  0.7076
 4850SOL    HW216290   8.629   3.379   7.896  1.8096  0.1835  0.6181
 4851SOL     OW16291   9.453   8.497   0.144 -0.2195  0.0669 -0.2047
 4851SOL    HW116292   9.457   8.537   0.057  0.4597 -0.0400 -0.2258
 4851SOL    HW216293   9.398   8.557   0.195  0.2045  0.6546 -0.4298
 4852SOL     OW16294   9.060   0.324   6.879  0.0792 -0.0284 -0.2008
 4852SOL    HW116295   8.993   0.262   6.853 -0.9798  1.0209 -0.0432
 4852SOL    HW216296   9.060   0.390   6.810  1.0220 -0.0536 -0.2472
 4853SOL     OW16297   0.354   5.958   7.713  0.1572 -0.2686 -0.2504
 4853SOL    HW116298   0.259   5.965   7.706  0.1989 -0.3505 -0.8861
 4853SOL    HW216299   0.388   6.040   7.677  0.2963  0.2845  1.0700
 4854SOL     OW16300   8.124   2.076   0.855 -0.0922  0.0032  0.3058
 4854SOL    HW116301   8.046   2.033   0.820 -1.4838  3.2380 -0.9284
 4854SOL    HW216302   8.195   2.046   0.798 -0.6844 -1.6333  0.3603
 4855SOL     OW16303   3.993   3.113   5.148  0.2142  0.5701 -0.3439
 4855SOL    HW116304   3.985   3.018   5.157  2.5271  0.2905 -0.6264
 4855SOL    HW216305   3.968   3.130   5.057 -2.2398  0.5570  0.2718
 4856SOL     OW16306   1.798   1.422   4.816  0.5638 -0.0052 -0.2300
 4856SOL    HW116307   1.882   1.408   4.860  1.1858  0.2298 -1.3059
 4856SOL    HW216308   1.805   1.510   4.779 -0.5667  0.4223  0.5329
 4857SOL     OW16309   0.969   8.428   4.797 -0.0527 -0.6061  0.0608
 4857SOL    HW116310   0.910   8.355   4.820  0.9215 -1.2014  0.7459
 4857SOL    HW216311   1.019   8.396   4.722  1.4264 -1.2652  1.2767
 4858SOL     OW16312   7.848   2.473   0.386 -0.0421  0.5297  0.1874
 4858SOL    HW116313   7.827   2.441   0.474 -0.8941  1.3300  0.2952
 4858SOL    HW216314   7.851   2.395   0.331 -0.5488  0.1224  0.7303
 4859SOL     OW16315   7.275   0.895   4.172 -0.2977  0.3941  0.3672
 4859SOL    HW116316   7.263   0.807   4.136  0.1639  0.7011 -0.5541
 4859SOL    HW216317   7.193   0.912   4.220 -1.3628  0.3479 -1.3368
 4860SOL     OW16318   7.524   1.088   4.662  0.2812  0.0567 -0.0823
 4860SOL    HW116319   7.476   1.009   4.689  0.5809 -0.1284 -0.0894
 4860SOL    HW216320   7.494   1.104   4.572  1.8540 -1.3401 -0.9134
 4861SOL     OW16321   0.260   5.516   7.799  0.4007  0.2483 -0.0496
 4861SOL    HW116322   0.234   5.584   7.861 -0.0405 -0.7298  0.8634
 4861SOL    HW216323   0.355   5.509   7.809  0.2128 -0.6770  1.3717
 4862SOL     OW16324   4.416   8.886   7.785  0.0626  0.5122  0.1074
 4862SOL    HW116325   4.465   8.816   7.828 -1.3211 -0.3680  0.3019
 4862SOL    HW216326   4.400   8.854   7.696 -1.3554  0.1658  0.4717
 4863SOL     OW16327   9.214   2.015   4.313  0.4078 -0.1996 -0.0785
 4863SOL    HW116328   9.133   1.964   4.318 -1.1231  2.1918  2.5540
 4863SOL    HW216329   9.214   2.051   4.224 -1.6833  0.0689 -0.0232
 4864SOL     OW16330   8.910   8.672   6.404  0.3497 -0.1690  0.1713
 4864SOL    HW116331   8.940   8.593   6.449 -1.1811  0.0061  1.6271
 4864SOL    HW216332   8.823   8.689   6.442  0.2516  1.6846 -0.7810
 4865SOL     OW16333   7.641   8.841   3.162  0.1348  0.1298 -0.2843
 4865SOL    HW116334   7.580   8.770   3.177  0.6991 -0.2221  0.4251
 4865SOL    HW216335   7.603   8.892   3.091 -1.3903  0.4009  0.6913
 4866SOL     OW16336   7.100   7.593   2.878  0.7192 -0.2331 -0.0011
 4866SOL    HW116337   7.063   7.655   2.815 -0.0158  0.1718  0.8110
 4866SOL    HW216338   7.161   7.644   2.930  0.6981 -0.3710  0.1617
 4867SOL     OW16339   3.124   9.422   2.621 -0.2491  0.4310  0.4912
 4867SOL    HW116340   3.191   9.358   2.597  0.3670  1.3801 -0.4258
 4867SOL    HW216341   3.092   9.393   2.706 -1.2307 -2.0704 -0.6425
 4868SOL     OW16342   8.113   0.609   8.955  0.3316  0.0808  0.6543
 4868SOL    HW116343   8.111   0.606   8.859 -0.6252 -1.4530  0.6899
 4868SOL    HW216344   8.196   0.652   8.976 -0.1317  1.8607 -0.8527
 4869SOL     OW16345   7.210   4.180   1.034 -0.4799 -0.2764  0.3232
 4869SOL    HW116346   7.303   4.163   1.018 -0.4478 -1.2626  1.3743
 4869SOL    HW216347   7.168   4.166   0.949  0.3747  0.6391 -0.2684
 4870SOL     OW16348   6.272   7.863   5.092  0.4900 -0.5018 -0.2318
 4870SOL    HW116349   6.301   7.774   5.111  1.4242 -0.5860 -1.8598
 4870SOL    HW216350   6.177   7.860   5.102  0.5557 -1.5615  0.1614
 4871SOL     OW16351   4.936   1.059   3.386  0.2844 -0.4415  0.1522
 4871SOL    HW116352   4.897   1.142   3.357 -0.0950 -0.1134  1.5339
 4871SOL    HW216353   5.002   1.039   3.319 -1.1792 -0.2248 -1.4403
 4872SOL     OW16354   5.614   4.127   6.780  0.2755 -0.2583  0.4662
 4872SOL    HW116355   5.535   4.095   6.737 -0.8021  0.0005  2.1893
 4872SOL    HW216356   5.680   4.126   6.711 -0.6216 -2.6807 -0.4579
 4873SOL     OW16357   7.415   8.172   4.123  0.0802 -0.0386 -0.3688
 4873SOL    HW116358   7.506   8.144   4.109 -0.0034 -0.5682  0.1125
 4873SOL    HW216359   7.376   8.169   4.035  0.3916 -0.2991 -0.5019
 4874SOL     OW16360   9.174   1.287   5.041  0.0998 -0.2356  0.0022
 4874SOL    HW116361   9.087   1.316   5.068  0.2254  2.9002 -2.3635
 4874SOL    HW216362   9.233   1.321   5.108 -0.2943 -0.6720  0.5842
 4875SOL     OW16363   8.815   5.847   2.329 -0.3631 -0.1986 -0.0869
 4875SOL    HW116364   8.893   5.823   2.277 -0.1206 -0.4051  0.3641
 4875SOL    HW216365   8.844   5.837   2.420  0.1023  2.8100  0.2033
 4876SOL     OW16366   4.639   2.213   2.581 -0.9434  0.5751 -0.6281
 4876SOL    HW116367   4.721   2.231   2.535 -0.5307 -0.0077 -0.1495
 4876SOL    HW216368   4.571   2.230   2.517 -0.3822 -0.2035 -1.4555
 4877SOL     OW16369   9.144   4.902   5.207  0.0399  0.0453 -0.6725
 4877SOL    HW116370   9.171   4.812   5.188  1.3127 -0.2091  2.0123
 4877SOL    HW216371   9.073   4.918   5.144  0.1597 -2.5972 -1.6359
 4878SOL     OW16372   9.574   8.499   3.159  0.2392  0.4148  0.1379
 4878SOL    HW116373   9.666   8.475   3.149  0.8705  2.3852  0.7970
 4878SOL    HW216374   9.572   8.593   3.144 -1.4851  0.6097  1.2884
 4879SOL     OW16375   4.356   6.415   7.019  0.5483 -0.4107  0.5407
 4879SOL    HW116376   4.265   6.444   7.010  0.7537 -0.5188 -3.0918
 4879SOL    HW216377   4.353   6.320   7.006  1.1712 -0.4800  0.8353
 4880SOL     OW16378   5.374   7.490   6.245  0.6567  0.3074  0.8740
 4880SOL    HW116379   5.378   7.398   6.272  1.2303  0.4663  1.3542
 4880SOL    HW216380   5.445   7.500   6.183  0.2219  0.2884  0.3654
 4881SOL     OW16381   1.622   6.804   2.531  0.3694 -0.2032 -0.3044
 4881SOL    HW116382   1.702   6.798   2.584  0.2343  1.8000  0.2386
 4881SOL    HW216383   1.551   6.784   2.592  0.4150 -1.7424 -0.7274
 4882SOL     OW16384   7.090   7.574   4.521 -0.0482 -0.5415 -0.6743
 4882SOL    HW116385   7.098   7.637   4.449 -0.4976 -0.1212 -0.3605
 4882SOL    HW216386   7.168   7.589   4.575 -0.5603  0.3011 -0.1649
 4883SOL     OW16387   1.310   8.857   1.428 -0.4881  0.5273 -0.4181
 4883SOL    HW116388   1.248   8.906   1.375 -2.5859  1.7910  2.8999
 4883SOL    HW216389   1.374   8.923   1.457 -0.9302  0.4527  0.7543
 4884SOL     OW16390   5.890   4.914   6.708  0.0183  0.3843  0.4983
 4884SOL    HW116391   5.805   4.955   6.694 -0.0688  0.7127  1.8173
 4884SOL    HW216392   5.870   4.834   6.757  0.3574 -0.2539 -0.3924
 4885SOL     OW16393   8.540   5.942   7.894 -0.4575  0.0842  0.3720
 4885SOL    HW116394   8.451   5.976   7.890 -0.1861  0.9231  1.0096
 4885SOL    HW216395   8.574   5.973   7.979 -0.0160 -1.3857  0.7690
 4886SOL     OW16396   6.196   5.604   5.208  0.1884  0.3782 -0.5137
 4886SOL    HW116397   6.195   5.519   5.163  1.4258  0.1423 -0.1436
 4886SOL    HW216398   6.107   5.638   5.198 -0.2654 -0.8614 -0.8649
 4887SOL     OW16399   7.040   6.425   4.445  0.2864  0.2359  0.1768
 4887SOL    HW116400   7.026   6.519   4.434 -0.1146  0.1857  0.2507
 4887SOL    HW216401   7.120   6.407   4.395  1.6358  0.9981  1.9389
 4888SOL     OW16402   2.658   8.792   8.779  0.4970  0.3963 -0.0244
 4888SOL    HW116403   2.618   8.751   8.856  0.2688  0.6004 -0.0339
 4888SOL    HW216404   2.656   8.724   8.712  2.3704 -0.4248  0.6661
 4889SOL     OW16405   8.545   8.424   0.739  0.4689 -0.0478  0.2814
 4889SOL    HW116406   8.626   8.464   0.708  0.8449 -1.2963 -0.4132
 4889SOL    HW216407   8.505   8.490   0.796  2.1073  0.4809  0.8482
 4890SOL     OW16408   0.714   4.843   2.161  0.2248 -0.3333  0.2814
 4890SOL    HW116409   0.668   4.893   2.228  0.3993  1.6611 -0.9838
 4890SOL    HW216410   0.761   4.775   2.209 -0.5381  0.3210  2.0326
 4891SOL     OW16411   5.559   4.088   3.753 -0.1683 -0.1133 -0.6496
 4891SOL    HW116412   5.609   4.148   3.697  0.5260 -0.2767 -0.2229
 4891SOL    HW216413   5.622   4.020   3.775 -0.2378  0.2763  0.8359
 4892SOL     OW16414   1.051   0.771   0.756 -0.6599  0.5639  0.5181
 4892SOL    HW116415   1.127   0.783   0.813  0.3185  0.2656 -0.7040
 4892SOL    HW216416   1.085   0.780   0.667 -1.9363 -0.1702 -0.0730
 4893SOL     OW16417   2.976   2.917   6.537 -0.6012  0.0134 -0.4655
 4893SOL    HW116418   2.934   2.833   6.554  3.2621 -1.6189  2.7192
 4893SOL    HW216419   2.939   2.976   6.602  0.6544 -0.9498  1.2061
 4894SOL     OW16420   6.038   7.256   2.872 -0.1624 -0.1733 -0.4964
 4894SOL    HW116421   6.036   7.241   2.778 -1.7167 -1.4840 -0.2905
 4894SOL    HW216422   5.983   7.187   2.909 -1.2398  1.4932  1.2049
 4895SOL     OW16423   5.320   4.479   9.334 -0.2500 -0.4528 -0.3509
 4895SOL    HW116424   5.352   4.569   9.329  0.5802 -0.7707 -0.9363
 4895SOL    HW216425   5.226   4.486   9.316 -0.3247  0.3667  0.3112
 4896SOL     OW16426   0.155   5.480   6.248  0.0783 -0.3545  0.3179
 4896SOL    HW116427   0.200   5.423   6.311  1.9856 -0.5124 -1.1209
 4896SOL    HW216428   0.224   5.515   6.193 -0.9105  3.9268  1.4453
 4897SOL     OW16429   4.195   3.144   3.456 -0.0381 -0.5444  0.1375
 4897SOL    HW116430   4.120   3.176   3.408 -0.4089 -0.1899  0.9303
 4897SOL    HW216431   4.171   3.055   3.482  0.1630 -0.7364 -0.3311
 4898SOL     OW16432   0.292   6.190   2.879  0.2483 -0.0357  0.6383
 4898SOL    HW116433   0.330   6.262   2.828  0.6953 -0.1619  0.7932
 4898SOL    HW216434   0.341   6.191   2.961 -0.1505 -0.1371  0.8784
 4899SOL     OW16435   1.959   7.088   6.740  0.5285 -0.2489 -0.2948
 4899SOL    HW116436   1.974   7.039   6.820  0.6670 -0.9773 -0.7639
 4899SOL    HW216437   2.026   7.058   6.680  0.9095  0.8544 -0.4445
 4900SOL     OW16438   1.792   6.186   1.663 -0.1636 -0.2574 -0.5017
 4900SOL    HW116439   1.763   6.105   1.620 -0.4000 -1.6103  2.0179
 4900SOL    HW216440   1.887   6.185   1.654 -0.2112 -0.4483 -1.0657
 4901SOL     OW16441   9.067   5.517   4.582  0.0253  0.1043  0.2459
 4901SOL    HW116442   9.116   5.435   4.583  0.0893  0.1479  1.1113
 4901SOL    HW216443   9.099   5.566   4.658 -0.7047  0.5196  0.2965
 4902SOL     OW16444   6.756   3.360   1.352 -0.6334 -0.2939 -0.1361
 4902SOL    HW116445   6.791   3.449   1.343  0.7686 -0.6856  1.0846
 4902SOL    HW216446   6.661   3.373   1.356 -0.5871  0.9392 -1.9902
 4903SOL     OW16447   4.047   9.040   1.630 -0.2588 -0.5324 -0.5024
 4903SOL    HW116448   4.143   9.044   1.626 -0.2055 -1.8075 -1.1921
 4903SOL    HW216449   4.022   9.114   1.685  1.1004  0.0402 -0.6108
 4904SOL     OW16450   5.789   1.841   8.237  0.5183  0.4837 -0.4345
 4904SOL    HW116451   5.838   1.911   8.194  0.9795  0.7345  0.4574
 4904SOL    HW216452   5.710   1.831   8.185 -0.7797  3.4066  0.7329
 4905SOL     OW16453   4.994   6.044   9.434 -0.1852  0.1420  0.4333
 4905SOL    HW116454   4.919   6.067   9.379 -0.3989  1.4131  1.2002
 4905SOL    HW216455   5.051   6.122   9.430 -0.5773  0.6179  2.5902
 4906SOL     OW16456   1.118   4.182   7.930  0.0352 -0.3512  0.0137
 4906SOL    HW116457   1.196   4.238   7.936 -0.1463  0.0136 -0.8798
 4906SOL    HW216458   1.045   4.242   7.948 -0.2253 -0.0835 -1.7809
 4907SOL     OW16459   3.889   8.811   1.670  0.1639  0.5145  0.5557
 4907SOL    HW116460   3.964   8.863   1.639  0.2707  0.3014  0.4547
 4907SOL    HW216461   3.907   8.797   1.763  2.2707 -2.8587 -0.1865
 4908SOL     OW16462   4.147   5.092   8.598  0.1484  0.1022  0.0223
 4908SOL    HW116463   4.072   5.145   8.572  0.7468  1.4295  0.8774
 4908SOL    HW216464   4.178   5.053   8.517 -1.4655 -0.4912 -0.3422
 4909SOL     OW16465   9.424   9.183   2.689 -0.3405 -0.5579 -0.0715
 4909SOL    HW116466   9.450   9.159   2.600  0.7669 -1.5635  0.4792
 4909SOL    HW216467   9.329   9.176   2.689 -0.2684 -2.0744 -0.7930
 4910SOL     OW16468   7.450   5.901   7.480  0.5559 -0.1847 -0.3535
 4910SOL    HW116469   7.490   5.916   7.566 -1.1412  0.1088  0.4179
 4910SOL    HW216470   7.517   5.853   7.431  1.3235 -0.9145  1.3333
 4911SOL     OW16471   4.915   2.759   0.616 -0.1302  0.0228 -0.2039
 4911SOL    HW116472   4.971   2.814   0.671  0.1582 -0.6879  0.2272
 4911SOL    HW216473   4.948   2.670   0.630 -1.8484 -0.5067  0.6478
 4912SOL     OW16474   3.800   4.965   4.127 -0.0056  0.8078  0.3033
 4912SOL    HW116475   3.843   4.912   4.195 -0.6874 -2.3921 -1.5578
 4912SOL    HW216476   3.710   4.931   4.123 -0.8138  2.8421 -0.3657
 4913SOL     OW16477   7.364   2.728   3.914  0.2696 -0.0195 -0.4774
 4913SOL    HW116478   7.342   2.803   3.970 -0.0032 -0.9492  0.7179
 4913SOL    HW216479   7.397   2.767   3.833  1.3052  1.3871  0.5761
 4914SOL     OW16480   3.845   1.602   5.742  0.0428  0.5184  0.6275
 4914SOL    HW116481   3.869   1.510   5.736  0.6050  0.7187 -0.4032
 4914SOL    HW216482   3.787   1.617   5.667 -0.7677  0.8021  1.2910
 4915SOL     OW16483   8.531   4.921   1.312 -0.2061  0.0656  0.2727
 4915SOL    HW116484   8.581   4.963   1.382  0.3238 -0.3540  0.1582
 4915SOL    HW216485   8.450   4.893   1.353  0.1995 -0.3866  0.7834
 4916SOL     OW16486   7.391   6.989   1.314 -0.6504  0.1472 -0.2032
 4916SOL    HW116487   7.452   7.055   1.348 -0.6883  0.4613 -0.7326
 4916SOL    HW216488   7.339   6.962   1.390 -0.6100  0.7013  0.0228
 4917SOL     OW16489   5.891   3.105   6.402  0.3537 -0.0811 -0.4971
 4917SOL    HW116490   5.899   3.010   6.413 -3.8156 -0.4462  0.8545
 4917SOL    HW216491   5.896   3.139   6.491  1.5567  1.0111 -0.9560
 4918SOL     OW16492   5.045   5.736   7.667 -0.4322  0.0623 -0.1956
 4918SOL    HW116493   5.069   5.781   7.586 -0.7244 -0.4933 -0.5981
 4918SOL    HW216494   4.951   5.720   7.659 -0.5499  0.3937  0.4500
 4919SOL     OW16495   3.873   8.128   0.389  0.6880  0.1553  0.3197
 4919SOL    HW116496   3.805   8.195   0.383 -0.6834 -1.1377  0.7566
 4919SOL    HW216497   3.923   8.151   0.468  1.2983  1.5553 -0.4366
 4920SOL     OW16498   0.406   4.721   0.880  0.1449 -0.4802 -0.4097
 4920SOL    HW116499   0.419   4.640   0.830 -0.8492 -0.3840 -0.8531
 4920SOL    HW216500   0.482   4.726   0.938  0.2961 -1.6542 -0.4833
 4921SOL     OW16501   1.514   2.065   0.249 -0.0496 -0.2170 -0.0551
 4921SOL    HW116502   1.530   2.144   0.300  1.7993 -1.7320  1.8957
 4921SOL    HW216503   1.577   2.069   0.178  0.3153 -0.1019  0.2689
 4922SOL     OW16504   5.607   2.253   4.555  0.3049  0.6514 -0.0557
 4922SOL    HW116505   5.638   2.310   4.625 -0.9162  0.5107  0.6246
 4922SOL    HW216506   5.687   2.214   4.518  0.9233 -0.0810  1.9598
 4923SOL     OW16507   4.777   0.794   6.602 -0.1380  0.2326 -0.2862
 4923SOL    HW116508   4.720   0.835   6.666  0.6262  0.6026  0.1653
 4923SOL    HW216509   4.831   0.865   6.568 -0.1591 -0.0557 -0.9463
 4924SOL     OW16510   8.550   3.077   0.028  0.1067 -0.0637 -0.0856
 4924SOL    HW116511   8.576   3.037   0.111 -0.9955 -3.1133 -1.0731
 4924SOL    HW216512   8.632   3.110  -0.010  0.8887 -0.2649  1.3526
 4925SOL     OW16513   7.680   5.199   1.427  0.3054 -0.2319 -0.2491
 4925SOL    HW116514   7.711   5.216   1.516  2.6439 -0.4470 -0.9697
 4925SOL    HW216515   7.655   5.286   1.394  0.5211  0.0166  0.2262
 4926SOL     OW16516   6.822   1.226   1.529 -0.1979  0.1489 -0.3041
 4926SOL    HW116517   6.890   1.249   1.466 -0.1847 -0.3403 -0.4728
 4926SOL    HW216518   6.857   1.149   1.575 -0.1042  0.6462  0.4686
 4927SOL     OW16519   7.132   7.190   7.227  0.0337 -0.6436  0.1411
 4927SOL    HW116520   7.131   7.278   7.265  2.2269 -0.4793 -0.0299
 4927SOL    HW216521   7.093   7.134   7.294 -1.8642  0.4897  0.0546
 4928SOL     OW16522   7.042   1.846   2.124 -0.5225 -0.1528  0.0067
 4928SOL    HW116523   7.091   1.809   2.198 -0.0506  0.5611  0.0623
 4928SOL    HW216524   7.045   1.778   2.057 -0.1982 -0.4629  0.3320
 4929SOL     OW16525   9.188   6.895   5.637  0.3560  0.0702 -0.2368
 4929SOL    HW116526   9.156   6.873   5.725  1.2962 -0.9370 -0.1301
 4929SOL    HW216527   9.131   6.966   5.608 -0.9161 -0.5732  0.5961
 4930SOL     OW16528   3.863   1.426   8.013  0.1218 -0.7948  0.4488
 4930SOL    HW116529   3.912   1.504   8.039  0.6486 -0.2274 -1.9899
 4930SOL    HW216530   3.794   1.418   8.078  0.3221  1.4580  1.0242
 4931SOL     OW16531   6.654   7.383   1.536 -0.2986 -0.1754  0.6819
 4931SOL    HW116532   6.666   7.477   1.545 -2.9973  0.1834  1.6304
 4931SOL    HW216533   6.718   7.344   1.595  1.3286  0.9957 -0.2435
 4932SOL     OW16534   6.350   3.134   3.566  1.0387  0.1775 -0.2513
 4932SOL    HW116535   6.350   3.209   3.626  1.1135  0.5396 -0.6930
 4932SOL    HW216536   6.262   3.096   3.576  0.1079  1.7783 -1.7660
 4933SOL     OW16537   2.506   6.563   8.831 -0.4513  0.2920 -0.7730
 4933SOL    HW116538   2.512   6.631   8.898 -2.9757 -1.7620  1.7610
 4933SOL    HW216539   2.451   6.602   8.762  0.8633  1.8797 -0.9827
 4934SOL     OW16540   6.423   6.498   8.086  0.4467  0.2318 -0.0868
 4934SOL    HW116541   6.431   6.464   8.176  0.5863  0.7594  0.1043
 4934SOL    HW216542   6.329   6.504   8.071  0.4108  1.2745  0.4684
 4935SOL     OW16543   0.454   2.385   9.370  0.4582  0.2069 -0.3531
 4935SOL    HW116544   0.423   2.398   9.460  1.2735  1.4415 -0.2244
 4935SOL    HW216545   0.522   2.451   9.359 -0.0692  0.4989 -2.1014
 4936SOL     OW16546   3.111   3.327   5.849  0.2045 -0.2420  0.2257
 4936SOL    HW116547   3.095   3.362   5.762  0.0391  1.2332  0.8134
 4936SOL    HW216548   3.044   3.367   5.904  0.6455 -0.7121  1.1300
 4937SOL     OW16549   2.727   7.196   0.570  0.3516  0.4284 -0.0428
 4937SOL    HW116550   2.740   7.258   0.642  0.4011  0.0783  0.2536
 4937SOL    HW216551   2.639   7.215   0.538 -0.3364 -0.4960  1.1859
 4938SOL     OW16552   3.734   5.224   6.388 -0.0425  0.1219  0.1215
 4938SOL    HW116553   3.766   5.150   6.335  0.9594  0.6579 -0.0470
 4938SOL    HW216554   3.705   5.289   6.324  0.5702  0.5100  0.2254
 4939SOL     OW16555   8.441   6.265   0.549 -0.5223 -0.0077 -0.3224
 4939SOL    HW116556   8.441   6.347   0.598  0.5031  0.3129 -0.8272
 4939SOL    HW216557   8.435   6.197   0.616 -0.7780  0.4634  0.1376
 4940SOL     OW16558   6.935   2.457   1.772 -0.1714 -0.3052 -0.3565
 4940SOL    HW116559   6.911   2.545   1.743 -1.4017 -0.8957 -1.2102
 4940SOL    HW216560   6.860   2.426   1.823  0.0260 -1.0397 -0.4890
 4941SOL     OW16561   1.270   9.101   5.387 -0.0579 -0.5603  0.0252
 4941SOL    HW116562   1.214   9.023   5.382 -1.3373  0.3854 -1.5597
 4941SOL    HW216563   1.216   9.171   5.351  1.0699  1.0763  1.4087
 4942SOL     OW16564   3.552   0.139   2.289 -0.2252  0.0323  0.5236
 4942SOL    HW116565   3.583   0.196   2.218 -0.4734  0.3863  0.6989
 4942SOL    HW216566   3.507   0.197   2.349  1.0048 -0.0623  1.5909
 4943SOL     OW16567   6.449   8.539   5.535  0.8381  0.1463  0.4944
 4943SOL    HW116568   6.433   8.631   5.558 -2.4692 -0.2207  0.1405
 4943SOL    HW216569   6.516   8.543   5.467 -0.0364  2.4543 -0.3324
 4944SOL     OW16570   7.885   2.941   9.137 -0.3322  0.0519 -0.7452
 4944SOL    HW116571   7.897   2.859   9.185  1.7867  1.1655  0.8282
 4944SOL    HW216572   7.814   2.985   9.183  0.2405  0.1740  0.0543
 4945SOL     OW16573   6.551   5.565   0.075  0.2100 -0.3404 -0.3104
 4945SOL    HW116574   6.643   5.539   0.076  0.8646  1.6771  1.7228
 4945SOL    HW216575   6.553   5.659   0.055 -1.4690 -0.4187 -0.9567
 4946SOL     OW16576   1.871   7.812   5.146 -0.5147 -0.1574  0.3547
 4946SOL    HW116577   1.901   7.764   5.223 -1.9239 -0.6145  0.6526
 4946SOL    HW216578   1.917   7.896   5.150 -1.0717  0.1051  2.0739
 4947SOL     OW16579   2.549   5.277   0.909  0.2407  0.4032  0.2151
 4947SOL    HW116580   2.486   5.331   0.957 -0.5576 -1.4251  1.3467
 4947SOL    HW216581   2.569   5.205   0.968  2.1815  0.0583 -0.7785
 4948SOL     OW16582   3.527   6.591   9.436  0.0090  0.1642  0.1603
 4948SOL    HW116583   3.548   6.645   9.512  0.1971 -0.3878  0.5009
 4948SOL    HW216584   3.434   6.607   9.420 -0.0936  0.0804  0.6652
 4949SOL     OW16585   0.249   1.559   6.225 -0.5333  0.7148  0.8440
 4949SOL    HW116586   0.306   1.486   6.202 -0.1780  0.4551  2.4127
 4949SOL    HW216587   0.182   1.560   6.157  0.6501  0.2682 -0.3682
 4950SOL     OW16588   3.315   1.025   6.184  0.1169  0.1178 -0.2680
 4950SOL    HW116589   3.306   0.973   6.104  1.3875  0.8265 -0.8984
 4950SOL    HW216590   3.349   0.964   6.249 -1.4228 -0.5969 -0.0834
 4951SOL     OW16591   3.634   1.077   6.367  0.5603 -0.0838  0.4900
 4951SOL    HW116592   3.679   0.992   6.360  0.7650  0.1493 -1.5029
 4951SOL    HW216593   3.543   1.054   6.388  0.8216 -0.7378  0.9493
 4952SOL     OW16594   8.761   5.919   8.822  0.7606  0.3095 -0.2304
 4952SOL    HW116595   8.675   5.947   8.853  0.7941  0.1383  0.0199
 4952SOL    HW216596   8.816   5.998   8.827  0.7173  0.3268 -0.0275
 4953SOL     OW16597   9.065   1.955   1.411  0.6999 -0.6268 -0.2185
 4953SOL    HW116598   9.043   2.039   1.372  0.0643 -1.5071 -1.8776
 4953SOL    HW216599   9.154   1.965   1.444 -0.3064  1.5349  2.2279
 4954SOL     OW16600   7.651   1.421   1.000 -0.4873 -0.1108 -0.1506
 4954SOL    HW116601   7.638   1.349   0.938 -2.6400  1.1658 -1.2919
 4954SOL    HW216602   7.599   1.397   1.076 -1.0300  0.1008 -0.4456
 4955SOL     OW16603   0.332   6.794   4.532  0.9205 -0.2992 -0.4788
 4955SOL    HW116604   0.392   6.841   4.474  1.2699  0.9698  0.8565
 4955SOL    HW216605   0.385   6.773   4.610  0.6755 -2.6068 -0.8561
 4956SOL     OW16606   7.650   4.179   6.883  0.5379  0.3870 -0.3284
 4956SOL    HW116607   7.557   4.191   6.903  0.3112  0.3599 -1.3447
 4956SOL    HW216608   7.682   4.267   6.864  0.5613  0.3037 -0.6684
 4957SOL     OW16609   8.879   6.221   2.427 -0.5543  0.2571  0.1865
 4957SOL    HW116610   8.817   6.189   2.363 -1.7888 -1.6744  2.1910
 4957SOL    HW216611   8.950   6.156   2.427 -0.5581  0.2447  0.7362
 4958SOL     OW16612   5.001   9.411   2.433  0.3352 -0.2022  0.1101
 4958SOL    HW116613   5.071   9.443   2.489  0.3362  0.3863 -0.2245
 4958SOL    HW216614   4.931   9.475   2.443 -1.0221 -1.8442  2.0864
 4959SOL     OW16615   3.671   6.092   5.528 -0.2723 -0.6035 -0.1351
 4959SOL    HW116616   3.592   6.144   5.544 -0.0602 -0.4762  0.5230
 4959SOL    HW216617   3.644   6.002   5.545 -0.1911 -0.5245  0.4349
 4960SOL     OW16618   8.863   2.718   7.316  0.4813 -0.0589 -0.3067
 4960SOL    HW116619   8.875   2.783   7.385  0.5542  3.9173 -3.6597
 4960SOL    HW216620   8.941   2.662   7.322  0.3109 -0.1125  2.9164
 4961SOL     OW16621   6.637   5.335   2.908 -0.7709 -0.6148  0.7308
 4961SOL    HW116622   6.665   5.302   2.994  2.2963 -0.2429  0.0170
 4961SOL    HW216623   6.620   5.428   2.922  2.0252  0.0053  0.6108
 4962SOL     OW16624   4.706   8.582   7.326  0.0707 -0.2766 -0.4020
 4962SOL    HW116625   4.792   8.558   7.290 -0.2198  0.9666 -2.0114
 4962SOL    HW216626   4.652   8.602   7.250 -1.4697 -0.3587  0.6138
 4963SOL     OW16627   0.214   1.893   1.914 -0.2845  0.3957 -0.2329
 4963SOL    HW116628   0.216   1.832   1.840 -0.7607 -0.3575  0.3615
 4963SOL    HW216629   0.304   1.926   1.920 -0.1431  0.1391 -0.8772
 4964SOL     OW16630   0.083   4.466   2.321  0.1752  0.5279  0.4348
 4964SOL    HW116631  -0.008   4.444   2.303  0.2403 -0.0461  0.7977
 4964SOL    HW216632   0.130   4.441   2.242  0.2427 -0.6171  0.8276
 4965SOL     OW16633   9.525   9.603   1.307  0.3822 -0.2996 -0.7210
 4965SOL    HW116634   9.462   9.592   1.378  0.4410 -2.0383 -0.9069
 4965SOL    HW216635   9.537   9.698   1.301 -1.1448 -0.0009  0.2419
 4966SOL     OW16636   6.337   5.769   7.623  0.3690 -0.7736  0.1315
 4966SOL    HW116637   6.414   5.740   7.573 -0.3062  0.2395 -1.5500
 4966SOL    HW216638   6.265   5.763   7.561 -0.4782  0.6925  0.9431
 4967SOL     OW16639   2.427   8.783   4.640 -0.1647 -0.1184  0.2100
 4967SOL    HW116640   2.376   8.846   4.691 -0.8221 -0.5507  0.0999
 4967SOL    HW216641   2.410   8.699   4.683  0.6835 -0.2352  0.3423
 4968SOL     OW16642   0.306   0.132   5.325 -0.2144 -0.2161 -0.3020
 4968SOL    HW116643   0.377   0.078   5.362 -2.0531 -1.9972  0.8391
 4968SOL    HW216644   0.351   0.208   5.287  2.2957 -1.3055  0.2784
 4969SOL     OW16645   9.253   7.038   0.992 -0.6742  0.8485 -0.7865
 4969SOL    HW116646   9.224   6.999   0.909 -0.4932 -0.7656 -0.1315
 4969SOL    HW216647   9.178   7.089   1.022 -0.7531  1.4326 -1.9169
 4970SOL     OW16648   8.587   2.370   1.200  0.1132  0.2067 -0.5514
 4970SOL    HW116649   8.576   2.396   1.291 -0.0786  0.2964 -0.5989
 4970SOL    HW216650   8.591   2.274   1.202  0.4675  0.2239 -0.4133
 4971SOL     OW16651   4.825   6.700   6.957 -0.0607 -0.5019  0.5667
 4971SOL    HW116652   4.914   6.733   6.968 -0.1109  0.1221 -0.7851
 4971SOL    HW216653   4.807   6.706   6.863 -0.8314 -2.4550  0.5295
 4972SOL     OW16654   5.267   8.465   2.810  0.5039 -0.0423 -0.4747
 4972SOL    HW116655   5.337   8.447   2.873  0.2751  1.3829  0.2400
 4972SOL    HW216656   5.291   8.415   2.732  2.7722  1.0026 -0.5336
 4973SOL     OW16657   3.843   5.051   0.208 -0.4323 -0.6903  0.3849
 4973SOL    HW116658   3.933   5.073   0.183 -0.8552  0.7187  0.0102
 4973SOL    HW216659   3.851   5.009   0.293  0.3774  2.0922  1.7738
 4974SOL     OW16660   2.997   7.338   3.987  0.2745 -0.6890  0.5543
 4974SOL    HW116661   2.907   7.353   4.016  0.0720 -0.1976 -0.2885
 4974SOL    HW216662   3.008   7.243   3.993 -0.3531 -0.7726  0.5260
 4975SOL     OW16663   9.014   0.370   2.254  0.3868  0.1328  0.2940
 4975SOL    HW116664   9.018   0.420   2.335  0.4143  3.3348 -1.5469
 4975SOL    HW216665   8.923   0.343   2.247  0.1316  0.8161  0.8394
 4976SOL     OW16666   2.712   0.909   6.170  0.0286 -0.1580  0.2686
 4976SOL    HW116667   2.754   0.872   6.248 -3.4616 -2.8880  1.1039
 4976SOL    HW216668   2.772   0.887   6.099  1.6448 -0.8064  1.7451
 4977SOL     OW16669   0.548   1.891   3.464 -0.6329 -0.2182 -0.5141
 4977SOL    HW116670   0.557   1.875   3.370 -2.0263 -1.2782 -0.5034
 4977SOL    HW216671   0.524   1.806   3.500 -1.0834  0.3842  0.6553
 4978SOL     OW16672   3.196   4.297   2.537 -0.3469  0.3087  0.8706
 4978SOL    HW116673   3.252   4.356   2.487 -2.3424  0.9653 -0.7474
 4978SOL    HW216674   3.256   4.234   2.577  1.4408  0.2047 -1.7476
 4979SOL     OW16675   6.562   6.443   7.842 -0.1658  0.0903  0.4509
 4979SOL    HW116676   6.518   6.477   7.921 -1.3834  0.0266 -0.1816
 4979SOL    HW216677   6.561   6.348   7.853  0.8347  0.1237  0.9531
 4980SOL     OW16678   5.908   4.906   5.217 -0.1533 -0.0340 -0.1417
 4980SOL    HW116679   5.928   4.991   5.177 -1.0303  0.5646  0.6350
 4980SOL    HW216680   5.945   4.841   5.157 -1.7961  0.8021 -2.1392
 4981SOL     OW16681   8.835   8.895   2.465  0.5202  0.3266 -0.4739
 4981SOL    HW116682   8.917   8.849   2.449  0.4750 -0.4308  1.2854
 4981SOL    HW216683   8.767   8.833   2.439  0.4857  0.1627  0.0008
 4982SOL     OW16684   8.259   3.199   4.009  0.3522  0.6002 -0.0737
 4982SOL    HW116685   8.299   3.223   4.093 -0.5552  0.4831  0.3999
 4982SOL    HW216686   8.279   3.106   3.998  2.6011  1.1449 -1.2029
 4983SOL     OW16687   6.644   0.319   5.506 -0.3158  0.1405 -0.0507
 4983SOL    HW116688   6.601   0.243   5.545  0.5646 -0.2027  0.2583
 4983SOL    HW216689   6.585   0.345   5.435  0.0110 -1.6429 -1.0368
 4984SOL     OW16690   2.369   4.198   3.684  0.5811 -0.3843  0.1713
 4984SOL    HW116691   2.426   4.275   3.682 -0.9252  0.8010  0.8557
 4984SOL    HW216692   2.381   4.162   3.772 -1.5036  1.3466  1.2617
 4985SOL     OW16693   4.662   0.397   2.289 -0.1821 -0.3142  0.0457
 4985SOL    HW116694   4.589   0.459   2.286 -0.5670 -0.7035  1.1353
 4985SOL    HW216695   4.638   0.335   2.357  0.1373 -1.7500 -1.0932
 4986SOL     OW16696   4.217   8.272   3.368  0.4822 -0.0608  0.1342
 4986SOL    HW116697   4.218   8.358   3.411 -0.1495  0.4438 -0.8231
 4986SOL    HW216698   4.238   8.291   3.277  0.2358 -0.9206 -0.1092
 4987SOL     OW16699   1.823   4.254   5.662  0.2743 -0.0265  0.2482
 4987SOL    HW116700   1.828   4.191   5.734  1.7110  0.2237  0.3862
 4987SOL    HW216701   1.750   4.222   5.608 -0.7264 -0.3163  1.6990
 4988SOL     OW16702   1.196   4.004   4.771  0.6359 -0.2903  0.3677
 4988SOL    HW116703   1.237   4.066   4.711  2.8402 -1.5566  0.4292
 4988SOL    HW216704   1.147   4.058   4.832  1.6474  1.3168 -0.1729
 4989SOL     OW16705   2.122   2.405   2.954 -0.3857 -0.4909 -0.1341
 4989SOL    HW116706   2.205   2.452   2.948 -0.4300 -0.2827  0.7950
 4989SOL    HW216707   2.056   2.474   2.964 -0.5212 -0.7198  0.5680
 4990SOL     OW16708   7.725   5.696   2.330 -0.0181 -0.0443  0.5469
 4990SOL    HW116709   7.631   5.706   2.344 -0.4512 -1.9317 -0.5735
 4990SOL    HW216710   7.736   5.604   2.304  2.0463  0.3019 -0.0297
 4991SOL     OW16711   1.721   5.222   6.689 -0.3462 -0.1776 -0.9409
 4991SOL    HW116712   1.687   5.289   6.748 -0.8639  0.1437 -1.5940
 4991SOL    HW216713   1.805   5.256   6.660 -0.3895 -0.0367 -0.9016
 4992SOL     OW16714   9.614   6.675   3.393 -0.2232 -0.0443  0.2947
 4992SOL    HW116715   9.663   6.727   3.329 -1.3664  0.8671  0.1278
 4992SOL    HW216716   9.681   6.635   3.448  0.7485 -0.0112 -0.8310
 4993SOL     OW16717   3.366   2.442   6.839 -0.2170 -0.6402  0.2893
 4993SOL    HW116718   3.404   2.516   6.791  1.1875 -1.2635  0.3637
 4993SOL    HW216719   3.366   2.371   6.776 -2.4478 -0.3753 -0.0709
 4994SOL     OW16720   5.832   0.021   3.803  0.3173  0.2642 -0.4488
 4994SOL    HW116721   5.787   0.089   3.753 -0.8452  0.4156  0.7496
 4994SOL    HW216722   5.773   0.002   3.877  0.4667 -2.2237 -0.8679
 4995SOL     OW16723   3.709   7.501   5.197  0.5757  0.2114 -0.5725
 4995SOL    HW116724   3.754   7.433   5.249  1.7916  1.1205 -0.3838
 4995SOL    HW216725   3.780   7.557   5.166 -0.4825  2.3122  0.5694
 4996SOL     OW16726   2.925   7.417   1.559  0.0154  0.0429  0.3039
 4996SOL    HW116727   2.995   7.362   1.594 -0.5541 -1.1660 -0.4068
 4996SOL    HW216728   2.868   7.435   1.633  0.2359 -0.2861  0.5521
 4997SOL     OW16729   3.587   5.014   9.100  0.2364 -0.2487 -0.1837
 4997SOL    HW116730   3.638   5.034   9.179 -0.7561  0.9769  0.1807
 4997SOL    HW216731   3.515   4.959   9.132  0.7493 -1.1518 -0.5350
 4998SOL     OW16732   4.187   0.727   8.253 -0.7775 -0.1453 -0.7830
 4998SOL    HW116733   4.206   0.795   8.317 -0.9560 -1.9662  1.3233
 4998SOL    HW216734   4.110   0.759   8.206 -2.0798  0.2918  1.5011
 4999SOL     OW16735   7.904   8.987   5.984 -0.4325  0.2904 -0.3126
 4999SOL    HW116736   7.933   9.028   5.903 -1.9975  0.5463 -0.7875
 4999SOL    HW216737   7.857   8.909   5.956 -2.3705  1.2088  0.1943
 5000SOL     OW16738   5.149   3.919   5.537  0.2558 -0.5019  0.1412
 5000SOL    HW116739   5.134   3.879   5.452  2.2680  0.5081 -0.7628
 5000SOL    HW216740   5.145   3.846   5.599  1.2901 -1.7138 -1.1430
 5001SOL     OW16741   0.022   4.100   2.721  0.4418 -0.5105 -0.2231
 5001SOL    HW116742   0.050   4.063   2.805 -2.7724 -0.0121  1.2108
 5001SOL    HW216743  -0.013   4.025   2.673  0.7001 -0.5115 -0.4115
 5002SOL     OW16744   0.123   3.795   6.734 -0.2179 -0.1377  0.5314
 5002SOL    HW116745   0.122   3.708   6.694  0.9346 -0.3865  1.0012
 5002SOL    HW216746   0.039   3.801   6.779 -1.2891 -0.0949 -1.3545
 5003SOL     OW16747   7.018   5.830   7.921 -0.0600 -0.5006 -0.0251
 5003SOL    HW116748   7.052   5.860   7.837 -1.6507 -0.0422 -0.5491
 5003SOL    HW216749   6.927   5.860   7.922 -0.8105 -2.5827  0.8136
 5004SOL     OW16750   3.812   1.267   1.722 -0.3754 -0.0759  0.0595
 5004SOL    HW116751   3.868   1.337   1.755 -1.4928  1.2273 -0.7177
 5004SOL    HW216752   3.801   1.287   1.629 -1.7516 -0.5400  0.1070
 5005SOL     OW16753   6.126   3.660   8.332  0.2180 -0.0692 -0.1208
 5005SOL    HW116754   6.142   3.752   8.350  1.8621 -0.1088 -1.1773
 5005SOL    HW216755   6.190   3.613   8.385  0.4280 -0.5076 -0.7472
 5006SOL     OW16756   0.741   1.939   5.380 -0.0455  0.6440  0.3398
 5006SOL    HW116757   0.771   2.030   5.386 -1.9128  1.3150 -0.0304
 5006SOL    HW216758   0.721   1.915   5.471 -0.8112  1.0621  0.2882
 5007SOL     OW16759   3.866   0.511   3.609  0.4651  0.2001 -0.6162
 5007SOL    HW116760   3.814   0.536   3.533 -0.5618  0.2147  0.0608
 5007SOL    HW216761   3.887   0.594   3.652  0.9986  0.1895 -0.8560
 5008SOL     OW16762   8.678   7.443   0.278 -0.2155 -0.0136  0.5111
 5008SOL    HW116763   8.737   7.372   0.303  0.7314  0.4541 -0.3111
 5008SOL    HW216764   8.735   7.520   0.273 -0.6994  0.2790 -1.1848
 5009SOL     OW16765   5.661   7.414   0.777 -0.3138  0.1535  0.0629
 5009SOL    HW116766   5.680   7.445   0.689 -1.8013 -2.5666 -1.3413
 5009SOL    HW216767   5.738   7.363   0.801 -0.4785 -0.2383 -0.2390
 5010SOL     OW16768   3.423   9.394   2.459  0.2367 -0.3819  0.0807
 5010SOL    HW116769   3.433   9.476   2.506  0.1632 -0.0108 -0.5335
 5010SOL    HW216770   3.382   9.335   2.522  1.5810 -0.3868  0.9831
 5011SOL     OW16771   9.203   4.067   0.187  0.3136  0.0573  0.6728
 5011SOL    HW116772   9.231   4.154   0.218 -2.3633  1.7315 -1.1353
 5011SOL    HW216773   9.217   4.070   0.092 -1.6843 -0.6263  0.2973
 5012SOL     OW16774   9.261   6.255   7.318  0.0874 -0.0845  0.3812
 5012SOL    HW116775   9.239   6.337   7.361  0.9707  1.0358 -1.1614
 5012SOL    HW216776   9.307   6.282   7.238 -0.4415 -2.0604 -0.6561
 5013SOL     OW16777   1.692   8.526   0.797  0.3352 -0.0588 -0.6703
 5013SOL    HW116778   1.701   8.481   0.714 -3.2033 -0.7168 -0.8587
 5013SOL    HW216779   1.696   8.619   0.774 -1.3080 -0.2135 -1.7735
 5014SOL     OW16780   1.273   3.206   6.232 -0.4147  0.1594 -0.2954
 5014SOL    HW116781   1.324   3.196   6.313 -0.8960  2.3518  0.3605
 5014SOL    HW216782   1.243   3.118   6.211  0.2686 -0.5677  1.5585
 5015SOL     OW16783   1.622   8.017   7.860  0.1096  0.4525  0.1976
 5015SOL    HW116784   1.558   8.084   7.887 -0.1557  0.6119 -0.7946
 5015SOL    HW216785   1.569   7.941   7.838  0.4299 -0.2170  1.6047
 5016SOL     OW16786   2.920   8.644   7.729 -0.2405  0.4569 -0.2365
 5016SOL    HW116787   2.969   8.625   7.809 -0.9468 -1.0813 -0.1415
 5016SOL    HW216788   2.829   8.648   7.757 -0.3557  1.5775 -0.7086
 5017SOL     OW16789   9.602   0.130   8.038 -0.4246  0.0061 -0.2491
 5017SOL    HW116790   9.562   0.071   7.975 -1.5398  0.6350 -0.1526
 5017SOL    HW216791   9.544   0.128   8.114 -1.1269  2.0317 -0.6531
 5018SOL     OW16792   6.653   6.657   3.944 -0.4263 -0.3827 -0.1250
 5018SOL    HW116793   6.703   6.687   3.868 -1.4381 -0.1721 -0.7162
 5018SOL    HW216794   6.576   6.713   3.947 -2.0769 -2.4835 -0.9179
 5019SOL     OW16795   8.441   4.494   4.179  0.0042 -0.4275  0.9463
 5019SOL    HW116796   8.463   4.403   4.162  1.4961  0.1647 -0.6151
 5019SOL    HW216797   8.477   4.513   4.265  1.2817 -0.8413  0.5157
 5020SOL     OW16798   6.942   5.472   1.471 -0.1992 -0.2498 -0.2451
 5020SOL    HW116799   6.962   5.523   1.549  0.6000  0.3309 -0.8160
 5020SOL    HW216800   7.023   5.471   1.421 -0.6313 -0.8109 -0.9640
 5021SOL     OW16801   5.320   2.527   4.164  0.3078  0.4793 -0.7974
 5021SOL    HW116802   5.267   2.460   4.121 -2.4597  2.0962 -0.1034
 5021SOL    HW216803   5.318   2.602   4.104  2.4856  0.3980 -1.0812
 5022SOL     OW16804   1.094   1.306   1.931 -0.1510 -0.0335  0.3514
 5022SOL    HW116805   1.090   1.247   2.006 -0.4984  1.0071  1.1581
 5022SOL    HW216806   1.073   1.249   1.856 -1.1960 -0.7897  1.1868
 5023SOL     OW16807   8.471   7.081   6.198 -0.4221 -0.9623  0.5527
 5023SOL    HW116808   8.538   7.018   6.170 -2.1541 -2.7938  0.3596
 5023SOL    HW216809   8.517   7.138   6.260  1.1828 -2.4846  0.8379
 5024SOL     OW16810   6.788   1.954   0.389 -0.0807 -0.4339 -0.2213
 5024SOL    HW116811   6.816   1.875   0.342 -1.3360 -0.2762 -1.3163
 5024SOL    HW216812   6.868   2.003   0.404  0.8894 -2.3543  1.3774
 5025SOL     OW16813   1.266   4.457   9.324 -0.0853 -0.0856  0.1661
 5025SOL    HW116814   1.317   4.502   9.256 -0.8355 -0.2337 -0.5046
 5025SOL    HW216815   1.274   4.364   9.302 -0.4355 -0.1249  0.1979
 5026SOL     OW16816   7.846   4.556   1.030  0.8848 -0.1304  0.2362
 5026SOL    HW116817   7.836   4.634   1.085  0.6549  0.9103 -1.2205
 5026SOL    HW216818   7.911   4.581   0.964  0.2131 -0.8802 -0.7423
 5027SOL     OW16819   1.585   9.293   9.238 -0.3637  0.2773 -0.4004
 5027SOL    HW116820   1.639   9.322   9.164  1.4153 -0.3915  0.5749
 5027SOL    HW216821   1.643   9.298   9.314 -1.1154 -2.1695  0.4283
 5028SOL     OW16822   1.677   2.260   0.654 -0.7800  0.3759  0.6268
 5028SOL    HW116823   1.694   2.353   0.669 -0.0032  0.2081  0.8150
 5028SOL    HW216824   1.646   2.227   0.738  1.9649 -0.1994  1.5026
 5029SOL     OW16825   4.771   4.441   6.664  0.2478  0.1519  0.1748
 5029SOL    HW116826   4.722   4.498   6.724  0.5871 -0.5760  1.1749
 5029SOL    HW216827   4.777   4.358   6.711  0.2238 -0.5511 -1.0339
 5030SOL     OW16828   0.848   3.285   5.863 -0.1304 -0.4743 -0.1850
 5030SOL    HW116829   0.915   3.351   5.883 -0.1629 -0.2663 -0.7573
 5030SOL    HW216830   0.874   3.208   5.914 -0.0331 -0.0550  0.4094
 5031SOL     OW16831   4.911   7.723   8.635  0.3361  0.6583  0.2801
 5031SOL    HW116832   4.928   7.650   8.575  0.7013 -0.8823  2.1644
 5031SOL    HW216833   4.859   7.685   8.706  0.4624  2.2498  1.2868
 5032SOL     OW16834   0.312   8.515   0.535 -0.2803  0.0417  0.3807
 5032SOL    HW116835   0.281   8.591   0.586  0.2929 -0.2087  1.1248
 5032SOL    HW216836   0.370   8.553   0.470 -0.1316  0.2642  0.6386
 5033SOL     OW16837   6.975   9.361   2.855 -0.4065  0.0467 -0.2420
 5033SOL    HW116838   6.955   9.397   2.768 -3.7910 -2.6136 -0.7526
 5033SOL    HW216839   7.012   9.275   2.837 -0.3498 -0.1932  0.9662
 5034SOL     OW16840   7.841   2.048   3.935  0.1056 -0.4041 -0.6264
 5034SOL    HW116841   7.868   1.956   3.930  2.2897  0.2108 -1.4771
 5034SOL    HW216842   7.774   2.058   3.867  0.2470 -1.2388 -0.8912
 5035SOL     OW16843   0.367   3.420   1.953 -0.0829 -0.2320  0.0686
 5035SOL    HW116844   0.426   3.370   1.898 -0.5287 -0.1257 -0.5201
 5035SOL    HW216845   0.387   3.512   1.932  0.4731 -0.1578  0.8671
 5036SOL     OW16846   5.071   1.574   0.198  0.2031  0.2733 -0.3511
 5036SOL    HW116847   5.039   1.519   0.126 -0.4282  0.7530 -0.4453
 5036SOL    HW216848   5.145   1.622   0.160  1.0706 -0.8348 -0.1341
 5037SOL     OW16849   0.916   4.919   1.967  0.2871 -0.6045 -0.2171
 5037SOL    HW116850   0.831   4.880   1.986  0.1312  0.1838  0.8091
 5037SOL    HW216851   0.973   4.888   2.037  0.4899 -0.0501 -0.1289
 5038SOL     OW16852   5.326   6.641   6.064 -0.0431 -0.1801  1.1593
 5038SOL    HW116853   5.303   6.580   5.993 -0.0534 -0.6894  1.5985
 5038SOL    HW216854   5.290   6.725   6.034  1.3749 -0.0164 -0.2026
 5039SOL     OW16855   7.054   2.440   8.414  0.0770  0.7208  0.2948
 5039SOL    HW116856   6.995   2.392   8.356  0.7612  0.9102 -0.5930
 5039SOL    HW216857   7.139   2.437   8.369  0.6010  0.9886  1.2315
 5040SOL     OW16858   2.916   6.874   0.881 -0.3633 -0.4199 -0.7420
 5040SOL    HW116859   2.894   6.941   0.946  2.0109 -1.8666  1.7499
 5040SOL    HW216860   2.938   6.924   0.802  1.0534  1.7905  0.9194
 5041SOL     OW16861   1.849   6.576   1.784  0.7113 -0.1624  0.0612
 5041SOL    HW116862   1.789   6.617   1.847  1.5379 -1.0591  1.4755
 5041SOL    HW216863   1.793   6.549   1.711 -0.5699 -0.7497  1.2316
 5042SOL     OW16864   7.247   7.086   5.952 -0.1813  0.0506  0.1641
 5042SOL    HW116865   7.192   7.034   6.010 -1.0420 -0.7956 -1.3400
 5042SOL    HW216866   7.314   7.124   6.009  0.1715 -2.2804  1.4083
 5043SOL     OW16867   6.284   9.116   0.430  0.0704  0.2505 -0.0287
 5043SOL    HW116868   6.362   9.100   0.482  0.0378 -2.1492 -0.6324
 5043SOL    HW216869   6.318   9.137   0.342  0.0495  1.3236  0.2031
 5044SOL     OW16870   8.802   7.531   5.064 -0.3725  0.8074  0.2228
 5044SOL    HW116871   8.837   7.619   5.074 -2.2175  1.5520  0.5734
 5044SOL    HW216872   8.746   7.518   5.140 -1.2919 -0.0720 -0.5645
 5045SOL     OW16873   5.265   3.252   8.739 -0.1709 -0.3701  0.1547
 5045SOL    HW116874   5.334   3.268   8.803 -1.4823  0.9233  1.3284
 5045SOL    HW216875   5.295   3.296   8.660  0.4487 -0.0199  0.5769
 5046SOL     OW16876   8.911   2.754   6.258 -0.0625 -0.6611 -0.2495
 5046SOL    HW116877   8.854   2.828   6.275  2.2361  1.7170 -2.0982
 5046SOL    HW216878   8.929   2.717   6.344 -1.7194  0.5587  0.6711
 5047SOL     OW16879   4.759   6.709   3.103 -0.0356 -0.6292  0.9038
 5047SOL    HW116880   4.762   6.724   3.197 -0.4730 -0.4600  0.8968
 5047SOL    HW216881   4.829   6.647   3.085 -0.0993 -0.8395  1.3763
 5048SOL     OW16882   7.657   0.420   2.193 -0.1309 -0.2267 -0.3507
 5048SOL    HW116883   7.563   0.415   2.178  0.2435 -0.2770 -3.2198
 5048SOL    HW216884   7.689   0.482   2.128  2.1521 -2.3571 -1.4508
 5049SOL     OW16885   6.823   3.849   3.276 -0.1075 -0.0985 -0.4621
 5049SOL    HW116886   6.822   3.800   3.359 -0.7472 -1.7016 -1.3828
 5049SOL    HW216887   6.902   3.903   3.282  1.4646 -2.2993  0.0216
 5050SOL     OW16888   5.635   6.976   3.699  0.9359  0.0896 -0.6146
 5050SOL    HW116889   5.562   6.953   3.641 -0.7870  0.4140  1.3289
 5050SOL    HW216890   5.651   6.896   3.749  0.6666  0.5681  0.2442
 5051SOL     OW16891   7.892   2.138   4.194 -0.1388 -0.0642  0.8704
 5051SOL    HW116892   7.947   2.070   4.233  0.0970  0.0102  0.6698
 5051SOL    HW216893   7.889   2.117   4.101  1.3119  1.1135  0.5045
 5052SOL     OW16894   7.639   8.176   1.067 -0.3420  0.5121  0.3935
 5052SOL    HW116895   7.728   8.206   1.053  0.4310 -1.6471  0.3090
 5052SOL    HW216896   7.605   8.232   1.136  1.4652  0.6527  1.2081
 5053SOL     OW16897   1.744   8.491   6.836  0.4159  1.1694  0.2080
 5053SOL    HW116898   1.751   8.403   6.798 -0.9435  1.1050  0.0444
 5053SOL    HW216899   1.833   8.513   6.864  0.3115 -1.5331  3.1319
 5054SOL     OW16900   9.310   7.374   4.022  0.5269 -0.2913 -0.2324
 5054SOL    HW116901   9.234   7.332   4.064  0.0551  1.2022  0.4538
 5054SOL    HW216902   9.288   7.467   4.019  2.6185  0.2754  0.5775
 5055SOL     OW16903   2.505   2.529   1.895  0.3098  0.3794  0.1220
 5055SOL    HW116904   2.501   2.619   1.865  1.7851  0.3725 -0.1861
 5055SOL    HW216905   2.586   2.494   1.857 -0.8020 -1.4312 -0.7305
 5056SOL     OW16906   8.885   2.464   7.138  0.3379 -0.4668 -0.0445
 5056SOL    HW116907   8.908   2.506   7.055  3.8031  3.4054  2.4778
 5056SOL    HW216908   8.819   2.522   7.177  2.2297  0.6322  1.7653
 5057SOL     OW16909   4.440   2.878   3.788  0.1720 -0.0990 -0.4841
 5057SOL    HW116910   4.484   2.822   3.724  0.4584 -0.2451 -0.1634
 5057SOL    HW216911   4.511   2.926   3.831  0.0674 -0.6813  0.3658
 5058SOL     OW16912   3.719   2.595   4.517  0.1981  0.4911  0.0021
 5058SOL    HW116913   3.649   2.657   4.497 -0.1283  0.9125  2.2199
 5058SOL    HW216914   3.752   2.623   4.602  0.2266 -2.2068  0.9578
 5059SOL     OW16915   4.025   1.899   3.187 -0.1450  0.3681  0.3507
 5059SOL    HW116916   4.045   1.862   3.101  1.4480  1.1519  0.3416
 5059SOL    HW216917   4.032   1.994   3.175 -3.7899  0.7856  0.4597
 5060SOL     OW16918   0.149   0.063   7.583 -0.1419  0.1580 -0.0217
 5060SOL    HW116919   0.108   0.120   7.519 -3.0400 -0.9704  0.6606
 5060SOL    HW216920   0.150   0.114   7.664 -1.2238 -0.1631  0.2047
 5061SOL     OW16921   6.165   2.768   9.287 -0.0024 -0.3362  0.1409
 5061SOL    HW116922   6.205   2.685   9.312  0.0251  0.2557  2.2533
 5061SOL    HW216923   6.079   2.768   9.329  0.6734  1.3740  1.6797
 5062SOL     OW16924   1.689   7.156   4.944 -0.7411  0.1613  0.6163
 5062SOL    HW116925   1.640   7.224   4.898  0.5165  0.8468  0.2364
 5062SOL    HW216926   1.640   7.075   4.927 -1.1545  0.6443 -0.6458
 5063SOL     OW16927   2.017   0.484   2.403  0.7111 -0.2256  0.9156
 5063SOL    HW116928   2.004   0.569   2.446  0.4948 -0.2631  0.9279
 5063SOL    HW216929   2.096   0.448   2.443  1.2205  0.2937  0.3922
 5064SOL     OW16930   2.838   8.046   8.211 -0.1195 -0.8402  0.0827
 5064SOL    HW116931   2.926   8.076   8.188 -0.2376  2.5730  3.0922
 5064SOL    HW216932   2.781   8.089   8.148  0.2119 -1.0039 -0.3337
 5065SOL     OW16933   8.608   4.625   5.934  0.4750 -0.6734 -0.1729
 5065SOL    HW116934   8.614   4.629   6.030 -0.2707  2.3550 -0.1451
 5065SOL    HW216935   8.699   4.627   5.904  0.7682  2.7011  0.5374
 5066SOL     OW16936   2.534   0.641   5.413  0.3596  0.0702 -0.2705
 5066SOL    HW116937   2.606   0.683   5.461 -2.3595  0.7979  3.6446
 5066SOL    HW216938   2.519   0.559   5.460 -1.6271  0.1480 -0.6976
 5067SOL     OW16939   6.535   7.535   5.540 -0.1792 -0.1435  0.5443
 5067SOL    HW116940   6.455   7.578   5.572  0.6395  0.5966  1.6398
 5067SOL    HW216941   6.606   7.581   5.584  0.7979 -1.6265  0.5527
 5068SOL     OW16942   7.647   5.002   1.105 -0.3070 -0.4528  0.4832
 5068SOL    HW116943   7.712   5.072   1.092  1.8632 -2.4777 -0.4186
 5068SOL    HW216944   7.594   5.004   1.025 -0.0475 -0.0601  0.3171
 5069SOL     OW16945   6.635   0.100   3.811  0.1203 -0.2287  0.0816
 5069SOL    HW116946   6.677   0.186   3.805  1.0894 -0.7372 -0.8309
 5069SOL    HW216947   6.551   0.111   3.767  0.0284  0.3778  0.4026
 5070SOL     OW16948   0.549   5.711   6.222  0.6769 -0.0528  0.1846
 5070SOL    HW116949   0.549   5.806   6.234 -1.1940 -0.2137  1.9710
 5070SOL    HW216950   0.569   5.676   6.309 -2.4285 -1.2690  0.5261
 5071SOL     OW16951   6.626   1.881   1.853 -0.3851  0.2365 -0.5647
 5071SOL    HW116952   6.666   1.928   1.780  2.0724 -0.3860  0.2454
 5071SOL    HW216953   6.638   1.788   1.831  2.9483 -0.0582  1.6757
 5072SOL     OW16954   8.083   0.290   0.997  0.1683  0.6534  0.0990
 5072SOL    HW116955   8.157   0.293   0.936  0.9848  0.2596  1.0481
 5072SOL    HW216956   8.028   0.364   0.971  2.0524  2.4122  0.8254
 5073SOL     OW16957   2.392   2.263   6.547  0.0801 -0.1654 -0.3183
 5073SOL    HW116958   2.379   2.179   6.591 -0.9311  0.5244  0.7558
 5073SOL    HW216959   2.304   2.297   6.532  0.4125  2.3019  2.4809
 5074SOL     OW16960   0.057   4.024   4.240  0.6680  0.0167  0.2134
 5074SOL    HW116961   0.133   4.001   4.292  1.6316 -0.6317 -1.3933
 5074SOL    HW216962   0.010   3.941   4.228  0.8172  0.0247 -0.4785
 5075SOL     OW16963   0.576   6.460   7.484  0.1479  0.3265 -0.2366
 5075SOL    HW116964   0.575   6.498   7.397  1.9013  1.5336  0.2301
 5075SOL    HW216965   0.660   6.415   7.491 -1.4668 -3.0576 -0.4481
 5076SOL     OW16966   9.399   3.392   3.020 -0.1748 -0.2642  0.3539
 5076SOL    HW116967   9.470   3.392   2.956 -0.2291 -0.2997  0.2938
 5076SOL    HW216968   9.355   3.308   3.007  0.0779 -0.4614  0.7295
 5077SOL     OW16969   7.909   5.481   7.792 -0.2543 -0.2485  0.2224
 5077SOL    HW116970   7.985   5.436   7.755 -0.3942 -0.7803  0.5760
 5077SOL    HW216971   7.868   5.416   7.849 -0.8898  0.0812  0.1505
 5078SOL     OW16972   0.699   6.781   8.981  0.6786  0.0789 -0.0509
 5078SOL    HW116973   0.611   6.752   8.959 -0.1395  0.2096  2.6830
 5078SOL    HW216974   0.751   6.701   8.986  0.5044 -0.0831 -0.7665
 5079SOL     OW16975   6.686   4.932   4.697  0.2553 -0.1891  0.1486
 5079SOL    HW116976   6.720   4.935   4.608  2.7383 -2.2608  0.9038
 5079SOL    HW216977   6.712   4.846   4.730 -1.5746  0.0499  2.5358
 5080SOL     OW16978   1.769   7.890   3.231  0.1170  0.3690 -0.1148
 5080SOL    HW116979   1.746   7.857   3.144  1.0699  2.1229 -1.0883
 5080SOL    HW216980   1.846   7.839   3.256 -2.6083 -3.3148  1.7966
 5081SOL     OW16981   0.388   3.453   2.381  0.5030  0.5288 -0.5451
 5081SOL    HW116982   0.355   3.526   2.329 -0.7063  0.3249 -0.1007
 5081SOL    HW216983   0.409   3.491   2.466 -0.6646  0.2970 -0.1244
 5082SOL     OW16984   4.342   6.315   1.379 -0.0275 -0.2760  0.5614
 5082SOL    HW116985   4.277   6.375   1.416  0.6987  1.7634 -1.2400
 5082SOL    HW216986   4.419   6.370   1.363  1.5517 -2.2337  1.0144
 5083SOL     OW16987   7.391   3.098   8.333 -0.5632  0.2642 -0.2182
 5083SOL    HW116988   7.319   3.042   8.362 -0.0693  0.0178  0.5802
 5083SOL    HW216989   7.470   3.045   8.350  0.0047  1.6058  1.6306
 5084SOL     OW16990   2.976   0.337   2.982 -0.1776  0.1045  0.0477
 5084SOL    HW116991   3.007   0.343   3.072 -1.2575  3.5474  0.3194
 5084SOL    HW216992   3.055   0.337   2.929  0.4158  0.6352  0.9213
 5085SOL     OW16993   6.666   6.772   7.083  0.2615  0.4601 -0.2862
 5085SOL    HW116994   6.761   6.769   7.093  0.1328  0.1776  0.9543
 5085SOL    HW216995   6.646   6.707   7.015  0.7902 -0.8680  0.7945
 5086SOL     OW16996   9.469   5.674   3.846 -0.2681  0.4318  0.2248
 5086SOL    HW116997   9.418   5.686   3.926 -0.5930  0.1603  0.0593
 5086SOL    HW216998   9.406   5.687   3.775  0.0810  0.9598  0.0059
 5087SOL     OW16999   4.035   2.355   7.966  0.3331  0.3366  0.3111
 5087SOL    HW117000   3.952   2.383   8.003  0.2969 -1.2972  1.5475
 5087SOL    HW217001   4.101   2.403   8.017  0.1961  0.5008  0.3346
 5088SOL     OW17002   2.307   8.608   5.938 -0.1885 -0.0387  0.0810
 5088SOL    HW117003   2.299   8.513   5.925 -2.2664  0.0350  0.4958
 5088SOL    HW217004   2.307   8.644   5.849  0.9698 -0.4121 -0.0953
 5089SOL     OW17005   8.618   6.920   8.678  0.3099  0.1084  0.3300
 5089SOL    HW117006   8.567   6.839   8.684  1.6074 -0.8222 -0.5999
 5089SOL    HW217007   8.566   6.977   8.621 -0.7055  0.0201  1.1355
 5090SOL     OW17008   0.227   4.098   9.245 -0.0139  0.1101 -0.0301
 5090SOL    HW117009   0.252   4.070   9.333  0.5500  0.8537  0.0596
 5090SOL    HW217010   0.154   4.158   9.258 -1.9874 -2.1073 -0.2966
 5091SOL     OW17011   2.695   6.788   5.811 -0.2444  0.2637  0.0551
 5091SOL    HW117012   2.710   6.825   5.898 -1.5505  0.0821  0.3916
 5091SOL    HW217013   2.747   6.708   5.810 -0.4025  0.1359  0.7779
 5092SOL     OW17014   5.176   7.262   6.147 -0.0639  0.1968 -0.3787
 5092SOL    HW117015   5.110   7.316   6.191 -2.2939 -0.3273 -2.8014
 5092SOL    HW217016   5.193   7.190   6.208 -2.8685 -0.3952 -0.1688
 5093SOL     OW17017   9.112   7.550   1.157 -0.3503  0.4046 -0.0785
 5093SOL    HW117018   9.184   7.500   1.120 -0.2097  0.8083 -0.3457
 5093SOL    HW217019   9.139   7.641   1.151 -1.2394  0.6279 -0.9649
 5094SOL     OW17020   3.781   6.121   2.576 -0.0444  0.0577 -0.0750
 5094SOL    HW117021   3.787   6.032   2.611 -0.9599 -0.4255 -1.0796
 5094SOL    HW217022   3.754   6.109   2.485 -0.1041  1.3636 -0.2448
 5095SOL     OW17023   6.287   8.334   1.845 -0.3293  0.1582  0.4398
 5095SOL    HW117024   6.305   8.336   1.751 -1.7337 -1.3050  0.0896
 5095SOL    HW217025   6.301   8.424   1.874  2.4768  0.1780 -0.6602
 5096SOL     OW17026   1.643   8.373   8.226 -0.0535 -0.5652  0.0317
 5096SOL    HW117027   1.563   8.327   8.250 -1.1586  0.4044 -1.6509
 5096SOL    HW217028   1.633   8.394   8.134  1.3346  1.1862  0.2170
 5097SOL     OW17029   1.134   8.925   0.277 -0.4306  0.2080 -0.0420
 5097SOL    HW117030   1.149   8.990   0.346 -1.6590 -0.5093  0.9510
 5097SOL    HW217031   1.212   8.930   0.222 -0.5198  2.6050 -0.0741
 5098SOL     OW17032   9.194   7.718   2.277  0.2753 -0.2286  0.4123
 5098SOL    HW117033   9.213   7.624   2.277  0.3058 -0.2358 -0.5024
 5098SOL    HW217034   9.169   7.738   2.367  1.3523 -0.8884  0.8778
 5099SOL     OW17035   9.352   7.564   8.365 -0.3336 -0.0495 -0.8351
 5099SOL    HW117036   9.276   7.506   8.356 -0.8458  0.7172 -1.5367
 5099SOL    HW217037   9.322   7.635   8.421  0.2784 -0.4242 -0.0171
 5100SOL     OW17038   8.044   3.000   5.227 -0.8343  0.6133  0.1579
 5100SOL    HW117039   8.028   3.093   5.246  1.1809  1.1209 -0.3493
 5100SOL    HW217040   8.072   3.000   5.135  3.1404  0.1218  1.2098
 5101SOL     OW17041   4.392   4.800   0.956 -0.5419 -0.2512  0.6426
 5101SOL    HW117042   4.301   4.790   0.929 -0.3440 -0.0037 -0.1636
 5101SOL    HW217043   4.437   4.831   0.877  0.1381  0.1669  1.1830
 5102SOL     OW17044   2.131   9.222   3.181  0.2282 -0.2715 -0.5778
 5102SOL    HW117045   2.046   9.264   3.165  0.2989 -0.4939 -1.5990
 5102SOL    HW217046   2.169   9.210   3.094 -0.4434 -3.8334 -0.5430
 5103SOL     OW17047   0.183   7.069   0.885 -0.1283 -0.4489  0.6771
 5103SOL    HW117048   0.248   7.113   0.939 -0.8620  1.6528 -0.0451
 5103SOL    HW217049   0.119   7.034   0.948  0.9341 -1.3242  1.3083
 5104SOL     OW17050   2.100   6.380   6.273 -0.0103 -0.3157 -0.2238
 5104SOL    HW117051   2.063   6.431   6.345  2.9461  0.7591  0.6842
 5104SOL    HW217052   2.038   6.392   6.200 -1.4904  1.1183  1.1928
 5105SOL     OW17053   5.741   7.222   6.056  0.1231  0.3389  0.6520
 5105SOL    HW117054   5.684   7.145   6.064  1.2836 -0.5241  1.0205
 5105SOL    HW217055   5.717   7.278   6.130 -1.9400  1.2011 -0.6007
 5106SOL     OW17056   2.007   2.331   2.082  0.2404 -0.5449  0.1438
 5106SOL    HW117057   1.916   2.303   2.081 -0.0618  0.4271 -1.6981
 5106SOL    HW217058   2.030   2.345   1.991  2.3223 -0.9842  0.5410
 5107SOL     OW17059   1.115   4.880   0.924  0.6257  0.2144  0.0090
 5107SOL    HW117060   1.081   4.793   0.945  1.2409 -0.6695 -2.3389
 5107SOL    HW217061   1.180   4.898   0.992  2.5694 -2.4673 -0.9920
 5108SOL     OW17062   3.682   3.120   4.376  0.3788  0.1745 -0.0159
 5108SOL    HW117063   3.677   3.087   4.286 -1.7235 -0.3723  0.2592
 5108SOL    HW217064   3.757   3.179   4.375  0.7576 -0.2555 -1.9813
 5109SOL     OW17065   5.976   1.884   6.658 -0.3627 -0.1111  0.3215
 5109SOL    HW117066   5.956   1.899   6.751  0.1613  0.6084  0.3255
 5109SOL    HW217067   6.054   1.828   6.660 -0.9064 -0.8877  0.3048
 5110SOL     OW17068   2.193   3.435   5.737 -0.0262 -0.0627 -0.0247
 5110SOL    HW117069   2.219   3.392   5.655 -0.2806 -0.0543 -0.1125
 5110SOL    HW217070   2.099   3.448   5.728  0.0254  0.3978  0.0571
 5111SOL     OW17071   0.645   3.424   0.265  0.2204 -0.0830 -0.0339
 5111SOL    HW117072   0.566   3.432   0.318 -0.7798 -0.2343 -1.4361
 5111SOL    HW217073   0.710   3.387   0.324 -1.1407 -1.2137  0.8148
 5112SOL     OW17074   6.069   7.987   4.416  0.1643  0.4123 -0.6690
 5112SOL    HW117075   6.114   8.033   4.487 -0.7978 -0.4755  0.5473
 5112SOL    HW217076   6.111   8.020   4.336  1.5477  1.1247  0.3138
 5113SOL     OW17077   0.125   9.184   4.972  0.2962 -0.0482  0.1484
 5113SOL    HW117078   0.212   9.225   4.970  1.2161 -1.8107  1.4720
 5113SOL    HW217079   0.064   9.257   4.983  1.5280  1.2864 -1.3956
 5114SOL     OW17080   6.105   2.246   8.287 -0.1010 -0.0189  0.1004
 5114SOL    HW117081   6.161   2.323   8.291  0.6687 -0.5561 -0.2037
 5114SOL    HW217082   6.016   2.281   8.290  0.2229  0.9356 -0.7636
 5115SOL     OW17083   5.766   0.942   0.807 -0.5724  0.3261 -0.0289
 5115SOL    HW117084   5.850   0.959   0.763 -0.5589 -0.5937 -0.3718
 5115SOL    HW217085   5.752   1.020   0.862 -0.9762  1.9136 -2.2408
 5116SOL     OW17086   6.186   6.817   9.137 -0.1676  0.2924  0.2940
 5116SOL    HW117087   6.269   6.855   9.167 -0.3764  3.3370 -2.4334
 5116SOL    HW217088   6.119   6.875   9.173 -0.9227 -0.4686  0.1303
 5117SOL     OW17089   6.204   4.292   4.712 -0.2608  0.1934  0.1556
 5117SOL    HW117090   6.258   4.371   4.704 -0.0333  0.0729  0.4823
 5117SOL    HW217091   6.170   4.296   4.801  0.2073 -0.3679  0.3594
 5118SOL     OW17092   3.527   1.659   0.267  0.1454  0.0879  0.2026
 5118SOL    HW117093   3.594   1.683   0.202 -0.5745  0.6665 -0.3418
 5118SOL    HW217094   3.542   1.718   0.341 -1.0472  1.6821 -0.7654
 5119SOL     OW17095   6.665   0.728   7.303 -0.2167  0.3154  0.0477
 5119SOL    HW117096   6.598   0.662   7.320  0.1395 -0.1420 -0.3297
 5119SOL    HW217097   6.654   0.791   7.375 -0.5463 -0.1573  0.4213
 5120SOL     OW17098   5.992   3.883   8.712 -0.0691  1.2273  0.5323
 5120SOL    HW117099   5.933   3.957   8.729 -0.0988  1.1215  0.9038
 5120SOL    HW217100   5.942   3.806   8.740  0.7985  1.2599  2.3109
 5121SOL     OW17101   0.201   8.947   7.192 -0.2383  0.3415 -0.1657
 5121SOL    HW117102   0.220   9.000   7.269 -1.4126  1.9093 -0.9087
 5121SOL    HW217103   0.175   8.862   7.228  3.9199 -0.6525  1.0020
 5122SOL     OW17104   7.682   1.758   1.328  0.1606  0.4612 -0.1461
 5122SOL    HW117105   7.688   1.748   1.232 -0.6615 -1.9086 -0.0273
 5122SOL    HW217106   7.759   1.713   1.361  1.7489  3.3080  0.3368
 5123SOL     OW17107   5.726   5.939   2.473  0.2214  0.0910  0.1617
 5123SOL    HW117108   5.745   5.861   2.421 -0.9636  0.9206 -1.6166
 5123SOL    HW217109   5.686   6.000   2.411 -0.9420  1.2790  1.9794
 5124SOL     OW17110   1.407   5.257   5.390  0.2644 -0.7529  0.4827
 5124SOL    HW117111   1.434   5.227   5.477  1.5882 -0.6469  0.1327
 5124SOL    HW217112   1.395   5.176   5.340  3.4391 -0.8405 -0.3462
 5125SOL     OW17113   5.941   1.116   3.400  0.7401 -0.6332  0.4551
 5125SOL    HW117114   6.011   1.175   3.429  0.9949  0.7803 -2.6620
 5125SOL    HW217115   5.966   1.090   3.312 -1.9905 -1.2130 -0.2548
 5126SOL     OW17116   0.034   4.287   0.325 -0.0309 -0.3565  0.0298
 5126SOL    HW117117   0.047   4.365   0.271 -1.5484  0.1933  0.4143
 5126SOL    HW217118  -0.036   4.238   0.280  0.0607 -0.8744  0.4409
 5127SOL     OW17119   3.148   5.199   8.658 -0.7289 -0.0243  0.2778
 5127SOL    HW117120   3.077   5.254   8.624  0.7057  0.9647 -1.2960
 5127SOL    HW217121   3.185   5.250   8.730  0.5543  1.1470 -1.1334
 5128SOL     OW17122   9.405   2.355   3.894 -0.3548  0.3754  0.6461
 5128SOL    HW117123   9.462   2.397   3.958 -0.1908  1.4939 -0.1827
 5128SOL    HW217124   9.461   2.342   3.817 -0.7191 -0.3025  0.4858
 5129SOL     OW17125   7.203   9.208   5.172 -0.0449  0.4329 -0.0388
 5129SOL    HW117126   7.112   9.185   5.190  0.8139 -1.5231  2.2417
 5129SOL    HW217127   7.228   9.152   5.099 -1.0688  2.2032 -1.8547
 5130SOL     OW17128   0.879   4.389   5.564  0.2713 -0.0044 -0.3565
 5130SOL    HW117129   0.854   4.365   5.475  1.2455  0.2794 -0.7200
 5130SOL    HW217130   0.974   4.398   5.560  0.6949 -2.6568  1.3565
 5131SOL     OW17131   3.007   4.755   6.167  0.0610 -0.4168  0.2426
 5131SOL    HW117132   3.066   4.717   6.233  2.1205 -0.8960 -1.7265
 5131SOL    HW217133   2.959   4.680   6.132 -1.3544 -0.1027  1.4493
 5132SOL     OW17134   7.284   8.320   7.830 -0.8406 -0.2645 -0.3007
 5132SOL    HW117135   7.286   8.414   7.813  0.7183 -0.3092 -0.5316
 5132SOL    HW217136   7.229   8.310   7.908  0.6433  1.0534  0.9655
 5133SOL     OW17137   1.671   4.813   8.426 -0.0871  0.2286 -0.6731
 5133SOL    HW117138   1.751   4.761   8.428 -0.8849 -1.0489  1.7709
 5133SOL    HW217139   1.673   4.863   8.507 -1.7754  0.1476 -0.5494
 5134SOL     OW17140   5.997   9.032   4.229 -0.0068 -0.1415  0.8384
 5134SOL    HW117141   6.067   9.042   4.165  0.1279 -0.9218  0.8660
 5134SOL    HW217142   6.016   8.951   4.275 -0.7141 -0.1630  1.1163
 5135SOL     OW17143   0.022   7.999   3.524  0.4701 -0.4177 -0.0638
 5135SOL    HW117144  -0.011   7.911   3.506  0.4213 -0.5785  0.7541
 5135SOL    HW217145   0.081   7.987   3.598 -0.2522  0.3706  0.6595
 5136SOL     OW17146   2.488   6.533   7.045  0.1031 -0.0898 -0.0023
 5136SOL    HW117147   2.478   6.575   6.959  2.9827 -0.2928 -0.5247
 5136SOL    HW217148   2.545   6.592   7.094 -1.7886  0.2200  2.0116
 5137SOL     OW17149   3.426   6.741   1.197 -0.2451 -0.3318 -0.4168
 5137SOL    HW117150   3.516   6.747   1.166 -0.2502  0.9125 -0.2286
 5137SOL    HW217151   3.373   6.764   1.121 -0.5191 -2.7335 -1.0336
 5138SOL     OW17152   5.545   8.965   2.282  0.2688  0.2273 -0.1441
 5138SOL    HW117153   5.480   8.996   2.218  3.0862  0.2017 -3.2616
 5138SOL    HW217154   5.527   8.872   2.291 -1.6347  0.6372  1.1056
 5139SOL     OW17155   9.011   6.265   1.191  0.3331 -0.0636  0.0360
 5139SOL    HW117156   8.977   6.305   1.111  1.4955 -1.0171 -0.9793
 5139SOL    HW217157   8.933   6.233   1.237 -0.4235  1.2789 -0.2495
 5140SOL     OW17158   4.217   6.221   3.948  0.5660  0.0044 -0.2862
 5140SOL    HW117159   4.133   6.198   3.989  0.7703 -0.8034 -0.2954
 5140SOL    HW217160   4.206   6.312   3.920 -1.0883 -0.7510 -2.2856
 5141SOL     OW17161   1.261   5.135   2.567  0.7947 -0.0701  0.2881
 5141SOL    HW117162   1.276   5.044   2.593  1.0758  0.4205  1.9622
 5141SOL    HW217163   1.182   5.160   2.614  0.8152  0.6200 -0.0376
 5142SOL     OW17164   7.837   0.892   4.869  0.0610 -0.4338  0.2746
 5142SOL    HW117165   7.788   0.810   4.863 -1.7311  0.5779  0.3463
 5142SOL    HW217166   7.773   0.956   4.900  1.5060  0.9237  0.5699
 5143SOL     OW17167   7.994   7.674   1.966 -0.0420 -0.2637  0.2374
 5143SOL    HW117168   8.062   7.607   1.976  0.4219  0.2080  0.2693
 5143SOL    HW217169   7.962   7.688   2.055  0.9700  0.6986  0.4638
 5144SOL     OW17170   9.415   5.300   9.285 -0.0818  0.2463  0.4620
 5144SOL    HW117171   9.482   5.304   9.353 -0.9071  0.8687  1.2783
 5144SOL    HW217172   9.396   5.392   9.264 -0.8805  0.0963  0.4728
 5145SOL     OW17173   4.621   9.483   7.718  0.8920  0.1978  0.1020
 5145SOL    HW117174   4.681   9.530   7.660 -0.1700  0.5000 -0.8043
 5145SOL    HW217175   4.538   9.530   7.709  0.5873  0.0002  1.5788
 5146SOL     OW17176   1.623   9.321   8.796 -0.0050 -0.3432  0.1545
 5146SOL    HW117177   1.678   9.249   8.766  1.2891 -0.1848  1.9766
 5146SOL    HW217178   1.534   9.289   8.785  0.5215 -1.9241  0.1931
 5147SOL     OW17179   1.416   3.731   1.058 -0.4011  0.1505  0.5833
 5147SOL    HW117180   1.393   3.639   1.041  1.1117 -0.1420 -0.0166
 5147SOL    HW217181   1.457   3.730   1.144  0.8426  0.0124  0.0132
 5148SOL     OW17182   2.148   6.282   1.721  0.1266 -0.2727  0.3293
 5148SOL    HW117183   2.155   6.312   1.812  1.2617  0.8573 -0.0956
 5148SOL    HW217184   2.235   6.248   1.700  1.0390  2.6486 -1.3294
 5149SOL     OW17185   4.689   8.129   5.445 -0.3983 -0.1051  0.0152
 5149SOL    HW117186   4.672   8.145   5.352  1.3075  1.1490 -0.1323
 5149SOL    HW217187   4.765   8.071   5.446  0.2305  0.6952  0.5893
 5150SOL     OW17188   1.710   6.562   3.051  0.0271 -0.5549  0.0585
 5150SOL    HW117189   1.623   6.529   3.071  0.2634 -1.5956 -0.5636
 5150SOL    HW217190   1.733   6.617   3.126 -2.8222  3.2756 -1.5188
 5151SOL     OW17191   3.818   6.363   7.271  0.4712 -0.3501  0.0525
 5151SOL    HW117192   3.813   6.268   7.265  0.7063 -0.3343 -0.4003
 5151SOL    HW217193   3.763   6.385   7.347 -2.2740 -0.6016 -1.7006
 5152SOL     OW17194   0.810   1.495   3.087 -0.7893  0.0004  0.5105
 5152SOL    HW117195   0.810   1.465   3.178 -0.1579 -0.4003  0.3869
 5152SOL    HW217196   0.853   1.581   3.090  0.6426 -0.6829  0.3994
 5153SOL     OW17197   5.504   2.321   9.542  0.0796 -0.0162  0.0420
 5153SOL    HW117198   5.442   2.382   9.502 -1.4323 -1.6775 -0.2699
 5153SOL    HW217199   5.523   2.359   9.627  0.5481  1.7511 -0.8015
 5154SOL     OW17200   6.545   5.697   7.437 -0.1668 -0.0911  0.0704
 5154SOL    HW117201   6.544   5.630   7.369  0.2297 -0.5239  0.4822
 5154SOL    HW217202   6.617   5.671   7.495 -0.7768  0.0228  0.8987
 5155SOL     OW17203   3.699   1.641   8.949  0.2035  0.2814 -0.4708
 5155SOL    HW117204   3.758   1.596   8.889  0.5840 -0.2694  0.3032
 5155SOL    HW217205   3.619   1.656   8.898 -0.0095 -1.4724 -0.6909
 5156SOL     OW17206   8.860   4.379   4.489  0.1683  0.3772 -0.1721
 5156SOL    HW117207   8.899   4.465   4.476  1.0384 -0.1755 -1.4232
 5156SOL    HW217208   8.768   4.390   4.465  0.0929  1.1224  0.4285
 5157SOL     OW17209   9.478   3.111   5.865  0.0102 -0.0757 -0.0905
 5157SOL    HW117210   9.499   3.076   5.952 -1.5931 -0.3625  0.2230
 5157SOL    HW217211   9.499   3.040   5.805 -0.0485 -0.3447  0.2016
 5158SOL     OW17212   5.720   5.696   0.119  0.4154 -0.0894 -0.5074
 5158SOL    HW117213   5.805   5.739   0.109 -0.2864  2.0461  1.6823
 5158SOL    HW217214   5.660   5.749   0.068 -0.0313 -0.0857  0.0186
 5159SOL     OW17215   2.227   8.690   0.913  0.2704  0.5491  0.0070
 5159SOL    HW117216   2.132   8.696   0.900  0.5103  1.3112 -1.6582
 5159SOL    HW217217   2.247   8.597   0.901 -0.4107  0.1290  1.7927
 5160SOL     OW17218   4.662   2.015   2.275 -0.2197 -0.0719  0.4193
 5160SOL    HW117219   4.569   2.035   2.276  0.1909  2.1875  2.4176
 5160SOL    HW217220   4.676   1.960   2.352  0.3674  1.3756  1.3875
 5161SOL     OW17221   7.094   7.386   1.577  0.1046  0.1345  0.0792
 5161SOL    HW117222   7.089   7.294   1.554  1.4867 -0.0268  0.3534
 5161SOL    HW217223   7.020   7.400   1.636 -2.1642  0.0351 -2.5272
 5162SOL     OW17224   0.245   7.178   5.825  0.0679 -0.2958  0.0690
 5162SOL    HW117225   0.175   7.190   5.761 -0.6136 -0.4316  0.7734
 5162SOL    HW217226   0.200   7.162   5.907  0.9249 -1.1783  0.3963
 5163SOL     OW17227   7.887   4.167   6.381 -0.3365 -0.2436 -0.2671
 5163SOL    HW117228   7.972   4.126   6.392  0.6655  1.9002  0.5531
 5163SOL    HW217229   7.883   4.192   6.288  0.5308  0.8002 -0.0440
 5164SOL     OW17230   3.655   9.351   1.520  0.1059 -0.2923 -0.0429
 5164SOL    HW117231   3.616   9.266   1.541 -1.0207  0.3013  0.3697
 5164SOL    HW217232   3.592   9.392   1.460  0.5539  0.3216 -0.1093
 5165SOL     OW17233   9.221   5.271   2.292 -0.3498  0.1169  0.2125
 5165SOL    HW117234   9.154   5.205   2.274 -1.4781  0.6154  2.2549
 5165SOL    HW217235   9.194   5.347   2.241  1.0613 -0.9653 -2.3037
 5166SOL     OW17236   2.545   8.207   4.779 -0.2198  0.1105 -0.4574
 5166SOL    HW117237   2.477   8.172   4.722  1.0624  0.2327 -2.1379
 5166SOL    HW217238   2.593   8.269   4.724  1.9109 -0.7560  0.3443
 5167SOL     OW17239   5.637   8.701   6.619  0.3643  0.2425 -0.0010
 5167SOL    HW117240   5.689   8.781   6.616  0.5653  0.0920 -0.8214
 5167SOL    HW217241   5.648   8.662   6.532 -0.0456 -0.4746  0.2608
 5168SOL     OW17242   7.160   5.745   7.057  0.0510 -0.0867  0.1531
 5168SOL    HW117243   7.142   5.673   6.996  2.8434  0.0587 -1.0118
 5168SOL    HW217244   7.161   5.823   7.002  1.9090  0.1371  0.4181
 5169SOL     OW17245   8.143   0.577   8.669  0.3378  0.2624 -0.0781
 5169SOL    HW117246   8.211   0.623   8.619  1.4826  1.1679  2.1569
 5169SOL    HW217247   8.060   0.608   8.631  1.0877 -0.6956 -2.7189
 5170SOL     OW17248   4.205   4.594   8.161  0.2385 -0.4074  0.2475
 5170SOL    HW117249   4.269   4.613   8.230  0.8341  0.3567 -0.4936
 5170SOL    HW217250   4.137   4.543   8.205  0.4432  0.3314  1.4717
 5171SOL     OW17251   4.807   9.099   2.647 -0.3147 -0.3019  0.1537
 5171SOL    HW117252   4.835   9.047   2.723  0.1532 -0.7253 -0.3024
 5171SOL    HW217253   4.820   9.190   2.674  1.5888 -0.4815 -0.0571
 5172SOL     OW17254   6.969   1.364   2.532 -0.0630  0.4750 -0.0325
 5172SOL    HW117255   7.001   1.343   2.444  0.0557 -0.9048  0.3084
 5172SOL    HW217256   6.880   1.328   2.533  0.6811 -1.5045  1.0708
 5173SOL     OW17257   1.007   7.590   3.559  0.0596 -0.0118 -0.4855
 5173SOL    HW117258   1.095   7.616   3.533  0.3684 -0.5220  0.0131
 5173SOL    HW217259   0.950   7.625   3.491  0.7166 -0.2791 -1.1886
 5174SOL     OW17260   5.037   3.780   2.044  0.4038 -0.5484  0.1966
 5174SOL    HW117261   5.032   3.856   1.987  1.7199 -0.8662 -0.3838
 5174SOL    HW217262   4.950   3.773   2.084  0.1659  1.0399 -0.0031
 5175SOL     OW17263   0.102   2.804   5.767 -0.5631 -0.0859  0.1629
 5175SOL    HW117264   0.150   2.886   5.774 -0.0264 -0.5461  2.8697
 5175SOL    HW217265   0.012   2.827   5.790 -0.4278 -0.2255  0.8471
 5176SOL     OW17266   5.138   9.303   0.945  0.3105 -0.0264  0.2329
 5176SOL    HW117267   5.197   9.287   0.871 -2.4337  1.4690 -2.4434
 5176SOL    HW217268   5.091   9.220   0.956 -2.6757  0.9929 -3.1081
 5177SOL     OW17269   4.126   4.453   8.424  0.1478  0.1096  0.6332
 5177SOL    HW117270   4.132   4.387   8.493 -0.1843  1.2369  1.7749
 5177SOL    HW217271   4.216   4.464   8.393  0.3331 -0.2503  1.0338
 5178SOL     OW17272   1.602   3.781   0.872 -0.1864  0.5590  0.1698
 5178SOL    HW117273   1.519   3.793   0.917 -1.2386 -1.2150 -1.1651
 5178SOL    HW217274   1.654   3.728   0.931 -0.3231  0.9422  0.6385
 5179SOL     OW17275   8.653   3.735   3.606  0.1392 -0.7629 -0.4750
 5179SOL    HW117276   8.711   3.799   3.564  0.9299 -2.0006 -1.3530
 5179SOL    HW217277   8.576   3.731   3.549  1.5121 -2.9683 -2.4036
 5180SOL     OW17278   8.883   6.691   4.769  0.1934  0.2641  0.2603
 5180SOL    HW117279   8.911   6.671   4.680  0.4018  0.2914  0.3185
 5180SOL    HW217280   8.804   6.639   4.782 -0.5596  1.2114 -0.3833
 5181SOL     OW17281   5.650   9.086   6.343  0.2417 -0.2328  0.3358
 5181SOL    HW117282   5.640   9.053   6.432  1.7427  0.5873  0.8378
 5181SOL    HW217283   5.569   9.060   6.299  0.4326 -2.7089  1.2674
 5182SOL     OW17284   0.666   8.476   3.753 -0.0237  0.1309 -0.3730
 5182SOL    HW117285   0.575   8.456   3.731 -0.3626 -0.3044  1.2462
 5182SOL    HW217286   0.680   8.431   3.837  1.6274  0.3527 -0.5007
 5183SOL     OW17287   2.190   8.491   9.585  0.0647 -0.0089 -0.0443
 5183SOL    HW117288   2.225   8.522   9.501 -0.6350  1.1772  0.0817
 5183SOL    HW217289   2.137   8.564   9.617  1.9017  0.3876  2.3820
 5184SOL     OW17290   9.069   1.783   9.279 -0.3098 -0.1049 -0.5367
 5184SOL    HW117291   9.157   1.758   9.307 -0.3559 -0.0146 -0.3112
 5184SOL    HW217292   9.037   1.841   9.348  0.2436  1.5433 -1.6129
 5185SOL     OW17293   8.048   5.499   2.718 -0.7154  0.5413 -0.2810
 5185SOL    HW117294   8.138   5.528   2.735 -1.0893  1.9036 -0.4856
 5185SOL    HW217295   8.051   5.467   2.628 -0.2563 -0.2148 -0.0049
 5186SOL     OW17296   2.703   6.887   4.478 -0.2025  0.1018  0.2366
 5186SOL    HW117297   2.790   6.858   4.506  0.7479  1.5984 -0.9758
 5186SOL    HW217298   2.703   6.874   4.383 -2.1992 -1.9959  0.4372
 5187SOL     OW17299   4.982   7.579   3.553  0.2201  0.0232 -0.0340
 5187SOL    HW117300   5.046   7.512   3.574  0.2073  0.6325  2.2491
 5187SOL    HW217301   4.897   7.534   3.559  0.2536  0.0500  0.7459
 5188SOL     OW17302   8.250   1.348   6.200 -0.6343 -0.2641 -0.6419
 5188SOL    HW117303   8.262   1.344   6.295  2.5368 -1.5061 -0.9489
 5188SOL    HW217304   8.247   1.441   6.180  1.6725  0.1244  0.4906
 5189SOL     OW17305   6.595   7.309   6.799  0.3681 -0.0460  0.0715
 5189SOL    HW117306   6.614   7.216   6.796 -0.4182 -0.3115  1.9358
 5189SOL    HW217307   6.567   7.325   6.889  0.6868  2.0357 -0.1465
 5190SOL     OW17308   1.324   7.424   4.956 -0.7307 -0.0207 -0.0844
 5190SOL    HW117309   1.287   7.351   5.006  0.0675  0.7001  1.6421
 5190SOL    HW217310   1.387   7.383   4.898 -2.0095 -0.9377 -0.8893
 5191SOL     OW17311   7.366   3.454   6.322  0.7192  0.3126  0.0170
 5191SOL    HW117312   7.279   3.493   6.329  1.1890  1.7096 -1.4396
 5191SOL    HW217313   7.426   3.529   6.316  1.5879 -0.5212 -3.6584
 5192SOL     OW17314   7.177   7.215   0.262  0.4162  0.2874 -0.4139
 5192SOL    HW117315   7.127   7.291   0.294  0.2541  0.0992 -0.2203
 5192SOL    HW217316   7.267   7.236   0.285  0.1591 -0.4729  1.4657
 5193SOL     OW17317   5.339   2.439   6.170  0.0687  0.0813 -0.2801
 5193SOL    HW117318   5.335   2.523   6.124  1.0890  0.0847 -0.3922
 5193SOL    HW217319   5.248   2.417   6.188 -0.2114  1.2227 -0.2286
 5194SOL     OW17320   4.330   5.975   0.681 -0.0549  0.1649 -0.7089
 5194SOL    HW117321   4.281   5.917   0.622 -0.4171 -0.8917  0.5913
 5194SOL    HW217322   4.395   5.919   0.723 -0.6340  0.5929  0.8300
 5195SOL     OW17323   4.242   0.713   5.791 -0.0083 -0.2451 -0.2751
 5195SOL    HW117324   4.300   0.651   5.836 -1.2873  0.3105  2.2733
 5195SOL    HW217325   4.298   0.789   5.774  0.4602 -0.3742  0.6009
 5196SOL     OW17326   4.001   1.406   9.343 -0.1710 -0.1411  0.2728
 5196SOL    HW117327   4.078   1.349   9.344  1.4762  1.9682 -0.6756
 5196SOL    HW217328   3.941   1.364   9.282  1.1754 -0.6516 -0.7421
 5197SOL     OW17329   6.562   2.549   0.997  0.2168  0.0355 -0.3012
 5197SOL    HW117330   6.570   2.501   1.080  1.2666  0.1044 -0.3480
 5197SOL    HW217331   6.573   2.483   0.929 -1.2309 -0.1241 -0.4237
 5198SOL     OW17332   3.043   1.322   4.236  0.0323 -0.2351  0.0381
 5198SOL    HW117333   3.075   1.388   4.175  0.0837 -0.7520 -0.5107
 5198SOL    HW217334   2.948   1.319   4.221 -0.0942  0.3400  0.6984
 5199SOL     OW17335   5.935   6.434   9.085 -0.0984  1.0060  0.6264
 5199SOL    HW117336   5.939   6.361   9.147  0.4885  1.9640  1.7702
 5199SOL    HW217337   5.847   6.470   9.096 -1.1408 -0.7072 -1.4135
 5200SOL     OW17338   5.033   5.704   4.429  0.5239  0.2995  0.5662
 5200SOL    HW117339   5.076   5.780   4.392 -0.2064  0.4185 -0.0469
 5200SOL    HW217340   4.955   5.739   4.473  1.0003  0.0813  1.6352
 5201SOL     OW17341   2.453   8.285   2.297 -0.4566 -0.0450 -0.0620
 5201SOL    HW117342   2.443   8.266   2.390 -0.8325 -0.1520 -0.1225
 5201SOL    HW217343   2.491   8.373   2.294  0.6072 -0.4852  0.2082
 5202SOL     OW17344   8.576   7.025   4.540  0.8996  0.3129  0.0901
 5202SOL    HW117345   8.667   7.008   4.517  0.2854 -0.5823 -1.9028
 5202SOL    HW217346   8.527   6.955   4.497 -0.8572  1.5322 -0.0048
 5203SOL     OW17347   5.062   2.499   5.827 -0.6868 -0.6172 -0.1170
 5203SOL    HW117348   5.051   2.564   5.758 -2.2998 -1.2665 -0.5287
 5203SOL    HW217349   5.031   2.417   5.788  0.2442 -1.4051  0.7453
 5204SOL     OW17350   2.161   3.161   4.514  0.1895  0.3191  0.0393
 5204SOL    HW117351   2.224   3.095   4.485  0.1823  0.5270 -0.4697
 5204SOL    HW217352   2.214   3.226   4.561  0.1728 -0.1257  0.6904
 5205SOL     OW17353   7.816   6.484   3.047  0.3338  0.1989  0.2115
 5205SOL    HW117354   7.814   6.579   3.051 -1.5948  0.2601 -1.2588
 5205SOL    HW217355   7.890   6.464   2.989  1.4317  0.7131  1.3824
 5206SOL     OW17356   8.044   8.546   0.063  0.0795 -0.1488 -0.1863
 5206SOL    HW117357   8.108   8.617   0.067  0.6502 -0.7219  1.5394
 5206SOL    HW217358   7.983   8.563   0.135  2.3036 -3.2307  2.7531
 5207SOL     OW17359   3.929   9.463   2.669  0.0316 -0.1567  0.3637
 5207SOL    HW117360   3.927   9.479   2.574  2.1360  3.5600  0.7225
 5207SOL    HW217361   3.881   9.537   2.707  0.8395 -0.5349  2.2345
 5208SOL     OW17362   5.014   1.458   7.735  0.8769  0.3492 -0.8272
 5208SOL    HW117363   4.955   1.400   7.687  1.4734  1.3759 -2.9278
 5208SOL    HW217364   4.991   1.546   7.705 -0.6066  1.4262  2.9269
 5209SOL     OW17365   2.699   8.980   7.866  0.2287  0.3610  0.2640
 5209SOL    HW117366   2.752   9.059   7.863  0.9398 -0.1277 -1.0671
 5209SOL    HW217367   2.673   8.971   7.957 -0.1243  2.2770  0.3876
 5210SOL     OW17368   2.349   8.007   9.518  0.6478 -0.4448  0.1847
 5210SOL    HW117369   2.340   8.102   9.507 -0.0007 -0.4718  0.4028
 5210SOL    HW217370   2.272   7.982   9.571  0.1693 -1.2533 -0.8525
 5211SOL     OW17371   6.406   0.096   3.675  0.0301  0.1065  0.3916
 5211SOL    HW117372   6.448   0.085   3.589 -0.3682  0.0067  0.2094
 5211SOL    HW217373   6.318   0.062   3.663 -0.9283  2.5028  0.1105
 5212SOL     OW17374   7.118   0.980   9.145 -0.1412  0.0764 -0.1634
 5212SOL    HW117375   7.162   0.901   9.114 -1.5617 -0.9643  0.3241
 5212SOL    HW217376   7.162   1.001   9.228  0.8745  0.3838 -0.7667
 5213SOL     OW17377   8.847   9.219   1.819 -0.1351 -0.2306 -0.7071
 5213SOL    HW117378   8.770   9.268   1.849  0.0339 -0.5872  0.3549
 5213SOL    HW217379   8.857   9.149   1.884  1.2173 -0.0487 -0.6984
 5214SOL     OW17380   7.937   4.881   5.995  0.9218 -0.1110 -0.1910
 5214SOL    HW117381   8.007   4.816   5.988  0.8926 -0.1013 -0.6076
 5214SOL    HW217382   7.955   4.943   5.925  1.8645  1.2296  1.1897
 5215SOL     OW17383   5.261   8.370   5.817  0.7091 -0.1028  0.3880
 5215SOL    HW117384   5.313   8.402   5.890 -1.5818 -0.5606  2.3616
 5215SOL    HW217385   5.180   8.420   5.822  0.9333  0.7399 -2.7004
 5216SOL     OW17386   6.080   7.024   6.236 -0.4573 -0.2521  0.2691
 5216SOL    HW117387   6.115   7.114   6.232 -1.0959  0.0980  1.8564
 5216SOL    HW217388   6.124   6.979   6.164 -0.4742  1.4456 -0.8814
 5217SOL     OW17389   2.096   9.074   6.370 -0.1765 -0.5483  0.0834
 5217SOL    HW117390   2.017   9.078   6.317  0.6139 -1.0584 -1.1817
 5217SOL    HW217391   2.086   9.146   6.433 -0.5683  0.9463 -1.5857
 5218SOL     OW17392   4.530   0.394   2.629  0.3450  0.1797  0.4834
 5218SOL    HW117393   4.483   0.474   2.651  0.4846  0.3439  0.1876
 5218SOL    HW217394   4.474   0.348   2.567 -0.2512 -0.4959  1.4935
 5219SOL     OW17395   5.892   4.036   3.497  0.0274  0.1672  0.7665
 5219SOL    HW117396   5.916   3.999   3.582  1.1758  0.2886  0.5157
 5219SOL    HW217397   5.967   4.016   3.441 -0.6059  0.3140 -0.1544
 5220SOL     OW17398   4.817   0.032   0.812  0.1590 -0.8597  0.3910
 5220SOL    HW117399   4.876  -0.000   0.880  0.2267 -1.4455  0.0594
 5220SOL    HW217400   4.729   0.016   0.847  0.1793  0.0104  0.8838
 5221SOL     OW17401   5.651   6.479   0.935  0.3110  0.3222 -0.6087
 5221SOL    HW117402   5.639   6.444   0.847  1.2232 -1.0310 -0.2159
 5221SOL    HW217403   5.655   6.402   0.992  1.1918  1.1105  0.4309
 5222SOL     OW17404   8.361   2.488   4.109 -0.2968 -0.4701  0.6152
 5222SOL    HW117405   8.445   2.517   4.073 -0.7230  0.9496  0.7180
 5222SOL    HW217406   8.385   2.422   4.174  0.6722 -0.7993 -0.0391
 5223SOL     OW17407   1.199   2.665   0.268 -0.6599 -0.5691 -0.1143
 5223SOL    HW117408   1.223   2.724   0.196 -0.2650 -1.0766 -0.4160
 5223SOL    HW217409   1.220   2.713   0.347 -1.7976  0.2940 -0.3123
 5224SOL     OW17410   6.472   3.301   8.430 -0.0752 -0.5077 -0.6024
 5224SOL    HW117411   6.531   3.233   8.398  0.8725 -0.4103  0.8502
 5224SOL    HW217412   6.386   3.259   8.434  0.1558 -1.0709 -1.4082
 5225SOL     OW17413   8.002   2.868   3.451  0.3941 -0.3909  0.6234
 5225SOL    HW117414   8.034   2.821   3.527 -3.5589  0.6024  3.1964
 5225SOL    HW217415   8.056   2.946   3.446  0.0761  0.0766  3.2089
 5226SOL     OW17416   2.114   5.267   5.327  0.2419  0.0168  0.5030
 5226SOL    HW117417   2.160   5.185   5.345  1.8924  0.8479  0.2529
 5226SOL    HW217418   2.107   5.310   5.412 -0.9134 -0.5050  0.6872
 5227SOL     OW17419   1.157   4.957   8.348 -0.0469 -0.0120  0.1097
 5227SOL    HW117420   1.118   4.895   8.285  2.5688 -2.0681  0.3178
 5227SOL    HW217421   1.235   4.990   8.303 -0.2185  1.4750  0.8698
 5228SOL     OW17422   2.547   1.627   7.100  0.6672  0.0520  0.3335
 5228SOL    HW117423   2.472   1.570   7.084 -0.3778  1.0927  1.3057
 5228SOL    HW217424   2.510   1.716   7.099  1.3815  0.4790  3.2056
 5229SOL     OW17425   5.714   5.958   7.259 -0.3371  0.2809  0.0876
 5229SOL    HW117426   5.730   5.889   7.324  2.1863  0.4968 -0.2218
 5229SOL    HW217427   5.628   5.937   7.223 -1.1437 -0.7311  2.3773
 5230SOL     OW17428   1.039   6.216   5.450 -0.3781  0.2595  0.2366
 5230SOL    HW117429   0.991   6.296   5.431 -0.3883 -0.1082 -1.4070
 5230SOL    HW217430   1.092   6.238   5.527 -0.6567  1.7112  0.0424
 5231SOL     OW17431   3.611   9.508   5.916  0.3356  0.2975  0.0515
 5231SOL    HW117432   3.547   9.460   5.862 -0.7894  1.2192  0.5122
 5231SOL    HW217433   3.681   9.530   5.855 -0.3663  0.3120 -0.7830
 5232SOL     OW17434   5.622   3.983   2.544  0.0604  0.0316  0.4893
 5232SOL    HW117435   5.620   3.901   2.593 -0.4359  0.6976  1.5975
 5232SOL    HW217436   5.578   3.962   2.461  1.8633 -1.3866 -0.1873
 5233SOL     OW17437   6.807   5.741   9.476 -0.0760 -0.3291 -0.8063
 5233SOL    HW117438   6.849   5.701   9.400  0.8460 -1.0596  0.0633
 5233SOL    HW217439   6.868   5.810   9.503 -0.6812  0.3175 -1.0696
 5234SOL     OW17440   8.101   7.169   3.904 -0.1957 -0.1397 -0.2255
 5234SOL    HW117441   8.019   7.126   3.881 -0.3028  0.4593 -1.0127
 5234SOL    HW217442   8.164   7.137   3.839  0.2484 -0.7394  0.4842
 5235SOL     OW17443   2.091   2.153   8.138 -0.3724 -0.3541 -0.4584
 5235SOL    HW117444   2.114   2.084   8.200 -1.7581  1.8911  2.7899
 5235SOL    HW217445   2.004   2.129   8.107  0.3211 -1.4787 -1.6586
 5236SOL     OW17446   5.268   7.587   5.865  0.0950 -0.3559 -0.1237
 5236SOL    HW117447   5.337   7.523   5.884 -0.7177 -0.4310  3.0592
 5236SOL    HW217448   5.310   7.672   5.872  0.0729 -0.4267  1.0435
 5237SOL     OW17449   8.391   1.682   0.244 -0.1634 -0.8951 -0.1320
 5237SOL    HW117450   8.429   1.596   0.223  2.1152 -0.0369  0.2099
 5237SOL    HW217451   8.442   1.744   0.192  0.7086  0.5630  2.2901
 5238SOL     OW17452   8.059   8.186   1.912  0.0424  0.0432  0.6651
 5238SOL    HW117453   8.062   8.233   1.996 -0.4734 -1.5637  1.6212
 5238SOL    HW217454   7.983   8.128   1.920  0.1328 -0.3196 -0.8351
 5239SOL     OW17455   0.780   1.603   8.174  0.0248  0.2102 -0.0422
 5239SOL    HW117456   0.718   1.604   8.101 -1.2394 -1.3013  0.9586
 5239SOL    HW217457   0.726   1.615   8.252  0.8597 -1.7900  0.9137
 5240SOL     OW17458   1.790   3.221   8.334 -0.1837 -0.5986  0.4318
 5240SOL    HW117459   1.772   3.150   8.395 -1.2944  0.4897  1.4369
 5240SOL    HW217460   1.885   3.219   8.322  0.0121 -1.1748  1.8215
 5241SOL     OW17461   4.263   3.314   4.785  0.1808  0.1942  0.8968
 5241SOL    HW117462   4.309   3.313   4.701  0.4889  0.4989  1.0581
 5241SOL    HW217463   4.318   3.369   4.842 -0.8233  1.3010  0.8421
 5242SOL     OW17464   2.525   3.493   7.395 -0.5013 -0.1957  0.4006
 5242SOL    HW117465   2.580   3.497   7.317  1.2536 -3.8781  1.1917
 5242SOL    HW217466   2.440   3.461   7.363 -0.1483 -0.6007 -0.1516
 5243SOL     OW17467   3.838   8.530   9.487 -0.5177  0.0225  0.1932
 5243SOL    HW117468   3.753   8.527   9.442  0.3011 -0.5674 -1.3997
 5243SOL    HW217469   3.840   8.451   9.540 -1.1537  0.2856  0.6232
 5244SOL     OW17470   7.667   8.167   3.431 -0.5841 -0.7492 -0.0676
 5244SOL    HW117471   7.749   8.188   3.477  0.1893 -1.7998 -0.9136
 5244SOL    HW217472   7.612   8.244   3.445  1.2046  0.7738 -0.9596
 5245SOL     OW17473   6.900   1.946   9.582 -0.0869  0.2988  0.3523
 5245SOL    HW117474   6.828   1.991   9.538 -0.4226 -0.8090 -0.2539
 5245SOL    HW217475   6.866   1.927   9.669  0.0178  1.0958  0.5775
 5246SOL     OW17476   0.091   6.558   3.964 -0.1578 -0.3687  0.7901
 5246SOL    HW117477   0.149   6.591   3.895  0.2761 -0.1822  1.2372
 5246SOL    HW217478   0.037   6.492   3.921  0.8091 -0.9946  0.5019
 5247SOL     OW17479   9.481   7.554   3.578  0.4377  0.2577  0.0769
 5247SOL    HW117480   9.481   7.571   3.672 -0.6415  0.9420 -0.0310
 5247SOL    HW217481   9.533   7.474   3.568  0.4950  0.1362  1.2600
 5248SOL     OW17482   1.760   9.143   8.671 -0.3505  0.5173 -0.2281
 5248SOL    HW117483   1.804   9.101   8.598 -1.1599  0.1654 -0.5248
 5248SOL    HW217484   1.726   9.070   8.724 -1.1352  0.7811 -0.3571
 5249SOL     OW17485   9.211   8.523   6.701  0.3087 -0.0385 -0.2168
 5249SOL    HW117486   9.277   8.458   6.725  0.5730 -0.2525 -1.4671
 5249SOL    HW217487   9.261   8.596   6.664 -0.0497  0.4815  0.3070
 5250SOL     OW17488   7.697   8.956   3.967 -0.0258 -0.0846 -0.6619
 5250SOL    HW117489   7.640   8.987   3.896 -0.7327  0.4410  0.1234
 5250SOL    HW217490   7.773   9.015   3.964 -0.0836 -0.0238 -0.9464
 5251SOL     OW17491   3.981   8.074   0.013  0.0512  0.6947  0.0468
 5251SOL    HW117492   3.988   8.077  -0.082  0.3237  0.3289  0.0545
 5251SOL    HW217493   3.936   7.991   0.031 -0.7618  1.1538  0.1939
 5252SOL     OW17494   9.076   8.962   2.039  0.2304  0.8916  0.1327
 5252SOL    HW117495   9.135   8.918   2.099  0.6223  0.4388 -0.5777
 5252SOL    HW217496   9.132   8.997   1.970 -0.3552  0.0775 -0.7849
 5253SOL     OW17497   4.312   1.646   5.617  0.7017  0.4529 -0.2871
 5253SOL    HW117498   4.323   1.738   5.639 -1.7507  0.8082 -0.2203
 5253SOL    HW217499   4.378   1.629   5.550  0.6700  2.4755 -0.8878
 5254SOL     OW17500   0.716   3.360   4.037 -0.5512 -0.4589 -0.1532
 5254SOL    HW117501   0.807   3.331   4.050  0.2185  2.1068  0.9486
 5254SOL    HW217502   0.717   3.452   4.063 -3.0508  0.2221 -2.0991
 5255SOL     OW17503   7.836   7.856   4.337 -0.3603 -0.0285  0.4732
 5255SOL    HW117504   7.920   7.840   4.380  0.5605  2.3596 -0.3334
 5255SOL    HW217505   7.804   7.768   4.315  2.6657 -0.9916 -0.6232
 5256SOL     OW17506   9.574   0.695   7.466  0.3693 -0.4519 -0.1015
 5256SOL    HW117507   9.662   0.671   7.497  0.3729  0.5089  0.6765
 5256SOL    HW217508   9.523   0.705   7.546 -0.3230 -0.5140 -0.5319
 5257SOL     OW17509   1.623   8.333   3.736  0.0068  0.4294 -0.8287
 5257SOL    HW117510   1.534   8.296   3.743  0.6168 -0.7885  2.6598
 5257SOL    HW217511   1.618   8.415   3.785  1.0991 -0.5068  0.9723
 5258SOL     OW17512   8.065   7.580   3.486 -0.4626  0.3476  0.5365
 5258SOL    HW117513   7.995   7.522   3.459  1.2359 -1.3322 -0.5078
 5258SOL    HW217514   8.055   7.588   3.581 -1.2319 -1.0067  0.5918
 5259SOL     OW17515   8.254   9.420   0.459 -0.2491 -0.0139  0.1683
 5259SOL    HW117516   8.295   9.438   0.375 -1.9465  0.3162 -0.6290
 5259SOL    HW217517   8.239   9.507   0.497  1.4826 -0.1803  1.3466
 5260SOL     OW17518   6.150   6.712   1.266  0.3326 -0.7226 -0.4852
 5260SOL    HW117519   6.236   6.688   1.302  0.1031  0.4820  0.9317
 5260SOL    HW217520   6.097   6.633   1.275  0.5318 -0.7026  1.1125
 5261SOL     OW17521   3.327   8.637   9.011 -0.3972  0.0960  0.0956
 5261SOL    HW117522   3.258   8.571   9.013  0.6576 -1.3008 -3.3958
 5261SOL    HW217523   3.280   8.720   9.000 -1.6297 -0.7762 -1.6951
 5262SOL     OW17524   7.016   4.278   0.465  0.7699 -0.1800  0.0257
 5262SOL    HW117525   6.956   4.268   0.390  1.7275 -0.2255 -0.7586
 5262SOL    HW217526   6.958   4.289   0.540 -0.2268  0.1279 -0.7552
 5263SOL     OW17527   1.623   5.666   0.663  0.3820  0.2122 -0.2898
 5263SOL    HW117528   1.644   5.656   0.756 -1.1432  1.5589  0.2357
 5263SOL    HW217529   1.688   5.612   0.618  0.3718 -1.4857  1.6091
 5264SOL     OW17530   0.497   7.326   4.836 -0.1475  0.1515 -0.1593
 5264SOL    HW117531   0.532   7.291   4.755 -1.3780  0.1701 -0.7154
 5264SOL    HW217532   0.506   7.255   4.899 -1.0336 -0.5980 -0.8421
 5265SOL     OW17533   5.442   6.268   8.474 -0.0747 -0.0062  0.3743
 5265SOL    HW117534   5.387   6.251   8.551  0.2042 -3.1613  0.0104
 5265SOL    HW217535   5.389   6.237   8.400  0.8156  0.2145 -0.3651
 5266SOL     OW17536   6.320   2.163   6.343  0.0286 -0.3123 -0.0907
 5266SOL    HW117537   6.302   2.150   6.250 -2.3601  1.9905 -0.0834
 5266SOL    HW217538   6.281   2.088   6.386  0.5850 -1.0740 -0.8629
 5267SOL     OW17539   0.519   5.341   0.297 -0.1942  0.2342  0.2285
 5267SOL    HW117540   0.489   5.421   0.253  2.1648  1.1389  0.0633
 5267SOL    HW217541   0.595   5.313   0.245 -0.8783 -2.0886  0.3611
 5268SOL     OW17542   0.788   5.472   5.896 -0.2153  0.1757  0.3893
 5268SOL    HW117543   0.783   5.518   5.980  0.9915  0.5251  0.2808
 5268SOL    HW217544   0.847   5.526   5.843 -0.2427 -0.5306 -0.3668
 5269SOL     OW17545   5.888   5.907   4.121 -0.0892 -0.4835 -0.0906
 5269SOL    HW117546   5.847   5.992   4.108 -0.3737 -0.4104  1.1069
 5269SOL    HW217547   5.940   5.892   4.042  1.3217  1.5880  0.3835
 5270SOL     OW17548   2.963   0.231   1.251 -0.3584 -0.2434  0.1119
 5270SOL    HW117549   3.047   0.259   1.215  0.2356 -0.3877  1.3357
 5270SOL    HW217550   2.980   0.143   1.285 -1.1267 -0.4544 -0.0409
 5271SOL     OW17551   9.391   1.626   9.192 -0.2457 -0.3730 -0.1606
 5271SOL    HW117552   9.404   1.531   9.185 -0.0016 -0.5431  1.9305
 5271SOL    HW217553   9.381   1.642   9.286  2.2693  2.0162 -0.1798
 5272SOL     OW17554   6.353   5.189   1.427  0.7268 -0.6633 -0.0787
 5272SOL    HW117555   6.299   5.116   1.456  0.7085 -0.3235  0.7798
 5272SOL    HW217556   6.296   5.240   1.370  0.2198 -0.4698  0.5819
 5273SOL     OW17557   5.791   9.106   7.059 -0.3383 -0.7086 -0.5092
 5273SOL    HW117558   5.826   9.063   6.981 -0.9243 -1.4835 -0.3516
 5273SOL    HW217559   5.701   9.074   7.066 -1.7815  2.5266 -1.8984
 5274SOL     OW17560   7.637   1.733   2.240 -0.3928  0.0197 -0.0046
 5274SOL    HW117561   7.621   1.772   2.326 -0.3740  0.2885 -0.1213
 5274SOL    HW217562   7.571   1.774   2.183 -0.4665 -0.2273 -0.0970
 5275SOL     OW17563   2.383   4.310   9.076 -0.2797  0.0495  0.7502
 5275SOL    HW117564   2.430   4.230   9.097 -0.6535 -0.2175  0.5824
 5275SOL    HW217565   2.302   4.305   9.128 -1.2540 -0.6507 -0.7519
 5276SOL     OW17566   4.783   8.046   2.537  0.8502  0.2627 -0.3733
 5276SOL    HW117567   4.748   8.111   2.597 -0.0942  0.8178 -1.4865
 5276SOL    HW217568   4.716   7.978   2.532  1.1023  0.0184 -0.4800
 5277SOL     OW17569   6.931   4.934   5.646 -0.0717 -0.3160 -0.0372
 5277SOL    HW117570   6.884   4.962   5.568  0.4626  0.8579  0.0410
 5277SOL    HW217571   6.864   4.895   5.702 -1.0477  1.6652  0.2370
 5278SOL     OW17572   0.165   9.093   1.280  0.4129  0.0560  0.1107
 5278SOL    HW117573   0.245   9.138   1.253  0.0670  0.8485  0.3975
 5278SOL    HW217574   0.095   9.156   1.265 -0.1438 -0.5619  0.0483
 5279SOL     OW17575   3.283   6.780   0.664  0.3374 -0.5908  0.1178
 5279SOL    HW117576   3.349   6.721   0.701  1.6794 -0.6764 -2.2192
 5279SOL    HW217577   3.334   6.850   0.623 -1.0084 -0.5023 -1.5087
 5280SOL     OW17578   1.750   9.258   5.593  0.6134 -0.5293 -0.5733
 5280SOL    HW117579   1.693   9.192   5.554 -0.5298  0.1082 -0.0397
 5280SOL    HW217580   1.779   9.311   5.518 -1.6264  0.7365 -0.6509
 5281SOL     OW17581   2.519   2.304   4.397  0.1185 -0.0914 -0.2885
 5281SOL    HW117582   2.451   2.294   4.464  0.5618 -1.1279  0.0276
 5281SOL    HW217583   2.595   2.339   4.444  0.3532 -0.5899 -0.2863
 5282SOL     OW17584   0.840   9.103   2.431  0.1854  0.0634  0.0194
 5282SOL    HW117585   0.796   9.018   2.430 -0.1713  0.2431  0.1896
 5282SOL    HW217586   0.912   9.092   2.493  0.2304 -0.1551 -0.0684
 5283SOL     OW17587   3.790   9.313   4.600  0.0023 -0.2175  0.1648
 5283SOL    HW117588   3.759   9.398   4.569 -0.5851 -0.8789 -1.1319
 5283SOL    HW217589   3.817   9.329   4.690 -0.4652  1.2552  0.0700
 5284SOL     OW17590   3.270   0.641   6.913  0.4835  0.2297 -0.0918
 5284SOL    HW117591   3.243   0.556   6.878  1.3986 -0.6799  1.3462
 5284SOL    HW217592   3.338   0.621   6.977  1.6312  2.1476 -0.6210
 5285SOL     OW17593   3.353   4.499   6.840  0.3159 -0.8453  0.8336
 5285SOL    HW117594   3.387   4.563   6.903 -0.0917  0.5284 -0.2828
 5285SOL    HW217595   3.418   4.429   6.840  1.0038 -0.2385  1.7809
 5286SOL     OW17596   2.853   4.871   4.833 -0.1411 -0.3291 -0.1080
 5286SOL    HW117597   2.884   4.929   4.902 -0.5103 -0.9472  0.5893
 5286SOL    HW217598   2.865   4.921   4.752  1.9582 -0.2637  0.1985
 5287SOL     OW17599   5.824   1.671   2.633  0.0015  0.1410  0.1913
 5287SOL    HW117600   5.829   1.697   2.541  0.8592 -1.5227 -0.2768
 5287SOL    HW217601   5.828   1.575   2.632  1.4203  0.0967  2.0062
 5288SOL     OW17602   8.348   0.984   7.771 -0.5729 -0.2724 -0.2148
 5288SOL    HW117603   8.442   0.997   7.758 -0.1055 -1.7152  1.3343
 5288SOL    HW217604   8.321   1.059   7.823 -0.0860 -0.2950  0.0779
 5289SOL     OW17605   1.732   3.716   0.248 -0.0992  0.1484  0.2376
 5289SOL    HW117606   1.680   3.699   0.169  1.5310 -2.7674 -0.3343
 5289SOL    HW217607   1.823   3.706   0.220  0.5746  0.3297  2.2082
 5290SOL     OW17608   6.226   6.770   4.133  0.1161  0.4042  0.5990
 5290SOL    HW117609   6.258   6.860   4.135  0.3908  0.2930  1.8899
 5290SOL    HW217610   6.274   6.726   4.202 -2.1404  0.0020  2.0211
 5291SOL     OW17611   7.281   1.808   8.580  0.0178  0.2487 -0.2505
 5291SOL    HW117612   7.216   1.878   8.584 -0.3683 -0.1452  0.5811
 5291SOL    HW217613   7.365   1.853   8.596  0.1275  0.9363 -2.4244
 5292SOL     OW17614   0.163   6.564   9.293 -0.0662 -0.0727 -0.6639
 5292SOL    HW117615   0.079   6.608   9.284 -0.0091 -0.0784 -1.2353
 5292SOL    HW217616   0.228   6.635   9.292 -0.1392  0.1099  1.5379
 5293SOL     OW17617   4.650   4.985   6.783 -0.2436  0.0435 -0.4557
 5293SOL    HW117618   4.668   4.999   6.876 -0.4855  0.8102 -0.5178
 5293SOL    HW217619   4.729   4.942   6.750 -0.2216 -0.3800  0.1329
 5294SOL     OW17620   9.094   9.258   0.730 -0.1560  0.4267  0.0753
 5294SOL    HW117621   9.052   9.211   0.657 -1.7295 -0.4785  1.5011
 5294SOL    HW217622   9.036   9.332   0.748 -1.1958 -0.7799  2.0064
 5295SOL     OW17623   1.182   7.367   9.376  0.0148  0.2265  0.1478
 5295SOL    HW117624   1.173   7.285   9.425  0.8624  0.5123  0.8188
 5295SOL    HW217625   1.262   7.356   9.325 -0.1341  0.4514 -0.1344
 5296SOL     OW17626   9.609   0.498   7.929  0.0665 -0.3547  0.0334
 5296SOL    HW117627   9.601   0.593   7.923 -2.1756 -0.5643 -1.1554
 5296SOL    HW217628   9.679   0.476   7.868 -0.7709  0.3921 -1.2438
 5297SOL     OW17629   3.152   8.401   4.049  0.0937 -0.2742  0.1445
 5297SOL    HW117630   3.241   8.421   4.023 -0.5782 -0.0866 -2.2066
 5297SOL    HW217631   3.101   8.407   3.969 -1.5605 -3.2453  0.8150
 5298SOL     OW17632   9.554   3.150   7.336  0.1176 -0.1070  0.0582
 5298SOL    HW117633   9.581   3.188   7.253 -0.3942  0.5001  0.1577
 5298SOL    HW217634   9.574   3.217   7.401 -1.9269  0.5354  0.0840
 5299SOL     OW17635   5.836   2.170   9.217  0.3699  0.2448  0.3990
 5299SOL    HW117636   5.866   2.204   9.301  0.1498  1.5227 -0.0163
 5299SOL    HW217637   5.905   2.193   9.156  0.6604 -0.9281  0.2582
 5300SOL     OW17638   3.536   6.213   7.402 -0.0138  0.0504 -0.7337
 5300SOL    HW117639   3.556   6.306   7.408  3.6976 -0.6912  2.1595
 5300SOL    HW217640   3.618   6.172   7.375 -1.3815 -2.4507 -1.3857
 5301SOL     OW17641   0.301   4.669   5.288 -0.2855 -0.1445 -1.2411
 5301SOL    HW117642   0.328   4.747   5.238  0.3475  0.6040  0.2223
 5301SOL    HW217643   0.230   4.700   5.344  1.8864  0.2255  1.5198
 5302SOL     OW17644   3.226   4.923   5.247  0.2696  0.0330 -0.1276
 5302SOL    HW117645   3.245   5.003   5.296 -0.9760 -0.7496  1.7392
 5302SOL    HW217646   3.132   4.927   5.229  0.7796  0.6327 -3.2150
 5303SOL     OW17647   4.234   1.786   6.043  0.6302  0.0773  0.2301
 5303SOL    HW117648   4.300   1.800   6.110  0.7915 -0.4966  0.2030
 5303SOL    HW217649   4.255   1.700   6.006 -0.5846 -0.4715  0.7494
 5304SOL     OW17650   9.460   2.818   8.016 -0.2469  0.3894 -0.1203
 5304SOL    HW117651   9.374   2.830   7.976 -0.7277 -1.2918  0.3085
 5304SOL    HW217652   9.474   2.723   8.015  3.8037  0.6361 -4.6558
 5305SOL     OW17653   6.139   6.382   5.468  0.2312 -0.2542 -0.2090
 5305SOL    HW117654   6.050   6.367   5.434  0.2223 -1.2579  0.2111
 5305SOL    HW217655   6.154   6.309   5.528 -0.0368  1.8175  2.5558
 5306SOL     OW17656   4.988   2.123   3.736  0.3114 -0.0353  0.5513
 5306SOL    HW117657   4.968   2.111   3.643  1.5697  0.9077  0.1419
 5306SOL    HW217658   5.074   2.164   3.738  0.0218  0.5827  2.1239
 5307SOL     OW17659   3.501   7.713   8.513 -0.2899  0.4989 -0.5639
 5307SOL    HW117660   3.428   7.651   8.508  1.3304 -1.4457 -1.4814
 5307SOL    HW217661   3.502   7.756   8.427 -1.4130  1.8994  0.0717
 5308SOL     OW17662   3.689   6.726   3.908  0.1059  0.2606 -0.2795
 5308SOL    HW117663   3.759   6.664   3.928 -1.2266 -0.7705  1.4929
 5308SOL    HW217664   3.614   6.671   3.884 -0.8310  1.2046  0.3882
 5309SOL     OW17665   9.379   5.641   4.537  0.2272 -0.1541  0.2561
 5309SOL    HW117666   9.321   5.623   4.611  0.4285 -1.4415  0.1232
 5309SOL    HW217667   9.423   5.558   4.520  0.0525  0.0609 -1.4278
 5310SOL     OW17668   6.441   4.000   7.112  0.5254  0.5118  0.4377
 5310SOL    HW117669   6.482   4.015   7.027  0.0030 -1.6128 -0.2478
 5310SOL    HW217670   6.349   4.023   7.099  0.9087  2.7767  1.2502
 5311SOL     OW17671   8.554   4.614   0.756 -0.4116  0.3634 -0.4449
 5311SOL    HW117672   8.580   4.699   0.792 -0.5184  0.6621 -1.0583
 5311SOL    HW217673   8.574   4.620   0.663  1.3966 -0.9851 -0.1880
 5312SOL     OW17674   0.655   0.068   2.728 -0.6043  0.3906 -0.3320
 5312SOL    HW117675   0.659   0.023   2.813 -0.3131  0.5931 -0.2374
 5312SOL    HW217676   0.715   0.019   2.672 -0.0408  0.8469 -0.1379
 5313SOL     OW17677   5.367   0.258   1.730  0.3622  0.2929  0.3644
 5313SOL    HW117678   5.308   0.286   1.660  0.3317  0.7450  0.5659
 5313SOL    HW217679   5.453   0.254   1.688  0.3775  0.7597  0.3399
 5314SOL     OW17680   5.259   3.899   4.068  0.0422 -0.2384 -0.1484
 5314SOL    HW117681   5.217   3.820   4.101 -0.5763  0.4251  0.6770
 5314SOL    HW217682   5.353   3.880   4.072  0.0450 -0.0172  2.5289
 5315SOL     OW17683   8.964   2.589   0.939  0.3834  0.4286  0.3416
 5315SOL    HW117684   8.946   2.656   1.005  1.0880  0.2400  0.7466
 5315SOL    HW217685   8.996   2.637   0.863 -0.5143  0.6559  0.0928
 5316SOL     OW17686   3.077   5.059   7.651  0.4572  0.4146 -0.2570
 5316SOL    HW117687   3.104   4.967   7.649  0.1607  0.3293 -0.3808
 5316SOL    HW217688   3.046   5.078   7.562  1.8031  1.0299 -0.6154
 5317SOL     OW17689   2.791   6.173   7.357  0.5489  0.6611 -0.6200
 5317SOL    HW117690   2.702   6.203   7.335  0.5857  0.8043 -0.5729
 5317SOL    HW217691   2.849   6.233   7.309  0.6179  0.4085 -0.8582
 5318SOL     OW17692   5.941   4.716   1.563 -0.3109  0.1187  0.3379
 5318SOL    HW117693   5.928   4.805   1.530  0.2927  0.1165  0.0830
 5318SOL    HW217694   5.876   4.706   1.632 -1.3917  0.2327 -0.6398
 5319SOL     OW17695   4.269   8.656   7.173 -0.0961  0.0385  0.3503
 5319SOL    HW117696   4.192   8.619   7.129  0.4284 -1.4840  0.6779
 5319SOL    HW217697   4.328   8.582   7.186  1.0547  1.0176  0.9221
 5320SOL     OW17698   1.173   0.250   3.802  0.0041 -0.1661  0.7013
 5320SOL    HW117699   1.183   0.228   3.894 -1.7775 -2.4806  0.4409
 5320SOL    HW217700   1.251   0.302   3.781  1.8434 -1.8590  2.8357
 5321SOL     OW17701   8.498   1.701   5.554 -0.1398 -0.5155  0.1788
 5321SOL    HW117702   8.439   1.686   5.479  1.1743 -1.6377 -0.6707
 5321SOL    HW217703   8.572   1.748   5.516  1.0323 -2.0112  0.5337
 5322SOL     OW17704   6.038   4.261   0.603 -0.2225  0.3559  0.0738
 5322SOL    HW117705   5.947   4.232   0.613 -0.0167  0.2065  1.8302
 5322SOL    HW217706   6.089   4.197   0.651  0.7346  0.9609 -0.1045
 5323SOL     OW17707   7.050   2.094   6.128  0.6300  0.1313  0.2225
 5323SOL    HW117708   7.116   2.039   6.085  1.4881  1.2135  0.1204
 5323SOL    HW217709   7.089   2.117   6.212 -0.9579 -1.7999  1.5578
 5324SOL     OW17710   4.435   1.234   3.969 -0.8890 -0.0436 -0.2505
 5324SOL    HW117711   4.520   1.276   3.983 -1.3409  0.4572  1.1866
 5324SOL    HW217712   4.389   1.245   4.052 -2.1137 -0.8976 -0.7854
 5325SOL     OW17713   0.805   2.006   7.007 -0.1122  0.0662 -0.1554
 5325SOL    HW117714   0.804   1.964   7.093  0.3947  1.5526  0.6060
 5325SOL    HW217715   0.761   2.090   7.021  1.8854  1.2786 -0.8184
 5326SOL     OW17716   4.441   4.919   0.442 -0.4266  0.2043 -0.3589
 5326SOL    HW117717   4.401   4.975   0.376  0.5476 -0.5326 -1.6331
 5326SOL    HW217718   4.427   4.830   0.410 -0.7685 -0.2400  0.9413
 5327SOL     OW17719   0.244   4.280   8.117 -0.7236 -0.4880  0.4347
 5327SOL    HW117720   0.206   4.329   8.044 -0.6718 -1.3105 -0.1657
 5327SOL    HW217721   0.335   4.311   8.121 -0.4109 -1.2003 -0.5714
 5328SOL     OW17722   7.691   6.575   1.950  0.0965 -0.2658 -0.1637
 5328SOL    HW117723   7.768   6.620   1.916 -0.5430  1.9616  1.1097
 5328SOL    HW217724   7.720   6.537   2.032  0.3702 -1.3673 -0.7493
 5329SOL     OW17725   3.914   8.281   8.111 -0.9899 -0.2754 -0.3089
 5329SOL    HW117726   3.865   8.348   8.063 -1.1240 -0.4218 -0.3753
 5329SOL    HW217727   3.909   8.203   8.056 -0.5919 -0.2608 -0.3653
 5330SOL     OW17728   6.473   6.131   3.333 -0.0691 -0.5284  0.6928
 5330SOL    HW117729   6.550   6.154   3.281 -0.6359 -0.6940 -0.2442
 5330SOL    HW217730   6.499   6.051   3.379 -0.1092 -1.3495 -0.6455
 5331SOL     OW17731   3.131   3.608   5.347 -0.4494 -0.8329 -0.1251
 5331SOL    HW117732   3.082   3.688   5.333  0.7458 -0.0863 -0.1917
 5331SOL    HW217733   3.139   3.569   5.260  1.7669  0.6895 -0.6775
 5332SOL     OW17734   8.300   7.407   3.160  0.1855 -0.7968 -0.6762
 5332SOL    HW117735   8.378   7.392   3.108  0.3135  1.4037 -1.2422
 5332SOL    HW217736   8.240   7.453   3.101 -0.7372 -0.6559  0.3279
 5333SOL     OW17737   8.866   8.055   1.970 -0.6380  0.0757  0.1105
 5333SOL    HW117738   8.845   7.980   2.025  0.6685  0.2320  0.8510
 5333SOL    HW217739   8.934   8.023   1.910  0.3610  0.8058  0.8255
 5334SOL     OW17740   6.213   9.526   1.026 -0.0050  0.1073 -0.6696
 5334SOL    HW117741   6.123   9.548   1.000  0.1348  0.9364 -0.4751
 5334SOL    HW217742   6.210   9.432   1.046 -1.1002  0.3684  0.4825
 5335SOL     OW17743   7.031   8.896   9.426 -0.5986  0.3268 -0.2157
 5335SOL    HW117744   7.098   8.829   9.442 -0.8536  0.3140  0.8590
 5335SOL    HW217745   7.022   8.899   9.330  0.3019 -0.2914 -0.3266
 5336SOL     OW17746   7.040   1.190   3.236 -0.0535 -0.2669  0.9909
 5336SOL    HW117747   6.983   1.267   3.245  1.0279  0.7106 -0.1940
 5336SOL    HW217748   7.002   1.141   3.163 -2.8767 -2.8848  3.8879
 5337SOL     OW17749   3.572   7.548   4.530 -0.0712 -0.7346  0.0892
 5337SOL    HW117750   3.644   7.607   4.552  1.1400 -1.3348 -2.0084
 5337SOL    HW217751   3.521   7.542   4.611  0.5075  2.0720  0.7869
 5338SOL     OW17752   6.071   8.908   2.599  0.2043 -0.1254  0.3881
 5338SOL    HW117753   5.980   8.935   2.586  0.4044  0.9991  1.1195
 5338SOL    HW217754   6.118   8.944   2.524  0.2410  0.3595  0.6422
 5339SOL     OW17755   2.789   8.266   0.977  0.2905 -0.1257 -0.0735
 5339SOL    HW117756   2.770   8.175   0.955 -2.3177 -0.1565  1.8940
 5339SOL    HW217757   2.762   8.316   0.901  2.0153 -0.9288 -1.2916
 5340SOL     OW17758   4.932   3.689   0.862  0.3435  0.0362 -0.0391
 5340SOL    HW117759   4.864   3.749   0.894  2.8122  1.6557  2.6056
 5340SOL    HW217760   4.914   3.606   0.906 -1.0188 -0.1857 -0.9504
 5341SOL     OW17761   0.376   3.033   0.293  0.1465 -0.1788 -0.0182
 5341SOL    HW117762   0.466   3.057   0.270 -0.3101  2.4294  0.5287
 5341SOL    HW217763   0.322   3.101   0.252 -1.2995  0.1944  2.3168
 5342SOL     OW17764   9.090   2.425   9.420  0.4054  0.3801  0.6040
 5342SOL    HW117765   9.010   2.424   9.368  0.4045 -0.9140  0.5927
 5342SOL    HW217766   9.146   2.358   9.379  0.5963 -0.3110  1.9421
 5343SOL     OW17767   2.927   7.701   5.020 -0.4977  0.0851  0.2074
 5343SOL    HW117768   2.950   7.674   5.109  0.6573  2.1230  0.5759
 5343SOL    HW217769   2.977   7.641   4.964 -0.3996 -0.5315  0.9303
 5344SOL     OW17770   7.829   3.347   3.383 -0.6159 -0.3936  0.1327
 5344SOL    HW117771   7.754   3.289   3.396 -1.0462  0.0609 -0.2609
 5344SOL    HW217772   7.791   3.435   3.379 -0.0334 -0.1321  0.1862
 5345SOL     OW17773   2.701   3.098   0.874  0.2016  0.1093  0.9890
 5345SOL    HW117774   2.630   3.041   0.902  1.8758 -1.2969  2.7040
 5345SOL    HW217775   2.781   3.053   0.904  1.6480  3.8354  3.6394
 5346SOL     OW17776   5.000   8.741   7.699 -0.1510 -0.0602 -0.5079
 5346SOL    HW117777   5.095   8.743   7.689  0.0003 -0.8177  0.5080
 5346SOL    HW217778   4.984   8.670   7.762 -1.2281  1.4894  1.0630
 5347SOL     OW17779   2.103   1.172   7.215  0.2914 -0.0484 -0.2063
 5347SOL    HW117780   2.091   1.085   7.177  2.0139  0.0151 -0.9995
 5347SOL    HW217781   2.071   1.232   7.148  0.7814 -0.0304 -0.4318
 5348SOL     OW17782   7.710   2.020   1.278 -0.1972  0.0728 -0.2612
 5348SOL    HW117783   7.714   1.931   1.315  2.5776  0.7738  1.4412
 5348SOL    HW217784   7.703   2.006   1.184  1.0836 -2.0039 -0.1185
 5349SOL     OW17785   4.048   8.155   6.864  0.2978  0.0208  0.9246
 5349SOL    HW117786   4.033   8.209   6.941  0.9405  0.0110  1.0619
 5349SOL    HW217787   4.140   8.132   6.868  0.2083 -0.4488  0.4521
 5350SOL     OW17788   3.784   4.914   1.179  0.5033  0.2413  0.1711
 5350SOL    HW117789   3.807   5.007   1.183 -0.8249  0.5601  0.9338
 5350SOL    HW217790   3.775   4.896   1.085  0.5504  0.9304  0.0281
 5351SOL     OW17791   0.646   8.833   2.105  0.2631  0.0260 -0.5058
 5351SOL    HW117792   0.558   8.836   2.066  0.6599 -1.1686 -1.5391
 5351SOL    HW217793   0.635   8.782   2.185  0.0928 -0.5711 -0.8998
 5352SOL     OW17794   1.760   1.736   1.057 -0.0997  0.0364 -0.6842
 5352SOL    HW117795   1.722   1.815   1.019  1.7316  0.7313 -1.2074
 5352SOL    HW217796   1.788   1.762   1.145  0.9169  0.1281 -1.0218
 5353SOL     OW17797   9.503   6.397   6.618 -0.4531  0.0358 -0.4192
 5353SOL    HW117798   9.495   6.454   6.542  0.5356 -0.6543 -1.0646
 5353SOL    HW217799   9.585   6.423   6.660 -0.4737 -0.2723 -0.1797
 5354SOL     OW17800   5.920   8.299   4.254 -0.1968  0.1248 -0.5806
 5354SOL    HW117801   6.009   8.318   4.224  0.1415  0.0911  0.3694
 5354SOL    HW217802   5.912   8.347   4.337 -1.7632  1.7755 -1.6148
 5355SOL     OW17803   4.835   3.450   1.576  0.1145  0.0766  0.1006
 5355SOL    HW117804   4.899   3.380   1.589 -0.0747 -0.0251  0.5116
 5355SOL    HW217805   4.854   3.514   1.645  1.6618  1.4922 -1.5447
 5356SOL     OW17806   7.649   5.607   0.611 -0.6956 -0.0185 -0.1462
 5356SOL    HW117807   7.577   5.544   0.611  0.4776 -1.4006 -0.3881
 5356SOL    HW217808   7.726   5.556   0.636  0.1081  1.5638  0.7991
 5357SOL     OW17809   5.213   8.913   3.882  0.2358  0.4514 -0.3210
 5357SOL    HW117810   5.178   8.848   3.820  0.4258 -1.0021  1.0289
 5357SOL    HW217811   5.136   8.950   3.925  0.1814  0.1973 -0.2002
 5358SOL     OW17812   1.175   3.701   4.375  0.2964 -0.2709  0.5233
 5358SOL    HW117813   1.145   3.765   4.439  0.1034 -1.0223  1.2080
 5358SOL    HW217814   1.201   3.753   4.299 -0.0652  0.5935  0.9748
 5359SOL     OW17815   9.109   5.439   2.795  0.4463 -0.2776 -0.3078
 5359SOL    HW117816   9.102   5.368   2.731  0.3470 -2.0235  1.5713
 5359SOL    HW217817   9.053   5.508   2.759  0.6126 -1.0586 -2.2296
 5360SOL     OW17818   5.105   5.266   8.909  0.1913  0.3532 -0.0604
 5360SOL    HW117819   5.157   5.300   8.836  0.7358  0.6502  0.4516
 5360SOL    HW217820   5.042   5.207   8.868  1.5658 -0.7857 -0.6337
 5361SOL     OW17821   7.078   5.146   0.556 -0.1252 -0.2670 -0.0398
 5361SOL    HW117822   7.127   5.067   0.578  2.0165  1.0201  0.0333
 5361SOL    HW217823   7.106   5.169   0.467  0.0369  0.9471  0.3040
 5362SOL     OW17824   6.618   0.557   3.207  0.7873 -0.3173 -0.8021
 5362SOL    HW117825   6.666   0.491   3.156 -1.4819 -1.8508 -1.0987
 5362SOL    HW217826   6.600   0.627   3.145  0.0717 -1.1079 -1.5130
 5363SOL     OW17827   3.286   8.197   6.807  0.4132 -0.2860  0.1643
 5363SOL    HW117828   3.348   8.163   6.743 -1.0883 -2.9685 -0.0324
 5363SOL    HW217829   3.214   8.134   6.806  0.1181 -0.3142  4.2251
 5364SOL     OW17830   0.430   1.373   0.925  0.4571 -0.0774 -0.6631
 5364SOL    HW117831   0.402   1.326   0.847 -1.4543  1.3769 -0.9159
 5364SOL    HW217832   0.437   1.464   0.897 -0.1332  0.4529  0.8140
 5365SOL     OW17833   0.905   2.898   4.957 -0.0155 -0.1030 -0.0676
 5365SOL    HW117834   0.867   2.979   4.990  1.4264  0.7723 -0.4370
 5365SOL    HW217835   0.920   2.915   4.864  1.5796 -0.2503  0.1275
 5366SOL     OW17836   2.293   5.319   8.786 -0.2036  0.7690 -0.3752
 5366SOL    HW117837   2.237   5.385   8.745 -1.5213 -0.8604 -1.2936
 5366SOL    HW217838   2.308   5.254   8.717  0.9953  0.0368  0.5249
 5367SOL     OW17839   3.571   0.101   0.329  0.2265  0.2644 -0.1608
 5367SOL    HW117840   3.637   0.161   0.364 -0.3169  0.2672  0.9000
 5367SOL    HW217841   3.492   0.154   0.324  0.3290  0.3151 -1.6168
 5368SOL     OW17842   7.870   2.196   0.288 -0.2144 -0.5578 -0.2012
 5368SOL    HW117843   7.877   2.153   0.202  0.6227 -0.1790 -0.3349
 5368SOL    HW217844   7.917   2.137   0.347 -0.8193 -0.8348  0.0121
 5369SOL     OW17845   3.597   0.663   5.508  0.1402  0.0691 -0.9179
 5369SOL    HW117846   3.544   0.660   5.588 -0.3209 -1.0129 -1.2474
 5369SOL    HW217847   3.616   0.756   5.495 -2.4620  0.6189 -1.2964
 5370SOL     OW17848   2.352   4.090   2.689  0.1710 -0.2616  0.0358
 5370SOL    HW117849   2.257   4.099   2.697 -0.0102 -1.6869 -0.1758
 5370SOL    HW217850   2.385   4.100   2.779 -0.1693  0.3728  0.0872
 5371SOL     OW17851   0.892   3.108   5.352 -0.4601  0.3097 -0.1514
 5371SOL    HW117852   0.849   3.032   5.314  0.2895 -1.4896  2.3305
 5371SOL    HW217853   0.949   3.142   5.282 -0.1840 -1.9260 -1.0908
 5372SOL     OW17854   9.342   1.462   6.223  0.2133  0.1958 -0.1251
 5372SOL    HW117855   9.350   1.412   6.304  1.9810 -0.3258 -0.5780
 5372SOL    HW217856   9.427   1.453   6.180 -1.1933 -1.1025 -2.9364
 5373SOL     OW17857   4.860   6.877   4.016  0.1478  0.4987 -0.0639
 5373SOL    HW117858   4.888   6.968   3.999  1.1964  0.4873  1.4025
 5373SOL    HW217859   4.785   6.864   3.958 -0.2458  2.4240 -0.0698
 5374SOL     OW17860   3.121   5.422   4.127 -0.2841 -0.3374  0.6613
 5374SOL    HW117861   3.216   5.416   4.134 -0.2636  0.8740  1.9329
 5374SOL    HW217862   3.090   5.332   4.136  0.6204 -0.4742  3.2330
 5375SOL     OW17863   7.517   0.959   6.589 -0.3221 -0.3040 -0.6305
 5375SOL    HW117864   7.589   0.948   6.527 -0.3295 -1.0335 -0.5219
 5375SOL    HW217865   7.447   1.000   6.538 -0.1104 -0.3318 -0.9427
 5376SOL     OW17866   0.274   9.552   1.313 -0.2004  0.0128 -0.2308
 5376SOL    HW117867   0.239   9.639   1.333 -1.4180 -0.4224 -0.3671
 5376SOL    HW217868   0.198   9.494   1.320  0.9060 -1.3324  1.5879
 5377SOL     OW17869   6.500   3.027   7.730 -0.6044 -0.7436 -0.0773
 5377SOL    HW117870   6.591   3.044   7.705 -0.7912 -0.7335 -0.7845
 5377SOL    HW217871   6.463   3.113   7.748 -0.7942 -0.6348 -0.9527
 5378SOL     OW17872   4.044   2.959   6.392  0.4406 -0.0110  0.2038
 5378SOL    HW117873   3.972   3.023   6.390  0.7762  0.3505 -0.6442
 5378SOL    HW217874   4.077   2.964   6.481 -2.8041 -2.7253  1.8011
 5379SOL     OW17875   3.876   9.322   1.149  0.4178  0.7184 -0.0920
 5379SOL    HW117876   3.800   9.265   1.135  0.9616 -0.9426  2.9539
 5379SOL    HW217877   3.952   9.266   1.131  0.9476  1.1184  0.8371
 5380SOL     OW17878   3.416   1.035   6.541  0.0751 -0.2407 -0.6083
 5380SOL    HW117879   3.449   0.965   6.597 -2.5782 -0.5764  0.6724
 5380SOL    HW217880   3.454   1.115   6.579 -1.4658 -0.4874  1.6432
 5381SOL     OW17881   7.215   0.305   1.621 -0.4726 -0.3712  0.0822
 5381SOL    HW117882   7.186   0.374   1.681  1.2299  0.3657  0.1071
 5381SOL    HW217883   7.292   0.267   1.664 -2.0652 -3.2172  0.7039
 5382SOL     OW17884   1.256   4.806   3.984 -0.4238 -0.0496 -0.4943
 5382SOL    HW117885   1.282   4.898   3.991 -0.8730  0.1215 -1.0352
 5382SOL    HW217886   1.250   4.776   4.075 -1.0881  0.6799 -0.2909
 5383SOL     OW17887   4.385   2.224   0.994  0.7225 -0.1190  0.0984
 5383SOL    HW117888   4.351   2.155   0.936 -2.1264 -0.3404  1.8441
 5383SOL    HW217889   4.323   2.296   0.984  1.4748  0.7090  1.1695
 5384SOL     OW17890   6.096   2.444   3.009 -0.4602 -0.4676  0.0061
 5384SOL    HW117891   6.067   2.433   3.100 -2.8366  1.0944 -0.4855
 5384SOL    HW217892   6.095   2.355   2.974 -0.5757 -0.9712  1.2067
 5385SOL     OW17893   4.227   7.890   0.999 -0.3295  0.6400  0.8970
 5385SOL    HW117894   4.275   7.878   0.917 -0.5620 -0.7067  0.9521
 5385SOL    HW217895   4.224   7.985   1.010  0.1749  0.8259 -0.3723
 5386SOL     OW17896   0.591   6.887   8.099 -0.0906  0.1804  0.5057
 5386SOL    HW117897   0.667   6.830   8.091  0.2873  0.6473  0.7467
 5386SOL    HW217898   0.541   6.871   8.019  1.0956  1.1001 -0.4512
 5387SOL     OW17899   1.869   5.578   6.880  0.2089 -0.5133 -1.0286
 5387SOL    HW117900   1.934   5.517   6.915 -1.1861 -1.6161 -0.2003
 5387SOL    HW217901   1.798   5.521   6.848 -0.1512  0.6193 -2.3437
 5388SOL     OW17902   3.876   0.252   0.676 -0.0019  0.9560 -0.0492
 5388SOL    HW117903   3.898   0.159   0.678 -0.5126  0.7945 -1.0800
 5388SOL    HW217904   3.825   0.266   0.755  0.7395  0.5416  0.5175
 5389SOL     OW17905   0.612   4.335   0.269 -0.5623 -0.2304  0.7053
 5389SOL    HW117906   0.642   4.410   0.218  0.6696  0.0448  1.7799
 5389SOL    HW217907   0.692   4.294   0.302 -1.2668 -1.1955  1.2836
 5390SOL     OW17908   2.305   5.473   1.712 -0.8662  0.6072 -0.2915
 5390SOL    HW117909   2.281   5.475   1.804  0.3315 -0.0092  0.0557
 5390SOL    HW217910   2.273   5.389   1.680 -1.1009  0.7322 -0.3855
 5391SOL     OW17911   1.702   9.484   0.664 -0.4419 -1.0168 -0.3345
 5391SOL    HW117912   1.724   9.393   0.641 -1.1829 -1.3533  0.2490
 5391SOL    HW217913   1.631   9.507   0.605  1.4565  0.1270 -2.3344
 5392SOL     OW17914   8.088   4.632   8.535  0.3753  0.3307 -0.3668
 5392SOL    HW117915   8.021   4.678   8.585  0.7808  0.1783  0.3312
 5392SOL    HW217916   8.054   4.543   8.526  0.0947  0.4790 -0.7529
 5393SOL     OW17917   2.480   4.506   8.658 -0.5085  0.4183  0.2061
 5393SOL    HW117918   2.463   4.574   8.594 -1.1988  0.0669  0.0061
 5393SOL    HW217919   2.573   4.486   8.648 -0.6258  0.3189 -0.7359
 5394SOL     OW17920   5.156   5.910   2.921  0.0334 -0.2907  0.0451
 5394SOL    HW117921   5.146   6.002   2.898 -2.1435 -0.5404 -0.2747
 5394SOL    HW217922   5.214   5.874   2.854  0.2642  0.6912 -0.2929
 5395SOL     OW17923   8.707   8.856   2.153  0.8015  0.0744  0.2572
 5395SOL    HW117924   8.668   8.781   2.198  0.5894 -0.4310 -0.7477
 5395SOL    HW217925   8.758   8.817   2.082 -0.3276  0.9214 -1.0649
 5396SOL     OW17926   0.757   3.194   1.725 -0.3037  0.0257 -0.3014
 5396SOL    HW117927   0.735   3.159   1.812 -0.5006 -1.2630 -0.8401
 5396SOL    HW217928   0.739   3.121   1.666  2.3501 -0.0287 -1.1516
 5397SOL     OW17929   4.846   6.345   3.075  0.0045  0.3215  0.4343
 5397SOL    HW117930   4.864   6.276   3.139  1.6426  0.1171 -0.1874
 5397SOL    HW217931   4.754   6.336   3.054 -0.1151 -0.8226  1.3615
 5398SOL     OW17932   0.938   6.716   3.587  0.4331 -0.0026  0.7826
 5398SOL    HW117933   0.948   6.678   3.674 -3.8042 -2.1775  0.5997
 5398SOL    HW217934   0.872   6.784   3.598  0.8919  0.6913 -0.5483
 5399SOL     OW17935   9.040   2.085   8.868  0.2565 -0.0366 -0.2080
 5399SOL    HW117936   9.059   2.018   8.934  0.2001  1.1503  1.0727
 5399SOL    HW217937   8.996   2.155   8.917 -1.3046  0.1815 -1.8411
 5400SOL     OW17938   4.602   8.931   6.293 -0.0019  0.5393 -0.1993
 5400SOL    HW117939   4.509   8.957   6.294  0.2830  1.7058 -1.3122
 5400SOL    HW217940   4.650   9.013   6.297  0.9583  0.1731 -2.5108
 5401SOL     OW17941   6.339   8.816   5.519 -0.3917  0.3290  0.1745
 5401SOL    HW117942   6.295   8.823   5.603  0.1236  0.0019  0.4790
 5401SOL    HW217943   6.367   8.905   5.498  1.4858  0.1106  1.4649
 5402SOL     OW17944   9.235   3.648   8.594 -0.2440 -0.4567 -0.3889
 5402SOL    HW117945   9.331   3.643   8.592  0.0129  2.5408  0.1066
 5402SOL    HW217946   9.211   3.663   8.503 -0.1937 -0.5792 -0.4228
 5403SOL     OW17947   0.343   5.084   7.679  0.5337  0.2439  0.4268
 5403SOL    HW117948   0.261   5.108   7.722  0.1577  0.3421 -0.3332
 5403SOL    HW217949   0.326   5.095   7.585  1.6664  1.0584  0.2978
 5404SOL     OW17950   3.680   6.819   6.226  0.2369  0.0070  0.0410
 5404SOL    HW117951   3.723   6.757   6.285  0.0609  0.8018  1.0347
 5404SOL    HW217952   3.618   6.766   6.176  1.7856 -1.0201 -0.8725
 5405SOL     OW17953   5.867   1.682   9.514 -0.0658  0.4445 -0.1765
 5405SOL    HW117954   5.838   1.748   9.451 -0.1077 -2.0254 -2.9962
 5405SOL    HW217955   5.962   1.688   9.513 -0.1022  1.1675  0.4198
 5406SOL     OW17956   2.560   3.509   6.101  0.3939  0.1720  0.1508
 5406SOL    HW117957   2.543   3.432   6.156  2.2047  0.2169  0.8190
 5406SOL    HW217958   2.551   3.584   6.160 -0.0852  0.4061 -0.2073
 5407SOL     OW17959   8.238   9.560   3.363  0.0124 -0.0480 -0.0527
 5407SOL    HW117960   8.225   9.552   3.269 -2.7638 -0.8221  0.3111
 5407SOL    HW217961   8.333   9.568   3.374  0.5009 -1.1599 -2.8019
 5408SOL     OW17962   3.799   3.895   4.698 -0.2119 -0.0741  0.0183
 5408SOL    HW117963   3.838   3.902   4.611 -0.8115 -1.5291 -0.4083
 5408SOL    HW217964   3.869   3.860   4.753  0.4224  1.6305  0.3465
 5409SOL     OW17965   4.275   1.412   5.353 -0.1618 -0.1596 -0.5025
 5409SOL    HW117966   4.212   1.482   5.367  0.7789  1.0628 -2.0116
 5409SOL    HW217967   4.352   1.456   5.316  1.0083 -1.8009 -0.1383
 5410SOL     OW17968   0.029   7.038   9.338  0.2987  0.5605 -0.5502
 5410SOL    HW117969  -0.052   7.063   9.294 -1.4549  1.7873  3.0067
 5410SOL    HW217970   0.017   7.066   9.429  4.0867 -0.7037  0.5350
 5411SOL     OW17971   4.433   4.936   8.658 -0.0949  0.1472  0.0419
 5411SOL    HW117972   4.375   4.890   8.597 -0.5265  0.4989  0.1834
 5411SOL    HW217973   4.487   4.867   8.696 -2.1743 -0.5954  1.8823
 5412SOL     OW17974   0.552   1.832   9.578  0.4503  0.9259  0.2744
 5412SOL    HW117975   0.584   1.914   9.539  1.1378  1.2604  1.4797
 5412SOL    HW217976   0.488   1.860   9.643  1.5093  0.6208  1.5004
 5413SOL     OW17977   9.133   2.153   3.166 -0.4781 -0.4047 -0.0056
 5413SOL    HW117978   9.170   2.166   3.253  0.0225  0.6781 -0.3685
 5413SOL    HW217979   9.039   2.148   3.181 -0.2880 -2.4847  0.8419
 5414SOL     OW17980   0.297   5.918   6.031  0.1673  0.3085 -0.3305
 5414SOL    HW117981   0.285   5.945   6.122  0.6320 -0.4707 -0.0267
 5414SOL    HW217982   0.380   5.871   6.031 -1.3191 -2.5719 -0.4567
 5415SOL     OW17983   3.222   5.725   0.748 -0.1030  0.0818 -0.1211
 5415SOL    HW117984   3.157   5.671   0.793 -0.4073 -0.7753 -1.5205
 5415SOL    HW217985   3.214   5.700   0.656  0.4261  1.8456 -0.6736
 5416SOL     OW17986   6.957   5.291   6.602 -0.2726 -0.5224 -0.5239
 5416SOL    HW117987   6.931   5.363   6.659  1.4492  1.2323 -1.8424
 5416SOL    HW217988   6.875   5.256   6.568 -1.1221  1.7364 -0.9239
 5417SOL     OW17989   0.438   0.910   5.590  0.2817  0.0280 -0.6268
 5417SOL    HW117990   0.397   0.850   5.526 -1.5920  1.0638 -0.4647
 5417SOL    HW217991   0.493   0.853   5.644  0.4999 -1.1512 -2.0245
 5418SOL     OW17992   9.583   9.162   6.901  0.0988 -0.6004 -0.0904
 5418SOL    HW117993   9.504   9.152   6.849  0.5182 -1.3656 -0.6000
 5418SOL    HW217994   9.609   9.254   6.887 -1.4478  0.0701  1.2167
 5419SOL     OW17995   5.795   4.747   4.503  0.0527 -0.4266 -0.6922
 5419SOL    HW117996   5.797   4.735   4.408 -0.2561  0.1556 -0.7753
 5419SOL    HW217997   5.868   4.807   4.520  0.2774 -0.7463 -0.5301
 5420SOL     OW17998   8.215   4.673   6.545  0.5080  0.1085  0.3081
 5420SOL    HW117999   8.264   4.649   6.623 -0.4364  2.6504  1.8296
 5420SOL    HW218000   8.273   4.733   6.498  0.4906 -0.2333 -0.1547
 5421SOL     OW18001   8.838   2.179   4.986 -0.1061  0.4318  0.0900
 5421SOL    HW118002   8.829   2.244   4.916 -1.0896  1.1888  0.8960
 5421SOL    HW218003   8.911   2.212   5.039  1.0562 -0.4713 -0.8928
 5422SOL     OW18004   1.757   2.317   2.630  0.0280  0.8074 -0.0056
 5422SOL    HW118005   1.810   2.244   2.660 -0.9614  0.4005  0.8022
 5422SOL    HW218006   1.804   2.352   2.555  0.6602 -0.4797 -0.2258
 5423SOL     OW18007   5.370   4.160   7.762  0.0118  0.1088 -0.0236
 5423SOL    HW118008   5.432   4.102   7.718 -0.0584  0.2579 -0.3234
 5423SOL    HW218009   5.379   4.139   7.855  0.4897  0.1066 -0.0671
 5424SOL     OW18010   0.601   2.863   5.499  0.0528  0.2464 -0.2906
 5424SOL    HW118011   0.565   2.848   5.412 -1.2918 -2.6353  0.6201
 5424SOL    HW218012   0.681   2.811   5.501 -0.1530 -0.0636  0.2979
 5425SOL     OW18013   7.568   6.523   7.743 -0.4586  0.0067  0.0943
 5425SOL    HW118014   7.531   6.579   7.812 -0.4818 -0.4881  0.4833
 5425SOL    HW218015   7.660   6.511   7.769  0.3223  2.0765 -1.3938
 5426SOL     OW18016   2.830   3.386   4.837  0.1840  0.2481 -0.3423
 5426SOL    HW118017   2.764   3.443   4.877 -1.6995 -0.1001 -2.7783
 5426SOL    HW218018   2.785   3.303   4.822  2.2133 -1.2160  1.0066
 5427SOL     OW18019   5.329   9.199   8.937  0.3327 -0.1414  0.0605
 5427SOL    HW118020   5.264   9.128   8.937 -0.9064  0.9356 -1.4904
 5427SOL    HW218021   5.339   9.223   9.029 -1.3445 -0.4571  0.3448
 5428SOL     OW18022   2.387   3.431   0.108  0.7662  0.3853 -0.1022
 5428SOL    HW118023   2.363   3.521   0.085 -2.4377 -0.5994 -1.0266
 5428SOL    HW218024   2.338   3.413   0.188 -0.1412 -1.1329 -0.9682
 5429SOL     OW18025   2.851   7.215   7.037 -0.6101  0.0436  0.4648
 5429SOL    HW118026   2.903   7.138   7.061  0.2152  0.3194 -0.3490
 5429SOL    HW218027   2.912   7.270   6.988 -1.6291  0.4546 -0.3859
 5430SOL     OW18028   3.846   0.550   5.872 -0.0784  0.7905  0.5517
 5430SOL    HW118029   3.766   0.507   5.903 -0.8641  1.8809  0.0524
 5430SOL    HW218030   3.870   0.502   5.793  0.0348  0.1826  0.9385
 5431SOL     OW18031   8.617   4.058   1.789 -0.0137 -0.5254  0.9665
 5431SOL    HW118032   8.547   4.104   1.743  0.7238 -0.4876 -0.1601
 5431SOL    HW218033   8.697   4.104   1.763  0.6563 -1.9146  0.4615
 5432SOL     OW18034   0.648   8.708   1.203 -0.4532  0.7997  0.4711
 5432SOL    HW118035   0.723   8.653   1.225 -0.9521  0.2042  0.7040
 5432SOL    HW218036   0.572   8.651   1.214 -0.9101  1.2559 -0.2238
 5433SOL     OW18037   5.245   9.427   3.058  0.5353  0.6327  0.2849
 5433SOL    HW118038   5.211   9.405   3.145  1.3981 -0.1218  0.4412
 5433SOL    HW218039   5.338   9.444   3.072  0.4068  1.9096 -0.2651
 5434SOL     OW18040   0.293   9.352   2.141  0.3460 -0.5477 -0.0561
 5434SOL    HW118041   0.281   9.336   2.048  0.3096 -3.2621  0.3564
 5434SOL    HW218042   0.360   9.289   2.168  0.6686  0.4750  1.6903
 5435SOL     OW18043   6.854   2.979   8.695  0.6262  0.2176 -0.1063
 5435SOL    HW118044   6.924   3.005   8.636 -1.5487 -1.1114 -3.5569
 5435SOL    HW218045   6.798   3.056   8.701  0.1657 -0.0541 -0.8742
 5436SOL     OW18046   2.560   7.375   3.547 -0.0409  0.1117 -0.2266
 5436SOL    HW118047   2.522   7.346   3.630  1.1023 -1.2919 -0.1548
 5436SOL    HW218048   2.590   7.294   3.505  2.2199  1.0572 -0.5774
 5437SOL     OW18049   4.218   7.114   8.683  0.2676  0.0547 -0.0127
 5437SOL    HW118050   4.123   7.104   8.692 -0.2548  2.2347 -1.9948
 5437SOL    HW218051   4.238   7.079   8.597  1.1599  0.1499  0.1496
 5438SOL     OW18052   5.263   4.413   7.597  0.0823  0.3305  0.0146
 5438SOL    HW118053   5.333   4.456   7.548  0.3461  0.7490  0.7324
 5438SOL    HW218054   5.304   4.334   7.633  0.2010  0.5909  0.4596
 5439SOL     OW18055   8.286   5.456   4.085  0.0530  0.3615 -0.1423
 5439SOL    HW118056   8.217   5.395   4.111 -0.5137  0.6103 -1.0248
 5439SOL    HW218057   8.274   5.532   4.142  1.3956 -0.7026  1.6751
 5440SOL     OW18058   0.229   3.875   5.160 -0.0261  0.3705 -0.0472
 5440SOL    HW118059   0.256   3.833   5.241  2.0515 -1.3733 -1.5094
 5440SOL    HW218060   0.150   3.827   5.133  0.0468  0.0611  0.2780
 5441SOL     OW18061   9.476   2.759   7.298 -0.0977  0.3457 -0.2451
 5441SOL    HW118062   9.434   2.704   7.364 -0.7891 -0.3395 -1.2307
 5441SOL    HW218063   9.412   2.828   7.280  0.1085  0.5582 -0.1786
 5442SOL     OW18064   5.229   7.279   1.200 -0.3383  0.6003 -0.0678
 5442SOL    HW118065   5.278   7.357   1.173  0.5800 -0.1457 -0.6198
 5442SOL    HW218066   5.228   7.224   1.122  1.1703 -1.0118  0.9647
 5443SOL     OW18067   2.780   6.522   8.901  0.3464 -0.0972  0.4926
 5443SOL    HW118068   2.823   6.607   8.911 -0.0736  0.0189  1.4611
 5443SOL    HW218069   2.693   6.542   8.867  0.3493 -0.1701  0.4408
 5444SOL     OW18070   8.613   2.421   2.263  0.5044  0.2855  0.4059
 5444SOL    HW118071   8.661   2.471   2.329 -0.0361  1.0756  0.2081
 5444SOL    HW218072   8.590   2.339   2.307  1.6621  0.0585  0.6364
 5445SOL     OW18073   8.166   1.761   3.933 -0.0678  0.2719 -0.6296
 5445SOL    HW118074   8.166   1.836   3.873 -0.0878  0.1667 -0.7607
 5445SOL    HW218075   8.195   1.798   4.017  1.6247  0.1022 -1.1060
 5446SOL     OW18076   0.266   9.274   6.034 -0.1792 -0.1684  0.0521
 5446SOL    HW118077   0.326   9.206   6.066 -0.7532 -0.6302  0.1610
 5446SOL    HW218078   0.208   9.291   6.108 -1.0732 -0.7396 -0.4912
 5447SOL     OW18079   5.158   4.075   5.797 -0.1164  0.4696 -0.2050
 5447SOL    HW118080   5.190   4.008   5.738 -0.4451  0.4882 -0.4097
 5447SOL    HW218081   5.228   4.088   5.860  0.8413  1.4644 -1.4163
 5448SOL     OW18082   5.830   9.513   8.109  0.0730 -0.2767 -0.6046
 5448SOL    HW118083   5.876   9.586   8.148  0.5799 -0.7963 -0.2226
 5448SOL    HW218084   5.845   9.522   8.015  1.5193 -0.8087 -0.4395
 5449SOL     OW18085   0.548   3.860   3.082  0.3928 -0.2894  0.0638
 5449SOL    HW118086   0.559   3.769   3.057 -1.4861 -0.0555 -1.8801
 5449SOL    HW218087   0.576   3.910   3.006 -0.0722  0.7136  0.5292
 5450SOL     OW18088   8.064   5.095   3.957 -0.2887  0.1681 -0.3042
 5450SOL    HW118089   8.033   5.006   3.941  1.8761 -0.5264 -0.9783
 5450SOL    HW218090   8.115   5.117   3.879  1.8824  0.7309  1.1822
 5451SOL     OW18091   9.048   3.415   4.273 -0.2482  0.5610 -0.5263
 5451SOL    HW118092   9.049   3.427   4.368  3.5423  0.2131 -0.3543
 5451SOL    HW218093   9.073   3.500   4.238  0.3829  0.1798 -1.0364
 5452SOL     OW18094   1.723   6.392   0.469 -0.2926 -0.0414  0.7163
 5452SOL    HW118095   1.682   6.318   0.512 -2.0108  0.5874  0.2258
 5452SOL    HW218096   1.715   6.374   0.375  1.0849 -0.1597  0.5934
 5453SOL     OW18097   8.351   2.184   1.699 -0.0295  0.1084 -0.3180
 5453SOL    HW118098   8.439   2.162   1.730  0.4356  1.9738 -0.1722
 5453SOL    HW218099   8.297   2.109   1.724  1.5863 -1.2890 -0.8143
 5454SOL     OW18100   4.891   7.657   7.103 -0.3496  0.0975 -0.2858
 5454SOL    HW118101   4.892   7.617   7.016  1.4709  1.7541 -1.0834
 5454SOL    HW218102   4.980   7.645   7.136 -0.5717  0.9218  0.6505
 5455SOL     OW18103   4.746   8.330   5.041 -0.0701 -0.4088 -0.4302
 5455SOL    HW118104   4.726   8.423   5.051 -0.0850 -0.2490 -1.7654
 5455SOL    HW218105   4.839   8.323   5.064  0.0463  0.0193 -0.7541
 5456SOL     OW18106   5.073   7.437   1.398  0.0299  0.2329  0.4565
 5456SOL    HW118107   5.069   7.405   1.488 -1.0122 -2.4382 -0.4603
 5456SOL    HW218108   5.103   7.362   1.346 -0.0198  1.5047 -1.5381
 5457SOL     OW18109   9.035   1.747   8.826  0.3302 -0.2192 -0.0733
 5457SOL    HW118110   9.042   1.757   8.731 -0.2127  1.8714  0.0428
 5457SOL    HW218111   9.125   1.744   8.857  0.5180 -0.2846 -0.6166
 5458SOL     OW18112   0.656   1.156   4.647 -0.4853 -0.4211  0.2348
 5458SOL    HW118113   0.732   1.122   4.599 -0.5793 -0.1626 -0.1010
 5458SOL    HW218114   0.676   1.249   4.661 -1.6563  0.1837 -1.7178
 5459SOL     OW18115   0.656   5.108   6.175 -0.6631  0.6114  0.7382
 5459SOL    HW118116   0.693   5.186   6.218 -1.7923  2.2275 -1.0687
 5459SOL    HW218117   0.571   5.137   6.142  0.2861 -0.3417 -2.9598
 5460SOL     OW18118   6.631   4.176   8.986 -0.0451  0.6849 -0.4374
 5460SOL    HW118119   6.680   4.211   9.060  1.1477  1.1509 -1.4009
 5460SOL    HW218120   6.570   4.246   8.962  1.5376  1.7277 -1.6369
 5461SOL     OW18121   6.551   9.298   7.900 -0.4923 -0.1342  0.5015
 5461SOL    HW118122   6.490   9.224   7.897  0.0124 -0.5344 -0.8142
 5461SOL    HW218123   6.636   9.260   7.875 -0.3219  0.9522 -0.6801
 5462SOL     OW18124   1.923   0.456   6.606  0.6071 -0.4347 -0.0456
 5462SOL    HW118125   2.005   0.452   6.556 -0.1909  1.5237 -1.6122
 5462SOL    HW218126   1.934   0.531   6.664 -0.5278  0.6793 -1.2057
 5463SOL     OW18127   6.539   2.240   6.514 -0.3302  0.2540 -0.4908
 5463SOL    HW118128   6.460   2.223   6.463  0.3163 -1.0998 -1.0822
 5463SOL    HW218129   6.578   2.154   6.527  2.0794  1.0344 -1.9010
 5464SOL     OW18130   3.327   8.227   9.460  0.0049  0.5121  0.0915
 5464SOL    HW118131   3.391   8.271   9.515 -0.1270  1.1861 -0.2868
 5464SOL    HW218132   3.343   8.262   9.372 -0.4626  0.2130 -0.1135
 5465SOL     OW18133   3.582   3.881   4.965 -0.0866  0.3016 -0.1511
 5465SOL    HW118134   3.554   3.806   4.912  0.1916 -0.5915  0.9266
 5465SOL    HW218135   3.675   3.892   4.943  0.1554 -0.3823  0.4988
 5466SOL     OW18136   5.736   3.681   2.816 -0.4470  0.5182 -0.0504
 5466SOL    HW118137   5.689   3.695   2.734  0.2158  1.7751 -0.2355
 5466SOL    HW218138   5.717   3.759   2.868  0.1690  0.3178  0.4895
 5467SOL     OW18139   1.148   9.191   1.625 -0.0926  0.6674  0.4580
 5467SOL    HW118140   1.166   9.101   1.650 -0.2645 -0.1705 -2.1221
 5467SOL    HW218141   1.219   9.214   1.565 -0.2951  2.0862  0.7262
 5468SOL     OW18142   0.320   6.022   2.641 -0.0962 -0.5165  0.3134
 5468SOL    HW118143   0.297   5.930   2.655  1.3260 -0.8455  0.7431
 5468SOL    HW218144   0.298   6.065   2.724 -1.6699 -0.2502 -0.2196
 5469SOL     OW18145   2.088   8.423   7.610 -0.3031 -0.3453 -0.5755
 5469SOL    HW118146   2.072   8.347   7.554 -1.4145 -0.4289 -0.1669
 5469SOL    HW218147   2.124   8.385   7.690 -1.8793 -0.5788  0.0542
 5470SOL     OW18148   7.210   2.855   1.908 -0.0789 -0.7204 -0.0779
 5470SOL    HW118149   7.183   2.764   1.926 -1.9250 -0.0371  0.9106
 5470SOL    HW218150   7.196   2.901   1.991 -0.5606  0.7715 -0.9474
 5471SOL     OW18151   7.872   6.761   1.133  0.2052  0.0885  0.2582
 5471SOL    HW118152   7.905   6.792   1.217  0.4642  1.5841 -0.3516
 5471SOL    HW218153   7.777   6.771   1.140  0.1730 -0.4416  0.6093
 5472SOL     OW18154   4.873   2.440   7.011 -0.0327 -0.1483 -0.1757
 5472SOL    HW118155   4.856   2.346   7.013 -1.4870  0.1004  1.9232
 5472SOL    HW218156   4.862   2.465   6.919  2.0337 -2.2460 -1.1031
 5473SOL     OW18157   7.813   1.657   0.027  0.3259 -0.0572  0.3976
 5473SOL    HW118158   7.891   1.679  -0.024  0.4522 -2.3072 -0.4887
 5473SOL    HW218159   7.847   1.622   0.109  0.2742 -1.0399  0.0107
 5474SOL     OW18160   5.275   0.469   7.283  0.1042 -0.1611 -0.7266
 5474SOL    HW118161   5.338   0.400   7.308 -0.1930  0.3810  1.8204
 5474SOL    HW218162   5.330   0.542   7.254  0.7342  0.3346  1.5378
 5475SOL     OW18163   8.832   4.965   5.121  0.3796  0.0181  0.0291
 5475SOL    HW118164   8.754   4.963   5.067  0.4946 -0.9200 -0.1088
 5475SOL    HW218165   8.825   5.047   5.170 -0.5707  0.0520 -0.1466
 5476SOL     OW18166   5.175   2.620   8.750  0.6684  0.4574 -0.3436
 5476SOL    HW118167   5.155   2.686   8.816 -0.3962 -0.7934  0.6467
 5476SOL    HW218168   5.219   2.550   8.798 -0.7073 -0.7762 -0.7843
 5477SOL     OW18169   8.582   1.660   8.312 -0.0077 -0.0146  0.3090
 5477SOL    HW118170   8.676   1.673   8.324 -0.0178 -0.3288  0.7606
 5477SOL    HW218171   8.543   1.697   8.392 -0.1324 -1.5161  0.9743
 5478SOL     OW18172   7.213   7.858   7.703 -0.0734  0.4069 -0.0872
 5478SOL    HW118173   7.270   7.786   7.676 -1.1845 -1.0645  1.2875
 5478SOL    HW218174   7.138   7.815   7.744 -1.9740  2.2837 -1.3898
 5479SOL     OW18175   5.250   2.936   1.491 -0.3586 -0.5809  0.8304
 5479SOL    HW118176   5.315   2.901   1.551 -0.5328 -1.3801  0.5628
 5479SOL    HW218177   5.269   2.893   1.407  1.2599  2.0877 -0.3009
 5480SOL     OW18178   2.065   0.413   8.119  0.0637  0.5782 -0.2429
 5480SOL    HW118179   2.133   0.481   8.118  1.6312 -0.9067  0.0862
 5480SOL    HW218180   2.096   0.349   8.055 -0.2624 -0.8334  0.9630
 5481SOL     OW18181   6.170   3.809   3.926  0.0621  0.5280 -0.7607
 5481SOL    HW118182   6.218   3.759   3.993 -0.5658  0.5025 -0.3164
 5481SOL    HW218183   6.089   3.836   3.970 -0.9921 -0.6178 -1.8927
 5482SOL     OW18184   6.547   2.432   7.274  0.5599  0.0805  0.1412
 5482SOL    HW118185   6.540   2.336   7.274 -0.5944  0.1390  0.8059
 5482SOL    HW218186   6.584   2.453   7.360 -1.7156  0.3190  1.1490
 5483SOL     OW18187   5.341   5.059   9.244 -0.4916  0.1757  0.1655
 5483SOL    HW118188   5.389   5.048   9.326  0.4731  1.3611 -0.2160
 5483SOL    HW218189   5.382   5.133   9.201 -2.3497  0.9259 -0.4360
 5484SOL     OW18190   7.631   9.255   2.285 -0.6246 -0.3533 -0.1263
 5484SOL    HW118191   7.666   9.341   2.262 -1.2007 -0.2039 -0.4640
 5484SOL    HW218192   7.678   9.194   2.229 -1.4706 -0.0700 -1.1694
 5485SOL     OW18193   5.656   1.686   2.363  0.2758 -0.2349  0.4107
 5485SOL    HW118194   5.722   1.665   2.297  1.0970 -0.2045  1.2012
 5485SOL    HW218195   5.646   1.605   2.412  0.1944 -0.0513  0.6944
 5486SOL     OW18196   8.454   6.446   5.932  0.0308  0.1717 -0.2916
 5486SOL    HW118197   8.472   6.509   6.002 -2.3709  0.2472  0.3244
 5486SOL    HW218198   8.504   6.368   5.957 -1.6907 -0.2469  2.2546
 5487SOL     OW18199   8.746   4.997   8.678 -0.1837  0.0221 -0.3670
 5487SOL    HW118200   8.778   5.069   8.731 -0.6676  1.0479 -1.4248
 5487SOL    HW218201   8.822   4.968   8.628 -0.0563 -0.0092 -0.1569
 5488SOL     OW18202   6.996   4.293   8.763  0.2237 -0.2542 -0.0744
 5488SOL    HW118203   6.901   4.287   8.751  0.0192 -2.0144  1.8224
 5488SOL    HW218204   7.008   4.345   8.842  0.7696 -0.9442  0.3126
 5489SOL     OW18205   8.177   4.916   7.925  0.2017  0.2177  0.0095
 5489SOL    HW118206   8.226   4.998   7.914  2.7923 -1.2884 -0.4539
 5489SOL    HW218207   8.171   4.903   8.019  3.6898 -1.1142  0.1762
 5490SOL     OW18208   8.958   2.722   3.130  0.1746 -0.1311 -0.1136
 5490SOL    HW118209   8.866   2.749   3.137  0.0218 -0.7234  0.3172
 5490SOL    HW218210   8.981   2.736   3.039 -0.3944 -0.1235 -0.2582
 5491SOL     OW18211   3.404   0.571   5.724  0.1703 -0.0350  0.3704
 5491SOL    HW118212   3.315   0.590   5.696 -0.3035 -0.8607  1.2802
 5491SOL    HW218213   3.403   0.478   5.747  0.8895  0.2729  1.7624
 5492SOL     OW18214   8.009   9.009   9.170  0.3312  0.1347  1.0770
 5492SOL    HW118215   8.058   8.929   9.187 -0.0577 -0.5349 -0.7018
 5492SOL    HW218216   7.925   8.996   9.213  0.4027 -0.2478  1.0992
 5493SOL     OW18217   8.461   1.679   3.122 -0.1684 -0.5458 -0.0596
 5493SOL    HW118218   8.513   1.672   3.202  0.8331  0.9319 -0.5310
 5493SOL    HW218219   8.370   1.682   3.152  0.1061 -1.3791  0.9049
 5494SOL     OW18220   6.516   6.058   9.413  0.7586  0.8861  0.1117
 5494SOL    HW118221   6.478   6.041   9.499  1.2080  2.3676  0.6404
 5494SOL    HW218222   6.458   6.123   9.373  1.4949  1.5081  0.0232
 5495SOL     OW18223   1.509   5.458   0.349 -0.1281  0.0271  0.2645
 5495SOL    HW118224   1.592   5.494   0.381 -0.2672  1.6926 -1.0692
 5495SOL    HW218225   1.515   5.364   0.365  2.2863  0.0168 -0.3423
 5496SOL     OW18226   7.115   3.368   7.392  0.3115  0.2903  0.1608
 5496SOL    HW118227   7.128   3.460   7.412  0.6236  0.5038 -0.9370
 5496SOL    HW218228   7.144   3.321   7.470 -0.0389  1.1274  0.8008
 5497SOL     OW18229   2.969   2.326   1.770 -0.0413  0.1620 -0.1120
 5497SOL    HW118230   3.021   2.387   1.823 -0.9412  0.6455  0.2605
 5497SOL    HW218231   2.906   2.288   1.832 -0.9739  0.5700 -0.7723
 5498SOL     OW18232   6.837   2.468   2.720  0.0205  0.7045 -0.1986
 5498SOL    HW118233   6.803   2.557   2.715  0.6131  1.2010  2.5485
 5498SOL    HW218234   6.823   2.443   2.811 -2.2814 -2.9717 -1.3828
 5499SOL     OW18235   7.697   1.592   8.253 -0.3026  0.1828 -0.4521
 5499SOL    HW118236   7.688   1.500   8.276 -1.0561  0.6454  1.2745
 5499SOL    HW218237   7.617   1.613   8.206 -0.4514  0.1243 -0.2257
 5500SOL     OW18238   2.571   1.434   1.629  0.3197  0.1884  0.5851
 5500SOL    HW118239   2.579   1.372   1.557 -0.7557 -0.8615  1.3253
 5500SOL    HW218240   2.541   1.515   1.588 -0.4866 -0.4522 -0.1265
 5501SOL     OW18241   7.365   6.435   2.941 -0.4490 -0.6547 -0.2773
 5501SOL    HW118242   7.274   6.440   2.970 -0.0494 -1.7768  1.2985
 5501SOL    HW218243   7.368   6.360   2.882 -0.9731  0.7781 -2.2159
 5502SOL     OW18244   3.068   6.480   4.285 -0.3819 -0.3518  0.2245
 5502SOL    HW118245   3.077   6.574   4.270  1.5739 -0.3754  0.9955
 5502SOL    HW218246   3.091   6.440   4.202 -0.8882 -0.1636 -0.0095
 5503SOL     OW18247   6.809   5.585   7.222  0.6587 -0.3735 -0.0162
 5503SOL    HW118248   6.746   5.541   7.279  2.1002 -1.1119  1.0562
 5503SOL    HW218249   6.799   5.541   7.137 -0.3544 -0.3768  0.0918
 5504SOL     OW18250   5.025   4.627   9.302  0.1471 -0.0763  0.0867
 5504SOL    HW118251   4.972   4.600   9.227  0.9970 -0.1380 -0.4926
 5504SOL    HW218252   5.091   4.686   9.266 -0.0351  0.6829  0.9388
 5505SOL     OW18253   5.146   8.605   4.092 -0.5208  0.0542 -0.1731
 5505SOL    HW118254   5.233   8.621   4.129 -0.8913 -0.6113  1.0746
 5505SOL    HW218255   5.135   8.671   4.024  2.0506 -1.5042 -2.3150
 5506SOL     OW18256   3.931   7.105   3.416 -0.0683  0.1799 -0.5364
 5506SOL    HW118257   3.887   7.022   3.399 -0.3916  0.4554 -1.0653
 5506SOL    HW218258   3.966   7.096   3.505 -1.4953  0.0800  0.0453
 5507SOL     OW18259   6.689   1.165   4.146 -0.3718  0.1866 -0.1152
 5507SOL    HW118260   6.594   1.176   4.150 -0.2867  0.5253  1.7560
 5507SOL    HW218261   6.724   1.237   4.199  0.9373 -0.0115 -0.6560
 5508SOL     OW18262   3.645   1.581   3.139  0.0654  0.0855 -0.5031
 5508SOL    HW118263   3.628   1.623   3.055  1.2741  2.1412  0.2051
 5508SOL    HW218264   3.679   1.651   3.195 -0.3115 -1.2902  1.5968
 5509SOL     OW18265   5.127   4.709   4.382 -0.8747 -0.2455 -0.1849
 5509SOL    HW118266   5.072   4.638   4.414 -1.4367 -0.6827 -2.0259
 5509SOL    HW218267   5.179   4.735   4.459  0.0089 -3.2325  0.3758
 5510SOL     OW18268   6.058   8.406   2.860 -0.2518 -0.3287  0.1782
 5510SOL    HW118269   6.134   8.363   2.820 -0.8510 -1.1595 -0.0927
 5510SOL    HW218270   5.983   8.359   2.824 -0.8371 -0.8825  2.0176
 5511SOL     OW18271   8.161   8.680   7.474 -0.4928  0.3204 -0.5321
 5511SOL    HW118272   8.220   8.677   7.399  0.9377  1.4546  0.4820
 5511SOL    HW218273   8.097   8.748   7.452 -1.4140 -0.8665 -1.6094
 5512SOL     OW18274   6.059   0.759   6.594 -0.1377 -0.5117  0.1283
 5512SOL    HW118275   6.041   0.682   6.540 -1.9956 -1.6751  2.2392
 5512SOL    HW218276   6.153   0.755   6.611 -0.0639 -1.8452 -0.4619
 5513SOL     OW18277   8.820   7.590   7.913 -0.3222  0.0648 -0.1425
 5513SOL    HW118278   8.910   7.622   7.910 -0.8333  1.6030  0.1496
 5513SOL    HW218279   8.819   7.516   7.852  1.4265 -0.8143  0.7880
 5514SOL     OW18280   3.095   8.037   0.744 -0.0851 -0.1989 -0.7219
 5514SOL    HW118281   3.182   8.069   0.719 -0.6971  1.5034 -0.8627
 5514SOL    HW218282   3.036   8.109   0.719 -1.6948 -1.8206 -1.8040
 5515SOL     OW18283   9.089   9.186   0.324 -0.1957 -0.0034 -0.2775
 5515SOL    HW118284   9.085   9.118   0.257  0.9024 -0.3339 -0.0430
 5515SOL    HW218285   9.032   9.155   0.394 -0.4312 -0.2303 -0.5702
 5516SOL     OW18286   0.446   3.304   9.210  0.1979  0.1459 -0.2115
 5516SOL    HW118287   0.452   3.250   9.288 -0.1954 -0.3120 -0.4893
 5516SOL    HW218288   0.478   3.247   9.139  2.6257  1.2436 -0.1074
 5517SOL     OW18289   0.383   7.898   0.990 -0.5945  0.4936 -0.9819
 5517SOL    HW118290   0.366   7.836   0.918  2.1701  1.1718 -2.3692
 5517SOL    HW218291   0.429   7.971   0.949  0.6313  1.1749  1.3817
 5518SOL     OW18292   5.172   8.314   7.009  0.0475 -0.3004 -0.0636
 5518SOL    HW118293   5.168   8.367   6.929  1.2640  0.8548  0.6051
 5518SOL    HW218294   5.221   8.236   6.983 -2.6745 -1.7442 -1.3375
 5519SOL     OW18295   4.520   6.432   5.874  0.4922 -0.0163  0.0175
 5519SOL    HW118296   4.496   6.467   5.788  0.7609 -0.6683 -0.3298
 5519SOL    HW218297   4.441   6.388   5.905  1.0599 -1.8056 -0.9443
 5520SOL     OW18298   4.930   0.774   0.052 -0.2444  0.1205 -0.1359
 5520SOL    HW118299   4.931   0.682   0.076  1.0012 -0.1351 -1.0435
 5520SOL    HW218300   5.020   0.804   0.069 -0.5329  1.0623 -0.2192
 5521SOL     OW18301   4.583   4.305   6.185  0.0028  0.9173  0.2586
 5521SOL    HW118302   4.628   4.352   6.115  0.3996  2.7797  1.6909
 5521SOL    HW218303   4.652   4.254   6.228  0.1397  1.3343  0.5318
 5522SOL     OW18304   6.634   4.486   8.594  0.5429 -0.2966 -0.1549
 5522SOL    HW118305   6.688   4.491   8.515  1.2404 -1.3659  0.2262
 5522SOL    HW218306   6.671   4.412   8.643 -0.1713  0.0611  0.9486
 5523SOL     OW18307   4.635   6.593   0.648  0.2252 -0.0450  0.3104
 5523SOL    HW118308   4.650   6.664   0.586 -1.2803 -1.2311 -1.5158
 5523SOL    HW218309   4.549   6.559   0.625  0.0934 -1.2713  2.3654
 5524SOL     OW18310   1.086   8.147   6.467 -0.2208 -0.0790 -0.3760
 5524SOL    HW118311   0.998   8.174   6.441  0.4389  1.0779 -1.5203
 5524SOL    HW218312   1.115   8.215   6.528 -0.1150 -0.4675  0.0097
 5525SOL     OW18313   3.126   2.779   7.462 -0.0306 -0.1441  0.8002
 5525SOL    HW118314   3.179   2.772   7.383 -1.1066  0.2804  0.0064
 5525SOL    HW218315   3.058   2.843   7.439 -2.2519 -2.2772  0.9404
 5526SOL     OW18316   1.613   5.005   6.794  0.4622  0.4631 -0.3284
 5526SOL    HW118317   1.654   5.074   6.741  1.1637 -0.3335 -0.8639
 5526SOL    HW218318   1.683   4.941   6.808 -0.1077 -0.0231  0.3629
 5527SOL     OW18319   6.490   7.359   5.292 -0.2054  0.0916 -0.6615
 5527SOL    HW118320   6.543   7.432   5.324  1.2293 -1.4912  0.7541
 5527SOL    HW218321   6.553   7.290   5.272 -1.6057 -1.3212 -0.3996
 5528SOL     OW18322   7.671   3.315   0.697  0.2542 -0.3754 -0.3871
 5528SOL    HW118323   7.644   3.397   0.654 -1.1338 -0.6692 -0.1243
 5528SOL    HW218324   7.627   3.318   0.782  1.4573 -0.6861  0.2631
 5529SOL     OW18325   1.674   4.452   8.040 -0.3092 -0.3436 -0.4761
 5529SOL    HW118326   1.714   4.383   8.093  1.5875  0.1555 -1.1789
 5529SOL    HW218327   1.673   4.528   8.098 -0.4029 -0.4042 -0.3978
 5530SOL     OW18328   5.540   6.320   1.447  0.0544  0.4193  0.0526
 5530SOL    HW118329   5.569   6.316   1.356 -0.3508 -1.6251 -0.0253
 5530SOL    HW218330   5.446   6.303   1.443  0.0603  0.1637  0.8516
 5531SOL     OW18331   8.916   0.652   0.237  0.2859  0.1039 -0.5586
 5531SOL    HW118332   8.932   0.670   0.145  0.6775 -2.2802 -1.0116
 5531SOL    HW218333   8.869   0.729   0.269 -1.3014  0.2884 -3.1197
 5532SOL     OW18334   8.225   3.156   6.253  0.0107  0.0102  0.3066
 5532SOL    HW118335   8.271   3.142   6.170 -0.5194  1.6825 -0.3350
 5532SOL    HW218336   8.139   3.117   6.239  0.5910 -1.5078  0.8390
 5533SOL     OW18337   5.536   8.534   5.291  0.2252 -0.3759 -0.3960
 5533SOL    HW118338   5.464   8.513   5.351  1.0026  0.1271  0.7621
 5533SOL    HW218339   5.603   8.469   5.311  0.1546 -0.7635 -1.3770
 5534SOL     OW18340   1.223   5.769   4.481  0.3765  0.1312 -0.1469
 5534SOL    HW118341   1.212   5.858   4.515  0.7679  0.7023 -1.4435
 5534SOL    HW218342   1.207   5.777   4.387 -0.8798 -1.4275 -0.1143
 5535SOL     OW18343   0.863   0.153   6.392 -0.1892 -0.7494 -0.1286
 5535SOL    HW118344   0.890   0.240   6.422  0.0044 -0.5129 -0.9702
 5535SOL    HW218345   0.849   0.103   6.472  5.4192 -1.8252  0.5874
 5536SOL     OW18346   8.024   7.500   1.668  0.4449  0.4787  0.3175
 5536SOL    HW118347   8.045   7.576   1.614 -0.9378  0.4364 -0.3218
 5536SOL    HW218348   7.934   7.515   1.696  0.7145 -0.1219  1.5839
 5537SOL     OW18349   4.329   0.584   9.519  1.0381  0.2901  0.2348
 5537SOL    HW118350   4.409   0.598   9.568  0.6804  2.2351  0.3573
 5537SOL    HW218351   4.259   0.587   9.585  0.5127  3.3843 -0.3201
 5538SOL     OW18352   5.041   1.361   3.278 -0.4652 -0.5829 -0.8946
 5538SOL    HW118353   5.030   1.428   3.210 -0.3385  0.2517 -0.1192
 5538SOL    HW218354   5.021   1.407   3.360  1.9925 -0.8080 -0.0920
 5539SOL     OW18355   3.407   2.063   2.281  0.3177 -0.1651  0.4953
 5539SOL    HW118356   3.499   2.055   2.309  0.3730 -0.8225  0.1442
 5539SOL    HW218357   3.412   2.111   2.198  0.0924  2.4907  1.9251
 5540SOL     OW18358   2.212   0.630   5.296  0.9932 -0.5143 -0.1625
 5540SOL    HW118359   2.213   0.725   5.312  0.0524 -0.3830 -0.8074
 5540SOL    HW218360   2.293   0.613   5.248  0.9415  0.0422 -0.4572
 5541SOL     OW18361   0.665   4.483   3.518  0.1890 -0.5583  0.0344
 5541SOL    HW118362   0.572   4.464   3.529 -1.0320  3.2471 -2.0532
 5541SOL    HW218363   0.684   4.549   3.584  0.1787  1.7326 -2.1110
 5542SOL     OW18364   3.653   3.348   1.330 -0.5452  0.0093  0.4969
 5542SOL    HW118365   3.626   3.326   1.241 -0.6059  0.7819  0.3210
 5542SOL    HW218366   3.707   3.426   1.321  0.7040 -0.7595  0.9838
 5543SOL     OW18367   4.311   2.306   7.185 -0.2030 -0.2570 -0.1389
 5543SOL    HW118368   4.334   2.383   7.132 -0.7084 -0.9848 -1.4598
 5543SOL    HW218369   4.375   2.307   7.256  0.1221  1.0989 -0.4104
 5544SOL     OW18370   6.181   8.363   6.750  0.1493 -0.0559  0.0813
 5544SOL    HW118371   6.143   8.295   6.805  0.0370  0.6814  0.9396
 5544SOL    HW218372   6.134   8.356   6.667 -0.3403 -0.5724  0.3992
 5545SOL     OW18373   6.720   6.739   3.173  0.0425 -0.2270 -0.0036
 5545SOL    HW118374   6.650   6.706   3.229 -0.0470  0.3033  0.1948
 5545SOL    HW218375   6.675   6.774   3.096  0.0783  0.2206  0.1766
 5546SOL     OW18376   8.925   2.347   6.700  0.1760 -0.0494 -0.2221
 5546SOL    HW118377   8.990   2.331   6.632 -0.3455  0.8397 -0.9604
 5546SOL    HW218378   8.841   2.342   6.654 -0.1710  0.8414  0.2824
 5547SOL     OW18379   7.515   2.867   7.111 -0.1915  0.0409 -0.3382
 5547SOL    HW118380   7.436   2.824   7.145 -0.3336  2.4461  2.8936
 5547SOL    HW218381   7.484   2.950   7.077  0.7580  0.2535 -0.7046
 5548SOL     OW18382   0.567   5.036   3.740  0.3935  0.3406 -0.2010
 5548SOL    HW118383   0.590   5.088   3.663  2.5522  1.4813  1.0924
 5548SOL    HW218384   0.648   5.034   3.792 -0.2892 -2.4184  0.9126
 5549SOL     OW18385   8.530   6.708   3.936 -0.3020  0.0124  0.1870
 5549SOL    HW118386   8.613   6.712   3.984  0.6056 -1.8379 -1.1195
 5549SOL    HW218387   8.550   6.748   3.851 -0.9616  0.2189  0.1248
 5550SOL     OW18388   3.087   7.204   3.685 -0.0441  0.2463  0.5626
 5550SOL    HW118389   3.164   7.229   3.633  1.4254 -0.3040  2.3565
 5550SOL    HW218390   3.106   7.239   3.772 -2.2639  0.8285  0.8616
 5551SOL     OW18391   8.135   7.745   6.911 -1.1171  0.5642 -0.7876
 5551SOL    HW118392   8.084   7.667   6.932 -0.1513  0.2566  0.5631
 5551SOL    HW218393   8.078   7.818   6.933 -0.4286  0.2673  2.5965
 5552SOL     OW18394   0.157   6.584   6.099 -0.1014 -0.2470  0.6867
 5552SOL    HW118395   0.194   6.505   6.059 -0.5060 -0.4837  0.7810
 5552SOL    HW218396   0.116   6.631   6.026  0.6369  0.1650  0.5273
 5553SOL     OW18397   9.109   0.033   0.170  0.0258 -0.5784  0.4397
 5553SOL    HW118398   9.061  -0.049   0.162 -1.4549  0.0981  1.7866
 5553SOL    HW218399   9.160   0.025   0.250 -0.5166 -0.0204  0.8541
 5554SOL     OW18400   8.495   6.161   5.952  0.2725  0.4234 -0.3936
 5554SOL    HW118401   8.454   6.116   6.026  0.6444 -0.7658 -0.8783
 5554SOL    HW218402   8.437   6.142   5.878  0.2578  1.0300 -0.5404
 5555SOL     OW18403   0.982   6.633   7.315  0.1992  0.2634  0.4910
 5555SOL    HW118404   1.029   6.597   7.240  0.3178 -0.4454  0.8959
 5555SOL    HW218405   1.047   6.638   7.385 -0.3218 -0.8328  1.0865
 5556SOL     OW18406   1.728   8.223   1.095  0.0799 -0.0316  0.0403
 5556SOL    HW118407   1.823   8.207   1.090  0.2427 -0.1998  2.4090
 5556SOL    HW218408   1.719   8.292   1.160 -1.4683 -0.3998  0.2499
 5557SOL     OW18409   2.068   1.102   2.636 -0.0993 -0.2246  0.3237
 5557SOL    HW118410   2.144   1.147   2.671 -1.1681  2.0759 -0.1483
 5557SOL    HW218411   2.064   1.129   2.544 -2.2175  0.8659  0.6653
 5558SOL     OW18412   1.927   4.879   9.183  0.0609 -0.5912 -0.0003
 5558SOL    HW118413   1.943   4.855   9.274 -0.8634 -0.1101  0.2948
 5558SOL    HW218414   1.859   4.946   9.186  1.0744  0.5176 -0.9631
 5559SOL     OW18415   2.766   9.395   1.563 -0.5288  0.4534  0.3491
 5559SOL    HW118416   2.717   9.470   1.529  1.4856  0.9888 -1.5700
 5559SOL    HW218417   2.716   9.368   1.641 -3.2116  1.5947 -0.8297
 5560SOL     OW18418   4.194   6.456   3.548  0.8842  0.3126  0.3701
 5560SOL    HW118419   4.209   6.365   3.575  0.6455  0.0055 -0.4746
 5560SOL    HW218420   4.177   6.450   3.454 -2.4316  0.8099  0.8175
 5561SOL     OW18421   0.019   6.480   8.353  0.4877 -0.3485  0.2530
 5561SOL    HW118422   0.016   6.430   8.271 -1.1015  0.8025 -0.4359
 5561SOL    HW218423   0.049   6.567   8.328 -2.6316  0.8779  0.3314
 5562SOL     OW18424   1.935   7.985   4.513  0.4447  0.3773 -0.2556
 5562SOL    HW118425   2.030   7.982   4.506  0.5400  2.0309 -0.1281
 5562SOL    HW218426   1.916   7.958   4.603  0.6388 -1.4387 -0.7074
 5563SOL     OW18427   7.165   0.027   2.943 -0.0928  0.1422 -0.3455
 5563SOL    HW118428   7.154  -0.052   2.891 -2.1891  0.8546 -1.0708
 5563SOL    HW218429   7.168   0.098   2.879 -3.3878  1.1066  0.3800
 5564SOL     OW18430   2.132   3.077   0.834  0.2186 -0.1635  0.0979
 5564SOL    HW118431   2.102   2.986   0.828  0.0298  0.0147 -2.6876
 5564SOL    HW218432   2.052   3.128   0.845 -0.1581 -0.0614 -2.6067
 5565SOL     OW18433   0.405   7.061   3.442  0.1067  0.3623  0.1517
 5565SOL    HW118434   0.418   7.153   3.422  1.4914  0.2514  0.4420
 5565SOL    HW218435   0.480   7.037   3.497  0.7898 -1.3884 -1.4457
 5566SOL     OW18436   9.539   0.859   3.369 -0.6578 -0.0835 -0.2581
 5566SOL    HW118437   9.616   0.898   3.328 -1.2298  0.2481 -1.0345
 5566SOL    HW218438   9.468   0.919   3.348 -0.9815  0.0803  1.1966
 5567SOL     OW18439   6.529   5.589   4.264 -0.1370 -0.0484  0.0366
 5567SOL    HW118440   6.622   5.590   4.288  0.2612 -0.8673 -1.3582
 5567SOL    HW218441   6.528   5.601   4.169 -1.5054  0.4863  0.0896
 5568SOL     OW18442   7.815   0.547   9.414  0.0043  0.5678  0.0108
 5568SOL    HW118443   7.904   0.550   9.450  0.5216  0.1120 -1.1806
 5568SOL    HW218444   7.811   0.464   9.368 -0.7426  0.9972 -0.7087
 5569SOL     OW18445   3.781   7.192   0.320 -0.3608  0.0323  0.0253
 5569SOL    HW118446   3.775   7.123   0.253 -0.9281 -0.0099  0.1073
 5569SOL    HW218447   3.691   7.225   0.328 -0.1559  0.5531  0.2305
 5570SOL     OW18448   6.493   0.439   5.902 -0.1120 -0.3472  0.5316
 5570SOL    HW118449   6.463   0.374   5.839 -0.3689 -0.3356  0.6403
 5570SOL    HW218450   6.414   0.488   5.925  0.3613  1.1210 -0.8203
 5571SOL     OW18451   4.688   5.251   1.792 -0.6675  0.0144  0.3502
 5571SOL    HW118452   4.679   5.252   1.888  0.6970  1.4666  0.5086
 5571SOL    HW218453   4.777   5.219   1.777  0.2964  2.7312 -0.2354
 5572SOL     OW18454   9.248   8.678   1.498  0.3263 -0.4521 -0.4034
 5572SOL    HW118455   9.232   8.613   1.567 -0.0045 -0.0782 -0.1273
 5572SOL    HW218456   9.265   8.625   1.420 -1.1774 -0.8964 -0.4700
 5573SOL     OW18457   8.055   5.925   5.179  0.3942 -0.5356 -0.5997
 5573SOL    HW118458   8.034   5.944   5.088 -0.0919 -0.5077 -0.4892
 5573SOL    HW218459   8.150   5.935   5.186  0.4101 -0.3790 -1.0635
 5574SOL     OW18460   4.227   2.634   0.671  0.2927  0.7364  0.4229
 5574SOL    HW118461   4.312   2.668   0.700  0.6316 -0.8811  1.4766
 5574SOL    HW218462   4.201   2.573   0.740 -0.4594 -0.8154 -1.1564
 5575SOL     OW18463   7.543   9.257   4.942 -0.6414 -0.1590  0.3880
 5575SOL    HW118464   7.512   9.287   5.027 -5.3632  1.2204 -1.4747
 5575SOL    HW218465   7.529   9.162   4.943 -1.4361 -0.0444  0.9230
 5576SOL     OW18466   8.713   7.428   8.627  0.7450  0.3244 -0.3991
 5576SOL    HW118467   8.658   7.379   8.689  0.9794 -0.6995 -0.9701
 5576SOL    HW218468   8.761   7.360   8.580  0.9054  1.1071 -1.3887
 5577SOL     OW18469   0.257   2.668   5.448  0.0287 -0.0268  0.1165
 5577SOL    HW118470   0.292   2.743   5.402 -2.5932  0.9414 -0.5095
 5577SOL    HW218471   0.291   2.592   5.401  1.4714  0.7802 -0.2032
 5578SOL     OW18472   4.967   2.041   5.219  0.1266 -0.5792 -0.1251
 5578SOL    HW118473   4.905   2.004   5.157  1.0931 -2.2719 -0.1491
 5578SOL    HW218474   5.026   2.094   5.166 -0.9587  0.6153 -0.1695
 5579SOL     OW18475   7.792   3.866   7.677  0.7121 -0.2869  0.5877
 5579SOL    HW118476   7.809   3.816   7.597 -0.2273 -0.3698  0.4214
 5579SOL    HW218477   7.868   3.923   7.687  0.4111  0.4218 -0.9084
 5580SOL     OW18478   0.009   5.608   7.342  0.1114 -0.4532 -0.1295
 5580SOL    HW118479   0.062   5.624   7.420 -1.4894  0.4367  0.8495
 5580SOL    HW218480  -0.015   5.696   7.311  0.9318 -0.7925 -1.7973
 5581SOL     OW18481   4.047   8.463   0.880 -0.0359  0.3777  0.1734
 5581SOL    HW118482   4.017   8.536   0.933 -2.6016  0.8913 -1.7664
 5581SOL    HW218483   4.008   8.386   0.921  0.8975  0.3330  0.9970
 5582SOL     OW18484   7.098   6.952   5.734 -0.4003  0.0972  0.0991
 5582SOL    HW118485   7.118   6.983   5.822 -0.6568 -1.5949  0.7953
 5582SOL    HW218486   7.011   6.913   5.741  1.4813 -4.6532  0.4561
 5583SOL     OW18487   4.723   3.160   8.603 -0.4137  0.1200 -0.3801
 5583SOL    HW118488   4.819   3.154   8.600 -0.4951 -1.9786 -0.2338
 5583SOL    HW218489   4.697   3.095   8.668 -1.7619  3.9854  3.3881
 5584SOL     OW18490   8.885   9.077   9.152 -0.3137  0.1575  0.3594
 5584SOL    HW118491   8.872   9.145   9.087 -0.5014 -0.4762 -0.2838
 5584SOL    HW218492   8.977   9.082   9.176 -0.2454  0.4012  0.0458
 5585SOL     OW18493   0.976   7.964   0.483  0.2362 -0.2940 -0.1586
 5585SOL    HW118494   0.921   7.969   0.561  1.0355  1.4006  0.3290
 5585SOL    HW218495   0.918   7.928   0.416 -1.3024  0.7935  0.5181
 5586SOL     OW18496   1.791   1.789   6.694  0.3534 -0.3631  0.6460
 5586SOL    HW118497   1.790   1.873   6.647  1.2188 -0.0566  1.1260
 5586SOL    HW218498   1.860   1.738   6.651  0.6563 -0.3547  1.1042
 5587SOL     OW18499   0.947   7.405   6.362  0.0323 -0.0344  0.1067
 5587SOL    HW118500   0.889   7.344   6.407  2.2673 -1.9872  0.5914
 5587SOL    HW218501   0.930   7.490   6.404  0.4471 -1.3430  3.2339
 5588SOL     OW18502   5.586   4.857   6.340  0.0960  0.2082  0.2481
 5588SOL    HW118503   5.533   4.777   6.337 -0.6315  0.6374  1.1497
 5588SOL    HW218504   5.540   4.914   6.402  0.9753  1.0621  0.1395
 5589SOL     OW18505   5.665   8.265   3.546 -0.3171 -0.1043  0.2682
 5589SOL    HW118506   5.668   8.321   3.623  2.3426  0.8120 -0.3965
 5589SOL    HW218507   5.653   8.325   3.473  2.5867 -0.2253 -0.4585
 5590SOL     OW18508   6.240   5.907   2.214 -0.5930  0.1619 -0.3035
 5590SOL    HW118509   6.272   5.817   2.217 -1.6126 -0.2406 -0.9319
 5590SOL    HW218510   6.229   5.925   2.120  0.5976  1.3196 -0.2469
 5591SOL     OW18511   3.612   5.724   6.142 -0.1379 -0.3359  0.1497
 5591SOL    HW118512   3.676   5.692   6.206  1.2450  3.0773  0.6960
 5591SOL    HW218513   3.635   5.680   6.061  1.1466 -1.2122  0.9521
 5592SOL     OW18514   7.151   5.859   9.291 -0.2982  0.2061  0.1440
 5592SOL    HW118515   7.106   5.856   9.375 -0.6012 -1.2622 -0.0334
 5592SOL    HW218516   7.164   5.767   9.268 -0.9416  0.5475 -1.7854
 5593SOL     OW18517   5.322   6.523   3.136  0.3325 -0.0352 -0.0289
 5593SOL    HW118518   5.298   6.483   3.053  0.2665  0.0555 -0.0534
 5593SOL    HW218519   5.297   6.458   3.202 -0.2446  0.1719 -0.0328
 5594SOL     OW18520   8.333   3.349   1.715 -0.1984 -0.1098 -0.4406
 5594SOL    HW118521   8.355   3.383   1.628  0.5732  1.2430  0.2476
 5594SOL    HW218522   8.346   3.423   1.774 -2.0199 -0.6227  0.6719
 5595SOL     OW18523   8.125   5.670   4.196  0.1483 -0.4304 -0.9118
 5595SOL    HW118524   8.070   5.690   4.120 -1.2865 -1.4670 -0.2106
 5595SOL    HW218525   8.074   5.700   4.271  1.4344  0.3456 -0.3152
 5596SOL     OW18526   4.084   5.847   4.160  0.5439  0.1760  0.2788
 5596SOL    HW118527   4.071   5.762   4.118  1.9971  0.8333 -1.6301
 5596SOL    HW218528   4.000   5.892   4.148  0.3867 -0.2808 -0.4424
 5597SOL     OW18529   7.126   5.871   2.603  0.5915 -0.2569 -0.4387
 5597SOL    HW118530   7.158   5.961   2.613 -2.7574  1.0875 -0.3940
 5597SOL    HW218531   7.088   5.870   2.515  1.5191 -2.0103 -0.8510
 5598SOL     OW18532   4.696   6.661   1.252 -0.2566 -0.3488 -1.1787
 5598SOL    HW118533   4.758   6.723   1.212 -0.6583  0.0556 -1.1777
 5598SOL    HW218534   4.709   6.671   1.346 -2.1650  1.6777 -1.0668
 5599SOL     OW18535   2.096   8.373   2.468  0.2984  0.1379  0.3175
 5599SOL    HW118536   2.034   8.380   2.395  0.0241 -1.9881  0.2843
 5599SOL    HW218537   2.116   8.464   2.491 -3.5468  1.0378  0.9488
 5600SOL     OW18538   7.390   1.547   2.463 -0.2743 -0.1242 -0.6876
 5600SOL    HW118539   7.346   1.597   2.394 -2.7062 -1.6919 -0.3873
 5600SOL    HW218540   7.348   1.577   2.544  1.8334  0.9549  0.0913
 5601SOL     OW18541   1.285   6.706   7.473 -0.4070  0.1394 -0.1252
 5601SOL    HW118542   1.256   6.795   7.451 -2.7099  0.0078  1.9174
 5601SOL    HW218543   1.269   6.698   7.567 -0.4923 -2.5202 -0.2894
 5602SOL     OW18544   1.385   6.672   5.061  0.2370  0.8582  0.2552
 5602SOL    HW118545   1.440   6.594   5.049  1.0681  1.6189 -1.0562
 5602SOL    HW218546   1.303   6.651   5.015 -0.1714  0.1716  1.2470
 5603SOL     OW18547   3.049   5.824   8.630  0.5153  0.1138 -0.5249
 5603SOL    HW118548   3.083   5.808   8.542  3.0791 -0.8605  0.5597
 5603SOL    HW218549   3.100   5.897   8.663 -0.8111  0.8452  0.0037
 5604SOL     OW18550   9.600   2.590   4.576  0.5955  0.2022  0.0874
 5604SOL    HW118551   9.639   2.678   4.572  0.6024  0.1827 -0.3461
 5604SOL    HW218552   9.520   2.598   4.524  0.3446  0.0768  0.4513
 5605SOL     OW18553   4.484   2.898   9.191  0.3292  0.0159 -0.1877
 5605SOL    HW118554   4.396   2.860   9.193 -0.1634  1.1516  0.9270
 5605SOL    HW218555   4.469   2.992   9.180  1.3328  0.4014  1.4132
 5606SOL     OW18556   9.042   7.133   3.910  0.5215 -0.4027 -0.8264
 5606SOL    HW118557   9.081   7.137   3.998 -0.8194  0.8993 -0.2323
 5606SOL    HW218558   9.054   7.043   3.882 -0.3247 -1.2600  1.3445
 5607SOL     OW18559   1.375   9.191   3.868 -0.2956  0.4054  0.3847
 5607SOL    HW118560   1.287   9.178   3.904 -1.0093 -0.4732 -1.5454
 5607SOL    HW218561   1.369   9.273   3.820 -0.3098 -0.0212 -0.3661
 5608SOL     OW18562   3.419   5.259   4.492 -0.0662 -0.0994 -0.2363
 5608SOL    HW118563   3.350   5.298   4.438 -1.1465  0.2768  1.3504
 5608SOL    HW218564   3.489   5.239   4.430 -1.3166  0.1387 -1.7969
 5609SOL     OW18565   2.586   9.127   4.636  0.3467  0.1208 -0.4579
 5609SOL    HW118566   2.680   9.140   4.644  0.5836 -0.8282 -1.4123
 5609SOL    HW218567   2.560   9.083   4.717  0.7537  0.2142 -0.2771
 5610SOL     OW18568   3.399   4.857   8.838 -0.2251  0.0304 -0.3093
 5610SOL    HW118569   3.307   4.882   8.840 -0.6741 -1.5348 -0.6344
 5610SOL    HW218570   3.407   4.789   8.905  1.1870  1.6226  1.2716
 5611SOL     OW18571   7.278   1.930   7.601  0.9958  0.4376 -0.0633
 5611SOL    HW118572   7.206   1.895   7.652  2.1005  0.6506  1.7448
 5611SOL    HW218573   7.341   1.960   7.667  1.3430  3.2173 -1.5295
 5612SOL     OW18574   5.914   1.370   4.485 -0.2409 -0.2011 -0.3308
 5612SOL    HW118575   6.008   1.361   4.475 -0.1826 -1.6161  1.2224
 5612SOL    HW218576   5.903   1.433   4.557 -0.5990  2.9275 -2.8530
 5613SOL     OW18577   1.511   9.034   9.001 -0.1415  0.0318  0.3162
 5613SOL    HW118578   1.438   9.033   8.939  1.7279  0.1841 -2.0504
 5613SOL    HW218579   1.507   9.121   9.042 -0.3572  0.6724 -1.0036
 5614SOL     OW18580   0.179   2.967   7.431 -0.5033 -0.1711 -0.0431
 5614SOL    HW118581   0.233   2.955   7.509  0.2556 -2.0657 -0.8213
 5614SOL    HW218582   0.104   2.910   7.445  0.5493 -2.0080 -1.4681
 5615SOL     OW18583   4.166   3.585   3.902  0.3144  0.5532  0.3506
 5615SOL    HW118584   4.188   3.524   3.831 -1.6208  1.0283 -0.7474
 5615SOL    HW218585   4.153   3.669   3.857  1.5560  1.4698  1.6479
 5616SOL     OW18586   2.016   5.140   1.164 -0.2724  0.0545  0.2421
 5616SOL    HW118587   2.074   5.076   1.205 -0.8206  0.2686  1.4129
 5616SOL    HW218588   1.993   5.200   1.235 -0.8849  0.7313 -0.5029
 5617SOL     OW18589   0.835   7.561   4.315  0.4808 -0.1168 -0.8231
 5617SOL    HW118590   0.757   7.591   4.269  0.9378  0.7551 -1.0480
 5617SOL    HW218591   0.893   7.528   4.246  0.2436 -0.9406 -0.6381
 5618SOL     OW18592   9.150   1.350   1.532  0.6888  0.7113 -0.3371
 5618SOL    HW118593   9.170   1.439   1.560 -0.8394  0.2692  2.6055
 5618SOL    HW218594   9.054   1.346   1.531  0.7155 -0.9180 -0.2396
 5619SOL     OW18595   6.353   0.489   8.317  0.4735  0.7972 -0.1717
 5619SOL    HW118596   6.394   0.415   8.273  0.5735  1.0176 -0.4483
 5619SOL    HW218597   6.381   0.565   8.268 -0.4847  0.9305 -0.5394
 5620SOL     OW18598   5.555   8.068   3.348 -0.2784  0.1795  0.6381
 5620SOL    HW118599   5.466   8.103   3.335  0.2317  2.4096  2.3896
 5620SOL    HW218600   5.592   8.124   3.417  3.4588  1.1142 -1.8435
 5621SOL     OW18601   5.330   2.628   6.761 -0.0665  0.5549 -0.2887
 5621SOL    HW118602   5.321   2.534   6.776  0.1162  0.3760 -1.2138
 5621SOL    HW218603   5.424   2.644   6.763  0.0292  0.3807 -1.8885
 5622SOL     OW18604   2.688   4.911   5.728 -0.0787  0.1941  0.2234
 5622SOL    HW118605   2.780   4.938   5.723  0.0638  0.2715  2.2838
 5622SOL    HW218606   2.670   4.905   5.822 -1.5982 -1.8572 -0.1190
 5623SOL     OW18607   0.573   6.074   3.647  0.7741 -0.0923  0.4393
 5623SOL    HW118608   0.605   6.134   3.579  1.4789  0.1812  0.9950
 5623SOL    HW218609   0.630   6.091   3.722  0.0839 -0.4708  1.0632
 5624SOL     OW18610   4.788   3.800   2.100  0.0787 -0.0105  0.1689
 5624SOL    HW118611   4.765   3.709   2.115  0.0428 -0.3714 -1.7604
 5624SOL    HW218612   4.726   3.850   2.154  0.6838 -1.0971  1.9564
 5625SOL     OW18613   3.879   0.084   1.774 -0.0188 -0.0410  0.3124
 5625SOL    HW118614   3.912   0.006   1.820  1.0328 -1.1057 -2.1003
 5625SOL    HW218615   3.795   0.057   1.738  0.7003 -0.3494 -1.1795
 5626SOL     OW18616   5.737   1.128   8.844  0.8381 -0.2967  0.4596
 5626SOL    HW118617   5.752   1.186   8.769  2.2118  0.7915  1.5165
 5626SOL    HW218618   5.746   1.040   8.808 -1.6365  0.0464 -1.2578
 5627SOL     OW18619   7.899   5.973   8.761  1.3357 -0.3098  1.3570
 5627SOL    HW118620   7.857   6.011   8.838  0.1667  0.5005  0.3596
 5627SOL    HW218621   7.905   6.046   8.699  1.8539 -1.0486  0.5233
 5628SOL     OW18622   7.029   9.053   7.049  0.0831  0.0727 -0.6086
 5628SOL    HW118623   7.110   9.104   7.047 -0.9627  1.8443  0.1435
 5628SOL    HW218624   6.959   9.118   7.048 -1.3314 -1.3627  0.1431
 5629SOL     OW18625   5.666   0.220   3.727  0.2692 -0.2313 -0.0904
 5629SOL    HW118626   5.674   0.302   3.677 -1.7806 -0.0391 -0.2058
 5629SOL    HW218627   5.579   0.187   3.704  1.2189 -2.6798 -0.3495
 5630SOL     OW18628   5.880   2.200   7.916 -0.0008  0.2418 -0.1453
 5630SOL    HW118629   5.820   2.268   7.886 -0.3036 -0.2570 -0.6891
 5630SOL    HW218630   5.823   2.130   7.947  0.2479  1.2552  2.9699
 5631SOL     OW18631   0.628   1.576   1.290 -0.3993 -0.3510  0.4243
 5631SOL    HW118632   0.698   1.530   1.336 -0.5160  0.2954  1.2505
 5631SOL    HW218633   0.571   1.505   1.258  0.1050 -0.8353  0.5805
 5632SOL     OW18634   7.165   3.594   7.138  0.3501  0.1045  0.3542
 5632SOL    HW118635   7.172   3.599   7.234  0.5198 -1.3513  0.4328
 5632SOL    HW218636   7.079   3.632   7.119 -0.5204 -1.3001  1.2729
 5633SOL     OW18637   0.459   4.043   9.012  0.4921  0.2152 -0.1669
 5633SOL    HW118638   0.419   4.114   9.062 -2.2461 -1.1177 -0.2690
 5633SOL    HW218639   0.423   4.053   8.923  1.2630 -0.4057 -0.5609
 5634SOL     OW18640   4.331   0.217   5.454 -0.5657  0.0237  0.3117
 5634SOL    HW118641   4.384   0.210   5.533 -0.7039  2.0363  0.6193
 5634SOL    HW218642   4.326   0.127   5.420 -0.4781 -0.8773  2.5509
 5635SOL     OW18643   3.162   9.529   7.276 -0.0092  0.2452  0.0185
 5635SOL    HW118644   3.201   9.580   7.204  0.2671  1.4161  0.9628
 5635SOL    HW218645   3.093   9.585   7.311  0.1620 -0.1049  0.9567
 5636SOL     OW18646   2.833   0.157   8.323 -0.0361  0.2487  0.0577
 5636SOL    HW118647   2.880   0.233   8.359  0.9852 -0.1542 -0.3848
 5636SOL    HW218648   2.885   0.130   8.247 -1.1985  0.0044 -0.6760
 5637SOL     OW18649   8.002   1.202   7.963 -1.1231  0.0166 -0.4505
 5637SOL    HW118650   7.907   1.195   7.963 -1.0701 -0.7147 -0.5984
 5637SOL    HW218651   8.030   1.147   8.036 -0.8120  0.1792 -0.4468
 5638SOL     OW18652   8.902   6.380   3.311  0.1491 -0.2943  0.4005
 5638SOL    HW118653   8.926   6.305   3.257  0.8080  0.0050  0.2788
 5638SOL    HW218654   8.814   6.358   3.343 -0.4428 -0.2769 -1.1292
 5639SOL     OW18655   3.673   0.795   8.965 -0.0857  0.1925 -0.0288
 5639SOL    HW118656   3.586   0.776   9.000 -0.4693  0.8418 -0.6295
 5639SOL    HW218657   3.731   0.733   9.011 -0.5092  1.2356  2.0271
 5640SOL     OW18658   2.428   0.617   0.795 -0.2774  0.3355  0.0132
 5640SOL    HW118659   2.436   0.637   0.888 -2.4084  1.9578 -0.0782
 5640SOL    HW218660   2.351   0.559   0.790 -1.4635  1.9285 -0.8811
 5641SOL     OW18661   6.908   2.152   7.189  0.3502  0.4771  0.0024
 5641SOL    HW118662   6.962   2.085   7.232 -0.6376  0.5302  1.3937
 5641SOL    HW218663   6.921   2.230   7.243 -0.5275  0.6866 -0.0742
 5642SOL     OW18664   0.970   2.414   5.141 -0.1066 -0.7063 -0.0106
 5642SOL    HW118665   0.889   2.391   5.096 -0.2271  0.2190 -0.2975
 5642SOL    HW218666   1.031   2.439   5.071  0.0789 -0.3707  0.2655
 5643SOL     OW18667   4.269   6.055   7.601 -0.3121  0.1637  0.2963
 5643SOL    HW118668   4.180   6.044   7.633 -1.0174  0.3512 -1.4647
 5643SOL    HW218669   4.274   6.146   7.572 -0.0218 -0.2063 -0.8934
 5644SOL     OW18670   9.313   9.088   4.594  0.4885  0.0926  0.1191
 5644SOL    HW118671   9.360   9.032   4.656  2.1698  0.2732 -0.9334
 5644SOL    HW218672   9.381   9.122   4.536 -1.0956 -1.1624 -2.7329
 5645SOL     OW18673   0.674   6.951   5.954  0.0487  0.3632 -0.5126
 5645SOL    HW118674   0.675   7.023   6.017 -0.6916  2.3673 -2.6177
 5645SOL    HW218675   0.643   6.875   6.004  2.8600  0.8827  2.3008
 5646SOL     OW18676   5.165   5.912   7.417 -0.3883 -0.3573 -0.3173
 5646SOL    HW118677   5.096   5.854   7.385 -0.5555 -1.0377  1.1817
 5646SOL    HW218678   5.245   5.860   7.412 -0.5973 -0.9303  1.3943
 5647SOL     OW18679   6.566   0.821   3.102 -0.1218 -0.3508 -0.5331
 5647SOL    HW118680   6.472   0.815   3.123 -0.3913 -0.8044 -1.8194
 5647SOL    HW218681   6.594   0.903   3.143 -1.6229  1.0123 -2.0847
 5648SOL     OW18682   6.226   2.346   6.030 -0.6181  0.4487 -0.2014
 5648SOL    HW118683   6.210   2.420   5.972  0.4223 -0.1692 -1.3248
 5648SOL    HW218684   6.261   2.385   6.110 -0.4150  1.1993 -0.6492
 5649SOL     OW18685   7.834   7.634   4.564  0.5654  0.0105  0.3530
 5649SOL    HW118686   7.891   7.557   4.562  2.7705  1.5473 -1.0820
 5649SOL    HW218687   7.782   7.627   4.484  1.4227  0.4321 -0.2568
 5650SOL     OW18688   0.419   6.925   2.632 -1.3243  0.3600  0.0229
 5650SOL    HW118689   0.504   6.882   2.642 -1.7649 -0.4251  0.5143
 5650SOL    HW218690   0.410   6.939   2.538 -1.2841 -0.8839 -0.1879
 5651SOL     OW18691   0.726   7.183   9.416 -0.3600 -0.7399 -0.2502
 5651SOL    HW118692   0.688   7.267   9.390 -1.8475 -1.3895 -0.2992
 5651SOL    HW218693   0.788   7.204   9.485 -0.9688  0.3659 -0.0256
 5652SOL     OW18694   4.005   4.344   5.873 -0.2403  0.0904  0.3169
 5652SOL    HW118695   4.000   4.253   5.901  0.4831 -0.5665 -1.5326
 5652SOL    HW218696   3.926   4.358   5.821 -0.0844  0.3421  0.1448
 5653SOL     OW18697   2.243   5.227   1.614  0.5289 -0.0201 -0.2867
 5653SOL    HW118698   2.310   5.178   1.567  1.5109  2.1349 -1.3005
 5653SOL    HW218699   2.211   5.167   1.681  2.8611 -1.4116 -0.3253
 5654SOL     OW18700   6.915   6.366   4.213  0.1794 -0.6287  0.1944
 5654SOL    HW118701   6.938   6.288   4.161  1.9933 -0.6535  0.9708
 5654SOL    HW218702   6.968   6.358   4.292  1.6735  2.1847 -0.4011
 5655SOL     OW18703   6.831   1.153   8.796 -0.1526  0.2841  0.4023
 5655SOL    HW118704   6.744   1.183   8.770 -0.1913 -1.1856 -1.3326
 5655SOL    HW218705   6.821   1.128   8.888 -1.6909 -0.3090  0.0973
 5656SOL     OW18706   0.472   5.363   2.881 -0.4221 -0.0103 -0.1047
 5656SOL    HW118707   0.419   5.285   2.864 -1.3559  0.8240 -1.2036
 5656SOL    HW218708   0.562   5.330   2.887 -0.6979 -1.0783 -1.3945
 5657SOL     OW18709   8.530   7.661   8.185  0.6230  0.1665  0.1332
 5657SOL    HW118710   8.511   7.661   8.279  1.6118 -0.5944  0.3523
 5657SOL    HW218711   8.559   7.571   8.166  1.7958  0.6656 -0.5935
 5658SOL     OW18712   1.278   6.624   0.509 -0.0501  0.5244  0.3293
 5658SOL    HW118713   1.258   6.682   0.582 -2.8363  0.9582 -0.6257
 5658SOL    HW218714   1.307   6.682   0.439  1.2828  0.2634  0.6530
 5659SOL     OW18715   8.586   0.186   5.900 -1.0255 -0.5426 -0.0915
 5659SOL    HW118716   8.604   0.218   5.988 -1.4165 -1.6833  0.4167
 5659SOL    HW218717   8.641   0.240   5.843  0.3107 -0.7434  0.9694
 5660SOL     OW18718   1.901   9.410   1.598  0.0268 -0.2542  0.1562
 5660SOL    HW118719   1.850   9.486   1.627 -1.8934 -0.2411 -2.8936
 5660SOL    HW218720   1.862   9.336   1.645 -0.4428  0.1913  0.4850
 5661SOL     OW18721   7.281   3.617   1.661 -0.0057 -0.1386  0.0203
 5661SOL    HW118722   7.197   3.636   1.704  1.1009  2.1763  1.3758
 5661SOL    HW218723   7.257   3.588   1.573 -2.3259 -3.0444  1.4432
 5662SOL     OW18724   7.903   1.375   2.716  0.0256 -0.1123 -0.2595
 5662SOL    HW118725   7.967   1.305   2.708 -0.6257 -0.6948 -0.5230
 5662SOL    HW218726   7.919   1.433   2.642 -0.0559 -0.5161 -0.5966
 5663SOL     OW18727   5.615   7.395   8.013  0.2507 -0.6977  0.1749
 5663SOL    HW118728   5.698   7.379   8.059  0.7432  0.4162 -0.2956
 5663SOL    HW218729   5.600   7.489   8.023  0.2240 -0.4829 -1.6976
 5664SOL     OW18730   7.090   4.596   6.243  0.0968 -0.4914  0.0334
 5664SOL    HW118731   7.072   4.673   6.189  0.5704 -1.0394 -0.9325
 5664SOL    HW218732   7.167   4.556   6.202 -0.2283 -1.5534  0.4444
 5665SOL     OW18733   4.590   1.062   6.046 -0.3103 -0.0096  0.5522
 5665SOL    HW118734   4.593   0.967   6.034 -0.0635 -0.2059  1.9328
 5665SOL    HW218735   4.505   1.088   6.010  0.5391 -0.4013 -1.8839
 5666SOL     OW18736   5.689   1.315   2.091 -0.0727  0.4710  0.0324
 5666SOL    HW118737   5.602   1.339   2.124  0.4259  1.7884  0.4770
 5666SOL    HW218738   5.745   1.388   2.118  1.2519 -0.5342  0.0876
 5667SOL     OW18739   5.704   3.447   2.947  0.7768  0.8873  0.2471
 5667SOL    HW118740   5.711   3.539   2.921  2.6792  0.6211 -0.3035
 5667SOL    HW218741   5.716   3.448   3.042  1.2452  1.1657  0.1886
 5668SOL     OW18742   6.430   6.899   2.305 -0.2460  0.4750 -0.0077
 5668SOL    HW118743   6.512   6.851   2.298 -0.3376 -0.2062  2.4880
 5668SOL    HW218744   6.455   6.987   2.331 -0.2740  0.4628  0.0601
 5669SOL     OW18745   7.569   3.708   2.358 -0.2889 -0.1074  0.6072
 5669SOL    HW118746   7.631   3.682   2.425 -0.8958 -1.6918  0.5910
 5669SOL    HW218747   7.517   3.629   2.341  0.1191  0.1111 -2.0294
 5670SOL     OW18748   3.244   6.237   7.652 -0.2314 -0.0502 -0.4935
 5670SOL    HW118749   3.226   6.147   7.623  2.5197 -0.7069 -0.4380
 5670SOL    HW218750   3.196   6.246   7.734 -0.3795 -1.5333 -0.3908
 5671SOL     OW18751   5.776   5.286   2.270 -0.0510 -0.1547  0.2697
 5671SOL    HW118752   5.840   5.229   2.229  0.3333 -0.3415  1.1189
 5671SOL    HW218753   5.718   5.226   2.318 -1.1350 -0.0297 -0.8336
 5672SOL     OW18754   5.778   6.074   0.646  0.2986  0.0100 -0.5784
 5672SOL    HW118755   5.840   6.140   0.676  1.2886 -0.9165 -0.5479
 5672SOL    HW218756   5.782   6.079   0.551  1.5096 -1.0267 -0.5971
 5673SOL     OW18757   7.454   0.592   9.171  0.4654 -0.6080 -0.6671
 5673SOL    HW118758   7.471   0.685   9.188 -0.5117 -0.4577 -0.4377
 5673SOL    HW218759   7.437   0.587   9.077 -2.9225  0.0786 -0.2314
 5674SOL     OW18760   0.860   4.202   8.893  0.4551 -0.7729 -0.9298
 5674SOL    HW118761   0.835   4.143   8.965  0.2216  0.3665 -0.0524
 5674SOL    HW218762   0.948   4.232   8.916 -0.1460  0.6651 -0.3638
 5675SOL     OW18763   4.365   6.887   3.370 -0.0619  0.2533 -0.2649
 5675SOL    HW118764   4.278   6.886   3.330 -0.3925 -0.4103  0.4413
 5675SOL    HW218765   4.403   6.970   3.343 -0.9037  0.5365 -0.6096
 5676SOL     OW18766   2.209   2.273   3.784 -0.4096 -0.2150 -0.2735
 5676SOL    HW118767   2.232   2.288   3.692 -1.0841 -1.3954 -0.6514
 5676SOL    HW218768   2.273   2.208   3.814 -1.4138 -1.3489 -0.5075
 5677SOL     OW18769   0.795   6.187   5.263  0.0046  0.3485 -0.2965
 5677SOL    HW118770   0.852   6.175   5.187  0.5536 -0.8652  0.2740
 5677SOL    HW218771   0.854   6.185   5.338 -0.6649  0.2338  0.2428
 5678SOL     OW18772   6.930   5.751   1.831 -0.3809  0.1101  0.2384
 5678SOL    HW118773   7.001   5.764   1.894 -0.1742 -0.1553  0.0625
 5678SOL    HW218774   6.973   5.713   1.754 -0.7854 -0.4683  0.2946
 5679SOL     OW18775   8.025   4.508   3.543  0.6819  0.1779  0.4082
 5679SOL    HW118776   7.965   4.571   3.583 -0.4061  0.7031 -1.9084
 5679SOL    HW218777   8.111   4.548   3.552  0.0940  1.6740 -0.3606
 5680SOL     OW18778   9.559   7.747   3.426 -0.3387  0.3968  0.6151
 5680SOL    HW118779   9.497   7.755   3.354 -0.5564  0.0759  0.7646
 5680SOL    HW218780   9.532   7.668   3.473  0.2213  0.2126  0.6420
 5681SOL     OW18781   0.624   7.783   3.018 -0.0125 -0.0496  0.0473
 5681SOL    HW118782   0.566   7.830   3.078 -1.0759  0.2509 -1.1646
 5681SOL    HW218783   0.602   7.818   2.932  0.6364 -1.3076 -0.6475
 5682SOL     OW18784   1.002   0.424   3.074  0.1548 -0.5552 -0.0757
 5682SOL    HW118785   1.062   0.491   3.042  0.4281  0.4580  2.3509
 5682SOL    HW218786   0.957   0.392   2.995  0.6827  1.8038 -1.4171
 5683SOL     OW18787   7.457   4.844   1.555  0.9404 -0.3118  0.1556
 5683SOL    HW118788   7.466   4.749   1.547  1.6464 -0.1405 -1.3656
 5683SOL    HW218789   7.507   4.880   1.481 -1.1111  1.1560 -0.6233
 5684SOL     OW18790   8.060   3.443   7.533 -0.1868  0.1152  0.1557
 5684SOL    HW118791   8.147   3.404   7.548  0.2938  0.4070 -1.6690
 5684SOL    HW218792   8.045   3.497   7.611  0.0640 -2.0014  1.7581
 5685SOL     OW18793   0.663   3.309   8.273 -0.0420  0.1721  0.0776
 5685SOL    HW118794   0.751   3.280   8.248  0.4468  1.9460 -0.4007
 5685SOL    HW218795   0.611   3.229   8.273  1.6975 -1.0447  1.0140
 5686SOL     OW18796   7.002   5.256   7.014  0.1363 -0.6565 -0.4010
 5686SOL    HW118797   7.088   5.283   7.044  0.2469 -1.4945  0.0585
 5686SOL    HW218798   6.973   5.327   6.956  0.6368  0.1736  0.3457
 5687SOL     OW18799   4.291   8.556   2.589  0.3959  0.0103  0.2384
 5687SOL    HW118800   4.349   8.616   2.634 -1.7308  1.5061  1.1211
 5687SOL    HW218801   4.331   8.470   2.602  2.5638  0.9767  0.4672
 5688SOL     OW18802   9.273   5.052   1.486 -0.1979  0.7964  0.2343
 5688SOL    HW118803   9.334   4.986   1.520  1.7828  1.7066 -1.3515
 5688SOL    HW218804   9.295   5.132   1.533  0.2315  1.2476 -0.7018
 5689SOL     OW18805   2.857   8.319   4.589  0.1832 -0.4261 -0.2246
 5689SOL    HW118806   2.946   8.297   4.617  0.6031 -0.8473 -1.7961
 5689SOL    HW218807   2.865   8.335   4.495 -1.4000 -0.4519 -0.3846
 5690SOL     OW18808   8.240   7.256   0.335  0.8397 -0.4441 -0.8156
 5690SOL    HW118809   8.257   7.306   0.255  1.3513 -1.9445 -1.6901
 5690SOL    HW218810   8.322   7.261   0.384  0.1045  1.5976  0.3061
 5691SOL     OW18811   4.910   4.670   8.741  0.3385 -0.1006 -0.1898
 5691SOL    HW118812   4.819   4.662   8.714  1.2055  0.4989 -3.7932
 5691SOL    HW218813   4.912   4.747   8.797 -1.4417 -0.5775  0.5925
 5692SOL     OW18814   8.292   0.127   5.260  0.4627 -0.1281 -0.1745
 5692SOL    HW118815   8.315   0.188   5.329  0.4806  1.1486 -1.2760
 5692SOL    HW218816   8.327   0.043   5.289 -0.6868  0.0663  1.9810
 5693SOL     OW18817   0.765   1.862   0.817  0.1765  0.0120  0.3414
 5693SOL    HW118818   0.709   1.817   0.880 -0.4157  2.4369  1.6828
 5693SOL    HW218819   0.827   1.912   0.870  1.0868  0.4428 -1.0494
 5694SOL     OW18820   6.882   2.048   2.984  0.0747  0.5660  0.2775
 5694SOL    HW118821   6.965   2.006   2.961 -0.2029  0.1955 -0.0584
 5694SOL    HW218822   6.903   2.102   3.060  0.6440  0.5415  0.1428
 5695SOL     OW18823   3.684   5.350   2.406 -0.0766  0.2393  0.6997
 5695SOL    HW118824   3.730   5.411   2.463 -0.6875  0.2234  1.2252
 5695SOL    HW218825   3.623   5.304   2.464  2.5366 -3.2188  1.0335
 5696SOL     OW18826   7.154   1.843   8.024 -0.2454 -0.1008  0.0963
 5696SOL    HW118827   7.124   1.904   8.091  0.1687  1.1028 -0.7828
 5696SOL    HW218828   7.231   1.801   8.062 -0.8915 -0.5678  0.9456
 5697SOL     OW18829   9.402   7.183   5.864  0.1809 -0.5115 -0.2493
 5697SOL    HW118830   9.320   7.226   5.890 -0.1786 -1.0685 -0.4281
 5697SOL    HW218831   9.431   7.232   5.787 -0.1378 -0.4800 -0.3540
 5698SOL     OW18832   4.154   8.661   2.952 -0.1377 -0.1962  0.5073
 5698SOL    HW118833   4.239   8.644   2.994 -0.4232 -2.3465  0.3163
 5698SOL    HW218834   4.150   8.598   2.880 -1.5316  0.4728 -0.0277
 5699SOL     OW18835   3.477   2.659   4.738 -0.0480 -0.5898 -0.5202
 5699SOL    HW118836   3.453   2.627   4.825  0.2423  1.3173  0.2926
 5699SOL    HW218837   3.413   2.726   4.718  0.5580 -0.2256 -1.2905
 5700SOL     OW18838   1.189   7.515   0.259  0.3341 -0.7323 -0.6039
 5700SOL    HW118839   1.188   7.420   0.251 -0.0992 -0.7549 -0.3426
 5700SOL    HW218840   1.103   7.542   0.225 -0.8008 -0.6852  2.0305
 5701SOL     OW18841   2.467   3.351   9.449  0.2935  0.3237 -0.0281
 5701SOL    HW118842   2.487   3.436   9.409  0.4700  0.3166  0.0452
 5701SOL    HW218843   2.525   3.346   9.525 -0.6003  0.6830  0.6905
 5702SOL     OW18844   1.182   4.202   3.742 -0.2009  0.3383  0.1340
 5702SOL    HW118845   1.112   4.220   3.679 -0.8963 -1.5845  0.2759
 5702SOL    HW218846   1.263   4.226   3.696 -0.7026 -0.7923 -1.4464
 5703SOL     OW18847   6.285   7.296   8.457 -0.5463  0.0006  0.1128
 5703SOL    HW118848   6.258   7.205   8.450 -2.6524  0.4558  1.4768
 5703SOL    HW218849   6.306   7.309   8.549 -0.7809  1.0245  0.0389
 5704SOL     OW18850   5.660   4.518   2.753 -0.2358 -0.0343 -0.0678
 5704SOL    HW118851   5.591   4.556   2.698  0.8219  1.0744 -0.6864
 5704SOL    HW218852   5.740   4.533   2.703  0.2664 -3.4343 -0.5206
 5705SOL     OW18853   8.062   4.608   4.646  0.1334  0.2287 -0.1568
 5705SOL    HW118854   8.133   4.548   4.623  0.5774  0.1962  1.2418
 5705SOL    HW218855   8.047   4.594   4.739  1.4449  3.5148  0.6816
 5706SOL     OW18856   7.253   6.797   6.661 -0.1589  0.6360 -0.7058
 5706SOL    HW118857   7.188   6.864   6.643  0.9337  1.2534 -2.6302
 5706SOL    HW218858   7.337   6.842   6.655  0.5351  0.1415  2.9237
 5707SOL     OW18859   3.116   0.772   8.143  0.2432 -0.7093  0.5568
 5707SOL    HW118860   3.200   0.748   8.183  0.5512 -0.8290 -0.1459
 5707SOL    HW218861   3.140   0.822   8.066 -0.3644  0.3007  1.0070
 5708SOL     OW18862   0.021   7.868   7.205  0.3114 -0.0128 -0.2451
 5708SOL    HW118863   0.098   7.865   7.148  0.7681 -0.5259  0.3822
 5708SOL    HW218864  -0.045   7.915   7.154  0.7071 -0.4604 -1.1907
 5709SOL     OW18865   3.391   0.310   5.771  0.2378 -0.0827  0.1745
 5709SOL    HW118866   3.313   0.266   5.736  0.2798  0.1617 -0.2354
 5709SOL    HW218867   3.415   0.258   5.847  0.2096 -0.6954 -0.2245
 5710SOL     OW18868   1.356   8.431   1.530  0.4673 -0.4068 -0.0409
 5710SOL    HW118869   1.314   8.345   1.523 -0.8021  0.2020 -0.0914
 5710SOL    HW218870   1.392   8.447   1.442 -1.8812  0.3784 -0.9484
 5711SOL     OW18871   5.913   5.647   0.324 -0.0541 -0.3912  0.8183
 5711SOL    HW118872   5.876   5.723   0.278  0.6052 -0.5209  0.0455
 5711SOL    HW218873   5.842   5.616   0.380 -1.3070 -0.8908 -0.9272
 5712SOL     OW18874   6.417   2.378   4.707 -0.2919 -0.2744  0.4764
 5712SOL    HW118875   6.439   2.437   4.779  3.0335 -0.6304 -0.1132
 5712SOL    HW218876   6.408   2.292   4.749  2.4667 -0.6406  0.5149
 5713SOL     OW18877   1.955   5.496   0.969 -0.3122 -0.3488  0.1948
 5713SOL    HW118878   1.899   5.508   1.046  0.1514 -0.5953  0.5831
 5713SOL    HW218879   1.951   5.402   0.952 -1.4586 -0.1118 -0.9020
 5714SOL     OW18880   8.090   7.767   0.314 -0.3828 -0.3514  0.1164
 5714SOL    HW118881   8.015   7.791   0.259  0.7802  1.5375 -0.7478
 5714SOL    HW218882   8.166   7.774   0.256  0.5060 -2.2335  0.9739
 5715SOL     OW18883   0.942   6.890   2.945  0.4390 -0.0686 -0.8096
 5715SOL    HW118884   0.957   6.898   3.039 -1.7038  2.1090 -0.5525
 5715SOL    HW218885   1.029   6.879   2.908  1.6008  1.5983  1.2303
 5716SOL     OW18886   1.548   8.284   6.209  0.2487 -0.0888  0.1344
 5716SOL    HW118887   1.499   8.275   6.290  1.1493 -3.5841  0.4423
 5716SOL    HW218888   1.482   8.293   6.140 -0.6168  0.0289  0.9771
 5717SOL     OW18889   9.469   9.408   3.302 -0.3382  0.1743 -0.5822
 5717SOL    HW118890   9.519   9.486   3.277 -0.0584  0.1198 -0.2062
 5717SOL    HW218891   9.468   9.410   3.398 -3.4263  1.6757 -0.5374
 5718SOL     OW18892   7.780   9.556   5.067  0.1292  0.1568 -0.3456
 5718SOL    HW118893   7.852   9.619   5.066  0.9299 -0.7368 -0.9412
 5718SOL    HW218894   7.711   9.599   5.016  1.1175  0.0788 -1.8214
 5719SOL     OW18895   8.178   0.882   2.510  0.0553  0.3754 -0.1861
 5719SOL    HW118896   8.116   0.943   2.470 -1.4598  0.1574  1.6521
 5719SOL    HW218897   8.264   0.917   2.488 -0.7567  2.5842 -0.0978
 5720SOL     OW18898   1.981   3.453   8.615 -0.1991 -0.2142  0.4770
 5720SOL    HW118899   1.993   3.495   8.530 -0.8449 -1.4821 -0.2651
 5720SOL    HW218900   2.066   3.414   8.635 -0.3670 -0.8947 -0.1340
 5721SOL     OW18901   5.099   2.764   8.177 -0.4329  0.0436 -0.6613
 5721SOL    HW118902   5.135   2.843   8.217 -0.6708 -0.0992 -0.1589
 5721SOL    HW218903   5.142   2.692   8.222  1.1242 -0.1341 -2.3416
 5722SOL     OW18904   0.795   3.083   1.999 -0.2500  0.1293 -0.2883
 5722SOL    HW118905   0.875   3.120   1.965 -0.1501  2.6737  2.3146
 5722SOL    HW218906   0.823   3.007   2.051  0.2642  0.0544 -0.6753
 5723SOL     OW18907   1.564   8.032   2.821  0.1110  0.0916 -0.2577
 5723SOL    HW118908   1.505   8.014   2.749  0.4421 -0.2344 -0.4521
 5723SOL    HW218909   1.530   8.112   2.861 -0.0240  0.3256 -0.8299
 5724SOL     OW18910   1.716   9.495   9.479 -0.6290  0.1429 -0.2522
 5724SOL    HW118911   1.773   9.523   9.551  0.2359  0.2701 -0.9698
 5724SOL    HW218912   1.727   9.400   9.475 -2.5599 -0.2085  1.3352
 5725SOL     OW18913   6.655   1.645   7.198  0.0713  0.3104  0.0573
 5725SOL    HW118914   6.653   1.722   7.142 -0.7067  0.6387  0.5204
 5725SOL    HW218915   6.680   1.678   7.285  0.7328 -0.1108  0.0372
 5726SOL     OW18916   0.485   4.789   2.000 -0.1009  0.3338  0.0875
 5726SOL    HW118917   0.431   4.821   2.072  0.0362  1.4176 -0.2594
 5726SOL    HW218918   0.574   4.818   2.023  0.1881 -0.6385  0.2129
 5727SOL     OW18919   9.214   0.328   0.390 -0.1603 -0.1907  0.0428
 5727SOL    HW118920   9.126   0.337   0.352 -0.9935 -0.3014  1.8269
 5727SOL    HW218921   9.235   0.235   0.380  0.1294 -0.0169 -1.1168
 5728SOL     OW18922   3.208   8.413   8.698  0.1687 -0.2331 -0.4606
 5728SOL    HW118923   3.270   8.351   8.736  0.5001  0.6856  0.5417
 5728SOL    HW218924   3.153   8.440   8.771 -0.3733  0.1869 -1.0126
 5729SOL     OW18925   3.233   0.652   6.349 -0.6270 -0.2920 -0.3649
 5729SOL    HW118926   3.194   0.729   6.391 -0.2778 -0.3530  0.0799
 5729SOL    HW218927   3.314   0.683   6.310 -0.6004 -0.3833 -0.3841
 5730SOL     OW18928   6.003   2.140   5.893 -0.0114  0.1372 -0.2866
 5730SOL    HW118929   6.081   2.169   5.846  0.4923  1.8575  1.4693
 5730SOL    HW218930   5.955   2.220   5.913 -1.5936 -0.7771 -0.2318
 5731SOL     OW18931   6.818   6.922   5.810  0.2874 -0.2911  0.0292
 5731SOL    HW118932   6.724   6.907   5.798  0.3077 -1.2493  0.9471
 5731SOL    HW218933   6.845   6.855   5.873  1.3204  0.8029  0.7836
 5732SOL     OW18934   6.755   5.374   9.495 -0.1444  0.2535  0.2844
 5732SOL    HW118935   6.714   5.452   9.459 -0.6201 -0.5406 -0.9571
 5732SOL    HW218936   6.780   5.322   9.419 -1.9976 -1.9194  1.0157
 5733SOL     OW18937   2.119   6.814   1.325  0.5377 -0.3173 -0.7306
 5733SOL    HW118938   2.119   6.718   1.330  1.5111 -0.2777  0.4488
 5733SOL    HW218939   2.211   6.838   1.318  0.6063  0.6187  1.9963
 5734SOL     OW18940   3.244   5.766   1.144  0.0512 -0.0761  0.0952
 5734SOL    HW118941   3.168   5.821   1.127 -0.3049 -0.2243  1.1103
 5734SOL    HW218942   3.316   5.810   1.099 -0.2283  1.1989  0.8358
 5735SOL     OW18943   4.419   7.661   0.579  0.1502 -0.4418  0.0180
 5735SOL    HW118944   4.479   7.592   0.552  0.8425  0.2997 -0.4116
 5735SOL    HW218945   4.338   7.616   0.601  0.8242 -1.4686  0.5057
 5736SOL     OW18946   0.890   9.066   7.910  0.1691  0.1461  0.2192
 5736SOL    HW118947   0.955   9.001   7.936 -0.6320 -0.3957  0.8743
 5736SOL    HW218948   0.817   9.015   7.875  0.9663  0.8024 -2.7187
 5737SOL     OW18949   1.289   5.027   5.199 -1.0560 -0.4787  0.3668
 5737SOL    HW118950   1.275   4.968   5.125  0.9773 -1.7322  0.9093
 5737SOL    HW218951   1.353   5.090   5.168 -2.9561  1.3353 -0.0912
 5738SOL     OW18952   6.790   6.401   8.652 -0.6175 -0.3187 -0.2704
 5738SOL    HW118953   6.822   6.421   8.740  0.8789 -3.0392 -0.1117
 5738SOL    HW218954   6.697   6.424   8.655 -0.4496  0.3295  1.7559
 5739SOL     OW18955   7.799   2.428   1.019 -0.4351 -0.6037 -0.2093
 5739SOL    HW118956   7.745   2.392   0.948  1.7196 -2.4624 -1.0361
 5739SOL    HW218957   7.855   2.492   0.977  0.1759 -0.9953  0.0016
 5740SOL     OW18958   8.663   1.339   4.654  0.3814 -0.1295  0.5284
 5740SOL    HW118959   8.600   1.268   4.637  0.6815 -0.6898  1.6919
 5740SOL    HW218960   8.676   1.338   4.749  1.8498  0.2465  0.3505
 5741SOL     OW18961   2.700   2.849   0.368 -0.5646 -0.4624 -0.5507
 5741SOL    HW118962   2.775   2.844   0.428 -0.6450 -0.1949 -0.4274
 5741SOL    HW218963   2.656   2.765   0.378  0.1725 -0.9357 -1.2163
 5742SOL     OW18964   1.090   0.067   0.995 -0.0615 -0.2408 -0.8423
 5742SOL    HW118965   1.106   0.147   0.946  1.9598 -1.1431 -1.7897
 5742SOL    HW218966   1.105   0.091   1.087 -1.5784  0.9185 -0.8619
 5743SOL     OW18967   4.454   2.113   1.238  0.0177  0.3458 -0.1067
 5743SOL    HW118968   4.537   2.066   1.228  0.2535  0.6855  0.2236
 5743SOL    HW218969   4.443   2.160   1.156 -1.1296 -1.6791 -1.2115
 5744SOL     OW18970   9.241   3.707   8.340  0.4142  0.1482  0.0213
 5744SOL    HW118971   9.266   3.630   8.289 -1.7106  0.2855 -1.3603
 5744SOL    HW218972   9.290   3.779   8.300  0.1985 -0.0538 -0.6228
 5745SOL     OW18973   7.370   2.691   5.968 -0.0908 -0.2533 -0.2230
 5745SOL    HW118974   7.463   2.676   5.984 -0.4545 -1.8414  0.6929
 5745SOL    HW218975   7.333   2.704   6.055 -0.7882  0.0203 -0.5525
 5746SOL     OW18976   7.384   3.897   8.179  0.0571 -0.2209  0.0183
 5746SOL    HW118977   7.376   3.811   8.220  0.0766  0.7440  2.1603
 5746SOL    HW218978   7.314   3.949   8.219  0.0425  0.7750 -1.2500
 5747SOL     OW18979   3.364   3.370   8.559  0.1529 -0.0396  0.3579
 5747SOL    HW118980   3.328   3.455   8.532 -0.5674 -1.2377 -2.9508
 5747SOL    HW218981   3.287   3.319   8.586  0.3971 -0.1644  0.8351
 5748SOL     OW18982   4.749   7.445   4.181  0.2581 -0.0071 -0.0422
 5748SOL    HW118983   4.701   7.375   4.135 -2.3851  1.7534 -0.1933
 5748SOL    HW218984   4.722   7.525   4.136  1.6331  1.3128  1.3878
 5749SOL     OW18985   2.509   7.963   1.667 -0.0959  0.2266 -0.6153
 5749SOL    HW118986   2.492   7.975   1.574 -1.2197 -0.4526 -0.5109
 5749SOL    HW218987   2.433   8.000   1.711  0.9784  1.6785  0.1171
 5750SOL     OW18988   8.338   8.626   3.243 -0.3413  0.1018  0.3629
 5750SOL    HW118989   8.327   8.635   3.337  1.3834  0.0210  0.5944
 5750SOL    HW218990   8.426   8.659   3.225 -1.0926  1.3593 -1.4163
 5751SOL     OW18991   3.599   4.255   4.773  0.4741 -0.1408  0.6754
 5751SOL    HW118992   3.666   4.275   4.708 -1.5724  0.0275 -1.5085
 5751SOL    HW218993   3.542   4.331   4.773 -2.4732 -2.1517 -1.2842
 5752SOL     OW18994   5.417   4.896   1.322 -0.4963 -0.0564  0.0708
 5752SOL    HW118995   5.328   4.927   1.306 -0.0010  1.8271  0.6749
 5752SOL    HW218996   5.464   4.914   1.240 -0.2906  0.5180  0.3074
 5753SOL     OW18997   3.406   2.650   0.622 -0.5864  0.1271  0.1505
 5753SOL    HW118998   3.423   2.735   0.662  0.4195 -0.4771  1.0670
 5753SOL    HW218999   3.480   2.595   0.650 -2.0332 -1.5047  0.9413
 5754SOL     OW19000   3.517   2.827   6.898 -0.3105  0.1926  0.2173
 5754SOL    HW119001   3.534   2.911   6.854  1.5466  0.1337  0.7473
 5754SOL    HW219002   3.483   2.853   6.984 -1.4474  0.3488 -0.2617
 5755SOL     OW19003   7.186   8.948   4.038  0.1061 -0.2627 -0.1923
 5755SOL    HW119004   7.252   8.899   3.988 -0.0991  0.1404 -0.8749
 5755SOL    HW219005   7.117   8.885   4.055  1.6092 -1.3673  2.5277
 5756SOL     OW19006   1.461   0.877   7.616 -0.1896  0.1574 -0.2880
 5756SOL    HW119007   1.519   0.933   7.668  1.5287 -0.0661 -1.8618
 5756SOL    HW219008   1.381   0.929   7.606  0.0748  0.9018  1.0866
 5757SOL     OW19009   6.256   1.521   4.694  0.2707 -0.0672  0.2384
 5757SOL    HW119010   6.164   1.538   4.673 -0.2063 -1.6154  0.9425
 5757SOL    HW219011   6.253   1.456   4.765  1.8987  0.7548  1.1066
 5758SOL     OW19012   3.656   2.660   3.563 -0.1460 -0.2142 -0.0755
 5758SOL    HW119013   3.607   2.682   3.484  0.3579 -1.2125 -0.6773
 5758SOL    HW219014   3.596   2.681   3.635 -1.5216 -1.5639 -0.7886
 5759SOL     OW19015   7.896   9.473   2.998  0.1343  0.4619  0.1772
 5759SOL    HW119016   7.879   9.566   3.010  2.6420  0.8863  1.1600
 5759SOL    HW219017   7.860   9.452   2.912 -2.9846  1.5925  1.0723
 5760SOL     OW19018   2.884   5.549   8.880 -0.2819  0.2623  0.5017
 5760SOL    HW119019   2.812   5.540   8.817 -0.8887 -2.1902  1.4475
 5760SOL    HW219020   2.848   5.602   8.950  0.1533  2.3543 -0.7551
 5761SOL     OW19021   8.767   8.828   5.273 -0.1615 -0.6905 -0.5513
 5761SOL    HW119022   8.677   8.837   5.240 -0.9834 -1.6336  1.2739
 5761SOL    HW219023   8.816   8.792   5.199 -1.0303  0.7777 -1.9033
 5762SOL     OW19024   2.827   5.146   3.568  0.3740  0.3556  0.1510
 5762SOL    HW119025   2.784   5.232   3.566 -0.1627  0.0856 -0.3662
 5762SOL    HW219026   2.903   5.158   3.625 -0.9281  0.5970  1.9091
 5763SOL     OW19027   4.528   0.993   4.544 -0.6816  0.0284  0.1638
 5763SOL    HW119028   4.580   0.964   4.619 -0.2223 -2.1836 -0.9048
 5763SOL    HW219029   4.443   0.951   4.557 -1.0845  0.8306  0.1629
 5764SOL     OW19030   7.969   3.515   5.563  0.0640 -0.3408 -0.4392
 5764SOL    HW119031   7.951   3.422   5.548  1.3015 -0.5310 -0.8709
 5764SOL    HW219032   8.044   3.515   5.623  0.4511  0.3581 -0.9057
 5765SOL     OW19033   5.530   0.662   6.213  0.3470  0.5774  0.2777
 5765SOL    HW119034   5.465   0.617   6.159  0.8846  0.6765 -0.4747
 5765SOL    HW219035   5.483   0.687   6.292 -1.6968  4.1883 -1.8120
 5766SOL     OW19036   4.580   6.210   4.625 -0.0063 -0.2874 -0.1680
 5766SOL    HW119037   4.485   6.207   4.629 -0.0349 -1.3872 -1.0778
 5766SOL    HW219038   4.605   6.282   4.683 -1.5704  2.1013 -2.2404
 5767SOL     OW19039   0.370   5.586   7.199  0.0093  0.2463  0.1001
 5767SOL    HW119040   0.340   5.596   7.289 -0.4679 -0.8948  0.0798
 5767SOL    HW219041   0.292   5.558   7.151  0.7020 -1.1489 -0.2679
 5768SOL     OW19042   0.412   8.366   9.277  0.1841  0.4167  0.0130
 5768SOL    HW119043   0.453   8.453   9.274  1.3603 -0.0959  0.4524
 5768SOL    HW219044   0.484   8.307   9.298 -0.8125 -0.5314  0.8642
 5769SOL     OW19045   9.306   5.783   8.887  0.0545 -0.2276 -0.1782
 5769SOL    HW119046   9.329   5.721   8.817 -0.5619  0.0490 -0.6371
 5769SOL    HW219047   9.313   5.869   8.845 -1.6127 -0.1227 -0.2981
 5770SOL     OW19048   0.847   5.439   2.777  0.5893  0.4479 -0.2852
 5770SOL    HW119049   0.789   5.515   2.785 -0.1679 -0.0539 -0.8211
 5770SOL    HW219050   0.881   5.445   2.688  0.3689  0.0576 -0.3978
 5771SOL     OW19051   1.738   5.864   8.438  0.3260  0.0223 -0.0170
 5771SOL    HW119052   1.758   5.781   8.481 -2.3546  0.1166  1.6463
 5771SOL    HW219053   1.671   5.842   8.372  0.2690  0.7216 -0.2041
 5772SOL     OW19054   3.348   9.453   5.307  0.6230  0.3653  0.4327
 5772SOL    HW119055   3.367   9.371   5.261  1.9574  1.3757 -0.9166
 5772SOL    HW219056   3.254   9.447   5.328 -0.7035  0.5899 -4.2014
 5773SOL     OW19057   3.502   1.068   5.726 -0.1230  0.0128 -0.1484
 5773SOL    HW119058   3.592   1.037   5.737 -0.3411 -1.2769 -1.6726
 5773SOL    HW219059   3.476   1.097   5.814  1.8015  0.5448  0.2958
 5774SOL     OW19060   1.318   1.606   5.713 -0.1488  0.1286  0.1556
 5774SOL    HW119061   1.380   1.656   5.767  2.7211 -1.0274 -1.8503
 5774SOL    HW219062   1.296   1.664   5.641  1.6195 -0.6315 -1.0929
 5775SOL     OW19063   5.981   7.367   2.140 -0.2680  0.4866  0.1261
 5775SOL    HW119064   6.009   7.372   2.049 -0.9634 -0.3710 -0.1489
 5775SOL    HW219065   6.030   7.293   2.177 -3.3835 -2.3425 -0.8849
 5776SOL     OW19066   6.183   8.871   5.737  0.0303 -0.1211  0.0852
 5776SOL    HW119067   6.201   8.846   5.828 -0.1645 -0.3834  0.0510
 5776SOL    HW219068   6.090   8.854   5.725  0.1221 -0.3957 -0.2611
 5777SOL     OW19069   9.321   6.836   0.355 -0.4241  0.3610  0.2512
 5777SOL    HW119070   9.311   6.770   0.286 -2.2526  0.5388  0.2991
 5777SOL    HW219071   9.394   6.804   0.408  0.1873 -0.4333 -1.0308
 5778SOL     OW19072   0.586   4.215   9.458 -0.4748  0.1322 -0.1244
 5778SOL    HW119073   0.650   4.173   9.515  1.2907  1.2023 -1.2013
 5778SOL    HW219074   0.502   4.198   9.499  0.5116 -1.0890  1.5200
 5779SOL     OW19075   5.511   6.574   8.115 -0.7616 -0.6806  0.0968
 5779SOL    HW119076   5.446   6.520   8.070  0.5259 -1.6352 -0.7163
 5779SOL    HW219077   5.534   6.524   8.193 -1.6711  0.1037  0.8786
 5780SOL     OW19078   7.750   1.109   9.303  0.4687 -0.4182  0.1764
 5780SOL    HW119079   7.749   1.045   9.374  1.3696  0.2941  0.8529
 5780SOL    HW219080   7.834   1.096   9.259  0.7725  0.4475  0.4759
 5781SOL     OW19081   5.469   5.623   8.297 -0.9601 -0.3764  0.1951
 5781SOL    HW119082   5.387   5.613   8.249 -0.6631 -0.6741 -0.2624
 5781SOL    HW219083   5.523   5.549   8.269 -0.6778 -0.4098  0.7896
 5782SOL     OW19084   6.886   4.452   1.155  0.2270  0.5620  0.2632
 5782SOL    HW119085   6.959   4.509   1.131 -0.0232  0.1631 -1.5710
 5782SOL    HW219086   6.822   4.511   1.195  0.1064  1.5520 -1.3158
 5783SOL     OW19087   5.073   3.792   3.142  0.3442 -0.2822 -0.0756
 5783SOL    HW119088   5.080   3.883   3.173  0.3911  0.9171 -3.2163
 5783SOL    HW219089   5.156   3.776   3.098  0.3671 -1.9406  0.5171
 5784SOL     OW19090   6.066   4.096   9.394 -0.4768 -0.3397  0.0730
 5784SOL    HW119091   6.131   4.026   9.391 -1.0221 -0.8525  0.1244
 5784SOL    HW219092   5.982   4.052   9.387 -0.8263  0.3199  0.0047
 5785SOL     OW19093   1.598   2.227   3.826  0.6635  0.4073  0.2526
 5785SOL    HW119094   1.533   2.203   3.760  2.2520 -1.0841 -0.8493
 5785SOL    HW219095   1.617   2.319   3.810  0.2444  0.3374 -0.6724
 5786SOL     OW19096   3.456   8.698   4.544  0.1666 -0.5654  0.0437
 5786SOL    HW119097   3.491   8.785   4.524  1.2910 -0.8705  0.5967
 5786SOL    HW219098   3.527   8.638   4.521  0.0809 -1.1979  1.3488
 5787SOL     OW19099   9.326   5.615   8.658 -0.2783 -0.1939 -0.5051
 5787SOL    HW119100   9.411   5.587   8.691 -0.2283 -0.2522 -0.6825
 5787SOL    HW219101   9.299   5.544   8.599  0.0291  0.3125 -1.2677
 5788SOL     OW19102   6.155   8.698   0.312  0.1399  0.8476  0.5443
 5788SOL    HW119103   6.251   8.707   0.317  0.4201 -1.3096 -0.0662
 5788SOL    HW219104   6.135   8.627   0.373 -1.0611  1.0851  0.4399
 5789SOL     OW19105   4.241   4.091   6.611  0.2435  0.1403 -0.3057
 5789SOL    HW119106   4.328   4.102   6.648  0.0723 -0.1235  0.1814
 5789SOL    HW219107   4.256   4.077   6.518  0.7288  0.0131 -0.2104
 5790SOL     OW19108   2.558   5.013   5.507 -0.1554 -0.2524 -0.0213
 5790SOL    HW119109   2.607   4.978   5.581 -1.1261 -0.7960  0.3899
 5790SOL    HW219110   2.603   5.094   5.484  0.8115 -0.6390  0.4466
 5791SOL     OW19111   3.267   5.111   3.371 -0.4273 -0.0913  0.0305
 5791SOL    HW119112   3.233   5.197   3.398  0.1552  0.0122  0.4770
 5791SOL    HW219113   3.207   5.082   3.303 -0.9577  0.4232  0.2606
 5792SOL     OW19114   4.315   1.396   1.807  0.0775 -0.1556 -0.1682
 5792SOL    HW119115   4.380   1.377   1.739  1.2393 -0.4510  1.0072
 5792SOL    HW219116   4.344   1.477   1.847 -0.6259  0.0341 -0.0240
 5793SOL     OW19117   8.965   3.364   7.154 -0.3446  1.0423 -0.4700
 5793SOL    HW119118   8.875   3.373   7.185 -0.4465 -1.9179  0.3889
 5793SOL    HW219119   8.956   3.349   7.060 -1.1299 -2.3979  0.0347
 5794SOL     OW19120   7.124   8.762   0.265  0.0447  0.0589 -0.8918
 5794SOL    HW119121   7.195   8.772   0.202  0.2600  2.8665 -0.3359
 5794SOL    HW219122   7.048   8.801   0.222 -0.2289  0.4552 -0.0603
 5795SOL     OW19123   2.363   0.798   3.620  0.8145  0.1440  0.1095
 5795SOL    HW119124   2.279   0.821   3.580  0.7611  0.2354  0.2756
 5795SOL    HW219125   2.426   0.859   3.582  1.0941 -0.9277 -1.2068
 5796SOL     OW19126   1.466   4.316   7.202 -0.4882  0.1932 -0.1638
 5796SOL    HW119127   1.516   4.356   7.274 -1.5754 -0.9390  1.2925
 5796SOL    HW219128   1.401   4.262   7.246 -1.2610 -0.4759 -2.0391
 5797SOL     OW19129   0.403   2.131   3.358 -0.2390 -0.2548  0.0800
 5797SOL    HW119130   0.333   2.067   3.365 -0.2296 -0.4538 -1.3775
 5797SOL    HW219131   0.481   2.080   3.336 -0.4441  0.2797 -2.1981
 5798SOL     OW19132   4.612   8.903   3.915 -0.4829  0.3638 -0.0430
 5798SOL    HW119133   4.534   8.936   3.959  0.8835  1.9521  1.3518
 5798SOL    HW219134   4.635   8.971   3.851  0.2641  0.3536  0.2028
 5799SOL     OW19135   4.578   4.256   5.488  0.6654 -0.6158 -0.4845
 5799SOL    HW119136   4.593   4.224   5.399 -0.6746 -0.1733 -0.8962
 5799SOL    HW219137   4.528   4.337   5.476  0.5024 -0.5348  0.6663
 5800SOL     OW19138   1.368   3.492   0.285 -0.2191  0.0702  0.2257
 5800SOL    HW119139   1.322   3.488   0.202 -0.0477 -1.1292  0.1730
 5800SOL    HW219140   1.350   3.580   0.318 -3.1342 -0.5334  0.5454
 5801SOL     OW19141   9.240   1.935   3.845  0.4280  0.1619  0.1449
 5801SOL    HW119142   9.282   1.850   3.830  0.4073  0.2082 -0.1825
 5801SOL    HW219143   9.148   1.920   3.824  0.5895  0.5033 -0.8320
 5802SOL     OW19144   6.150   0.941   2.057 -0.3161 -0.2784 -0.0147
 5802SOL    HW119145   6.227   0.973   2.105  0.4732 -2.7171  0.5234
 5802SOL    HW219146   6.163   0.971   1.967  0.1008  1.2304  0.5265
 5803SOL     OW19147   8.234   4.222   8.732  0.1494 -0.3218  0.1250
 5803SOL    HW119148   8.149   4.179   8.722 -0.8750  1.2015  1.6585
 5803SOL    HW219149   8.251   4.261   8.647  1.6650 -4.4322 -1.7408
 5804SOL     OW19150   2.526   2.297   1.477  0.6354 -0.1325  0.0832
 5804SOL    HW119151   2.599   2.236   1.475  0.8897  0.1803 -1.1572
 5804SOL    HW219152   2.491   2.290   1.565  2.4969  0.1236  0.8831
 5805SOL     OW19153   4.240   3.967   2.826 -0.2885  0.5599 -0.0603
 5805SOL    HW119154   4.304   4.033   2.853 -1.4172  1.6773  0.0034
 5805SOL    HW219155   4.288   3.909   2.768  0.8444  1.2132  0.1889
 5806SOL     OW19156   3.901   0.622   0.669  0.1926 -0.3932 -0.2443
 5806SOL    HW119157   3.843   0.572   0.728 -1.5385  0.8668 -0.7896
 5806SOL    HW219158   3.978   0.641   0.722 -0.8476 -0.2247  1.2916
 5807SOL     OW19159   4.848   3.531   6.227  0.0174 -0.1878  0.0497
 5807SOL    HW119160   4.883   3.595   6.289 -0.6906  0.5314 -0.2809
 5807SOL    HW219161   4.847   3.576   6.143 -1.5348 -0.2240  0.0120
 5808SOL     OW19162   3.349   8.030   4.423 -0.1273 -0.7324 -0.3088
 5808SOL    HW119163   3.399   8.048   4.503 -2.1367 -0.0771  0.8606
 5808SOL    HW219164   3.344   7.934   4.419  0.4606 -0.7840  0.0098
 5809SOL     OW19165   6.923   6.579   5.725  0.3375 -1.0606 -0.0052
 5809SOL    HW119166   6.853   6.616   5.780  0.8806 -0.6190  0.4011
 5809SOL    HW219167   6.883   6.503   5.683 -0.4272 -0.7397  0.1236
 5810SOL     OW19168   3.149   5.019   0.118  0.5617  0.4321 -0.1439
 5810SOL    HW119169   3.159   5.064   0.035 -1.5689  2.3884  0.5539
 5810SOL    HW219170   3.094   5.077   0.171  0.3209 -1.5577  1.9821
 5811SOL     OW19171   2.223   6.711   2.571 -0.0336 -0.1607 -0.1822
 5811SOL    HW119172   2.173   6.785   2.605  1.7234  1.0915 -0.1632
 5811SOL    HW219173   2.237   6.654   2.647  0.3232  0.5155  0.2621
 5812SOL     OW19174   5.390   5.897   8.702 -0.0302  1.0221 -0.3118
 5812SOL    HW119175   5.295   5.903   8.696 -0.1771 -0.9859 -0.7238
 5812SOL    HW219176   5.410   5.808   8.672  1.9405  1.2660  0.1654
 5813SOL     OW19177   6.140   2.490   4.165 -0.1013 -0.2512 -0.1656
 5813SOL    HW119178   6.226   2.522   4.192  0.3771  0.5716 -2.4919
 5813SOL    HW219179   6.159   2.417   4.106 -1.0651 -1.0306  0.4470
 5814SOL     OW19180   1.052   7.551   2.429 -0.4656 -0.3481 -0.3497
 5814SOL    HW119181   1.138   7.510   2.420 -1.1504 -1.8285 -0.4010
 5814SOL    HW219182   1.055   7.627   2.370  0.8999 -0.1881 -0.1051
 5815SOL     OW19183   0.806   6.338   7.495 -0.3646  0.4033 -0.1632
 5815SOL    HW119184   0.898   6.327   7.473 -0.2928  0.6344  0.0142
 5815SOL    HW219185   0.788   6.269   7.559 -0.3427  0.2874 -0.2837
 5816SOL     OW19186   7.159   1.757   4.151  0.3406 -0.4867  0.5718
 5816SOL    HW119187   7.137   1.838   4.105 -1.0087 -0.5512  1.0413
 5816SOL    HW219188   7.074   1.722   4.179  1.0063 -1.2896  1.6774
 5817SOL     OW19189   5.577   8.666   8.730  0.3919 -0.2539  0.0107
 5817SOL    HW119190   5.624   8.688   8.811 -1.2833  0.8473  0.7504
 5817SOL    HW219191   5.593   8.740   8.672 -0.7215  0.3460  0.4324
 5818SOL     OW19192   6.854   9.259   9.233 -0.2593 -0.0435 -0.0686
 5818SOL    HW119193   6.860   9.354   9.227  1.7168 -0.2110 -1.9114
 5818SOL    HW219194   6.796   9.243   9.308 -0.6981  2.5786  0.2367
 5819SOL     OW19195   6.140   2.315   0.270 -0.1811  0.3703  0.2584
 5819SOL    HW119196   6.068   2.251   0.273 -0.2317  0.3844 -0.4477
 5819SOL    HW219197   6.212   2.272   0.316  0.4764 -1.1049 -1.9832
 5820SOL     OW19198   8.302   8.474   2.362 -0.2291 -0.2970  0.0514
 5820SOL    HW119199   8.337   8.392   2.328 -0.9010 -0.8084  0.5715
 5820SOL    HW219200   8.292   8.530   2.285  0.9009 -0.4428 -0.2207
 5821SOL     OW19201   3.209   3.551   3.585 -0.2694 -0.1106 -0.1412
 5821SOL    HW119202   3.270   3.584   3.650  1.4543 -3.4945  0.2066
 5821SOL    HW219203   3.154   3.489   3.633  0.1528 -1.6878 -1.5762
 5822SOL     OW19204   2.104   5.464   5.131 -0.0375  0.2183 -0.7414
 5822SOL    HW119205   2.181   5.513   5.159 -0.2556  1.0515 -1.5385
 5822SOL    HW219206   2.097   5.392   5.193  2.4034 -0.9175 -1.6813
 5823SOL     OW19207   4.547   3.108   7.020  0.1856  0.0259  0.3404
 5823SOL    HW119208   4.463   3.150   7.003 -0.8535 -2.3325 -0.8173
 5823SOL    HW219209   4.535   3.066   7.105  0.7453  0.8783  0.8580
 5824SOL     OW19210   6.346   4.153   0.625  0.7865  0.1423  0.2539
 5824SOL    HW119211   6.323   4.219   0.691  0.9222 -0.1359  0.5855
 5824SOL    HW219212   6.306   4.072   0.657  1.6577 -0.2018  0.5004
 5825SOL     OW19213   2.173   8.060   8.823  0.1362  0.1834  0.1978
 5825SOL    HW119214   2.116   7.988   8.795 -0.2648 -1.0332  3.7059
 5825SOL    HW219215   2.203   8.099   8.741 -1.1075 -2.7867 -1.8585
 5826SOL     OW19216   0.260   5.133   5.371 -0.4892 -0.8367 -0.4079
 5826SOL    HW119217   0.256   5.228   5.367 -0.4443 -0.8253 -0.1768
 5826SOL    HW219218   0.266   5.113   5.464  1.2861 -0.9914 -0.5194
 5827SOL     OW19219   4.175   0.237   7.982  0.3379  0.0485 -0.5576
 5827SOL    HW119220   4.222   0.167   7.938  0.9986  1.6880 -2.6074
 5827SOL    HW219221   4.082   0.219   7.966  0.4904 -0.4360 -0.9052
 5828SOL     OW19222   0.262   1.869   7.915 -0.5411 -0.3165  0.3760
 5828SOL    HW119223   0.289   1.955   7.883 -1.2394 -0.0967  0.3498
 5828SOL    HW219224   0.194   1.840   7.853 -0.6283 -0.6862  0.6379
 5829SOL     OW19225   9.036   3.756   4.569 -0.5027  0.5976  0.1621
 5829SOL    HW119226   9.010   3.671   4.606 -1.1275  0.4267 -0.6289
 5829SOL    HW219227   8.993   3.821   4.624 -0.2213  0.3968  0.6245
 5830SOL     OW19228   1.817   5.671   0.093  0.4832  0.0653  0.3612
 5830SOL    HW119229   1.844   5.718   0.172  1.2891 -1.4816  1.0737
 5830SOL    HW219230   1.886   5.690   0.029  0.2154  0.7394  0.2736
 5831SOL     OW19231   0.834   2.470   5.764 -0.5306 -0.6305 -0.1526
 5831SOL    HW119232   0.880   2.499   5.685 -0.1614  0.0727  0.3100
 5831SOL    HW219233   0.774   2.542   5.785 -2.0828 -1.6465 -0.9008
 5832SOL     OW19234   8.440   2.748   4.925  0.1177 -0.4170 -0.2331
 5832SOL    HW119235   8.376   2.773   4.859 -0.0874 -0.3318 -0.0045
 5832SOL    HW219236   8.472   2.831   4.961 -0.9856 -0.4597  0.9300
 5833SOL     OW19237   4.470   3.195   2.442 -0.1235 -0.0937  0.1001
 5833SOL    HW119238   4.528   3.258   2.400  0.9401 -0.1097  1.4478
 5833SOL    HW219239   4.388   3.242   2.455  0.6684  1.0656  1.1319
 5834SOL     OW19240   3.620   0.807   3.984  0.1256  0.2214 -0.1968
 5834SOL    HW119241   3.605   0.890   4.028  0.7906 -0.1673  0.7966
 5834SOL    HW219242   3.711   0.812   3.953  0.0687 -0.0058 -0.4017
 5835SOL     OW19243   0.245   7.075   6.557  0.2473 -0.1018  0.1842
 5835SOL    HW119244   0.280   7.020   6.487  1.7591 -0.1029  0.8984
 5835SOL    HW219245   0.297   7.051   6.634 -0.3033  1.0381  0.9295
 5836SOL     OW19246   3.894   6.283   0.555 -0.4451 -0.3858  0.5806
 5836SOL    HW119247   3.967   6.316   0.502 -1.3568 -0.5647 -0.8323
 5836SOL    HW219248   3.881   6.351   0.622  1.2606 -0.5438  1.1284
 5837SOL     OW19249   5.525   5.794   9.576  0.4393  0.2604  0.3176
 5837SOL    HW119250   5.445   5.837   9.603 -0.3725  0.0511 -1.5679
 5837SOL    HW219251   5.496   5.712   9.535  1.4860  0.6335 -1.2791
 5838SOL     OW19252   1.965   1.449   5.757 -0.1136 -0.1389 -0.3624
 5838SOL    HW119253   2.029   1.423   5.823 -0.7095 -0.0704  0.2524
 5838SOL    HW219254   1.935   1.367   5.719 -1.5219 -0.3783  1.1316
 5839SOL     OW19255   1.725   7.482   0.719  0.2964  0.0298 -0.4450
 5839SOL    HW119256   1.720   7.573   0.690  0.1272  1.3350  3.0937
 5839SOL    HW219257   1.635   7.449   0.709 -0.0388  0.8483 -0.2393
 5840SOL     OW19258   9.522   6.979   4.451  0.1185  0.7618  0.3929
 5840SOL    HW119259   9.601   7.017   4.489  0.9533 -0.8669  0.3601
 5840SOL    HW219260   9.550   6.894   4.417 -1.8352 -0.2569  1.1865
 5841SOL     OW19261   3.775   6.415   7.687  0.3163 -0.4997 -0.1413
 5841SOL    HW119262   3.686   6.438   7.661 -0.5454 -0.6312  2.4437
 5841SOL    HW219263   3.802   6.486   7.745  2.5102  0.2786 -1.9660
 5842SOL     OW19264   4.039   6.208   7.858  0.5053  0.7318 -0.4161
 5842SOL    HW119265   4.009   6.188   7.769 -3.5310  2.3886  0.3178
 5842SOL    HW219266   4.078   6.126   7.889 -0.4100 -0.7388 -2.8232
 5843SOL     OW19267   6.558   2.132   2.703  0.0932 -0.6198  0.2064
 5843SOL    HW119268   6.515   2.215   2.722 -0.1581 -1.0743  1.7036
 5843SOL    HW219269   6.651   2.149   2.719  0.3019 -0.1484 -1.2789
 5844SOL     OW19270   5.116   0.176   8.665  0.0047 -0.1149  0.6188
 5844SOL    HW119271   5.025   0.178   8.695 -0.8532  0.5426 -1.7843
 5844SOL    HW219272   5.152   0.095   8.701 -1.7736 -0.7671  1.0213
 5845SOL     OW19273   1.948   8.883   0.996  0.0659 -0.4830  0.5258
 5845SOL    HW119274   2.004   8.960   0.984  1.0521 -0.9943  1.7019
 5845SOL    HW219275   1.911   8.868   0.909  0.4953  0.8234  0.0835
 5846SOL     OW19276   2.990   0.214   9.555 -0.2373 -0.0015 -0.2430
 5846SOL    HW119277   2.916   0.261   9.516  0.0944  0.9379  0.2226
 5846SOL    HW219278   2.966   0.202   9.646  0.0326 -0.0115 -0.1730
 5847SOL     OW19279   2.247   0.958   0.241  0.7014  0.3863 -0.5111
 5847SOL    HW119280   2.237   0.940   0.335 -1.0159  0.5285 -0.6386
 5847SOL    HW219281   2.211   1.046   0.230  1.0428  0.4332 -1.2986
 5848SOL     OW19282   3.462   1.023   3.245  0.3446 -0.6646 -0.2617
 5848SOL    HW119283   3.463   1.091   3.177 -0.7217  3.0706  3.0694
 5848SOL    HW219284   3.388   0.968   3.223  2.4374 -2.2753 -4.2236
 5849SOL     OW19285   8.030   1.762   4.749  0.4502  0.0216 -0.3111
 5849SOL    HW119286   7.937   1.741   4.735  0.3295  0.1964  0.2244
 5849SOL    HW219287   8.074   1.726   4.672 -0.0756  0.0291 -0.6208
 5850SOL     OW19288   0.480   5.582   8.946  0.1748 -0.3692 -0.0807
 5850SOL    HW119289   0.527   5.510   8.989  0.4440  0.3443  0.8532
 5850SOL    HW219290   0.533   5.600   8.868  1.1751  0.0534  0.6670
 5851SOL     OW19291   8.425   7.145   7.775 -0.3387 -0.1138 -0.0950
 5851SOL    HW119292   8.356   7.201   7.740  0.0461  1.3631  1.3521
 5851SOL    HW219293   8.493   7.146   7.708 -1.1583 -0.4928 -0.9498
 5852SOL     OW19294   8.908   2.818   1.131  0.5404 -0.1419 -0.1190
 5852SOL    HW119295   8.905   2.815   1.227 -3.9427  0.0320 -0.0509
 5852SOL    HW219296   8.826   2.860   1.106  0.9462 -1.3348 -4.0948
 5853SOL     OW19297   3.352   8.653   7.282 -0.4611 -0.3825  0.1334
 5853SOL    HW119298   3.366   8.716   7.211 -0.2179 -0.5289  0.0487
 5853SOL    HW219299   3.337   8.707   7.359  1.3307 -0.1751  0.3898
 5854SOL     OW19300   4.744   1.766   8.790  0.7020  0.1486  0.1982
 5854SOL    HW119301   4.772   1.858   8.784 -1.4631  0.8609  0.1616
 5854SOL    HW219302   4.683   1.755   8.717 -1.1088 -0.5025  1.7370
 5855SOL     OW19303   3.212   4.809   2.977  0.0745 -0.3902  0.3831
 5855SOL    HW119304   3.266   4.756   2.919 -3.1410 -1.1856 -2.2277
 5855SOL    HW219305   3.220   4.898   2.942  1.6242 -0.0081  1.6402
 5856SOL     OW19306   5.170   1.821   6.839 -0.3861  0.1417 -0.2269
 5856SOL    HW119307   5.214   1.737   6.854  0.9953  0.5369 -1.7677
 5856SOL    HW219308   5.241   1.882   6.818 -1.2663  1.9479  1.7419
 5857SOL     OW19309   5.663   6.527   7.488 -0.5970 -0.0589 -0.2772
 5857SOL    HW119310   5.727   6.575   7.540 -2.6968 -0.7831  3.3567
 5857SOL    HW219311   5.632   6.591   7.423 -1.0062  2.5658  2.2970
 5858SOL     OW19312   0.042   4.906   0.232  0.3556 -1.0108 -0.5076
 5858SOL    HW119313   0.008   4.983   0.278 -0.0114 -0.7497 -1.2036
 5858SOL    HW219314  -0.015   4.896   0.156  0.6642 -1.7198 -0.6549
 5859SOL     OW19315   0.954   2.715   8.211 -0.3016  0.3991  0.5490
 5859SOL    HW119316   0.981   2.807   8.217  0.8145  0.1823 -0.7434
 5859SOL    HW219317   0.945   2.687   8.302  0.7032  1.4131  0.9862
 5860SOL     OW19318   5.601   6.867   7.888 -0.1756  0.1350  0.5343
 5860SOL    HW119319   5.524   6.811   7.895  0.0441 -0.1419  0.7564
 5860SOL    HW219320   5.566   6.957   7.890 -0.3774  0.0398  2.1809
 5861SOL     OW19321   0.128   4.374   3.889  0.8660  0.7643  0.2190
 5861SOL    HW119322   0.195   4.406   3.950 -0.1284 -0.1929  1.8946
 5861SOL    HW219323   0.098   4.292   3.928 -0.6398  0.7139 -0.9733
 5862SOL     OW19324   9.084   7.692   7.899 -0.5990  0.2593  0.3106
 5862SOL    HW119325   9.161   7.637   7.897 -0.8046 -0.0689 -2.3814
 5862SOL    HW219326   9.117   7.780   7.916  0.1778 -0.0921  0.6340
 5863SOL     OW19327   6.256   0.262   1.547  0.3492 -0.8965 -0.3337
 5863SOL    HW119328   6.263   0.277   1.642 -1.0746  2.3368 -0.5790
 5863SOL    HW219329   6.310   0.332   1.509  0.2789 -1.6791 -1.9115
 5864SOL     OW19330   7.948   1.527   2.931  0.3731  0.1591  0.1255
 5864SOL    HW119331   7.902   1.473   2.867 -1.8781  0.3659  1.4835
 5864SOL    HW219332   8.036   1.539   2.893 -0.6465 -0.2415 -2.5965
 5865SOL     OW19333   4.676   8.905   0.120 -0.0533 -0.1026 -0.1935
 5865SOL    HW119334   4.684   8.992   0.080 -0.7115  0.6606  1.2542
 5865SOL    HW219335   4.666   8.923   0.214 -1.7179 -1.6777 -0.0276
 5866SOL     OW19336   2.052   8.458   1.828  0.2804 -0.0177  0.5454
 5866SOL    HW119337   2.092   8.519   1.891  1.6989 -0.5390  0.1958
 5866SOL    HW219338   2.127   8.415   1.787 -0.5861  0.3683 -1.5688
 5867SOL     OW19339   9.450   0.619   7.715  0.0333 -0.2499 -0.1378
 5867SOL    HW119340   9.490   0.541   7.753  1.8348  0.6848 -0.0209
 5867SOL    HW219341   9.475   0.690   7.774 -1.1542  0.5105 -0.5135
 5868SOL     OW19342   0.252   9.284   3.882 -0.3538 -0.1529 -0.0712
 5868SOL    HW119343   0.339   9.255   3.853 -0.1997  1.8318 -1.9316
 5868SOL    HW219344   0.262   9.379   3.893 -2.3848  0.1868 -0.8039
 5869SOL     OW19345   2.638   4.837   6.684  0.0236 -0.0402  0.0798
 5869SOL    HW119346   2.687   4.911   6.720  1.3615 -1.0121  0.3304
 5869SOL    HW219347   2.675   4.760   6.728 -1.3868 -0.8631 -0.1191
 5870SOL     OW19348   6.678   8.312   1.067  0.2048 -0.0907  0.4472
 5870SOL    HW119349   6.715   8.225   1.075 -2.0542 -1.2163 -0.5602
 5870SOL    HW219350   6.654   8.320   0.975  0.0876  1.5023  0.5771
 5871SOL     OW19351   0.745   7.679   9.122  0.2783  0.2233  0.0829
 5871SOL    HW119352   0.827   7.681   9.171  0.4771  0.9420 -0.2649
 5871SOL    HW219353   0.754   7.749   9.057  1.2882 -2.5243 -3.0061
 5872SOL     OW19354   5.215   7.488   0.146  0.3915  0.5676 -0.0492
 5872SOL    HW119355   5.299   7.454   0.115  0.3942  0.1233  0.4381
 5872SOL    HW219356   5.150   7.427   0.111  0.1543  1.5488 -1.3988
 5873SOL     OW19357   9.420   2.196   1.916  0.1075 -0.2555 -0.2775
 5873SOL    HW119358   9.450   2.220   1.828  1.5525 -0.5882  0.1022
 5873SOL    HW219359   9.495   2.212   1.973 -0.4156 -1.1804  0.7169
 5874SOL     OW19360   4.494   7.947   3.825 -0.0659  0.0180  0.1982
 5874SOL    HW119361   4.461   7.998   3.750 -1.4982  0.8187  1.3166
 5874SOL    HW219362   4.519   7.863   3.787 -1.5203  0.1089 -1.0717
 5875SOL     OW19363   2.255   1.511   1.348 -0.1404  0.2087  0.0130
 5875SOL    HW119364   2.253   1.606   1.349  0.5267  0.2500 -1.1271
 5875SOL    HW219365   2.167   1.484   1.374 -0.2715  1.1226  0.5398
 5876SOL     OW19366   3.179   3.412   4.093 -0.3983 -0.4100  0.8574
 5876SOL    HW119367   3.191   3.462   4.174 -0.3899 -1.3481  1.4492
 5876SOL    HW219368   3.090   3.433   4.066  0.9873  3.5334 -1.4539
 5877SOL     OW19369   7.616   6.180   9.490  0.4919 -0.0033  0.3710
 5877SOL    HW119370   7.663   6.173   9.572  0.1281 -0.4880  0.5443
 5877SOL    HW219371   7.562   6.101   9.486 -1.1252  1.0301  0.7030
 5878SOL     OW19372   0.472   9.196   2.835 -0.8385  0.5427  0.0823
 5878SOL    HW119373   0.396   9.147   2.803  0.5586  0.0123 -2.7494
 5878SOL    HW219374   0.513   9.231   2.756  1.8131  0.8853  1.4964
 5879SOL     OW19375   4.633   7.723   9.055  0.8123 -0.0658 -0.2519
 5879SOL    HW119376   4.544   7.734   9.022 -0.2768 -0.5865  2.2307
 5879SOL    HW219377   4.667   7.812   9.062  0.3039  0.1764 -0.7733
 5880SOL     OW19378   6.774   0.056   1.194  0.3022  0.5573 -0.1338
 5880SOL    HW119379   6.748   0.124   1.256  1.8257  1.3966 -0.3738
 5880SOL    HW219380   6.841   0.006   1.241 -2.0940 -2.0969  0.7986
 5881SOL     OW19381   4.507   4.672   7.212  0.1785 -0.8757 -0.1619
 5881SOL    HW119382   4.537   4.709   7.294  1.0173 -0.6978 -0.5367
 5881SOL    HW219383   4.542   4.583   7.211  2.2682 -0.1149 -1.3771
 5882SOL     OW19384   0.734   5.223   4.002  0.1902  0.3622  0.0249
 5882SOL    HW119385   0.725   5.170   4.082  0.1876  0.7342  0.2742
 5882SOL    HW219386   0.648   5.262   3.989  0.3224  0.6863  0.1130
 5883SOL     OW19387   8.324   0.496   5.503 -0.0474 -0.1207 -0.1902
 5883SOL    HW119388   8.251   0.542   5.544  0.7685  1.7180 -0.7169
 5883SOL    HW219389   8.359   0.558   5.439  1.4767 -1.2678 -0.5312
 5884SOL     OW19390   3.622   4.650   6.694  0.3133  0.1256  0.1619
 5884SOL    HW119391   3.695   4.606   6.650  0.9575  2.1128 -0.8798
 5884SOL    HW219392   3.544   4.607   6.660  0.9269 -0.7579 -0.1787
 5885SOL     OW19393   3.184   4.650   6.693  0.4771  0.2053 -0.2195
 5885SOL    HW119394   3.253   4.597   6.733 -0.3565  0.1706  1.2391
 5885SOL    HW219395   3.107   4.593   6.692  0.3161  0.4246 -1.3212
 5886SOL     OW19396   0.113   9.390   6.784 -0.0787 -0.4201 -0.4290
 5886SOL    HW119397   0.192   9.442   6.793  0.1944 -0.8788 -0.1494
 5886SOL    HW219398   0.106   9.373   6.690 -0.6179  0.7970 -0.6374
 5887SOL     OW19399   1.455   6.940   8.969 -0.1869  0.1794 -0.2605
 5887SOL    HW119400   1.513   6.865   8.982  1.1215  1.3437  0.8618
 5887SOL    HW219401   1.505   7.015   8.998 -2.0453  1.3288  0.1621
 5888SOL     OW19402   8.252   6.198   0.787  0.2093  0.0138  0.7984
 5888SOL    HW119403   8.212   6.252   0.855  1.5800  2.8754 -0.5007
 5888SOL    HW219404   8.220   6.236   0.705  2.2845 -0.2597 -0.1918
 5889SOL     OW19405   1.840   1.207   5.640  0.0071  0.4407  0.4768
 5889SOL    HW119406   1.745   1.206   5.651 -0.0505  0.3399 -0.0045
 5889SOL    HW219407   1.853   1.225   5.547  0.4459 -0.2802  0.3923
 5890SOL     OW19408   1.518   2.768   8.040  0.0098 -0.2649  0.3536
 5890SOL    HW119409   1.431   2.729   8.033  0.1766 -0.7172  0.7414
 5890SOL    HW219410   1.502   2.862   8.047 -0.4923 -0.4083  1.2012
 5891SOL     OW19411   9.563   4.214   0.067 -0.2025 -0.4831  0.2672
 5891SOL    HW119412   9.569   4.309   0.054 -0.6822 -0.1649  2.1239
 5891SOL    HW219413   9.560   4.178  -0.022  0.6617  1.1777 -0.4859
 5892SOL     OW19414   1.940   2.592   2.907  0.4299  0.6922 -0.6453
 5892SOL    HW119415   1.848   2.585   2.929  0.2772 -1.8032 -1.7443
 5892SOL    HW219416   1.952   2.684   2.883 -0.8264  2.0416  3.0918
 5893SOL     OW19417   2.372   5.945   3.834  0.2927 -0.1753 -0.0239
 5893SOL    HW119418   2.332   6.029   3.857  1.0355  0.1518  0.1064
 5893SOL    HW219419   2.466   5.961   3.841  0.4342 -1.3585  1.2475
 5894SOL     OW19420   0.890   1.260   3.534 -0.2927 -0.3135  0.0174
 5894SOL    HW119421   0.928   1.173   3.522  1.1284  0.3944 -0.7551
 5894SOL    HW219422   0.944   1.301   3.602  0.3740  0.7120 -1.1000
 5895SOL     OW19423   9.510   4.687   5.078 -0.1945 -0.3399  0.2161
 5895SOL    HW119424   9.544   4.776   5.084  1.3297 -0.8413 -0.4419
 5895SOL    HW219425   9.578   4.632   5.116 -2.1666 -1.0801  3.0102
 5896SOL     OW19426   6.220   3.270   6.782 -0.2897  0.5439  0.1005
 5896SOL    HW119427   6.198   3.361   6.803 -0.1188  0.4116  0.8837
 5896SOL    HW219428   6.312   3.273   6.756 -0.8057  0.8956 -1.9146
 5897SOL     OW19429   0.327   8.829   2.252 -0.1067  0.0890  0.2985
 5897SOL    HW119430   0.381   8.848   2.329  2.3501 -0.2065 -1.2272
 5897SOL    HW219431   0.239   8.815   2.287  0.4473  2.0800  2.7824
 5898SOL     OW19432   1.168   3.820   8.573 -0.6531 -0.4257 -0.0688
 5898SOL    HW119433   1.159   3.860   8.660 -0.2140  0.7887 -0.5616
 5898SOL    HW219434   1.214   3.737   8.589 -0.3710 -0.1039  0.8273
 5899SOL     OW19435   7.758   9.034   5.154  0.2308  0.5314 -0.1455
 5899SOL    HW119436   7.804   9.114   5.126 -0.4497  0.3372 -1.9560
 5899SOL    HW219437   7.818   8.993   5.216  1.7640  1.1652 -1.1336
 5900SOL     OW19438   3.265   4.218   5.951  0.2532 -0.2434  0.4527
 5900SOL    HW119439   3.244   4.218   6.044  0.7726 -2.3857  0.6069
 5900SOL    HW219440   3.284   4.127   5.930 -2.7832 -0.4312 -2.4206
 5901SOL     OW19441   1.015   6.117   4.441 -0.5844 -0.0606 -0.5919
 5901SOL    HW119442   1.007   6.081   4.353 -0.9280  0.9797 -0.9966
 5901SOL    HW219443   1.109   6.127   4.455 -0.5289 -0.2656 -0.8149
 5902SOL     OW19444   7.706   5.519   4.535 -0.4971 -0.0884 -0.2720
 5902SOL    HW119445   7.711   5.458   4.461 -1.0774  0.7732 -1.0602
 5902SOL    HW219446   7.655   5.593   4.501 -0.7921  0.3237  1.0103
 5903SOL     OW19447   0.334   0.320   0.816  0.0351 -0.1496  0.4976
 5903SOL    HW119448   0.275   0.258   0.772  0.1482 -0.3106  0.5737
 5903SOL    HW219449   0.361   0.275   0.896 -0.5186  0.3245  0.9539
 5904SOL     OW19450   2.786   5.429   3.838  0.1951  0.2821  0.5090
 5904SOL    HW119451   2.879   5.449   3.825  0.1992 -0.6273 -1.1636
 5904SOL    HW219452   2.774   5.343   3.796 -0.9912 -0.5464  2.4199
 5905SOL     OW19453   8.007   4.872   3.822  0.7712 -0.0975 -0.5799
 5905SOL    HW119454   7.969   4.808   3.762  0.6097  0.7720 -1.4262
 5905SOL    HW219455   8.058   4.819   3.884 -0.6927 -1.1750 -0.2453
 5906SOL     OW19456   8.711   4.990   5.505  0.4929 -0.6659  0.3373
 5906SOL    HW119457   8.707   5.074   5.549  0.5744  0.0238 -0.9287
 5906SOL    HW219458   8.799   4.987   5.466 -0.2777 -0.2850 -1.5551
 5907SOL     OW19459   5.503   1.790   7.249  0.2250 -0.6406  0.2059
 5907SOL    HW119460   5.559   1.843   7.306  0.5940 -0.7454 -0.0567
 5907SOL    HW219461   5.463   1.853   7.189 -0.1727 -0.5282  0.5829
 5908SOL     OW19462   4.100   5.233   5.703  0.1880  0.6192 -0.4985
 5908SOL    HW119463   4.102   5.142   5.731 -2.2435  0.5944 -0.1531
 5908SOL    HW219464   4.144   5.234   5.618  0.2549 -0.8598 -0.4976
 5909SOL     OW19465   6.281   0.618   8.723  0.1402  0.2603 -0.1658
 5909SOL    HW119466   6.186   0.628   8.735  0.3087  1.0566  0.6305
 5909SOL    HW219467   6.297   0.655   8.637 -0.7483 -3.2657 -2.0475
 5910SOL     OW19468   1.367   2.934   5.767 -0.5396  0.0194  0.0957
 5910SOL    HW119469   1.429   2.915   5.696  0.9358 -1.0627  1.5942
 5910SOL    HW219470   1.420   2.932   5.846 -2.1485  1.1697  1.2588
 5911SOL     OW19471   3.885   7.616   0.298 -0.0242  0.0201 -0.3301
 5911SOL    HW119472   3.891   7.682   0.368 -1.4952 -0.5476  0.3773
 5911SOL    HW219473   3.926   7.538   0.335 -1.4820 -0.5128  0.2379
 5912SOL     OW19474   1.368   4.986   5.806 -0.0774 -0.4969 -0.0778
 5912SOL    HW119475   1.399   5.072   5.780 -0.2159 -0.6334 -0.7084
 5912SOL    HW219476   1.273   4.991   5.795 -0.1463 -0.5344  0.4778
 5913SOL     OW19477   0.109   5.908   8.047  0.0845  0.6076  0.3955
 5913SOL    HW119478   0.159   5.836   8.085  3.0965  1.1953 -2.0654
 5913SOL    HW219479   0.048   5.866   7.987  0.7476  0.0373  0.1140
 5914SOL     OW19480   8.846   5.498   6.871 -0.2762  0.5038  0.0486
 5914SOL    HW119481   8.937   5.467   6.877 -0.5120 -0.2175 -0.0094
 5914SOL    HW219482   8.814   5.463   6.788 -0.7173  0.4665  0.2331
 5915SOL     OW19483   3.070   0.241   9.011  0.5155  0.3476  0.0454
 5915SOL    HW119484   3.011   0.308   8.977  0.4045 -1.0620 -2.8577
 5915SOL    HW219485   3.013   0.166   9.029  1.1874 -0.6599 -1.7403
 5916SOL     OW19486   1.435   6.621   4.688 -0.2465  0.2348  0.1757
 5916SOL    HW119487   1.499   6.551   4.702  0.9946  1.5298  1.0792
 5916SOL    HW219488   1.359   6.594   4.740  0.3482 -0.2645  0.8038
 5917SOL     OW19489   8.113   1.134   2.705 -0.3409 -0.4333  0.3340
 5917SOL    HW119490   8.195   1.085   2.712 -0.9510 -1.4127  0.9213
 5917SOL    HW219491   8.048   1.067   2.682 -1.2241  0.0824  1.2723
 5918SOL     OW19492   4.473   5.767   1.355  0.4937 -0.4507 -1.3453
 5918SOL    HW119493   4.455   5.693   1.297  1.2797 -0.8683 -1.0703
 5918SOL    HW219494   4.412   5.835   1.326 -1.0278 -1.5454 -0.9092
 5919SOL     OW19495   6.348   3.812   0.715  0.3762  0.2223  0.4376
 5919SOL    HW119496   6.416   3.746   0.701 -1.1156 -1.8396  2.2315
 5919SOL    HW219497   6.273   3.780   0.664 -0.3172  0.5794  1.2103
 5920SOL     OW19498   3.139   4.362   7.049  0.1044  0.3056  0.2898
 5920SOL    HW119499   3.221   4.338   7.094 -0.3491 -0.5309  0.7014
 5920SOL    HW219500   3.167   4.390   6.962  0.6464 -3.1872 -0.8130
 5921SOL     OW19501   7.902   7.399   9.008  0.2141  0.9026 -0.0807
 5921SOL    HW119502   7.976   7.345   9.037 -0.4113 -0.2986 -0.6601
 5921SOL    HW219503   7.848   7.410   9.086  0.4629  0.8831  0.0959
 5922SOL     OW19504   7.336   7.831   9.098 -0.0672 -0.1966  0.3646
 5922SOL    HW119505   7.261   7.796   9.146 -0.7610 -1.2146 -1.3706
 5922SOL    HW219506   7.309   7.828   9.006  1.7480  0.3249 -0.2235
 5923SOL     OW19507   0.158   4.922   1.987  0.4344 -0.0577  0.5480
 5923SOL    HW119508   0.090   4.988   2.000 -0.0072 -0.7747  2.2015
 5923SOL    HW219509   0.186   4.900   2.076  1.7208 -0.9104 -0.0506
 5924SOL     OW19510   7.554   6.756   3.610 -0.5027  0.6506 -0.0699
 5924SOL    HW119511   7.530   6.753   3.702  0.7779  0.9007  0.2918
 5924SOL    HW219512   7.534   6.845   3.582 -1.9016  0.2774 -0.3480
 5925SOL     OW19513   8.479   7.348   0.429  0.0391  0.1997  0.5092
 5925SOL    HW119514   8.538   7.400   0.374 -0.1149 -0.7633 -0.6098
 5925SOL    HW219515   8.530   7.328   0.507  0.9690 -0.0475 -0.1440
 5926SOL     OW19516   5.261   3.409   4.640  0.0127  0.1972 -0.2351
 5926SOL    HW119517   5.238   3.321   4.611 -1.5367  0.6994 -0.6216
 5926SOL    HW219518   5.354   3.417   4.621 -0.0299 -1.0172 -1.0668
 5927SOL     OW19519   1.830   3.612   3.318  0.2305  0.2809 -0.1321
 5927SOL    HW119520   1.822   3.697   3.362 -1.6238 -0.4675  1.0475
 5927SOL    HW219521   1.771   3.554   3.366  2.1891 -1.9735 -0.2777
 5928SOL     OW19522   4.702   3.801   0.639 -0.4557 -0.3918 -0.1038
 5928SOL    HW119523   4.620   3.846   0.658 -0.4241 -0.2803 -0.2226
 5928SOL    HW219524   4.770   3.863   0.669 -0.4138 -1.3932  2.0545
 5929SOL     OW19525   4.193   6.659   2.156  0.3633 -0.1058  0.5631
 5929SOL    HW119526   4.159   6.715   2.086 -0.2748 -0.6740  0.4140
 5929SOL    HW219527   4.117   6.638   2.210  0.8113  0.1368  1.3061
 5930SOL     OW19528   3.648   2.513   2.393 -0.2007  0.1372  0.2510
 5930SOL    HW119529   3.663   2.435   2.447  1.3641  1.0075  1.1214
 5930SOL    HW219530   3.557   2.536   2.409 -0.1315 -0.3925  1.5000
 5931SOL     OW19531   2.034   0.177   2.980 -0.9906 -0.4276 -0.1788
 5931SOL    HW119532   1.998   0.187   2.892  1.1843 -0.6750 -1.1546
 5931SOL    HW219533   2.129   0.183   2.968 -0.5093 -2.6004  1.8593
 5932SOL     OW19534   6.299   7.042   1.183 -0.2876 -0.7244 -0.1511
 5932SOL    HW119535   6.353   7.033   1.262  0.5577 -1.2745 -0.7787
 5932SOL    HW219536   6.277   6.952   1.159  0.9106 -0.6843 -1.5077
 5933SOL     OW19537   6.156   1.942   1.803 -0.0197  0.1182  0.0594
 5933SOL    HW119538   6.209   1.955   1.725  0.3090 -2.2719 -0.1837
 5933SOL    HW219539   6.202   1.876   1.854 -2.0067 -1.0133  0.5210
 5934SOL     OW19540   6.739   5.018   2.090  0.2247  0.5110  0.4915
 5934SOL    HW119541   6.799   4.946   2.070 -3.2315 -1.7928 -3.1583
 5934SOL    HW219542   6.781   5.095   2.052  2.4742 -0.1640  1.4366
 5935SOL     OW19543   8.804   3.887   8.025  0.7501 -0.0608 -0.3744
 5935SOL    HW119544   8.721   3.889   8.073  0.5070 -3.2588 -0.4470
 5935SOL    HW219545   8.856   3.958   8.064 -0.8611 -0.0198  1.8964
 5936SOL     OW19546   5.561   1.601   8.429  0.6025  0.0080 -0.1440
 5936SOL    HW119547   5.651   1.575   8.451  0.0731 -1.3423  0.4991
 5936SOL    HW219548   5.506   1.530   8.462 -0.6477  0.3877 -1.3250
 5937SOL     OW19549   5.677   8.506   1.855 -0.1488 -0.1190 -0.3080
 5937SOL    HW119550   5.714   8.592   1.833  0.2788 -0.4882 -1.0606
 5937SOL    HW219551   5.719   8.482   1.938  1.7826 -0.7834 -1.4142
 5938SOL     OW19552   4.817   3.516   7.813  0.1049 -0.2141  0.3548
 5938SOL    HW119553   4.860   3.446   7.764 -0.3758  0.2894 -0.8288
 5938SOL    HW219554   4.875   3.592   7.803 -0.9614  0.4458 -1.1849
 5939SOL     OW19555   7.732   9.245   7.826 -0.5928  0.3338 -0.9932
 5939SOL    HW119556   7.762   9.183   7.893 -0.5365  3.3357  2.0601
 5939SOL    HW219557   7.647   9.275   7.858 -0.2254  2.4388 -1.8362
 5940SOL     OW19558   3.949   8.476   7.696  0.6363  0.4967 -0.0137
 5940SOL    HW119559   4.035   8.459   7.659  0.2036  0.5012 -1.0702
 5940SOL    HW219560   3.892   8.411   7.654  0.1577  0.3882  0.7945
 5941SOL     OW19561   1.102   6.408   8.546  0.0619 -0.9174 -0.2356
 5941SOL    HW119562   1.150   6.328   8.569 -0.4629 -0.7718  1.5493
 5941SOL    HW219563   1.155   6.479   8.584 -0.2665 -0.5507 -0.4622
 5942SOL     OW19564   8.454   1.405   8.375 -0.1089 -0.1925  0.1077
 5942SOL    HW119565   8.491   1.424   8.462 -0.8512  0.7889  0.2179
 5942SOL    HW219566   8.466   1.486   8.326 -2.6885  0.4240  0.3524
 5943SOL     OW19567   0.748   4.709   7.459 -0.2757  0.1386 -0.2159
 5943SOL    HW119568   0.794   4.793   7.463 -0.3881  0.2066 -0.3354
 5943SOL    HW219569   0.668   4.723   7.510 -0.6598  0.3382 -0.8654
 5944SOL     OW19570   8.096   2.464   0.655 -0.0589 -0.1035  0.2475
 5944SOL    HW119571   8.169   2.443   0.713  0.0554  1.6501  0.7814
 5944SOL    HW219572   8.137   2.502   0.577 -0.3370 -0.3364 -0.0171
 5945SOL     OW19573   1.664   6.189   5.167 -0.6546  0.6726  0.6576
 5945SOL    HW119574   1.732   6.136   5.207 -0.3979 -0.5134 -1.2019
 5945SOL    HW219575   1.582   6.156   5.203 -0.3717  0.4210  1.0701
 5946SOL     OW19576   1.728   8.747   0.483 -0.1741 -0.6549 -0.2873
 5946SOL    HW119577   1.637   8.760   0.457 -0.2380  0.0715  0.2582
 5946SOL    HW219578   1.738   8.652   0.490 -0.2180 -0.8839 -2.6772
 5947SOL     OW19579   5.754   6.003   9.312  0.0141 -0.0685 -0.1510
 5947SOL    HW119580   5.699   5.927   9.327 -0.7596  0.6936  1.1271
 5947SOL    HW219581   5.721   6.041   9.231  0.1733 -0.8774 -0.6050
 5948SOL     OW19582   0.538   9.449   5.951  0.0231  0.2924  0.0824
 5948SOL    HW119583   0.587   9.447   6.033  1.1621  1.6621 -0.5161
 5948SOL    HW219584   0.540   9.358   5.920  2.3220  0.2840  0.0603
 5949SOL     OW19585   3.604   2.486   0.694  0.5711 -0.0237  0.3953
 5949SOL    HW119586   3.690   2.511   0.729  0.0948  0.3095  1.3812
 5949SOL    HW219587   3.586   2.400   0.733  0.8526 -0.5224 -0.5464
 5950SOL     OW19588   1.626   0.234   5.433 -0.0942 -0.0848 -0.4070
 5950SOL    HW119589   1.721   0.246   5.422  0.0119 -1.0701 -0.6899
 5950SOL    HW219590   1.589   0.268   5.352  0.0233  0.1955 -0.3460
 5951SOL     OW19591   1.221   3.340   6.735 -0.2332  0.0564  0.2520
 5951SOL    HW119592   1.169   3.379   6.665 -1.8042 -0.5053  1.0525
 5951SOL    HW219593   1.190   3.384   6.815  1.3934  0.5615  0.6474
 5952SOL     OW19594   0.305   8.660   5.810  0.2698  0.2948  0.3128
 5952SOL    HW119595   0.297   8.596   5.739 -0.6964 -0.2898  0.9094
 5952SOL    HW219596   0.398   8.683   5.812  0.4724 -0.3902 -0.5200
 5953SOL     OW19597   2.437   4.983   0.061 -0.5816 -0.0430  0.1446
 5953SOL    HW119598   2.412   4.891   0.073 -1.3155 -0.0468 -1.1878
 5953SOL    HW219599   2.441   4.995  -0.034  1.7121  0.7507  0.2876
 5954SOL     OW19600   3.999   0.464   8.594  0.8337 -0.1170  0.0113
 5954SOL    HW119601   4.055   0.433   8.523  1.5348 -1.0427  0.9537
 5954SOL    HW219602   4.060   0.494   8.661  0.3377 -3.0752  1.9493
 5955SOL     OW19603   2.706   0.714   1.612  0.4304  0.3024  0.0615
 5955SOL    HW119604   2.684   0.665   1.692 -0.8488  1.0273  0.1712
 5955SOL    HW219605   2.729   0.646   1.549  2.4891 -0.2590  1.2971
 5956SOL     OW19606   5.931   5.833   6.739  0.2459 -0.4869 -0.2194
 5956SOL    HW119607   5.969   5.753   6.704  1.9419 -0.2887  1.0763
 5956SOL    HW219608   6.004   5.894   6.747 -0.9444  1.1322 -0.9087
 5957SOL     OW19609   2.449   3.519   5.459 -0.1736 -0.1543 -0.4998
 5957SOL    HW119610   2.472   3.432   5.492  0.8956 -0.1905 -1.2641
 5957SOL    HW219611   2.525   3.574   5.482 -0.8837  0.6114  0.0743
 5958SOL     OW19612   7.150   7.965   6.039  0.1953 -0.8936  0.1285
 5958SOL    HW119613   7.086   7.962   5.968  0.8755  1.5896 -0.6976
 5958SOL    HW219614   7.098   7.956   6.119 -1.1028  0.1466 -0.5510
 5959SOL     OW19615   2.179   4.924   9.550  0.2907 -0.3511 -0.2488
 5959SOL    HW119616   2.154   4.984   9.480 -1.3894 -1.7129 -0.9060
 5959SOL    HW219617   2.159   4.972   9.630  0.5650  0.5735 -0.7150
 5960SOL     OW19618   5.110   1.045   4.402  0.4515 -0.4284 -0.2335
 5960SOL    HW119619   5.187   0.996   4.429  0.4108 -1.0441 -1.1940
 5960SOL    HW219620   5.061   0.984   4.346  0.3693  0.6693 -1.4131
 5961SOL     OW19621   2.136   8.571   2.802  0.3778  0.2697  0.3697
 5961SOL    HW119622   2.103   8.617   2.879  0.6717  0.7852  0.1920
 5961SOL    HW219623   2.216   8.527   2.832  0.3038  0.1831  0.4424
 5962SOL     OW19624   7.383   7.843   2.148  0.4526 -0.4931 -0.7019
 5962SOL    HW119625   7.461   7.793   2.172 -0.1169 -1.1269 -0.1381
 5962SOL    HW219626   7.361   7.894   2.226  0.5382  0.0029 -0.9966
 5963SOL     OW19627   5.815   5.408   7.835  0.7689  0.4029  0.0378
 5963SOL    HW119628   5.826   5.317   7.861  1.0943  0.5346  0.3691
 5963SOL    HW219629   5.854   5.459   7.906  1.1626  0.7816 -0.4379
 5964SOL     OW19630   7.499   2.169   7.168 -0.0575  0.7166 -0.0949
 5964SOL    HW119631   7.431   2.224   7.208 -0.3313  1.3313 -1.3631
 5964SOL    HW219632   7.456   2.127   7.094  0.3143 -0.7823  0.5133
 5965SOL     OW19633   9.255   5.946   8.011  0.3115  0.0743  0.3137
 5965SOL    HW119634   9.238   6.040   8.008 -0.9153 -0.0889 -3.4753
 5965SOL    HW219635   9.344   5.937   7.976  0.3013 -0.1566  0.3449
 5966SOL     OW19636   9.338   2.711   6.494 -0.1842  0.2699  0.3780
 5966SOL    HW119637   9.364   2.630   6.539  1.7503  0.7511  0.1817
 5966SOL    HW219638   9.320   2.683   6.404  0.2800  0.0209  0.3579
 5967SOL     OW19639   5.531   3.959   0.927 -0.2456 -0.1031  0.4985
 5967SOL    HW119640   5.477   4.034   0.952 -1.8669 -0.9384 -0.3160
 5967SOL    HW219641   5.468   3.891   0.903  1.1656 -1.7619  1.2464
 5968SOL     OW19642   4.562   1.623   5.992  0.0254 -0.1551 -0.0182
 5968SOL    HW119643   4.597   1.710   6.010 -1.2763  0.3899 -0.0458
 5968SOL    HW219644   4.554   1.582   6.078  0.9398 -0.3931 -0.0290
 5969SOL     OW19645   7.666   2.774   3.792 -0.4926  0.8895 -0.1559
 5969SOL    HW119646   7.598   2.761   3.726  1.4768 -0.7465 -2.0362
 5969SOL    HW219647   7.635   2.846   3.846 -3.1440  0.9500 -1.6318
 5970SOL     OW19648   4.386   7.493   0.254 -0.6156 -0.1316  0.1971
 5970SOL    HW119649   4.341   7.446   0.184 -2.4085 -0.1370  1.2867
 5970SOL    HW219650   4.422   7.425   0.310 -0.9431 -0.1809  0.3534
 5971SOL     OW19651   7.117   9.267   0.750 -0.2582 -0.4109  0.5025
 5971SOL    HW119652   7.184   9.222   0.698 -0.2210 -0.2733  0.4324
 5971SOL    HW219653   7.164   9.298   0.828 -0.3307 -0.6845  0.6557
 5972SOL     OW19654   6.436   6.701   3.193  0.5005  0.0356 -0.3101
 5972SOL    HW119655   6.413   6.779   3.142 -1.4474 -1.0333 -1.1606
 5972SOL    HW219656   6.352   6.661   3.216  1.4260 -1.3230  0.9337
 5973SOL     OW19657   4.673   8.111   7.213  0.3585 -0.7314  0.5557
 5973SOL    HW119658   4.665   8.030   7.163 -0.1982 -0.1678 -0.2990
 5973SOL    HW219659   4.759   8.146   7.189  0.0818 -0.4499 -0.0476
 5974SOL     OW19660   1.113   6.587   5.616  0.1429  0.1766  0.3385
 5974SOL    HW119661   1.176   6.659   5.618 -0.2212  0.5391 -0.6246
 5974SOL    HW219662   1.033   6.624   5.653  0.0167  0.2146  0.0335
 5975SOL     OW19663   4.248   7.595   5.947 -0.0667  0.3517  0.3782
 5975SOL    HW119664   4.205   7.679   5.929 -0.9846 -0.2870 -0.4698
 5975SOL    HW219665   4.310   7.584   5.875 -1.4633 -0.6861 -0.7060
 5976SOL     OW19666   4.033   7.761   2.580 -0.0921  0.7621  0.6101
 5976SOL    HW119667   4.078   7.685   2.616 -0.2527  0.6820  0.6418
 5976SOL    HW219668   3.983   7.798   2.653  1.4362  1.9960  1.0718
 5977SOL     OW19669   7.685   7.577   1.089 -0.6602 -0.1263  0.9895
 5977SOL    HW119670   7.647   7.497   1.127 -1.0625  0.7278  2.4821
 5977SOL    HW219671   7.676   7.642   1.159  0.7728  0.9069  0.2459
 5978SOL     OW19672   6.577   4.217   7.269  0.0145 -0.0863  0.3587
 5978SOL    HW119673   6.629   4.225   7.189 -2.0348  2.6839 -0.8475
 5978SOL    HW219674   6.525   4.138   7.256  1.2716 -0.8922  0.0070
 5979SOL     OW19675   8.034   1.277   3.149  0.2131 -0.0015 -0.7212
 5979SOL    HW119676   8.014   1.358   3.101  0.1748  0.8005  0.5839
 5979SOL    HW219677   7.962   1.218   3.127 -0.4869  0.7992 -0.6559
 5980SOL     OW19678   2.439   4.134   7.916  0.1392 -0.1831 -0.6005
 5980SOL    HW119679   2.360   4.142   7.862 -1.2417  0.2408  1.3739
 5980SOL    HW219680   2.413   4.077   7.988  1.8658 -0.5771 -0.2627
 5981SOL     OW19681   6.389   1.676   1.574 -0.0709 -0.0236  0.9356
 5981SOL    HW119682   6.426   1.759   1.605 -2.9671  1.3674  0.9557
 5981SOL    HW219683   6.310   1.700   1.526 -0.7487 -2.7646  0.4642
 5982SOL     OW19684   3.026   2.629   5.687  0.8750  0.1707 -0.7197
 5982SOL    HW119685   3.006   2.570   5.759  0.7381 -0.6433 -1.4055
 5982SOL    HW219686   3.114   2.662   5.706 -0.4553  2.7545  1.6475
 5983SOL     OW19687   1.211   8.320   6.646 -0.3143  0.4050 -0.5890
 5983SOL    HW119688   1.218   8.415   6.656 -0.8580  0.4024 -0.1129
 5983SOL    HW219689   1.301   8.289   6.649 -0.2450  0.5777  2.8889
 5984SOL     OW19690   9.269   4.529   8.569 -0.3490  0.4537  0.2648
 5984SOL    HW119691   9.235   4.474   8.498  2.9847 -2.0550  0.3929
 5984SOL    HW219692   9.343   4.576   8.530  0.7402  0.0220  1.7324
 5985SOL     OW19693   5.282   8.045   0.266  0.1575 -0.1120 -0.4645
 5985SOL    HW119694   5.335   8.026   0.344 -1.4328 -2.1448  0.2040
 5985SOL    HW219695   5.250   7.960   0.237  1.4972  0.4166 -4.0274
 5986SOL     OW19696   0.067   3.486   3.493 -0.1118  0.0073 -0.2534
 5986SOL    HW119697   0.095   3.507   3.404 -1.6496 -1.5774 -1.1861
 5986SOL    HW219698   0.098   3.559   3.546  0.4287  1.2349 -2.1544
 5987SOL     OW19699   8.535   4.203   0.939  0.6019 -0.1140  0.0302
 5987SOL    HW119700   8.540   4.109   0.953 -0.5030 -0.0292  1.1765
 5987SOL    HW219701   8.508   4.239   1.024 -0.7290  1.0355 -0.8219
 5988SOL     OW19702   6.232   1.775   5.702 -0.7926  0.0468 -0.1891
 5988SOL    HW119703   6.288   1.698   5.711 -1.3034 -0.7269 -2.7466
 5988SOL    HW219704   6.143   1.742   5.714 -0.9335  0.4684 -0.0714
 5989SOL     OW19705   8.278   8.053   9.521  0.8653  0.4535 -0.5103
 5989SOL    HW119706   8.227   8.125   9.560  0.7667  1.0025 -1.6190
 5989SOL    HW219707   8.306   8.087   9.436  0.0812 -1.1547 -1.4378
 5990SOL     OW19708   0.843   8.478   4.487  0.2948  0.3885  0.4674
 5990SOL    HW119709   0.756   8.450   4.456  0.3666 -2.2604  2.3533
 5990SOL    HW219710   0.833   8.572   4.505 -2.5719 -0.0488  1.7119
 5991SOL     OW19711   8.016   3.581   4.122 -0.0247  0.2887 -0.0822
 5991SOL    HW119712   8.004   3.487   4.115  0.2044  0.2874 -0.4758
 5991SOL    HW219713   8.075   3.592   4.197 -0.4427  0.1525  0.2717
 5992SOL     OW19714   5.802   1.873   9.017  0.1934 -0.0632  0.4698
 5992SOL    HW119715   5.822   1.836   8.931 -1.3318 -1.1980  0.5618
 5992SOL    HW219716   5.867   1.942   9.029 -0.4158  1.1201 -2.2389
 5993SOL     OW19717   0.267   6.601   7.079  0.1794 -0.3338  0.5616
 5993SOL    HW119718   0.239   6.672   7.021 -0.4335  0.4213  1.7299
 5993SOL    HW219719   0.194   6.589   7.139  1.1480 -0.4359  1.7649
 5994SOL     OW19720   6.400   8.436   4.815  0.8706  0.3233 -0.0150
 5994SOL    HW119721   6.317   8.484   4.821 -0.0941 -0.9393 -2.0091
 5994SOL    HW219722   6.391   8.366   4.880  0.4707  0.3647 -0.0210
 5995SOL     OW19723   0.411   5.974   9.221  0.1007 -0.4445 -0.1582
 5995SOL    HW119724   0.386   6.028   9.146  0.2519  0.4197  0.3957
 5995SOL    HW219725   0.330   5.966   9.272  0.1153 -0.6174 -0.1618
 5996SOL     OW19726   8.399   6.762   8.758 -0.0269  0.3162 -0.0159
 5996SOL    HW119727   8.317   6.756   8.807  0.1340  0.2556  0.2438
 5996SOL    HW219728   8.376   6.732   8.670 -0.4028  0.7820 -0.0833
 5997SOL     OW19729   4.356   7.785   2.817  0.7270  0.5349  0.4114
 5997SOL    HW119730   4.448   7.758   2.825  0.5186  0.3584  2.8107
 5997SOL    HW219731   4.347   7.860   2.876 -1.0802 -0.6417  1.7282
 5998SOL     OW19732   2.485   1.531   2.001  0.2721 -0.2039 -0.2823
 5998SOL    HW119733   2.429   1.605   2.024  1.7437  1.0777 -0.6386
 5998SOL    HW219734   2.460   1.509   1.911 -0.9532 -0.9231  0.2065
 5999SOL     OW19735   5.820   4.984   1.547 -0.1214  0.4830 -0.1893
 5999SOL    HW119736   5.767   4.918   1.503 -0.1643 -0.4073  1.1508
 5999SOL    HW219737   5.783   4.991   1.635 -0.1354  2.3362 -0.3063
 6000SOL     OW19738   4.867   5.090   0.561  0.0182 -0.0281 -0.0666
 6000SOL    HW119739   4.777   5.074   0.592 -0.1202  1.7298  0.5397
 6000SOL    HW219740   4.880   5.025   0.492 -1.2542 -1.1610  0.7001
 6001SOL     OW19741   5.484   6.465   5.165 -0.1118  0.2196 -0.1266
 6001SOL    HW119742   5.558   6.404   5.162  2.0041  2.6372 -2.4152
 6001SOL    HW219743   5.479   6.500   5.077 -3.0770  1.3131  0.3747
 6002SOL     OW19744   1.959   1.043   4.974  0.0659  0.5668  0.0877
 6002SOL    HW119745   1.900   1.052   5.048 -0.2488  0.1977 -0.1141
 6002SOL    HW219746   1.925   0.968   4.925  0.8393  0.1970  0.0996
 6003SOL     OW19747   3.808   4.209   1.219 -0.2047 -0.2228 -0.6452
 6003SOL    HW119748   3.753   4.200   1.141  0.1964  1.1471 -1.1059
 6003SOL    HW219749   3.871   4.136   1.213 -1.0404 -0.9465 -0.8571
 6004SOL     OW19750   5.626   6.703   2.083  0.0678 -0.3231 -1.2455
 6004SOL    HW119751   5.560   6.739   2.025 -1.4079 -1.4848 -0.3440
 6004SOL    HW219752   5.577   6.662   2.154  1.7736  1.4843  1.1835
 6005SOL     OW19753   9.474   6.761   9.083  0.1450 -0.1479 -0.2039
 6005SOL    HW119754   9.402   6.699   9.068 -0.5539  0.4355  0.6339
 6005SOL    HW219755   9.508   6.736   9.169 -1.5226  1.9231  1.1327
 6006SOL     OW19756   7.868   9.320   8.868 -0.4268 -0.1404  0.1787
 6006SOL    HW119757   7.937   9.295   8.807 -0.2387 -0.0768  0.3663
 6006SOL    HW219758   7.789   9.327   8.813 -0.2985 -0.2741 -0.0231
 6007SOL     OW19759   8.403   3.064   4.562  0.4400 -0.3015 -0.3573
 6007SOL    HW119760   8.309   3.051   4.549  0.5504 -0.8235 -0.6748
 6007SOL    HW219761   8.439   2.975   4.567  0.8902 -0.1049 -0.0541
 6008SOL     OW19762   3.759   6.252   5.964  0.2524 -0.1192  0.5906
 6008SOL    HW119763   3.721   6.290   5.884 -1.2665 -1.2879  0.7117
 6008SOL    HW219764   3.718   6.301   6.035 -1.4893 -1.7008  0.7375
 6009SOL     OW19765   3.325   5.300   6.056  0.0508  0.2792  0.0116
 6009SOL    HW119766   3.412   5.266   6.034  0.7005  1.1471  1.1747
 6009SOL    HW219767   3.328   5.315   6.150 -1.8797 -1.1064  0.3560
 6010SOL     OW19768   6.108   5.740   1.831  0.5490  0.2936  0.3416
 6010SOL    HW119769   6.146   5.816   1.876  0.4548  0.6977 -0.2457
 6010SOL    HW219770   6.057   5.778   1.760  1.2152 -0.3554 -0.5050
 6011SOL     OW19771   8.391   2.186   7.806  0.7351 -0.8841 -0.1608
 6011SOL    HW119772   8.400   2.146   7.719 -1.0090 -0.9549 -0.3515
 6011SOL    HW219773   8.306   2.155   7.837  0.8413  0.0410  1.1112
 6012SOL     OW19774   1.217   6.760   3.147 -0.2415  0.3379  0.1918
 6012SOL    HW119775   1.208   6.772   3.052  0.7288 -1.2175 -0.1526
 6012SOL    HW219776   1.272   6.832   3.175  1.0049 -0.1815 -0.7912
 6013SOL     OW19777   9.233   0.302   3.771  0.0003  0.2859  0.1549
 6013SOL    HW119778   9.246   0.266   3.859 -0.7308 -0.2299  0.0694
 6013SOL    HW219779   9.171   0.374   3.784  1.0375  1.1766  0.2511
 6014SOL     OW19780   2.322   0.067   7.051 -0.5430  0.6664  0.3056
 6014SOL    HW119781   2.261   0.074   7.124 -1.7280 -1.1967 -0.4272
 6014SOL    HW219782   2.315   0.151   7.005 -0.5254  1.4731  1.7370
 6015SOL     OW19783   0.624   1.417   5.376  0.0859 -0.2550  0.2558
 6015SOL    HW119784   0.707   1.420   5.328  1.4129 -1.8129  2.2896
 6015SOL    HW219785   0.563   1.468   5.322  1.8196 -0.7026 -2.2931
 6016SOL     OW19786   4.617   4.538   7.919 -0.3563  0.2610 -0.0437
 6016SOL    HW119787   4.674   4.522   7.844  0.9038  0.7762  0.7778
 6016SOL    HW219788   4.586   4.628   7.907 -0.9441  0.0101 -0.4450
 6017SOL     OW19789   3.590   5.288   8.994 -0.0345  0.0290 -0.3985
 6017SOL    HW119790   3.653   5.338   8.942 -0.7179  1.3903  0.0345
 6017SOL    HW219791   3.634   5.205   9.011  1.6782  0.9417 -0.0724
 6018SOL     OW19792   0.270   8.017   5.857 -0.2627 -0.3237 -0.3881
 6018SOL    HW119793   0.222   7.948   5.812 -2.9694  1.8240 -1.0581
 6018SOL    HW219794   0.265   7.993   5.950 -0.4218 -1.3905 -0.6545
 6019SOL     OW19795   5.248   1.199   1.941  0.3206 -0.4209  0.5140
 6019SOL    HW119796   5.213   1.112   1.923 -1.7616  0.1401  1.6112
 6019SOL    HW219797   5.197   1.258   1.885  1.0932  0.2062  0.4522
 6020SOL     OW19798   7.511   9.339   7.930 -0.1788 -0.0733 -0.2575
 6020SOL    HW119799   7.492   9.389   8.009 -0.1871  0.1514 -0.4013
 6020SOL    HW219800   7.505   9.403   7.859 -1.5226 -0.5439 -0.5993
 6021SOL     OW19801   3.161   8.575   5.824  0.3510  0.2607 -0.1617
 6021SOL    HW119802   3.241   8.623   5.844  0.3802  0.1307  0.0341
 6021SOL    HW219803   3.128   8.545   5.909  1.5678 -2.0483 -0.4099
 6022SOL     OW19804   6.176   0.320   2.721 -0.2365 -0.0256  0.2867
 6022SOL    HW119805   6.210   0.393   2.669 -0.6696 -0.2767 -0.3659
 6022SOL    HW219806   6.251   0.288   2.770  0.2527  0.0326 -0.4086
 6023SOL     OW19807   4.989   1.087   8.246  0.1237 -0.0331 -0.1011
 6023SOL    HW119808   4.952   1.082   8.158 -2.3997 -0.3651  0.8898
 6023SOL    HW219809   4.928   1.038   8.300  2.5409 -1.3658  1.6059
 6024SOL     OW19810   4.322   1.148   7.499  0.1518 -0.5577  0.0297
 6024SOL    HW119811   4.400   1.180   7.453  1.1399  1.0671  2.6277
 6024SOL    HW219812   4.255   1.214   7.482  0.6473  0.2777  1.1639
 6025SOL     OW19813   8.981   6.720   4.529 -0.4110  0.1431 -0.3942
 6025SOL    HW119814   8.918   6.679   4.470  0.4744 -0.1617 -1.1684
 6025SOL    HW219815   9.053   6.747   4.471  0.2254  0.3554  0.4752
 6026SOL     OW19816   6.994   5.653   5.319 -0.0392  0.0361  0.0447
 6026SOL    HW119817   7.056   5.719   5.290 -0.0039 -0.6030 -1.4073
 6026SOL    HW219818   6.909   5.686   5.290 -0.6174  1.4186  2.9086
 6027SOL     OW19819   8.287   3.552   7.921  0.7265  0.3789 -0.5626
 6027SOL    HW119820   8.212   3.601   7.887  0.5851 -0.7497 -2.0080
 6027SOL    HW219821   8.255   3.461   7.926  0.9513  0.3965  2.1071
 6028SOL     OW19822   3.658   9.557   8.537  0.3942 -0.0221  0.2904
 6028SOL    HW119823   3.581   9.612   8.551  1.0149  0.9775 -0.0728
 6028SOL    HW219824   3.658   9.496   8.610 -3.0788 -2.9458 -1.8182
 6029SOL     OW19825   4.729   3.511   2.022 -0.1169 -0.1442  0.1671
 6029SOL    HW119826   4.726   3.527   2.116  0.4878 -0.8418  0.3203
 6029SOL    HW219827   4.783   3.433   2.013 -1.1724 -0.8029 -0.6811
 6030SOL     OW19828   1.507   6.496   1.925 -0.1938 -0.0100 -0.3415
 6030SOL    HW119829   1.575   6.429   1.918 -0.0038  0.1813 -0.3621
 6030SOL    HW219830   1.555   6.576   1.947 -0.2064  0.4847 -1.9688
 6031SOL     OW19831   3.077   3.123   7.020  0.4406 -0.2199 -0.0875
 6031SOL    HW119832   3.027   3.050   6.984  2.3656 -0.8533 -1.6024
 6031SOL    HW219833   3.107   3.172   6.944 -1.4734  2.7377  0.8878
 6032SOL     OW19834   0.002   8.438   3.709  0.1181  0.2327 -0.3450
 6032SOL    HW119835   0.090   8.409   3.731 -0.4061 -2.8824 -1.6967
 6032SOL    HW219836  -0.056   8.376   3.753 -1.2581  0.4579 -1.7084
 6033SOL     OW19837   0.508   7.478   6.753 -0.6994 -0.1933  0.0991
 6033SOL    HW119838   0.467   7.434   6.679  0.6970  1.4358 -1.7479
 6033SOL    HW219839   0.461   7.561   6.761 -1.2489 -0.6121  1.4864
 6034SOL     OW19840   6.881   8.721   5.345 -0.0370 -0.5000  0.1775
 6034SOL    HW119841   6.946   8.715   5.415  0.6331  1.6587 -0.1834
 6034SOL    HW219842   6.927   8.695   5.266 -0.5419 -2.0355  0.3468
 6035SOL     OW19843   3.944   1.340   0.528 -0.2416  0.1302 -0.3331
 6035SOL    HW119844   3.980   1.280   0.463 -1.6548 -0.1607 -0.8820
 6035SOL    HW219845   4.018   1.361   0.585  0.5295 -1.2936 -0.7625
 6036SOL     OW19846   2.662   9.467   6.607 -0.4530 -0.5230 -0.1151
 6036SOL    HW119847   2.711   9.467   6.689 -1.0727  1.0246  0.2892
 6036SOL    HW219848   2.665   9.376   6.577  1.2196 -0.7827  0.7364
 6037SOL     OW19849   2.630   4.280   4.419  0.3570 -0.1308 -0.1998
 6037SOL    HW119850   2.627   4.202   4.363  0.3794  0.3792 -0.9247
 6037SOL    HW219851   2.720   4.311   4.412  0.4454 -0.2535  0.3881
 6038SOL     OW19852   3.516   8.412   1.295  0.7940  0.3643  0.0271
 6038SOL    HW119853   3.425   8.427   1.322  1.5015  1.2343  2.1453
 6038SOL    HW219854   3.547   8.498   1.266  1.7365  0.7698  2.0656
 6039SOL     OW19855   2.098   4.366   4.755  0.0531  0.0220 -0.2505
 6039SOL    HW119856   2.036   4.418   4.702  1.3589  1.9829  0.0240
 6039SOL    HW219857   2.184   4.404   4.735  1.3172 -2.9303 -0.9934
 6040SOL     OW19858   1.240   2.265   3.936  0.2256 -0.0743  0.4375
 6040SOL    HW119859   1.171   2.199   3.946 -1.4708  1.5141 -0.2621
 6040SOL    HW219860   1.302   2.227   3.873 -0.3194 -1.2711  0.6037
 6041SOL     OW19861   1.668   5.151   2.168 -0.2227 -0.3199  0.2934
 6041SOL    HW119862   1.638   5.208   2.238 -1.0257 -0.4442  0.0526
 6041SOL    HW219863   1.613   5.172   2.093  0.5129 -0.3086 -0.2605
 6042SOL     OW19864   8.755   4.556   0.540  0.3558 -0.9067  1.0587
 6042SOL    HW119865   8.843   4.520   0.523  0.6499 -0.2506  1.1595
 6042SOL    HW219866   8.749   4.632   0.483 -0.4612 -1.3943  0.4707
 6043SOL     OW19867   3.275   6.873   9.121 -0.7920  0.3691 -0.1343
 6043SOL    HW119868   3.203   6.854   9.180  2.8590  1.1167  5.2927
 6043SOL    HW219869   3.335   6.799   9.131  0.6365  1.1904 -1.9494
 6044SOL     OW19870   8.309   3.500   9.466  0.0681 -0.1525  0.3394
 6044SOL    HW119871   8.389   3.542   9.435 -0.1011 -0.3770 -0.4246
 6044SOL    HW219872   8.280   3.446   9.392 -1.0951  0.3579  0.4083
 6045SOL     OW19873   1.750   1.916   4.192  0.2786  0.2705  0.1084
 6045SOL    HW119874   1.728   1.982   4.126 -1.0021  0.5708  0.8033
 6045SOL    HW219875   1.806   1.854   4.146 -0.1992  0.7317 -1.1390
 6046SOL     OW19876   4.112   9.098   5.054  0.3295  0.8068  0.0065
 6046SOL    HW119877   4.116   9.039   4.978 -0.4311 -0.0947  0.6411
 6046SOL    HW219878   4.076   9.044   5.125  1.2484  1.5625  1.0851
 6047SOL     OW19879   2.206   2.807   2.072  0.2892  0.1780 -0.2589
 6047SOL    HW119880   2.163   2.754   2.005  0.7086  0.2367 -0.5762
 6047SOL    HW219881   2.275   2.752   2.108 -0.5417 -0.2019  0.8096
 6048SOL     OW19882   7.193   0.029   6.558 -0.0452  0.2451  0.4536
 6048SOL    HW119883   7.209   0.106   6.503 -2.6754  2.3065  2.3154
 6048SOL    HW219884   7.136  -0.027   6.505  0.3822  0.4545 -0.2410
 6049SOL     OW19885   1.027   6.634   9.154  0.1685  0.4175 -0.2832
 6049SOL    HW119886   1.119   6.623   9.180  0.7222  1.3385 -1.7312
 6049SOL    HW219887   1.002   6.549   9.118  0.6768  0.3745 -0.5416
 6050SOL     OW19888   2.271   7.859   6.149 -0.2059  0.4859 -0.8319
 6050SOL    HW119889   2.311   7.921   6.088  1.4376 -0.2477 -0.5686
 6050SOL    HW219890   2.329   7.860   6.226 -1.3385  0.2053  0.0580
 6051SOL     OW19891   4.022   9.460   0.458  0.4053 -0.3335  0.2147
 6051SOL    HW119892   3.958   9.455   0.387  0.5917  0.5904 -0.0272
 6051SOL    HW219893   4.106   9.475   0.415  1.0540 -2.7850  0.4277
 6052SOL     OW19894   4.414   7.566   6.337 -0.3740 -0.6564 -0.3620
 6052SOL    HW119895   4.455   7.589   6.253  1.8656  0.9277  1.0268
 6052SOL    HW219896   4.383   7.477   6.325  1.1422 -0.9862 -2.4482
 6053SOL     OW19897   5.630   1.621   4.944 -0.2215 -0.0839 -0.5432
 6053SOL    HW119898   5.595   1.670   5.019 -0.0089  0.4617 -0.8010
 6053SOL    HW219899   5.563   1.554   4.926  0.4832 -1.3399  1.2119
 6054SOL     OW19900   0.922   8.718   8.854 -0.2115 -0.1823  0.3925
 6054SOL    HW119901   0.934   8.747   8.764 -0.5752 -2.2243 -0.3561
 6054SOL    HW219902   0.914   8.800   8.904 -1.0876  1.0061 -1.5602
 6055SOL     OW19903   4.678   2.443   0.282 -0.3377 -0.7110  0.2911
 6055SOL    HW119904   4.732   2.520   0.299 -1.3567  1.0893 -3.5236
 6055SOL    HW219905   4.593   2.463   0.321 -0.1906 -0.5476  0.5256
 6056SOL     OW19906   1.531   0.670   8.176  0.1245  0.3196  0.7904
 6056SOL    HW119907   1.528   0.627   8.262  2.3996  1.1614  1.3523
 6056SOL    HW219908   1.490   0.608   8.117  2.3297 -2.2496  1.7461
 6057SOL     OW19909   8.627   8.091   5.006  0.1962  0.3150  0.0628
 6057SOL    HW119910   8.562   8.073   4.938 -0.4026  1.2563  0.3756
 6057SOL    HW219911   8.711   8.090   4.959 -0.2322  1.1966 -0.7572
 6058SOL     OW19912   2.978   4.828   6.567 -0.0566  0.0779 -0.2901
 6058SOL    HW119913   3.059   4.791   6.603 -0.2891 -0.5657 -0.4181
 6058SOL    HW219914   2.968   4.911   6.613  0.1016 -0.3358  0.5243
 6059SOL     OW19915   8.243   5.530   1.868 -0.0034 -0.0244 -0.1107
 6059SOL    HW119916   8.299   5.601   1.899  1.2755 -1.3251  0.7099
 6059SOL    HW219917   8.225   5.478   1.947 -2.0829  0.1269 -0.4290
 6060SOL     OW19918   2.971   6.667   1.916  0.3238  0.5867  0.3920
 6060SOL    HW119919   2.926   6.672   2.001 -1.8041 -0.5079 -0.6090
 6060SOL    HW219920   3.026   6.588   1.923 -1.1448 -0.4979  0.2200
 6061SOL     OW19921   8.007   5.790   4.407 -0.4120 -0.4001  0.6501
 6061SOL    HW119922   7.919   5.782   4.370 -0.6170 -0.7621  1.2183
 6061SOL    HW219923   8.016   5.717   4.467  0.7541 -1.1171 -0.3391
 6062SOL     OW19924   7.916   6.320   1.583  0.4579 -0.1196 -0.1636
 6062SOL    HW119925   7.823   6.340   1.599  0.1036 -2.1603  0.6336
 6062SOL    HW219926   7.932   6.240   1.633  2.8884  0.6375  0.3511
 6063SOL     OW19927   4.678   5.239   1.514 -0.2771  0.1608 -0.3330
 6063SOL    HW119928   4.655   5.202   1.599 -2.0075  0.7039 -0.5270
 6063SOL    HW219929   4.627   5.319   1.508  1.2363  1.1062 -1.1273
 6064SOL     OW19930   1.256   4.713   4.239 -0.2439 -0.2267  0.0664
 6064SOL    HW119931   1.186   4.687   4.298  0.3606 -1.4918  0.2437
 6064SOL    HW219932   1.328   4.653   4.258  0.7531  0.7733 -0.4040
 6065SOL     OW19933   3.129   0.916   5.147  0.0404  0.0077  0.1747
 6065SOL    HW119934   3.106   0.830   5.113  0.9014 -0.8091  1.5721
 6065SOL    HW219935   3.051   0.943   5.197  0.7338 -1.2474  2.0664
 6066SOL     OW19936   2.590   7.259   8.554 -0.0220 -0.2902 -0.2633
 6066SOL    HW119937   2.589   7.219   8.641  1.8688  0.3622  0.1070
 6066SOL    HW219938   2.683   7.263   8.531 -0.2578  2.1842 -1.0526
 6067SOL     OW19939   1.728   2.829   3.924 -0.2976 -0.1090 -0.2581
 6067SOL    HW119940   1.660   2.779   3.879 -0.8471 -0.0866  0.5435
 6067SOL    HW219941   1.751   2.776   4.000 -0.6307  0.6913  0.4067
 6068SOL     OW19942   0.597   7.242   2.631  0.6426  0.1971  0.5227
 6068SOL    HW119943   0.563   7.271   2.546  0.4772  1.9483  1.1289
 6068SOL    HW219944   0.681   7.203   2.612  0.1400 -0.3914 -0.5587
 6069SOL     OW19945   6.419   8.265   5.037 -0.0705  0.0639  0.2558
 6069SOL    HW119946   6.433   8.189   4.981  0.0537  0.7716 -0.6983
 6069SOL    HW219947   6.358   8.235   5.104 -0.0226 -0.8709 -0.1028
 6070SOL     OW19948   8.308   4.812   1.404 -0.5594 -0.1193  0.1385
 6070SOL    HW119949   8.294   4.731   1.454 -1.5502 -0.1560 -0.1712
 6070SOL    HW219950   8.231   4.865   1.422  1.0767  1.7526  2.1192
 6071SOL     OW19951   9.315   0.871   0.426 -0.2612  0.3439 -0.6963
 6071SOL    HW119952   9.349   0.784   0.450 -0.3407  0.7341  1.0129
 6071SOL    HW219953   9.394   0.926   0.422 -0.2530  0.2894 -1.3651
 6072SOL     OW19954   0.614   9.580   1.009 -0.4640  0.0141 -0.2315
 6072SOL    HW119955   0.618   9.493   0.969  0.0238  0.1487 -0.4965
 6072SOL    HW219956   0.590   9.564   1.100  3.1293 -0.7571  0.7356
 6073SOL     OW19957   8.909   2.563   5.057  0.8222  0.1737  0.0817
 6073SOL    HW119958   8.813   2.565   5.060  0.7424 -1.4600 -0.6828
 6073SOL    HW219959   8.930   2.549   4.965  1.8267  0.6716  0.2160
 6074SOL     OW19960   1.088   4.405   5.349 -0.0842 -0.5802 -0.2644
 6074SOL    HW119961   1.154   4.464   5.384 -0.6754 -0.3292  0.4501
 6074SOL    HW219962   1.137   4.346   5.291  0.2560  1.7894 -2.5551
 6075SOL     OW19963   0.900   6.660   0.200 -0.2543 -0.1023 -0.7707
 6075SOL    HW119964   0.957   6.596   0.158  0.6221  0.1074  0.0624
 6075SOL    HW219965   0.909   6.643   0.293 -0.6388  0.7093 -0.5739
 6076SOL     OW19966   1.648   5.232   9.499 -0.1262 -0.0774  0.1788
 6076SOL    HW119967   1.566   5.228   9.449 -0.0371  0.2156  0.0040
 6076SOL    HW219968   1.653   5.323   9.529  0.2967 -0.0058 -0.0916
 6077SOL     OW19969   9.540   4.231   6.720 -0.1982 -0.5414 -0.7046
 6077SOL    HW119970   9.549   4.279   6.638  2.0851 -1.3974 -1.0456
 6077SOL    HW219971   9.616   4.260   6.772  0.7572 -3.0550 -0.5855
 6078SOL     OW19972   2.528   3.942   5.776 -0.1515 -0.2466  1.0011
 6078SOL    HW119973   2.550   3.913   5.687 -1.1259  0.0985  0.6380
 6078SOL    HW219974   2.511   3.861   5.823 -1.0365 -0.3740  0.4827
 6079SOL     OW19975   8.608   2.733   4.265 -0.2482  0.3516 -0.0020
 6079SOL    HW119976   8.617   2.655   4.211 -1.2258 -0.9372  1.5799
 6079SOL    HW219977   8.517   2.761   4.252 -1.3776 -1.5571  2.8343
 6080SOL     OW19978   8.220   0.828   0.042  0.3240 -0.5786 -0.4256
 6080SOL    HW119979   8.217   0.773   0.121 -1.1501  1.2183  0.8434
 6080SOL    HW219980   8.290   0.891   0.060 -0.5807  0.3687 -0.1509
 6081SOL     OW19981   4.051   1.634   8.075  0.6687 -0.8114  0.1642
 6081SOL    HW119982   4.140   1.625   8.041  0.2373 -0.5479 -1.0582
 6081SOL    HW219983   4.046   1.725   8.105  1.1256 -1.1114  1.2200
 6082SOL     OW19984   2.741   7.549   1.450 -0.3852  0.2467  0.6409
 6082SOL    HW119985   2.746   7.618   1.516 -0.3367 -0.4155  1.3304
 6082SOL    HW219986   2.811   7.488   1.473 -1.1140 -0.5919  0.6772
 6083SOL     OW19987   8.976   6.487   5.525  0.5794 -0.1831  0.3510
 6083SOL    HW119988   9.022   6.519   5.447  1.2558  0.5087  1.0229
 6083SOL    HW219989   9.040   6.491   5.595  0.0866 -1.1605  0.8815
 6084SOL     OW19990   3.104   9.321   1.263  0.5555  0.7092 -0.8003
 6084SOL    HW119991   3.039   9.253   1.281  0.1797  0.8938 -1.4574
 6084SOL    HW219992   3.168   9.311   1.334  0.1014  0.1760 -0.4525
 6085SOL     OW19993   4.289   4.947   6.453  0.1007  0.7743 -0.3480
 6085SOL    HW119994   4.331   5.023   6.415  0.6465  0.0389 -1.2644
 6085SOL    HW219995   4.327   4.940   6.541 -1.7063  2.9130  0.6966
 6086SOL     OW19996   7.326   2.379   8.301 -0.5273  0.0696  0.1087
 6086SOL    HW119997   7.345   2.434   8.378 -1.6402  0.3083  0.2280
 6086SOL    HW219998   7.383   2.303   8.312 -0.5292  0.1898  1.0765
 6087SOL     OW19999   7.556   4.518   0.261  0.2382  0.5711 -0.5658
 6087SOL    HW120000   7.564   4.609   0.290 -0.7175  0.0124  1.6665
 6087SOL    HW220001   7.634   4.474   0.296 -0.6466  0.0100  0.8081
 6088SOL     OW20002   6.219   0.103   8.644 -0.0404 -0.3805  0.0055
 6088SOL    HW120003   6.240   0.196   8.633  0.2491 -0.4355  0.0891
 6088SOL    HW220004   6.133   0.093   8.602  0.7191 -0.4442 -1.5952
 6089SOL     OW20005   4.768   4.238   7.993 -0.2426 -0.0011 -0.0751
 6089SOL    HW120006   4.786   4.293   7.917  0.2010  0.5264  0.4055
 6089SOL    HW220007   4.776   4.297   8.068 -1.9367 -0.2244  0.3075
 6090SOL     OW20008   5.226   2.168   9.160  0.7385  0.1183  0.3053
 6090SOL    HW120009   5.139   2.160   9.199 -0.0047 -0.6039 -1.3756
 6090SOL    HW220010   5.287   2.152   9.232 -0.5786 -2.1511  1.0239
 6091SOL     OW20011   4.837   5.405   0.711  0.3906  0.0229 -0.5078
 6091SOL    HW120012   4.777   5.436   0.643 -0.4683 -1.0463 -0.2750
 6091SOL    HW220013   4.806   5.448   0.791  1.2343  1.0704 -0.7197
 6092SOL     OW20014   1.003   9.233   8.788 -0.0993  0.3041  0.0932
 6092SOL    HW120015   1.088   9.242   8.830  0.8704  0.2693 -1.7573
 6092SOL    HW220016   0.984   9.321   8.754  0.1320 -0.1040 -1.1442
 6093SOL     OW20017   1.167   9.544   2.517  0.4632 -0.3155  0.3093
 6093SOL    HW120018   1.215   9.593   2.584 -0.0463  0.1022  0.3669
 6093SOL    HW220019   1.192   9.585   2.434 -0.3495  0.3707  0.3972
 6094SOL     OW20020   1.137   3.589   4.042 -0.0985  0.2837 -0.8724
 6094SOL    HW120021   1.224   3.627   4.045  0.0633 -0.1143 -0.2624
 6094SOL    HW220022   1.080   3.655   4.083  0.1954 -0.1449  0.2694
 6095SOL     OW20023   3.163   3.204   1.745  0.2353 -0.0817  0.1474
 6095SOL    HW120024   3.205   3.188   1.830 -1.2271 -2.2613  0.5565
 6095SOL    HW220025   3.217   3.157   1.682  0.6089  0.4637  0.0571
 6096SOL     OW20026   2.801   5.944   1.772 -0.2492 -0.3365  0.3812
 6096SOL    HW120027   2.852   5.908   1.844  0.7049 -0.8276 -0.5148
 6096SOL    HW220028   2.851   5.923   1.693 -1.5736 -0.3820 -0.4970
 6097SOL     OW20029   4.483   4.872   7.027  0.2776  0.4515  0.5359
 6097SOL    HW120030   4.499   4.791   7.075  1.2281 -0.4856 -1.2619
 6097SOL    HW220031   4.397   4.859   6.988 -0.0337  0.7751  1.0968
 6098SOL     OW20032   0.895   7.818   3.051  0.4742  0.1747 -0.0273
 6098SOL    HW120033   0.803   7.834   3.032 -0.0634 -1.3878  1.1460
 6098SOL    HW220034   0.896   7.744   3.111  2.5845 -1.1601 -1.5533
 6099SOL     OW20035   3.340   7.503   3.442 -0.4440  0.0057 -0.0357
 6099SOL    HW120036   3.344   7.475   3.533 -1.5083  0.6655  0.2232
 6099SOL    HW220037   3.273   7.447   3.402  1.7454 -2.0468 -1.0945
 6100SOL     OW20038   1.655   4.680   8.166  0.2638  0.5258 -0.5707
 6100SOL    HW120039   1.611   4.708   8.246  1.6961  0.1200  0.3892
 6100SOL    HW220040   1.679   4.761   8.121 -1.2485  0.7568 -1.0238
 6101SOL     OW20041   4.503   2.082   4.418  0.2747  0.0928  0.2332
 6101SOL    HW120042   4.435   2.078   4.350  0.6078  0.7123 -0.1446
 6101SOL    HW220043   4.564   2.012   4.394  0.1669  0.0282  0.1438
 6102SOL     OW20044   0.463   3.606   8.042  0.1902  0.4740  0.3331
 6102SOL    HW120045   0.482   3.688   7.996  2.0329 -0.0561  0.0970
 6102SOL    HW220046   0.538   3.593   8.100  0.4227 -1.5390 -0.3668
 6103SOL     OW20047   0.975   6.141   0.841 -0.0526 -0.3903  0.4186
 6103SOL    HW120048   0.885   6.110   0.830 -0.4812  0.9139  0.0736
 6103SOL    HW220049   0.968   6.217   0.897  0.9559 -0.7605  1.0816
 6104SOL     OW20050   2.425   9.252   2.558  0.6197 -0.1906  0.1613
 6104SOL    HW120051   2.342   9.250   2.511  1.3356  1.3341 -1.2567
 6104SOL    HW220052   2.436   9.162   2.591 -0.8654 -0.7926 -0.8839
 6105SOL     OW20053   3.917   5.381   3.807 -0.0501  0.2741  0.3760
 6105SOL    HW120054   4.002   5.414   3.834 -0.8372  2.1024  0.7583
 6105SOL    HW220055   3.917   5.289   3.836  2.4117 -0.3033 -1.1929
 6106SOL     OW20056   2.027   5.484   4.044 -0.1033  0.1854  1.0250
 6106SOL    HW120057   2.004   5.534   3.966  0.2355 -0.2270  0.6611
 6106SOL    HW220058   2.009   5.544   4.117 -1.6899  0.1288  0.7243
 6107SOL     OW20059   5.995   2.944   4.205  0.9149  0.3497  0.1927
 6107SOL    HW120060   6.025   2.864   4.249  2.3913  0.3053 -0.8355
 6107SOL    HW220061   6.046   2.948   4.124 -1.4953  0.5902 -1.4160
 6108SOL     OW20062   5.854   6.121   4.853  0.0850  0.5024  0.4819
 6108SOL    HW120063   5.842   6.029   4.874 -1.3290  0.9087  1.5840
 6108SOL    HW220064   5.939   6.144   4.890 -0.8766  0.3653  2.9255
 6109SOL     OW20065   0.873   0.512   7.554 -0.6437  0.2707  0.5695
 6109SOL    HW120066   0.905   0.525   7.643  0.4532  1.7487  0.0078
 6109SOL    HW220067   0.779   0.524   7.560 -0.3961  2.2553  1.2687
 6110SOL     OW20068   3.739   4.166   7.140 -0.4016  0.0526  0.5911
 6110SOL    HW120069   3.668   4.212   7.184 -0.1726 -0.1369  1.1671
 6110SOL    HW220070   3.733   4.075   7.171  0.1234  0.0465  0.6907
 6111SOL     OW20071   9.365   1.050   3.243  0.2318 -0.0972  0.4247
 6111SOL    HW120072   9.334   1.043   3.153 -0.0051 -0.5653  0.5410
 6111SOL    HW220073   9.358   1.144   3.263  0.6492  0.0604 -0.1651
 6112SOL     OW20074   8.128   3.784   7.477  0.0411  0.6986  0.3475
 6112SOL    HW120075   8.162   3.735   7.402 -0.1506 -0.0723  0.7582
 6112SOL    HW220076   8.043   3.744   7.495  0.6292  0.0279  1.7679
 6113SOL     OW20077   2.500   0.858   7.350  0.1524  0.6232  0.5240
 6113SOL    HW120078   2.413   0.822   7.333  0.8113 -0.2382 -1.3316
 6113SOL    HW220079   2.521   0.830   7.439 -1.0836  0.0096  0.6426
 6114SOL     OW20080   8.089   8.262   0.751 -0.2264  0.0221  0.0119
 6114SOL    HW120081   8.079   8.168   0.736  0.2678  0.1731 -1.4243
 6114SOL    HW220082   8.179   8.272   0.782  0.0773  0.1143 -0.8709
 6115SOL     OW20083   6.966   4.540   5.664 -0.4773 -0.0015 -0.7791
 6115SOL    HW120084   6.968   4.450   5.630 -0.7241 -0.0122 -0.7715
 6115SOL    HW220085   7.056   4.571   5.655 -0.7461  0.3703 -2.4774
 6116SOL     OW20086   8.748   5.290   5.280 -0.6136  0.9118 -0.1334
 6116SOL    HW120087   8.819   5.249   5.330 -1.8631  0.3736  1.2934
 6116SOL    HW220088   8.686   5.318   5.347 -1.1985  2.4486 -1.2767
 6117SOL     OW20089   4.361   1.902   2.191  0.1832 -0.4767  0.1777
 6117SOL    HW120090   4.288   1.955   2.224  1.7177  1.1728  1.1362
 6117SOL    HW220091   4.355   1.910   2.096  0.2736  1.3965  0.2847
 6118SOL     OW20092   0.737   6.729   7.343  0.0195 -0.0697  0.2212
 6118SOL    HW120093   0.704   6.721   7.433  1.4881  1.2682  0.9086
 6118SOL    HW220094   0.818   6.679   7.343  0.6994  1.0036  0.0203
 6119SOL     OW20095   0.285   0.058   3.453  0.4061 -0.3270  0.0281
 6119SOL    HW120096   0.257   0.092   3.537 -0.2676 -1.6324  0.3651
 6119SOL    HW220097   0.203   0.041   3.406  0.7760  0.5977 -0.9930
 6120SOL     OW20098   6.000   4.010   2.362 -0.1308  0.1128  0.0250
 6120SOL    HW120099   6.012   4.035   2.454 -2.4350 -0.5629  0.5664
 6120SOL    HW220100   5.925   4.061   2.333  0.4929  0.2268 -1.4857
 6121SOL     OW20101   0.664   4.163   8.707  0.0527 -0.2871  0.3111
 6121SOL    HW120102   0.697   4.073   8.700 -0.4786 -0.6751  2.1833
 6121SOL    HW220103   0.703   4.196   8.788  2.8148  2.3497 -1.8632
 6122SOL     OW20104   5.877   1.665   3.499  0.3034 -0.2735  0.1472
 6122SOL    HW120105   5.837   1.580   3.480  1.1851 -0.8790  0.9022
 6122SOL    HW220106   5.826   1.699   3.573 -1.0263  0.5822 -1.1122
 6123SOL     OW20107   4.981   8.113   3.376  0.4639 -0.0774 -0.5119
 6123SOL    HW120108   4.888   8.116   3.395  0.4031 -1.2439 -0.5563
 6123SOL    HW220109   5.006   8.204   3.361 -0.5290  0.3120  0.1271
 6124SOL     OW20110   8.683   1.489   6.367  0.2501  0.2147 -0.3197
 6124SOL    HW120111   8.671   1.566   6.311  0.1342 -0.6006 -1.4482
 6124SOL    HW220112   8.775   1.490   6.390  0.0521  1.2309  0.5018
 6125SOL     OW20113   7.644   8.536   5.819 -0.2578 -0.0657  0.3092
 6125SOL    HW120114   7.600   8.621   5.821  0.5803  0.3944 -0.2818
 6125SOL    HW220115   7.614   8.495   5.738 -0.3259 -0.1552  0.3792
 6126SOL     OW20116   5.583   5.521   4.627 -0.8803  0.5282 -0.1580
 6126SOL    HW120117   5.586   5.426   4.629  1.0861  0.5545  1.6033
 6126SOL    HW220118   5.614   5.544   4.539  0.9668 -0.4861  0.1777
 6127SOL     OW20119   5.298   5.153   1.071 -0.0425  0.0426 -0.2369
 6127SOL    HW120120   5.251   5.070   1.076  0.5736 -0.2855  0.2757
 6127SOL    HW220121   5.258   5.199   0.997 -1.2486 -0.1683  0.2675
 6128SOL     OW20122   8.445   6.002   2.744  0.1098  0.3255  0.8591
 6128SOL    HW120123   8.535   6.020   2.771  0.3421  2.4021 -0.9808
 6128SOL    HW220124   8.449   6.001   2.648 -1.8446  0.6577  0.7426
 6129SOL     OW20125   0.591   4.898   9.509 -0.3857 -0.6239  0.2617
 6129SOL    HW120126   0.615   4.938   9.593 -0.4893 -3.4038  1.7339
 6129SOL    HW220127   0.666   4.842   9.488 -1.5318 -2.0784 -0.0392
 6130SOL     OW20128   7.248   1.602   7.671 -0.7098 -0.0319 -0.1725
 6130SOL    HW120129   7.282   1.591   7.582 -0.3847  4.1196 -0.7440
 6130SOL    HW220130   7.326   1.603   7.727 -0.7193 -0.0947 -0.1574
 6131SOL     OW20131   4.814   9.280   6.555 -0.2845 -0.0730  0.0581
 6131SOL    HW120132   4.888   9.324   6.514 -1.3152  1.3248 -0.3815
 6131SOL    HW220133   4.853   9.206   6.602  1.6604  1.7140  1.4869
 6132SOL     OW20134   5.583   6.537   3.705 -0.1171  0.1834  0.5031
 6132SOL    HW120135   5.581   6.451   3.662  1.7102 -0.3957  1.4668
 6132SOL    HW220136   5.544   6.596   3.641 -0.2740 -1.1612 -0.7037
 6133SOL     OW20137   7.050   3.586   1.267  0.2012 -0.1709 -0.2617
 6133SOL    HW120138   6.986   3.618   1.330  0.8958 -0.6351  0.6902
 6133SOL    HW220139   7.046   3.649   1.195 -0.7949  0.2124  0.1128
 6134SOL     OW20140   0.765   9.591   5.401  0.1559  0.5174  0.2948
 6134SOL    HW120141   0.825   9.665   5.413 -0.1751  1.0848 -1.2445
 6134SOL    HW220142   0.818   9.523   5.359  0.4799 -0.1874  1.7787
 6135SOL     OW20143   8.159   2.581   9.440 -0.5888  0.0137  0.4877
 6135SOL    HW120144   8.235   2.526   9.421 -0.9602 -0.3262 -0.0262
 6135SOL    HW220145   8.092   2.519   9.469 -2.6278 -0.5811 -4.5166
 6136SOL     OW20146   9.387   1.941   0.896  0.5911 -0.0718  0.0750
 6136SOL    HW120147   9.335   1.904   0.967  1.0201  0.1563  0.5131
 6136SOL    HW220148   9.410   2.029   0.926  1.2155 -0.1616 -0.1152
 6137SOL     OW20149   6.947   6.362   8.411  0.2435  0.8756  0.0859
 6137SOL    HW120150   6.913   6.426   8.349 -0.1601 -0.2868 -0.9343
 6137SOL    HW220151   6.895   6.376   8.491  0.5421  2.1655  0.0727
 6138SOL     OW20152   9.013   3.534   2.875 -0.3760  0.1961  0.2350
 6138SOL    HW120153   8.979   3.603   2.817 -0.7789  0.7329  1.0976
 6138SOL    HW220154   9.070   3.482   2.818 -0.5028  0.9040 -0.5685
 6139SOL     OW20155   9.416   8.310   6.154 -0.1932 -0.3555  0.3828
 6139SOL    HW120156   9.457   8.311   6.240  0.7301 -0.7579 -0.0301
 6139SOL    HW220157   9.477   8.261   6.099 -0.0079  1.1704 -0.8545
 6140SOL     OW20158   2.848   4.946   8.159 -0.3204 -0.3218 -0.3233
 6140SOL    HW120159   2.822   4.915   8.073 -0.3051 -0.7901 -0.1657
 6140SOL    HW220160   2.933   4.905   8.175 -0.2591 -0.1301 -0.1464
 6141SOL     OW20161   0.032   3.572   4.197 -0.2243  0.6828  0.0205
 6141SOL    HW120162   0.022   3.573   4.101  0.6540 -0.1052 -0.1013
 6141SOL    HW220163  -0.038   3.514   4.227  0.6957 -0.6759 -0.3491
 6142SOL     OW20164   1.433   8.471   1.251  0.5818  0.2765  0.6428
 6142SOL    HW120165   1.385   8.409   1.196  0.3902 -0.2321  1.3595
 6142SOL    HW220166   1.504   8.502   1.196 -1.1326  1.8200 -0.7890
 6143SOL     OW20167   5.164   6.811   9.152  0.6194  0.5938  0.5832
 6143SOL    HW120168   5.244   6.774   9.114 -0.2812 -1.2732  0.4277
 6143SOL    HW220169   5.137   6.748   9.218 -0.8935  1.0646  0.4435
 6144SOL     OW20170   5.428   0.597   6.772 -0.2994 -0.1145 -0.0705
 6144SOL    HW120171   5.343   0.615   6.729  0.0232 -0.1741 -0.7552
 6144SOL    HW220172   5.405   0.545   6.849 -0.9202  0.1829 -0.0416
 6145SOL     OW20173   1.625   6.183   0.603  0.8260  0.0566 -0.0247
 6145SOL    HW120174   1.642   6.089   0.602 -0.6416 -0.2659  1.2961
 6145SOL    HW220175   1.620   6.206   0.696  1.1455  1.4407 -0.3278
 6146SOL     OW20176   1.520   2.392   7.087  0.1878  0.2291  0.5070
 6146SOL    HW120177   1.585   2.323   7.069  0.6826  0.7488  0.2648
 6146SOL    HW220178   1.461   2.389   7.012  0.8978  0.8462 -0.0929
 6147SOL     OW20179   2.698   1.940   2.338 -0.3333  0.0447  0.8064
 6147SOL    HW120180   2.770   1.879   2.327 -0.0792  0.3627  0.6776
 6147SOL    HW220181   2.619   1.889   2.320 -0.0373  0.1527 -0.9633
 6148SOL     OW20182   5.271   4.968   9.570 -0.5546 -0.0166 -0.4355
 6148SOL    HW120183   5.276   5.016   9.652  3.6834  1.6283 -1.3818
 6148SOL    HW220184   5.278   4.876   9.595  2.5840  0.5183  1.1381
 6149SOL     OW20185   9.057   1.456   5.272  0.2574 -0.3682  0.1406
 6149SOL    HW120186   8.999   1.532   5.273 -0.0262 -0.5860  0.2469
 6149SOL    HW220187   9.135   1.486   5.225  0.3602  0.1436  0.6239
 6150SOL     OW20188   7.504   4.571   1.700 -0.1637 -0.3737  0.0359
 6150SOL    HW120189   7.469   4.487   1.731 -2.4902  0.6461  0.3470
 6150SOL    HW220190   7.557   4.603   1.774 -0.1015 -1.0658  0.3025
 6151SOL     OW20191   3.425   8.279   2.360 -0.7323 -0.1408 -0.1369
 6151SOL    HW120192   3.390   8.254   2.446  0.3100  0.9314  0.6214
 6151SOL    HW220193   3.385   8.364   2.341 -1.2042 -0.5162 -0.8811
 6152SOL     OW20194   1.900   7.587   4.000  0.3939 -0.2470  0.1128
 6152SOL    HW120195   1.887   7.494   3.982 -3.4260  0.2220 -0.4589
 6152SOL    HW220196   1.930   7.590   4.091  0.8322 -2.0379  0.0572
 6153SOL     OW20197   4.741   1.495   8.322 -0.4365  0.1017  0.1435
 6153SOL    HW120198   4.793   1.447   8.259  0.4162  2.6184 -1.2016
 6153SOL    HW220199   4.735   1.437   8.398  4.1930 -0.4564  0.3260
 6154SOL     OW20200   0.096   2.946   7.788 -0.1792  0.1800  0.2265
 6154SOL    HW120201   0.191   2.952   7.781  0.0107 -1.4320  0.9292
 6154SOL    HW220202   0.072   2.879   7.724 -0.8805  0.7371 -0.1082
 6155SOL     OW20203   5.301   1.956   5.217  0.3715 -1.0751  0.7100
 6155SOL    HW120204   5.206   1.963   5.212  0.5767  2.3059 -1.4651
 6155SOL    HW220205   5.319   1.944   5.311 -2.1713  2.2686  1.8407
 6156SOL     OW20206   6.897   8.303   0.562  0.2210  0.1107  0.8509
 6156SOL    HW120207   6.852   8.276   0.481 -1.3459 -2.1746  2.3667
 6156SOL    HW220208   6.963   8.236   0.576 -0.5208 -0.3719  2.1984
 6157SOL     OW20209   4.223   0.407   2.022  0.1323  0.5493  0.3013
 6157SOL    HW120210   4.258   0.318   2.014  0.6575  0.7739  0.0618
 6157SOL    HW220211   4.300   0.463   2.028 -0.1791  1.0519 -0.2159
 6158SOL     OW20212   5.658   6.285   3.479 -0.0914  0.0329 -0.3335
 6158SOL    HW120213   5.590   6.240   3.531  1.5330  1.0705  2.9824
 6158SOL    HW220214   5.739   6.269   3.528  1.4736  1.7491 -2.2311
 6159SOL     OW20215   5.030   1.202   3.991 -0.3647 -0.1724  0.1079
 6159SOL    HW120216   5.103   1.140   3.985  1.8271  1.9897  2.1344
 6159SOL    HW220217   4.955   1.148   4.015  1.0963 -2.2379  0.3405
 6160SOL     OW20218   4.381   0.929   3.607  0.5434 -0.2649 -0.3007
 6160SOL    HW120219   4.469   0.892   3.609  0.0474 -1.5741 -1.2738
 6160SOL    HW220220   4.370   0.969   3.694  1.9503 -0.3955 -0.0398
 6161SOL     OW20221   7.954   0.509   0.924  0.0306 -0.2608 -0.0793
 6161SOL    HW120222   7.938   0.555   1.007  0.3785 -0.7920  0.2901
 6161SOL    HW220223   7.969   0.579   0.860 -1.3817  0.1843  0.0579
 6162SOL     OW20224   2.419   7.574   1.303 -0.0640 -0.2893  0.1799
 6162SOL    HW120225   2.369   7.581   1.384 -1.1881 -1.5530 -0.3638
 6162SOL    HW220226   2.404   7.657   1.258 -0.4838 -0.0850  0.6893
 6163SOL     OW20227   2.725   2.919   3.461  0.0705 -0.2477  0.3309
 6163SOL    HW120228   2.682   2.837   3.485 -1.2337  0.2473 -0.2360
 6163SOL    HW220229   2.658   2.969   3.415  1.6223  0.0226 -1.7975
 6164SOL     OW20230   5.929   7.324   8.884 -0.2065  0.3882 -0.2441
 6164SOL    HW120231   5.924   7.406   8.836  0.1749  0.5789  0.0364
 6164SOL    HW220232   5.963   7.348   8.970  3.4094 -0.4533 -1.2601
 6165SOL     OW20233   3.674   1.248   0.546  0.5197 -0.3172  0.6283
 6165SOL    HW120234   3.675   1.152   0.549  0.4311 -0.2858  3.1612
 6165SOL    HW220235   3.757   1.270   0.503  0.3497 -1.5099 -0.3889
 6166SOL     OW20236   8.866   6.741   6.493  0.5758 -0.5100  0.5966
 6166SOL    HW120237   8.896   6.758   6.404 -0.5212  1.2930  0.5221
 6166SOL    HW220238   8.779   6.781   6.497 -0.0180 -1.8414  2.0615
 6167SOL     OW20239   3.292   0.745   4.220 -0.0312 -0.5680  0.1654
 6167SOL    HW120240   3.277   0.801   4.143 -1.3595 -0.6711  0.3102
 6167SOL    HW220241   3.269   0.657   4.190  0.4692 -0.7753  0.3899
 6168SOL     OW20242   2.521   8.958   1.842  0.0218  0.7380  0.0766
 6168SOL    HW120243   2.557   9.013   1.773  1.0524 -0.2177 -0.1733
 6168SOL    HW220244   2.436   8.997   1.862  1.0029  2.8486  0.4222
 6169SOL     OW20245   5.646   5.750   9.328 -0.2038  0.2132  0.8047
 6169SOL    HW120246   5.715   5.684   9.340  0.8413  1.3444  1.2796
 6169SOL    HW220247   5.602   5.754   9.413 -0.5902 -0.2060  0.6292
 6170SOL     OW20248   3.567   2.534   7.270  0.2669 -0.2191 -0.2528
 6170SOL    HW120249   3.480   2.494   7.267  0.4000 -0.4586 -0.9401
 6170SOL    HW220250   3.563   2.593   7.346 -0.9319  0.7477 -1.0203
 6171SOL     OW20251   2.545   5.962   1.658  0.1403  0.1234  0.3919
 6171SOL    HW120252   2.634   5.957   1.694  1.0478  0.4456 -1.6332
 6171SOL    HW220253   2.553   5.926   1.570 -1.9230 -0.5195  0.4259
 6172SOL     OW20254   0.164   7.423   3.471  0.1759 -0.2457 -0.3582
 6172SOL    HW120255   0.183   7.333   3.445  0.3021 -0.1674 -0.5438
 6172SOL    HW220256   0.181   7.475   3.392 -3.4694 -0.4715 -1.4523
 6173SOL     OW20257   3.133   8.862   4.700  0.3853 -0.5286 -0.7788
 6173SOL    HW120258   3.194   8.903   4.762  2.2352 -2.4161 -1.2056
 6173SOL    HW220259   3.110   8.932   4.639 -0.8595  1.1882  1.5089
 6174SOL     OW20260   8.766   6.104   5.997 -0.3828 -0.5715 -0.3034
 6174SOL    HW120261   8.678   6.137   5.978 -0.8956 -2.5393 -1.6606
 6174SOL    HW220262   8.770   6.020   5.951  2.8879  0.3126 -1.9158
 6175SOL     OW20263   5.264   0.668   4.274 -0.1000 -0.1292  0.3142
 6175SOL    HW120264   5.355   0.672   4.305 -0.2136 -1.2054  0.8136
 6175SOL    HW220265   5.271   0.633   4.185  0.0457  0.8793 -0.0938
 6176SOL     OW20266   5.835   2.596   8.805  0.3293 -0.3771 -0.5986
 6176SOL    HW120267   5.797   2.682   8.819 -0.1208 -0.4942 -1.0572
 6176SOL    HW220268   5.774   2.535   8.847 -1.2750 -0.7715 -3.2733
 6177SOL     OW20269   1.342   6.133   2.860  0.2814  0.0981 -0.4108
 6177SOL    HW120270   1.298   6.218   2.865 -0.8582 -0.5011  0.0664
 6177SOL    HW220271   1.390   6.126   2.942 -0.4054 -0.1291 -0.0243
 6178SOL     OW20272   3.514   5.393   0.829 -0.2602 -0.1550 -0.2026
 6178SOL    HW120273   3.495   5.305   0.861 -1.9288  0.2096 -0.1101
 6178SOL    HW220274   3.507   5.386   0.734 -1.5689  0.1041 -0.1438
 6179SOL     OW20275   3.293   1.438   0.639 -0.0430 -0.1853 -0.2103
 6179SOL    HW120276   3.335   1.420   0.554  1.3302 -1.9094  0.7745
 6179SOL    HW220277   3.295   1.355   0.685  1.4996  1.2225  2.4852
 6180SOL     OW20278   7.744   6.458   4.294  0.0400  0.4612 -0.2137
 6180SOL    HW120279   7.819   6.453   4.234 -0.3737 -2.1495 -0.5965
 6180SOL    HW220280   7.670   6.424   4.244 -0.9101  0.7887  0.9205
 6181SOL     OW20281   3.652   1.553   8.658  0.7277  0.6108 -0.3235
 6181SOL    HW120282   3.625   1.644   8.669 -1.2329  0.1675 -1.0027
 6181SOL    HW220283   3.740   1.558   8.622  0.9717  2.2077  0.4057
 6182SOL     OW20284   3.098   1.937   5.934 -0.0076  0.5136  0.1737
 6182SOL    HW120285   3.093   1.954   5.840  0.3831 -1.2901 -0.2107
 6182SOL    HW220286   3.191   1.921   5.950 -0.2111 -0.2499  0.6526
 6183SOL     OW20287   3.423   0.051   4.643 -0.9490 -0.3969 -0.0548
 6183SOL    HW120288   3.468   0.045   4.726 -1.2429  0.3973  0.1700
 6183SOL    HW220289   3.387   0.140   4.641 -0.5226 -0.2271 -1.2450
 6184SOL     OW20290   6.175   9.267   2.455  0.4665  0.0676 -0.3786
 6184SOL    HW120291   6.210   9.276   2.544 -1.6955  0.9441  0.4738
 6184SOL    HW220292   6.083   9.243   2.469 -0.3689  1.8312 -2.3047
 6185SOL     OW20293   9.509   6.429   9.282  0.5940  0.4012 -0.2785
 6185SOL    HW120294   9.594   6.412   9.324  0.4714  1.2687  0.3372
 6185SOL    HW220295   9.446   6.430   9.354 -0.2410 -1.8620 -0.8736
 6186SOL     OW20296   8.838   6.020   8.075  0.1021 -0.2829 -0.1166
 6186SOL    HW120297   8.744   6.036   8.067 -0.1791 -1.8150 -0.2979
 6186SOL    HW220298   8.844   5.954   8.144  1.0116 -0.4936 -0.3890
 6187SOL     OW20299   5.884   8.941   1.059  0.3311  0.0401  0.0670
 6187SOL    HW120300   5.808   8.966   1.111 -0.8870  1.7883 -2.3823
 6187SOL    HW220301   5.877   8.846   1.049 -2.2535  0.2852 -1.0953
 6188SOL     OW20302   0.826   4.607   8.977  0.2658  0.2756 -0.8214
 6188SOL    HW120303   0.885   4.587   9.051 -0.9815 -0.1772  0.0830
 6188SOL    HW220304   0.859   4.690   8.943  0.4050  0.9109  0.7554
 6189SOL     OW20305   3.109   5.886   9.463 -0.3520 -0.0988 -0.1101
 6189SOL    HW120306   3.101   5.945   9.389 -0.0227  0.4540  0.2951
 6189SOL    HW220307   3.172   5.927   9.521  2.5516 -2.4124 -1.3386
 6190SOL     OW20308   6.123   1.740   3.401 -0.3861  0.4656 -0.6286
 6190SOL    HW120309   6.103   1.828   3.370  0.3084  1.7683  2.2662
 6190SOL    HW220310   6.047   1.715   3.453 -0.1436 -0.1985 -0.5823
 6191SOL     OW20311   4.047   1.351   2.132 -0.3136  0.6835 -0.1413
 6191SOL    HW120312   4.065   1.258   2.144  0.7598  0.8192 -0.5515
 6191SOL    HW220313   3.962   1.354   2.088 -1.1491 -0.0253  1.3571
 6192SOL     OW20314   8.557   7.342   2.990 -0.3499  0.3247  0.4695
 6192SOL    HW120315   8.602   7.365   2.909  0.0272 -0.6120  0.4077
 6192SOL    HW220316   8.627   7.333   3.055 -0.5081 -0.3542  0.5570
 6193SOL     OW20317   1.203   8.827   3.427 -0.3102  0.0146 -0.3231
 6193SOL    HW120318   1.277   8.771   3.404 -0.3418  0.2297 -0.9810
 6193SOL    HW220319   1.215   8.846   3.520 -0.3839 -1.2022 -0.0438
 6194SOL     OW20320   6.491   9.128   6.976  0.2910  0.0313  0.0511
 6194SOL    HW120321   6.398   9.112   6.961  0.0073  2.2484 -0.8745
 6194SOL    HW220322   6.494   9.197   7.042  1.1774  1.2711 -1.2218
 6195SOL     OW20323   8.015   6.916   5.294 -0.1873  0.2834 -0.5039
 6195SOL    HW120324   8.036   6.858   5.367  0.1697 -0.5032 -1.2175
 6195SOL    HW220325   8.000   6.858   5.220 -1.1390  1.0356 -0.9327
 6196SOL     OW20326   6.630   7.449   3.402 -0.8940 -0.0839  0.1075
 6196SOL    HW120327   6.597   7.388   3.468  0.5098 -1.3308 -0.2802
 6196SOL    HW220328   6.582   7.424   3.322 -1.9526  0.8448  0.4267
 6197SOL     OW20329   0.674   2.875   4.463 -0.3728 -0.3374  0.2195
 6197SOL    HW120330   0.589   2.892   4.503 -1.0672 -0.5159 -1.1302
 6197SOL    HW220331   0.732   2.854   4.537 -1.5560 -0.4843  1.1274
 6198SOL     OW20332   6.072   8.434   0.401  0.1567 -0.6417 -0.7128
 6198SOL    HW120333   6.076   8.376   0.477  2.5586 -1.5033 -1.4121
 6198SOL    HW220334   6.059   8.377   0.326 -0.9516  0.0822 -1.0949
 6199SOL     OW20335   5.548   6.017   8.474  0.1452  0.0581  0.1540
 6199SOL    HW120336   5.491   6.093   8.481 -0.5147 -0.3369 -0.7384
 6199SOL    HW220337   5.500   5.946   8.514  0.7619  0.0955  0.9860
 6200SOL     OW20338   7.786   6.333   0.549  0.9464  0.5019 -0.1942
 6200SOL    HW120339   7.759   6.425   0.552  2.2624  0.9466 -1.1291
 6200SOL    HW220340   7.819   6.321   0.460  1.3134 -0.7316  0.0925
 6201SOL     OW20341   7.778   1.326   4.170 -0.6084 -0.5560  0.0028
 6201SOL    HW120342   7.835   1.394   4.134  0.4455 -1.9711 -1.1245
 6201SOL    HW220343   7.697   1.333   4.119 -0.4402 -0.2518 -0.2292
 6202SOL     OW20344   9.493   4.914   4.590 -0.1012  0.2992 -0.1894
 6202SOL    HW120345   9.531   4.902   4.677 -0.5179  1.1291  0.1187
 6202SOL    HW220346   9.563   4.954   4.538  0.6982 -1.6886 -0.7238
 6203SOL     OW20347   5.193   7.123   9.367 -0.2766  0.3476  0.3788
 6203SOL    HW120348   5.276   7.084   9.393 -0.3902  0.7238  1.3674
 6203SOL    HW220349   5.130   7.051   9.373 -0.0643  0.1099 -0.1786
 6204SOL     OW20350   0.534   8.311   4.898  0.1283 -0.6261  0.2658
 6204SOL    HW120351   0.459   8.289   4.953  0.5192 -2.3955  0.1564
 6204SOL    HW220352   0.545   8.234   4.842  1.5591 -0.0695 -0.2482
 6205SOL     OW20353   9.256   1.183   1.721 -0.6224  0.7418 -0.5107
 6205SOL    HW120354   9.210   1.246   1.666  0.1494 -0.4545 -2.6499
 6205SOL    HW220355   9.210   1.100   1.706 -0.6253  0.4360  0.9819
 6206SOL     OW20356   6.440   2.337   4.995  0.6365 -0.3051  0.4568
 6206SOL    HW120357   6.388   2.269   4.952  0.9214 -1.2863  1.5828
 6206SOL    HW220358   6.523   2.338   4.948  1.3108 -2.0469  1.5106
 6207SOL     OW20359   6.615   4.118   0.540  0.4810  0.6299 -0.0457
 6207SOL    HW120360   6.609   4.027   0.512 -0.6658  0.0690  1.8648
 6207SOL    HW220361   6.558   4.124   0.616  0.6300  2.9297 -0.0355
 6208SOL     OW20362   6.512   5.478   6.556  0.0902 -0.3495 -0.7821
 6208SOL    HW120363   6.507   5.460   6.462 -0.6185 -1.0352 -0.6241
 6208SOL    HW220364   6.429   5.523   6.576 -0.1565 -0.9847 -0.3364
 6209SOL     OW20365   7.853   7.966   0.851  0.6721 -0.1993  0.7136
 6209SOL    HW120366   7.807   7.884   0.834 -0.1414  0.3069  0.4374
 6209SOL    HW220367   7.852   7.975   0.946 -0.1616  0.0066  0.6900
 6210SOL     OW20368   5.676   5.927   1.026 -0.3779 -0.0388  0.2463
 6210SOL    HW120369   5.586   5.938   0.993 -0.3047  1.4723  0.4476
 6210SOL    HW220370   5.730   5.917   0.948 -0.6330 -0.1663  0.0857
 6211SOL     OW20371   1.351   8.185   3.779  0.9904  0.3142 -0.0414
 6211SOL    HW120372   1.292   8.215   3.709  0.5229  2.4403  1.1507
 6211SOL    HW220373   1.303   8.114   3.822  0.3484  0.4233 -0.5634
 6212SOL     OW20374   3.358   8.524   9.497 -0.2957 -0.2653  0.0471
 6212SOL    HW120375   3.338   8.572   9.578  0.4574  0.2713 -0.0785
 6212SOL    HW220376   3.275   8.522   9.450 -0.9542 -1.2748  1.1707
 6213SOL     OW20377   5.193   4.047   6.384  0.0361 -0.2881 -0.6430
 6213SOL    HW120378   5.147   4.027   6.465  1.4677 -1.6373 -0.1131
 6213SOL    HW220379   5.250   3.972   6.369  0.3538  0.2644 -2.5203
 6214SOL     OW20380   0.878   5.710   4.127  0.1767 -0.3085  0.2812
 6214SOL    HW120381   0.942   5.640   4.133  0.8647  0.4004  2.3630
 6214SOL    HW220382   0.797   5.667   4.101  1.1906 -1.4060 -1.2168
 6215SOL     OW20383   6.507   1.610   8.984 -0.5393  0.2033  0.0381
 6215SOL    HW120384   6.412   1.613   8.990 -0.5569  0.1497 -0.2303
 6215SOL    HW220385   6.537   1.648   9.067 -0.7843  0.8507 -0.1643
 6216SOL     OW20386   2.690   4.889   2.814 -1.0109  0.2516 -0.1913
 6216SOL    HW120387   2.710   4.863   2.903 -0.5703 -0.1598 -0.4068
 6216SOL    HW220388   2.596   4.872   2.804 -1.1018  0.4806  0.2485
 6217SOL     OW20389   8.003   6.824   0.481  0.3753 -0.0662 -0.1614
 6217SOL    HW120390   7.987   6.839   0.574  0.1766 -1.9677  0.1421
 6217SOL    HW220391   7.968   6.903   0.438  0.2580  0.7374  1.3305
 6218SOL     OW20392   4.245   8.275   0.442  0.1206  0.4091 -0.6346
 6218SOL    HW120393   4.167   8.240   0.485  0.3525  1.2480  0.5172
 6218SOL    HW220394   4.251   8.226   0.360  0.5784 -2.4363  0.9944
 6219SOL     OW20395   1.308   8.255   9.233 -0.7755  0.5506  0.1483
 6219SOL    HW120396   1.213   8.248   9.228 -0.7895 -0.3411  1.3108
 6219SOL    HW220397   1.325   8.301   9.315 -0.2096  1.3100 -0.3743
 6220SOL     OW20398   4.121   5.354   3.341  0.6710 -0.0482 -0.2480
 6220SOL    HW120399   4.077   5.270   3.334  0.2846 -0.0137  1.5475
 6220SOL    HW220400   4.051   5.418   3.351  1.0484  0.0504  2.2188
 6221SOL     OW20401   7.340   4.848   3.538 -0.0343 -0.0204  0.0843
 6221SOL    HW120402   7.276   4.791   3.496  0.9993  0.1698 -1.8890
 6221SOL    HW220403   7.309   4.937   3.518 -0.0850  0.0788  0.6086
 6222SOL     OW20404   3.989   5.783   1.125  0.0886  0.5423 -0.2934
 6222SOL    HW120405   3.896   5.759   1.119  0.5799 -1.6401 -0.1513
 6222SOL    HW220406   3.990   5.878   1.120 -2.3511  0.7995  2.0794
 6223SOL     OW20407   2.797   2.354   5.148  0.0840 -0.2107  0.3134
 6223SOL    HW120408   2.871   2.391   5.100 -1.1534 -0.3432 -1.8214
 6223SOL    HW220409   2.838   2.291   5.208  1.6914 -1.1208 -1.5803
 6224SOL     OW20410   0.278   1.364   0.206 -0.3192  0.0125  0.1511
 6224SOL    HW120411   0.372   1.349   0.199 -0.5927 -1.2655 -1.1675
 6224SOL    HW220412   0.259   1.427   0.136 -0.5252 -0.1861  0.0270
 6225SOL     OW20413   3.672   5.362   8.280  0.2089 -0.6884 -0.3816
 6225SOL    HW120414   3.637   5.274   8.265 -1.0147 -0.4914  1.0347
 6225SOL    HW220415   3.606   5.405   8.336  0.2194  1.5373 -1.9628
 6226SOL     OW20416   3.016   4.894   2.630 -0.5635 -0.1293 -0.1341
 6226SOL    HW120417   3.097   4.853   2.660 -0.3574  1.5356  1.8429
 6226SOL    HW220418   2.948   4.859   2.688 -1.3201 -1.4456 -1.7164
 6227SOL     OW20419   1.702   4.288   0.622  0.4960 -0.0988  0.2357
 6227SOL    HW120420   1.693   4.216   0.685  0.8427  0.3795  0.8369
 6227SOL    HW220421   1.612   4.303   0.591  0.3364 -0.4042  0.5380
 6228SOL     OW20422   6.883   0.341   8.681  0.1547 -0.2055  0.2571
 6228SOL    HW120423   6.969   0.333   8.639 -0.2366  1.0393 -0.8492
 6228SOL    HW220424   6.877   0.434   8.705 -0.9732 -0.2340  0.1271
 6229SOL     OW20425   3.579   1.104   1.031  0.5223 -0.2271  0.0090
 6229SOL    HW120426   3.547   1.064   0.950  0.7486  1.0271 -0.7238
 6229SOL    HW220427   3.502   1.108   1.088  0.3852 -1.2112 -0.0904
 6230SOL     OW20428   1.118   7.608   8.098  0.3311  0.2301  0.1954
 6230SOL    HW120429   1.211   7.628   8.084  0.6911  0.3667  2.4078
 6230SOL    HW220430   1.116   7.514   8.113  0.2398  0.3437  0.9268
 6231SOL     OW20431   8.639   4.106   8.725  0.8997 -0.0483  1.0068
 6231SOL    HW120432   8.714   4.058   8.759  2.5937 -0.4638 -2.8841
 6231SOL    HW220433   8.672   4.195   8.709  0.3535 -0.0041  0.0419
 6232SOL     OW20434   6.196   9.100   8.443  0.4673  0.0363 -0.0663
 6232SOL    HW120435   6.178   9.145   8.361  0.7648 -1.7047 -1.1570
 6232SOL    HW220436   6.194   9.168   8.509  2.9361  2.0105 -1.8388
 6233SOL     OW20437   0.155   6.484   2.427  0.3012  0.2137  0.6327
 6233SOL    HW120438   0.141   6.562   2.481 -0.3031  0.2877  0.3726
 6233SOL    HW220439   0.068   6.447   2.414  0.6769 -1.0540  1.5430
 6234SOL     OW20440   5.729   0.081   8.465 -0.1619  0.4778  0.0005
 6234SOL    HW120441   5.780   0.029   8.527 -2.0892 -1.3425  0.1720
 6234SOL    HW220442   5.680   0.142   8.521 -0.6336 -0.0242  0.1448
 6235SOL     OW20443   0.880   1.019   6.932  0.2555 -0.1118  0.2428
 6235SOL    HW120444   0.859   1.072   7.008  0.1637 -2.0482  1.6447
 6235SOL    HW220445   0.795   0.986   6.901  0.3356  0.2996 -0.4538
 6236SOL     OW20446   0.021   2.149   0.177  0.1020  0.1222 -0.2072
 6236SOL    HW120447   0.074   2.108   0.245 -1.8107 -0.7803  0.8311
 6236SOL    HW220448   0.061   2.235   0.164  3.0769 -1.2502 -1.0454
 6237SOL     OW20449   8.446   6.438   3.748  0.3386 -0.6532 -0.0498
 6237SOL    HW120450   8.385   6.487   3.694  2.5092  0.7529 -1.3968
 6237SOL    HW220451   8.429   6.468   3.837 -1.0756 -0.5137 -0.3460
 6238SOL     OW20452   5.815   4.503   1.977  0.7119 -0.0504 -0.4183
 6238SOL    HW120453   5.904   4.521   2.008  1.0723 -0.1783 -1.3331
 6238SOL    HW220454   5.802   4.564   1.905 -0.1766  0.3759  0.0992
 6239SOL     OW20455   5.232   9.177   5.816 -0.1836 -0.0125  0.2723
 6239SOL    HW120456   5.295   9.208   5.751  1.1853 -3.2173 -0.0884
 6239SOL    HW220457   5.148   9.176   5.769  0.0290  1.4103 -0.1822
 6240SOL     OW20458   6.897   9.094   8.704  0.3047  0.1437 -0.0616
 6240SOL    HW120459   6.893   9.065   8.613  2.1662  0.6438 -0.3374
 6240SOL    HW220460   6.805   9.101   8.731 -0.3261  1.0408 -2.2234
 6241SOL     OW20461   1.988   3.832   9.553  0.3938  0.1790 -0.0725
 6241SOL    HW120462   1.999   3.871   9.467  1.7477  0.0060 -0.0095
 6241SOL    HW220463   2.000   3.905   9.614  0.6882  0.0891 -0.0163
 6242SOL     OW20464   7.537   6.131   0.808  0.1166  0.1833 -0.3452
 6242SOL    HW120465   7.492   6.215   0.798 -1.2301 -0.4240  0.3199
 6242SOL    HW220466   7.522   6.106   0.899  0.3150 -0.8747 -0.5871
 6243SOL     OW20467   8.566   2.505   6.258  0.2199 -0.9224 -0.3527
 6243SOL    HW120468   8.646   2.451   6.258  0.8254 -0.0587  0.9624
 6243SOL    HW220469   8.582   2.572   6.323 -1.8597 -1.0975  0.4090
 6244SOL     OW20470   1.047   2.382   1.630 -0.3309 -0.0677  0.0262
 6244SOL    HW120471   1.134   2.421   1.621 -0.6925  1.0501  1.0972
 6244SOL    HW220472   1.063   2.298   1.674  0.1299  0.5634  1.0840
 6245SOL     OW20473   5.271   1.323   9.443 -0.8528  0.3608 -0.0095
 6245SOL    HW120474   5.231   1.247   9.400  0.3658 -0.1956 -0.1982
 6245SOL    HW220475   5.288   1.385   9.373 -0.6952  0.2839 -0.0396
 6246SOL     OW20476   3.295   5.021   8.116 -0.4270 -0.6736  0.3515
 6246SOL    HW120477   3.387   5.046   8.106 -0.5699 -0.0856  0.4472
 6246SOL    HW220478   3.268   5.064   8.198 -1.3148  0.7694 -0.6627
 6247SOL     OW20479   9.310   6.511   5.115 -0.0593  0.5452 -0.3662
 6247SOL    HW120480   9.338   6.465   5.036 -0.0568 -2.7209  1.3512
 6247SOL    HW220481   9.226   6.550   5.091 -0.0146 -0.2702 -2.0052
 6248SOL     OW20482   2.726   3.260   1.648 -0.1206  0.6240  0.2052
 6248SOL    HW120483   2.701   3.195   1.582  0.5928 -1.2329  1.6658
 6248SOL    HW220484   2.662   3.331   1.637 -0.8122 -0.2074 -1.5914
 6249SOL     OW20485   0.774   7.811   4.625 -0.3995 -0.1260 -0.1334
 6249SOL    HW120486   0.725   7.811   4.707 -0.8247  1.7853 -0.3478
 6249SOL    HW220487   0.858   7.770   4.648  0.3259  2.2499  1.8330
 6250SOL     OW20488   7.374   9.028   0.913  0.1158  0.2579  0.9499
 6250SOL    HW120489   7.432   9.029   0.989 -0.2364  2.2600  1.2511
 6250SOL    HW220490   7.366   9.120   0.887  0.4668 -0.3738 -1.7353
 6251SOL     OW20491   0.840   7.439   5.074 -0.6260 -0.2192  0.3952
 6251SOL    HW120492   0.757   7.391   5.077 -1.2241  0.5969 -1.5691
 6251SOL    HW220493   0.865   7.438   4.982  1.5173 -0.3337  0.9274
 6252SOL     OW20494   3.815   8.269   4.148  0.1119 -0.4299 -0.3631
 6252SOL    HW120495   3.886   8.209   4.170  0.4398 -0.1708 -0.6755
 6252SOL    HW220496   3.760   8.272   4.226  1.3675  0.6650  0.5219
 6253SOL     OW20497   8.169   7.063   1.726  0.3679  0.4556 -0.4980
 6253SOL    HW120498   8.256   7.027   1.709  0.6572  1.5531 -1.4227
 6253SOL    HW220499   8.145   7.108   1.645 -1.3426 -0.3600 -0.4875
 6254SOL     OW20500   0.252   2.035   8.280 -0.1914 -0.1435  0.1618
 6254SOL    HW120501   0.203   2.002   8.355  0.3867  0.6122  0.8890
 6254SOL    HW220502   0.184   2.073   8.223 -0.4590  1.4092  1.4273
 6255SOL     OW20503   0.929   0.053   1.832  0.6584  0.0003 -0.0016
 6255SOL    HW120504   0.856   0.085   1.884  0.6026  1.1668 -0.7458
 6255SOL    HW220505   1.001   0.043   1.894  0.2669  0.2207  0.4898
 6256SOL     OW20506   5.458   8.386   0.327  0.3492  0.4590 -0.1057
 6256SOL    HW120507   5.456   8.346   0.414 -1.3282  0.5732 -0.0615
 6256SOL    HW220508   5.551   8.407   0.312  1.3853 -3.3323 -0.1053
 6257SOL     OW20509   7.684   3.071   6.581  0.4162 -0.2569  0.2819
 6257SOL    HW120510   7.612   3.008   6.585 -0.3156  0.5073 -0.3292
 6257SOL    HW220511   7.642   3.153   6.554  1.4419  0.3327  0.4290
 6258SOL     OW20512   4.494   6.715   3.197 -0.3118  0.1459 -0.3216
 6258SOL    HW120513   4.452   6.760   3.271 -0.6094 -1.4291  0.5355
 6258SOL    HW220514   4.577   6.759   3.186 -0.2952  0.4788  0.9347
 6259SOL     OW20515   2.148   7.124   8.649  0.1614 -0.1928  0.2678
 6259SOL    HW120516   2.142   7.206   8.699 -0.3340 -0.9644  1.5309
 6259SOL    HW220517   2.122   7.149   8.560 -0.9028  0.8578  0.8262
 6260SOL     OW20518   9.306   8.535   2.354 -0.2899  0.1680  0.4685
 6260SOL    HW120519   9.398   8.556   2.370 -0.4005  2.2279 -1.0935
 6260SOL    HW220520   9.269   8.522   2.441  1.6536 -1.8245  1.1078
 6261SOL     OW20521   3.493   1.796   4.303 -0.2596 -0.4365 -0.1967
 6261SOL    HW120522   3.415   1.741   4.314 -0.6863  0.1317 -0.2768
 6261SOL    HW220523   3.564   1.735   4.285 -0.7370 -0.9543 -0.3641
 6262SOL     OW20524   7.925   6.933   2.594  0.3994  0.0406  0.2330
 6262SOL    HW120525   7.936   7.013   2.543  1.1784  0.0624  0.4108
 6262SOL    HW220526   7.833   6.933   2.620  0.2184  0.4931 -0.3990
 6263SOL     OW20527   7.387   8.871   3.881  0.1853  0.2818 -0.3315
 6263SOL    HW120528   7.336   8.926   3.822 -0.5602 -0.3073 -0.2476
 6263SOL    HW220529   7.475   8.869   3.842  0.0926  1.1265 -0.5930
 6264SOL     OW20530   5.291   1.365   5.666 -0.3082 -0.0046  0.1066
 6264SOL    HW120531   5.292   1.322   5.751 -0.5909 -0.2262 -0.0013
 6264SOL    HW220532   5.252   1.451   5.683  1.3466  0.6905  0.5432
 6265SOL     OW20533   7.486   6.107   6.754  0.0427 -0.0049  0.4278
 6265SOL    HW120534   7.428   6.120   6.678 -1.2803  0.0344  1.4039
 6265SOL    HW220535   7.498   6.012   6.759 -0.8197 -0.0998  0.8376
 6266SOL     OW20536   8.773   6.740   4.095  0.0300 -0.0628  0.0151
 6266SOL    HW120537   8.820   6.824   4.097  0.0408  0.1802 -3.5088
 6266SOL    HW220538   8.840   6.675   4.111  0.2350  0.4894  1.6432
 6267SOL     OW20539   1.119   6.126   6.608  0.0948  0.1090  0.4570
 6267SOL    HW120540   1.124   6.095   6.699 -1.7263 -0.7610  0.2986
 6267SOL    HW220541   1.048   6.190   6.608  0.3891  0.4451 -0.2657
 6268SOL     OW20542   3.470   4.054   6.300  0.4337  0.3972 -0.2305
 6268SOL    HW120543   3.507   4.142   6.299  0.7012  0.3365  1.3850
 6268SOL    HW220544   3.535   4.000   6.255 -0.0921  1.1223 -1.9328
 6269SOL     OW20545   0.971   1.516   1.383  0.2079 -0.4859  0.1341
 6269SOL    HW120546   0.913   1.447   1.413 -0.2978  0.3954  1.2706
 6269SOL    HW220547   1.059   1.486   1.407  0.1037 -1.2008 -0.3474
 6270SOL     OW20548   4.963   7.845   9.014 -0.4694 -0.7008  0.0037
 6270SOL    HW120549   5.025   7.915   8.995  0.5200 -0.9154  2.1298
 6270SOL    HW220550   4.891   7.888   9.060  1.5846 -1.2904  4.2465
 6271SOL     OW20551   2.999   9.080   3.638 -0.2069  0.3593 -0.0339
 6271SOL    HW120552   3.079   9.131   3.621 -0.2871  0.2445 -0.8143
 6271SOL    HW220553   2.960   9.122   3.715  0.2449  0.8574 -0.0665
 6272SOL     OW20554   4.294   2.520   1.145  0.6424 -0.2713 -0.4930
 6272SOL    HW120555   4.298   2.555   1.234 -0.9449  0.2217 -0.5722
 6272SOL    HW220556   4.225   2.453   1.149 -2.6283  2.6346 -2.1598
 6273SOL     OW20557   1.379   1.450   2.218  0.1044 -0.0700  0.6401
 6273SOL    HW120558   1.396   1.444   2.123 -0.3078  2.2142  0.3733
 6273SOL    HW220559   1.325   1.528   2.228 -0.9096 -0.9630  2.6703
 6274SOL     OW20560   6.442   9.549   6.955  0.1846  0.2248  0.0662
 6274SOL    HW120561   6.466   9.620   7.016 -1.9793  2.5426 -1.5840
 6274SOL    HW220562   6.362   9.512   6.992  2.1749 -2.7095  1.8299
 6275SOL     OW20563   2.049   4.155   7.280  0.4034  0.2956 -0.1081
 6275SOL    HW120564   1.956   4.133   7.277  0.3866  0.0614  1.5145
 6275SOL    HW220565   2.078   4.125   7.365  2.1460 -0.2710 -0.8596
 6276SOL     OW20566   0.498   2.122   2.754  0.0309 -0.1263  0.4712
 6276SOL    HW120567   0.564   2.076   2.701  0.8264  0.2251  1.1371
 6276SOL    HW220568   0.457   2.183   2.693  1.7968  1.1681  0.5102
 6277SOL     OW20569   1.221   6.837   5.874  0.0472  0.1655 -0.2438
 6277SOL    HW120570   1.286   6.883   5.926  0.2627 -0.4067 -0.0019
 6277SOL    HW220571   1.141   6.838   5.927 -0.2862  1.2453 -0.7207
 6278SOL     OW20572   7.667   8.360   0.631  0.1662 -0.1170  0.2737
 6278SOL    HW120573   7.762   8.356   0.615 -0.2832 -1.0347 -3.0005
 6278SOL    HW220574   7.639   8.268   0.626 -0.9275  0.1329  1.3474
 6279SOL     OW20575   1.459   0.965   9.270  0.2617 -0.2444  0.1554
 6279SOL    HW120576   1.539   0.992   9.315  1.2080 -3.3421  0.5839
 6279SOL    HW220577   1.488   0.938   9.183  0.4593 -4.4150  1.2969
 6280SOL     OW20578   4.566   5.701   0.953 -0.0972  0.3172 -0.7919
 6280SOL    HW120579   4.646   5.733   0.995  2.0958 -1.1477 -3.4968
 6280SOL    HW220580   4.572   5.732   0.863 -1.5614 -1.4643 -1.5789
 6281SOL     OW20581   6.192   5.351   1.218  0.0218  0.5451 -0.4221
 6281SOL    HW120582   6.167   5.442   1.236  0.1447  0.3356  0.9491
 6281SOL    HW220583   6.113   5.312   1.182 -0.3523  0.9470 -0.0595
 6282SOL     OW20584   6.408   6.329   1.812  0.3251 -0.8059 -0.4896
 6282SOL    HW120585   6.496   6.300   1.839  1.0250  0.3506 -1.4399
 6282SOL    HW220586   6.418   6.423   1.796 -1.2979 -0.4911  0.1707
 6283SOL     OW20587   7.269   4.130   1.704 -0.1552  0.2768 -0.1912
 6283SOL    HW120588   7.281   4.071   1.629 -0.0836 -1.3396  1.0188
 6283SOL    HW220589   7.351   4.178   1.711  0.3138 -0.4817 -0.3998
 6284SOL     OW20590   8.931   4.085   1.929 -0.1870  0.5662 -0.0330
 6284SOL    HW120591   8.915   4.041   2.013  1.8121 -0.9665 -0.3820
 6284SOL    HW220592   9.015   4.129   1.940  1.7029 -2.1734 -2.0534
 6285SOL     OW20593   4.604   5.498   7.108 -0.4263  0.0715 -0.1636
 6285SOL    HW120594   4.631   5.456   7.190 -1.2504 -3.5791 -1.5664
 6285SOL    HW220595   4.662   5.461   7.042 -2.4148 -0.3465 -1.7913
 6286SOL     OW20596   5.973   5.629   2.706 -0.2868  0.2875 -0.3538
 6286SOL    HW120597   5.991   5.664   2.794 -2.2307  0.4925  0.0108
 6286SOL    HW220598   5.993   5.702   2.647  0.0660  0.4856  0.0030
 6287SOL     OW20599   6.720   3.457   6.158  0.2424 -0.3029  0.0998
 6287SOL    HW120600   6.699   3.415   6.241 -0.6923 -0.8497 -0.3974
 6287SOL    HW220601   6.648   3.433   6.099  0.4488  0.7604 -0.6315
 6288SOL     OW20602   1.382   9.574   7.256  0.4190  0.1163  0.3956
 6288SOL    HW120603   1.314   9.523   7.211  0.2503  0.1799  0.5778
 6288SOL    HW220604   1.393   9.651   7.201  1.6956 -0.7701 -0.6681
 6289SOL     OW20605   4.281   8.750   6.492  0.5331  0.3015 -0.2497
 6289SOL    HW120606   4.309   8.785   6.407  2.4863 -0.6952 -0.0727
 6289SOL    HW220607   4.354   8.696   6.521 -0.7335 -0.6493  1.3587
 6290SOL     OW20608   0.221   5.327   1.214 -0.5440  0.5611  0.0783
 6290SOL    HW120609   0.155   5.262   1.238  2.5912 -2.8133  0.4104
 6290SOL    HW220610   0.254   5.360   1.298 -0.3470  0.6626 -0.0390
 6291SOL     OW20611   6.737   3.247   7.405 -0.3351 -0.6727 -0.7901
 6291SOL    HW120612   6.673   3.270   7.471  0.4974 -1.4020  0.2996
 6291SOL    HW220613   6.799   3.189   7.449  0.5289 -0.7839 -2.0651
 6292SOL     OW20614   5.506   9.034   8.481  0.5544 -0.2106  0.6114
 6292SOL    HW120615   5.534   9.078   8.401  0.0007 -0.1816  0.4294
 6292SOL    HW220616   5.451   9.098   8.526  0.5984 -0.3426  0.8546
 6293SOL     OW20617   2.801   8.940   2.358 -0.6829 -1.0365  0.2259
 6293SOL    HW120618   2.817   9.034   2.368  0.0795 -1.1515  0.1533
 6293SOL    HW220619   2.726   8.934   2.298  1.5182 -0.4934 -2.8187
 6294SOL     OW20620   7.735   2.089   5.801 -0.3046 -0.1534  0.0664
 6294SOL    HW120621   7.726   1.997   5.824  0.4978 -0.1909  0.2575
 6294SOL    HW220622   7.829   2.102   5.790 -0.2785  0.9346  1.2988
 6295SOL     OW20623   9.341   6.087   3.374  0.2989 -0.2024  0.3244
 6295SOL    HW120624   9.336   6.182   3.377 -0.8815 -0.2529  0.6810
 6295SOL    HW220625   9.422   6.065   3.420  0.4936  0.6254  0.3849
 6296SOL     OW20626   8.907   8.403   8.965  0.0304  0.0381  0.3855
 6296SOL    HW120627   8.822   8.368   8.993  1.0276 -2.5752  0.4177
 6296SOL    HW220628   8.965   8.388   9.039  1.3655 -1.7061 -0.9381
 6297SOL     OW20629   0.503   6.278   2.674  0.1861 -0.2882  0.1540
 6297SOL    HW120630   0.453   6.309   2.598  1.4112  0.5421 -0.3595
 6297SOL    HW220631   0.571   6.344   2.686 -0.1565 -0.2436  2.1933
 6298SOL     OW20632   7.809   1.951   4.491 -0.1522 -0.3954 -0.1838
 6298SOL    HW120633   7.863   1.945   4.413 -1.7918 -1.6822 -1.2671
 6298SOL    HW220634   7.870   1.981   4.559  2.0446 -2.2085 -1.2031
 6299SOL     OW20635   4.393   8.055   9.477  0.4717 -0.0661  0.3600
 6299SOL    HW120636   4.470   7.998   9.476  1.2866  0.9620 -1.6297
 6299SOL    HW220637   4.321   7.999   9.506  0.8851 -2.6705 -2.9999
 6300SOL     OW20638   7.335   9.554   6.328  0.0773  0.2478 -0.5925
 6300SOL    HW120639   7.396   9.562   6.402  1.5403 -2.9992 -1.3152
 6300SOL    HW220640   7.249   9.557   6.369  0.8425 -1.2766  1.2808
 6301SOL     OW20641   2.440   9.026   9.532  0.8998  0.5583  0.0138
 6301SOL    HW120642   2.458   9.043   9.439  1.3100 -1.3266 -0.2876
 6301SOL    HW220643   2.386   8.947   9.532 -0.0937  1.1935  1.3475
 6302SOL     OW20644   5.635   7.612   7.175 -0.0806  0.7262  0.1036
 6302SOL    HW120645   5.548   7.576   7.191 -0.0498 -0.6445 -2.3032
 6302SOL    HW220646   5.622   7.682   7.111  0.5590  0.6484 -0.1276
 6303SOL     OW20647   2.804   4.129   4.211  0.2358 -0.0260  0.0120
 6303SOL    HW120648   2.851   4.105   4.292 -0.5440 -0.3998  0.3571
 6303SOL    HW220649   2.826   4.059   4.150  2.1820  1.0913 -0.6757
 6304SOL     OW20650   0.738   5.650   8.375  0.2505  0.2754  0.3628
 6304SOL    HW120651   0.828   5.680   8.385  0.2025  0.1680  1.2128
 6304SOL    HW220652   0.704   5.698   8.300  1.2818 -0.3211 -0.5108
 6305SOL     OW20653   0.438   8.632   9.192  0.5206  0.3362 -0.1044
 6305SOL    HW120654   0.364   8.586   9.151  0.7173 -1.4035  1.3556
 6305SOL    HW220655   0.397   8.698   9.248  0.1897  1.1631 -1.2866
 6306SOL     OW20656   5.689   2.742   4.440 -0.5113  0.2335  0.5004
 6306SOL    HW120657   5.594   2.733   4.439 -0.4472 -2.6066  3.7328
 6306SOL    HW220658   5.721   2.662   4.399  0.6519  1.8560 -2.0365
 6307SOL     OW20659   6.101   8.084   3.371  0.2100 -0.0517  0.2446
 6307SOL    HW120660   6.048   8.129   3.305  1.0384  0.7111  0.0731
 6307SOL    HW220661   6.058   8.103   3.454  0.1335  0.4536  0.0946
 6308SOL     OW20662   0.545   5.076   8.326 -0.2011  0.0356 -0.1431
 6308SOL    HW120663   0.532   5.076   8.421  0.7648 -0.3453 -0.0023
 6308SOL    HW220664   0.503   5.156   8.296 -0.0584  0.4285  0.6723
 6309SOL     OW20665   7.403   0.173   9.542  0.6867 -0.7473  0.1669
 6309SOL    HW120666   7.455   0.244   9.505  0.1964 -0.8097 -0.6701
 6309SOL    HW220667   7.331   0.161   9.479 -1.7071  0.8948  2.3665
 6310SOL     OW20668   8.412   7.697   0.833 -0.0175 -0.1948 -0.3521
 6310SOL    HW120669   8.452   7.612   0.854  0.8275  0.2551 -0.0970
 6310SOL    HW220670   8.477   7.741   0.778 -0.2338  0.4910 -0.0633
 6311SOL     OW20671   3.335   2.001   6.219  0.6266 -0.3505  0.2852
 6311SOL    HW120672   3.389   1.953   6.156  1.4946 -0.6055  1.1819
 6311SOL    HW220673   3.299   1.934   6.276  0.7024 -0.0537  0.6915
 6312SOL     OW20674   2.944   0.588   9.248 -0.0713  0.2667  0.2531
 6312SOL    HW120675   2.954   0.573   9.342  0.4733  0.0177  0.1613
 6312SOL    HW220676   2.892   0.514   9.217  1.8171 -1.0063 -0.0412
 6313SOL     OW20677   4.855   1.207   0.683 -0.3095  0.2852 -0.2093
 6313SOL    HW120678   4.833   1.254   0.764  1.1528 -0.6897  0.8067
 6313SOL    HW220679   4.881   1.276   0.622  1.2536  0.9117  1.0683
 6314SOL     OW20680   5.093   1.446   6.865 -0.4798 -0.2746  0.5144
 6314SOL    HW120681   5.103   1.358   6.902 -0.6109  0.4035  2.2619
 6314SOL    HW220682   5.180   1.470   6.836 -0.1257 -0.4379  1.3925
 6315SOL     OW20683   7.514   2.722   5.416 -0.0496 -0.3726 -0.1054
 6315SOL    HW120684   7.604   2.695   5.397 -0.2773 -0.9085 -0.4660
 6315SOL    HW220685   7.462   2.642   5.405 -0.5362 -0.1299  0.3657
 6316SOL     OW20686   0.564   8.890   7.398  0.1628 -0.4922 -0.7734
 6316SOL    HW120687   0.567   8.986   7.397  1.4785 -0.4963 -2.5611
 6316SOL    HW220688   0.539   8.865   7.309  0.4955 -1.8187 -0.5217
 6317SOL     OW20689   3.544   7.684   3.445  0.0713  0.3036  0.0842
 6317SOL    HW120690   3.517   7.707   3.356 -2.1191 -0.6348  0.4374
 6317SOL    HW220691   3.483   7.614   3.470  1.2474 -0.0860  1.9876
 6318SOL     OW20692   6.648   0.032   6.344  0.5620 -0.8635  0.2209
 6318SOL    HW120693   6.630  -0.062   6.349 -0.9855 -0.5925  0.2640
 6318SOL    HW220694   6.613   0.067   6.426 -0.1635 -0.0815 -0.3994
 6319SOL     OW20695   5.453   8.462   4.743 -0.0873  0.6287 -0.8929
 6319SOL    HW120696   5.460   8.429   4.833  1.0718  2.7165 -0.1625
 6319SOL    HW220697   5.478   8.387   4.689  0.1173 -0.4003  0.5486
 6320SOL     OW20698   8.327   3.239   0.073 -0.2266  0.3753 -0.7234
 6320SOL    HW120699   8.391   3.184   0.119 -0.7464  0.1608 -0.2402
 6320SOL    HW220700   8.361   3.328   0.083 -0.0181  0.2680 -0.4348
 6321SOL     OW20701   1.281   8.475   4.848 -0.0624 -0.0945  0.0648
 6321SOL    HW120702   1.339   8.407   4.881 -0.8836  0.0386  1.9482
 6321SOL    HW220703   1.250   8.442   4.764  1.9421 -0.5909 -0.5248
 6322SOL     OW20704   4.054   4.927   5.480 -0.4656  0.1554  0.0406
 6322SOL    HW120705   4.035   4.922   5.574 -0.5051  0.6821  0.0652
 6322SOL    HW220706   4.010   4.851   5.443  2.1388 -1.8606  0.8374
 6323SOL     OW20707   0.851   8.452   6.948 -0.4334  0.6664 -0.1948
 6323SOL    HW120708   0.887   8.459   7.037 -0.8925  1.1691 -0.0423
 6323SOL    HW220709   0.909   8.506   6.894  0.1170 -0.0119 -0.2870
 6324SOL     OW20710   1.465   3.352   6.901  0.4057 -0.0884 -0.3800
 6324SOL    HW120711   1.383   3.330   6.857  0.8826 -3.9792  0.2694
 6324SOL    HW220712   1.519   3.393   6.833 -0.8153 -0.8399 -1.8609
 6325SOL     OW20713   8.574   4.838   5.741  0.1854 -0.1231  0.0280
 6325SOL    HW120714   8.546   4.757   5.784 -1.0047 -0.0705 -0.5727
 6325SOL    HW220715   8.669   4.833   5.737  0.2721 -0.4903  1.9100
 6326SOL     OW20716   1.277   7.875   4.158 -0.3130 -0.2199 -0.0964
 6326SOL    HW120717   1.199   7.926   4.178  0.0544  0.2005  0.2789
 6326SOL    HW220718   1.348   7.920   4.203  0.2639 -0.2078 -0.9993
 6327SOL     OW20719   8.577   1.064   1.552 -0.0380 -0.3234  0.3214
 6327SOL    HW120720   8.623   1.145   1.576  1.1514 -1.4671  2.2433
 6327SOL    HW220721   8.640   1.015   1.499  1.0344 -1.7951  2.7676
 6328SOL     OW20722   5.886   6.419   1.472  0.1658 -0.2508 -0.1117
 6328SOL    HW120723   5.839   6.422   1.556  1.1791  0.7464  0.4374
 6328SOL    HW220724   5.863   6.501   1.429  0.5453 -0.2522 -0.3206
 6329SOL     OW20725   6.358   8.740   8.794  0.1571  0.3143 -0.2313
 6329SOL    HW120726   6.299   8.666   8.788 -0.2725  0.6234  0.1538
 6329SOL    HW220727   6.301   8.816   8.808  0.4774  0.9210 -1.9072
 6330SOL     OW20728   7.488   6.470   4.838 -0.3082 -0.3076 -0.4118
 6330SOL    HW120729   7.526   6.551   4.871 -0.7871 -0.2848  0.0982
 6330SOL    HW220730   7.527   6.402   4.893 -2.4624 -0.1205  1.4782
 6331SOL     OW20731   7.277   1.600   7.389  0.6354  0.2441 -0.0429
 6331SOL    HW120732   7.182   1.601   7.373  0.3270 -2.2175  1.2522
 6331SOL    HW220733   7.311   1.540   7.323  1.1573  0.3799  0.1029
 6332SOL     OW20734   8.498   6.965   9.547  0.9385  0.0969  0.1783
 6332SOL    HW120735   8.568   7.017   9.507  0.7638  0.0248 -0.2240
 6332SOL    HW220736   8.451   7.026   9.603  2.5832 -0.2987  2.0910
 6333SOL     OW20737   6.272   6.440   7.422 -0.4861 -0.3002 -0.1862
 6333SOL    HW120738   6.359   6.404   7.441 -0.1364  0.6077  0.0101
 6333SOL    HW220739   6.215   6.402   7.489 -0.0614 -0.2402  0.2157
 6334SOL     OW20740   6.144   5.386   5.870  0.2684  0.2193 -0.1149
 6334SOL    HW120741   6.170   5.297   5.844  0.2577 -0.2909  1.4912
 6334SOL    HW220742   6.048   5.383   5.870  0.2693 -0.0005  0.6271
 6335SOL     OW20743   4.360   7.921   5.803 -0.1663 -0.4420  0.1423
 6335SOL    HW120744   4.435   7.956   5.755 -2.4567  1.9776 -2.0660
 6335SOL    HW220745   4.367   7.961   5.890  0.8613  0.1470 -0.1898
 6336SOL     OW20746   9.312   2.261   5.743 -0.2618  0.4123 -0.2868
 6336SOL    HW120747   9.327   2.322   5.815  1.4725  2.1760 -1.9820
 6336SOL    HW220748   9.226   2.285   5.708 -1.6115 -1.1767  1.7569
 6337SOL     OW20749   7.514   6.426   3.208 -0.0123 -0.2729 -0.0540
 6337SOL    HW120750   7.516   6.330   3.202  0.2592 -0.3091  0.5888
 6337SOL    HW220751   7.473   6.453   3.126 -0.0497 -0.9371 -0.2670
 6338SOL     OW20752   2.981   2.590   5.377 -0.3624  0.0858  0.0157
 6338SOL    HW120753   2.985   2.609   5.283 -1.4418 -0.5196 -0.1726
 6338SOL    HW220754   3.068   2.555   5.399  0.0266  0.6198 -0.6667
 6339SOL     OW20755   2.349   5.976   8.442  0.0938 -0.1096  0.3766
 6339SOL    HW120756   2.378   6.064   8.420  2.0018 -0.7017  0.3364
 6339SOL    HW220757   2.390   5.957   8.526 -1.5792 -0.3965  1.1653
 6340SOL     OW20758   0.306   3.164   6.438  0.2854  0.3958 -0.1876
 6340SOL    HW120759   0.236   3.119   6.390 -0.3367  2.5209 -1.4304
 6340SOL    HW220760   0.386   3.117   6.415 -0.5926 -1.5326  0.5350
 6341SOL     OW20761   3.160   4.231   9.487 -0.3817 -0.7062 -0.4145
 6341SOL    HW120762   3.168   4.184   9.404 -0.6759  1.0150 -1.4655
 6341SOL    HW220763   3.155   4.324   9.462  0.1351 -0.0883  1.5604
 6342SOL     OW20764   7.402   3.376   8.436 -0.1542 -0.4875 -0.1581
 6342SOL    HW120765   7.418   3.287   8.403  0.5946 -0.2065 -0.5941
 6342SOL    HW220766   7.471   3.389   8.501  0.4413  0.1710 -0.9005
 6343SOL     OW20767   5.891   3.883   1.658 -0.1324 -0.5608  0.0898
 6343SOL    HW120768   5.882   3.823   1.732  0.5942  0.3075  0.9192
 6343SOL    HW220769   5.970   3.934   1.679  1.6937 -2.0669 -2.5486
 6344SOL     OW20770   5.313   3.483   6.821 -0.1479 -0.1616  0.0655
 6344SOL    HW120771   5.396   3.448   6.854 -0.7866 -1.4010  0.3888
 6344SOL    HW220772   5.247   3.454   6.885 -1.0854 -0.7129 -1.1110
 6345SOL     OW20773   6.847   1.045   7.651 -0.0475  0.4100  0.0230
 6345SOL    HW120774   6.776   1.080   7.597  0.0626  1.0361  0.2763
 6345SOL    HW220775   6.829   1.078   7.739 -1.2033 -2.0188  0.7841
 6346SOL     OW20776   3.077   7.980   1.051 -0.4568 -0.6778 -0.5010
 6346SOL    HW120777   2.999   7.999   1.103  0.4532  0.1812  0.5976
 6346SOL    HW220778   3.070   8.039   0.976  0.2363  1.0952  0.7510
 6347SOL     OW20779   2.912   4.514   6.439 -0.1946 -0.5804  0.0788
 6347SOL    HW120780   2.848   4.575   6.403 -0.3578 -0.2698  0.8677
 6347SOL    HW220781   2.859   4.451   6.489 -0.0844 -1.7008 -1.1487
 6348SOL     OW20782   7.754   5.454   7.386 -0.1362  0.7010 -0.3231
 6348SOL    HW120783   7.675   5.453   7.332 -0.2473  0.5602 -0.1597
 6348SOL    HW220784   7.771   5.361   7.404  0.4770  0.6761 -0.9541
 6349SOL     OW20785   7.239   8.659   0.587  0.1100 -1.3391 -0.5668
 6349SOL    HW120786   7.315   8.623   0.540  0.6106 -1.5260  0.3439
 6349SOL    HW220787   7.254   8.633   0.678 -1.7189 -2.5265 -0.5532
 6350SOL     OW20788   4.364   1.930   5.656  0.0420 -0.4365 -0.0568
 6350SOL    HW120789   4.408   1.964   5.735  2.7751  0.3672 -1.7932
 6350SOL    HW220790   4.275   1.965   5.662  0.4231  0.3488  2.2230
 6351SOL     OW20791   5.086   2.311   9.496 -0.4583  0.5173  0.9790
 6351SOL    HW120792   5.146   2.251   9.540  2.4294  1.7270 -1.0030
 6351SOL    HW220793   5.105   2.396   9.534  0.9331  1.3040 -1.2957
 6352SOL     OW20794   8.701   1.045   8.071  0.5658 -0.1262  0.0081
 6352SOL    HW120795   8.764   1.115   8.054 -0.4643  0.6296 -0.7807
 6352SOL    HW220796   8.667   1.064   8.159 -1.2412  1.6191 -1.0032
 6353SOL     OW20797   1.651   1.549   5.560  0.0136 -0.1795  0.1494
 6353SOL    HW120798   1.663   1.564   5.466  0.3584 -2.4396 -0.2120
 6353SOL    HW220799   1.574   1.493   5.566  0.6195 -0.9383  1.1239
 6354SOL     OW20800   1.070   1.785   8.433 -0.1089 -0.7201 -0.0444
 6354SOL    HW120801   1.048   1.763   8.524 -0.8696 -0.6741 -0.2092
 6354SOL    HW220802   1.165   1.776   8.429  0.4639  2.6672  1.6854
 6355SOL     OW20803   7.220   0.764   6.375  0.7279  0.0965  0.4960
 6355SOL    HW120804   7.170   0.697   6.327 -0.0741  0.9874  0.0560
 6355SOL    HW220805   7.310   0.754   6.343  0.6303 -0.7805  0.4571
 6356SOL     OW20806   6.231   2.576   5.887 -0.3905  0.4247 -0.0055
 6356SOL    HW120807   6.240   2.665   5.920  0.5583  0.1877  0.4223
 6356SOL    HW220808   6.320   2.548   5.867 -0.7282 -0.2415 -0.6493
 6357SOL     OW20809   3.680   8.933   8.476  0.2162 -0.2235 -0.0369
 6357SOL    HW120810   3.638   8.985   8.407 -0.3198  0.1179  0.5385
 6357SOL    HW220811   3.615   8.867   8.499  0.6122 -0.6954 -0.2410
 6358SOL     OW20812   4.259   6.556   6.716 -0.1491  0.7406  0.3917
 6358SOL    HW120813   4.317   6.630   6.695 -0.2084  0.5819 -0.3597
 6358SOL    HW220814   4.182   6.570   6.661 -0.1950  0.1551  0.3068
 6359SOL     OW20815   6.529   4.682   1.085 -0.5603  0.1680 -0.0323
 6359SOL    HW120816   6.546   4.653   0.995 -1.2832  1.4868 -0.6228
 6359SOL    HW220817   6.612   4.720   1.114  0.3841 -2.2808  0.7296
 6360SOL     OW20818   5.362   8.188   2.255 -0.0497  0.3923 -0.0439
 6360SOL    HW120819   5.444   8.226   2.286  2.5880 -2.5960 -2.5426
 6360SOL    HW220820   5.354   8.106   2.304 -1.0426  0.2466 -0.4298
 6361SOL     OW20821   4.262   5.980   8.631 -0.0802  0.1564 -0.0043
 6361SOL    HW120822   4.348   5.998   8.670  0.2827  0.2111 -0.8168
 6361SOL    HW220823   4.278   5.978   8.537 -0.6041 -1.8109 -0.0861
 6362SOL     OW20824   1.857   1.876   9.535  0.2757 -0.1428  0.2863
 6362SOL    HW120825   1.943   1.839   9.513 -0.2907 -0.2401 -1.9633
 6362SOL    HW220826   1.798   1.800   9.535 -0.2115  0.2294 -0.5168
 6363SOL     OW20827   7.332   8.403   6.190  0.5773  0.0106 -0.1334
 6363SOL    HW120828   7.425   8.421   6.178  0.4054  0.1148 -1.3841
 6363SOL    HW220829   7.310   8.340   6.121 -0.3879  0.3709 -0.1672
 6364SOL     OW20830   5.522   9.434   1.247  0.9530  0.3646 -0.2274
 6364SOL    HW120831   5.587   9.392   1.189 -0.0612  0.2665 -1.3324
 6364SOL    HW220832   5.569   9.508   1.285  1.8050  0.1383 -0.7996
 6365SOL     OW20833   6.422   6.975   2.807 -0.4656 -0.1192 -0.0315
 6365SOL    HW120834   6.419   7.064   2.840 -0.2343 -0.5603  1.2244
 6365SOL    HW220835   6.330   6.949   2.800 -0.5058 -0.1791  0.7167
 6366SOL     OW20836   7.974   4.963   1.585  0.3256  0.0332  0.7563
 6366SOL    HW120837   8.024   5.039   1.615  2.7081 -0.0247 -2.5536
 6366SOL    HW220838   7.909   5.000   1.524 -0.2055 -0.3916  1.0535
 6367SOL     OW20839   0.849   4.852   1.240  0.4082 -0.2865  0.4248
 6367SOL    HW120840   0.813   4.911   1.174  1.1340 -1.4350 -1.0737
 6367SOL    HW220841   0.861   4.769   1.193  0.2609 -1.3594  2.2146
 6368SOL     OW20842   2.926   4.357   5.294  0.0028  0.2243  0.3454
 6368SOL    HW120843   2.830   4.362   5.301 -0.2742 -0.6852 -1.8557
 6368SOL    HW220844   2.954   4.319   5.377 -1.5484  0.4393  1.0107
 6369SOL     OW20845   8.351   7.412   2.756  0.0806 -0.3585 -0.1386
 6369SOL    HW120846   8.373   7.365   2.676 -0.9932 -0.7539 -0.2123
 6369SOL    HW220847   8.415   7.380   2.820  1.0069  0.0336 -0.8431
 6370SOL     OW20848   1.808   3.555   2.821 -0.2170  0.1474 -0.2723
 6370SOL    HW120849   1.762   3.472   2.807  1.5650 -0.9836  0.2300
 6370SOL    HW220850   1.852   3.543   2.905  0.0026  1.6518 -0.1576
 6371SOL     OW20851   7.406   8.647   4.052 -0.1085  0.1083 -0.0402
 6371SOL    HW120852   7.409   8.727   4.000  1.5628 -0.2211 -0.4957
 6371SOL    HW220853   7.340   8.593   4.009  1.0457 -0.0522 -1.6991
 6372SOL     OW20854   5.043   2.285   2.128  0.2603 -0.7316  0.5705
 6372SOL    HW120855   5.124   2.266   2.176  1.1628  0.5131 -0.4057
 6372SOL    HW220856   5.011   2.367   2.166  1.5996  0.8973 -1.6076
 6373SOL     OW20857   4.066   1.129   8.214 -0.1034 -0.3198  0.2641
 6373SOL    HW120858   3.970   1.132   8.214 -0.1909 -2.3128 -0.1993
 6373SOL    HW220859   4.092   1.218   8.239 -2.0423  0.6454 -0.9160
 6374SOL     OW20860   4.615   1.114   2.181 -0.6568 -0.1407 -0.2301
 6374SOL    HW120861   4.701   1.150   2.159  0.8298 -2.3631  1.6016
 6374SOL    HW220862   4.622   1.085   2.271 -2.5377 -2.6031 -0.7504
 6375SOL     OW20863   3.563   6.079   3.205  0.2830  1.1907 -0.1217
 6375SOL    HW120864   3.601   5.991   3.207  1.9553  1.8747  0.1057
 6375SOL    HW220865   3.530   6.088   3.115 -0.7407  0.0320  0.1046
 6376SOL     OW20866   5.103   6.805   0.626 -0.0778  0.3255  0.4309
 6376SOL    HW120867   5.029   6.850   0.585 -0.7503 -1.1541 -0.0303
 6376SOL    HW220868   5.112   6.724   0.577  1.4410  0.1702  0.9208
 6377SOL     OW20869   9.471   1.946   4.195 -0.5416  0.3528 -0.5862
 6377SOL    HW120870   9.403   1.984   4.251  0.4507  0.6003  0.4865
 6377SOL    HW220871   9.537   1.915   4.256  0.6292  0.7103 -1.6374
 6378SOL     OW20872   4.403   0.074   4.030 -0.4288  0.1693  0.0873
 6378SOL    HW120873   4.356   0.128   4.094  1.0032  0.9039  0.5600
 6378SOL    HW220874   4.429   0.135   3.961  1.9892  0.3570  1.0601
 6379SOL     OW20875   7.509   2.851   4.491 -0.7153 -0.3038 -0.0816
 6379SOL    HW120876   7.550   2.772   4.528 -0.1975  1.3338  3.3059
 6379SOL    HW220877   7.581   2.897   4.448 -0.1249  0.0238  1.1965
 6380SOL     OW20878   1.431   7.612   9.430 -0.3502  0.7279 -0.2948
 6380SOL    HW120879   1.513   7.565   9.447 -0.7594 -0.1734 -0.7308
 6380SOL    HW220880   1.385   7.611   9.514  0.4397  1.9973  0.1838
 6381SOL     OW20881   8.937   7.264   5.388  0.2701 -0.8382  0.7387
 6381SOL    HW120882   8.893   7.349   5.377  3.0104  0.8096  1.4371
 6381SOL    HW220883   9.000   7.261   5.315  1.5419 -1.3251  1.8328
 6382SOL     OW20884   2.696   4.609   3.795 -0.1428  0.3942  0.4706
 6382SOL    HW120885   2.745   4.627   3.875  0.1804  1.2283  0.0952
 6382SOL    HW220886   2.714   4.684   3.738 -1.5662  0.5539  0.1850
 6383SOL     OW20887   7.224   5.085   3.544 -0.6618 -1.0483 -0.0808
 6383SOL    HW120888   7.193   5.128   3.624 -0.0252 -0.1125 -0.3279
 6383SOL    HW220889   7.200   5.145   3.474 -0.2134 -1.3427 -0.4854
 6384SOL     OW20890   4.043   1.817   5.665 -0.3792 -0.7858  0.2491
 6384SOL    HW120891   4.062   1.727   5.693  1.6478 -0.9674 -1.4389
 6384SOL    HW220892   4.074   1.872   5.736 -2.2128 -1.3728  1.5877
 6385SOL     OW20893   2.148   9.166   5.077  0.8373  0.0414 -0.1401
 6385SOL    HW120894   2.227   9.122   5.109  0.1213  0.4725  2.5187
 6385SOL    HW220895   2.152   9.254   5.116  0.2132  0.9404 -1.9798
 6386SOL     OW20896   5.133   6.096   2.011  0.2899 -0.6472 -0.1363
 6386SOL    HW120897   5.215   6.138   2.035 -0.3653 -0.1493  1.3524
 6386SOL    HW220898   5.074   6.168   1.989 -0.2075 -0.8968  0.3529
 6387SOL     OW20899   5.312   4.416   3.850 -0.3161  0.0780  0.5422
 6387SOL    HW120900   5.353   4.435   3.935  0.4572  1.6752 -0.1635
 6387SOL    HW220901   5.289   4.323   3.856 -1.2833  0.3844  2.9073
 6388SOL     OW20902   3.410   3.550   7.348  0.0313  0.0545 -0.5572
 6388SOL    HW120903   3.366   3.634   7.337 -1.1105 -0.2095  1.4921
 6388SOL    HW220904   3.339   3.487   7.363  0.9550 -0.9610 -0.2885
 6389SOL     OW20905   5.329   5.543   2.413 -0.0983 -0.3844  0.2685
 6389SOL    HW120906   5.366   5.481   2.350 -0.4720 -0.6191  0.2774
 6389SOL    HW220907   5.237   5.551   2.387 -0.2021 -0.3190  0.6542
 6390SOL     OW20908   9.350   2.843   0.949 -0.0798 -0.2746  0.4502
 6390SOL    HW120909   9.314   2.896   0.878 -0.6477 -1.0327  0.1558
 6390SOL    HW220910   9.432   2.885   0.972  0.4425 -0.4084 -1.1225
 6391SOL     OW20911   5.095   3.632   3.409 -0.8016 -0.1478 -0.2065
 6391SOL    HW120912   5.064   3.541   3.402 -3.2260  0.6008 -0.2691
 6391SOL    HW220913   5.081   3.668   3.322  0.2909  0.2606 -0.2183
 6392SOL     OW20914   7.460   0.563   2.355  0.1988 -0.0996 -0.1241
 6392SOL    HW120915   7.510   0.490   2.391  2.4249  0.9126 -0.9835
 6392SOL    HW220916   7.482   0.637   2.412 -0.6337  0.3119 -0.3223
 6393SOL     OW20917   7.312   7.341   8.443  0.5402  0.1012 -0.3745
 6393SOL    HW120918   7.245   7.315   8.506  0.7260 -0.1952 -0.2988
 6393SOL    HW220919   7.275   7.418   8.400  0.9417  1.0711  0.9665
 6394SOL     OW20920   2.645   2.687   2.325 -0.2979  0.0848  0.0040
 6394SOL    HW120921   2.609   2.689   2.413  0.5254 -1.5741  0.4138
 6394SOL    HW220922   2.568   2.690   2.268 -0.8923  0.2407  0.7982
 6395SOL     OW20923   8.305   6.859   8.053  0.0400 -0.3115  0.5181
 6395SOL    HW120924   8.260   6.813   7.982 -1.5227  0.5777  0.8982
 6395SOL    HW220925   8.276   6.814   8.132 -0.4429  0.4743  0.7918
 6396SOL     OW20926   1.614   3.302   0.500  0.2350 -0.1865 -0.3327
 6396SOL    HW120927   1.555   3.295   0.425 -0.2677 -1.9818  0.1871
 6396SOL    HW220928   1.614   3.215   0.540  1.4357  0.3918  1.0526
 6397SOL     OW20929   5.096   5.891   8.694  0.1442 -0.6002  0.1840
 6397SOL    HW120930   5.055   5.940   8.766 -0.5805  0.1402 -0.7071
 6397SOL    HW220931   5.091   5.800   8.721 -1.0749 -0.4202  0.6039
 6398SOL     OW20932   1.534   6.829   0.494 -0.4413  0.4712 -0.3212
 6398SOL    HW120933   1.516   6.915   0.532 -0.2220  0.7993 -0.9568
 6398SOL    HW220934   1.616   6.840   0.448 -0.4370 -0.0733 -0.4441
 6399SOL     OW20935   6.323   1.280   2.096 -0.4887 -0.1658 -0.4651
 6399SOL    HW120936   6.298   1.369   2.069 -1.7773 -0.4474 -0.2804
 6399SOL    HW220937   6.277   1.267   2.179 -0.2827 -1.0045 -0.4755
 6400SOL     OW20938   8.215   6.120   7.279  0.5268 -0.3436 -0.0616
 6400SOL    HW120939   8.193   6.205   7.316 -0.3011  0.4306 -2.1472
 6400SOL    HW220940   8.131   6.086   7.247  1.1231 -1.1307 -0.8257
 6401SOL     OW20941   0.131   0.724   4.555 -0.3368  0.1541 -0.0649
 6401SOL    HW120942   0.219   0.692   4.534 -0.4349 -0.7570  0.8220
 6401SOL    HW220943   0.104   0.672   4.631 -1.4053  0.8403  0.0493
 6402SOL     OW20944   3.105   6.441   5.417 -0.3371  0.5254  0.2990
 6402SOL    HW120945   3.147   6.401   5.493 -1.3923 -0.7441  0.2430
 6402SOL    HW220946   3.063   6.520   5.452  0.1203  0.5594  0.7935
 6403SOL     OW20947   2.101   2.919   1.688 -0.4348 -1.1207  0.2424
 6403SOL    HW120948   2.117   2.825   1.695 -2.3294 -1.6842 -1.7990
 6403SOL    HW220949   2.043   2.938   1.762 -2.0002 -2.1237 -0.6683
 6404SOL     OW20950   5.463   8.861   7.986 -0.2994  0.1308  0.2763
 6404SOL    HW120951   5.461   8.943   7.938  0.0311  1.1967  1.9924
 6404SOL    HW220952   5.440   8.885   8.076  0.9515 -1.4367  1.0772
 6405SOL     OW20953   1.907   8.904   5.392 -0.1109  0.8434  0.1892
 6405SOL    HW120954   1.990   8.941   5.423  0.4855  0.7667 -1.2696
 6405SOL    HW220955   1.892   8.944   5.307 -2.6612  2.4622  1.2532
 6406SOL     OW20956   0.382   0.649   3.719 -0.1369  0.1578  0.1633
 6406SOL    HW120957   0.321   0.710   3.678  0.5747  1.8170  1.4775
 6406SOL    HW220958   0.468   0.676   3.688  0.1235 -0.7927  0.0208
 6407SOL     OW20959   4.526   9.025   9.145  0.2886 -0.1014  0.2677
 6407SOL    HW120960   4.593   9.060   9.087  0.5524 -1.1224 -0.0484
 6407SOL    HW220961   4.446   9.071   9.120  0.6784  0.4527  0.0303
 6408SOL     OW20962   6.610   3.621   0.635 -0.8154 -0.8225 -0.4748
 6408SOL    HW120963   6.699   3.635   0.669 -1.3821  0.0068  0.7794
 6408SOL    HW220964   6.603   3.527   0.623  0.3224 -0.8757 -0.8681
 6409SOL     OW20965   7.059   6.385   3.053 -0.6139 -0.8103 -0.7502
 6409SOL    HW120966   7.095   6.410   3.138  1.3252 -2.2682 -1.0516
 6409SOL    HW220967   6.997   6.454   3.031  3.4104  3.1431 -1.0616
 6410SOL     OW20968   5.787   4.887   1.121 -0.3338  0.5075  0.1722
 6410SOL    HW120969   5.708   4.940   1.132  0.8208  1.9522  2.1048
 6410SOL    HW220970   5.778   4.817   1.185 -0.2036  0.4535  0.1320
 6411SOL     OW20971   9.192   5.650   5.148 -0.1506 -0.3211 -0.0725
 6411SOL    HW120972   9.233   5.675   5.231 -1.2952  0.1072  0.3937
 6411SOL    HW220973   9.179   5.734   5.103  0.0873 -0.5164 -0.5064
 6412SOL     OW20974   6.122   7.674   3.449 -0.6445  0.3805 -0.1948
 6412SOL    HW120975   6.092   7.739   3.386 -1.4389 -0.2887 -0.5318
 6412SOL    HW220976   6.080   7.699   3.531 -2.0280 -0.4378 -0.6213
 6413SOL     OW20977   5.942   1.224   6.790  0.2706 -0.1845  0.4965
 6413SOL    HW120978   5.871   1.189   6.736 -0.6779  1.5208  0.5943
 6413SOL    HW220979   5.930   1.181   6.875 -0.0988 -0.5647  0.2599
 6414SOL     OW20980   6.764   5.561   6.313 -0.0951 -0.9056 -0.0080
 6414SOL    HW120981   6.795   5.614   6.387 -0.7059 -0.7800  0.1702
 6414SOL    HW220982   6.680   5.526   6.343 -0.9712  0.1643 -1.0996
 6415SOL     OW20983   6.638   7.793   0.447  0.0519 -0.5164 -0.0524
 6415SOL    HW120984   6.680   7.878   0.437 -0.6208  0.0683  1.6966
 6415SOL    HW220985   6.562   7.797   0.389 -3.1396  2.3288  3.7116
 6416SOL     OW20986   4.804   3.173   1.266 -0.7826 -0.1235 -0.2821
 6416SOL    HW120987   4.872   3.159   1.331  0.1985 -1.4367 -1.5171
 6416SOL    HW220988   4.722   3.152   1.312 -0.1475 -0.7299  0.6064
 6417SOL     OW20989   9.473   6.049   0.043 -0.1846  0.1964  0.5616
 6417SOL    HW120990   9.381   6.023   0.047  0.1021 -0.9102  0.2977
 6417SOL    HW220991   9.493   6.082   0.130  0.2675 -3.5079  2.0643
 6418SOL     OW20992   6.624   6.511   2.396  0.4614 -0.3574 -0.0692
 6418SOL    HW120993   6.634   6.605   2.383 -2.4777 -0.1790 -1.9356
 6418SOL    HW220994   6.703   6.473   2.357  0.6000  1.2593 -1.4463
 6419SOL     OW20995   1.614   8.867   9.345 -0.1396 -0.2460 -0.0499
 6419SOL    HW120996   1.606   8.920   9.265  0.3810 -1.7235 -1.1253
 6419SOL    HW220997   1.683   8.910   9.395 -1.8346  1.9010  0.6413
 6420SOL     OW20998   1.592   9.609   8.749 -0.8466  0.2506 -0.2695
 6420SOL    HW120999   1.586   9.514   8.752 -2.2584  0.3327  0.0833
 6420SOL    HW221000   1.665   9.627   8.689 -0.3959 -1.0424 -0.1329
 6421SOL     OW21001   8.329   7.629   6.729  0.4900 -0.1667 -1.0206
 6421SOL    HW121002   8.292   7.703   6.777  0.3923  0.1676 -1.6110
 6421SOL    HW221003   8.268   7.557   6.748  1.0399 -0.3322  0.2369
 6422SOL     OW21004   0.788   4.616   4.657 -0.5341  0.0446 -0.5819
 6422SOL    HW121005   0.825   4.535   4.691 -0.3191  0.1705 -0.5135
 6422SOL    HW221006   0.828   4.626   4.570  0.4983  0.7786 -0.0462
 6423SOL     OW21007   8.674   0.989   0.207 -0.0100  0.4566  0.4029
 6423SOL    HW121008   8.666   0.933   0.130 -0.0865  1.3243 -0.2389
 6423SOL    HW221009   8.757   0.962   0.247  0.1925  0.2147 -0.1643
 6424SOL     OW21010   1.447   6.283   4.495 -0.4200  0.3383 -0.0571
 6424SOL    HW121011   1.391   6.329   4.558 -1.6691 -0.4596 -0.5482
 6424SOL    HW221012   1.394   6.277   4.416  0.5216 -0.1057 -0.6685
 6425SOL     OW21013   4.047   0.743   5.420 -0.2048 -0.5893 -0.5719
 6425SOL    HW121014   4.004   0.744   5.506 -1.3223 -0.6766 -1.1219
 6425SOL    HW221015   4.112   0.813   5.426  0.5998 -1.4144  0.7716
 6426SOL     OW21016   7.607   4.808   5.753 -0.2425  0.5234  0.4150
 6426SOL    HW121017   7.524   4.849   5.775 -2.5415 -2.9297 -1.1218
 6426SOL    HW221018   7.630   4.846   5.668 -2.2883 -1.0798 -0.9489
 6427SOL     OW21019   1.495   3.442   5.107 -0.2531 -0.7821 -0.0552
 6427SOL    HW121020   1.554   3.367   5.106 -0.4269 -0.9461 -1.5581
 6427SOL    HW221021   1.548   3.515   5.139  0.3558 -1.2303 -0.0268
 6428SOL     OW21022   0.934   4.215   3.234 -0.0383 -0.1489 -0.2541
 6428SOL    HW121023   1.003   4.213   3.168  1.9054 -1.4203  1.7116
 6428SOL    HW221024   0.893   4.129   3.228 -0.6765  0.1708 -0.5940
 6429SOL     OW21025   5.428   6.423   5.593  0.2142 -0.6149  0.4313
 6429SOL    HW121026   5.370   6.496   5.613  1.1028 -0.0996  1.2303
 6429SOL    HW221027   5.373   6.361   5.546 -1.2011 -0.5118  1.8488
 6430SOL     OW21028   8.301   3.807   5.082  0.0869 -0.3511  0.1370
 6430SOL    HW121029   8.263   3.732   5.128  0.8331  0.2214  1.7577
 6430SOL    HW221030   8.294   3.880   5.144  2.1935  0.1863 -0.1728
 6431SOL     OW21031   8.757   0.523   3.486  0.6331  0.0233  0.1079
 6431SOL    HW121032   8.757   0.529   3.582 -0.6226  1.7499  0.0527
 6431SOL    HW221033   8.736   0.431   3.468  0.5121 -0.2527  1.4891
 6432SOL     OW21034   2.194   2.126   3.034  0.2163 -0.1440 -0.4077
 6432SOL    HW121035   2.179   2.196   2.970 -0.6343 -0.7984 -0.9466
 6432SOL    HW221036   2.113   2.122   3.086  0.3499 -0.5544 -0.2215
 6433SOL     OW21037   4.346   6.740   0.531  0.2407 -0.1230  0.3519
 6433SOL    HW121038   4.362   6.751   0.624  0.1683 -2.2479  0.6617
 6433SOL    HW221039   4.341   6.645   0.518 -0.9746  0.1364 -1.6022
 6434SOL     OW21040   1.420   2.099   1.272 -0.0222  0.3178 -0.2105
 6434SOL    HW121041   1.456   2.021   1.228  0.4119 -0.0295  0.7427
 6434SOL    HW221042   1.399   2.159   1.200 -1.6338 -1.1862 -1.0926
 6435SOL     OW21043   8.541   7.247   8.344 -0.0411 -0.4488 -0.1888
 6435SOL    HW121044   8.612   7.184   8.331  0.3599 -0.1346  0.4133
 6435SOL    HW221045   8.496   7.217   8.423  0.2478  0.1012  0.1885
 6436SOL     OW21046   5.740   6.287   3.779 -0.2632  0.1628  0.3434
 6436SOL    HW121047   5.742   6.212   3.837 -1.4315  0.5507  0.9273
 6436SOL    HW221048   5.719   6.361   3.836  2.0140  1.1752 -0.0054
 6437SOL     OW21049   5.925   6.576   6.321  0.0704  0.2359  0.5714
 6437SOL    HW121050   5.963   6.545   6.404 -0.1412 -1.7796 -0.0186
 6437SOL    HW221051   5.837   6.538   6.320  0.9538 -2.0384 -1.6832
 6438SOL     OW21052   4.046   4.947   5.768 -0.4031 -0.5243  0.4852
 6438SOL    HW121053   4.124   4.913   5.724  0.6990  0.2510  1.7490
 6438SOL    HW221054   4.011   4.872   5.815 -1.9542 -1.5268 -2.0735
 6439SOL     OW21055   9.575   0.768   7.916 -0.3771  0.4267  0.1417
 6439SOL    HW121056   9.613   0.848   7.880 -0.0818 -0.0957 -0.7632
 6439SOL    HW221057   9.520   0.798   7.988  1.6446  1.2147  1.4346
 6440SOL     OW21058   0.067   1.885   2.960 -0.1311 -0.0271  0.0306
 6440SOL    HW121059  -0.015   1.918   2.924 -0.5831  0.7124  1.6682
 6440SOL    HW221060   0.135   1.936   2.915 -0.6577  0.5484 -0.1293
 6441SOL     OW21061   3.050   4.244   7.482 -0.5364 -0.7662 -0.4383
 6441SOL    HW121062   3.010   4.323   7.518 -0.1988 -1.2399  1.0638
 6441SOL    HW221063   2.992   4.218   7.410 -1.0541  0.4221 -0.4652
 6442SOL     OW21064   8.891   9.018   9.608 -0.4442  0.2050 -0.0827
 6442SOL    HW121065   8.889   8.936   9.559 -1.7198  0.1362  0.0511
 6442SOL    HW221066   8.872   9.085   9.542  0.1225  0.3508 -0.1016
 6443SOL     OW21067   5.193   1.089   9.325 -0.0664  0.0589  0.4159
 6443SOL    HW121068   5.201   1.045   9.240 -0.8694 -1.0166  0.8678
 6443SOL    HW221069   5.138   1.030   9.377  0.7661  0.4876  1.8269
 6444SOL     OW21070   8.335   5.698   1.308  0.0915  0.3164  0.0093
 6444SOL    HW121071   8.259   5.754   1.319  0.3768  0.7298 -0.0913
 6444SOL    HW221072   8.304   5.610   1.332  0.0207  0.7477  1.6182
 6445SOL     OW21073   8.623   5.391   8.500 -0.5721 -0.3495  0.1149
 6445SOL    HW121074   8.713   5.415   8.481 -0.4438 -0.4974  0.5325
 6445SOL    HW221075   8.619   5.383   8.595 -1.3214  0.8413  0.2075
 6446SOL     OW21076   6.023   7.503   8.339 -0.0039  0.3483 -0.6775
 6446SOL    HW121077   6.100   7.511   8.282 -1.0938  0.3757 -2.1851
 6446SOL    HW221078   6.047   7.553   8.417  1.9854 -0.6659 -0.5502
 6447SOL     OW21079   1.743   8.956   5.622 -0.0069  0.7248 -0.0131
 6447SOL    HW121080   1.685   9.000   5.559 -0.6411  1.7739  1.2784
 6447SOL    HW221081   1.777   8.881   5.573 -1.2228  0.9692 -1.3164
 6448SOL     OW21082   0.186   5.453   0.972  0.1882  0.1418  0.7938
 6448SOL    HW121083   0.195   5.420   1.061 -1.4080 -1.2980  0.4822
 6448SOL    HW221084   0.260   5.415   0.925 -0.6181 -1.6105  0.8636
 6449SOL     OW21085   3.376   4.426   9.142 -0.2823 -0.0431 -0.1329
 6449SOL    HW121086   3.422   4.361   9.088 -0.6230 -0.5433  0.1722
 6449SOL    HW221087   3.287   4.391   9.151 -0.7156  0.8896 -0.6686
 6450SOL     OW21088   7.994   7.801   2.490  0.3384 -0.0095  0.6428
 6450SOL    HW121089   8.050   7.808   2.567  0.4952  2.3419  0.3929
 6450SOL    HW221090   7.921   7.861   2.508  0.1265  0.2127 -0.8174
 6451SOL     OW21091   2.989   4.619   2.081  0.1025 -0.1205  0.2223
 6451SOL    HW121092   3.018   4.657   1.998  0.0504 -0.5758 -0.0096
 6451SOL    HW221093   2.929   4.549   2.055 -2.3016  1.6392  0.7161
 6452SOL     OW21094   9.384   2.341   4.714  0.2008  0.3140 -0.6541
 6452SOL    HW121095   9.330   2.269   4.745 -1.7864  1.4350 -1.3752
 6452SOL    HW221096   9.404   2.320   4.623 -0.8466  0.8945 -1.0357
 6453SOL     OW21097   6.441   7.676   4.752  0.1661  0.1744 -0.0426
 6453SOL    HW121098   6.416   7.618   4.823  1.2110 -1.6891 -1.1150
 6453SOL    HW221099   6.507   7.735   4.791  0.6908 -0.7895  0.5517
 6454SOL     OW21100   7.776   2.935   1.320  0.3515 -0.1430 -0.5268
 6454SOL    HW121101   7.789   2.879   1.243  1.5547  1.9253 -1.9347
 6454SOL    HW221102   7.783   2.875   1.394 -0.5451 -2.1858 -1.9749
 6455SOL     OW21103   3.638   7.796   8.292 -0.6913  0.4047 -0.2936
 6455SOL    HW121104   3.650   7.728   8.226 -2.9635 -0.4226  0.0572
 6455SOL    HW221105   3.722   7.801   8.338  0.2870 -0.4194 -1.9039
 6456SOL     OW21106   9.266   1.538   5.106 -0.1353  0.1361  0.7465
 6456SOL    HW121107   9.330   1.599   5.142 -0.5207  0.4725  0.8707
 6456SOL    HW221108   9.282   1.538   5.011  1.4287 -1.3708  0.9506
 6457SOL     OW21109   7.647   3.070   9.221  0.6619  0.2200 -0.0610
 6457SOL    HW121110   7.559   3.062   9.185 -0.1055  0.8325  1.5932
 6457SOL    HW221111   7.635   3.109   9.308  2.3366 -1.7591  1.1716
 6458SOL     OW21112   9.020   5.344   9.269 -0.3188 -0.7090 -0.1575
 6458SOL    HW121113   9.084   5.331   9.200  0.4571  1.5341  0.0318
 6458SOL    HW221114   8.962   5.413   9.235 -0.0314  0.3068  1.2836
 6459SOL     OW21115   6.933   3.894   9.084  0.4319  0.8091  0.2487
 6459SOL    HW121116   6.945   3.928   8.995 -0.1358 -0.3557 -0.2979
 6459SOL    HW221117   7.014   3.917   9.130  0.3511  2.2581 -0.2737
 6460SOL     OW21118   8.772   7.373   6.559 -0.1604 -0.1097 -0.2568
 6460SOL    HW121119   8.692   7.413   6.591 -1.6981 -1.4025 -2.2008
 6460SOL    HW221120   8.810   7.330   6.635  0.0626  2.5682  1.2412
 6461SOL     OW21121   6.812   1.574   7.753 -0.2337 -0.6566  0.0913
 6461SOL    HW121122   6.833   1.609   7.840  0.0124 -0.3443 -0.0937
 6461SOL    HW221123   6.802   1.651   7.698  0.3647 -0.8706 -0.3277
 6462SOL     OW21124   2.272   0.333   7.876 -0.3489  0.3797  0.2643
 6462SOL    HW121125   2.207   0.399   7.901 -0.8536  0.4948 -1.2591
 6462SOL    HW221126   2.328   0.378   7.813  1.3000  0.3082  1.6175
 6463SOL     OW21127   0.118   7.629   7.637 -0.1208  0.3403  0.1221
 6463SOL    HW121128   0.203   7.635   7.681  0.1827 -0.4856 -0.3335
 6463SOL    HW221129   0.133   7.570   7.563 -0.9112  0.7743 -0.4020
 6464SOL     OW21130   8.598   5.217   6.290 -0.3083  0.0112 -0.3062
 6464SOL    HW121131   8.562   5.171   6.366 -1.7335 -1.1546 -1.6311
 6464SOL    HW221132   8.634   5.298   6.327 -2.7133  0.4358  1.4086
 6465SOL     OW21133   4.281   7.811   1.244  0.1436  0.3474 -0.1599
 6465SOL    HW121134   4.270   7.832   1.152  0.2278  0.6206 -0.1071
 6465SOL    HW221135   4.192   7.811   1.280 -0.1012 -1.5745 -0.6273
 6466SOL     OW21136   5.224   1.856   5.873 -0.1091 -0.2358  0.2584
 6466SOL    HW121137   5.207   1.887   5.962 -2.6090  1.0788 -0.5634
 6466SOL    HW221138   5.319   1.857   5.864  0.2666 -1.4508  3.2235
 6467SOL     OW21139   5.961   4.872   1.949  0.2347 -0.1496  0.2350
 6467SOL    HW121140   6.026   4.910   1.890 -0.0644  0.6040  0.3896
 6467SOL    HW221141   6.012   4.822   2.012  0.6108 -0.2170 -0.1194
 6468SOL     OW21142   3.800   1.676   6.432 -0.1180  0.0297 -0.2150
 6468SOL    HW121143   3.789   1.746   6.367  2.2010 -0.3601 -1.1274
 6468SOL    HW221144   3.776   1.596   6.384  0.1323 -0.1084 -0.1077
 6469SOL     OW21145   2.393   0.146   6.324  0.2624  0.3151  0.1740
 6469SOL    HW121146   2.442   0.151   6.406  1.5694  0.2350 -0.5639
 6469SOL    HW221147   2.419   0.225   6.276  0.0014  0.0471 -0.4131
 6470SOL     OW21148   3.504   3.689   8.926  0.0635  0.0398  0.3392
 6470SOL    HW121149   3.457   3.672   8.845  0.3312 -1.0092  0.3802
 6470SOL    HW221150   3.461   3.632   8.990  0.6368 -0.0598  0.6412
 6471SOL     OW21151   3.097   4.235   0.218 -0.0878 -0.7541 -0.2090
 6471SOL    HW121152   3.070   4.180   0.291 -1.7751 -0.6202 -0.7006
 6471SOL    HW221153   3.147   4.176   0.161  1.6140 -0.7567  1.2128
 6472SOL     OW21154   7.980   4.409   3.942  0.0339  1.4078 -0.0057
 6472SOL    HW121155   8.020   4.452   4.017  1.2212  1.0247 -0.3878
 6472SOL    HW221156   8.054   4.386   3.886 -0.8905  3.0894 -2.0684
 6473SOL     OW21157   0.961   3.466   8.386 -0.0040 -0.3168 -0.1085
 6473SOL    HW121158   0.943   3.500   8.299  1.4129  0.2860 -0.1868
 6473SOL    HW221159   0.978   3.373   8.373 -0.8707 -0.4597 -0.3050
 6474SOL     OW21160   0.827   2.761   1.913 -0.5195 -0.0605 -0.2296
 6474SOL    HW121161   0.902   2.727   1.865  1.6068  0.9120  2.1688
 6474SOL    HW221162   0.754   2.705   1.887  0.7708 -0.4446 -3.4027
 6475SOL     OW21163   6.896   6.122   7.508  0.2490  0.1965 -0.1343
 6475SOL    HW121164   6.828   6.055   7.511  0.4995 -0.0411  0.6627
 6475SOL    HW221165   6.864   6.191   7.567  0.9319 -0.1609  0.6737
 6476SOL     OW21166   8.869   4.221   5.655 -0.3279  0.1585 -0.1662
 6476SOL    HW121167   8.855   4.242   5.747  1.8235  1.2603 -0.0035
 6476SOL    HW221168   8.782   4.225   5.615 -1.4781 -1.4379  1.9737
 6477SOL     OW21169   9.446   3.774   8.048 -0.0816 -0.1770  0.1476
 6477SOL    HW121170   9.476   3.755   8.137  0.5610  1.1218  0.2367
 6477SOL    HW221171   9.485   3.704   7.995 -2.4019 -2.3635  1.1423
 6478SOL     OW21172   2.973   9.507   7.796 -0.0542  0.0635 -0.2144
 6478SOL    HW121173   3.001   9.459   7.717 -1.0687 -1.1665  0.1312
 6478SOL    HW221174   2.881   9.485   7.805 -0.3363  1.4584  0.4581
 6479SOL     OW21175   2.969   4.110   8.636 -0.5205  0.0862  0.6023
 6479SOL    HW121176   2.925   4.093   8.553 -2.0839 -0.1665  1.4458
 6479SOL    HW221177   2.922   4.057   8.700  1.5227 -0.8057  1.4503
 6480SOL     OW21178   7.133   2.968   6.900  0.5402 -0.2029 -0.8791
 6480SOL    HW121179   7.176   3.000   6.820  0.2070 -0.6351 -1.2356
 6480SOL    HW221180   7.049   3.014   6.901  1.9768  2.7506  1.2344
 6481SOL     OW21181   0.604   3.358   6.687  0.2761 -0.1522 -0.4120
 6481SOL    HW121182   0.656   3.311   6.752 -0.5760  2.2550  2.2164
 6481SOL    HW221183   0.651   3.441   6.675 -1.4453  0.8942 -0.1385
 6482SOL     OW21184   2.710   4.171   8.322  0.0277  0.3687 -0.1006
 6482SOL    HW121185   2.758   4.205   8.246 -2.0878  1.9442 -0.8432
 6482SOL    HW221186   2.665   4.094   8.289 -0.7282  0.9350 -0.4173
 6483SOL     OW21187   0.073   4.285   6.105 -0.3078 -0.2333  0.5698
 6483SOL    HW121188   0.075   4.199   6.062 -1.2099  0.2966 -0.5939
 6483SOL    HW221189   0.014   4.337   6.051  1.4949  1.6296  0.2548
 6484SOL     OW21190   2.040   5.564   5.419  0.4559  0.5632  0.4611
 6484SOL    HW121191   2.040   5.494   5.485  1.6194 -0.0325 -0.1377
 6484SOL    HW221192   2.117   5.546   5.365  1.0033  2.5331  0.5092
 6485SOL     OW21193   9.096   7.247   6.620 -0.0752 -0.0641  0.7681
 6485SOL    HW121194   9.180   7.255   6.664  1.0938 -0.1745 -1.3073
 6485SOL    HW221195   9.046   7.187   6.674  0.7926  0.7393  2.5635
 6486SOL     OW21196   9.564   4.696   9.401  0.7827  0.2413  0.4569
 6486SOL    HW121197   9.641   4.706   9.346  2.1780 -1.2433  2.0176
 6486SOL    HW221198   9.497   4.661   9.343  1.4261  1.0573 -0.8205
 6487SOL     OW21199   4.106   8.470   6.156  0.1384 -0.8256  0.5359
 6487SOL    HW121200   4.121   8.465   6.061 -0.9580 -1.9366  0.3858
 6487SOL    HW221201   4.026   8.522   6.165  0.4442 -0.4098  0.8855
 6488SOL     OW21202   7.219   3.312   9.054  0.0096 -0.1698  0.2051
 6488SOL    HW121203   7.235   3.397   9.094  1.5003 -0.0120 -0.6880
 6488SOL    HW221204   7.287   3.255   9.091 -0.5647 -0.8258  0.2869
 6489SOL     OW21205   7.788   3.418   2.551 -0.8638 -0.2681 -0.3408
 6489SOL    HW121206   7.758   3.327   2.558 -1.5193 -0.1387 -1.3369
 6489SOL    HW221207   7.773   3.441   2.460  0.4274  0.4683 -0.3884
 6490SOL     OW21208   0.822   3.357   7.916 -0.0017 -0.0606  0.1296
 6490SOL    HW121209   0.852   3.315   7.997  0.4403 -0.1649 -0.0865
 6490SOL    HW221210   0.729   3.337   7.912  0.1737 -0.9004  0.1039
 6491SOL     OW21211   9.220   7.891   1.289  0.1889 -0.0644  0.0665
 6491SOL    HW121212   9.270   7.864   1.366 -0.4771 -0.7270  0.2757
 6491SOL    HW221213   9.251   7.833   1.219 -0.0668 -0.2710  0.1238
 6492SOL     OW21214   3.222   9.036   4.875  0.5361  0.1575 -0.0300
 6492SOL    HW121215   3.173   9.115   4.898  0.3505  0.0004  0.1243
 6492SOL    HW221216   3.268   9.012   4.956  0.5879  0.1076 -0.0743
 6493SOL     OW21217   6.973   2.001   1.219 -0.0965  0.4984 -0.1242
 6493SOL    HW121218   7.024   1.974   1.295 -0.0264  0.9057 -0.0275
 6493SOL    HW221219   7.018   2.078   1.186 -0.0833  0.2773 -0.6254
 6494SOL     OW21220   9.298   7.594   3.386  0.0408 -0.2118 -0.0046
 6494SOL    HW121221   9.244   7.648   3.444 -1.4226 -0.1653 -1.3352
 6494SOL    HW221222   9.352   7.542   3.445 -0.0816  1.1231  1.3534
 6495SOL     OW21223   3.481   5.300   3.799 -0.1659 -0.8360  0.6027
 6495SOL    HW121224   3.540   5.355   3.850 -1.0016 -0.2230  0.9362
 6495SOL    HW221225   3.512   5.210   3.815  0.0758 -0.5950  1.5572
 6496SOL     OW21226   3.534   2.973   8.326  0.0925  0.0084 -0.3040
 6496SOL    HW121227   3.447   2.934   8.337  0.3976 -1.0528 -1.4113
 6496SOL    HW221228   3.528   3.058   8.370 -2.0087  0.6767 -1.7528
 6497SOL     OW21229   2.267   4.312   7.301  0.2095 -0.1053 -0.1423
 6497SOL    HW121230   2.192   4.254   7.290 -1.2132  1.0863  2.3147
 6497SOL    HW221231   2.241   4.394   7.260  0.1342  0.3055  0.6926
 6498SOL     OW21232   8.501   2.715   8.509  0.3197 -0.1792 -0.0644
 6498SOL    HW121233   8.536   2.640   8.460 -1.7700 -0.2549 -1.5867
 6498SOL    HW221234   8.428   2.679   8.559 -0.9789  0.8556 -1.1422
 6499SOL     OW21235   9.458   4.886   2.360 -0.0399  0.2426 -0.1248
 6499SOL    HW121236   9.508   4.951   2.311 -0.3063  0.1201 -0.5627
 6499SOL    HW221237   9.432   4.821   2.295 -0.5248  0.1588  0.1467
 6500SOL     OW21238   1.028   7.709   4.690 -0.1992  0.1740  0.1726
 6500SOL    HW121239   1.087   7.734   4.619 -0.7202 -1.0840 -0.7465
 6500SOL    HW221240   1.070   7.633   4.730 -1.1648 -0.7650 -0.5215
 6501SOL     OW21241   0.630   1.615   6.586 -0.0971  0.2316 -0.2859
 6501SOL    HW121242   0.567   1.687   6.575  0.2261  0.8775  1.6398
 6501SOL    HW221243   0.715   1.657   6.575  0.0747  0.0106  0.2031
 6502SOL     OW21244   4.100   5.364   2.270 -0.1890 -0.2161  0.0662
 6502SOL    HW121245   4.131   5.447   2.233  0.6856 -0.3446  0.4755
 6502SOL    HW221246   4.047   5.325   2.201 -0.5189  0.6279 -0.1739
 6503SOL     OW21247   5.896   6.859   0.766  0.1822 -0.1320  0.3373
 6503SOL    HW121248   5.941   6.909   0.698  1.0862 -1.2873  0.0687
 6503SOL    HW221249   5.920   6.903   0.847 -1.2901  1.5595 -0.0588
 6504SOL     OW21250   9.313   1.961   1.481  0.2937  0.6616  0.2820
 6504SOL    HW121251   9.294   1.992   1.569 -1.2479  5.0998 -1.2997
 6504SOL    HW221252   9.400   1.995   1.461  1.2716 -1.5897  0.4994
 6505SOL     OW21253   6.937   2.173   9.328  0.5646  0.0803 -0.0763
 6505SOL    HW121254   6.962   2.238   9.393  1.8972 -0.3196 -0.1625
 6505SOL    HW221255   6.863   2.212   9.282  1.5821  1.7266 -0.3934
 6506SOL     OW21256   7.096   4.176   0.772 -0.5213  0.8948  0.3696
 6506SOL    HW121257   7.165   4.235   0.740 -0.3416  0.9207  0.8042
 6506SOL    HW221258   7.026   4.185   0.707 -0.4498  1.5017  0.3648
 6507SOL     OW21259   1.747   4.714   6.019 -0.4840  0.4947  0.0380
 6507SOL    HW121260   1.825   4.761   6.048  0.5981 -1.1600 -0.0687
 6507SOL    HW221261   1.691   4.782   5.981  0.6824  1.7916  0.5585
 6508SOL     OW21262   4.162   7.624   2.166 -0.1572 -0.0736  0.3323
 6508SOL    HW121263   4.069   7.637   2.146 -0.4346  0.9598  2.0452
 6508SOL    HW221264   4.187   7.547   2.116 -1.3119  0.9846 -2.0199
 6509SOL     OW21265   6.297   0.697   1.976 -0.2614  0.3428  0.1872
 6509SOL    HW121266   6.245   0.742   2.042  0.0282  0.2029  0.5176
 6509SOL    HW221267   6.295   0.605   2.002  0.9193  0.4481  0.7680
 6510SOL     OW21268   3.371   3.050   3.118 -0.1280 -0.1171 -0.1360
 6510SOL    HW121269   3.343   3.049   3.027 -2.3408  0.3762  0.4807
 6510SOL    HW221270   3.450   3.105   3.119  0.4368 -0.8303 -1.8361
 6511SOL     OW21271   7.795   9.120   2.130 -0.1861  0.1820  0.0258
 6511SOL    HW121272   7.869   9.156   2.081  0.0094  0.7373  0.7194
 6511SOL    HW221273   7.792   9.028   2.104  0.3644  0.2970 -0.4728
 6512SOL     OW21274   7.486   8.148   2.018 -0.3023 -0.5409  0.0863
 6512SOL    HW121275   7.453   8.149   2.108 -1.7262 -0.4048 -0.4065
 6512SOL    HW221276   7.453   8.229   1.980 -1.3523 -1.4806 -1.0909
 6513SOL     OW21277   6.254   6.413   7.792  0.5393 -0.1359  0.3858
 6513SOL    HW121278   6.181   6.395   7.733 -0.8202  0.3041  1.8583
 6513SOL    HW221279   6.215   6.409   7.880  1.9532  1.5954  1.1474
 6514SOL     OW21280   1.166   7.035   4.617 -0.0056 -0.1225 -0.4433
 6514SOL    HW121281   1.251   7.079   4.624 -0.1572  0.0518  0.4636
 6514SOL    HW221282   1.158   7.012   4.525  2.3079 -2.7012 -0.1255
 6515SOL     OW21283   7.538   5.122   1.795  0.6716  0.1901  0.0962
 6515SOL    HW121284   7.623   5.164   1.778 -0.2190  1.4456 -1.5375
 6515SOL    HW221285   7.491   5.129   1.712 -1.8494  1.4317  1.5134
 6516SOL     OW21286   2.854   5.901   8.344 -0.8589  0.0034  0.2414
 6516SOL    HW121287   2.941   5.872   8.372 -1.0801 -0.8411  0.0618
 6516SOL    HW221288   2.870   5.985   8.300 -0.3486  0.7244  1.7410
 6517SOL     OW21289   1.917   7.302   3.089 -0.0763 -0.1619 -0.6009
 6517SOL    HW121290   1.830   7.331   3.064 -0.1356  0.1660 -0.0225
 6517SOL    HW221291   1.904   7.248   3.167  0.3459  1.0178  0.3327
 6518SOL     OW21292   0.647   1.395   4.491 -0.0831  0.3634  1.0368
 6518SOL    HW121293   0.701   1.462   4.532  0.4627  0.7137 -0.2230
 6518SOL    HW221294   0.676   1.392   4.400 -1.7070  0.0688  0.4915
 6519SOL     OW21295   7.623   3.735   2.093  0.1372 -0.3282 -0.2136
 6519SOL    HW121296   7.604   3.829   2.085  1.5156 -0.1346 -1.7509
 6519SOL    HW221297   7.590   3.712   2.179  1.8437  2.1157  1.2463
 6520SOL     OW21298   6.915   4.669   6.790  0.1276  0.2212  0.2652
 6520SOL    HW121299   6.968   4.742   6.757 -0.0791  0.6492  0.8604
 6520SOL    HW221300   6.957   4.591   6.755  1.8669  0.4671  1.6920
 6521SOL     OW21301   4.179   6.148   6.339  0.8285  0.4146 -0.0577
 6521SOL    HW121302   4.244   6.085   6.309  0.7491  0.8022 -1.0721
 6521SOL    HW221303   4.107   6.141   6.277 -1.7679 -2.4836  2.8716
 6522SOL     OW21304   6.040   6.492   0.253  0.5955  0.0350  0.8057
 6522SOL    HW121305   5.958   6.542   0.251  1.1210  0.9196 -0.3723
 6522SOL    HW221306   6.026   6.424   0.319 -1.0805  0.1621  0.6192
 6523SOL     OW21307   2.214   5.005   1.791  0.4560 -0.6088  0.4738
 6523SOL    HW121308   2.298   5.027   1.833  0.2770  0.8980  0.1136
 6523SOL    HW221309   2.180   4.931   1.842  1.0064  0.1227  1.9729
 6524SOL     OW21310   5.927   9.500   4.182  0.0935 -0.3776 -0.4994
 6524SOL    HW121311   5.925   9.432   4.115  0.3694 -1.2338  0.3402
 6524SOL    HW221312   6.006   9.481   4.233 -0.3451 -0.0086  0.3326
 6525SOL     OW21313   0.954   2.621   8.691  0.7018 -0.3457 -0.1577
 6525SOL    HW121314   0.905   2.648   8.613  1.4007  1.2359 -0.0985
 6525SOL    HW221315   0.959   2.526   8.685 -1.1496 -0.4360 -0.8827
 6526SOL     OW21316   4.271   5.594   0.187 -0.4112 -0.2149  0.0111
 6526SOL    HW121317   4.304   5.614   0.275  0.8352 -1.3863 -0.1792
 6526SOL    HW221318   4.175   5.592   0.198 -0.4073  1.7982  0.8617
 6527SOL     OW21319   4.340   6.898   0.899  0.2801 -0.2186  0.1947
 6527SOL    HW121320   4.315   6.805   0.896 -2.0609  0.3819 -1.7067
 6527SOL    HW221321   4.262   6.943   0.930  0.8122  1.2791 -0.5433
 6528SOL     OW21322   0.159   6.886   7.475  0.1462 -0.3460 -0.5411
 6528SOL    HW121323   0.100   6.842   7.413 -0.3733  0.3914 -0.5880
 6528SOL    HW221324   0.231   6.825   7.488 -0.5353 -1.1849 -0.6450
 6529SOL     OW21325   8.474   6.028   3.407 -0.2212 -0.5981 -0.2071
 6529SOL    HW121326   8.381   6.027   3.385  0.2023  0.8044 -2.3624
 6529SOL    HW221327   8.484   6.104   3.465 -0.3881 -0.6221 -0.1473
 6530SOL     OW21328   5.096   2.780   6.109 -0.4142  0.1447 -0.2307
 6530SOL    HW121329   5.117   2.854   6.052 -3.5228  0.4341 -1.1799
 6530SOL    HW221330   5.169   2.719   6.097  0.9662  1.9204 -1.4091
 6531SOL     OW21331   0.770   0.351   1.557 -0.1110  0.9035  0.0507
 6531SOL    HW121332   0.834   0.360   1.627 -2.9387 -1.2891  3.2800
 6531SOL    HW221333   0.790   0.422   1.496  4.5837  0.9466  1.2921
 6532SOL     OW21334   6.211   3.547   0.798  0.1407 -0.0918  0.1384
 6532SOL    HW121335   6.243   3.457   0.801  2.1328  0.5822  0.5493
 6532SOL    HW221336   6.117   3.539   0.816  0.2208 -2.0798 -0.0131
 6533SOL     OW21337   0.314   9.076   9.456 -0.5291  0.6859  0.1217
 6533SOL    HW121338   0.228   9.112   9.433 -0.0967  0.6764 -1.6513
 6533SOL    HW221339   0.323   9.094   9.550 -4.1270 -2.7309  1.4081
 6534SOL     OW21340   3.511   5.147   1.135 -0.0210 -0.1771  0.1658
 6534SOL    HW121341   3.537   5.171   1.046  1.1887  0.9716  0.7918
 6534SOL    HW221342   3.586   5.172   1.189 -1.6535  1.4923  1.8141
 6535SOL     OW21343   1.130   4.724   0.522  0.1023 -0.1434  0.3115
 6535SOL    HW121344   1.113   4.677   0.440 -0.0977  1.4341 -0.5952
 6535SOL    HW221345   1.155   4.656   0.584 -1.9205 -1.6568 -0.4347
 6536SOL     OW21346   6.371   5.571   3.376 -0.0850 -0.6193  0.4835
 6536SOL    HW121347   6.302   5.520   3.420 -0.0381  0.2590  1.6266
 6536SOL    HW221348   6.436   5.506   3.351 -0.3958 -1.2309  1.2104
 6537SOL     OW21349   8.068   4.438   0.344  0.5266 -0.2064  0.0385
 6537SOL    HW121350   8.113   4.406   0.422  0.7264 -0.5717 -0.2241
 6537SOL    HW221351   8.134   4.486   0.295  0.4803 -0.2392 -0.0567
 6538SOL     OW21352   9.035   1.156   4.416 -0.4051  0.6519 -0.0348
 6538SOL    HW121353   9.076   1.100   4.481  0.0996 -0.0831 -0.9534
 6538SOL    HW221354   9.018   1.239   4.461 -0.1992  0.1093  1.0474
 6539SOL     OW21355   6.718   7.896   9.004 -0.6464 -0.3054 -0.0095
 6539SOL    HW121356   6.645   7.957   8.992  1.3304  2.9465  2.6558
 6539SOL    HW221357   6.719   7.878   9.098  2.7852  1.1185  0.3858
 6540SOL     OW21358   1.808   8.494   0.539 -0.5099 -0.2365  0.4478
 6540SOL    HW121359   1.787   8.402   0.527  0.3474 -0.3523 -0.2263
 6540SOL    HW221360   1.903   8.496   0.552 -0.5941  0.4981  1.0511
 6541SOL     OW21361   3.428   6.455   8.008  0.7351 -0.2331 -0.8831
 6541SOL    HW121362   3.345   6.481   7.968  1.0298 -1.6754 -2.5673
 6541SOL    HW221363   3.492   6.516   7.971  0.9850 -1.4821 -2.6437
 6542SOL     OW21364   1.568   3.719   1.278 -1.1034 -0.5739  0.4606
 6542SOL    HW121365   1.649   3.675   1.306 -1.0183 -0.3805  0.5219
 6542SOL    HW221366   1.528   3.748   1.360 -2.1854 -2.2954  0.5935
 6543SOL     OW21367   3.094   9.185   1.509 -0.0984  0.2260  0.0603
 6543SOL    HW121368   3.137   9.112   1.553 -0.6962 -0.6095 -0.6925
 6543SOL    HW221369   3.003   9.156   1.498  0.0671  0.3037 -1.8747
 6544SOL     OW21370   2.361   2.787   4.838  0.0918  0.4175  0.0349
 6544SOL    HW121371   2.449   2.768   4.806  0.7875  1.2415  1.3291
 6544SOL    HW221372   2.371   2.793   4.933 -1.5401 -0.2871  0.2896
 6545SOL     OW21373   3.568   5.171   5.227  0.6857  0.1225  0.5651
 6545SOL    HW121374   3.598   5.140   5.141 -0.9852  0.5521 -0.2118
 6545SOL    HW221375   3.635   5.235   5.253  0.1857  1.5770 -1.4276
 6546SOL     OW21376   0.891   7.324   5.472 -0.1169  0.0527 -0.5401
 6546SOL    HW121377   0.827   7.310   5.543 -0.3195 -2.9504 -1.1686
 6546SOL    HW221378   0.975   7.329   5.517 -0.2118 -2.1024  0.0279
 6547SOL     OW21379   7.632   7.888   4.089 -0.4376  0.1158  0.1515
 6547SOL    HW121380   7.660   7.972   4.053 -0.9601  0.9059  1.5482
 6547SOL    HW221381   7.620   7.903   4.182 -2.3505 -1.0220  0.1444
 6548SOL     OW21382   7.829   9.222   9.430  0.0861  0.1441 -0.3255
 6548SOL    HW121383   7.915   9.257   9.407 -0.1100 -0.1258 -1.5422
 6548SOL    HW221384   7.815   9.150   9.368  0.1211 -1.5701  1.5473
 6549SOL     OW21385   6.281   7.666   6.324  0.0375 -0.1891 -0.4801
 6549SOL    HW121386   6.195   7.629   6.345 -0.0455  0.7234  0.9733
 6549SOL    HW221387   6.264   7.724   6.250 -0.7793  0.5339  0.2416
 6550SOL     OW21388   2.729   2.583   5.658  0.3449  0.2949 -0.1225
 6550SOL    HW121389   2.652   2.628   5.694  0.2599  0.2500 -0.2477
 6550SOL    HW221390   2.703   2.491   5.653 -0.4642  0.5947 -2.3998
 6551SOL     OW21391   9.568   7.594   5.713 -0.7461  0.1756 -0.3680
 6551SOL    HW121392   9.528   7.507   5.709 -2.7282  0.9070  1.8833
 6551SOL    HW221393   9.499   7.653   5.683 -0.2224  1.1742  0.3618
 6552SOL     OW21394   8.370   7.616   9.181  0.4836  0.1734  0.2970
 6552SOL    HW121395   8.448   7.622   9.237  0.4952  1.6157  0.1680
 6552SOL    HW221396   8.299   7.595   9.241  0.7383  0.2674  0.6359
 6553SOL     OW21397   7.849   4.116   0.196  0.0937 -0.5827  0.0139
 6553SOL    HW121398   7.828   4.043   0.253 -1.5513  0.2645  0.5585
 6553SOL    HW221399   7.804   4.097   0.114 -1.4881  0.4154  0.6055
 6554SOL     OW21400   7.399   8.900   2.181  0.7865 -0.1674 -0.2493
 6554SOL    HW121401   7.390   8.980   2.232  0.2182  1.3448 -2.5523
 6554SOL    HW221402   7.346   8.916   2.103  1.2860 -2.5034 -1.1420
 6555SOL     OW21403   8.949   7.293   4.977  0.3925 -0.4512 -0.1732
 6555SOL    HW121404   8.979   7.348   4.905 -2.0440 -1.7436 -2.3420
 6555SOL    HW221405   8.901   7.353   5.034 -0.9101  0.0305 -1.6907
 6556SOL     OW21406   8.136   8.268   0.056  0.4815 -0.4350 -0.3485
 6556SOL    HW121407   8.220   8.293   0.094 -0.2183 -1.4029  2.0513
 6556SOL    HW221408   8.082   8.346   0.064  0.2037 -0.7506  1.2074
 6557SOL     OW21409   5.096   8.366   4.666 -0.1482 -0.0019 -0.4784
 6557SOL    HW121410   5.103   8.393   4.575  0.6113  0.5899 -0.2450
 6557SOL    HW221411   5.067   8.444   4.712 -1.0580 -0.4383 -0.2783
 6558SOL     OW21412   8.480   7.923   6.127 -0.2563  0.1952  0.0096
 6558SOL    HW121413   8.407   7.872   6.090 -2.1093  0.8125  2.5087
 6558SOL    HW221414   8.526   7.861   6.183 -0.5575  0.4730  0.5685
 6559SOL     OW21415   4.361   4.676   9.267  0.0093 -0.0578  0.2089
 6559SOL    HW121416   4.434   4.617   9.250 -1.7210 -2.4712  0.7630
 6559SOL    HW221417   4.385   4.722   9.347  1.7112  0.6210 -0.6431
 6560SOL     OW21418   4.991   0.222   8.376  1.2244  0.0851  0.0270
 6560SOL    HW121419   4.983   0.314   8.352 -1.0139 -0.2358 -0.7572
 6560SOL    HW221420   5.051   0.221   8.451  0.8889  2.2288  0.3770
 6561SOL     OW21421   8.851   4.444   6.928  0.0374  0.3853  0.0494
 6561SOL    HW121422   8.843   4.475   6.838 -3.3988 -1.0652 -0.2944
 6561SOL    HW221423   8.946   4.437   6.942  0.7581 -0.7201 -3.9401
 6562SOL     OW21424   8.819   0.225   1.821  0.3043  0.0763  0.0186
 6562SOL    HW121425   8.727   0.217   1.845  0.8294 -0.4851  2.0332
 6562SOL    HW221426   8.848   0.306   1.864  0.6184  0.6167 -1.1612
 6563SOL     OW21427   3.452   7.550   2.218 -0.9405 -0.4066 -0.1972
 6563SOL    HW121428   3.524   7.495   2.250  0.4272  2.0468  1.3008
 6563SOL    HW221429   3.424   7.508   2.136  1.8669 -1.7434 -0.5975
 6564SOL     OW21430   7.383   4.835   7.739 -0.1462  0.2012  0.2375
 6564SOL    HW121431   7.387   4.924   7.704  1.7341  1.1944  2.7013
 6564SOL    HW221432   7.396   4.779   7.662 -0.5098  2.0500 -1.2521
 6565SOL     OW21433   0.357   8.860   0.446 -0.2270 -0.0069 -1.0016
 6565SOL    HW121434   0.286   8.917   0.474 -0.0230  0.1375 -0.7736
 6565SOL    HW221435   0.409   8.913   0.386 -0.6361 -0.2992 -1.6240
 6566SOL     OW21436   6.771   2.468   0.531  0.1577 -0.6734 -0.7428
 6566SOL    HW121437   6.836   2.438   0.595  0.1536  1.9030  0.5704
 6566SOL    HW221438   6.823   2.510   0.462  0.0403 -1.8668 -1.6018
 6567SOL     OW21439   3.183   6.347   6.793 -0.1230 -0.2655  0.4313
 6567SOL    HW121440   3.131   6.324   6.870 -0.2504 -0.3286  0.3271
 6567SOL    HW221441   3.219   6.264   6.763  0.6287 -0.1281  0.9258
 6568SOL     OW21442   7.575   8.423   0.382  0.0924 -0.1653 -0.4872
 6568SOL    HW121443   7.490   8.406   0.421 -0.0610  1.4072 -0.0605
 6568SOL    HW221444   7.638   8.405   0.452  0.1039 -1.0593 -0.7178
 6569SOL     OW21445   8.667   7.274   0.709 -1.1491  0.3072 -0.0050
 6569SOL    HW121446   8.637   7.252   0.797  0.9354  0.9570  0.9196
 6569SOL    HW221447   8.657   7.369   0.703  0.8852  0.5870  0.4519
 6570SOL     OW21448   4.135   8.526   9.409  0.3426 -0.1816 -0.7401
 6570SOL    HW121449   4.080   8.604   9.401  0.2503  0.1977  2.3898
 6570SOL    HW221450   4.076   8.453   9.391  0.1376  0.3669 -2.4979
 6571SOL     OW21451   1.116   1.958   3.070  0.3637  0.3015  0.3092
 6571SOL    HW121452   1.183   1.991   3.010 -0.4102 -0.2058 -0.8621
 6571SOL    HW221453   1.099   2.031   3.130  0.1153  1.3412 -0.9892
 6572SOL     OW21454   4.337   8.314   3.651  0.2298  0.0928 -0.1745
 6572SOL    HW121455   4.253   8.290   3.690 -0.0471 -1.0822 -1.3978
 6572SOL    HW221456   4.321   8.400   3.611 -0.8206 -0.6800 -1.5132
 6573SOL     OW21457   5.755   8.265   4.749 -0.6558  0.0767  0.5959
 6573SOL    HW121458   5.835   8.279   4.698 -1.5700 -1.0628 -1.2627
 6573SOL    HW221459   5.781   8.202   4.817 -0.0868 -0.7583 -0.3608
 6574SOL     OW21460   1.093   1.539   5.863  0.1144 -0.0243  0.3738
 6574SOL    HW121461   1.176   1.555   5.818 -0.1543  0.4637  0.0308
 6574SOL    HW221462   1.113   1.552   5.955  0.3166  0.5679  0.2522
 6575SOL     OW21463   5.424   4.695   3.134  0.0874 -0.5741 -0.5378
 6575SOL    HW121464   5.363   4.705   3.061 -0.5904 -0.4706  0.0294
 6575SOL    HW221465   5.467   4.611   3.117 -0.7944 -1.0465 -0.5399
 6576SOL     OW21466   1.126   6.971   4.976  0.1625  0.1640  0.7822
 6576SOL    HW121467   1.215   7.001   4.994  0.3167  0.2443 -0.0478
 6576SOL    HW221468   1.134   6.877   4.965  0.4040  0.3239 -0.6389
 6577SOL     OW21469   3.856   5.463   9.509  0.0281  0.3116 -0.1033
 6577SOL    HW121470   3.861   5.548   9.465 -0.9886  0.6170  0.3519
 6577SOL    HW221471   3.786   5.473   9.574 -1.0816 -1.2951 -0.9801
 6578SOL     OW21472   5.383   7.748   5.230  0.0195  0.1023 -0.0221
 6578SOL    HW121473   5.373   7.834   5.270 -0.0975  0.1380 -0.1283
 6578SOL    HW221474   5.404   7.766   5.139 -1.7567  0.0157 -0.4743
 6579SOL     OW21475   7.937   3.219   4.262 -0.3436 -0.1926 -0.1329
 6579SOL    HW121476   7.920   3.126   4.273 -2.3479  0.0155 -0.9804
 6579SOL    HW221477   8.001   3.224   4.192 -1.1746 -0.9297 -0.9802
 6580SOL     OW21478   9.284   8.659   2.814 -0.4522 -0.0384  0.1510
 6580SOL    HW121479   9.196   8.661   2.851 -0.9087  0.3810 -0.9186
 6580SOL    HW221480   9.334   8.604   2.874 -2.1435 -2.7513 -0.7270
 6581SOL     OW21481   4.208   0.334   3.182 -0.5023  0.0402 -0.1716
 6581SOL    HW121482   4.250   0.406   3.228 -0.5735  0.5114 -0.8293
 6581SOL    HW221483   4.122   0.326   3.223 -0.5670  0.4620 -0.2170
 6582SOL     OW21484   0.064   9.244   2.761 -0.0690  0.2830 -0.2831
 6582SOL    HW121485  -0.031   9.231   2.750 -0.7169  0.5066  3.6122
 6582SOL    HW221486   0.101   9.157   2.751 -0.9243 -0.0865 -0.3671
 6583SOL     OW21487   3.209   2.148   2.753 -0.5115  0.0621 -0.4522
 6583SOL    HW121488   3.291   2.159   2.801 -0.3255  1.8652 -1.1116
 6583SOL    HW221489   3.167   2.072   2.794  0.2228  0.7453  1.6978
 6584SOL     OW21490   0.195   4.376   4.458 -0.3158 -0.8708 -0.6705
 6584SOL    HW121491   0.198   4.298   4.514  3.4648 -0.5415 -0.1444
 6584SOL    HW221492   0.147   4.441   4.509 -1.2233 -2.0293  0.0040
 6585SOL     OW21493   3.344   4.788   4.000  0.0733 -0.1485  0.1471
 6585SOL    HW121494   3.308   4.702   4.024 -0.8792  0.0740 -0.4437
 6585SOL    HW221495   3.283   4.822   3.934  1.0192  0.5290 -0.3975
 6586SOL     OW21496   8.026   6.315   6.189  0.1776 -0.2571  0.2278
 6586SOL    HW121497   7.964   6.292   6.258  0.8137  0.2027  0.9586
 6586SOL    HW221498   8.035   6.234   6.138 -1.3830 -0.2032 -0.1939
 6587SOL     OW21499   6.970   2.506   2.144  0.8030 -0.1276 -0.3661
 6587SOL    HW121500   6.957   2.412   2.160 -0.5691  0.4047  2.1577
 6587SOL    HW221501   6.882   2.542   2.141  1.3342  1.1836 -0.5989
 6588SOL     OW21502   5.522   9.365   7.187 -0.0723 -0.2400 -0.0406
 6588SOL    HW121503   5.492   9.276   7.170 -1.0854 -0.1555  1.1266
 6588SOL    HW221504   5.444   9.411   7.217  0.4306  1.0610 -0.6714
 6589SOL     OW21505   5.388   8.795   6.017 -0.1502  0.4365  0.3574
 6589SOL    HW121506   5.300   8.787   5.978  0.4147 -0.6862 -0.7563
 6589SOL    HW221507   5.440   8.840   5.950  0.6713 -0.9203  0.0475
 6590SOL     OW21508   8.744   0.701   5.227 -0.0718  1.3220 -0.2842
 6590SOL    HW121509   8.664   0.745   5.197 -1.0478 -0.6187 -0.6510
 6590SOL    HW221510   8.805   0.773   5.243 -1.0716  2.7389 -2.3133
 6591SOL     OW21511   4.038   4.445   3.469 -0.0911 -0.2355  0.2089
 6591SOL    HW121512   4.071   4.514   3.412  0.4691 -1.4074 -0.9204
 6591SOL    HW221513   4.045   4.365   3.418 -1.8115 -0.9975  1.0691
 6592SOL     OW21514   3.852   1.601   0.519 -0.0333 -0.0449  0.2060
 6592SOL    HW121515   3.852   1.507   0.500 -1.2364 -0.1825  0.7490
 6592SOL    HW221516   3.796   1.609   0.597  1.3070  0.9463  1.1166
 6593SOL     OW21517   5.621   0.640   8.670 -0.0443 -0.2664  0.1372
 6593SOL    HW121518   5.651   0.577   8.736 -0.5844 -1.8264 -1.0417
 6593SOL    HW221519   5.527   0.623   8.661 -0.2415  0.8641 -0.0525
 6594SOL     OW21520   2.125   8.409   0.322  0.1871 -0.1919 -0.1153
 6594SOL    HW121521   2.190   8.355   0.366 -0.4167 -0.0263  1.0065
 6594SOL    HW221522   2.102   8.359   0.243  0.7745 -0.8243  0.1076
 6595SOL     OW21523   5.486   5.047   7.633  0.2988  0.3077 -0.1895
 6595SOL    HW121524   5.573   5.023   7.601 -0.2625  0.4210 -1.8572
 6595SOL    HW221525   5.431   4.971   7.612 -0.1698  0.5398  0.1800
 6596SOL     OW21526   7.214   0.812   2.483  0.1877  0.0137  0.5019
 6596SOL    HW121527   7.204   0.874   2.556  0.7906  0.6734  0.0373
 6596SOL    HW221528   7.152   0.843   2.417  0.3542  0.0089  0.3446
 6597SOL     OW21529   7.041   7.608   7.781  0.1677  0.0740  0.5494
 6597SOL    HW121530   7.118   7.558   7.756 -0.2949 -0.8404  0.8976
 6597SOL    HW221531   7.031   7.592   7.874 -0.6100 -0.0738  0.4512
 6598SOL     OW21532   0.555   4.474   2.198 -0.2121  0.0957  0.0718
 6598SOL    HW121533   0.540   4.428   2.280  0.2007  0.0143  0.1041
 6598SOL    HW221534   0.577   4.406   2.135  0.2280  0.2226  0.0792
 6599SOL     OW21535   9.122   2.991   6.778 -0.0600  0.0193  0.2223
 6599SOL    HW121536   9.166   3.069   6.813 -0.1353  0.3254 -0.3568
 6599SOL    HW221537   9.123   2.929   6.851 -2.0257  1.3537  1.5119
 6600SOL     OW21538   5.017   5.368   2.358  0.1365 -0.3105 -0.2690
 6600SOL    HW121539   4.932   5.344   2.320 -0.3953 -0.6963  1.1092
 6600SOL    HW221540   5.019   5.464   2.351 -0.3963 -0.3009 -0.3317
 6601SOL     OW21541   7.093   0.950   4.832 -0.4270  0.0041 -0.0192
 6601SOL    HW121542   7.050   1.001   4.763  0.4640 -2.5064 -2.6319
 6601SOL    HW221543   7.093   0.860   4.799 -1.2428 -1.6866  3.9721
 6602SOL     OW21544   4.341   3.940   9.129  0.8371 -0.2314 -0.8702
 6602SOL    HW121545   4.255   3.917   9.163  1.6621 -1.5119  0.4598
 6602SOL    HW221546   4.327   3.954   9.036 -1.2486  2.0094 -0.3163
 6603SOL     OW21547   5.413   0.335   8.290  0.2179  0.6419 -0.1001
 6603SOL    HW121548   5.400   0.327   8.195  2.5748  0.3790 -0.4491
 6603SOL    HW221549   5.400   0.428   8.308 -0.8604  0.5995 -0.5479
 6604SOL     OW21550   4.520   0.134   8.931 -0.3466 -0.3899  0.5309
 6604SOL    HW121551   4.451   0.185   8.972  0.0401  1.1979 -0.7116
 6604SOL    HW221552   4.595   0.143   8.989 -0.7060 -0.8159  1.0736
 6605SOL     OW21553   3.866   7.324   7.216  0.2219 -0.7218 -0.3275
 6605SOL    HW121554   3.798   7.269   7.254 -0.1396  0.4283  0.7519
 6605SOL    HW221555   3.879   7.394   7.280  1.8907 -0.4964 -0.8583
 6606SOL     OW21556   5.613   5.875   9.066  0.4654 -0.0591 -0.6358
 6606SOL    HW121557   5.681   5.901   9.004  1.1556  0.5967  0.3817
 6606SOL    HW221558   5.642   5.790   9.100  1.3033  0.6625  0.5196
 6607SOL     OW21559   0.592   4.519   6.309  0.4144 -0.0620 -0.0660
 6607SOL    HW121560   0.541   4.467   6.248 -0.3259  0.4896  0.0771
 6607SOL    HW221561   0.635   4.455   6.365  0.5270 -0.5478 -0.6963
 6608SOL     OW21562   4.766   6.310   4.001 -0.1535 -0.1642 -0.0679
 6608SOL    HW121563   4.809   6.332   3.919 -0.1864  4.2519  0.8684
 6608SOL    HW221564   4.809   6.365   4.067 -3.1475 -0.0727  2.0280
 6609SOL     OW21565   1.119   7.457   5.620 -0.3320 -0.1017 -0.4839
 6609SOL    HW121566   1.104   7.434   5.711  0.6798  0.9593 -0.0321
 6609SOL    HW221567   1.072   7.540   5.608  0.2833  0.2195 -0.6794
 6610SOL     OW21568   8.637   9.443   2.377  0.0299 -0.5206 -0.9443
 6610SOL    HW121569   8.650   9.367   2.435 -1.6068 -0.1858 -0.0687
 6610SOL    HW221570   8.624   9.516   2.437  2.7543  0.7554 -1.7709
 6611SOL     OW21571   1.137   5.020   8.707 -0.3517 -0.3260  0.0005
 6611SOL    HW121572   1.176   5.060   8.629 -0.2349 -1.9902 -0.8396
 6611SOL    HW221573   1.199   5.038   8.777 -0.3436  1.0024 -0.3118
 6612SOL     OW21574   4.419   5.296   8.695  0.1627  0.1890 -0.3255
 6612SOL    HW121575   4.390   5.226   8.637 -0.8508  0.7093 -0.4689
 6612SOL    HW221576   4.514   5.300   8.683  0.1358 -0.6684 -0.8563
 6613SOL     OW21577   2.408   6.680   6.829  0.5099  0.0916 -0.0675
 6613SOL    HW121578   2.365   6.762   6.854  2.4120  1.2950 -0.5472
 6613SOL    HW221579   2.412   6.683   6.733  0.9455 -0.3707 -0.0675
 6614SOL     OW21580   6.916   2.781   1.289  0.3779 -0.1383  0.3722
 6614SOL    HW121581   7.005   2.794   1.321  0.8232  0.9900 -1.1864
 6614SOL    HW221582   6.927   2.768   1.195 -1.2390  2.6217 -0.3062
 6615SOL     OW21583   1.874   2.017   8.559 -0.4429  0.2164  0.4484
 6615SOL    HW121584   1.924   1.943   8.526  0.3383  0.3764  1.2326
 6615SOL    HW221585   1.911   2.035   8.646  0.6720  2.6834 -0.4227
 6616SOL     OW21586   1.430   7.039   1.472 -0.3353  0.0423  0.3331
 6616SOL    HW121587   1.461   7.120   1.512 -1.9881  0.2810  1.1829
 6616SOL    HW221588   1.496   6.974   1.496 -0.8895  0.3299  2.8825
 6617SOL     OW21589   7.847   4.282   2.123 -0.0679 -0.2698 -0.0710
 6617SOL    HW121590   7.788   4.301   2.051 -1.3364 -0.0024  1.0056
 6617SOL    HW221591   7.845   4.360   2.178 -0.5730 -1.1340  1.2011
 6618SOL     OW21592   2.376   6.721   0.798  0.5825 -0.2250  0.1722
 6618SOL    HW121593   2.384   6.630   0.828  0.7237 -0.8330 -1.6063
 6618SOL    HW221594   2.443   6.730   0.730  0.1760  1.0335 -0.0822
 6619SOL     OW21595   3.549   8.578   4.149  0.1918 -0.4824 -0.0349
 6619SOL    HW121596   3.641   8.550   4.150  0.0203 -1.1899 -1.8149
 6619SOL    HW221597   3.512   8.540   4.228  1.4850  0.0886  0.8965
 6620SOL     OW21598   5.397   1.063   1.351 -0.3834 -0.3231  0.2138
 6620SOL    HW121599   5.482   1.101   1.330 -0.7371 -0.2845 -1.3204
 6620SOL    HW221600   5.417   0.986   1.404  0.7712 -1.3915 -1.6558
 6621SOL     OW21601   5.689   7.324   3.501  0.3420 -0.1888 -0.0605
 6621SOL    HW121602   5.620   7.263   3.472 -0.1291 -1.2361  2.9239
 6621SOL    HW221603   5.756   7.268   3.540  0.2268  1.1131  2.1408
 6622SOL     OW21604   9.457   1.100   0.944  0.2887 -0.6618 -0.1122
 6622SOL    HW121605   9.421   1.011   0.945  3.2686 -1.9870  0.8534
 6622SOL    HW221606   9.516   1.103   1.019 -0.4588  2.5447  0.5061
 6623SOL     OW21607   2.320   4.836   5.770  0.7569  0.1959 -0.0121
 6623SOL    HW121608   2.394   4.826   5.830  0.6533  0.3180  0.1394
 6623SOL    HW221609   2.243   4.820   5.825  0.7283 -2.7453 -0.7450
 6624SOL     OW21610   7.815   9.271   3.187 -0.2375 -0.0075  0.0081
 6624SOL    HW121611   7.786   9.328   3.258 -1.2424 -0.2792 -0.1679
 6624SOL    HW221612   7.808   9.325   3.109 -0.7701 -0.2332 -0.1017
 6625SOL     OW21613   0.738   3.886   0.745  0.2361 -0.2274  1.0209
 6625SOL    HW121614   0.704   3.887   0.834 -0.6242 -1.5074  0.7418
 6625SOL    HW221615   0.831   3.866   0.754  0.2285  0.0293  1.6527
 6626SOL     OW21616   4.314   6.717   8.446 -0.3103 -0.0253 -0.2873
 6626SOL    HW121617   4.288   6.662   8.372  2.8923 -0.3739 -1.3109
 6626SOL    HW221618   4.366   6.660   8.501  1.7341  1.4771 -0.5312
 6627SOL     OW21619   3.956   8.212   3.599  0.4047  0.4237  0.2999
 6627SOL    HW121620   3.879   8.196   3.654 -0.4339  0.5496 -0.7875
 6627SOL    HW221621   4.026   8.232   3.661  0.0817 -1.6579  1.4462
 6628SOL     OW21622   9.173   6.769   4.341 -0.0122 -0.0345  0.3578
 6628SOL    HW121623   9.223   6.823   4.280  0.6619  0.8818  1.6617
 6628SOL    HW221624   9.235   6.703   4.372 -0.7633 -1.4467 -1.0325
 6629SOL     OW21625   0.807   4.844   6.978  0.0755  0.4158  0.1161
 6629SOL    HW121626   0.790   4.795   6.897  0.3690 -2.6946  1.7806
 6629SOL    HW221627   0.743   4.915   6.977  0.1004  0.5223 -2.8170
 6630SOL     OW21628   4.977   0.055   0.304  0.6809 -0.1787  0.2616
 6630SOL    HW121629   4.936   0.026   0.222  0.1573  0.5229  0.2639
 6630SOL    HW221630   5.070   0.040   0.291  0.5212 -0.9018 -0.1203
 6631SOL     OW21631   3.339   0.406   7.555  0.7534  0.8962 -0.4751
 6631SOL    HW121632   3.404   0.443   7.496  3.2239 -1.1130  0.7586
 6631SOL    HW221633   3.283   0.352   7.499  2.4782 -0.2542 -1.1743
 6632SOL     OW21634   2.821   2.275   4.010 -0.6919  0.5950  0.1308
 6632SOL    HW121635   2.740   2.299   4.056 -2.0975 -1.1268 -1.3047
 6632SOL    HW221636   2.850   2.194   4.052 -0.4819  0.4758 -0.2381
 6633SOL     OW21637   3.987   3.621   0.253  1.0427 -0.2216 -0.1796
 6633SOL    HW121638   3.976   3.703   0.301  1.3165 -0.6990  0.7441
 6633SOL    HW221639   3.997   3.647   0.162  0.3176  0.7115 -0.0045
 6634SOL     OW21640   6.384   3.572   7.317  0.2721  0.4893  0.0619
 6634SOL    HW121641   6.339   3.573   7.233 -0.5334 -1.0863  0.4500
 6634SOL    HW221642   6.319   3.605   7.379  0.9463  1.8924  0.0604
 6635SOL     OW21643   5.946   7.927   1.370  0.0419 -0.1814  0.0413
 6635SOL    HW121644   5.852   7.940   1.360  0.2496  0.6289 -0.9985
 6635SOL    HW221645   5.981   8.014   1.389  0.6474 -0.3789 -0.1178
 6636SOL     OW21646   5.331   3.883   1.177 -0.3524 -0.0926  0.1120
 6636SOL    HW121647   5.362   3.797   1.150 -3.0382 -0.6067 -1.7019
 6636SOL    HW221648   5.384   3.945   1.127 -1.1538 -0.8795 -1.7939
 6637SOL     OW21649   2.437   7.327   0.103 -0.2787 -0.1993  0.0977
 6637SOL    HW121650   2.497   7.255   0.088 -1.0063 -1.2176  1.7927
 6637SOL    HW221651   2.493   7.402   0.123  0.5267 -1.5579  3.5891
 6638SOL     OW21652   5.060   3.839   6.071 -0.3052  0.1885 -0.3092
 6638SOL    HW121653   5.089   3.929   6.079 -1.5445  0.6536 -0.8213
 6638SOL    HW221654   5.127   3.796   6.018  0.2379  0.8259 -0.1445
 6639SOL     OW21655   8.651   5.338   3.024  0.3006 -0.2583 -0.8184
 6639SOL    HW121656   8.641   5.431   3.044  1.9007 -0.2978  0.3843
 6639SOL    HW221657   8.684   5.300   3.106  2.4653 -1.3346 -2.1042
 6640SOL     OW21658   3.070   3.980   0.465 -0.0114 -0.7273  0.1193
 6640SOL    HW121659   3.093   3.892   0.434  1.0623 -0.4467  0.0632
 6640SOL    HW221660   3.027   3.966   0.549  0.8539 -1.2839  0.4903
 6641SOL     OW21661   8.411   0.911   4.293 -0.5135  0.6934 -0.3749
 6641SOL    HW121662   8.333   0.966   4.289 -2.2772 -1.6734 -0.4008
 6641SOL    HW221663   8.397   0.855   4.369  1.1435  0.1625 -0.4252
 6642SOL     OW21664   4.956   9.555   9.368  0.1606  0.1161 -0.5036
 6642SOL    HW121665   4.998   9.641   9.364  1.9378 -0.6931 -0.7027
 6642SOL    HW221666   4.874   9.565   9.320 -0.0641  1.8885  0.1968
 6643SOL     OW21667   6.045   0.641   3.413 -0.5102 -0.1797 -0.5598
 6643SOL    HW121668   6.127   0.614   3.370  0.3438  0.4059  0.6495
 6643SOL    HW221669   6.014   0.561   3.456 -1.0837 -0.6328 -1.7644
 6644SOL     OW21670   0.004   1.405   2.941  0.1385  0.1733 -0.2347
 6644SOL    HW121671  -0.042   1.330   2.902  0.4830  0.3836 -1.0680
 6644SOL    HW221672   0.012   1.468   2.870 -1.0679  1.4629  0.7088
 6645SOL     OW21673   2.867   8.491   3.528  0.0212 -0.2048 -0.5465
 6645SOL    HW121674   2.879   8.471   3.436 -1.4924 -0.6265 -0.6734
 6645SOL    HW221675   2.840   8.409   3.568  0.7854 -0.0601  0.3241
 6646SOL     OW21676   0.025   0.189   6.224 -0.3147 -0.4094  0.6622
 6646SOL    HW121677  -0.022   0.270   6.245 -0.5902  0.7617 -3.5478
 6646SOL    HW221678  -0.041   0.120   6.231 -1.3315  0.4569 -0.0819
 6647SOL     OW21679   3.726   7.595   9.338 -0.3230 -0.0796  0.8925
 6647SOL    HW121680   3.765   7.682   9.342 -2.1250  0.7931  0.4229
 6647SOL    HW221681   3.631   7.611   9.337 -0.6892 -1.9719 -0.2971
 6648SOL     OW21682   4.501   5.823   4.800  0.2300 -0.6533 -0.0615
 6648SOL    HW121683   4.543   5.907   4.816 -1.8695  0.5394 -0.3909
 6648SOL    HW221684   4.476   5.826   4.707 -2.1738 -0.4420  0.5112
 6649SOL     OW21685   8.174   1.947   7.480  0.2306 -0.0761  0.0343
 6649SOL    HW121686   8.258   1.920   7.444 -0.6688 -1.2639 -1.3321
 6649SOL    HW221687   8.137   2.005   7.413 -1.3898 -2.1617 -1.0007
 6650SOL     OW21688   2.832   9.579   8.591 -0.0781 -0.7484 -0.0341
 6650SOL    HW121689   2.813   9.617   8.677 -1.6836 -1.0376 -0.2253
 6650SOL    HW221690   2.796   9.641   8.528 -0.5089 -1.3817 -0.4286
 6651SOL     OW21691   1.291   7.852   0.961  0.0192  0.6207  0.5095
 6651SOL    HW121692   1.256   7.799   1.033  1.1746  0.8973  1.3087
 6651SOL    HW221693   1.242   7.934   0.965  0.3149  0.7710  1.2208
 6652SOL     OW21694   1.705   5.463   7.732 -0.0532 -0.1174 -0.9516
 6652SOL    HW121695   1.619   5.486   7.768 -0.2447  0.1063 -1.5331
 6652SOL    HW221696   1.753   5.546   7.731  1.2711 -0.6850  2.1334
 6653SOL     OW21697   4.543   5.432   3.035 -0.2823 -0.0907 -0.3819
 6653SOL    HW121698   4.604   5.468   3.099  2.3521 -2.7227 -1.1566
 6653SOL    HW221699   4.568   5.472   2.952  0.6739 -1.3410 -0.7401
 6654SOL     OW21700   2.087   7.428   4.213  0.1109  0.4014  0.1052
 6654SOL    HW121701   2.124   7.367   4.277  2.0099 -1.5674 -2.6433
 6654SOL    HW221702   2.006   7.387   4.184  0.8766 -0.3789 -1.0073
 6655SOL     OW21703   3.732   1.638   4.399 -0.2328  0.7154  0.0363
 6655SOL    HW121704   3.807   1.677   4.356 -0.1430  0.8137  0.2796
 6655SOL    HW221705   3.741   1.544   4.383  0.0135  0.7144  0.1779
 6656SOL     OW21706   6.269   6.187   9.358 -0.1865  0.3535 -0.4533
 6656SOL    HW121707   6.179   6.197   9.327 -0.7235 -0.0884  0.9027
 6656SOL    HW221708   6.287   6.269   9.405 -0.1144  0.1680 -0.1596
 6657SOL     OW21709   2.317   8.646   5.307  0.2184  0.0003  0.1542
 6657SOL    HW121710   2.264   8.588   5.254  0.1387  0.4260 -0.2402
 6657SOL    HW221711   2.267   8.657   5.388 -0.0779  0.0391 -0.0330
 6658SOL     OW21712   0.918   3.601   2.657  0.0809 -0.8001  0.6188
 6658SOL    HW121713   0.947   3.667   2.594  0.1981  0.8323  2.2803
 6658SOL    HW221714   0.974   3.616   2.734 -0.9621 -1.8035  1.6094
 6659SOL     OW21715   5.813   0.422   3.864 -0.0006  0.1158  0.2063
 6659SOL    HW121716   5.795   0.333   3.836 -0.0026  0.2179 -0.1182
 6659SOL    HW221717   5.878   0.413   3.933  0.8751 -0.0597 -0.6274
 6660SOL     OW21718   2.315   7.205   6.400  0.1695  0.3235 -0.1114
 6660SOL    HW121719   2.383   7.271   6.414  1.2307 -0.3609 -1.7402
 6660SOL    HW221720   2.320   7.149   6.478  0.7009  0.9365  0.3044
 6661SOL     OW21721   7.277   5.097   4.613 -0.1891  0.3252  0.2911
 6661SOL    HW121722   7.322   5.142   4.685  0.7122  1.0614 -0.7065
 6661SOL    HW221723   7.188   5.083   4.646  0.1273  0.8871  1.4464
 6662SOL     OW21724   8.376   5.377   5.655 -0.6165  0.1246 -0.3869
 6662SOL    HW121725   8.432   5.430   5.712 -1.3500 -0.9358  1.3853
 6662SOL    HW221726   8.287   5.392   5.688 -0.9744 -1.1121 -0.7387
 6663SOL     OW21727   3.847   4.260   4.673 -0.2064 -0.4207 -0.4503
 6663SOL    HW121728   3.856   4.330   4.737  1.0725 -1.4726  0.5758
 6663SOL    HW221729   3.876   4.298   4.590 -1.0603  0.7011 -0.2483
 6664SOL     OW21730   4.536   7.704   3.672 -0.2872 -0.1809  0.1375
 6664SOL    HW121731   4.613   7.738   3.626 -0.9758  0.2955 -0.6830
 6664SOL    HW221732   4.484   7.662   3.604 -1.2634  0.4093  0.5059
 6665SOL     OW21733   0.094   5.184   5.122  0.0069  0.6020 -0.4165
 6665SOL    HW121734   0.030   5.244   5.161  0.0807 -0.4356  1.4065
 6665SOL    HW221735   0.176   5.203   5.168 -0.0415 -1.0803  0.4166
 6666SOL     OW21736   2.137   6.664   7.794  0.3880 -0.6434  0.5653
 6666SOL    HW121737   2.228   6.666   7.824  1.4080 -1.4543 -2.2209
 6666SOL    HW221738   2.113   6.756   7.782  1.3895 -0.4675 -0.1546
 6667SOL     OW21739   2.836   2.139   9.613 -0.2753  0.0763  0.1788
 6667SOL    HW121740   2.833   2.215   9.555  2.2581  0.6462  0.6324
 6667SOL    HW221741   2.869   2.174   9.696  1.3971 -1.5090  0.2633
 6668SOL     OW21742   5.263   3.445   0.800 -0.3806  0.4095 -0.0618
 6668SOL    HW121743   5.260   3.532   0.761 -0.5511 -0.4652 -2.1041
 6668SOL    HW221744   5.216   3.389   0.738  0.1878 -1.2295  0.9359
 6669SOL     OW21745   5.856   7.518   0.611 -0.5903 -0.0458  0.2527
 6669SOL    HW121746   5.846   7.564   0.694 -2.2951 -0.5846  0.3859
 6669SOL    HW221747   5.867   7.587   0.546  0.7831  0.3765  0.8981
 6670SOL     OW21748   1.949   3.430   3.637 -0.2339  0.3433 -0.2173
 6670SOL    HW121749   1.984   3.445   3.550  0.0283  0.2278 -0.1340
 6670SOL    HW221750   1.921   3.338   3.637 -2.5933  0.9785 -0.9897
 6671SOL     OW21751   0.186   5.603   2.325 -0.3354  0.5317 -0.0203
 6671SOL    HW121752   0.255   5.633   2.265 -0.0554  0.1662  0.1140
 6671SOL    HW221753   0.225   5.611   2.412 -1.0604  1.9161  0.1952
 6672SOL     OW21754   3.389   3.683   6.146 -0.0229  0.0043 -0.0929
 6672SOL    HW121755   3.464   3.632   6.118 -0.2974 -0.1719 -0.5141
 6672SOL    HW221756   3.427   3.756   6.195  0.4247 -0.0338 -0.3752
 6673SOL     OW21757   6.631   5.081   5.583 -0.3503  0.4016 -0.3272
 6673SOL    HW121758   6.571   5.059   5.655  0.2446 -1.3338 -0.3013
 6673SOL    HW221759   6.573   5.109   5.512 -1.1409 -0.3219  0.0053
 6674SOL     OW21760   0.594   9.297   0.924  0.3457 -0.1908  0.5185
 6674SOL    HW121761   0.653   9.234   0.966  1.6237  1.0079  0.6126
 6674SOL    HW221762   0.578   9.260   0.837  2.8849  0.3486 -0.2746
 6675SOL     OW21763   4.531   0.480   1.862 -0.2854  0.2001 -0.0692
 6675SOL    HW121764   4.495   0.392   1.851  1.2200 -0.2613 -2.1331
 6675SOL    HW221765   4.463   0.539   1.830 -0.5059 -0.3895 -0.6994
 6676SOL     OW21766   2.429   1.521   3.563  0.2280  0.4111 -0.1818
 6676SOL    HW121767   2.342   1.482   3.554  0.4369  0.0137 -0.5217
 6676SOL    HW221768   2.489   1.453   3.534  0.6750  0.5840  0.3254
 6677SOL     OW21769   6.572   4.361   3.525  0.2195  0.1641  0.2633
 6677SOL    HW121770   6.644   4.369   3.587 -0.3522  0.8901  0.8591
 6677SOL    HW221771   6.523   4.284   3.553  0.6575 -0.2228 -0.0322
 6678SOL     OW21772   8.520   7.486   7.552 -0.5685 -0.0416  0.0961
 6678SOL    HW121773   8.434   7.454   7.578 -1.3578 -0.0965 -2.3602
 6678SOL    HW221774   8.543   7.551   7.619 -2.4211 -0.1742  0.9107
 6679SOL     OW21775   4.719   2.626   5.069  0.1392  0.3753 -0.0927
 6679SOL    HW121776   4.767   2.684   5.010 -3.7084  3.1550 -0.9093
 6679SOL    HW221777   4.712   2.543   5.023  3.3433  0.0695 -0.2099
 6680SOL     OW21778   0.191   4.214   3.371 -0.2931  0.5294 -0.7539
 6680SOL    HW121779   0.229   4.139   3.325 -2.1022 -0.1747 -1.1977
 6680SOL    HW221780   0.155   4.176   3.451  0.2622  1.2450 -0.1524
 6681SOL     OW21781   9.117   5.604   4.329 -0.2365 -0.1805 -0.2886
 6681SOL    HW121782   9.031   5.641   4.350  0.3467  0.0482  1.9859
 6681SOL    HW221783   9.156   5.583   4.414  1.6166 -1.1027 -1.2907
 6682SOL     OW21784   1.520   1.502   0.505  0.1084  0.0128  0.7539
 6682SOL    HW121785   1.562   1.511   0.590 -0.4360  0.2981  0.9980
 6682SOL    HW221786   1.539   1.585   0.460  2.5550 -1.0744 -0.4124
 6683SOL     OW21787   0.545   7.728   2.023 -0.0044 -0.2391 -0.1792
 6683SOL    HW121788   0.551   7.821   2.002 -1.2013  0.0556  0.6654
 6683SOL    HW221789   0.496   7.726   2.106 -2.1591 -1.7285 -1.4060
 6684SOL     OW21790   0.054   3.726   3.606  0.7811  0.1277 -0.1648
 6684SOL    HW121791  -0.034   3.762   3.612  0.3659 -1.0554  1.4014
 6684SOL    HW221792   0.102   3.768   3.678  0.8777 -0.8142  0.3379
 6685SOL     OW21793   2.450   7.235   3.759 -0.9838 -0.1130 -0.3078
 6685SOL    HW121794   2.415   7.161   3.709 -1.0860  0.0754 -0.5157
 6685SOL    HW221795   2.378   7.262   3.816 -1.2856  0.4742 -0.9589
 6686SOL     OW21796   1.508   4.911   4.502  0.3998  0.3946  0.1237
 6686SOL    HW121797   1.513   4.981   4.437 -1.5375 -0.4528 -1.0285
 6686SOL    HW221798   1.444   4.942   4.566  0.1854  0.0421  0.0795
 6687SOL     OW21799   8.545   1.904   8.188 -0.0713 -0.1267  0.0867
 6687SOL    HW121800   8.558   1.970   8.255 -1.4155 -0.4908  0.7538
 6687SOL    HW221801   8.554   1.820   8.234  0.1835 -0.3962 -0.4410
 6688SOL     OW21802   7.180   5.750   4.969  0.3129 -0.3162  0.4506
 6688SOL    HW121803   7.273   5.726   4.966  0.3668 -0.0350 -0.9865
 6688SOL    HW221804   7.142   5.705   4.893 -0.7990 -0.6788  1.2073
 6689SOL     OW21805   8.856   9.353   2.239  0.5092  0.0089  0.1016
 6689SOL    HW121806   8.788   9.377   2.303  0.6423  0.4975  0.0599
 6689SOL    HW221807   8.828   9.267   2.206 -0.4460  0.4959 -0.4014
 6690SOL     OW21808   6.535   4.826   3.314  0.2739 -0.1281  0.5181
 6690SOL    HW121809   6.441   4.827   3.330 -0.3162 -2.8951 -1.8189
 6690SOL    HW221810   6.571   4.770   3.383 -0.2901 -1.4634 -0.2352
 6691SOL     OW21811   0.691   5.428   0.604  0.0805  0.5144 -0.1950
 6691SOL    HW121812   0.677   5.499   0.541 -1.5213  0.1312 -0.2970
 6691SOL    HW221813   0.640   5.355   0.570 -1.5324  0.5618  1.9664
 6692SOL     OW21814   4.941   9.275   9.005  0.3624 -0.5798 -0.1294
 6692SOL    HW121815   4.957   9.252   8.913  2.6418  0.8145 -0.1764
 6692SOL    HW221816   5.009   9.339   9.025 -2.8553  2.7919  1.1971
 6693SOL     OW21817   3.290   4.780   8.502 -0.2013  0.0152  0.0389
 6693SOL    HW121818   3.313   4.873   8.492 -0.4621 -0.0555 -1.4041
 6693SOL    HW221819   3.370   4.740   8.537  0.3137  0.5899 -0.4415
 6694SOL     OW21820   7.092   2.450   7.837 -0.2003  0.8880 -0.2361
 6694SOL    HW121821   7.164   2.398   7.870 -0.5095  2.0052  2.4326
 6694SOL    HW221822   7.016   2.392   7.841  0.0117  0.6022 -0.3181
 6695SOL     OW21823   0.626   8.205   9.363  0.5466 -0.1921  0.0100
 6695SOL    HW121824   0.672   8.122   9.355  2.0648  0.4178  1.8336
 6695SOL    HW221825   0.649   8.238   9.449 -1.0630  1.5308 -0.1378
 6696SOL     OW21826   1.324   4.928   0.372  0.1000  0.4929  0.5531
 6696SOL    HW121827   1.310   5.004   0.428 -1.2433  0.2465  0.5993
 6696SOL    HW221828   1.236   4.906   0.339  0.7861  0.3361 -1.2727
 6697SOL     OW21829   0.908   0.566   2.379  0.0877  0.1617 -0.5823
 6697SOL    HW121830   0.851   0.640   2.402 -0.3166 -0.5948  0.9919
 6697SOL    HW221831   0.860   0.520   2.310 -0.8554 -0.0141  0.1613
 6698SOL     OW21832   5.630   6.940   4.700  0.0887 -0.2551 -0.3551
 6698SOL    HW121833   5.706   6.951   4.643  1.3316 -0.9075  1.1089
 6698SOL    HW221834   5.639   6.851   4.735 -0.1683  0.4081  1.4761
 6699SOL     OW21835   8.576   4.980   8.429 -0.1799  0.8164 -0.2484
 6699SOL    HW121836   8.555   5.001   8.520  1.1622 -0.1972  0.3209
 6699SOL    HW221837   8.654   5.033   8.410  0.5488 -0.2146 -0.2374
 6700SOL     OW21838   2.178   4.473   2.021 -0.3553 -0.0080 -0.0546
 6700SOL    HW121839   2.235   4.397   2.012 -1.8006 -1.2138  0.4941
 6700SOL    HW221840   2.180   4.493   2.115 -2.7461 -1.7267  0.4835
 6701SOL     OW21841   7.977   3.281   7.285 -0.2871 -0.3983 -0.3717
 6701SOL    HW121842   7.976   3.358   7.228  0.2175 -0.1500 -0.0503
 6701SOL    HW221843   7.976   3.317   7.374 -0.8693 -0.7788 -0.2219
 6702SOL     OW21844   2.822   3.218   3.689  0.3331  0.3343 -0.6660
 6702SOL    HW121845   2.810   3.252   3.600 -0.1779 -1.0388 -1.1408
 6702SOL    HW221846   2.850   3.128   3.676  0.3525  0.1531  0.5835
 6703SOL     OW21847   9.232   7.012   7.550  0.2474  0.0114 -0.3867
 6703SOL    HW121848   9.307   7.036   7.496 -0.3308  1.3787 -0.6272
 6703SOL    HW221849   9.259   7.031   7.639 -0.0273  1.1630 -0.5325
 6704SOL     OW21850   7.836   4.282   3.012 -0.6025  0.1032  0.1488
 6704SOL    HW121851   7.912   4.291   2.955 -0.6490 -0.9422 -0.1065
 6704SOL    HW221852   7.848   4.350   3.078 -0.5335  1.3196 -1.0667
 6705SOL     OW21853   9.333   3.166   9.378  0.4292 -0.2405  0.2893
 6705SOL    HW121854   9.296   3.224   9.312 -0.3885  0.2516  1.1663
 6705SOL    HW221855   9.318   3.078   9.343 -1.2473 -0.0428  0.4309
 6706SOL     OW21856   0.825   6.052   0.277 -0.5782 -0.1450  0.0876
 6706SOL    HW121857   0.861   6.139   0.292 -0.6264  0.1403 -1.3576
 6706SOL    HW221858   0.896   6.002   0.237 -1.2285 -0.0755 -1.2067
 6707SOL     OW21859   9.399   4.258   4.719  0.3054  0.5807 -0.2399
 6707SOL    HW121860   9.392   4.344   4.679  1.3896  0.9294  0.3010
 6707SOL    HW221861   9.483   4.224   4.690 -0.4653 -0.6742 -1.1279
 6708SOL     OW21862   9.014   0.778   8.011 -0.2941 -0.0349 -0.3371
 6708SOL    HW121863   9.018   0.689   8.046 -1.6934 -0.4291 -1.1141
 6708SOL    HW221864   9.036   0.834   8.086  2.5518 -1.0456 -0.2718
 6709SOL     OW21865   3.955   1.216   6.985  0.2866 -0.0511  0.1938
 6709SOL    HW121866   3.919   1.276   7.050  0.7336  0.9787 -0.4771
 6709SOL    HW221867   4.023   1.267   6.940  2.4672 -1.8269  1.2679
 6710SOL     OW21868   5.240   8.029   3.657 -0.2942 -0.1861  0.1931
 6710SOL    HW121869   5.188   8.102   3.692 -1.7506 -1.4189  0.7084
 6710SOL    HW221870   5.182   7.987   3.593 -0.2817 -2.0634  1.3392
 6711SOL     OW21871   8.531   0.156   2.932 -0.6788  0.8283 -0.5921
 6711SOL    HW121872   8.493   0.069   2.918 -2.4128  1.4792 -0.2327
 6711SOL    HW221873   8.455   0.215   2.932  0.2071  2.0636  1.5552
 6712SOL     OW21874   2.479   6.896   7.941  0.1675  0.4990  0.5906
 6712SOL    HW121875   2.407   6.924   7.998 -0.0576  0.5482  0.2791
 6712SOL    HW221876   2.437   6.870   7.859  0.3919 -0.5591  0.7976
 6713SOL     OW21877   2.551   3.141   1.837  0.5423 -0.1031  0.4279
 6713SOL    HW121878   2.555   3.198   1.914  2.1314  0.8461 -0.2975
 6713SOL    HW221879   2.631   3.161   1.789 -0.6497 -0.2449 -1.7538
 6714SOL     OW21880   2.323   9.570   5.706  0.4071 -0.2117  0.3224
 6714SOL    HW121881   2.418   9.576   5.713  0.3970 -0.3073  0.5202
 6714SOL    HW221882   2.291   9.655   5.736  0.4889  0.2730 -0.8865
 6715SOL     OW21883   1.241   2.403   9.124  0.4344  0.1375  0.2886
 6715SOL    HW121884   1.312   2.381   9.184  0.4948 -0.0812  0.1354
 6715SOL    HW221885   1.259   2.493   9.098 -0.4542  0.8026  1.8329
 6716SOL     OW21886   7.271   6.008   8.937  0.3330 -0.2430 -0.7754
 6716SOL    HW121887   7.212   5.935   8.958 -0.3616  0.0075 -1.8045
 6716SOL    HW221888   7.327   6.017   9.015 -0.7305 -0.7293  0.0645
 6717SOL     OW21889   4.926   5.038   3.333 -0.0588 -0.4538 -0.3974
 6717SOL    HW121890   4.864   5.048   3.261  0.5209 -0.1733 -0.8616
 6717SOL    HW221891   4.922   4.945   3.355 -1.1747 -0.3176  0.0661
 6718SOL     OW21892   5.075   7.327   0.842  0.2865 -0.7626  0.4065
 6718SOL    HW121893   4.992   7.294   0.807 -0.1809 -0.6692  1.4173
 6718SOL    HW221894   5.135   7.252   0.836 -0.7815 -1.9005  2.7487
 6719SOL     OW21895   8.448   2.229   0.707  0.0207 -0.0914  0.2118
 6719SOL    HW121896   8.486   2.301   0.657  0.3663  0.4046  1.1569
 6719SOL    HW221897   8.394   2.272   0.773 -1.6917 -0.7687 -0.6878
 6720SOL     OW21898   6.875   1.742   1.738 -0.4124 -0.1372  0.4829
 6720SOL    HW121899   6.902   1.702   1.656 -0.5201  1.3947 -0.3219
 6720SOL    HW221900   6.823   1.674   1.781  0.0042 -1.1085 -0.5056
 6721SOL     OW21901   3.892   8.656   6.824 -0.1202 -0.4377 -0.3447
 6721SOL    HW121902   3.936   8.699   6.751 -1.8841 -1.8225 -2.3701
 6721SOL    HW221903   3.837   8.724   6.863  0.4542  0.1948 -0.6184
 6722SOL     OW21904   2.871   2.529   4.103  0.2208 -0.4736 -0.2174
 6722SOL    HW121905   2.932   2.502   4.171  0.1896  0.1225  0.0551
 6722SOL    HW221906   2.880   2.463   4.034 -0.1073 -1.3660  0.5708
 6723SOL     OW21907   6.811   4.692   1.886 -0.2194 -0.1461 -0.1183
 6723SOL    HW121908   6.851   4.624   1.831  1.3445  0.0334  0.7189
 6723SOL    HW221909   6.859   4.685   1.969 -1.1795  0.8881  0.5425
 6724SOL     OW21910   7.332   6.363   2.612  0.0215 -0.8593 -0.3052
 6724SOL    HW121911   7.314   6.457   2.613  0.1225 -0.8392  0.7708
 6724SOL    HW221912   7.416   6.355   2.657 -0.0314 -1.4739 -0.3118
 6725SOL     OW21913   8.433   1.597   8.095  0.6398 -0.1776 -0.3314
 6725SOL    HW121914   8.517   1.629   8.130  0.7877  0.0881 -0.9107
 6725SOL    HW221915   8.457   1.520   8.043  0.5501 -0.0095 -0.6259
 6726SOL     OW21916   1.861   2.745   3.210 -0.2068  0.2541 -0.0462
 6726SOL    HW121917   1.771   2.711   3.213 -0.1848 -0.0752 -1.9514
 6726SOL    HW221918   1.914   2.678   3.253 -0.7957  0.2231  0.6573
 6727SOL     OW21919   3.283   0.369   3.745  0.4423 -0.3613  0.4769
 6727SOL    HW121920   3.351   0.430   3.775 -0.2926  0.2339  0.9589
 6727SOL    HW221921   3.328   0.284   3.740  1.5166  0.2341 -0.3413
 6728SOL     OW21922   3.259   5.428   5.805 -0.0436 -0.2114 -0.4080
 6728SOL    HW121923   3.267   5.404   5.897 -1.2842  1.2268  0.1227
 6728SOL    HW221924   3.343   5.466   5.782  0.0237  0.1249  0.3700
 6729SOL     OW21925   6.097   9.565   7.644  0.3194  0.6857 -0.1004
 6729SOL    HW121926   6.166   9.501   7.627  0.8001  1.1292  0.1380
 6729SOL    HW221927   6.044   9.565   7.564 -0.3555 -0.8041  0.3164
 6730SOL     OW21928   1.816   1.407   1.782  0.0826 -0.4695 -0.1534
 6730SOL    HW121929   1.898   1.367   1.752  0.6978 -0.7903  1.8507
 6730SOL    HW221930   1.782   1.452   1.704  2.1867 -0.2475 -1.0129
 6731SOL     OW21931   6.117   5.729   2.970 -0.8395 -0.2159 -0.2253
 6731SOL    HW121932   6.032   5.762   2.997 -0.5436  0.8239 -0.5139
 6731SOL    HW221933   6.169   5.727   3.051 -0.9735 -0.3490 -0.1419
 6732SOL     OW21934   2.633   3.909   2.963 -0.4197  0.2156 -0.4089
 6732SOL    HW121935   2.577   3.983   2.938  0.3860  1.3947  1.0447
 6732SOL    HW221936   2.700   3.949   3.020  0.2529 -1.5895  0.1237
 6733SOL     OW21937   0.512   4.087   0.709 -0.8541  0.7062 -0.0759
 6733SOL    HW121938   0.603   4.057   0.708 -0.9351  0.4540  0.0110
 6733SOL    HW221939   0.473   4.043   0.785 -1.5912 -0.7843 -1.2708
 6734SOL     OW21940   7.614   3.567   5.760 -0.2015 -0.1002  0.2570
 6734SOL    HW121941   7.602   3.640   5.700 -0.3838  1.0569  1.6442
 6734SOL    HW221942   7.535   3.567   5.814 -0.3212 -1.5027  0.1187
 6735SOL     OW21943   3.528   2.889   2.246 -0.3627  0.1983  0.2202
 6735SOL    HW121944   3.452   2.948   2.249  0.5479  1.3926  0.2172
 6735SOL    HW221945   3.579   2.911   2.324  0.4573  0.0548 -0.2638
 6736SOL     OW21946   7.497   0.732   8.647  0.0868 -0.1160  0.4616
 6736SOL    HW121947   7.574   0.788   8.637  0.5608 -0.9792 -1.2738
 6736SOL    HW221948   7.422   0.791   8.641  0.5690  0.7472  2.2247
 6737SOL     OW21949   7.382   3.611   4.335  0.2167  0.2611 -0.4122
 6737SOL    HW121950   7.375   3.529   4.286 -0.3282  1.2800 -2.1699
 6737SOL    HW221951   7.295   3.626   4.370  0.3992 -0.0711  0.1827
 6738SOL     OW21952   4.947   4.559   0.870 -0.2911  0.6313  0.7910
 6738SOL    HW121953   4.974   4.651   0.877  1.0644  0.3361 -0.3544
 6738SOL    HW221954   4.963   4.523   0.957 -2.2835  1.8030  1.7309
 6739SOL     OW21955   0.884   3.278   4.423 -0.3302 -0.2503 -0.2161
 6739SOL    HW121956   0.844   3.262   4.508 -0.8473  0.9236 -0.2169
 6739SOL    HW221957   0.870   3.371   4.407  1.9784  0.1280 -0.4409
 6740SOL     OW21958   1.108   6.746   6.274 -0.2378  0.0403  0.2337
 6740SOL    HW121959   1.200   6.771   6.264 -0.9207  1.7755 -2.9134
 6740SOL    HW221960   1.111   6.653   6.297  2.2832  0.3622  1.5421
 6741SOL     OW21961   1.136   4.001   0.979  0.2675  0.8752  0.1415
 6741SOL    HW121962   1.225   4.037   0.969  0.8138 -0.3507  0.4729
 6741SOL    HW221963   1.107   4.034   1.064  1.8824 -1.6653  1.8185
 6742SOL     OW21964   3.140   4.155   7.831 -0.1653  0.2616 -0.0904
 6742SOL    HW121965   3.070   4.213   7.861 -0.0291  0.1541  0.4391
 6742SOL    HW221966   3.215   4.175   7.887  0.4676  0.9019 -1.1486
 6743SOL     OW21967   8.914   9.414   6.053 -0.4151 -0.3838  0.4121
 6743SOL    HW121968   8.951   9.498   6.027 -1.9103  0.4830  0.9967
 6743SOL    HW221969   8.832   9.407   6.005 -0.3740 -1.4695  0.4660
 6744SOL     OW21970   6.798   8.340   4.302  0.2621  0.0837  0.2470
 6744SOL    HW121971   6.831   8.336   4.212 -1.0960  0.9547 -0.3112
 6744SOL    HW221972   6.844   8.268   4.347  2.1237  0.6025 -0.7160
 6745SOL     OW21973   5.660   5.470   6.522 -0.1801  0.4563 -0.1778
 6745SOL    HW121974   5.719   5.529   6.475 -0.8254  1.1754 -0.0998
 6745SOL    HW221975   5.677   5.384   6.483  1.5149  0.4775  0.4016
 6746SOL     OW21976   3.463   4.877   6.040 -0.1995  0.2988 -0.2611
 6746SOL    HW121977   3.367   4.875   6.045 -0.4970  0.0364 -3.5405
 6746SOL    HW221978   3.488   4.786   6.023  0.3892  0.6918 -1.5967
 6747SOL     OW21979   8.657   6.002   1.158  0.3714 -0.3837  0.1808
 6747SOL    HW121980   8.653   5.907   1.153 -1.5223 -0.3021 -0.8178
 6747SOL    HW221981   8.675   6.031   1.069 -0.6402  0.2234  0.1590
 6748SOL     OW21982   8.855   9.424   1.643 -0.2302  0.7196  0.4830
 6748SOL    HW121983   8.772   9.462   1.614 -0.9459  0.4976  2.1599
 6748SOL    HW221984   8.836   9.331   1.655  0.7614  0.3117 -0.8503
 6749SOL     OW21985   9.024   4.410   5.875 -0.0283 -0.2814 -0.1970
 6749SOL    HW121986   9.009   4.321   5.906  0.8340 -0.7711 -1.1402
 6749SOL    HW221987   8.937   4.449   5.869 -0.3300 -0.6986  1.2454
 6750SOL     OW21988   4.715   7.885   6.916  0.3959 -0.2444 -0.0369
 6750SOL    HW121989   4.660   7.959   6.943  0.1779 -0.6492  0.6589
 6750SOL    HW221990   4.661   7.837   6.853  0.1551 -0.3408  0.2373
 6751SOL     OW21991   2.480   3.768   5.004 -0.3138 -0.0710  0.2116
 6751SOL    HW121992   2.474   3.778   5.099 -1.9348 -0.5977  0.2065
 6751SOL    HW221993   2.389   3.772   4.974  0.0778 -0.9942 -1.1968
 6752SOL     OW21994   7.149   0.259   6.406  0.7352 -0.2999 -0.5298
 6752SOL    HW121995   7.134   0.240   6.314  4.0802  0.0210 -1.2559
 6752SOL    HW221996   7.153   0.355   6.410 -0.8956 -0.2327  0.2868
 6753SOL     OW21997   0.965   5.316   5.152  0.4387 -0.4386 -0.2544
 6753SOL    HW121998   0.992   5.249   5.214  1.1173  1.5610  1.7791
 6753SOL    HW221999   0.881   5.287   5.119  0.6748 -2.2092  0.6240
 6754SOL     OW22000   3.589   8.577   7.018  0.4659 -0.5699  0.0347
 6754SOL    HW122001   3.619   8.515   6.952  0.3731  0.0638 -0.6134
 6754SOL    HW222002   3.521   8.628   6.975 -0.1682 -0.6803  0.8770
 6755SOL     OW22003   2.233   0.580   8.850 -0.0880 -0.0999  0.3888
 6755SOL    HW122004   2.255   0.528   8.927  0.9979  0.7914  0.7143
 6755SOL    HW222005   2.303   0.645   8.844 -1.8430  1.9436  0.5584
 6756SOL     OW22006   2.201   7.529   2.549  0.5154 -0.0692 -0.6504
 6756SOL    HW122007   2.280   7.548   2.499  0.7187  1.3688  0.1595
 6756SOL    HW222008   2.222   7.553   2.639 -0.5383 -0.5661 -0.2435
 6757SOL     OW22009   0.312   9.023   0.870  0.0559  0.0973 -0.0266
 6757SOL    HW122010   0.346   9.070   0.795 -2.0609  0.2129 -0.9841
 6757SOL    HW222011   0.329   9.080   0.945  1.9572  0.0911 -0.4049
 6758SOL     OW22012   8.800   6.327   1.548  0.3545 -0.3055  0.4966
 6758SOL    HW122013   8.828   6.238   1.524  0.1092 -0.7243  1.6807
 6758SOL    HW222014   8.712   6.335   1.512  1.5330  0.6765 -2.4367
 6759SOL     OW22015   7.019   3.209   0.496 -0.7468 -0.2542  0.2152
 6759SOL    HW122016   6.961   3.153   0.444 -0.9290 -1.4764  1.6415
 6759SOL    HW222017   7.097   3.155   0.510  0.3566  0.9925 -0.8253
 6760SOL     OW22018   8.844   3.940   3.485  0.2445  0.5814  0.3725
 6760SOL    HW122019   8.849   4.031   3.514  1.5066  0.2628  1.2670
 6760SOL    HW222020   8.824   3.946   3.392 -1.5921  1.7065  0.7815
 6761SOL     OW22021   0.090   3.256   2.796 -0.6801 -0.4343  0.1973
 6761SOL    HW122022   0.106   3.185   2.734 -0.3420 -0.2535  0.0736
 6761SOL    HW222023   0.133   3.227   2.877 -0.1802 -0.1916  0.0253
 6762SOL     OW22024   0.566   2.703   5.272  0.2489 -0.0322 -0.4031
 6762SOL    HW122025   0.539   2.635   5.334  0.5296  0.5123  0.3357
 6762SOL    HW222026   0.525   2.678   5.189 -2.3188  0.6065  0.5679
 6763SOL     OW22027   5.952   3.832   9.505  0.0578  0.0322 -0.1700
 6763SOL    HW122028   5.894   3.881   9.448  0.1755  0.1429 -0.1951
 6763SOL    HW222029   5.923   3.741   9.497  0.4073 -0.0291 -0.8183
 6764SOL     OW22030   4.000   4.151   1.851  0.3624  0.1744  0.5880
 6764SOL    HW122031   3.997   4.097   1.930 -2.2423 -1.6299 -0.5586
 6764SOL    HW222032   4.057   4.102   1.791 -1.0832 -0.8353 -0.0469
 6765SOL     OW22033   5.687   8.368   5.803  0.2264  0.6938  0.1235
 6765SOL    HW122034   5.713   8.460   5.800 -0.0011  0.7704  0.4706
 6765SOL    HW222035   5.768   8.321   5.824  0.2121  0.8778  0.6087
 6766SOL     OW22036   2.431   4.165   4.969  0.7453  0.1143  0.0481
 6766SOL    HW122037   2.336   4.159   4.977  0.7774 -0.7356 -0.1029
 6766SOL    HW222038   2.446   4.181   4.876  0.7927 -1.0553 -0.1551
 6767SOL     OW22039   5.403   0.865   8.540 -0.4605 -0.8627 -0.1599
 6767SOL    HW122040   5.422   0.804   8.612 -1.6383  0.4340  1.3358
 6767SOL    HW222041   5.312   0.849   8.518 -1.4547  1.5946  1.6632
 6768SOL     OW22042   1.304   2.640   7.710  0.8474 -0.6806  0.9506
 6768SOL    HW122043   1.280   2.549   7.690  1.1189 -0.2529 -1.6116
 6768SOL    HW222044   1.321   2.640   7.805 -2.1045 -2.6053  1.6227
 6769SOL     OW22045   1.282   0.625   3.367 -0.5936  0.5945 -0.1345
 6769SOL    HW122046   1.232   0.706   3.361  1.0182  1.5818 -1.1126
 6769SOL    HW222047   1.363   0.650   3.413  0.3373 -0.1982 -1.2736
 6770SOL     OW22048   0.964   1.747   5.331  0.7033 -0.2266  0.2479
 6770SOL    HW122049   0.970   1.798   5.250 -1.5515 -1.1079 -0.5528
 6770SOL    HW222050   0.912   1.802   5.389  0.6516 -0.4251  0.3900
 6771SOL     OW22051   9.228   2.342   8.636 -0.7039  0.0895 -0.0612
 6771SOL    HW122052   9.293   2.400   8.597 -2.3725  1.6498 -0.6544
 6771SOL    HW222053   9.209   2.380   8.722  2.5797 -3.0474  2.3813
 6772SOL     OW22054   7.368   3.628   8.278  0.4527  0.6361 -0.0682
 6772SOL    HW122055   7.330   3.606   8.193  3.8248  1.7022 -2.0662
 6772SOL    HW222056   7.383   3.543   8.320 -0.3386  0.0172 -0.9998
 6773SOL     OW22057   5.228   3.230   3.944 -0.7205 -0.4979 -0.1069
 6773SOL    HW122058   5.242   3.206   3.852 -2.8216  0.1144 -0.6384
 6773SOL    HW222059   5.303   3.286   3.966 -0.8019  0.3338 -1.8148
 6774SOL     OW22060   8.919   1.821   6.071 -0.0550  0.3863 -0.4430
 6774SOL    HW122061   8.872   1.742   6.096 -0.0871  0.7948  0.8919
 6774SOL    HW222062   8.979   1.793   6.002  0.3802 -0.9342  0.4334
 6775SOL     OW22063   0.853   1.064   6.441 -0.4818 -0.2538 -0.4521
 6775SOL    HW122064   0.932   1.085   6.491  0.9582 -0.2224 -2.5590
 6775SOL    HW222065   0.790   1.034   6.506  1.2048 -0.1133  1.3518
 6776SOL     OW22066   3.630   4.238   3.108 -0.2186 -0.2294 -0.0477
 6776SOL    HW122067   3.610   4.228   3.201  0.6753 -1.8862  0.0109
 6776SOL    HW222068   3.559   4.292   3.073 -0.2124  0.9827  1.7017
 6777SOL     OW22069   8.002   1.251   2.057 -0.1920 -0.1574  0.1747
 6777SOL    HW122070   8.068   1.183   2.040 -0.9514 -0.6913 -0.7326
 6777SOL    HW222071   8.014   1.314   1.987  0.0751  0.3211  0.6433
 6778SOL     OW22072   3.723   5.746   1.073 -0.3139  0.0267  0.2324
 6778SOL    HW122073   3.698   5.807   1.003  1.7200  0.2081 -0.3821
 6778SOL    HW222074   3.691   5.661   1.042 -1.4438  0.4531  0.1769
 6779SOL     OW22075   3.257   4.695   1.228  0.1027 -0.0904 -0.0712
 6779SOL    HW122076   3.255   4.614   1.177  0.7175 -0.5520  0.6068
 6779SOL    HW222077   3.324   4.749   1.185 -1.4063  0.7466 -1.4817
 6780SOL     OW22078   8.400   9.500   5.325  0.6159  0.1128 -0.4438
 6780SOL    HW122079   8.431   9.468   5.240  0.6199  1.5556 -1.0212
 6780SOL    HW222080   8.320   9.451   5.342  1.5016 -1.4098 -0.4462
 6781SOL     OW22081   6.466   3.751   6.419  0.0601  0.0049  0.1358
 6781SOL    HW122082   6.453   3.720   6.329  0.1520 -0.7382  0.3731
 6781SOL    HW222083   6.478   3.846   6.410  0.6478 -0.1358 -0.7002
 6782SOL     OW22084   5.607   0.306   8.591  0.0442  0.1720  0.0592
 6782SOL    HW122085   5.637   0.340   8.675 -0.8197  0.3614  0.3027
 6782SOL    HW222086   5.573   0.382   8.545  0.0326 -0.0169 -0.2493
 6783SOL     OW22087   8.043   7.166   3.496 -0.1112  0.4209 -0.0429
 6783SOL    HW122088   7.969   7.219   3.465 -0.8329 -0.3362  0.3622
 6783SOL    HW222089   8.120   7.210   3.459 -0.7775  1.0105 -0.7809
 6784SOL     OW22090   5.952   0.305   4.962 -0.1746 -0.0940  0.6278
 6784SOL    HW122091   5.863   0.273   4.950  0.0810 -0.8589  0.7696
 6784SOL    HW222092   5.966   0.306   5.056 -0.1626  0.3923  0.6242
 6785SOL     OW22093   9.516   6.117   4.083  0.0570  0.3786  0.5754
 6785SOL    HW122094   9.430   6.151   4.059 -0.0755 -0.2978  0.0314
 6785SOL    HW222095   9.578   6.178   4.043 -0.1536 -0.9379 -1.9941
 6786SOL     OW22096   5.555   6.676   7.276 -0.0321  0.1026 -0.1947
 6786SOL    HW122097   5.472   6.654   7.234  0.3887  0.0082 -1.0179
 6786SOL    HW222098   5.617   6.680   7.203  0.7105  0.0295  0.4233
 6787SOL     OW22099   3.362   7.827   5.278 -0.0164  0.5738  0.3020
 6787SOL    HW122100   3.302   7.787   5.341  1.2041  0.1586  1.2532
 6787SOL    HW222101   3.400   7.901   5.325  0.1576  0.8827 -0.3170
 6788SOL     OW22102   2.579   5.737   7.265 -0.1270  0.0835  0.4109
 6788SOL    HW122103   2.595   5.803   7.332 -1.2854  1.1467 -0.3039
 6788SOL    HW222104   2.632   5.765   7.190  0.7767 -0.8209  0.6921
 6789SOL     OW22105   1.711   6.641   4.800  0.0240  0.4810 -0.4153
 6789SOL    HW122106   1.806   6.649   4.804 -0.0829  1.6557  0.3894
 6789SOL    HW222107   1.695   6.546   4.796  1.2414  0.3024 -1.8467
 6790SOL     OW22108   2.149   6.085   1.078  0.3433  0.3878 -0.3123
 6790SOL    HW122109   2.070   6.054   1.122  0.6679 -0.3334 -0.2152
 6790SOL    HW222110   2.221   6.046   1.127  0.8172  1.9523  0.3032
 6791SOL     OW22111   3.172   1.917   2.563 -0.1527 -0.1504 -0.1257
 6791SOL    HW122112   3.187   1.945   2.473 -0.4575  2.2978  0.5073
 6791SOL    HW222113   3.245   1.857   2.582 -0.3113 -1.0435 -2.0679
 6792SOL     OW22114   4.794   0.380   8.116  0.6836 -0.4882 -0.2059
 6792SOL    HW122115   4.711   0.369   8.070  0.3014  1.7392 -0.1814
 6792SOL    HW222116   4.859   0.384   8.046  0.4855 -0.0816 -0.3695
 6793SOL     OW22117   0.090   3.194   5.690 -0.1632  0.0579 -0.0095
 6793SOL    HW122118   0.089   3.121   5.627 -0.1659  0.0127  0.0426
 6793SOL    HW222119  -0.001   3.202   5.719  0.2740 -2.0265  2.3924
 6794SOL     OW22120   0.274   3.783   5.693  0.4597 -0.1189 -0.1595
 6794SOL    HW122121   0.230   3.717   5.747  0.1245 -0.4764 -0.8587
 6794SOL    HW222122   0.221   3.862   5.703  0.3089 -0.2293 -0.0904
 6795SOL     OW22123   4.331   2.906   3.180 -0.6743  0.3455  0.2646
 6795SOL    HW122124   4.256   2.955   3.146  0.5792  0.9636 -1.7941
 6795SOL    HW222125   4.364   2.960   3.252 -0.9466  1.1667 -0.2090
 6796SOL     OW22126   9.312   0.987   2.669  0.0339 -0.4821  0.3574
 6796SOL    HW122127   9.336   0.908   2.718  0.6164 -1.4147 -1.3143
 6796SOL    HW222128   9.245   0.957   2.607  1.8073 -0.2698 -1.8174
 6797SOL     OW22129   7.614   4.664   2.207  0.2087 -0.1315 -1.0374
 6797SOL    HW122130   7.698   4.705   2.184  0.6814 -1.9205 -2.7656
 6797SOL    HW222131   7.636   4.595   2.268 -0.3780  1.0101  0.5312
 6798SOL     OW22132   1.382   5.480   6.682 -0.1053 -0.3097 -0.5632
 6798SOL    HW122133   1.424   5.475   6.596  0.4198 -0.1258 -0.3238
 6798SOL    HW222134   1.386   5.391   6.716  0.2444 -0.2610 -0.4732
 6799SOL     OW22135   3.720   7.746   0.657 -0.0424  0.6523  0.5208
 6799SOL    HW122136   3.760   7.807   0.719  0.1964  0.2997  0.7104
 6799SOL    HW222137   3.787   7.681   0.639 -0.5886 -0.0495  0.9787
 6800SOL     OW22138   8.982   8.436   2.286  0.2222 -0.1275  0.3030
 6800SOL    HW122139   8.942   8.513   2.246  0.3845 -0.3790 -0.3468
 6800SOL    HW222140   9.062   8.469   2.328  1.0788 -0.1657 -1.2231
 6801SOL     OW22141   4.862   3.881   6.832  0.0940 -0.1831  0.4726
 6801SOL    HW122142   4.868   3.785   6.828 -1.7194 -0.3265  0.0555
 6801SOL    HW222143   4.916   3.906   6.907  3.3245 -1.1868 -1.3355
 6802SOL     OW22144   6.681   8.480   2.004 -0.0516 -0.4366  0.7840
 6802SOL    HW122145   6.708   8.474   1.912 -0.8268  1.6956  0.3413
 6802SOL    HW222146   6.747   8.537   2.044 -1.3442  1.1726  0.7525
 6803SOL     OW22147   0.322   4.147   2.614 -0.7545 -0.5888  0.4609
 6803SOL    HW122148   0.242   4.198   2.621 -1.3313 -1.0034 -1.9582
 6803SOL    HW222149   0.292   4.059   2.593  0.3087 -0.6921 -0.7443
 6804SOL     OW22150   4.043   1.571   3.935 -0.6510  0.5173 -0.0391
 6804SOL    HW122151   4.071   1.518   3.860 -0.4262  0.4724  0.0756
 6804SOL    HW222152   3.958   1.607   3.909  0.0938  1.7221 -0.9215
 6805SOL     OW22153   8.919   1.109   2.383  0.2035  0.0622  0.0001
 6805SOL    HW122154   8.906   1.014   2.375 -1.4944  0.3570 -1.4903
 6805SOL    HW222155   8.831   1.145   2.384  0.8273  1.6659  0.2557
 6806SOL     OW22156   0.637   8.189   2.693  0.0967  0.0499 -0.7066
 6806SOL    HW122157   0.629   8.139   2.612 -1.0561 -0.4924 -0.2813
 6806SOL    HW222158   0.599   8.275   2.673 -1.0453 -0.3980 -0.4867
 6807SOL     OW22159   3.113   9.233   7.137 -0.3861  0.2038  0.1207
 6807SOL    HW122160   3.203   9.236   7.104 -0.4807  0.3809 -0.1141
 6807SOL    HW222161   3.104   9.313   7.189 -0.5899  0.4578 -0.3099
 6808SOL     OW22162   6.130   9.248   1.121  0.3165  0.3585 -0.0747
 6808SOL    HW122163   6.166   9.187   1.056 -2.2205 -0.4938 -0.7705
 6808SOL    HW222164   6.134   9.200   1.204  1.5047  0.6087  0.0328
 6809SOL     OW22165   8.092   5.335   7.634 -0.7499  0.6415 -0.0022
 6809SOL    HW122166   8.093   5.372   7.546 -0.2240 -1.1484 -0.8107
 6809SOL    HW222167   8.139   5.252   7.625 -0.7628  0.3778  1.9588
 6810SOL     OW22168   1.288   7.061   7.178 -0.1001 -0.1385 -0.2071
 6810SOL    HW122169   1.281   7.032   7.269  2.4418  1.1727  0.4913
 6810SOL    HW222170   1.330   6.988   7.133  0.5560  0.0071  0.1565
 6811SOL     OW22171   0.477   5.677   2.248 -0.4065  0.6489 -0.0768
 6811SOL    HW122172   0.501   5.672   2.341  2.4454 -1.4034 -0.7849
 6811SOL    HW222173   0.537   5.742   2.211 -2.8051  2.8980 -0.2415
 6812SOL     OW22174   3.800   3.983   6.415 -0.5270  0.4747  0.0102
 6812SOL    HW122175   3.854   3.904   6.428  0.3436  0.9439 -0.6212
 6812SOL    HW222176   3.804   4.000   6.321  0.8988  2.3414  0.3423
 6813SOL     OW22177   1.318   4.526   6.015 -0.3915  0.3006  0.0837
 6813SOL    HW122178   1.296   4.564   6.100 -1.7490  0.6952 -0.4255
 6813SOL    HW222179   1.290   4.591   5.951  2.0733  0.7205 -0.6709
 6814SOL     OW22180   8.627   6.320   2.560  0.1341  0.3530 -0.8833
 6814SOL    HW122181   8.717   6.318   2.593  0.3314 -0.3758 -1.4239
 6814SOL    HW222182   8.588   6.397   2.600  1.5692  1.7947 -2.1533
 6815SOL     OW22183   0.315   2.033   9.390  0.1481  0.7857  0.1866
 6815SOL    HW122184   0.287   2.121   9.412  2.2293  1.6560 -0.3875
 6815SOL    HW222185   0.405   2.028   9.422 -0.3872 -1.6674  1.5529
 6816SOL     OW22186   2.991   1.055   2.279 -0.0065  0.6410  0.3199
 6816SOL    HW122187   3.061   1.060   2.213 -0.6896  1.2589 -0.3789
 6816SOL    HW222188   2.912   1.078   2.231 -0.2985  2.8760  1.7453
 6817SOL     OW22189   6.825   3.323   9.163  0.0793 -0.5427 -0.7152
 6817SOL    HW122190   6.744   3.275   9.179  0.2366 -0.8482 -0.8245
 6817SOL    HW222191   6.813   3.364   9.078  0.4213 -1.3974 -1.1866
 6818SOL     OW22192   2.296   0.364   0.178  0.5298  0.0316 -0.1816
 6818SOL    HW122193   2.329   0.436   0.232 -0.1684  1.5761 -1.7342
 6818SOL    HW222194   2.315   0.286   0.230 -0.1717  1.4119  2.3493
 6819SOL     OW22195   7.214   0.184   6.147  0.2549  0.3223 -0.1623
 6819SOL    HW122196   7.289   0.124   6.153  0.0835  0.2474  1.5450
 6819SOL    HW222197   7.146   0.132   6.105  0.8281  0.0773 -0.8202
 6820SOL     OW22198   5.450   2.831   2.577  0.3486 -0.0151 -0.3041
 6820SOL    HW122199   5.407   2.802   2.496  1.3946  0.2013 -0.9482
 6820SOL    HW222200   5.383   2.883   2.621 -0.1714  0.0352 -1.1189
 6821SOL     OW22201   5.526   1.837   1.036  0.0838  0.0545 -0.2387
 6821SOL    HW122202   5.589   1.906   1.058  0.1261 -0.1588  0.3276
 6821SOL    HW222203   5.571   1.783   0.970  0.0256  0.5986 -0.7337
 6822SOL     OW22204   5.926   4.958   7.107 -0.1747  0.2610  0.4476
 6822SOL    HW122205   5.838   4.931   7.135  0.1124  0.8105  1.9573
 6822SOL    HW222206   5.921   5.053   7.099  0.0099  0.2049 -0.5526
 6823SOL     OW22207   6.291   0.351   5.176 -0.3108 -0.1349 -0.0026
 6823SOL    HW122208   6.285   0.295   5.098  0.5555 -0.3426  0.0736
 6823SOL    HW222209   6.235   0.426   5.156  0.3498  0.0888 -1.0614
 6824SOL     OW22210   3.013   2.970   2.764 -0.4457 -0.0341 -0.2593
 6824SOL    HW122211   3.077   2.908   2.728 -0.1720 -1.4286  2.3551
 6824SOL    HW222212   3.033   3.053   2.722  2.1074 -0.7675 -0.6285
 6825SOL     OW22213   0.959   4.623   7.772  0.0843 -0.7044 -0.1528
 6825SOL    HW122214   1.013   4.631   7.694  0.8272 -0.0703  0.4088
 6825SOL    HW222215   0.952   4.713   7.806  1.4191 -1.2058  1.5862
 6826SOL     OW22216   0.308   2.539   4.430 -0.2611 -0.5173  0.4183
 6826SOL    HW122217   0.378   2.487   4.390 -0.7276 -0.6152 -0.2756
 6826SOL    HW222218   0.277   2.595   4.360 -2.3699 -2.0142  0.0804
 6827SOL     OW22219   0.237   1.493   5.813  0.1475 -0.4711  0.4329
 6827SOL    HW122220   0.177   1.448   5.872 -0.3522  0.4741  0.6581
 6827SOL    HW222221   0.181   1.546   5.757  0.5449 -1.7921 -1.3268
 6828SOL     OW22222   8.206   3.156   7.450 -1.3363  0.1174  0.2407
 6828SOL    HW122223   8.131   3.120   7.403 -0.1133 -0.5041 -1.3394
 6828SOL    HW222224   8.194   3.127   7.540 -1.1062 -3.2290 -0.6873
 6829SOL     OW22225   6.731   3.442   7.933  0.2905 -0.3316  0.1293
 6829SOL    HW122226   6.777   3.522   7.960 -0.8000 -0.1950  1.7712
 6829SOL    HW222227   6.657   3.474   7.881 -0.7038 -0.1578  1.5997
 6830SOL     OW22228   7.487   4.108   0.443 -0.3004 -0.2824  0.1652
 6830SOL    HW122229   7.412   4.165   0.450 -0.3702  0.3345 -3.6374
 6830SOL    HW222230   7.454   4.030   0.398  1.4424  0.7456 -3.2889
 6831SOL     OW22231   3.987   7.868   8.998  0.0314  0.2778 -0.1365
 6831SOL    HW122232   3.894   7.882   9.019 -0.2341 -0.2993 -0.8807
 6831SOL    HW222233   3.988   7.784   8.951  0.6770  1.1855 -1.8183
 6832SOL     OW22234   4.535   1.400   8.020 -0.1765  0.0382 -0.1908
 6832SOL    HW122235   4.568   1.311   8.034 -0.5160  0.1425  1.5211
 6832SOL    HW222236   4.582   1.431   7.943  0.8312 -1.1979 -0.1137
 6833SOL     OW22237   2.669   5.684   2.883 -0.2782 -0.2202 -0.3792
 6833SOL    HW122238   2.601   5.747   2.860 -1.2062  0.1877  2.9678
 6833SOL    HW222239   2.728   5.733   2.940 -0.3695 -1.9861  1.3279
 6834SOL     OW22240   4.873   3.877   3.991  0.6340  0.4744  0.3545
 6834SOL    HW122241   4.782   3.905   4.000  0.4949  0.2103 -0.1628
 6834SOL    HW222242   4.895   3.896   3.900  1.0471  0.3915  0.4365
 6835SOL     OW22243   1.483   3.766   2.651  0.2786 -0.2437  0.2053
 6835SOL    HW122244   1.487   3.671   2.661  3.1253  0.0011  3.6695
 6835SOL    HW222245   1.433   3.796   2.728  1.0962  1.1051  0.2434
 6836SOL     OW22246   7.841   8.618   3.640 -0.1131 -0.6333 -0.7737
 6836SOL    HW122247   7.908   8.664   3.588  0.4025  1.3918  1.4929
 6836SOL    HW222248   7.890   8.550   3.686  0.2572  0.1927  0.0998
 6837SOL     OW22249   4.046   4.824   4.812  0.1274  0.1244  0.3444
 6837SOL    HW122250   4.027   4.756   4.877 -0.0902 -0.4738 -0.3391
 6837SOL    HW222251   4.123   4.869   4.848  1.0857 -1.3114  0.2013
 6838SOL     OW22252   7.756   9.362   7.565 -0.2128 -0.1208  0.0452
 6838SOL    HW122253   7.753   9.329   7.655 -0.4766  1.4349  0.6274
 6838SOL    HW222254   7.834   9.321   7.527  0.2582 -0.3134  1.1826
 6839SOL     OW22255   5.803   9.220   8.461  0.0972  0.7308  0.5755
 6839SOL    HW122256   5.789   9.147   8.400 -1.0906  0.2460  1.3939
 6839SOL    HW222257   5.781   9.298   8.411  2.7108  0.7375 -0.7665
 6840SOL     OW22258   8.567   1.609   1.126 -0.1301  0.2385 -0.2881
 6840SOL    HW122259   8.608   1.653   1.201 -0.5652  0.2881 -0.0768
 6840SOL    HW222260   8.614   1.643   1.050  1.6361 -1.2647  0.0730
 6841SOL     OW22261   9.453   7.961   6.741  0.0198 -0.2332 -0.5812
 6841SOL    HW122262   9.426   7.872   6.717  0.5251 -0.7808  0.7800
 6841SOL    HW222263   9.547   7.954   6.755 -0.2162  0.0726  1.3433
 6842SOL     OW22264   2.900   6.239   1.881 -0.0149  0.1572  0.0032
 6842SOL    HW122265   2.967   6.189   1.834 -1.0483 -1.4095  0.1538
 6842SOL    HW222266   2.891   6.195   1.965 -2.1196 -0.4649 -0.4900
 6843SOL     OW22267   0.717   5.525   2.091 -0.3620  0.1049  0.3808
 6843SOL    HW122268   0.774   5.594   2.123 -2.3447  3.2083 -2.1980
 6843SOL    HW222269   0.773   5.475   2.030  0.7298  0.1995  1.2607
 6844SOL     OW22270   7.058   8.388   1.470 -0.0455  0.2093 -0.1844
 6844SOL    HW122271   6.968   8.358   1.463  0.1041 -1.3350  2.8869
 6844SOL    HW222272   7.107   8.328   1.413 -0.7829  0.1503 -0.7685
 6845SOL     OW22273   6.486   0.943   2.622 -0.4860  0.1565 -0.4151
 6845SOL    HW122274   6.523   0.982   2.543 -0.4930  0.6390 -0.1833
 6845SOL    HW222275   6.550   0.877   2.648  0.4038  1.2103  0.1702
 6846SOL     OW22276   3.058   7.896   4.116 -0.1702  0.3401 -0.1094
 6846SOL    HW122277   3.019   7.984   4.119  0.2856  0.5481 -0.3012
 6846SOL    HW222278   2.983   7.838   4.108 -0.5135  0.6759  0.5477
 6847SOL     OW22279   8.286   5.630   2.715  0.6823 -0.0730 -0.0915
 6847SOL    HW122280   8.251   5.706   2.762  0.6838 -1.1368  1.6804
 6847SOL    HW222281   8.356   5.667   2.660  0.3744  1.2764  0.3848
 6848SOL     OW22282   2.269   8.440   7.396  0.2332 -0.0807 -0.3442
 6848SOL    HW122283   2.234   8.437   7.484  0.9682 -0.6616 -0.0557
 6848SOL    HW222284   2.322   8.360   7.388  1.2823  0.6278 -0.8256
 6849SOL     OW22285   5.722   3.822   8.409 -0.0646 -0.0864  0.5797
 6849SOL    HW122286   5.645   3.768   8.428 -0.4309 -0.0317 -0.6394
 6849SOL    HW222287   5.782   3.761   8.365 -0.2169  0.3325 -0.2232
 6850SOL     OW22288   5.550   8.368   1.637  0.4862 -0.4685 -0.0361
 6850SOL    HW122289   5.501   8.446   1.609 -2.4562 -2.2347 -0.2821
 6850SOL    HW222290   5.576   8.387   1.727 -0.3683  0.7228 -0.0122
 6851SOL     OW22291   2.022   0.703   9.480 -0.0561 -0.3568  0.2770
 6851SOL    HW122292   1.974   0.629   9.443  0.9290 -0.4021 -0.9466
 6851SOL    HW222293   2.095   0.663   9.528  0.2820 -0.2082 -0.1029
 6852SOL     OW22294   3.669   4.528   1.570 -0.2216 -0.5388 -0.2490
 6852SOL    HW122295   3.608   4.467   1.528 -0.9620 -0.4983  0.7306
 6852SOL    HW222296   3.754   4.485   1.564 -0.4451 -0.8881 -1.0686
 6853SOL     OW22297   1.087   3.899   2.693 -0.0177  0.1025  0.5555
 6853SOL    HW122298   1.182   3.889   2.697 -0.1367 -1.4992 -0.0813
 6853SOL    HW222299   1.074   3.988   2.660  1.2527  0.2040  0.2676
 6854SOL     OW22300   1.561   2.418   6.112 -0.2830  0.2678 -0.0940
 6854SOL    HW122301   1.547   2.480   6.183 -0.0344 -1.0948  1.2085
 6854SOL    HW222302   1.477   2.412   6.067 -0.3921  1.2795 -0.0485
 6855SOL     OW22303   6.086   8.746   3.580 -0.1586 -0.6853  0.0876
 6855SOL    HW122304   6.023   8.762   3.510  0.8331 -0.2162 -0.7298
 6855SOL    HW222305   6.110   8.654   3.570  1.4357 -0.1436 -1.4715
 6856SOL     OW22306   1.740   4.456   6.093 -0.1119  0.5667  0.1460
 6856SOL    HW122307   1.726   4.551   6.090  0.2326  0.5925 -0.9277
 6856SOL    HW222308   1.771   4.433   6.005 -0.2740 -0.5568  0.3676
 6857SOL     OW22309   2.950   3.190   8.152  0.1735  0.0513 -0.1878
 6857SOL    HW122310   2.947   3.256   8.083 -1.2032  2.0397  1.6565
 6857SOL    HW222311   2.859   3.169   8.169  0.5560 -1.6396 -0.0335
 6858SOL     OW22312   7.913   3.530   2.953 -0.3023 -0.0750 -0.1277
 6858SOL    HW122313   7.952   3.463   3.010 -1.6361  0.3552  1.3795
 6858SOL    HW222314   7.820   3.531   2.978 -0.7416  0.8536 -1.6437
 6859SOL     OW22315   5.061   4.463   3.738 -0.0047  0.3215  0.1075
 6859SOL    HW122316   5.127   4.465   3.807 -0.5308 -0.5348  0.6514
 6859SOL    HW222317   4.985   4.506   3.776 -0.6801 -1.1477  0.5067
 6860SOL     OW22318   9.120   2.202   0.436 -0.2229 -0.1515 -0.4130
 6860SOL    HW122319   9.137   2.272   0.500 -0.7393 -0.3255 -0.0756
 6860SOL    HW222320   9.200   2.149   0.437  0.1676  0.4368 -0.6704
 6861SOL     OW22321   0.269   7.760   5.350 -0.0198 -1.3198  0.2997
 6861SOL    HW122322   0.333   7.699   5.315  1.1850  0.2076 -0.2471
 6861SOL    HW222323   0.318   7.840   5.366 -1.7788 -0.0996 -0.1182
 6862SOL     OW22324   3.243   6.064   5.401 -0.7365 -0.3541  0.2024
 6862SOL    HW122325   3.175   6.111   5.353  0.1460  0.6846 -0.0612
 6862SOL    HW222326   3.320   6.121   5.398 -0.1342 -1.0436  1.3522
 6863SOL     OW22327   1.356   4.913   1.066 -0.2450 -0.1115  0.4361
 6863SOL    HW122328   1.413   4.989   1.055  0.9490 -1.2664 -2.9881
 6863SOL    HW222329   1.377   4.879   1.153  2.1115  1.2276  0.4809
 6864SOL     OW22330   7.230   0.487   4.976  0.2797 -0.4197 -0.2531
 6864SOL    HW122331   7.198   0.403   5.009 -0.0845 -0.7832 -1.4976
 6864SOL    HW222332   7.268   0.467   4.891 -0.6705  0.8136 -1.0069
 6865SOL     OW22333   5.221   5.449   0.355 -0.2490  0.1700 -0.8579
 6865SOL    HW122334   5.133   5.452   0.392 -0.1323 -1.1367 -0.4182
 6865SOL    HW222335   5.211   5.485   0.266 -0.8201  1.8772 -0.1439
 6866SOL     OW22336   0.665   0.573   2.841 -0.2245 -0.0528 -0.2698
 6866SOL    HW122337   0.679   0.569   2.935 -1.2384  0.7004 -0.0662
 6866SOL    HW222338   0.655   0.482   2.814  2.5114 -0.4716 -0.0810
 6867SOL     OW22339   1.134   4.267   6.668 -0.2891 -0.5726  0.3625
 6867SOL    HW122340   1.188   4.245   6.744  0.7117 -1.9860 -0.7098
 6867SOL    HW222341   1.147   4.361   6.657 -0.1835 -0.4064  1.7217
 6868SOL     OW22342   2.710   5.431   4.119 -0.2048 -0.5691  0.7309
 6868SOL    HW122343   2.765   5.358   4.148  2.0846  0.9211  0.4060
 6868SOL    HW222344   2.742   5.451   4.031 -0.7523  0.8433  0.8355
 6869SOL     OW22345   7.878   8.446   2.042 -0.2080 -0.1858 -0.3707
 6869SOL    HW122346   7.931   8.393   2.102  0.6399  1.1515  0.1214
 6869SOL    HW222347   7.911   8.424   1.955  1.0740  0.4855 -0.0821
 6870SOL     OW22348   2.257   6.151   1.385 -0.3473 -0.2277 -0.2874
 6870SOL    HW122349   2.310   6.177   1.310 -1.3953 -0.2830 -1.0714
 6870SOL    HW222350   2.238   6.059   1.370 -2.8173  0.3803 -1.4328
 6871SOL     OW22351   0.772   8.768   6.122  0.2367  0.3420 -0.5916
 6871SOL    HW122352   0.693   8.750   6.172  1.5956 -0.9654  1.2255
 6871SOL    HW222353   0.821   8.686   6.123  0.2142  0.1331 -4.4665
 6872SOL     OW22354   5.023   0.705   6.255 -0.1128  0.4654  0.4192
 6872SOL    HW122355   4.962   0.648   6.302 -1.6061  1.9371  0.3811
 6872SOL    HW222356   5.057   0.650   6.184 -2.4808 -0.0711 -0.4039
 6873SOL     OW22357   7.420   7.381   8.144  0.5289  0.0187 -0.1242
 6873SOL    HW122358   7.462   7.318   8.203 -0.5946  0.5559  1.3199
 6873SOL    HW222359   7.410   7.334   8.061  1.6273 -0.9640  0.2767
 6874SOL     OW22360   1.587   1.561   3.332 -0.3905  0.4693 -0.2518
 6874SOL    HW122361   1.554   1.618   3.263 -1.1047 -0.1896 -0.4651
 6874SOL    HW222362   1.510   1.515   3.364  0.3261 -1.3617 -1.0011
 6875SOL     OW22363   2.295   8.330   1.722  0.4122 -0.2049  0.3950
 6875SOL    HW122364   2.300   8.410   1.669  1.4552 -0.8674 -0.5444
 6875SOL    HW222365   2.380   8.324   1.764  0.8586 -1.5330 -0.6265
 6876SOL     OW22366   5.156   8.962   1.242  0.9013  0.3912  0.1481
 6876SOL    HW122367   5.204   8.885   1.272 -0.7540 -0.2478  1.2997
 6876SOL    HW222368   5.106   8.931   1.166 -1.3087 -0.2896  1.7933
 6877SOL     OW22369   1.609   6.749   6.337  0.2225 -0.3223 -0.1304
 6877SOL    HW122370   1.531   6.716   6.292  0.3670 -0.1717 -0.4997
 6877SOL    HW222371   1.589   6.841   6.356  0.8806  0.1598 -1.5898
 6878SOL     OW22372   8.061   5.323   4.108  0.3696  0.5380 -0.4860
 6878SOL    HW122373   7.981   5.362   4.073 -1.1711 -1.0129  1.1154
 6878SOL    HW222374   8.058   5.232   4.079  0.5104 -0.0503  1.2336
 6879SOL     OW22375   6.443   9.490   9.232 -0.2737  0.0081 -0.6331
 6879SOL    HW122376   6.437   9.445   9.316  2.0785 -0.7969 -0.8108
 6879SOL    HW222377   6.502   9.563   9.247 -0.8295  0.6196 -1.3188
 6880SOL     OW22378   2.541   3.356   5.655 -0.4089  0.1795  0.5347
 6880SOL    HW122379   2.520   3.371   5.747 -0.7218 -0.5826  0.5930
 6880SOL    HW222380   2.636   3.341   5.655 -0.4885 -0.3908  0.8244
 6881SOL     OW22381   1.342   0.456   1.201  0.5440  0.1095 -0.6461
 6881SOL    HW122382   1.248   0.456   1.218  0.5437  0.2468 -0.6488
 6881SOL    HW222383   1.360   0.541   1.161  0.9014  0.6769  0.6817
 6882SOL     OW22384   1.556   3.509   5.609 -0.3115  0.2753 -0.4862
 6882SOL    HW122385   1.563   3.495   5.703  2.9215  1.5767 -0.4069
 6882SOL    HW222386   1.462   3.515   5.593 -0.9789  2.5568  3.0741
 6883SOL     OW22387   8.400   2.132   8.415 -0.8301 -0.1497 -0.1581
 6883SOL    HW122388   8.490   2.161   8.429 -0.5558 -1.4630  0.9578
 6883SOL    HW222389   8.355   2.210   8.380  0.2896  1.0617  0.9927
 6884SOL     OW22390   4.157   5.748   5.840  0.0472 -0.3341  0.5829
 6884SOL    HW122391   4.127   5.722   5.752 -0.1015 -0.9976  0.8227
 6884SOL    HW222392   4.126   5.838   5.850 -2.1485 -1.0661  0.9196
 6885SOL     OW22393   9.409   8.769   4.741  0.4977 -0.1748  0.4000
 6885SOL    HW122394   9.473   8.699   4.752 -0.7252 -1.2773  0.7946
 6885SOL    HW222395   9.354   8.740   4.669 -0.2323  0.2189  0.7885
 6886SOL     OW22396   8.774   7.934   5.520  0.4495 -0.0153 -0.2972
 6886SOL    HW122397   8.706   7.896   5.576  0.8064  0.3544  0.4067
 6886SOL    HW222398   8.750   8.026   5.512  2.0376  0.6712  1.8470
 6887SOL     OW22399   0.545   5.366   5.802 -0.0387  0.0502  0.1463
 6887SOL    HW122400   0.519   5.456   5.784 -0.1261 -0.0608 -0.2865
 6887SOL    HW222401   0.636   5.372   5.831  0.5130  0.1214 -1.5070
 6888SOL     OW22402   6.975   7.030   0.273  0.1423  0.2658 -0.2463
 6888SOL    HW122403   6.913   6.997   0.207  1.4204 -0.9590 -0.9047
 6888SOL    HW222404   7.025   7.096   0.227  0.9071 -0.4533 -0.4696
 6889SOL     OW22405   7.456   7.939   4.606  0.4909 -0.3842  0.2974
 6889SOL    HW122406   7.493   7.946   4.694  1.7256 -1.5628 -0.1085
 6889SOL    HW222407   7.517   7.988   4.550 -0.7988  1.1996  0.1899
 6890SOL     OW22408   1.216   9.079   0.496 -0.3249 -0.0860 -0.1465
 6890SOL    HW122409   1.277   9.152   0.484  0.1841 -0.1330  1.7716
 6890SOL    HW222410   1.249   9.033   0.573 -0.7503 -2.2535 -1.1964
 6891SOL     OW22411   0.496   6.967   7.562 -0.0998 -0.0057 -0.6729
 6891SOL    HW122412   0.569   7.028   7.566  0.3245 -0.5366 -0.0699
 6891SOL    HW222413   0.536   6.881   7.579 -1.0884 -0.1328  1.2723
 6892SOL     OW22414   6.853   5.441   8.199 -0.3166  0.2677 -0.1347
 6892SOL    HW122415   6.794   5.366   8.190 -0.2232  0.3132 -1.1825
 6892SOL    HW222416   6.828   5.500   8.128  0.6526  0.5179 -0.2796
 6893SOL     OW22417   1.761   9.235   2.438  0.3389  0.2780 -0.1703
 6893SOL    HW122418   1.762   9.180   2.359 -1.1607 -0.7325  0.4694
 6893SOL    HW222419   1.690   9.297   2.423 -0.6419 -0.5822  0.7936
 6894SOL     OW22420   4.399   8.457   5.995 -0.5781 -0.6019 -0.6056
 6894SOL    HW122421   4.319   8.412   5.968 -0.7813  0.0267 -1.0647
 6894SOL    HW222422   4.460   8.387   6.015 -1.8238 -1.1586  1.6278
 6895SOL     OW22423   9.325   3.576   3.761 -0.1582  0.4053  0.0341
 6895SOL    HW122424   9.362   3.494   3.728 -1.1138  0.3615 -0.9920
 6895SOL    HW222425   9.232   3.559   3.769 -0.4149  1.4787 -0.4913
 6896SOL     OW22426   9.463   1.869   8.682 -0.0773 -0.0750  0.2461
 6896SOL    HW122427   9.462   1.906   8.770  0.3040 -0.6444  0.4914
 6896SOL    HW222428   9.384   1.904   8.641 -0.4019 -0.0188  0.9017
 6897SOL     OW22429   7.965   0.740   0.778  0.4861  0.4391 -0.0508
 6897SOL    HW122430   7.870   0.730   0.776  0.4949  0.4235 -0.3927
 6897SOL    HW222431   7.985   0.802   0.709  0.7436  0.2836 -0.1191
 6898SOL     OW22432   3.711   1.435   5.545 -0.0722 -0.8180 -0.1474
 6898SOL    HW122433   3.743   1.478   5.465  2.9451 -1.5844  0.5202
 6898SOL    HW222434   3.746   1.346   5.540 -0.2921 -1.0518  1.7475
 6899SOL     OW22435   4.079   2.260   5.889 -0.1446 -0.0829  0.5772
 6899SOL    HW122436   4.006   2.319   5.873 -2.1011 -2.4987  0.0659
 6899SOL    HW222437   4.069   2.234   5.981 -0.7892 -1.4533  0.1455
 6900SOL     OW22438   8.172   7.213   6.365 -0.1624 -0.4045 -0.1473
 6900SOL    HW122439   8.163   7.121   6.390  1.9080 -1.0619 -1.6000
 6900SOL    HW222440   8.150   7.216   6.272 -1.5828  0.8660  0.1824
 6901SOL     OW22441   0.776   4.427   7.820  0.1975  0.1213  0.4011
 6901SOL    HW122442   0.841   4.492   7.793 -1.0432  1.3119  0.1835
 6901SOL    HW222443   0.731   4.467   7.894  0.7288 -1.3521  1.5821
 6902SOL     OW22444   4.180   8.342   5.915  0.0563 -0.0760 -0.4088
 6902SOL    HW122445   4.172   8.251   5.943 -0.7417 -0.2829 -1.2840
 6902SOL    HW222446   4.137   8.345   5.830 -0.7347  1.3078  0.0071
 6903SOL     OW22447   7.974   3.100   2.148  0.2067 -0.0516 -0.0060
 6903SOL    HW122448   7.941   3.181   2.186  0.6700  0.4607 -0.6852
 6903SOL    HW222449   8.067   3.098   2.170 -0.1051 -1.1995  1.3863
 6904SOL     OW22450   5.981   6.883   7.533 -0.5510  0.0779 -0.3159
 6904SOL    HW122451   5.986   6.948   7.463 -0.2969  0.7330  0.2997
 6904SOL    HW222452   5.993   6.933   7.614 -0.6586 -0.6901  0.1900
 6905SOL     OW22453   8.911   1.351   7.687  0.1161 -0.6754  0.1957
 6905SOL    HW122454   8.977   1.348   7.756  0.4596 -0.8044 -0.1361
 6905SOL    HW222455   8.942   1.289   7.621 -0.5100 -0.9877  0.1900
 6906SOL     OW22456   8.660   1.767   1.810 -0.4253  0.2588 -0.4167
 6906SOL    HW122457   8.564   1.769   1.804 -0.8590  1.1937  3.8278
 6906SOL    HW222458   8.678   1.721   1.892  2.5662  2.7447  0.5237
 6907SOL     OW22459   0.536   2.488   6.876 -0.1270 -0.0286  0.0277
 6907SOL    HW122460   0.610   2.469   6.818  0.2056  0.3666  0.3161
 6907SOL    HW222461   0.576   2.500   6.962 -0.6049 -0.4896  0.3215
 6908SOL     OW22462   0.964   0.860   3.016  0.5917  0.3564 -0.1116
 6908SOL    HW122463   0.975   0.955   3.028 -3.3240  0.7119  2.7893
 6908SOL    HW222464   0.884   0.852   2.964  0.5952 -1.3872  0.1116
 6909SOL     OW22465   2.174   8.444   5.192  0.0243 -0.7553 -0.2526
 6909SOL    HW122466   2.209   8.472   5.107  1.3631  0.7441  0.7255
 6909SOL    HW222467   2.082   8.471   5.191 -0.2651 -1.6854 -1.5848
 6910SOL     OW22468   4.275   4.717   4.133  0.6145 -0.0693  0.1070
 6910SOL    HW122469   4.307   4.736   4.045 -1.5308 -0.8055 -0.8946
 6910SOL    HW222470   4.321   4.637   4.159  0.5745 -0.3805 -0.7498
 6911SOL     OW22471   1.557   0.996   6.156 -0.1832 -0.0794  0.5408
 6911SOL    HW122472   1.515   0.925   6.108 -0.3952  0.7352 -0.4991
 6911SOL    HW222473   1.647   0.967   6.168  0.3023  0.3463 -1.7457
 6912SOL     OW22474   2.220   2.544   3.684 -0.4541  0.8594  0.2805
 6912SOL    HW122475   2.167   2.599   3.626  0.8614  2.1037  0.1799
 6912SOL    HW222476   2.159   2.480   3.720 -2.2430  2.8604  1.0040
 6913SOL     OW22477   1.353   4.150   9.525 -0.8228 -0.0575  0.0440
 6913SOL    HW122478   1.332   4.241   9.545 -0.1166 -0.3516  2.3733
 6913SOL    HW222479   1.416   4.124   9.592 -1.4084 -2.4192 -0.2252
 6914SOL     OW22480   2.606   1.963   4.937  0.1057  0.1780  0.0686
 6914SOL    HW122481   2.644   1.881   4.908 -1.6880 -0.5633 -0.3499
 6914SOL    HW222482   2.635   2.027   4.873  1.4796 -0.1056  0.3711
 6915SOL     OW22483   3.027   3.751   4.841 -0.3386  0.0966  0.2790
 6915SOL    HW122484   3.108   3.795   4.867  0.6949 -1.1005 -0.7830
 6915SOL    HW222485   2.962   3.821   4.837  1.1714  1.4984 -1.0436
 6916SOL     OW22486   1.686   1.658   2.867  0.2794  0.1165 -0.4175
 6916SOL    HW122487   1.778   1.681   2.859  0.3663 -0.4144 -1.0748
 6916SOL    HW222488   1.663   1.621   2.782 -0.4259 -0.1522 -0.1212
 6917SOL     OW22489   6.450   4.960   7.412  0.1294  0.1074  0.6581
 6917SOL    HW122490   6.414   5.038   7.371  0.6547  0.5928  1.1121
 6917SOL    HW222491   6.518   4.929   7.352  2.7552  2.3081  2.2758
 6918SOL     OW22492   6.001   1.605   2.839 -0.0025 -0.0779 -0.3152
 6918SOL    HW122493   5.939   1.649   2.782  1.1872 -0.5860 -2.0883
 6918SOL    HW222494   5.955   1.594   2.922 -2.1657 -0.2237 -1.4866
 6919SOL     OW22495   7.799   1.437   5.237 -0.3905  0.3005 -0.0118
 6919SOL    HW122496   7.792   1.354   5.284  1.9103  0.0387 -0.0351
 6919SOL    HW222497   7.711   1.476   5.244 -1.4732 -2.0259  0.1410
 6920SOL     OW22498   1.146   7.639   6.463 -0.2855  0.3751  0.0257
 6920SOL    HW122499   1.199   7.718   6.461  0.6910 -0.2503  0.6713
 6920SOL    HW222500   1.056   7.671   6.452  0.2532  1.3640 -2.1628
 6921SOL     OW22501   8.950   4.910   8.952  0.5157  0.1902 -0.3902
 6921SOL    HW122502   9.031   4.879   8.911  1.3659  1.6618  0.0861
 6921SOL    HW222503   8.950   5.005   8.935 -2.8012 -0.1022 -3.3189
 6922SOL     OW22504   8.929   0.018   4.676  0.1142 -0.1154 -0.0423
 6922SOL    HW122505   8.992  -0.036   4.630  0.1753 -2.4509  2.5606
 6922SOL    HW222506   8.939   0.105   4.637  3.9460 -0.6795 -0.6833
 6923SOL     OW22507   8.589   2.249   3.750 -0.0800  0.5046  0.0326
 6923SOL    HW122508   8.593   2.340   3.723  0.9328  0.7674  0.9727
 6923SOL    HW222509   8.640   2.246   3.831  1.4453 -1.2084 -0.9187
 6924SOL     OW22510   1.481   2.500   9.401  0.9343  0.5126 -0.2566
 6924SOL    HW122511   1.429   2.573   9.368 -2.0391 -0.7268  1.2467
 6924SOL    HW222512   1.492   2.518   9.494  0.4799 -0.7019  0.0578
 6925SOL     OW22513   5.409   1.206   2.174  0.5126  0.7428 -0.4517
 6925SOL    HW122514   5.421   1.301   2.181  0.3626  0.8903 -1.8123
 6925SOL    HW222515   5.350   1.195   2.099  0.2847 -0.4176 -0.1258
 6926SOL     OW22516   5.481   4.343   1.764 -0.1345 -0.0825  0.1744
 6926SOL    HW122517   5.427   4.405   1.715  0.1361  0.7991  0.9694
 6926SOL    HW222518   5.553   4.322   1.706 -0.6734 -0.3136 -0.4220
 6927SOL     OW22519   7.555   0.672   5.897 -0.4629  0.6451 -0.6061
 6927SOL    HW122520   7.588   0.719   5.820 -1.0454  1.8536 -0.1249
 6927SOL    HW222521   7.484   0.618   5.862  1.7339 -1.8674 -1.6296
 6928SOL     OW22522   3.701   6.384   9.468  0.0854  0.1444  0.1972
 6928SOL    HW122523   3.689   6.357   9.377  1.0548 -0.2137  0.1652
 6928SOL    HW222524   3.620   6.430   9.490 -0.9166 -1.2904 -0.2938
 6929SOL     OW22525   5.685   7.491   0.340 -0.2207  0.1760  0.0558
 6929SOL    HW122526   5.634   7.434   0.397 -1.1430 -1.2967 -2.0701
 6929SOL    HW222527   5.775   7.458   0.347 -0.6128 -1.1263 -0.5507
 6930SOL     OW22528   0.480   4.161   3.643 -0.4752  0.7792 -0.1605
 6930SOL    HW122529   0.525   4.196   3.720 -0.7303  1.2412 -0.2223
 6930SOL    HW222530   0.450   4.238   3.595 -0.2397  0.4955 -0.7705
 6931SOL     OW22531   7.330   8.947   4.326  0.3074  0.3790 -0.2299
 6931SOL    HW122532   7.321   8.964   4.233 -0.0861 -0.5738 -0.3690
 6931SOL    HW222533   7.247   8.978   4.364  0.2850  0.3508 -0.2557
 6932SOL     OW22534   1.167   3.354   7.867 -0.3613  0.1103  0.4978
 6932SOL    HW122535   1.227   3.349   7.793 -0.5974  0.4212  0.2810
 6932SOL    HW222536   1.088   3.310   7.837  0.2288 -1.5758  1.2790
 6933SOL     OW22537   7.534   2.223   9.252 -0.0992 -0.0084 -0.3694
 6933SOL    HW122538   7.511   2.181   9.169  0.5136  0.3337 -0.7234
 6933SOL    HW222539   7.567   2.309   9.227  0.9198 -0.2255  0.1463
 6934SOL     OW22540   5.337   0.896   9.100 -0.0772  0.9192 -0.3408
 6934SOL    HW122541   5.410   0.936   9.054  1.2370 -0.1627  0.7233
 6934SOL    HW222542   5.321   0.814   9.054  0.7517  0.1893  0.6189
 6935SOL     OW22543   6.508   5.315   3.874  0.4589 -0.2243  0.1270
 6935SOL    HW122544   6.486   5.346   3.962  0.5627 -1.0864  0.4649
 6935SOL    HW222545   6.424   5.315   3.827  0.2688 -0.5030  0.4644
 6936SOL     OW22546   5.770   0.440   6.582 -0.3096 -0.1934 -0.2792
 6936SOL    HW122547   5.770   0.406   6.672  4.3831  1.5669  0.6821
 6936SOL    HW222548   5.738   0.530   6.590  0.1784 -0.0126 -0.3326
 6937SOL     OW22549   7.723   6.774   7.332 -0.5199  0.4440  0.4013
 6937SOL    HW122550   7.643   6.729   7.305 -0.2585 -0.4544  1.1013
 6937SOL    HW222551   7.790   6.743   7.271 -0.6650  1.1050 -0.1093
 6938SOL     OW22552   9.123   6.279   0.049  0.5514 -0.0381  0.2659
 6938SOL    HW122553   9.199   6.264   0.105  0.7884 -1.0826 -0.3085
 6938SOL    HW222554   9.159   6.322  -0.029  1.1173 -3.2058 -1.3564
 6939SOL     OW22555   9.296   4.492   0.092  0.3537  0.3448  0.2770
 6939SOL    HW122556   9.270   4.579   0.060 -0.3044  0.2458  0.5187
 6939SOL    HW222557   9.344   4.453   0.019  0.2985  0.7563  0.0181
 6940SOL     OW22558   7.718   6.808   7.772 -0.3207 -0.4165 -0.0211
 6940SOL    HW122559   7.673   6.864   7.709 -0.5420  0.9473  1.3150
 6940SOL    HW222560   7.656   6.797   7.844  0.6314 -0.3436  0.8463
 6941SOL     OW22561   2.150   8.150   2.590 -0.2339 -0.3029  0.1834
 6941SOL    HW122562   2.127   8.229   2.540  2.0878  1.3695  1.5938
 6941SOL    HW222563   2.117   8.167   2.678 -0.5975 -1.4021  0.2791
 6942SOL     OW22564   2.819   7.213   2.531  0.0477  0.0646  0.4705
 6942SOL    HW122565   2.778   7.163   2.460 -1.6051  1.4258  0.4133
 6942SOL    HW222566   2.872   7.279   2.487 -0.8876  0.8357  0.4593
 6943SOL     OW22567   5.436   1.064   0.065  0.6511  0.3763 -1.1390
 6943SOL    HW122568   5.457   1.158   0.058 -1.0439  0.8342 -0.6031
 6943SOL    HW222569   5.482   1.024  -0.009  3.5218  1.1897  0.1057
 6944SOL     OW22570   9.071   1.336   2.100 -0.5245  0.8771  0.5729
 6944SOL    HW122571   9.138   1.383   2.149 -1.5991  0.2373  2.7504
 6944SOL    HW222572   9.095   1.244   2.108  0.1839  0.8131 -1.5642
 6945SOL     OW22573   3.354   3.931   7.691 -0.3932 -0.7215  0.3976
 6945SOL    HW122574   3.312   3.972   7.615  1.8763 -0.3315 -0.7398
 6945SOL    HW222575   3.416   3.997   7.722 -0.9259 -1.0765  2.3132
 6946SOL     OW22576   6.695   9.502   5.557 -0.1725  0.0979  0.0786
 6946SOL    HW122577   6.744   9.526   5.636  0.9310 -0.8026 -0.3100
 6946SOL    HW222578   6.655   9.418   5.578 -1.5909  0.8172  0.3835
 6947SOL     OW22579   7.363   7.385   0.786 -0.0777  0.0105  0.0034
 6947SOL    HW122580   7.451   7.419   0.767 -0.3871  0.5210 -0.5715
 6947SOL    HW222581   7.346   7.322   0.715 -0.5314  0.5923 -0.4141
 6948SOL     OW22582   4.714   2.288   3.319  0.3013  0.6371  0.2682
 6948SOL    HW122583   4.766   2.320   3.245 -0.0565  1.0198  0.1739
 6948SOL    HW222584   4.636   2.344   3.319 -0.4516 -0.3895 -0.0306
 6949SOL     OW22585   3.664   4.831   1.848 -0.3580 -0.3125 -0.4738
 6949SOL    HW122586   3.620   4.896   1.902  3.5111  0.5850  1.9809
 6949SOL    HW222587   3.632   4.747   1.879 -1.8291  0.2976 -0.2861
 6950SOL     OW22588   0.539   6.189   5.382  0.0424 -0.0894 -0.1570
 6950SOL    HW122589   0.533   6.281   5.355  0.9298 -0.2522 -0.9844
 6950SOL    HW222590   0.602   6.151   5.321 -0.3898 -1.2775  0.1191
 6951SOL     OW22591   2.528   1.521   6.125 -0.2358  0.3376  0.6097
 6951SOL    HW122592   2.596   1.506   6.060 -0.1829  0.6542  0.5934
 6951SOL    HW222593   2.575   1.544   6.205 -0.2898 -0.3041  0.8317
 6952SOL     OW22594   0.431   1.822   1.708  0.5604  0.5842 -0.0936
 6952SOL    HW122595   0.467   1.738   1.737  0.1580 -0.0265 -1.3044
 6952SOL    HW222596   0.489   1.888   1.746 -0.4590 -0.0618  2.9222
 6953SOL     OW22597   8.877   5.736   4.401 -0.6147 -0.3331  0.3531
 6953SOL    HW122598   8.824   5.668   4.442  0.2366 -1.6249 -0.6241
 6953SOL    HW222599   8.846   5.818   4.440 -0.5961 -1.3837  2.7138
 6954SOL     OW22600   8.047   5.061   3.212 -0.9440  0.2285  0.4291
 6954SOL    HW122601   8.048   5.017   3.297  0.8530 -1.1869 -0.2575
 6954SOL    HW222602   7.969   5.026   3.169 -0.8877 -0.4277  0.8391
 6955SOL     OW22603   3.140   6.219   7.040  0.0162 -0.1207  0.2365
 6955SOL    HW122604   3.235   6.222   7.027  0.0499 -0.5916  0.3474
 6955SOL    HW222605   3.116   6.129   7.018 -0.6482  0.4186 -1.4321
 6956SOL     OW22606   4.606   5.998   4.412 -0.8281 -0.5102 -0.0448
 6956SOL    HW122607   4.653   5.925   4.453 -0.9963 -0.3204  0.4986
 6956SOL    HW222608   4.593   6.061   4.484  0.2496  0.5347 -0.7271
 6957SOL     OW22609   3.174   7.827   4.387  0.3001  0.0828 -0.4518
 6957SOL    HW122610   3.122   7.891   4.435 -0.1430 -0.6663  0.0779
 6957SOL    HW222611   3.162   7.851   4.295 -2.0530 -0.8528 -0.4511
 6958SOL     OW22612   1.006   8.361   2.361 -0.4152 -0.3617  0.0786
 6958SOL    HW122613   0.956   8.329   2.436  1.6465 -2.9403  0.4767
 6958SOL    HW222614   1.000   8.291   2.296  0.3783  0.5013 -0.9640
 6959SOL     OW22615   9.369   5.469   1.323  0.2741  0.7141  0.3195
 6959SOL    HW122616   9.400   5.485   1.233 -1.2131  0.3951 -0.2758
 6959SOL    HW222617   9.435   5.510   1.378  2.8069 -1.5999 -0.7802
 6960SOL     OW22618   3.225   3.119   0.263  0.1558  0.0100  0.1623
 6960SOL    HW122619   3.130   3.124   0.280  0.3005  2.3521  0.5177
 6960SOL    HW222620   3.260   3.075   0.340 -0.4615  0.5790  0.7772
 6961SOL     OW22621   3.585   5.090   3.925 -0.5841  0.1220 -0.2260
 6961SOL    HW122622   3.623   5.027   3.864 -0.7367  0.7975 -1.0301
 6961SOL    HW222623   3.513   5.042   3.968  1.5002 -1.4016  1.8184
 6962SOL     OW22624   1.700   8.665   3.033  0.2406  0.2934 -0.2993
 6962SOL    HW122625   1.732   8.745   3.075  0.8523 -0.7167  1.2455
 6962SOL    HW222626   1.763   8.598   3.058 -1.5949 -1.1992  0.5902
 6963SOL     OW22627   7.937   6.126   5.411 -0.6048 -0.3899  0.2224
 6963SOL    HW122628   8.011   6.145   5.354 -2.3641  2.7624 -1.2843
 6963SOL    HW222629   7.879   6.072   5.358 -1.4462  1.0907 -0.4332
 6964SOL     OW22630   8.320   3.073   0.628 -0.9041 -0.1611 -0.5257
 6964SOL    HW122631   8.361   3.081   0.542 -0.6290 -0.7562 -0.4551
 6964SOL    HW222632   8.330   3.159   0.668 -1.3132  0.2139 -1.2109
 6965SOL     OW22633   3.771   1.363   6.468  0.0394 -0.3651 -0.5623
 6965SOL    HW122634   3.713   1.314   6.525  1.8119 -1.2707  0.5651
 6965SOL    HW222635   3.845   1.388   6.524  0.5626  1.0946 -1.8181
 6966SOL     OW22636   2.129   4.091   7.526  0.6852 -0.3799 -0.1941
 6966SOL    HW122637   2.203   4.046   7.566 -0.9548 -2.0056  1.2075
 6966SOL    HW222638   2.113   4.166   7.583 -0.1568 -1.3606  0.9282
 6967SOL     OW22639   7.380   6.390   0.993  0.0133 -0.4533 -0.0803
 6967SOL    HW122640   7.308   6.334   0.962  0.8864 -0.9601 -1.2874
 6967SOL    HW222641   7.420   6.423   0.913 -0.5944  2.1334  0.5975
 6968SOL     OW22642   6.404   3.735   6.150 -0.3691 -0.0511  0.2150
 6968SOL    HW122643   6.322   3.775   6.120  0.1128  0.9462  0.1512
 6968SOL    HW222644   6.444   3.702   6.070  0.8904  2.5637 -0.3541
 6969SOL     OW22645   7.796   4.247   5.702 -0.4394  0.0574 -0.1977
 6969SOL    HW122646   7.870   4.249   5.762 -1.0066  2.0861  0.5033
 6969SOL    HW222647   7.719   4.238   5.758 -0.8426 -0.4558 -0.8123
 6970SOL     OW22648   4.875   4.715   7.584  0.2566 -0.6311 -0.2334
 6970SOL    HW122649   4.905   4.722   7.675 -0.4576  0.5837 -0.0605
 6970SOL    HW222650   4.944   4.666   7.540  1.4753  0.2587  0.5952
 6971SOL     OW22651   4.150   3.211   1.008  0.1598  0.1002  0.0403
 6971SOL    HW122652   4.171   3.117   1.012  0.3027  0.1206 -0.1926
 6971SOL    HW222653   4.059   3.213   0.978  0.0447  0.0293  0.3747
 6972SOL     OW22654   3.232   2.728   7.169  0.2354 -0.4988  0.2530
 6972SOL    HW122655   3.220   2.633   7.165  1.4843 -0.6636  0.0437
 6972SOL    HW222656   3.229   2.756   7.078  0.9971 -0.4911  0.2293
 6973SOL     OW22657   9.246   8.709   2.134 -0.9418 -0.0706 -0.2540
 6973SOL    HW122658   9.256   8.636   2.196 -1.0052  1.1132  1.2227
 6973SOL    HW222659   9.301   8.686   2.060 -0.6895 -1.4502  0.3313
 6974SOL     OW22660   1.430   5.648   4.001 -0.2178  0.1201 -0.4739
 6974SOL    HW122661   1.431   5.567   4.052 -1.9183  0.6376  0.4478
 6974SOL    HW222662   1.469   5.624   3.917 -0.1377 -1.5002 -0.0076
 6975SOL     OW22663   9.258   7.251   3.762  0.3157  0.2971  0.1414
 6975SOL    HW122664   9.185   7.202   3.801  0.0148  0.0870 -0.6742
 6975SOL    HW222665   9.307   7.284   3.838 -1.4993  1.8088  0.7294
 6976SOL     OW22666   3.468   5.921   0.262 -0.4458 -0.3692  0.4611
 6976SOL    HW122667   3.515   5.987   0.314 -2.2011 -0.5482  2.4098
 6976SOL    HW222668   3.518   5.841   0.274 -0.6612 -0.3383  1.6988
 6977SOL     OW22669   3.477   7.433   0.342 -0.0320 -0.0243  0.7988
 6977SOL    HW122670   3.541   7.412   0.410  0.5490 -1.8090 -0.2018
 6977SOL    HW222671   3.502   7.520   0.311 -0.9539  1.2823  3.5085
 6978SOL     OW22672   2.469   1.319   4.919 -0.3140  0.0274 -0.2627
 6978SOL    HW122673   2.408   1.393   4.916 -0.8738 -0.2299  2.4179
 6978SOL    HW222674   2.414   1.243   4.940  0.9366  0.0595  4.0621
 6979SOL     OW22675   4.561   1.637   0.281 -0.1849 -0.3272 -0.2555
 6979SOL    HW122676   4.638   1.691   0.264 -0.9590  1.1948  0.8060
 6979SOL    HW222677   4.543   1.594   0.198 -0.7469  2.7077 -1.8161
 6980SOL     OW22678   1.436   2.201   3.183  0.2189 -0.0059 -0.3310
 6980SOL    HW122679   1.374   2.153   3.238 -0.3591 -0.0891 -1.0456
 6980SOL    HW222680   1.407   2.292   3.189 -0.7254 -0.1943 -1.6052
 6981SOL     OW22681   1.380   4.305   3.603  1.0988 -0.0209 -0.0002
 6981SOL    HW122682   1.395   4.399   3.595  0.3691  0.1403  0.3751
 6981SOL    HW222683   1.366   4.275   3.513 -1.0257  0.6746  0.0375
 6982SOL     OW22684   6.501   3.056   3.350 -0.3704  0.4740  0.0422
 6982SOL    HW122685   6.578   3.109   3.367 -0.1674 -0.0963  0.9797
 6982SOL    HW222686   6.440   3.077   3.421 -0.5077 -0.1300  0.1094
 6983SOL     OW22687   0.678   9.061   0.508  0.6861  0.2804  0.3439
 6983SOL    HW122688   0.740   8.993   0.481 -1.2501 -1.3562 -0.2519
 6983SOL    HW222689   0.636   9.089   0.426  0.0643  0.7578  0.8153
 6984SOL     OW22690   5.133   2.357   4.099  0.0109 -0.3511  0.1615
 6984SOL    HW122691   5.130   2.379   4.006 -0.2219 -0.1054  0.2261
 6984SOL    HW222692   5.043   2.332   4.121 -0.7554  2.8065  1.0942
 6985SOL     OW22693   2.825   8.262   4.054 -0.1125  0.4324  0.0814
 6985SOL    HW122694   2.769   8.284   4.128  0.2626 -1.0631  0.8519
 6985SOL    HW222695   2.911   8.247   4.092  0.1844  0.0684 -0.7126
 6986SOL     OW22696   8.500   2.120   5.181  0.1039  0.1700  0.1326
 6986SOL    HW122697   8.451   2.102   5.100  1.2711 -1.3110 -0.2933
 6986SOL    HW222698   8.433   2.147   5.244 -1.1983 -1.0943 -0.6241
 6987SOL     OW22699   5.730   2.218   6.480 -0.5326 -0.1447  0.4641
 6987SOL    HW122700   5.734   2.235   6.386 -0.7793 -0.5911  0.3665
 6987SOL    HW222701   5.763   2.128   6.489  0.1109  0.1205  0.8800
 6988SOL     OW22702   6.134   4.077   8.049  0.2190 -0.1679  0.0653
 6988SOL    HW122703   6.160   4.080   8.141 -0.7035 -0.5182  0.3524
 6988SOL    HW222704   6.051   4.126   8.046 -0.0651 -0.6655 -0.4667
 6989SOL     OW22705   0.598   7.588   6.233 -0.2349 -0.0658 -0.1402
 6989SOL    HW122706   0.511   7.611   6.199  0.0372  1.1412 -0.0488
 6989SOL    HW222707   0.651   7.573   6.155 -0.2436  0.2815 -0.2131
 6990SOL     OW22708   2.265   3.864   3.304  0.0796 -0.0991 -0.2209
 6990SOL    HW122709   2.358   3.863   3.324  0.2639 -0.2540 -1.0464
 6990SOL    HW222710   2.222   3.860   3.390  0.8270 -0.4177  0.1498
 6991SOL     OW22711   8.751   6.997   2.927  0.1579  0.0506  1.0492
 6991SOL    HW122712   8.758   6.905   2.951  0.5204 -0.0688  0.4961
 6991SOL    HW222713   8.657   7.016   2.933 -0.1244 -0.7851 -0.4024
 6992SOL     OW22714   6.485   9.304   4.008 -0.2294  0.4042 -0.3697
 6992SOL    HW122715   6.455   9.269   3.924  0.3315 -0.2919 -0.2875
 6992SOL    HW222716   6.545   9.375   3.983  0.3846 -0.1772 -0.5711
 6993SOL     OW22717   3.812   8.553   3.051 -0.0472  0.4487  0.6642
 6993SOL    HW122718   3.783   8.609   3.123  0.3248 -0.7908  1.7998
 6993SOL    HW222719   3.873   8.492   3.090 -0.3977 -0.7340 -0.5548
 6994SOL     OW22720   7.786   5.511   0.265  0.0406  0.1844  0.3000
 6994SOL    HW122721   7.807   5.507   0.358 -1.5269 -2.1520  0.6418
 6994SOL    HW222722   7.720   5.580   0.258  1.0099  1.1686  0.7064
 6995SOL     OW22723   6.933   9.275   0.491 -0.1423 -0.0776 -0.1287
 6995SOL    HW122724   6.948   9.271   0.586 -1.5535 -0.2868  0.1107
 6995SOL    HW222725   6.971   9.194   0.457  0.4023  0.0130  0.2372
 6996SOL     OW22726   2.834   7.716   4.650  0.0141 -0.0740 -0.7966
 6996SOL    HW122727   2.763   7.766   4.611 -0.2967 -0.9730 -1.3929
 6996SOL    HW222728   2.878   7.779   4.707 -1.6748  0.3243  0.1368
 6997SOL     OW22729   6.919   6.050   4.007 -0.3210  0.0855 -0.3083
 6997SOL    HW122730   6.972   6.047   3.928 -0.3927  3.4249 -0.6175
 6997SOL    HW222731   6.831   6.071   3.975 -0.3216  1.5963  0.6033
 6998SOL     OW22732   4.277   7.156   6.785  0.3880  0.3192 -0.1530
 6998SOL    HW122733   4.363   7.160   6.744  0.2116  1.3899 -0.4377
 6998SOL    HW222734   4.264   7.242   6.824 -0.2909 -0.0382  0.4370
 6999SOL     OW22735   3.872   7.792   7.575 -0.6679 -0.0301  0.5482
 6999SOL    HW122736   3.813   7.831   7.639 -0.9613 -1.0557  0.9220
 6999SOL    HW222737   3.949   7.849   7.575 -0.8025  0.1719  1.5615
 7000SOL     OW22738   1.040   3.246   6.981  0.5249 -0.7829  0.4012
 7000SOL    HW122739   1.109   3.180   6.992  0.2779 -1.0980  0.0892
 7000SOL    HW222740   0.959   3.196   6.980  0.4191 -0.6616 -1.3822
 7001SOL     OW22741   4.004   1.581   6.237 -0.1857  0.5889 -0.3403
 7001SOL    HW122742   3.986   1.487   6.237 -0.5100  0.6165  1.5302
 7001SOL    HW222743   3.986   1.609   6.147 -0.9156 -0.9730 -0.7123
 7002SOL     OW22744   8.345   9.469   9.271  0.1796 -0.3143 -0.1280
 7002SOL    HW122745   8.367   9.464   9.364  0.7118  0.9749 -0.1532
 7002SOL    HW222746   8.276   9.536   9.266 -2.9178 -3.2423 -0.2277
 7003SOL     OW22747   3.176   4.133   6.685  0.6345  0.8796 -0.0578
 7003SOL    HW122748   3.124   4.054   6.668  2.5884 -0.6080  0.5553
 7003SOL    HW222749   3.255   4.121   6.633  2.1277  1.1544  2.0497
 7004SOL     OW22750   6.338   3.953   7.559 -0.2895 -0.0746  0.0256
 7004SOL    HW122751   6.378   3.921   7.479 -0.8085  0.7808 -0.6043
 7004SOL    HW222752   6.268   4.011   7.529  0.7358  1.8077  1.0756
 7005SOL     OW22753   1.389   3.781   5.096 -0.3396 -0.2555 -0.1324
 7005SOL    HW122754   1.330   3.712   5.065 -0.8247  0.2366 -0.3187
 7005SOL    HW222755   1.332   3.841   5.144  0.2975 -0.7112  1.2711
 7006SOL     OW22756   3.903   7.612   7.797  0.0723  0.3604  0.9456
 7006SOL    HW122757   3.967   7.658   7.852 -0.8886  2.7012  0.2289
 7006SOL    HW222758   3.906   7.659   7.713 -1.2976 -0.6362  0.3156
 7007SOL     OW22759   8.417   1.532   2.401 -0.0847  0.1187  0.0637
 7007SOL    HW122760   8.393   1.531   2.309  1.5545 -1.2379 -0.3997
 7007SOL    HW222761   8.337   1.509   2.448 -1.2299  1.9271 -0.9008
 7008SOL     OW22762   8.739   3.907   3.876  0.3549  0.1313 -0.4276
 7008SOL    HW122763   8.696   3.919   3.792  2.4160  1.1004 -1.4042
 7008SOL    HW222764   8.748   3.812   3.885 -2.5405 -0.1807  0.1885
 7009SOL     OW22765   2.197   0.073   8.894  0.2876 -0.1318 -0.1154
 7009SOL    HW122766   2.202   0.108   8.806 -0.2691  0.1659 -0.0304
 7009SOL    HW222767   2.140   0.134   8.942 -1.2514 -1.4800 -0.1400
 7010SOL     OW22768   1.860   6.108   5.364 -0.5721 -0.1731  0.1477
 7010SOL    HW122769   1.846   6.037   5.302 -1.5335  0.0293  0.1099
 7010SOL    HW222770   1.936   6.081   5.416  0.6144 -0.0847 -1.4600
 7011SOL     OW22771   2.513   6.039   0.639  0.5192 -0.5460 -0.0477
 7011SOL    HW122772   2.470   5.976   0.582  0.2423 -1.1815  0.8318
 7011SOL    HW222773   2.442   6.095   0.671  0.7565  0.1891 -0.7800
 7012SOL     OW22774   1.703   4.585   0.896 -0.1153 -0.3548 -0.1500
 7012SOL    HW122775   1.679   4.531   0.971 -0.4560 -1.9836 -1.3963
 7012SOL    HW222776   1.621   4.626   0.868 -0.0289  0.0690  0.1981
 7013SOL     OW22777   0.093   8.115   0.616 -0.4621  0.5499  0.2600
 7013SOL    HW122778   0.091   8.105   0.521  0.8271 -1.3434  0.3775
 7013SOL    HW222779   0.033   8.188   0.634 -1.2849  0.4786 -1.9255
 7014SOL     OW22780   5.132   1.723   0.416 -0.0180  0.1595  0.3490
 7014SOL    HW122781   5.180   1.657   0.465  0.8580  0.6855  0.2303
 7014SOL    HW222782   5.066   1.674   0.367  0.9195 -0.6707 -0.1031
 7015SOL     OW22783   0.856   6.664   5.692  0.5288  0.4320  0.3567
 7015SOL    HW122784   0.768   6.644   5.724  0.7051 -1.4572 -0.1744
 7015SOL    HW222785   0.854   6.757   5.673 -1.6194  0.3014 -0.3824
 7016SOL     OW22786   5.466   4.621   2.502  0.2889 -0.2401 -0.2351
 7016SOL    HW122787   5.468   4.621   2.406 -1.5159  1.1660 -0.3368
 7016SOL    HW222788   5.451   4.713   2.525 -0.4916 -0.7360  1.3554
 7017SOL     OW22789   4.458   2.813   0.748 -0.0291 -0.4315  0.3860
 7017SOL    HW122790   4.503   2.898   0.744  1.6154 -1.3137 -3.0830
 7017SOL    HW222791   4.471   2.784   0.839  0.2293  2.5131  1.4052
 7018SOL     OW22792   0.322   2.118   8.957  0.4575 -0.3566 -0.2221
 7018SOL    HW122793   0.410   2.081   8.962  0.4213 -0.3969  0.1307
 7018SOL    HW222794   0.289   2.091   8.871  0.0229 -2.0484  0.4325
 7019SOL     OW22795   8.711   2.125   5.334  0.1948  0.1131 -0.0571
 7019SOL    HW122796   8.645   2.103   5.268 -1.1759 -0.5347  1.4683
 7019SOL    HW222797   8.746   2.209   5.306 -1.4924  0.6169 -0.7807
 7020SOL     OW22798   1.134   5.597   4.183  0.1650 -0.6444  0.4452
 7020SOL    HW122799   1.161   5.689   4.189 -1.0091 -0.1910 -0.6484
 7020SOL    HW222800   1.156   5.572   4.093 -0.9460 -0.9335  0.2404
 7021SOL     OW22801   3.851   1.996   9.080  0.3846  0.9860 -0.2968
 7021SOL    HW122802   3.831   1.930   9.014  1.1584 -0.6190  0.9606
 7021SOL    HW222803   3.907   2.059   9.035  0.4769  0.2167 -1.3049
 7022SOL     OW22804   3.094   0.460   1.527  0.0823 -0.0548  0.1953
 7022SOL    HW122805   3.100   0.499   1.614 -0.8242 -1.0058  0.7171
 7022SOL    HW222806   3.081   0.366   1.544  2.7595 -0.7281 -1.0024
 7023SOL     OW22807   0.460   4.115   4.121 -0.2072 -0.0711  0.2130
 7023SOL    HW122808   0.390   4.082   4.065  1.2901  0.0866 -1.8986
 7023SOL    HW222809   0.528   4.048   4.117  1.0704  1.2174 -0.5068
 7024SOL     OW22810   6.689   4.236   1.295 -0.0780  0.1115  0.3156
 7024SOL    HW122811   6.734   4.218   1.212  1.8257  2.9152  0.5768
 7024SOL    HW222812   6.631   4.310   1.276 -1.6328 -0.8939  0.9455
 7025SOL     OW22813   1.799   8.310   5.376 -0.3064  0.4306 -0.0211
 7025SOL    HW122814   1.714   8.274   5.349 -0.3037  0.9400 -0.7420
 7025SOL    HW222815   1.839   8.339   5.294  1.0757 -0.8534  0.1585
 7026SOL     OW22816   7.469   7.195   6.083  0.0961 -0.3559 -0.7075
 7026SOL    HW122817   7.500   7.225   6.168  1.4497  0.0639 -1.3116
 7026SOL    HW222818   7.541   7.217   6.023 -0.3591 -1.6557 -1.7649
 7027SOL     OW22819   8.055   0.979   0.668  0.4178 -0.0029 -0.1664
 7027SOL    HW122820   8.017   1.047   0.723 -0.9857 -0.8645 -0.0185
 7027SOL    HW222821   7.995   0.970   0.594  1.3214 -0.1211 -0.9085
 7028SOL     OW22822   0.104   2.134   4.375 -0.3514  0.4253  0.1519
 7028SOL    HW122823   0.012   2.116   4.393 -0.7093  2.1381  0.2144
 7028SOL    HW222824   0.142   2.154   4.461  0.2698 -0.9418  0.2225
 7029SOL     OW22825   5.977   4.709   8.656 -0.0906  0.0380 -0.3074
 7029SOL    HW122826   6.071   4.718   8.669  0.0347 -1.6867  0.3125
 7029SOL    HW222827   5.956   4.769   8.585  1.8190 -0.8524 -1.7198
 7030SOL     OW22828   4.613   7.747   2.906 -0.2884 -0.6668  0.0535
 7030SOL    HW122829   4.654   7.804   2.970 -0.8480  0.4579 -0.5720
 7030SOL    HW222830   4.687   7.708   2.858  0.1284  1.6914 -1.3690
 7031SOL     OW22831   0.972   0.143   4.602 -0.3910  0.6464  0.3930
 7031SOL    HW122832   1.027   0.162   4.678 -0.2217 -3.0324  1.3886
 7031SOL    HW222833   1.034   0.133   4.530 -0.0718  0.1472  0.7205
 7032SOL     OW22834   6.025   8.451   5.033  0.6555 -0.0272 -0.6659
 7032SOL    HW122835   5.963   8.485   4.968 -1.2678 -1.3816  0.3673
 7032SOL    HW222836   6.050   8.527   5.085 -1.0070  0.3914 -0.4342
 7033SOL     OW22837   3.746   4.133   1.789 -0.3526  0.2473 -0.2533
 7033SOL    HW122838   3.830   4.116   1.833  0.0788  0.2149 -1.0681
 7033SOL    HW222839   3.736   4.228   1.794 -0.3071  0.2448 -0.0901
 7034SOL     OW22840   8.163   5.363   9.600  0.2012 -0.0884  0.1218
 7034SOL    HW122841   8.254   5.368   9.629  0.7888 -0.1848 -1.5923
 7034SOL    HW222842   8.113   5.344   9.680  1.8396 -1.5029  0.8678
 7035SOL     OW22843   0.580   6.575   6.636 -0.1091 -0.0288 -0.0400
 7035SOL    HW122844   0.558   6.623   6.716  0.4485 -1.6989  1.1940
 7035SOL    HW222845   0.528   6.495   6.641  0.5937 -0.5619 -0.9022
 7036SOL     OW22846   3.996   8.762   0.854  0.4106  0.5608 -0.0609
 7036SOL    HW122847   4.076   8.814   0.861  1.1741 -0.6622  0.6538
 7036SOL    HW222848   3.998   8.729   0.764  0.6259  0.6579 -0.0945
 7037SOL     OW22849   0.559   6.378   6.125 -0.3273 -0.0954 -0.0814
 7037SOL    HW122850   0.536   6.407   6.214  0.0703  3.2216 -0.9333
 7037SOL    HW222851   0.489   6.413   6.070  1.2860  1.0771 -1.4737
 7038SOL     OW22852   1.901   5.978   4.836  1.0613  0.1322 -0.8593
 7038SOL    HW122853   1.841   5.968   4.762  2.7632  1.1724 -2.4576
 7038SOL    HW222854   1.931   5.889   4.854  0.2139 -0.2038 -1.0630
 7039SOL     OW22855   0.415   3.182   1.191 -0.0098  0.0961  0.1082
 7039SOL    HW122856   0.469   3.261   1.184  0.1739 -0.0844 -0.5964
 7039SOL    HW222857   0.337   3.203   1.141 -0.0999 -0.0568  0.1860
 7040SOL     OW22858   4.843   3.557   8.787 -0.0236 -0.6805  0.0651
 7040SOL    HW122859   4.865   3.648   8.768  1.2143 -1.0343 -0.2666
 7040SOL    HW222860   4.924   3.508   8.770 -0.7924 -1.9089 -0.1939
 7041SOL     OW22861   8.448   0.837   2.441 -0.2500 -0.0582  0.4320
 7041SOL    HW122862   8.453   0.932   2.452 -1.2345  0.3061 -1.7361
 7041SOL    HW222863   8.474   0.822   2.350 -1.6839 -1.6669  0.2260
 7042SOL     OW22864   5.811   4.985   7.526  0.1702  0.0894  1.1053
 7042SOL    HW122865   5.882   4.942   7.477  0.6662  0.1108  1.8027
 7042SOL    HW222866   5.820   4.952   7.615 -0.1239  0.8124  1.4050
 7043SOL     OW22867   3.632   2.474   1.244  0.1321  0.1785 -0.2563
 7043SOL    HW122868   3.626   2.449   1.336 -2.0893  1.8691  0.1538
 7043SOL    HW222869   3.633   2.570   1.245 -0.5422  0.2431 -1.9878
 7044SOL     OW22870   4.097   1.810   8.913 -0.2654  0.6232  0.2487
 7044SOL    HW122871   4.183   1.782   8.882 -0.8447 -1.5304  0.4079
 7044SOL    HW222872   4.039   1.737   8.890 -2.3100  2.4760 -0.9092
 7045SOL     OW22873   2.153   8.469   4.514 -0.0298 -0.5791 -0.2337
 7045SOL    HW122874   2.171   8.378   4.492  0.7860 -0.7957  1.1416
 7045SOL    HW222875   2.196   8.520   4.445  2.2301 -1.2163  0.5912
 7046SOL     OW22876   6.673   8.838   1.813  0.6200 -0.0882 -0.6443
 7046SOL    HW122877   6.645   8.928   1.825  0.5186 -0.3345  1.3384
 7046SOL    HW222878   6.695   8.808   1.902  2.2230 -1.4955 -1.4648
 7047SOL     OW22879   3.100   6.430   3.374 -0.5141  0.2550 -0.0541
 7047SOL    HW122880   3.075   6.465   3.459  1.5225  1.1692  0.2267
 7047SOL    HW222881   3.060   6.490   3.310 -0.4886  0.6757  0.3191
 7048SOL     OW22882   2.879   6.242   3.442  0.0596 -0.1839  0.0473
 7048SOL    HW122883   2.914   6.203   3.522 -0.0367  2.7611  1.6710
 7048SOL    HW222884   2.956   6.271   3.393  0.0917 -1.3010 -0.5898
 7049SOL     OW22885   2.946   1.418   8.122  0.1686 -0.3726  0.4598
 7049SOL    HW122886   2.858   1.436   8.155  0.7879 -0.1143  2.0646
 7049SOL    HW222887   3.002   1.478   8.171  1.1931 -0.1932 -0.8915
 7050SOL     OW22888   5.518   0.197   6.990  0.3320 -0.2165  0.7458
 7050SOL    HW122889   5.605   0.218   6.958 -0.4518 -0.1850 -1.5391
 7050SOL    HW222890   5.499   0.110   6.956 -0.8842  0.1606  0.3791
 7051SOL     OW22891   8.502   0.200   6.500  0.3522 -0.5052  0.7472
 7051SOL    HW122892   8.472   0.147   6.574 -1.4169 -0.0660  0.3803
 7051SOL    HW222893   8.477   0.151   6.422  1.9424 -0.8211  0.3982
 7052SOL     OW22894   5.195   4.078   6.118  0.2645  0.5120  0.2946
 7052SOL    HW122895   5.251   4.155   6.117  1.9424 -0.6155  1.6858
 7052SOL    HW222896   5.155   4.079   6.205  0.9931 -0.6078  0.6685
 7053SOL     OW22897   2.662   7.111   6.502  0.1696 -0.2983  0.3875
 7053SOL    HW122898   2.637   7.140   6.414  1.4862 -1.1117 -0.2792
 7053SOL    HW222899   2.681   7.193   6.549 -0.4625  0.1375 -0.0916
 7054SOL     OW22900   8.972   0.585   1.470  0.4056 -0.0275  0.4325
 7054SOL    HW122901   8.888   0.628   1.484 -0.0802 -0.2794 -1.4321
 7054SOL    HW222902   9.028   0.652   1.431  0.3729 -0.4230 -0.3208
 7055SOL     OW22903   0.577   5.362   2.268  0.3047  0.1366  0.3565
 7055SOL    HW122904   0.630   5.294   2.226  1.6454  1.1995  0.2625
 7055SOL    HW222905   0.584   5.437   2.209 -0.3075  0.6783  0.9653
 7056SOL     OW22906   4.798   0.022   7.577  0.1937  0.7120 -0.1172
 7056SOL    HW122907   4.823   0.039   7.668  0.2056  0.9556 -0.1649
 7056SOL    HW222908   4.823   0.102   7.530  0.3210  0.5316 -0.3599
 7057SOL     OW22909   1.412   5.226   6.795 -0.2617  0.1544  0.6166
 7057SOL    HW122910   1.350   5.198   6.863 -0.0620 -2.5833 -0.1892
 7057SOL    HW222911   1.482   5.161   6.799 -0.2822 -0.1646 -2.1982
 7058SOL     OW22912   5.756   1.249   9.499 -0.0721 -0.0295  0.3462
 7058SOL    HW122913   5.738   1.314   9.566  0.1436  0.1634  0.2189
 7058SOL    HW222914   5.692   1.268   9.430 -1.0111 -0.9067  0.9487
 7059SOL     OW22915   6.020   1.640   3.807 -0.5139  0.4710  0.4314
 7059SOL    HW122916   6.094   1.699   3.792 -0.6740  0.3641 -0.9521
 7059SOL    HW222917   5.946   1.697   3.825 -0.1053  0.5769  1.9109
 7060SOL     OW22918   9.194   0.854   5.245  0.3032  0.0267  0.3267
 7060SOL    HW122919   9.265   0.820   5.300  1.3638  1.1218 -0.3296
 7060SOL    HW222920   9.193   0.796   5.169  2.8488  1.9206 -1.3328
 7061SOL     OW22921   4.064   0.548   9.577  0.0598 -0.3720  0.3321
 7061SOL    HW122922   4.044   0.640   9.596  0.3695 -0.2153 -0.1109
 7061SOL    HW222923   3.998   0.521   9.513 -0.3630 -0.6161  0.8611
 7062SOL     OW22924   7.383   6.951   2.247  0.5592  0.0863  0.5452
 7062SOL    HW122925   7.388   6.983   2.337  1.4495 -1.7704  1.1994
 7062SOL    HW222926   7.381   7.030   2.194 -2.8207  1.3296  2.2412
 7063SOL     OW22927   7.622   7.502   2.732  0.3262  0.0235 -0.2736
 7063SOL    HW122928   7.636   7.427   2.791  1.8047 -0.0267 -0.6500
 7063SOL    HW222929   7.546   7.546   2.768  0.9303 -0.2556  1.4463
 7064SOL     OW22930   0.608   1.168   7.978 -0.1441 -0.2635  0.0975
 7064SOL    HW122931   0.534   1.198   8.031  0.4959 -0.1210  0.9212
 7064SOL    HW222932   0.598   1.073   7.975  0.0549 -0.3151  0.8495
 7065SOL     OW22933   1.396   5.652   1.321 -0.2444  0.4242  0.1404
 7065SOL    HW122934   1.303   5.643   1.342 -0.4214  0.9784 -0.3965
 7065SOL    HW222935   1.441   5.606   1.393 -0.9272  0.1290  0.3863
 7066SOL     OW22936   3.963   9.146   6.781 -0.5076 -0.0267 -0.1187
 7066SOL    HW122937   4.057   9.161   6.770 -0.9416  4.1686  0.2445
 7066SOL    HW222938   3.926   9.163   6.694 -1.0661 -1.0993 -0.1163
 7067SOL     OW22939   2.962   1.317   3.810 -0.1921  0.1236 -0.1995
 7067SOL    HW122940   2.872   1.343   3.829 -0.9662 -2.1798 -0.3988
 7067SOL    HW222941   2.969   1.322   3.715 -0.6948 -1.2764 -0.3392
 7068SOL     OW22942   3.677   9.235   8.057 -0.9599  0.3032  0.2482
 7068SOL    HW122943   3.699   9.142   8.062 -1.0755  0.2096 -0.8875
 7068SOL    HW222944   3.650   9.248   7.967 -1.5295  1.3162  0.5613
 7069SOL     OW22945   2.089   5.185   3.563  0.5585  0.3232  0.5407
 7069SOL    HW122946   2.005   5.218   3.595  1.5142  1.9888  1.4368
 7069SOL    HW222947   2.138   5.264   3.538  0.7469 -0.7246 -2.9657
 7070SOL     OW22948   6.965   0.394   7.211 -0.5063 -0.2389 -0.2818
 7070SOL    HW122949   6.900   0.376   7.278 -0.4920 -0.2595 -0.2737
 7070SOL    HW222950   6.975   0.489   7.212  1.3490 -0.3887  1.5087
 7071SOL     OW22951   3.092   8.796   3.953 -0.2475  0.2235  0.0811
 7071SOL    HW122952   3.013   8.744   3.969 -2.0012  3.2906  2.5026
 7071SOL    HW222953   3.069   8.884   3.982  3.8474  1.4693  0.1604
 7072SOL     OW22954   8.614   2.658   4.733  0.4374  0.0138 -0.4812
 7072SOL    HW122955   8.551   2.706   4.786 -0.1189 -1.1510 -0.0765
 7072SOL    HW222956   8.689   2.718   4.725  0.6574  0.1156  1.8600
 7073SOL     OW22957   8.225   1.129   1.643  0.1337 -0.1806 -0.0156
 7073SOL    HW122958   8.132   1.114   1.626  0.1044 -1.6950  1.1982
 7073SOL    HW222959   8.232   1.223   1.657 -1.2782 -0.0819  0.1632
 7074SOL     OW22960   7.148   2.064   4.300  0.2884 -0.4404  0.1056
 7074SOL    HW122961   7.197   2.069   4.219  2.5359 -2.8088  1.1703
 7074SOL    HW222962   7.103   1.980   4.296 -3.9672  1.6169 -0.8188
 7075SOL     OW22963   2.528   8.536   2.291  0.2765 -0.3500  0.3465
 7075SOL    HW122964   2.511   8.619   2.247 -1.5189 -0.2713  1.0974
 7075SOL    HW222965   2.571   8.561   2.373 -0.2780 -0.1421  0.5809
 7076SOL     OW22966   4.996   3.329   0.264  0.3705  0.0659 -0.2058
 7076SOL    HW122967   4.964   3.239   0.276 -2.9119  0.9386 -1.3484
 7076SOL    HW222968   4.920   3.383   0.284  1.5609  2.4941 -1.8492
 7077SOL     OW22969   5.946   1.081   1.760  0.2859  0.2567  0.0755
 7077SOL    HW122970   6.039   1.097   1.772  0.2950 -0.7009  1.4640
 7077SOL    HW222971   5.903   1.150   1.810  0.2366  0.6465 -0.4937
 7078SOL     OW22972   5.351   4.130   1.927  0.0446  0.3443 -0.1255
 7078SOL    HW122973   5.279   4.187   1.953 -0.2688  0.0439 -0.3142
 7078SOL    HW222974   5.423   4.189   1.906  0.1270  0.6075  0.8859
 7079SOL     OW22975   4.334   9.563   0.958 -0.4704 -0.0078 -0.8351
 7079SOL    HW122976   4.298   9.489   1.007  1.3247 -0.9729 -0.9033
 7079SOL    HW222977   4.269   9.580   0.889 -1.1820 -1.1402 -0.4615
 7080SOL     OW22978   3.354   7.273   0.197  0.1061 -0.2598  0.3088
 7080SOL    HW122979   3.418   7.318   0.251 -0.6212  0.9677  0.1831
 7080SOL    HW222980   3.307   7.216   0.258  0.3904 -0.1189  0.6605
 7081SOL     OW22981   3.409   5.384   2.187  0.2068  0.0394  0.4648
 7081SOL    HW122982   3.349   5.374   2.112 -0.8764  2.7064  0.8703
 7081SOL    HW222983   3.363   5.443   2.247  1.6784 -0.8578  2.6008
 7082SOL     OW22984   7.882   5.714   3.959  0.3725 -0.5599  0.6609
 7082SOL    HW122985   7.842   5.788   3.914 -0.3210 -0.2192  1.7780
 7082SOL    HW222986   7.968   5.703   3.918 -0.3628 -0.5110 -0.9560
 7083SOL     OW22987   2.922   8.618   8.554  0.4247  0.4740 -0.1452
 7083SOL    HW122988   2.912   8.523   8.554 -0.4249  0.5361 -1.4771
 7083SOL    HW222989   2.976   8.636   8.630 -0.5462 -0.9487  0.9410
 7084SOL     OW22990   5.757   6.362   7.275  0.1144 -0.0617  0.1232
 7084SOL    HW122991   5.826   6.297   7.291  1.7761  1.3078 -1.1262
 7084SOL    HW222992   5.782   6.437   7.329 -0.0524  0.6645 -0.7840
 7085SOL     OW22993   8.369   1.891   1.013  0.8117  0.3359 -0.3911
 7085SOL    HW122994   8.370   1.799   0.985 -0.1256  0.9049 -2.5251
 7085SOL    HW222995   8.343   1.939   0.935  0.2790  2.3449  0.9416
 7086SOL     OW22996   8.868   1.437   0.437 -0.0176  0.7121  0.0182
 7086SOL    HW122997   8.895   1.347   0.422 -1.8414  0.3950 -1.9041
 7086SOL    HW222998   8.949   1.485   0.450  1.1167 -0.9221 -0.6926
 7087SOL     OW22999   5.937   8.870   1.762  0.0173 -0.6516  0.2927
 7087SOL    HW123000   5.978   8.951   1.794 -0.4506  0.4774 -1.7602
 7087SOL    HW223001   5.961   8.867   1.670 -0.7507 -2.4016  0.1289
 7088SOL     OW23002   7.325   4.251   6.498 -0.2037 -0.0359  0.0294
 7088SOL    HW123003   7.349   4.175   6.445  0.5478 -0.4929  0.9810
 7088SOL    HW223004   7.231   4.264   6.481 -0.3742 -1.2605 -0.0596
 7089SOL     OW23005   0.010   9.344   1.220  0.5131  0.3884  0.3169
 7089SOL    HW123006  -0.059   9.280   1.238 -0.4928  1.5809  0.9041
 7089SOL    HW223007  -0.017   9.422   1.269  1.0228  1.6770 -1.3663
 7090SOL     OW23008   5.313   3.052   5.536  0.4534  0.1293 -0.3556
 7090SOL    HW123009   5.365   3.063   5.456 -2.4635  1.7567 -2.1946
 7090SOL    HW223010   5.369   3.088   5.605  3.0402 -1.2346 -1.5861
 7091SOL     OW23011   4.473   7.201   6.304 -0.2661 -0.2317 -0.5539
 7091SOL    HW123012   4.380   7.177   6.310 -0.1853 -0.5594 -0.6238
 7091SOL    HW223013   4.474   7.276   6.245 -0.7993  1.5404  1.5304
 7092SOL     OW23014   2.112   0.201   7.578 -0.7876  0.1673 -0.2221
 7092SOL    HW123015   2.074   0.123   7.619  2.2370 -0.5637  1.5338
 7092SOL    HW223016   2.149   0.170   7.496  2.0186 -0.8277  1.2964
 7093SOL     OW23017   5.311   2.137   4.127 -0.5028 -0.1271  0.1053
 7093SOL    HW123018   5.337   2.135   4.219  1.5949  2.0523 -0.3362
 7093SOL    HW223019   5.244   2.205   4.122  0.9404  1.3559 -0.2149
 7094SOL     OW23020   2.763   5.560   4.719 -1.0010  0.0109 -0.5545
 7094SOL    HW123021   2.839   5.524   4.764 -1.3453 -1.1114 -0.8341
 7094SOL    HW223022   2.688   5.538   4.775 -1.4640 -1.6347 -1.7242
 7095SOL     OW23023   3.897   1.793   4.991  0.2019 -0.2327  0.2191
 7095SOL    HW123024   3.821   1.771   5.045 -1.6188  0.6880 -1.8161
 7095SOL    HW223025   3.973   1.768   5.045 -1.4864 -0.4131  2.6779
 7096SOL     OW23026   2.650   6.984   3.176 -0.2793 -0.5219 -0.4273
 7096SOL    HW123027   2.572   7.007   3.226  1.1568 -0.5396  2.0149
 7096SOL    HW223028   2.651   7.045   3.102 -2.0890  0.0735 -0.0052
 7097SOL     OW23029   7.550   4.225   4.524 -0.2463  0.4362 -0.2335
 7097SOL    HW123030   7.599   4.202   4.445  0.0323 -1.2407  0.3838
 7097SOL    HW223031   7.617   4.235   4.591 -0.5005  1.6549 -0.1335
 7098SOL     OW23032   5.954   7.707   4.433 -0.2403 -0.3459  0.0987
 7098SOL    HW123033   5.957   7.617   4.399  0.6245  0.3229 -1.7410
 7098SOL    HW223034   5.982   7.699   4.524  0.7199 -1.8442 -0.2923
 7099SOL     OW23035   6.865   9.405   8.361 -0.3815 -0.4400 -0.3119
 7099SOL    HW123036   6.902   9.372   8.279  2.1901 -1.0638  0.9892
 7099SOL    HW223037   6.915   9.360   8.429 -0.8448  1.7551  1.5941
 7100SOL     OW23038   5.841   1.148   5.597  0.2144 -0.3651 -0.5424
 7100SOL    HW123039   5.831   1.104   5.512 -0.0829  0.8409 -1.1575
 7100SOL    HW223040   5.758   1.193   5.611  1.4993  2.5458 -1.4703
 7101SOL     OW23041   4.948   9.352   7.025 -1.2874  0.4358  0.1956
 7101SOL    HW123042   4.856   9.376   7.037 -1.0146  1.7382 -0.1279
 7101SOL    HW223043   4.992   9.388   7.101 -1.0223 -0.1031  0.3013
 7102SOL     OW23044   0.611   1.776   8.468  0.1277  0.1385  0.4389
 7102SOL    HW123045   0.697   1.811   8.445  0.1265  0.0912  0.3609
 7102SOL    HW223046   0.628   1.682   8.483  0.2588  0.2955  1.3097
 7103SOL     OW23047   1.223   5.546   2.624 -0.1397  0.1416 -0.1918
 7103SOL    HW123048   1.224   5.592   2.540  0.8380  0.7351  0.1178
 7103SOL    HW223049   1.137   5.564   2.660 -0.8361 -0.7027 -1.3627
 7104SOL     OW23050   3.921   1.862   8.341 -0.4523 -0.0833 -0.1884
 7104SOL    HW123051   3.836   1.860   8.296 -0.0451 -2.3116 -0.9899
 7104SOL    HW223052   3.985   1.840   8.273  0.8561  1.9339  0.3098
 7105SOL     OW23053   4.898   7.909   0.975 -0.1043 -0.2898  0.7632
 7105SOL    HW123054   4.986   7.871   0.971  0.6098  1.3444  0.1668
 7105SOL    HW223055   4.912   7.999   1.003 -1.6600 -0.1727  1.2280
 7106SOL     OW23056   3.111   6.492   0.729  0.3923  0.0927 -0.2469
 7106SOL    HW123057   3.145   6.551   0.661  0.3720  1.8600  1.2127
 7106SOL    HW223058   3.189   6.446   0.761  0.7166  0.6970 -0.1407
 7107SOL     OW23059   1.281   8.173   5.250  0.4310 -0.4463 -0.1773
 7107SOL    HW123060   1.247   8.083   5.259 -0.4662 -0.0474  0.5377
 7107SOL    HW223061   1.209   8.222   5.212  0.1148  0.4579  1.5106
 7108SOL     OW23062   3.057   8.154   7.777  0.2606 -0.2376  0.7970
 7108SOL    HW123063   3.020   8.116   7.857  0.9761 -2.2337  0.2437
 7108SOL    HW223064   3.150   8.166   7.796  0.2488  0.1898  0.5921
 7109SOL     OW23065   0.793   2.646   1.450  0.2241 -0.1921 -0.1628
 7109SOL    HW123066   0.831   2.727   1.415  2.7933 -0.8744  0.8270
 7109SOL    HW223067   0.814   2.580   1.385 -0.0270 -0.4344  0.0006
 7110SOL     OW23068   3.394   2.233   7.238  0.1585  0.0369 -0.4647
 7110SOL    HW123069   3.426   2.150   7.205  0.2659 -0.1843  0.1699
 7110SOL    HW223070   3.305   2.214   7.269 -0.8534  0.7753 -2.7389
 7111SOL     OW23071   5.424   3.429   6.574 -0.6877  0.0508  0.4522
 7111SOL    HW123072   5.396   3.420   6.665 -0.4978 -0.3638  0.4738
 7111SOL    HW223073   5.494   3.364   6.564 -0.8384 -0.0403 -0.0421
 7112SOL     OW23074   4.940   1.057   7.089 -0.0459  0.1737 -0.3164
 7112SOL    HW123075   5.012   1.047   7.026 -1.8647 -0.4331 -2.4695
 7112SOL    HW223076   4.945   1.148   7.116  1.0346  0.3679 -1.0737
 7113SOL     OW23077   2.461   6.514   2.080 -0.3275 -0.2368 -0.3631
 7113SOL    HW123078   2.538   6.487   2.029 -0.8279  2.6201 -2.9679
 7113SOL    HW223079   2.394   6.449   2.058  0.7792 -1.7570  0.5502
 7114SOL     OW23080   7.584   3.969   1.885  0.0276 -0.1211  0.0528
 7114SOL    HW123081   7.519   4.039   1.891 -0.3447 -0.4697  0.1347
 7114SOL    HW223082   7.536   3.895   1.847  0.4013 -0.3507  0.0241
 7115SOL     OW23083   9.306   3.930   3.643  0.4901 -0.1196 -0.1225
 7115SOL    HW123084   9.289   3.836   3.631  1.2464 -0.1894 -0.6918
 7115SOL    HW223085   9.224   3.972   3.618  0.2869 -0.6028 -0.2834
 7116SOL     OW23086   0.967   4.897   7.870 -0.3089 -0.5123  0.1865
 7116SOL    HW123087   0.944   4.923   7.959  1.6317  0.6525  0.4001
 7116SOL    HW223088   0.942   4.972   7.815 -0.6535 -0.8538 -0.1302
 7117SOL     OW23089   7.699   4.205   4.270  0.8422  0.2532 -0.1672
 7117SOL    HW123090   7.790   4.182   4.286  0.3090 -0.4893  2.3103
 7117SOL    HW223091   7.663   4.127   4.226  1.0053 -0.1919  0.4726
 7118SOL     OW23092   0.634   8.824   1.697  0.3208 -0.0895 -0.0942
 7118SOL    HW123093   0.627   8.905   1.748 -0.4003 -0.6152  0.6674
 7118SOL    HW223094   0.634   8.853   1.606  1.3868  0.8555  0.1821
 7119SOL     OW23095   2.066   5.186   2.822  0.0988 -0.2368 -0.2492
 7119SOL    HW123096   2.086   5.098   2.789 -1.5726 -1.4797  1.8150
 7119SOL    HW223097   2.125   5.198   2.896  0.1025  0.2477 -0.3309
 7120SOL     OW23098   5.896   4.988   2.897  0.0658  0.4602 -1.1025
 7120SOL    HW123099   5.855   5.067   2.861  0.0434  0.9608 -0.0142
 7120SOL    HW223100   5.988   4.995   2.872  0.5244  1.9589  0.8151
 7121SOL     OW23101   5.072   7.963   3.133 -0.2351 -0.1917  0.1604
 7121SOL    HW123102   5.145   8.014   3.097  0.6195 -1.8498 -0.5612
 7121SOL    HW223103   5.046   8.011   3.211  1.2829  0.7409  0.1381
 7122SOL     OW23104   7.682   0.207   4.242 -0.3314  0.3259  0.0360
 7122SOL    HW123105   7.683   0.189   4.148  2.1359  1.0859 -0.1724
 7122SOL    HW223106   7.590   0.216   4.265 -1.1002 -1.6639 -1.9291
 7123SOL     OW23107   5.565   6.663   8.858 -0.0496  0.1672  0.0476
 7123SOL    HW123108   5.621   6.708   8.795  2.0242 -1.6704  0.4515
 7123SOL    HW223109   5.595   6.694   8.944 -1.7487  1.4247  0.2337
 7124SOL     OW23110   8.283   2.281   8.856 -0.2951  0.4210  0.0012
 7124SOL    HW123111   8.203   2.275   8.908  0.0466 -1.3413  0.3950
 7124SOL    HW223112   8.298   2.375   8.845 -1.0481  0.8332  2.0528
 7125SOL     OW23113   3.510   9.591   1.898  0.2408  0.2153  0.6781
 7125SOL    HW123114   3.492   9.509   1.945 -2.3648  0.2009 -0.1687
 7125SOL    HW223115   3.441   9.651   1.927 -1.0008  0.4614 -2.3836
 7126SOL     OW23116   3.115   2.104   8.892 -0.1865  0.3289  0.2196
 7126SOL    HW123117   3.041   2.156   8.860  0.3887  0.2796 -1.2478
 7126SOL    HW223118   3.155   2.159   8.959 -0.0143  1.5027 -0.8099
 7127SOL     OW23119   1.658   3.627   2.431 -0.1680 -0.1401 -0.1034
 7127SOL    HW123120   1.628   3.588   2.513 -1.7634 -2.6093 -1.7293
 7127SOL    HW223121   1.586   3.685   2.405  0.1390  0.2963  0.0142
 7128SOL     OW23122   5.738   9.447   0.122 -0.0285  0.1533  0.1774
 7128SOL    HW123123   5.734   9.430   0.216 -0.7737 -0.3482  0.0632
 7128SOL    HW223124   5.831   9.455   0.103  0.1652 -0.4833  0.8301
 7129SOL     OW23125   3.454   2.435   5.889  0.2244  0.1894  0.1108
 7129SOL    HW123126   3.404   2.407   5.966  0.6385 -0.6955  0.0698
 7129SOL    HW223127   3.400   2.407   5.814  1.0203 -1.2913  0.0573
 7130SOL     OW23128   7.400   5.958   9.181 -0.3788 -0.1498 -0.1796
 7130SOL    HW123129   7.319   5.955   9.232 -0.7313 -1.0118 -0.7748
 7130SOL    HW223130   7.439   5.872   9.193  0.2238  0.1086 -0.2672
 7131SOL     OW23131   6.174   4.154   3.984 -0.2542 -0.1260 -0.2016
 7131SOL    HW123132   6.115   4.166   3.910 -1.0124  0.9469  0.5447
 7131SOL    HW223133   6.133   4.087   4.038 -1.0505  0.9289  0.5390
 7132SOL     OW23134   6.953   0.836   1.133 -0.6705 -0.6523 -0.2157
 7132SOL    HW123135   6.884   0.772   1.149 -1.0113 -0.3299 -0.3817
 7132SOL    HW223136   6.916   0.919   1.163 -0.3422 -0.4817 -0.2788
 7133SOL     OW23137   6.061   1.311   2.706 -0.2557  0.0075  0.0070
 7133SOL    HW123138   6.061   1.217   2.722 -1.9090  0.2291  1.7144
 7133SOL    HW223139   6.036   1.349   2.790 -1.0671  1.8946 -1.0261
 7134SOL     OW23140   3.538   0.895   0.758 -0.0267 -0.0019  0.0303
 7134SOL    HW123141   3.580   0.814   0.787  1.5286  1.5560  2.4761
 7134SOL    HW223142   3.601   0.935   0.698 -1.7765 -1.5534 -3.1057
 7135SOL     OW23143   9.429   3.477   5.288  0.0858  0.6850 -0.7907
 7135SOL    HW123144   9.382   3.531   5.352 -1.5013  0.6127 -1.8354
 7135SOL    HW223145   9.467   3.541   5.227  1.1799  0.7341 -0.0762
 7136SOL     OW23146   2.073   4.570   8.085 -0.4982  0.5411 -0.2040
 7136SOL    HW123147   1.984   4.604   8.076 -0.3390  0.7800 -0.9733
 7136SOL    HW223148   2.097   4.589   8.175 -0.5730  2.1129 -0.4882
 7137SOL     OW23149   9.380   3.050   8.355 -0.2191  0.4780  0.2105
 7137SOL    HW123150   9.286   3.048   8.337 -0.4370 -0.5644  1.3962
 7137SOL    HW223151   9.388   3.108   8.430 -0.0596 -0.3352  0.8335
 7138SOL     OW23152   5.219   1.943   8.419 -0.0543  0.1129 -0.2176
 7138SOL    HW123153   5.178   1.910   8.499  1.0549  1.4077  0.9412
 7138SOL    HW223154   5.169   2.021   8.396  0.6664  0.7329  0.2404
 7139SOL     OW23155   3.421   0.657   2.220  0.5250 -0.7174  0.2457
 7139SOL    HW123156   3.457   0.612   2.297  1.3135 -0.3077  0.1311
 7139SOL    HW223157   3.456   0.746   2.226  0.7441 -0.7263 -0.6754
 7140SOL     OW23158   9.274   9.614   2.804 -0.0898 -0.3060  0.1893
 7140SOL    HW123159   9.247   9.693   2.850 -0.7856  0.1336 -0.9394
 7140SOL    HW223160   9.357   9.590   2.844  0.1020  0.9563  0.5905
 7141SOL     OW23161   6.257   7.900   6.582 -0.0229 -0.4252 -0.3957
 7141SOL    HW123162   6.261   7.976   6.524  1.4015  0.6820  1.0490
 7141SOL    HW223163   6.181   7.915   6.638  2.1038  1.8605  2.1997
 7142SOL     OW23164   8.641   1.405   8.011 -0.4409 -0.7501  0.1544
 7142SOL    HW123165   8.717   1.401   8.068 -1.0121 -0.9089  0.9188
 7142SOL    HW223166   8.575   1.352   8.055 -1.8274  1.3799  0.7894
 7143SOL     OW23167   6.403   4.853   4.733 -0.3592 -0.4865  0.6289
 7143SOL    HW123168   6.464   4.841   4.660 -1.1243  1.0459 -0.3217
 7143SOL    HW223169   6.458   4.856   4.811  0.8672  1.1186 -0.2256
 7144SOL     OW23170   3.528   8.232   0.558  0.4054 -0.1713 -0.1258
 7144SOL    HW123171   3.575   8.192   0.631 -0.9415 -1.1370  0.2529
 7144SOL    HW223172   3.564   8.320   0.551 -0.7589  0.6699  2.9666
 7145SOL     OW23173   6.854   1.780   8.958 -0.0171  0.0035 -0.7593
 7145SOL    HW123174   6.795   1.706   8.975  0.0421 -0.0199 -0.6561
 7145SOL    HW223175   6.810   1.830   8.889 -1.3714  1.3257  0.9500
 7146SOL     OW23176   1.489   7.036   2.861 -0.2884  0.4282  0.0198
 7146SOL    HW123177   1.473   7.130   2.860  0.1662  0.5084 -0.8367
 7146SOL    HW223178   1.422   6.999   2.803  0.5982  0.4320 -1.0515
 7147SOL     OW23179   6.688   3.992   7.582 -0.1276 -0.0410  0.0189
 7147SOL    HW123180   6.622   3.974   7.514 -0.3612 -1.7495  0.6438
 7147SOL    HW223181   6.752   4.048   7.539  0.0171 -1.5072 -1.8222
 7148SOL     OW23182   2.340   2.195   2.258 -0.2071 -0.2343  0.9717
 7148SOL    HW123183   2.331   2.109   2.299  2.0454  0.1888  2.6157
 7148SOL    HW223184   2.433   2.217   2.270 -0.3447  1.7071 -0.9114
 7149SOL     OW23185   3.227   8.072   5.943  0.6778 -0.2068  0.3913
 7149SOL    HW123186   3.158   8.013   5.913  0.2515  0.9743 -1.0417
 7149SOL    HW223187   3.300   8.014   5.966 -0.3468 -1.3921  0.7615
 7150SOL     OW23188   9.462   3.849   7.490 -0.1881 -0.4003  0.0668
 7150SOL    HW123189   9.546   3.840   7.535 -0.0649  3.0996  0.8565
 7150SOL    HW223190   9.477   3.816   7.402  2.5142  1.4697 -0.2689
 7151SOL     OW23191   1.437   1.869   2.148 -0.4479 -0.1948  0.1208
 7151SOL    HW123192   1.399   1.957   2.149  1.1906  0.5389  1.0633
 7151SOL    HW223193   1.522   1.879   2.191 -0.6144 -2.4081  1.0834
 7152SOL     OW23194   2.498   2.892   0.933 -0.1252 -0.2291 -0.5779
 7152SOL    HW123195   2.438   2.824   0.902  0.3646 -0.5496 -0.8434
 7152SOL    HW223196   2.520   2.866   1.023 -1.2876  0.5222 -0.0552
 7153SOL     OW23197   3.828   4.384   1.905  0.2753 -0.1504  0.2494
 7153SOL    HW123198   3.897   4.318   1.915  0.8144  0.3734  0.0779
 7153SOL    HW223199   3.856   4.457   1.960 -1.9732 -1.2914  3.1351
 7154SOL     OW23200   7.381   6.260   5.149 -0.7043 -0.2225  0.4676
 7154SOL    HW123201   7.389   6.193   5.081  0.7097 -0.5399  0.9035
 7154SOL    HW223202   7.467   6.303   5.151 -0.4209 -0.7489  2.5655
 7155SOL     OW23203   3.870   1.478   8.827  0.5445  0.6827 -0.3808
 7155SOL    HW123204   3.847   1.389   8.799  1.6624 -0.1098  1.0800
 7155SOL    HW223205   3.965   1.483   8.815  0.7355  1.0614  1.1494
 7156SOL     OW23206   2.342   2.502   0.715  0.5325  0.6936  0.0232
 7156SOL    HW123207   2.382   2.536   0.795  0.2800  1.9589 -0.3604
 7156SOL    HW223208   2.389   2.421   0.696  0.7543  0.4995  1.3139
 7157SOL     OW23209   2.088   6.438   7.510 -0.6068  0.8636 -0.1833
 7157SOL    HW123210   2.157   6.504   7.511 -2.3713  2.8217  0.4929
 7157SOL    HW223211   2.122   6.367   7.456  0.3010  3.5422 -3.4299
 7158SOL     OW23212   6.706   8.029   0.745  0.0305 -0.2996 -0.5047
 7158SOL    HW123213   6.720   8.049   0.652  4.0165 -1.0108 -0.2234
 7158SOL    HW223214   6.746   7.943   0.758 -1.3536 -0.6986  1.7425
 7159SOL     OW23215   6.021   8.680   6.573 -0.0731 -1.0347 -0.2558
 7159SOL    HW123216   5.976   8.600   6.547  0.1602 -0.6225 -2.0756
 7159SOL    HW223217   5.969   8.751   6.536 -0.1946 -0.3335  1.2012
 7160SOL     OW23218   8.976   4.986   0.776 -0.2301  0.6289 -0.3409
 7160SOL    HW123219   9.054   4.974   0.830 -1.0965  1.2618  1.1024
 7160SOL    HW223220   8.906   5.005   0.838 -1.2647  1.4570 -1.6963
 7161SOL     OW23221   2.208   2.372   9.424  1.1320 -0.3349 -0.4295
 7161SOL    HW123222   2.296   2.365   9.388  1.5060 -0.9624  0.5719
 7161SOL    HW223223   2.189   2.285   9.459  1.5801  0.7029  2.6543
 7162SOL     OW23224   2.244   3.355   7.696 -0.2816  0.3644  0.1801
 7162SOL    HW123225   2.331   3.321   7.676 -0.4159 -0.0359  0.2732
 7162SOL    HW223226   2.204   3.370   7.610 -0.5636 -0.5998  0.1361
 7163SOL     OW23227   3.497   5.414   5.465 -0.0163  0.1218  0.3944
 7163SOL    HW123228   3.406   5.441   5.454  0.5634  1.8500 -0.5187
 7163SOL    HW223229   3.544   5.495   5.486  1.4708 -0.5388 -0.2445
 7164SOL     OW23230   4.455   4.506   6.838 -0.3340  0.1848  0.2795
 7164SOL    HW123231   4.461   4.562   6.760  1.3734  1.3217  1.1431
 7164SOL    HW223232   4.382   4.543   6.888 -0.1773  0.7177  0.1291
 7165SOL     OW23233   8.897   1.634   2.659  0.2267  0.3788 -0.5206
 7165SOL    HW123234   8.851   1.562   2.702  1.9715  0.2021  1.1906
 7165SOL    HW223235   8.954   1.591   2.595  1.6159  0.1478  0.8280
 7166SOL     OW23236   2.109   5.850   6.822 -0.4287  0.3448 -0.5048
 7166SOL    HW123237   2.122   5.792   6.897 -0.2907  2.1885  0.9564
 7166SOL    HW223238   2.066   5.927   6.858 -0.4415  1.2547 -2.3548
 7167SOL     OW23239   7.880   8.950   7.664 -0.9213 -0.2437  0.0372
 7167SOL    HW123240   7.906   8.958   7.573 -1.0750  1.0183  0.0846
 7167SOL    HW223241   7.785   8.944   7.662 -0.8675 -1.2047  0.0669
 7168SOL     OW23242   0.053   0.725   4.107  0.0626  0.0117  0.7078
 7168SOL    HW123243   0.102   0.674   4.043  0.7634  0.6288  0.7305
 7168SOL    HW223244  -0.017   0.767   4.056  1.1866  1.2541  0.1384
 7169SOL     OW23245   5.190   2.008   1.268 -0.0005 -0.3110  0.2055
 7169SOL    HW123246   5.258   1.944   1.247 -0.7321 -1.0464  0.0487
 7169SOL    HW223247   5.235   2.074   1.320  0.7462 -0.9981  0.4505
 7170SOL     OW23248   0.286   9.201   0.080 -0.1767  0.3374 -0.1007
 7170SOL    HW123249   0.221   9.191   0.150  0.0020  1.7657  0.2999
 7170SOL    HW223250   0.270   9.289   0.045  2.6795  1.4770  1.2067
 7171SOL     OW23251   0.389   7.723   3.640 -0.4784 -0.1383  0.7209
 7171SOL    HW123252   0.331   7.649   3.656 -1.1256 -0.3674 -2.1330
 7171SOL    HW223253   0.475   7.694   3.671 -1.1417 -1.2288  1.5858
 7172SOL     OW23254   3.757   2.420   3.356 -0.4870 -0.4020  0.0756
 7172SOL    HW123255   3.673   2.409   3.312  0.1875  3.6188 -2.7561
 7172SOL    HW223256   3.754   2.508   3.394  2.0537 -0.5634  0.8735
 7173SOL     OW23257   3.779   1.692   6.713  0.2154 -0.0168  0.1635
 7173SOL    HW123258   3.781   1.645   6.630  0.6954 -1.0035  0.7238
 7173SOL    HW223259   3.692   1.673   6.749 -0.3734  1.2108 -0.5446
 7174SOL     OW23260   5.693   4.177   0.955 -0.0913  0.2541 -0.0618
 7174SOL    HW123261   5.780   4.196   0.991 -0.0474 -0.5898  0.3056
 7174SOL    HW223262   5.657   4.111   1.015  0.0471 -1.3243 -1.6168
 7175SOL     OW23263   5.400   2.827   7.757 -0.4618 -0.1290  0.5080
 7175SOL    HW123264   5.492   2.829   7.730 -0.5544 -0.5953  0.1572
 7175SOL    HW223265   5.355   2.778   7.688 -0.7100 -1.2756  1.4475
 7176SOL     OW23266   0.871   7.764   9.494  0.8524  0.2722  0.1566
 7176SOL    HW123267   0.955   7.792   9.530 -0.0406  0.4251  2.2869
 7176SOL    HW223268   0.890   7.682   9.447  2.0758 -0.0755  1.2242
 7177SOL     OW23269   2.789   6.177   2.762 -0.1071 -0.1331  0.1441
 7177SOL    HW123270   2.764   6.193   2.853  1.0836 -1.3966  0.7264
 7177SOL    HW223271   2.787   6.082   2.753  1.4925 -0.1287 -0.6400
 7178SOL     OW23272   1.770   8.593   8.311  0.5195 -0.0528 -0.1840
 7178SOL    HW123273   1.742   8.503   8.295 -1.4216  0.3070  0.7551
 7178SOL    HW223274   1.843   8.607   8.252  0.1534 -1.8968 -1.1505
 7179SOL     OW23275   2.995   9.173   2.080 -0.7149  0.1069 -0.1410
 7179SOL    HW123276   2.970   9.115   2.008  2.0366 -2.3156  0.6515
 7179SOL    HW223277   3.067   9.224   2.045 -1.1914  0.9567  0.0911
 7180SOL     OW23278   4.942   7.948   8.281  0.1097  0.8087 -0.6913
 7180SOL    HW123279   4.978   7.868   8.243 -0.4681  0.4813 -0.5540
 7180SOL    HW223280   4.948   8.012   8.211  2.6632  1.2948 -0.1463
 7181SOL     OW23281   8.736   3.561   9.174 -0.4109  0.3465  0.3933
 7181SOL    HW123282   8.794   3.486   9.160 -0.7274  0.2602 -0.5213
 7181SOL    HW223283   8.791   3.637   9.154 -0.8552  0.2259 -1.4530
 7182SOL     OW23284   4.918   5.982   8.909  0.1245 -0.6822 -0.1179
 7182SOL    HW123285   4.928   6.070   8.944 -2.1448 -0.6267  0.5351
 7182SOL    HW223286   4.852   5.941   8.965 -0.8395 -1.8826 -2.0081
 7183SOL     OW23287   7.323   2.878   4.714  0.3255 -0.4908 -0.4157
 7183SOL    HW123288   7.398   2.830   4.681  0.1707 -0.1137 -1.3301
 7183SOL    HW223289   7.256   2.811   4.727  0.5392 -0.7066 -0.4159
 7184SOL     OW23290   7.006   2.774   2.635  0.6650 -0.2898 -0.9026
 7184SOL    HW123291   6.912   2.758   2.644  0.5415  0.8874  0.0324
 7184SOL    HW223292   7.029   2.730   2.553 -0.9505  0.4898 -1.8193
 7185SOL     OW23293   4.685   3.149   6.778 -0.3381 -0.3458 -0.0161
 7185SOL    HW123294   4.779   3.132   6.775  0.2916  2.5732  0.1164
 7185SOL    HW223295   4.662   3.139   6.870 -0.4483 -2.0685 -0.1876
 7186SOL     OW23296   0.595   4.596   8.038 -0.6820  0.1192 -0.3007
 7186SOL    HW123297   0.607   4.687   8.068 -0.4973  0.7898 -2.2726
 7186SOL    HW223298   0.509   4.597   7.995 -0.9309 -0.7949  0.1692
 7187SOL     OW23299   6.061   6.412   7.578 -0.3837 -0.7091 -0.3507
 7187SOL    HW123300   5.988   6.470   7.602 -0.1404 -0.9693  1.1551
 7187SOL    HW223301   6.020   6.327   7.562 -0.6737 -0.2916 -1.9975
 7188SOL     OW23302   9.070   8.464   3.766 -0.6243 -0.2781 -0.4150
 7188SOL    HW123303   9.063   8.426   3.678 -1.1400  0.3662 -0.6604
 7188SOL    HW223304   9.112   8.549   3.752 -1.2371  0.0766 -0.1159
 7189SOL     OW23305   5.887   3.067   5.497  0.2418 -0.0294 -0.0846
 7189SOL    HW123306   5.954   3.076   5.564 -0.3794  0.3325  0.5002
 7189SOL    HW223307   5.813   3.026   5.542  0.1639 -0.6866 -0.7914
 7190SOL     OW23308   6.209   6.321   1.014 -0.5174 -0.4972  0.2577
 7190SOL    HW123309   6.203   6.377   1.092 -1.6793 -0.8953  0.4708
 7190SOL    HW223310   6.257   6.244   1.044  0.0149 -0.1573  0.2845
 7191SOL     OW23311   8.224   3.650   1.685  0.1470  0.5381  0.0096
 7191SOL    HW123312   8.253   3.596   1.612 -0.2049  0.6805 -0.2392
 7191SOL    HW223313   8.223   3.739   1.650  1.5099  0.8424  0.6452
 7192SOL     OW23314   1.196   5.512   5.510 -0.7063  0.1471  0.2378
 7192SOL    HW123315   1.147   5.594   5.504 -1.0982 -0.1990 -2.0428
 7192SOL    HW223316   1.132   5.444   5.492 -0.0337 -0.5556  0.4180
 7193SOL     OW23317   9.210   6.374   1.480  0.5039 -0.0197  0.0555
 7193SOL    HW123318   9.194   6.292   1.527  1.2906  0.0110  0.3944
 7193SOL    HW223319   9.252   6.347   1.399  2.5425  0.1414  1.0085
 7194SOL     OW23320   1.699   1.829   1.660 -0.6046  0.2573 -0.4666
 7194SOL    HW123321   1.642   1.893   1.702 -1.8849 -0.7070 -0.6614
 7194SOL    HW223322   1.774   1.879   1.628 -0.7735  1.3785  0.8334
 7195SOL     OW23323   8.878   5.463   8.350  0.5145 -0.3919  0.0109
 7195SOL    HW123324   8.966   5.432   8.329  0.6383  1.1665 -2.1502
 7195SOL    HW223325   8.869   5.543   8.299 -1.6938  0.1883  1.2230
 7196SOL     OW23326   4.994   1.817   1.335  0.3814 -0.1681  0.1863
 7196SOL    HW123327   4.961   1.792   1.248 -1.3423  2.5626 -0.0250
 7196SOL    HW223328   5.066   1.877   1.316  0.0534  0.3693  0.6467
 7197SOL     OW23329   9.087   0.106   8.516 -0.4735  0.4402  0.0117
 7197SOL    HW123330   9.025   0.042   8.481  0.7162 -0.2769 -0.8787
 7197SOL    HW223331   9.133   0.140   8.439  0.1353  1.0631  0.6247
 7198SOL     OW23332   5.889   6.589   8.413  0.1338 -0.2129 -0.0436
 7198SOL    HW123333   5.979   6.567   8.434  0.5436 -0.2193 -1.6856
 7198SOL    HW223334   5.839   6.567   8.492  1.2992 -1.8801  0.2544
 7199SOL     OW23335   1.666   0.165   6.613 -0.1743 -0.2259 -0.3755
 7199SOL    HW123336   1.733   0.171   6.545 -1.0778  0.7172 -1.2201
 7199SOL    HW223337   1.588   0.205   6.574 -1.6931 -2.5578  0.0292
 7200SOL     OW23338   3.870   7.398   1.753 -0.2738  0.4042  0.2106
 7200SOL    HW123339   3.787   7.439   1.774 -1.2781 -1.0014 -0.8452
 7200SOL    HW223340   3.935   7.447   1.804 -1.9331  0.4033  2.4670
 7201SOL     OW23341   0.048   7.136   2.535  0.7016 -0.2662  0.3742
 7201SOL    HW123342   0.080   7.184   2.459 -1.1278 -0.0643 -0.2911
 7201SOL    HW223343   0.006   7.058   2.499  0.7057 -0.6903  1.2494
 7202SOL     OW23344   6.861   2.032   3.328 -0.3844 -0.2466  0.8451
 7202SOL    HW123345   6.952   2.043   3.358 -0.3146 -0.1215  0.5915
 7202SOL    HW223346   6.822   1.972   3.392 -0.6201  1.0552  1.9576
 7203SOL     OW23347   2.993   1.567   7.378 -0.3016  0.0604 -0.4657
 7203SOL    HW123348   2.959   1.477   7.370 -1.6245  0.5403 -0.4723
 7203SOL    HW223349   3.086   1.559   7.356 -0.6173 -1.1411 -1.5116
 7204SOL     OW23350   8.233   9.207   4.626 -0.1491 -0.5789 -0.0665
 7204SOL    HW123351   8.157   9.168   4.583  0.1772 -1.2011 -0.0884
 7204SOL    HW223352   8.307   9.152   4.598  0.0833 -0.9292  1.1969
 7205SOL     OW23353   3.922   9.488   9.372  0.1003 -0.1909  0.4343
 7205SOL    HW123354   3.903   9.413   9.316  0.7182 -1.1077  1.4084
 7205SOL    HW223355   3.839   9.537   9.377 -0.2119 -0.6180 -0.4840
 7206SOL     OW23356   6.746   6.664   0.581  0.4249  0.8360  0.0271
 7206SOL    HW123357   6.658   6.649   0.617  0.5733  1.3824  0.6405
 7206SOL    HW223358   6.786   6.727   0.641  0.8112  1.5060 -0.9035
 7207SOL     OW23359   3.536   1.128   9.605  0.0567  0.4396  0.0171
 7207SOL    HW123360   3.464   1.186   9.583  0.4977  0.9203 -0.1782
 7207SOL    HW223361   3.526   1.111   9.699 -0.3601  0.4250 -0.0275
 7208SOL     OW23362   0.565   1.346   0.518  0.1245 -0.9006  0.6155
 7208SOL    HW123363   0.499   1.385   0.460  0.6045 -1.1407 -0.1015
 7208SOL    HW223364   0.514   1.299   0.584 -0.4600 -2.2770 -0.7340
 7209SOL     OW23365   3.335   1.737   4.052  0.1723 -0.1943  0.3130
 7209SOL    HW123366   3.317   1.677   4.125 -0.1309 -0.1090  0.3104
 7209SOL    HW223367   3.390   1.687   3.993  2.2771  0.4440  1.6340
 7210SOL     OW23368   5.221   0.814   8.156  0.0201 -0.1184 -0.1510
 7210SOL    HW123369   5.185   0.892   8.197 -2.2084 -0.8026 -0.6289
 7210SOL    HW223370   5.314   0.833   8.143 -0.4653  2.4378 -0.2640
 7211SOL     OW23371   6.125   4.515   3.046 -0.3300  0.1985 -0.5101
 7211SOL    HW123372   6.090   4.439   2.998 -0.6370  0.2232 -0.3242
 7211SOL    HW223373   6.127   4.585   2.980 -4.1628  1.3041  0.2815
 7212SOL     OW23374   0.334   2.630   6.756 -0.3487 -0.1175  0.2482
 7212SOL    HW123375   0.353   2.573   6.682 -0.9068 -0.1927  0.1581
 7212SOL    HW223376   0.396   2.604   6.823  0.9647  0.7563 -0.5893
 7213SOL     OW23377   0.835   6.454   3.469 -0.3177  0.3873 -0.3427
 7213SOL    HW123378   0.882   6.490   3.545  0.4014 -0.6354 -0.2794
 7213SOL    HW223379   0.765   6.517   3.452 -1.5727 -0.1521  2.2201
 7214SOL     OW23380   2.189   4.355   3.572  0.3614 -0.1612  0.5972
 7214SOL    HW123381   2.133   4.296   3.522  0.6861 -0.2274  0.3102
 7214SOL    HW223382   2.239   4.298   3.630  1.8298 -0.3479 -0.7835
 7215SOL     OW23383   4.801   2.117   3.953 -0.2309  0.4636 -0.0305
 7215SOL    HW123384   4.872   2.111   4.016 -0.8624  0.5329  0.7019
 7215SOL    HW223385   4.844   2.134   3.869  0.6935 -0.6987  0.1887
 7216SOL     OW23386   6.246   8.054   2.465  0.1907 -0.1248  0.3284
 7216SOL    HW123387   6.258   7.964   2.434 -0.1444  0.2878 -1.0612
 7216SOL    HW223388   6.311   8.105   2.418  1.5792  0.1404  2.4144
 7217SOL     OW23389   7.959   8.325   4.464 -0.3384 -0.0769  0.3687
 7217SOL    HW123390   8.045   8.358   4.487 -0.4482 -0.2694  1.0800
 7217SOL    HW223391   7.919   8.301   4.548  0.2925 -3.4206 -0.1244
 7218SOL     OW23392   8.864   2.042   5.870 -0.6232 -0.2054 -0.2769
 7218SOL    HW123393   8.956   2.061   5.889 -0.6373  1.0358 -1.3162
 7218SOL    HW223394   8.833   1.995   5.947  1.2231 -1.8680 -0.4454
 7219SOL     OW23395   2.234   6.184   8.663  0.1424 -0.5890 -0.0391
 7219SOL    HW123396   2.323   6.219   8.655 -0.2689  0.1108 -1.8838
 7219SOL    HW223397   2.204   6.172   8.573 -1.7190 -0.6047  0.5426
 7220SOL     OW23398   8.852   8.157   9.321  0.0091 -0.1583 -0.0467
 7220SOL    HW123399   8.928   8.210   9.346  0.3404 -0.8828  0.5344
 7220SOL    HW223400   8.874   8.124   9.233  0.6430 -0.8357  0.3526
 7221SOL     OW23401   6.929   2.450   9.502 -0.7406 -0.0399 -0.1078
 7221SOL    HW123402   6.862   2.474   9.566  0.3452  0.9254  0.7137
 7221SOL    HW223403   6.918   2.514   9.431 -1.6893 -0.8675 -0.7356
 7222SOL     OW23404   4.059   3.936   5.434 -1.1842  0.3004 -0.4605
 7222SOL    HW123405   3.998   4.001   5.399 -0.6255  1.4024  0.5391
 7222SOL    HW223406   4.119   3.987   5.489 -0.5672 -1.0315  0.1380
 7223SOL     OW23407   8.608   3.638   7.451  0.6530 -0.1256 -0.0006
 7223SOL    HW123408   8.645   3.666   7.368  2.7219 -2.2073  0.1096
 7223SOL    HW223409   8.528   3.591   7.426  0.7985  0.0002 -0.7266
 7224SOL     OW23410   7.548   2.006   2.274 -0.4240  0.1264  0.4204
 7224SOL    HW123411   7.587   2.092   2.292  2.0718 -0.6989 -0.5767
 7224SOL    HW223412   7.541   1.964   2.360  1.2227  0.2338  0.6358
 7225SOL     OW23413   5.579   2.440   9.045 -0.3072  0.6004 -0.3833
 7225SOL    HW123414   5.576   2.442   8.949  0.9711  0.7498 -0.4332
 7225SOL    HW223415   5.618   2.524   9.070 -0.7632  0.6257  0.2835
 7226SOL     OW23416   2.585   1.070   2.366 -0.6052 -0.3011 -0.0209
 7226SOL    HW123417   2.537   1.101   2.443 -0.3210  2.3111 -0.7988
 7226SOL    HW223418   2.630   0.991   2.396 -1.9341 -0.3817  1.9498
 7227SOL     OW23419   9.063   7.333   0.008  0.3319  0.1806  0.6671
 7227SOL    HW123420   8.988   7.303   0.059 -0.4584 -0.5964 -0.8706
 7227SOL    HW223421   9.109   7.394   0.066  0.4666 -1.8928  2.9297
 7228SOL     OW23422   3.635   5.045   4.986  0.5784 -0.6124 -0.5672
 7228SOL    HW123423   3.571   5.057   4.915 -1.2503 -1.6617  0.8235
 7228SOL    HW223424   3.719   5.061   4.944 -0.4940 -0.2396 -2.7556
 7229SOL     OW23425   0.693   0.987   3.136 -0.3763 -0.1509 -0.4119
 7229SOL    HW123426   0.695   0.922   3.065 -0.8562 -1.0861  0.4112
 7229SOL    HW223427   0.635   0.949   3.202 -0.6425  1.1097  0.1116
 7230SOL     OW23428   0.322   7.372   6.513  0.3417  0.2684  0.0438
 7230SOL    HW123429   0.270   7.305   6.557 -1.6134  1.6550 -0.0377
 7230SOL    HW223430   0.272   7.394   6.434  1.4196  1.1489 -0.4314
 7231SOL     OW23431   8.057   8.855   5.211 -0.0188  0.0383  0.2382
 7231SOL    HW123432   8.011   8.847   5.295 -1.3572  0.6073 -0.3988
 7231SOL    HW223433   8.050   8.948   5.189 -0.5773 -0.2728 -0.9695
 7232SOL     OW23434   5.269   6.579   6.913  0.5278  0.8242 -0.1143
 7232SOL    HW123435   5.236   6.668   6.903  1.4958  1.2791  0.6591
 7232SOL    HW223436   5.313   6.560   6.830 -0.6315  0.6266 -0.7146
 7233SOL     OW23437   6.919   7.931   5.389  0.1891  0.1061 -0.7662
 7233SOL    HW123438   6.927   7.837   5.376  1.2770  0.2799 -1.4241
 7233SOL    HW223439   6.934   7.969   5.303  1.4602  0.9668 -0.2054
 7234SOL     OW23440   4.612   7.492   1.499  0.0777 -0.1365  0.0603
 7234SOL    HW123441   4.598   7.587   1.507 -0.0706 -0.2110  0.7621
 7234SOL    HW223442   4.570   7.455   1.577 -2.1229 -1.0229 -1.4366
 7235SOL     OW23443   0.683   2.774   8.803  0.4643 -1.0221  0.1097
 7235SOL    HW123444   0.735   2.695   8.811  1.1477 -0.7786 -1.4914
 7235SOL    HW223445   0.719   2.819   8.726 -0.1766  0.6336  0.7326
 7236SOL     OW23446   0.731   6.029   2.546 -0.0831 -0.0068 -0.5595
 7236SOL    HW123447   0.651   6.038   2.493  0.3404 -1.9854 -1.6423
 7236SOL    HW223448   0.707   6.065   2.631 -2.0165 -0.2018 -0.9703
 7237SOL     OW23449   5.953   3.497   2.726 -0.4466  0.9697 -0.2445
 7237SOL    HW123450   5.921   3.408   2.707 -1.0432  0.8259  1.3477
 7237SOL    HW223451   5.875   3.545   2.754  0.0849  1.6689  0.0558
 7238SOL     OW23452   8.864   3.814   1.307  0.3540  0.2920 -0.1376
 7238SOL    HW123453   8.785   3.761   1.290  0.1373 -0.0641  1.8066
 7238SOL    HW223454   8.846   3.897   1.263 -0.2281 -0.4619 -1.4107
 7239SOL     OW23455   9.317   1.982   0.626 -0.3324 -0.0425 -0.3725
 7239SOL    HW123456   9.352   1.964   0.713 -0.2687 -1.9569 -0.7482
 7239SOL    HW223457   9.374   2.051   0.591  0.7763 -0.5104  0.4402
 7240SOL     OW23458   9.587   7.041   3.454 -0.1895  0.0999  0.3384
 7240SOL    HW123459   9.515   7.103   3.443 -1.0582 -0.8427  0.5104
 7240SOL    HW223460   9.666   7.092   3.435 -0.9766  0.8398 -1.1814
 7241SOL     OW23461   3.977   5.304   1.103  0.0189  0.6120 -0.1950
 7241SOL    HW123462   4.068   5.287   1.125  0.4521  1.3847 -1.3186
 7241SOL    HW223463   3.980   5.380   1.045 -1.3488  0.7202 -0.1520
 7242SOL     OW23464   5.813   6.218   2.864 -0.7334 -0.0283  0.3771
 7242SOL    HW123465   5.751   6.227   2.936  1.9983  3.3661  2.6651
 7242SOL    HW223466   5.795   6.293   2.808  1.9214  1.8587  1.8327
 7243SOL     OW23467   7.416   5.424   9.025  0.2173  0.2144 -0.3626
 7243SOL    HW123468   7.427   5.396   8.934  1.0159  0.9701 -0.5160
 7243SOL    HW223469   7.492   5.388   9.071  0.6490  1.1242 -0.3327
 7244SOL     OW23470   4.581   5.172   4.853 -0.2297 -0.2010  0.0280
 7244SOL    HW123471   4.604   5.131   4.770 -0.0474  1.2309 -0.6565
 7244SOL    HW223472   4.651   5.234   4.870 -2.3169  2.6888 -1.0014
 7245SOL     OW23473   0.971   3.989   3.628 -0.2698  0.4020  0.0057
 7245SOL    HW123474   1.062   4.002   3.655 -0.0063  1.5578 -1.2987
 7245SOL    HW223475   0.933   4.077   3.631 -1.1480  0.0395 -0.1711
 7246SOL     OW23476   4.167   5.975   1.623  0.5315  0.1673  0.3492
 7246SOL    HW123477   4.145   6.007   1.535 -0.8008 -0.5007  0.4054
 7246SOL    HW223478   4.262   5.977   1.627  0.5746  1.6833 -0.5543
 7247SOL     OW23479   0.561   8.753   5.756 -0.2387 -0.0943 -0.5908
 7247SOL    HW123480   0.628   8.775   5.691  0.5920  0.0882  0.3168
 7247SOL    HW223481   0.603   8.691   5.814 -0.5168  0.7711  0.5756
 7248SOL     OW23482   6.932   7.794   0.872  0.2425 -0.4806  0.0990
 7248SOL    HW123483   6.941   7.699   0.876  1.0510 -0.3800  1.3238
 7248SOL    HW223484   6.917   7.821   0.963  1.2531  0.6493 -0.0411
 7249SOL     OW23485   1.589   3.766   7.329 -0.3165  0.7248 -0.0696
 7249SOL    HW123486   1.681   3.744   7.314 -0.9456 -1.0406 -1.8102
 7249SOL    HW223487   1.591   3.842   7.386  2.2190  0.6140  0.0802
 7250SOL     OW23488   6.009   9.189   5.864  0.3561 -0.1192  0.0371
 7250SOL    HW123489   6.068   9.130   5.911  0.0076  0.6369  1.5194
 7250SOL    HW223490   6.017   9.272   5.911 -2.4953 -0.2100  0.9099
 7251SOL     OW23491   6.450   3.389   7.509 -0.2141 -0.4589 -0.3288
 7251SOL    HW123492   6.451   3.466   7.453  0.0636  0.8580  1.3849
 7251SOL    HW223493   6.359   3.360   7.510 -0.3620 -0.0060 -0.8048
 7252SOL     OW23494   8.574   4.239   0.026 -0.5160  0.4225 -0.1022
 7252SOL    HW123495   8.623   4.181  -0.033 -0.3846  1.4487 -1.0441
 7252SOL    HW223496   8.633   4.254   0.099 -0.1757  0.1210 -0.3121
 7253SOL     OW23497   4.531   5.164   0.941  0.2284  0.3607 -0.1551
 7253SOL    HW123498   4.473   5.137   1.012  1.0326 -2.5875 -0.4938
 7253SOL    HW223499   4.538   5.259   0.951 -1.0678  0.2717  2.6257
 7254SOL     OW23500   2.744   1.834   1.016 -0.3136 -0.5863 -0.2879
 7254SOL    HW123501   2.825   1.810   1.061  0.1494 -0.3417 -0.9767
 7254SOL    HW223502   2.679   1.842   1.086  0.6085  0.7660  0.4504
 7255SOL     OW23503   8.146   0.328   1.922  0.9302 -0.1937  0.6309
 7255SOL    HW123504   8.148   0.381   2.002  0.1961 -1.5276  1.5975
 7255SOL    HW223505   8.076   0.367   1.869  1.0410  0.3709  0.8966
 7256SOL     OW23506   0.757   1.828   0.290 -0.2031 -0.2170 -0.5139
 7256SOL    HW123507   0.710   1.753   0.327  0.1410 -0.7152 -1.0645
 7256SOL    HW223508   0.765   1.807   0.197  3.3840 -1.4019 -0.0732
 7257SOL     OW23509   3.201   2.958   9.102  0.1155  0.1090  0.3248
 7257SOL    HW123510   3.234   2.918   9.021  0.6148  0.7769  0.1824
 7257SOL    HW223511   3.120   3.002   9.076 -0.1000 -0.2708  0.3462
 7258SOL     OW23512   5.259   7.787   6.204  0.7385 -0.3088  0.4097
 7258SOL    HW123513   5.340   7.753   6.167  0.6708 -1.0299  0.9194
 7258SOL    HW223514   5.233   7.856   6.143  1.9180  0.1800  0.4375
 7259SOL     OW23515   1.346   0.716   6.502 -0.0928  0.1998  0.1626
 7259SOL    HW123516   1.322   0.808   6.489 -0.8722 -0.1607 -1.1341
 7259SOL    HW223517   1.441   0.713   6.489  0.1558  1.0128  1.5309
 7260SOL     OW23518   4.353   4.233   7.026 -0.0435 -0.3336 -0.1299
 7260SOL    HW123519   4.293   4.274   7.088 -0.1508  1.2295 -1.2015
 7260SOL    HW223520   4.306   4.233   6.943  0.8140 -0.5939 -0.6258
 7261SOL     OW23521   6.086   6.067   0.686  0.2559 -0.0179  0.2397
 7261SOL    HW123522   6.026   6.102   0.753 -0.1452 -1.7759  0.8621
 7261SOL    HW223523   6.169   6.112   0.703  1.4129 -3.1211  4.6997
 7262SOL     OW23524   2.930   1.239   9.465 -0.9789 -0.4186  0.1988
 7262SOL    HW123525   2.911   1.331   9.443 -1.3115 -0.7593 -1.0393
 7262SOL    HW223526   2.862   1.215   9.528 -4.2134 -1.2554 -3.2635
 7263SOL     OW23527   3.154   3.205   4.370 -0.3109  0.2290  0.2715
 7263SOL    HW123528   3.200   3.126   4.398 -0.1845  0.0774 -0.3660
 7263SOL    HW223529   3.222   3.271   4.361 -0.6719  1.2195  3.4215
 7264SOL     OW23530   7.367   0.072   7.050  0.0002 -0.5050  0.0871
 7264SOL    HW123531   7.305   0.105   6.984 -1.2016 -2.3899  0.2178
 7264SOL    HW223532   7.339   0.115   7.131 -0.5900 -0.6680 -0.0213
 7265SOL     OW23533   1.328   4.975   8.135 -0.1618  0.3467  0.4061
 7265SOL    HW123534   1.279   4.955   8.056 -0.8391 -0.0977  0.9205
 7265SOL    HW223535   1.364   4.890   8.163  1.7372  0.8090 -0.4858
 7266SOL     OW23536   2.176   1.081   3.773  0.3140  0.5055 -0.0492
 7266SOL    HW123537   2.188   1.018   3.844 -0.1919 -1.2231 -1.4358
 7266SOL    HW223538   2.242   1.148   3.789 -0.3193  0.6512  2.5101
 7267SOL     OW23539   8.727   9.197   2.492  1.2530 -0.2640 -0.1959
 7267SOL    HW123540   8.807   9.145   2.482  1.5275  0.2638 -0.7790
 7267SOL    HW223541   8.671   9.169   2.419  0.8988 -0.6261  0.2073
 7268SOL     OW23542   7.968   6.803   3.327  0.1447 -0.1005  0.4555
 7268SOL    HW123543   8.022   6.740   3.280  0.6132  0.7220 -0.1252
 7268SOL    HW223544   7.945   6.869   3.262  0.4348  0.8237  1.2662
 7269SOL     OW23545   1.897   4.396   8.349 -0.3445  0.1726  0.1519
 7269SOL    HW123546   1.906   4.334   8.276  1.6446 -0.5104  0.9339
 7269SOL    HW223547   1.808   4.379   8.382 -0.5010 -0.9991 -0.7614
 7270SOL     OW23548   4.809   6.487   7.480 -0.6036  0.0762  0.0991
 7270SOL    HW123549   4.814   6.455   7.570  1.5068 -0.1311 -0.0508
 7270SOL    HW223550   4.783   6.410   7.429 -1.0812  0.0139  0.4308
 7271SOL     OW23551   2.360   3.674   2.600 -0.4456  0.3960  0.2756
 7271SOL    HW123552   2.361   3.628   2.684  1.3079 -1.9099 -0.8920
 7271SOL    HW223553   2.423   3.746   2.612 -0.0236 -0.0607  0.8879
 7272SOL     OW23554   3.531   0.329   0.572 -0.3528  0.1236  0.0610
 7272SOL    HW123555   3.615   0.366   0.596  0.0732 -1.6790  1.5712
 7272SOL    HW223556   3.484   0.320   0.655 -0.8558 -1.6142 -0.3723
 7273SOL     OW23557   8.718   0.908   2.563 -0.1520  0.1582 -0.5966
 7273SOL    HW123558   8.743   0.921   2.472 -0.9972 -1.9982 -1.2017
 7273SOL    HW223559   8.629   0.873   2.559 -0.2339  0.0789  1.0701
 7274SOL     OW23560   3.011   4.188   3.173 -0.3571  0.0576 -0.0473
 7274SOL    HW123561   3.020   4.136   3.093  1.2081  1.2553 -0.7105
 7274SOL    HW223562   3.075   4.150   3.233 -1.2369 -0.5714  0.5240
 7275SOL     OW23563   5.303   8.889   5.340  0.5004 -0.6676  0.0266
 7275SOL    HW123564   5.397   8.902   5.357  0.7065  0.8005 -1.9071
 7275SOL    HW223565   5.264   8.888   5.427  2.2223 -0.6040  0.8611
 7276SOL     OW23566   5.928   2.119   6.150 -0.3115 -0.6266 -0.0695
 7276SOL    HW123567   5.985   2.055   6.193 -0.1967 -0.4736  0.0075
 7276SOL    HW223568   5.941   2.103   6.056  0.7948  0.2120 -0.0808
 7277SOL     OW23569   7.147   2.897   7.702 -0.3632 -0.7570 -0.1708
 7277SOL    HW123570   7.113   2.859   7.621 -1.6967  0.2802 -0.1252
 7277SOL    HW223571   7.140   2.991   7.689  0.4992 -0.5554  0.7136
 7278SOL     OW23572   8.301   1.480   4.615 -0.0173  0.0914 -0.3643
 7278SOL    HW123573   8.345   1.410   4.663 -0.1949 -1.0137 -1.7323
 7278SOL    HW223574   8.213   1.484   4.651 -0.1015 -0.6162 -0.4928
 7279SOL     OW23575   6.544   8.411   6.597 -0.0245  0.3957  0.6060
 7279SOL    HW123576   6.636   8.384   6.587 -0.1304  0.3639 -0.4907
 7279SOL    HW223577   6.497   8.358   6.532 -0.6452  1.2299  0.3518
 7280SOL     OW23578   1.795   9.172   3.685  0.1482  0.4634 -0.0098
 7280SOL    HW123579   1.820   9.163   3.777  2.4571 -0.5824 -0.6713
 7280SOL    HW223580   1.709   9.128   3.680  1.5899 -2.7971  1.0184
 7281SOL     OW23581   1.154   4.741   8.678  0.2805  0.4221 -0.6508
 7281SOL    HW123582   1.181   4.732   8.770  0.7610  0.0360 -0.8246
 7281SOL    HW223583   1.147   4.835   8.664  0.6660  0.4990 -0.3444
 7282SOL     OW23584   6.883   7.539   2.526  0.1460  0.2433  0.7801
 7282SOL    HW123585   6.953   7.477   2.508 -0.1874  0.4052 -1.4217
 7282SOL    HW223586   6.803   7.488   2.517 -0.0996  0.7680 -0.2400
 7283SOL     OW23587   0.725   8.191   5.840  0.0817  0.0171 -0.1488
 7283SOL    HW123588   0.634   8.221   5.842  0.1201  0.1450 -0.2951
 7283SOL    HW223589   0.751   8.198   5.748  0.1661 -0.2375 -0.1431
 7284SOL     OW23590   2.842   5.054   1.424 -0.7300 -0.0985  0.5131
 7284SOL    HW123591   2.877   4.973   1.386 -0.6522 -0.0993  0.5838
 7284SOL    HW223592   2.797   5.098   1.352  0.9962  0.8070 -0.0852
 7285SOL     OW23593   9.445   4.300   1.947 -0.6074  0.4745 -0.8661
 7285SOL    HW123594   9.457   4.300   2.042 -1.0809 -0.2608 -0.8056
 7285SOL    HW223595   9.449   4.393   1.923  1.6249  0.5539 -0.4074
 7286SOL     OW23596   9.192   8.580   9.348 -0.1909  0.0054  0.0941
 7286SOL    HW123597   9.145   8.501   9.376 -0.6864  0.6064  1.0040
 7286SOL    HW223598   9.283   8.552   9.340  0.0171 -0.2018  2.4741
 7287SOL     OW23599   1.448   8.947   7.234  0.5585 -0.2653  0.2289
 7287SOL    HW123600   1.404   8.926   7.316 -0.1453  0.8691  0.1613
 7287SOL    HW223601   1.412   8.884   7.171 -0.4307  0.1704  0.3436
 7288SOL     OW23602   1.607   5.075   7.149 -0.0611 -0.2899  0.2990
 7288SOL    HW123603   1.577   5.003   7.093  1.6111 -0.3600 -0.5627
 7288SOL    HW223604   1.539   5.142   7.139  0.2203 -0.2604 -1.9473
 7289SOL     OW23605   0.019   7.800   5.005 -0.4421 -0.3112 -0.2440
 7289SOL    HW123606   0.019   7.735   5.074 -2.4977  0.6557  0.7808
 7289SOL    HW223607  -0.074   7.823   4.994  0.0831  1.5179 -1.4099
 7290SOL     OW23608   7.430   8.886   7.020  0.1161  0.4605 -0.1240
 7290SOL    HW123609   7.417   8.926   7.106  0.4403  0.1851  0.0538
 7290SOL    HW223610   7.517   8.915   6.992  1.5283 -2.2013  1.1664
 7291SOL     OW23611   5.173   2.994   1.785  0.5109  0.1984 -0.2700
 7291SOL    HW123612   5.231   2.975   1.711  1.5051  0.6482  0.3627
 7291SOL    HW223613   5.138   3.081   1.766  1.7016  0.8377  0.3301
 7292SOL     OW23614   1.747   5.164   2.734  0.0312  0.6257  0.4181
 7292SOL    HW123615   1.780   5.156   2.824  1.4872  0.0727 -0.1226
 7292SOL    HW223616   1.654   5.144   2.740  0.4741 -1.3543  1.5539
 7293SOL     OW23617   0.703   9.325   9.373 -0.1701 -0.2568  0.2657
 7293SOL    HW123618   0.616   9.302   9.341 -0.7906 -1.6305  2.7028
 7293SOL    HW223619   0.759   9.320   9.295 -1.7944 -2.0519 -0.8832
 7294SOL     OW23620   8.705   6.017   2.842 -0.3107 -0.1405 -0.0462
 7294SOL    HW123621   8.758   5.973   2.908 -2.2871 -0.2616  1.5588
 7294SOL    HW223622   8.754   6.006   2.760  1.6952 -0.9174  1.1864
 7295SOL     OW23623   8.371   3.634   9.089  0.3410 -0.0581  0.1466
 7295SOL    HW123624   8.308   3.681   9.144  0.1649  1.2988 -1.1640
 7295SOL    HW223625   8.378   3.548   9.129 -0.3917  0.6168  1.8189
 7296SOL     OW23626   3.155   4.385   6.539 -0.0566  0.1806  0.5533
 7296SOL    HW123627   3.069   4.425   6.522 -0.9174 -2.1104 -1.0484
 7296SOL    HW223628   3.139   4.324   6.611  0.2686 -0.0781  0.4077
 7297SOL     OW23629   7.747   6.697   4.421  0.3895 -0.3131  0.4089
 7297SOL    HW123630   7.746   6.623   4.361 -0.5604 -0.3173  0.4183
 7297SOL    HW223631   7.656   6.708   4.448  0.3105  1.5547 -0.4678
 7298SOL     OW23632   1.157   6.358   3.366 -0.2849  0.0433  0.2764
 7298SOL    HW123633   1.094   6.430   3.362 -2.5741 -1.7042  1.9511
 7298SOL    HW223634   1.134   6.310   3.446  1.6385 -2.0991 -0.3345
 7299SOL     OW23635   3.155   7.972   6.809  0.4587  0.2017 -0.1730
 7299SOL    HW123636   3.096   7.956   6.882  1.2320  0.4142  0.5157
 7299SOL    HW223637   3.100   7.962   6.731 -0.5344  0.6022  0.4469
 7300SOL     OW23638   4.451   2.569   4.034  0.7550  0.2178 -0.0295
 7300SOL    HW123639   4.388   2.574   3.961  0.4859 -3.4827 -0.2456
 7300SOL    HW223640   4.419   2.634   4.097 -0.8799  1.2823 -1.8166
 7301SOL     OW23641   6.728   5.239   6.048  0.7255  0.8891  0.5080
 7301SOL    HW123642   6.780   5.257   5.969  0.0253  0.0836 -0.1514
 7301SOL    HW223643   6.790   5.201   6.109  0.8809 -0.4450 -0.4166
 7302SOL     OW23644   6.795   7.735   8.772 -0.5068  0.0200  0.1803
 7302SOL    HW123645   6.777   7.790   8.848 -0.6834  1.0360 -0.5724
 7302SOL    HW223646   6.874   7.687   8.795  0.2563  1.3737  0.4657
 7303SOL     OW23647   0.180   6.004   0.266 -0.6209  1.1322  0.7762
 7303SOL    HW123648   0.221   6.085   0.295  2.8731 -0.1954 -0.0148
 7303SOL    HW223649   0.155   5.959   0.348 -0.8456  2.1273  1.2676
 7304SOL     OW23650   3.075   1.592   0.845 -0.1682 -0.4080 -0.3363
 7304SOL    HW123651   3.141   1.534   0.807  2.8807  1.3085  1.8972
 7304SOL    HW223652   3.023   1.535   0.901  0.5649 -1.5290 -0.7474
 7305SOL     OW23653   0.527   3.271   7.631 -0.4046 -0.1490  0.4855
 7305SOL    HW123654   0.523   3.355   7.678 -1.2092  0.7220 -1.0564
 7305SOL    HW223655   0.486   3.289   7.547 -1.3845 -2.3314  0.4237
 7306SOL     OW23656   6.684   6.477   7.392  0.2147  0.2600  0.5352
 7306SOL    HW123657   6.747   6.537   7.351 -0.4519 -0.1988 -1.2569
 7306SOL    HW223658   6.607   6.532   7.409 -0.5971 -0.1135 -1.5978
 7307SOL     OW23659   4.544   2.978   3.025  0.4343 -0.2410  0.0080
 7307SOL    HW123660   4.535   3.074   3.026  0.8240 -0.1829 -0.8981
 7307SOL    HW223661   4.477   2.947   3.085 -1.1125  0.4989 -1.2605
 7308SOL     OW23662   2.578   1.570   0.231 -0.0839  1.1462 -0.0356
 7308SOL    HW123663   2.543   1.481   0.228 -0.5937  1.3596 -0.5534
 7308SOL    HW223664   2.658   1.563   0.283 -0.3436  0.4620  0.2696
 7309SOL     OW23665   1.539   0.174   2.115  0.0082 -0.0151  0.7276
 7309SOL    HW123666   1.455   0.180   2.162 -1.3353  0.8804 -1.6243
 7309SOL    HW223667   1.576   0.090   2.143 -2.7834 -1.5567  0.1742
 7310SOL     OW23668   9.332   3.424   0.212 -0.4260  0.1140  0.5295
 7310SOL    HW123669   9.416   3.391   0.244  0.4979  2.2721  0.5213
 7310SOL    HW223670   9.271   3.352   0.226  0.9444 -0.7433  2.6517
 7311SOL     OW23671   6.617   7.526   2.307 -0.2749  0.3492  0.3324
 7311SOL    HW123672   6.636   7.434   2.327  0.8459  0.8369  1.6724
 7311SOL    HW223673   6.521   7.530   2.304 -0.3323 -0.9184 -0.0753
 7312SOL     OW23674   1.708   6.215   5.656  0.5524  0.2804  0.1519
 7312SOL    HW123675   1.629   6.177   5.618  0.2049  1.7762 -0.7079
 7312SOL    HW223676   1.770   6.219   5.583  2.2544 -2.7769  1.2408
 7313SOL     OW23677   9.422   8.055   1.481  0.0389  0.1213  0.6730
 7313SOL    HW123678   9.499   8.096   1.441 -0.4345 -0.6054 -1.0745
 7313SOL    HW223679   9.434   7.961   1.466 -1.7813  0.0654 -0.8380
 7314SOL     OW23680   4.421   0.984   1.756  0.2289  0.3732  0.0897
 7314SOL    HW123681   4.359   0.993   1.683  0.9717  1.7280 -0.4158
 7314SOL    HW223682   4.459   0.897   1.744 -0.9056 -0.1029 -0.1316
 7315SOL     OW23683   5.133   9.264   5.418  0.1192  0.7976  0.1990
 7315SOL    HW123684   5.086   9.181   5.411 -0.3149  1.1307 -1.0663
 7315SOL    HW223685   5.209   9.244   5.473 -0.3644 -0.2592  0.4983
 7316SOL     OW23686   4.541   3.775   5.380  0.6525 -0.4467  0.0968
 7316SOL    HW123687   4.566   3.760   5.470 -1.0069 -0.5216  0.5898
 7316SOL    HW223688   4.612   3.827   5.343  0.8549  0.5442  1.7696
 7317SOL     OW23689   5.434   6.460   1.803 -0.1847 -0.0713  0.3913
 7317SOL    HW123690   5.353   6.479   1.849 -0.6270 -0.1929 -0.3149
 7317SOL    HW223691   5.468   6.382   1.845 -0.3654  0.0554  0.7780
 7318SOL     OW23692   5.318   8.691   1.793 -0.7329  0.5217 -0.0993
 7318SOL    HW123693   5.238   8.729   1.757 -1.7193 -2.2128 -1.0611
 7318SOL    HW223694   5.354   8.639   1.721  1.1232  0.4998  0.7960
 7319SOL     OW23695   7.150   6.246   7.596 -0.3997  0.1082 -0.5855
 7319SOL    HW123696   7.085   6.226   7.529 -0.6429  1.6091 -0.8344
 7319SOL    HW223697   7.107   6.311   7.652  0.3216 -0.0528  0.1726
 7320SOL     OW23698   4.725   1.689   2.048 -0.2941 -0.4868  0.3690
 7320SOL    HW123699   4.754   1.611   1.999 -1.6953 -1.0602  0.3983
 7320SOL    HW223700   4.781   1.691   2.125 -1.2464 -2.4192  1.1863
 7321SOL     OW23701   9.069   0.690   2.365 -0.3561 -0.2473  0.2854
 7321SOL    HW123702   9.164   0.683   2.372 -0.2064 -1.1736 -1.8101
 7321SOL    HW223703   9.035   0.623   2.426  0.3421 -0.2115  0.7186
 7322SOL     OW23704   5.803   1.029   5.355  0.1842  0.4095  0.2276
 7322SOL    HW123705   5.877   0.971   5.338  0.1849  0.5401 -0.2332
 7322SOL    HW223706   5.753   1.029   5.274 -0.8878 -0.4826  0.8687
 7323SOL     OW23707   6.694   5.012   2.578 -0.0634  0.3276 -0.2457
 7323SOL    HW123708   6.682   5.048   2.490  0.0899 -0.6965 -0.7068
 7323SOL    HW223709   6.707   4.918   2.564 -2.1037 -0.2003  1.0333
 7324SOL     OW23710   1.039   2.996   3.234  0.7014 -0.0106  0.4977
 7324SOL    HW123711   1.010   2.906   3.247 -0.2251  0.3129  0.7896
 7324SOL    HW223712   1.083   2.996   3.150 -1.6066 -0.2179 -0.8032
 7325SOL     OW23713   5.241   4.325   0.619  0.2492 -0.6158  0.2875
 7325SOL    HW123714   5.153   4.326   0.655  0.4002 -1.4864  0.7098
 7325SOL    HW223715   5.281   4.246   0.655  1.1754 -0.2750  0.0379
 7326SOL     OW23716   5.329   9.299   3.745  0.1530 -0.4225 -0.1905
 7326SOL    HW123717   5.289   9.384   3.725 -0.0639 -0.8166 -1.5469
 7326SOL    HW223718   5.298   9.278   3.833  1.2059  1.4532  0.6998
 7327SOL     OW23719   9.183   1.350   4.755  0.0019 -0.0992 -0.0220
 7327SOL    HW123720   9.205   1.315   4.841 -0.8790  0.2598  0.3631
 7327SOL    HW223721   9.102   1.305   4.730 -0.5381  0.8371 -0.0140
 7328SOL     OW23722   6.348   5.689   1.692  0.6327 -0.5259  0.2086
 7328SOL    HW123723   6.363   5.615   1.752  0.4795 -0.8999 -0.2049
 7328SOL    HW223724   6.253   5.691   1.680  0.7827 -2.1195 -2.0324
 7329SOL     OW23725   7.221   6.086   9.526 -0.4152  0.1383 -0.5835
 7329SOL    HW123726   7.311   6.054   9.525 -0.0307  1.1726 -0.8423
 7329SOL    HW223727   7.223   6.166   9.473 -1.8154 -0.6413 -1.9061
 7330SOL     OW23728   9.441   9.018   8.268 -0.6206 -0.1395 -0.3664
 7330SOL    HW123729   9.469   9.081   8.334  2.9878 -1.8585  0.0030
 7330SOL    HW223730   9.387   8.955   8.315 -1.8432  1.0473 -0.1259
 7331SOL     OW23731   4.996   6.096   4.030  0.1360  0.3485 -0.1204
 7331SOL    HW123732   5.032   6.170   4.080 -0.1903  0.4536 -0.0362
 7331SOL    HW223733   4.904   6.093   4.056 -0.0680  0.4796 -0.8138
 7332SOL     OW23734   3.129   6.273   7.923  0.4016 -0.2575  0.5491
 7332SOL    HW123735   3.069   6.343   7.949 -0.3633 -0.4943 -0.5121
 7332SOL    HW223736   3.101   6.197   7.974  0.0894 -0.2432  0.4017
 7333SOL     OW23737   4.303   6.298   8.527 -0.3280  0.1682  0.2347
 7333SOL    HW123738   4.246   6.275   8.601 -0.8104 -1.3541 -0.5736
 7333SOL    HW223739   4.242   6.323   8.458  0.1449  3.3108  0.7984
 7334SOL     OW23740   8.888   6.898   3.781  0.3701  0.0040  0.1239
 7334SOL    HW123741   8.972   6.869   3.817  1.5084  1.7024 -1.0229
 7334SOL    HW223742   8.825   6.885   3.852  1.5892 -1.3027  1.0036
 7335SOL     OW23743   3.755   5.857   0.806 -0.4544  0.0225 -0.3637
 7335SOL    HW123744   3.833   5.834   0.756 -0.6756 -0.4643 -0.4912
 7335SOL    HW223745   3.688   5.872   0.740 -0.0827  2.0516 -0.3502
 7336SOL     OW23746   1.326   5.415   8.114 -0.1031  0.7103 -0.4196
 7336SOL    HW123747   1.236   5.392   8.094 -0.8280  0.4535  2.6692
 7336SOL    HW223748   1.326   5.511   8.117 -0.7339  0.6852  1.2095
 7337SOL     OW23749   0.434   0.816   1.412 -0.3552 -0.0537  0.4029
 7337SOL    HW123750   0.509   0.846   1.360 -0.8717  0.7253  0.0958
 7337SOL    HW223751   0.471   0.750   1.471  0.6347  0.5419  0.4736
 7338SOL     OW23752   8.880   4.982   1.644  0.4854 -0.2970 -0.0684
 7338SOL    HW123753   8.909   5.013   1.730  0.6014 -1.2316  0.2434
 7338SOL    HW223754   8.820   4.910   1.664 -0.4207  0.2458 -0.7571
 7339SOL     OW23755   7.985   4.111   3.646  0.4592  1.0167 -0.3670
 7339SOL    HW123756   8.017   4.198   3.669 -1.2171  1.3200  1.0155
 7339SOL    HW223757   8.025   4.053   3.711 -0.5057  1.1798  0.4049
 7340SOL     OW23758   3.253   4.686   2.150  0.4529 -0.2211 -0.1177
 7340SOL    HW123759   3.257   4.760   2.210 -0.1556  0.4365 -0.8634
 7340SOL    HW223760   3.168   4.645   2.168  0.4827 -0.3125 -0.1846
 7341SOL     OW23761   0.952   3.874   5.364  0.5136 -0.7853  0.1410
 7341SOL    HW123762   0.971   3.816   5.437 -0.5152 -2.5410 -0.9069
 7341SOL    HW223763   0.882   3.931   5.395  0.0245 -1.5784  0.5178
 7342SOL     OW23764   0.345   5.540   6.069  0.3421  0.2116  0.0095
 7342SOL    HW123765   0.435   5.545   6.103  0.9395 -1.8376 -1.1045
 7342SOL    HW223766   0.339   5.613   6.007  1.2365  0.3792  0.0981
 7343SOL     OW23767   8.329   3.412   5.949 -0.2719  0.4335  0.0293
 7343SOL    HW123768   8.410   3.363   5.931 -0.5170  0.1035 -0.1857
 7343SOL    HW223769   8.359   3.498   5.979  0.1891 -0.4008  2.1133
 7344SOL     OW23770   2.857   9.235   9.484  0.1243 -0.0552 -0.8799
 7344SOL    HW123771   2.939   9.267   9.523  0.1973  0.0699 -1.1364
 7344SOL    HW223772   2.884   9.158   9.433 -0.2548 -1.4201  0.8946
 7345SOL     OW23773   5.784   2.130   0.203 -0.8315  0.5705  0.7526
 7345SOL    HW123774   5.834   2.155   0.281 -0.7002  1.9840  0.2416
 7345SOL    HW223775   5.773   2.035   0.211  1.7579  0.2286  0.9602
 7346SOL     OW23776   7.436   3.522   4.872  0.0987  0.2271  0.7836
 7346SOL    HW123777   7.516   3.547   4.826 -0.4629  0.8577  0.1236
 7346SOL    HW223778   7.423   3.593   4.936 -0.7126  0.9208 -0.1106
 7347SOL     OW23779   2.099   3.753   8.112  0.1851  0.3494  0.2754
 7347SOL    HW123780   2.024   3.711   8.154  1.0185  0.5189  2.0122
 7347SOL    HW223781   2.128   3.690   8.045 -0.0496 -0.7924  1.2125
 7348SOL     OW23782   1.871   0.201   0.563  0.2525  0.0585  0.1174
 7348SOL    HW123783   1.924   0.152   0.626  1.1149 -0.7331 -1.1770
 7348SOL    HW223784   1.877   0.292   0.592  0.9713 -0.2346  0.9366
 7349SOL     OW23785   5.025   2.917   2.469  0.2658 -0.5041 -0.0555
 7349SOL    HW123786   5.072   2.956   2.543  1.8695 -2.7739  0.2127
 7349SOL    HW223787   5.065   2.831   2.458 -0.2871 -0.4405 -3.2659
 7350SOL     OW23788   0.778   6.862   1.744  0.5170  0.4599 -0.0891
 7350SOL    HW123789   0.691   6.871   1.783  0.5890  0.2499  0.1259
 7350SOL    HW223790   0.814   6.783   1.785  1.0065  0.8295  0.2069
 7351SOL     OW23791   8.888   6.374   0.960 -0.1946  0.0804 -0.4825
 7351SOL    HW123792   8.808   6.422   0.981 -0.0154  0.4421 -0.6118
 7351SOL    HW223793   8.866   6.321   0.884 -0.3913 -0.0347 -0.3463
 7352SOL     OW23794   6.727   9.543   2.467 -0.7597 -0.0881 -0.7426
 7352SOL    HW123795   6.659   9.503   2.521  0.5784  1.7829  2.6143
 7352SOL    HW223796   6.809   9.508   2.502  0.1528  0.7704 -1.9457
 7353SOL     OW23797   4.487   7.716   6.740  0.0419  0.0358 -0.3536
 7353SOL    HW123798   4.524   7.726   6.652  0.3607 -1.9825 -0.4941
 7353SOL    HW223799   4.504   7.625   6.763 -1.8760 -0.0551  0.9586
 7354SOL     OW23800   6.140   6.682   3.451 -0.1702 -0.1071 -0.5081
 7354SOL    HW123801   6.138   6.773   3.479 -0.8647 -0.1451 -0.4135
 7354SOL    HW223802   6.063   6.643   3.491 -0.2271 -0.5841 -1.0663
 7355SOL     OW23803   6.295   0.779   2.506 -0.1614 -0.3400 -0.6751
 7355SOL    HW123804   6.330   0.851   2.558 -0.7494 -0.5642  0.0569
 7355SOL    HW223805   6.304   0.808   2.415 -1.8907  1.3951 -0.3751
 7356SOL     OW23806   8.629   6.926   6.045  0.0355 -0.2885 -0.1556
 7356SOL    HW123807   8.720   6.919   6.017  0.2666 -1.2723  0.7493
 7356SOL    HW223808   8.608   6.839   6.081 -2.0580 -0.9443 -2.6197
 7357SOL     OW23809   0.281   4.908   7.117 -0.1453 -0.2417  0.8359
 7357SOL    HW123810   0.255   4.927   7.028 -1.1204  0.2386  1.2109
 7357SOL    HW223811   0.254   4.817   7.132  1.1875 -0.7676  0.2456
 7358SOL     OW23812   7.892   4.241   1.753  0.5095 -0.3106 -0.3229
 7358SOL    HW123813   7.973   4.237   1.703  0.7893 -1.4285  0.1916
 7358SOL    HW223814   7.866   4.150   1.765 -0.6156  0.0172 -0.1401
 7359SOL     OW23815   8.435   3.827   5.481 -0.5392 -0.4257  0.5125
 7359SOL    HW123816   8.364   3.818   5.418 -0.8129  0.4956  0.6633
 7359SOL    HW223817   8.407   3.899   5.538 -0.1622 -1.0415  1.4945
 7360SOL     OW23818   6.559   4.824   8.957  0.1326 -0.5121 -0.2318
 7360SOL    HW123819   6.624   4.870   8.904 -0.3022 -1.1677 -1.3588
 7360SOL    HW223820   6.542   4.743   8.910 -1.6116 -0.2912 -0.0492
 7361SOL     OW23821   4.482   9.189   2.997 -0.1327  0.6669  0.4445
 7361SOL    HW123822   4.550   9.197   3.063 -0.9784 -0.8656  1.5478
 7361SOL    HW223823   4.503   9.109   2.949 -1.7385 -0.4694  1.5478
 7362SOL     OW23824   2.789   7.510   6.886 -0.1891 -0.3072  0.0299
 7362SOL    HW123825   2.849   7.543   6.953 -2.7293  0.7615  1.9246
 7362SOL    HW223826   2.738   7.586   6.859 -0.4623 -1.0895 -1.8544
 7363SOL     OW23827   4.853   1.093   5.991  0.8282 -0.4066  0.1173
 7363SOL    HW123828   4.761   1.086   6.016  0.7794  0.2972  0.1558
 7363SOL    HW223829   4.895   1.019   6.033  0.4799 -0.0945  1.0347
 7364SOL     OW23830   7.372   9.596   2.344  0.2605 -0.5143  0.2069
 7364SOL    HW123831   7.402   9.629   2.259  0.2442 -2.2176 -0.4952
 7364SOL    HW223832   7.448   9.602   2.400  0.0826  1.3114  0.3245
 7365SOL     OW23833   0.952   3.197   0.721  0.0361  0.1408  0.1961
 7365SOL    HW123834   1.004   3.117   0.731 -1.3757 -0.6370  2.1149
 7365SOL    HW223835   0.910   3.208   0.806 -0.1274  2.7445 -0.1430
 7366SOL     OW23836   0.692   0.545   6.874  0.1050 -0.3993  0.2085
 7366SOL    HW123837   0.733   0.526   6.959 -2.3527 -2.3069  1.0964
 7366SOL    HW223838   0.617   0.602   6.895 -1.0006 -1.5285 -0.5161
 7367SOL     OW23839   7.044   9.106   3.541 -0.1305  0.4383  0.2927
 7367SOL    HW123840   7.040   9.136   3.632  3.4728 -0.1718  0.8009
 7367SOL    HW223841   7.034   9.186   3.490 -0.7284  1.0124  1.2674
 7368SOL     OW23842   8.849   5.420   4.201  0.6183 -0.4793  0.5284
 7368SOL    HW123843   8.916   5.476   4.162  2.0316 -1.4176  1.5214
 7368SOL    HW223844   8.839   5.347   4.139 -0.8416  0.5465 -0.5057
 7369SOL     OW23845   5.367   2.550   3.661  0.3117 -0.1200  0.0340
 7369SOL    HW123846   5.448   2.498   3.664 -0.2506 -0.9916  1.2520
 7369SOL    HW223847   5.357   2.573   3.569  1.3880 -0.8916 -0.3082
 7370SOL     OW23848   5.516   5.783   4.757 -0.1021  0.0277 -0.2936
 7370SOL    HW123849   5.599   5.820   4.726 -0.2173 -0.0601 -0.7219
 7370SOL    HW223850   5.516   5.694   4.723 -1.0075  0.4705 -1.5274
 7371SOL     OW23851   8.669   5.221   5.666  0.2464 -0.3595  0.1760
 7371SOL    HW123852   8.629   5.190   5.748  0.7358  0.0962  0.5938
 7371SOL    HW223853   8.740   5.279   5.695 -0.6794  1.2118 -0.5679
 7372SOL     OW23854   9.057   3.202   7.714  0.0975  0.3550  0.2841
 7372SOL    HW123855   9.010   3.121   7.693  1.2722 -0.2659 -0.0625
 7372SOL    HW223856   9.076   3.241   7.630 -0.7564  1.1900  0.4622
 7373SOL     OW23857   3.343   3.378   6.629 -0.1043 -0.1710 -0.0617
 7373SOL    HW123858   3.345   3.466   6.667 -2.2259  0.3166 -0.9371
 7373SOL    HW223859   3.276   3.332   6.680 -1.2011 -0.2805 -1.5410
 7374SOL     OW23860   4.696   5.761   0.425  0.5831  0.1522  0.7215
 7374SOL    HW123861   4.736   5.848   0.432  1.7350 -0.1142 -1.6399
 7374SOL    HW223862   4.727   5.727   0.342 -2.1781 -1.3534  0.1750
 7375SOL     OW23863   2.239   7.070   3.059  0.0310  0.1234 -0.0416
 7375SOL    HW123864   2.247   6.984   3.018  0.3250  0.8589 -1.6077
 7375SOL    HW223865   2.169   7.113   3.009  0.2275  0.9655  0.3979
 7376SOL     OW23866   0.056   0.199   5.387 -0.1850  0.2066  0.1170
 7376SOL    HW123867   0.052   0.294   5.388  0.5393  0.2459 -0.0435
 7376SOL    HW223868   0.142   0.179   5.350 -0.7734 -0.5141 -0.9408
 7377SOL     OW23869   1.838   3.291   8.829  0.1476 -0.2313 -0.0112
 7377SOL    HW123870   1.912   3.316   8.884  0.7615 -0.1669 -0.8445
 7377SOL    HW223871   1.852   3.340   8.748 -0.5312 -0.6246 -0.3711
 7378SOL     OW23872   7.562   8.600   4.815  0.3778  0.5121 -0.5282
 7378SOL    HW123873   7.499   8.615   4.744  0.8482  0.0551 -1.0438
 7378SOL    HW223874   7.570   8.505   4.819  0.4130  0.5409  0.0921
 7379SOL     OW23875   8.650   2.663   7.150 -0.0205 -0.0724  0.0155
 7379SOL    HW123876   8.566   2.697   7.181 -0.2287 -0.2719 -0.3272
 7379SOL    HW223877   8.713   2.693   7.215 -0.1792  1.0671 -0.3226
 7380SOL     OW23878   6.631   7.264   2.879  0.3448  0.2358 -0.0397
 7380SOL    HW123879   6.656   7.213   2.803 -1.0953 -1.2542  0.4246
 7380SOL    HW223880   6.688   7.341   2.877  1.1397 -0.3597 -1.9289
 7381SOL     OW23881   3.677   4.860   5.830 -0.1651 -0.8884 -0.3914
 7381SOL    HW123882   3.594   4.879   5.873 -0.6873 -2.4908 -0.6128
 7381SOL    HW223883   3.712   4.946   5.805 -0.9167 -0.0785  1.2097
 7382SOL     OW23884   0.099   3.665   9.314  0.5914 -0.3870  0.4271
 7382SOL    HW123885   0.145   3.703   9.389  0.0020  0.8749  0.1644
 7382SOL    HW223886   0.056   3.587   9.350  3.3260 -1.9631  0.5570
 7383SOL     OW23887   2.999   0.435   7.577 -0.3722  0.4291 -0.4521
 7383SOL    HW123888   3.081   0.423   7.624 -0.8480  1.1476  0.5802
 7383SOL    HW223889   3.021   0.414   7.486  1.6024  3.1459 -0.7066
 7384SOL     OW23890   6.690   3.471   0.051  0.1583  0.6517  0.3847
 7384SOL    HW123891   6.750   3.397   0.039 -2.8303 -1.8515 -0.2351
 7384SOL    HW223892   6.700   3.493   0.144 -0.0696 -1.7212  1.0515
 7385SOL     OW23893   7.727   0.785   5.445 -0.2265  0.2138  0.0748
 7385SOL    HW123894   7.772   0.716   5.395 -0.5114  1.1564 -1.5621
 7385SOL    HW223895   7.780   0.863   5.430 -0.6338  0.6395  0.8213
 7386SOL     OW23896   6.883   0.365   6.200  0.0494  0.2341  0.4297
 7386SOL    HW123897   6.925   0.393   6.118  0.2875 -0.4484  0.3138
 7386SOL    HW223898   6.790   0.380   6.185 -0.3016 -2.7694 -1.2074
 7387SOL     OW23899   8.810   2.814   5.209 -0.4011 -0.5255 -0.1662
 7387SOL    HW123900   8.773   2.725   5.203 -0.9546 -0.2209 -2.1736
 7387SOL    HW223901   8.828   2.838   5.118  0.6877  1.0514  0.4312
 7388SOL     OW23902   2.785   3.922   4.005 -0.3805  0.7199 -0.0884
 7388SOL    HW123903   2.788   3.833   3.970  1.4699  1.1377 -1.1053
 7388SOL    HW223904   2.786   3.979   3.928 -1.3114  1.6494  0.5515
 7389SOL     OW23905   0.972   1.666   1.117 -0.0032  0.3014  0.0764
 7389SOL    HW123906   1.039   1.616   1.071 -1.0750 -2.2163  1.0779
 7389SOL    HW223907   0.975   1.632   1.207 -2.7144 -0.0139  0.1047
 7390SOL     OW23908   8.375   6.273   1.620  0.8262 -0.8460 -0.2634
 7390SOL    HW123909   8.303   6.329   1.651  0.7133 -0.5526 -1.0439
 7390SOL    HW223910   8.337   6.224   1.547  1.5116 -0.4402 -0.8994
 7391SOL     OW23911   9.002   3.504   6.051 -0.0777  0.1684  0.3046
 7391SOL    HW123912   9.070   3.508   6.118  0.7214  1.4231 -0.5440
 7391SOL    HW223913   9.007   3.414   6.017  1.5681  0.3945 -0.1419
 7392SOL     OW23914   9.455   6.875   5.568 -0.1685  0.5595  0.0569
 7392SOL    HW123915   9.366   6.877   5.602 -0.1027 -2.0351  0.6039
 7392SOL    HW223916   9.511   6.883   5.646  0.1156  1.5616 -0.2237
 7393SOL     OW23917   1.583   6.179   0.866 -0.1623  0.1540  0.3510
 7393SOL    HW123918   1.641   6.110   0.899  1.3894  1.6792  0.9395
 7393SOL    HW223919   1.504   6.132   0.839  0.5691 -1.7702  1.3421
 7394SOL     OW23920   1.185   8.704   4.692 -0.3628 -0.2193 -0.0010
 7394SOL    HW123921   1.200   8.619   4.734  0.4697 -0.8921 -1.5757
 7394SOL    HW223922   1.262   8.757   4.715 -0.4221 -0.2233  0.2013
 7395SOL     OW23923   9.260   6.336   0.269 -0.4323 -0.1453  0.0804
 7395SOL    HW123924   9.340   6.299   0.306 -0.2202 -1.6171 -1.7372
 7395SOL    HW223925   9.189   6.298   0.322 -0.0414 -0.4283  0.4052
 7396SOL     OW23926   0.613   4.846   7.199  0.4584  0.2913 -0.1418
 7396SOL    HW123927   0.699   4.806   7.183  0.0020 -0.7492 -0.0884
 7396SOL    HW223928   0.556   4.772   7.218 -0.2245  1.0551  0.8952
 7397SOL     OW23929   2.496   0.422   9.381 -1.4102 -0.2256  0.0754
 7397SOL    HW123930   2.462   0.345   9.336  1.4460 -1.3389 -0.3407
 7397SOL    HW223931   2.443   0.495   9.347 -2.1914 -1.5904 -1.7878
 7398SOL     OW23932   3.453   9.582   5.504  0.8197 -0.4499  0.2234
 7398SOL    HW123933   3.409   9.542   5.429  2.2986 -1.8344  0.0461
 7398SOL    HW223934   3.484   9.666   5.472 -2.0538  0.8336  0.5036
 7399SOL     OW23935   7.791   1.015   6.845  0.0972  0.3931  0.2397
 7399SOL    HW123936   7.842   0.939   6.872  0.7233 -0.1343 -2.2122
 7399SOL    HW223937   7.708   1.006   6.892  1.2934 -0.0945  2.3469
 7400SOL     OW23938   2.270   2.617   4.390 -0.3165  0.3765  0.0368
 7400SOL    HW123939   2.295   2.565   4.314  2.4339  0.8519  0.4877
 7400SOL    HW223940   2.203   2.566   4.434 -0.9861 -0.5421 -1.9696
 7401SOL     OW23941   4.257   8.097   1.878 -0.1037 -0.0305 -0.6244
 7401SOL    HW123942   4.297   8.011   1.877  3.7164  1.5491 -1.2590
 7401SOL    HW223943   4.248   8.120   1.785 -0.4221  0.5283 -0.4607
 7402SOL     OW23944   6.544   2.799   8.864  0.0585  0.0646 -0.5685
 7402SOL    HW123945   6.511   2.842   8.785 -0.1156  1.2209  0.1064
 7402SOL    HW223946   6.579   2.870   8.917 -1.0642 -0.4977  1.0015
 7403SOL     OW23947   3.251   0.479   4.198  0.2614 -0.4328 -0.0496
 7403SOL    HW123948   3.274   0.397   4.155  0.9009 -0.3786  0.1858
 7403SOL    HW223949   3.246   0.457   4.291  2.4340  0.2002  0.2694
 7404SOL     OW23950   9.611   4.289   7.697  0.1066 -0.2777 -0.1435
 7404SOL    HW123951   9.586   4.238   7.774 -1.3105  0.7545  0.1134
 7404SOL    HW223952   9.664   4.229   7.645 -0.8922 -1.7748  0.4966
 7405SOL     OW23953   3.947   9.022   8.366  0.1015 -0.4603  0.0102
 7405SOL    HW123954   3.966   8.944   8.314  1.5684 -1.3619  1.7624
 7405SOL    HW223955   3.862   9.005   8.406  0.1903 -0.9599 -0.0062
 7406SOL     OW23956   1.315   2.126   3.709 -1.0016  0.0481  0.2419
 7406SOL    HW123957   1.225   2.137   3.678 -1.2557 -0.2572  0.8487
 7406SOL    HW223958   1.327   2.031   3.713 -0.6495  0.0895  0.1586
 7407SOL     OW23959   0.122   6.966   1.221  0.3403  0.0069  0.2644
 7407SOL    HW123960   0.125   6.897   1.287  1.1707 -0.1015  0.1252
 7407SOL    HW223961   0.029   6.975   1.200  0.2205 -1.1074  0.2440
 7408SOL     OW23962   4.385   5.592   4.536 -0.1444 -0.2416  0.0357
 7408SOL    HW123963   4.328   5.629   4.602  2.6492  0.1531  2.4499
 7408SOL    HW223964   4.410   5.506   4.571  0.0827 -0.7755 -1.3591
 7409SOL     OW23965   9.126   1.711   8.512 -0.2847  0.4838 -0.5615
 7409SOL    HW123966   9.051   1.719   8.453 -1.2712 -0.1345  0.5557
 7409SOL    HW223967   9.155   1.620   8.500  1.3176  1.1345 -2.1255
 7410SOL     OW23968   6.463   8.139   1.980 -0.0859 -0.4628 -0.4173
 7410SOL    HW123969   6.417   8.211   2.024 -0.6853 -0.0227 -1.6955
 7410SOL    HW223970   6.418   8.131   1.896  0.9128 -1.3775 -0.8836
 7411SOL     OW23971   3.949   9.422   7.179 -0.0399 -0.0740  0.5367
 7411SOL    HW123972   3.902   9.382   7.252 -0.6489  1.8749  1.2760
 7411SOL    HW223973   3.881   9.466   7.127  0.5771 -0.1258 -0.3483
 7412SOL     OW23974   5.302   6.437   3.546 -0.2823 -0.5192 -0.8301
 7412SOL    HW123975   5.345   6.353   3.533  1.8147 -0.0149  1.8982
 7412SOL    HW223976   5.271   6.435   3.636 -0.4171  1.5039 -0.7713
 7413SOL     OW23977   2.012   5.852   6.579  0.1464 -0.0368  0.3215
 7413SOL    HW123978   1.993   5.946   6.584 -0.2716 -0.1487  1.0987
 7413SOL    HW223979   2.051   5.832   6.664  1.0726 -0.3972 -0.1789
 7414SOL     OW23980   8.656   3.088   4.840 -0.1850 -0.1174 -0.1932
 7414SOL    HW123981   8.592   3.142   4.794 -0.0767 -0.6220 -0.9682
 7414SOL    HW223982   8.725   3.148   4.865  0.0296  0.0790 -1.2214
 7415SOL     OW23983   7.521   0.436   9.392  0.4762 -0.5233  0.6038
 7415SOL    HW123984   7.478   0.476   9.316 -0.9867 -1.2603  1.0016
 7415SOL    HW223985   7.613   0.460   9.383  0.0139  1.1034 -0.3191
 7416SOL     OW23986   1.452   8.372   7.085  0.1624  0.1690  0.3009
 7416SOL    HW123987   1.481   8.378   7.176  0.0522 -0.5228  0.3822
 7416SOL    HW223988   1.379   8.311   7.086  0.6593 -0.4643 -0.3658
 7417SOL     OW23989   7.135   8.884   0.835  0.1859 -0.2200 -0.2951
 7417SOL    HW123990   7.152   8.791   0.851  0.8286 -0.6757 -3.1261
 7417SOL    HW223991   7.218   8.928   0.855 -0.1898 -0.1737  1.2807
 7418SOL     OW23992   6.658   2.311   5.885  0.0829  0.3260 -0.7332
 7418SOL    HW123993   6.730   2.250   5.873  1.6100  1.8945 -0.0424
 7418SOL    HW223994   6.693   2.396   5.857 -0.4957  1.6649  2.1842
 7419SOL     OW23995   0.832   4.617   4.190  0.2081 -0.0744  0.6789
 7419SOL    HW123996   0.909   4.605   4.245  0.6644 -0.5568 -0.0482
 7419SOL    HW223997   0.865   4.610   4.101  0.1731  4.4412  0.1078
 7420SOL     OW23998   7.633   8.016   6.050 -0.2945  0.3389 -0.3095
 7420SOL    HW123999   7.716   8.018   6.099 -0.0455  0.5277 -0.7379
 7420SOL    HW224000   7.570   7.979   6.112  0.1007  0.2319  0.0340
 7421SOL     OW24001   4.519   1.750   1.166  0.4582 -0.7527  0.3013
 7421SOL    HW124002   4.544   1.762   1.074  0.7239 -0.4770  0.4101
 7421SOL    HW224003   4.521   1.838   1.203 -1.1524 -0.6304  0.1940
 7422SOL     OW24004   7.327   8.295   9.004 -0.0221 -0.6317  0.6870
 7422SOL    HW124005   7.247   8.308   8.953  0.0110 -1.4596  0.3981
 7422SOL    HW224006   7.388   8.360   8.971 -1.3548  1.8056  2.6914
 7423SOL     OW24007   2.589   7.636   1.922 -0.2521 -0.2699  0.3068
 7423SOL    HW124008   2.525   7.707   1.922  2.4903  2.4840 -2.3304
 7423SOL    HW224009   2.606   7.620   2.015 -1.4316  2.0809  1.0013
 7424SOL     OW24010   6.157   8.884   0.539  0.4940 -0.1260 -0.0661
 7424SOL    HW124011   6.152   8.851   0.449 -1.0917 -0.5485  0.1612
 7424SOL    HW224012   6.212   8.962   0.532  0.8234 -0.4377 -1.3073
 7425SOL     OW24013   2.381   6.403   1.496 -0.0032  0.3372 -0.1330
 7425SOL    HW124014   2.356   6.486   1.537 -0.1038  0.9226 -1.3436
 7425SOL    HW224015   2.299   6.366   1.465 -0.1788 -1.0332  1.8112
 7426SOL     OW24016   4.274   7.704   2.412 -0.2104 -0.3340 -0.3011
 7426SOL    HW124017   4.314   7.626   2.450  0.4247  0.1571  0.0723
 7426SOL    HW224018   4.225   7.672   2.336 -0.3376 -1.1486  0.1136
 7427SOL     OW24019   8.010   3.778   8.671  0.0834 -0.2482 -0.0870
 7427SOL    HW124020   8.014   3.694   8.627 -0.5895 -0.2633 -0.1350
 7427SOL    HW224021   8.100   3.811   8.670  0.3354 -0.9327 -0.1219
 7428SOL     OW24022   5.271   1.612   5.257 -0.5563 -0.2022 -0.0581
 7428SOL    HW124023   5.330   1.568   5.318 -2.0610 -2.8932 -0.3700
 7428SOL    HW224024   5.183   1.596   5.292 -1.2979  0.6255 -1.4311
 7429SOL     OW24025   2.485   4.420   3.429 -0.6714  0.7519  0.3495
 7429SOL    HW124026   2.395   4.391   3.446 -0.5572 -0.0734 -0.3832
 7429SOL    HW224027   2.507   4.476   3.503 -1.5926  0.5031  0.8186
 7430SOL     OW24028   6.255   1.153   8.833 -0.2837 -0.0851  0.2938
 7430SOL    HW124029   6.279   1.158   8.925  1.3092 -0.6745 -0.0512
 7430SOL    HW224030   6.300   1.075   8.800 -1.0497 -0.0505 -0.9241
 7431SOL     OW24031   1.699   7.054   2.167 -0.0097  0.1936  0.3516
 7431SOL    HW124032   1.752   7.130   2.192 -2.4334  1.7106  1.2557
 7431SOL    HW224033   1.639   7.042   2.240 -1.0983 -1.2468 -0.7376
 7432SOL     OW24034   8.701   0.522   1.896  0.6567 -0.5028  0.0949
 7432SOL    HW124035   8.667   0.542   1.983 -1.9535  0.4159 -1.0363
 7432SOL    HW224036   8.624   0.501   1.844  2.0181 -0.0214 -2.2615
 7433SOL     OW24037   7.086   4.795   9.567 -0.5093  0.1068  0.0596
 7433SOL    HW124038   7.155   4.737   9.599 -1.1490  0.0327  1.4167
 7433SOL    HW224039   7.071   4.768   9.477  0.7159 -0.3633 -0.0177
 7434SOL     OW24040   4.778   7.821   3.571  0.1111  0.0790 -0.3671
 7434SOL    HW124041   4.822   7.880   3.633 -0.1164 -0.6107  0.4791
 7434SOL    HW224042   4.843   7.754   3.551  0.0194  0.0219 -0.4755
 7435SOL     OW24043   3.003   3.991   2.920  0.3786  0.1581  0.4599
 7435SOL    HW124044   2.942   3.922   2.896  0.0910  0.3370  0.6675
 7435SOL    HW224045   3.073   3.985   2.855 -0.6603  0.9946 -0.7896
 7436SOL     OW24046   2.981   3.775   5.140  0.1053 -0.2780 -0.5860
 7436SOL    HW124047   3.019   3.702   5.092 -0.1863  0.0516 -1.3396
 7436SOL    HW224048   2.997   3.851   5.084 -0.4777  0.0728 -0.2866
 7437SOL     OW24049   2.866   6.637   1.034  0.2593  0.2426  0.3980
 7437SOL    HW124050   2.882   6.708   0.971  0.2715  0.7855  1.0013
 7437SOL    HW224051   2.953   6.605   1.056  0.2322 -0.3173 -0.2608
 7438SOL     OW24052   2.290   8.807   6.656 -0.3115 -0.4588  0.1030
 7438SOL    HW124053   2.315   8.802   6.748 -1.1718 -0.7247  0.3350
 7438SOL    HW224054   2.360   8.856   6.614  1.0910 -2.0222  0.5269
 7439SOL     OW24055   6.609   0.760   6.133  0.0024  0.1422 -0.2380
 7439SOL    HW124056   6.639   0.669   6.124  1.8089  0.8329 -2.0345
 7439SOL    HW224057   6.688   0.812   6.119 -1.0750  2.0078  0.3791
 7440SOL     OW24058   8.195   4.489   4.084 -0.0851  0.3256  0.1497
 7440SOL    HW124059   8.180   4.578   4.051  0.3262  0.4635  0.3346
 7440SOL    HW224060   8.290   4.482   4.092 -0.0843 -0.3082 -0.3441
 7441SOL     OW24061   6.411   8.192   6.498  0.1803 -0.0540 -0.4388
 7441SOL    HW124062   6.358   8.142   6.436  0.1142 -0.6629  0.0918
 7441SOL    HW224063   6.485   8.135   6.517 -0.5649 -0.5581  1.1825
 7442SOL     OW24064   9.335   3.627   6.478  0.2773 -0.0298 -0.2038
 7442SOL    HW124065   9.276   3.578   6.535  1.8174 -2.3471 -0.4635
 7442SOL    HW224066   9.324   3.589   6.392  0.1579  1.4154 -0.8655
 7443SOL     OW24067   0.617   8.567   2.905 -0.0374  0.2676  0.2221
 7443SOL    HW124068   0.672   8.535   2.976  1.9725  1.8163 -0.5529
 7443SOL    HW224069   0.571   8.643   2.943 -1.3704 -0.7612  0.7377
 7444SOL     OW24070   1.433   6.739   8.693  0.2157 -0.3087  0.2350
 7444SOL    HW124071   1.365   6.789   8.739  0.8285  1.1645 -0.4062
 7444SOL    HW224072   1.429   6.652   8.732 -0.4378  0.4153  1.8731
 7445SOL     OW24073   3.310   5.466   7.656  0.2849  0.0128  0.0461
 7445SOL    HW124074   3.401   5.443   7.639  0.5601  0.3219  1.0096
 7445SOL    HW224075   3.305   5.475   7.751 -0.3392  1.6453 -0.1001
 7446SOL     OW24076   2.461   3.562   8.397  0.0275 -0.1040 -0.5838
 7446SOL    HW124077   2.525   3.541   8.465  0.9849 -0.3879 -1.5470
 7446SOL    HW224078   2.425   3.477   8.371 -1.4795  0.1163  0.6038
 7447SOL     OW24079   8.437   2.796   7.276 -0.2205 -0.6130  0.1344
 7447SOL    HW124080   8.425   2.869   7.215  0.2458 -0.4443  0.2369
 7447SOL    HW224081   8.349   2.764   7.293 -0.4633  0.1288  0.3210
 7448SOL     OW24082   6.868   2.711   6.698  0.3545 -0.2182 -0.3047
 7448SOL    HW124083   6.873   2.618   6.721 -0.1625 -0.5863 -1.6036
 7448SOL    HW224084   6.803   2.747   6.758 -2.2950 -1.5254 -2.1874
 7449SOL     OW24085   0.243   6.699   5.567  0.6938 -0.2241  0.1339
 7449SOL    HW124086   0.338   6.705   5.574  0.7973 -1.7978  0.3368
 7449SOL    HW224087   0.225   6.605   5.561 -0.7762  0.0953 -1.0129
 7450SOL     OW24088   4.064   6.105   4.817  0.1892  0.2427  0.5036
 7450SOL    HW124089   4.081   6.012   4.834 -1.0199 -0.0233  0.3425
 7450SOL    HW224090   4.105   6.122   4.732  2.0921  0.3739  1.3841
 7451SOL     OW24091   2.313   6.785   0.032  0.5082 -0.0163 -0.2128
 7451SOL    HW124092   2.258   6.837  -0.025  1.1785  0.1549 -0.7157
 7451SOL    HW224093   2.337   6.844   0.104 -1.7104 -0.7106  1.2012
 7452SOL     OW24094   6.200   5.516   9.127 -0.0362  0.1423 -0.2242
 7452SOL    HW124095   6.225   5.598   9.169 -0.3255 -0.5202  1.3272
 7452SOL    HW224096   6.167   5.461   9.199 -1.5957 -0.6733 -1.4946
 7453SOL     OW24097   4.596   6.779   5.314 -0.1213 -0.1256  0.7882
 7453SOL    HW124098   4.629   6.869   5.314  0.4391 -0.2061 -2.5423
 7453SOL    HW224099   4.675   6.725   5.307 -0.5465 -0.4900 -3.3226
 7454SOL     OW24100   7.462   0.722   5.533 -0.4580 -0.2817 -0.2523
 7454SOL    HW124101   7.550   0.753   5.512  0.0762 -0.6300  1.3191
 7454SOL    HW224102   7.408   0.801   5.528  0.1935  0.1980  0.0556
 7455SOL     OW24103   1.805   8.261   6.709  0.0142  0.3281 -0.0886
 7455SOL    HW124104   1.835   8.173   6.686 -0.0351  0.3754 -0.3353
 7455SOL    HW224105   1.776   8.299   6.626  1.4417  1.1378 -0.2464
 7456SOL     OW24106   6.160   4.980   1.203 -0.1192 -0.0546  0.3423
 7456SOL    HW124107   6.177   5.019   1.118  0.7352  0.8457  0.9123
 7456SOL    HW224108   6.193   4.890   1.195  1.3174  0.4626  0.1672
 7457SOL     OW24109   1.722   4.272   3.382 -0.1146 -0.0910  0.1620
 7457SOL    HW124110   1.790   4.331   3.416  1.1481 -0.5955 -1.3883
 7457SOL    HW224111   1.650   4.330   3.357 -0.6142  0.3990  2.4695
 7458SOL     OW24112   1.917   6.667   6.897 -0.2041 -0.6112 -0.4418
 7458SOL    HW124113   1.823   6.676   6.887 -0.3537 -1.0163  0.4318
 7458SOL    HW224114   1.928   6.585   6.946  0.5732 -0.3531 -0.1636
 7459SOL     OW24115   2.520   7.488   1.028 -0.7040 -0.3306  0.4545
 7459SOL    HW124116   2.459   7.528   0.965  0.4681 -0.0542 -0.5262
 7459SOL    HW224117   2.493   7.525   1.113 -0.6851  1.3137 -0.2081
 7460SOL     OW24118   3.271   2.380   8.310  0.0372 -0.0232 -0.3548
 7460SOL    HW124119   3.180   2.401   8.290  0.2342  1.1083 -0.1267
 7460SOL    HW224120   3.289   2.424   8.392  0.5402 -0.9977  0.0824
 7461SOL     OW24121   5.542   4.491   3.669 -0.1141  0.1120  0.6468
 7461SOL    HW124122   5.460   4.468   3.713 -0.9532 -0.1719 -0.9787
 7461SOL    HW224123   5.575   4.407   3.636  0.7918  0.2421  1.1988
 7462SOL     OW24124   9.279   5.581   5.831  0.1712 -0.0253  0.0773
 7462SOL    HW124125   9.263   5.674   5.849  0.7544 -0.1469  1.3185
 7462SOL    HW224126   9.246   5.568   5.742  0.9070  1.5824 -0.4822
 7463SOL     OW24127   7.824   9.476   4.202  0.7292  0.5693 -0.2019
 7463SOL    HW124128   7.867   9.418   4.265 -0.2145  0.5269  0.4313
 7463SOL    HW224129   7.826   9.562   4.244  2.4884  1.1113 -1.3175
 7464SOL     OW24130   2.058   3.698   7.448  0.3871 -0.1555  0.0918
 7464SOL    HW124131   2.044   3.761   7.519 -0.0734 -0.9883  0.7655
 7464SOL    HW224132   2.042   3.612   7.489  0.8952 -0.7024 -0.8279
 7465SOL     OW24133   6.427   1.217   7.095  0.1176  0.1705  0.0604
 7465SOL    HW124134   6.502   1.274   7.078 -0.0082  0.6644  1.0935
 7465SOL    HW224135   6.378   1.218   7.013  1.5680 -0.6959 -0.8690
 7466SOL     OW24136   1.478   3.039   5.153 -0.0962  0.3698  0.2430
 7466SOL    HW124137   1.412   3.025   5.085  0.2669  1.2497 -0.3052
 7466SOL    HW224138   1.555   2.991   5.121  0.2613  1.2630 -0.2699
 7467SOL     OW24139   7.429   5.651   0.333 -0.0390 -0.5089 -0.0820
 7467SOL    HW124140   7.447   5.589   0.403 -0.2285 -0.0755  0.3624
 7467SOL    HW224141   7.498   5.717   0.341 -1.3371  0.8081  1.2132
 7468SOL     OW24142   2.437   6.771   4.678  0.3623  0.7776  0.1343
 7468SOL    HW124143   2.495   6.796   4.750  0.7293  4.7895 -1.2814
 7468SOL    HW224144   2.479   6.695   4.639  1.1601 -0.3322  2.9480
 7469SOL     OW24145   6.438   1.970   3.672 -0.3224  0.1441 -0.7928
 7469SOL    HW124146   6.373   1.928   3.729  0.2615 -0.9793 -0.9306
 7469SOL    HW224147   6.522   1.955   3.716 -0.2255  2.6519  0.0230
 7470SOL     OW24148   1.278   3.850   1.553  0.1498  0.2874 -0.0304
 7470SOL    HW124149   1.320   3.764   1.541 -0.7951 -0.0362 -1.2353
 7470SOL    HW224150   1.193   3.829   1.591  0.4016  0.8055  0.8318
 7471SOL     OW24151   4.111   6.159   1.376 -0.3006 -0.3949 -0.6511
 7471SOL    HW124152   4.195   6.196   1.348 -0.7381  0.5757 -0.7238
 7471SOL    HW224153   4.046   6.217   1.336 -1.0050 -1.1249 -0.5732
 7472SOL     OW24154   6.035   2.039   4.313 -0.0983 -0.1915 -0.1325
 7472SOL    HW124155   6.087   1.959   4.318  0.6117  0.2599 -0.1976
 7472SOL    HW224156   6.098   2.110   4.327 -0.6934  0.3661 -0.2222
 7473SOL     OW24157   6.867   4.186   6.290 -0.7143  0.6223  0.5888
 7473SOL    HW124158   6.787   4.222   6.251  0.4630  1.1963 -1.4386
 7473SOL    HW224159   6.931   4.257   6.284  0.4288 -0.3787  0.5907
 7474SOL     OW24160   6.077   3.553   8.693 -0.0215  0.1473 -0.1722
 7474SOL    HW124161   6.096   3.517   8.780 -0.3266  0.5995  0.0846
 7474SOL    HW224162   6.158   3.540   8.644 -0.2239 -1.2217 -0.1995
 7475SOL     OW24163   2.482   7.935   0.878 -0.5568 -0.7765 -0.1465
 7475SOL    HW124164   2.465   7.946   0.785 -0.5499 -0.1121 -0.0781
 7475SOL    HW224165   2.470   7.842   0.895 -0.3701 -0.9285 -0.8484
 7476SOL     OW24166   6.216   9.390   5.683  0.5621  0.4424 -0.1307
 7476SOL    HW124167   6.202   9.332   5.608 -2.3778  0.3746  0.3754
 7476SOL    HW224168   6.271   9.340   5.743 -1.1704 -1.5107 -0.1010
 7477SOL     OW24169   2.311   3.768   5.602 -0.0536  0.0767 -0.0147
 7477SOL    HW124170   2.390   3.807   5.566  0.2663  1.0643  1.6711
 7477SOL    HW224171   2.329   3.674   5.603  2.1029  0.4296  2.4894
 7478SOL     OW24172   1.851   8.170   2.929  0.0544  0.0254  0.2763
 7478SOL    HW124173   1.873   8.212   3.013 -2.0664  0.7809  0.5184
 7478SOL    HW224174   1.858   8.241   2.865 -1.4601  0.2844  0.3554
 7479SOL     OW24175   4.230   1.537   3.183  0.4905  0.3554  0.0844
 7479SOL    HW124176   4.139   1.560   3.163  0.0153 -0.3024  1.3694
 7479SOL    HW224177   4.239   1.446   3.155  0.5802  0.2449  0.4617
 7480SOL     OW24178   6.559   3.013   2.487  0.5087 -0.4760  0.0130
 7480SOL    HW124179   6.489   2.948   2.490  1.1034 -1.0886  0.9363
 7480SOL    HW224180   6.633   2.968   2.446 -0.2108  0.7761 -2.8630
 7481SOL     OW24181   8.711   8.497   4.780 -0.3077 -0.3494  0.3463
 7481SOL    HW124182   8.775   8.538   4.722 -0.7604  0.6951  0.5551
 7481SOL    HW224183   8.640   8.562   4.786 -0.5098 -0.6764  1.6214
 7482SOL     OW24184   9.561   8.759   3.089 -0.4928  0.2721 -0.3139
 7482SOL    HW124185   9.585   8.770   2.997  0.2336  2.1226  0.0358
 7482SOL    HW224186   9.631   8.803   3.137 -1.6014  0.6194  1.0505
 7483SOL     OW24187   1.088   1.363   5.181  0.4267 -0.8351 -0.8432
 7483SOL    HW124188   1.123   1.435   5.129  1.7327 -0.1760  0.8630
 7483SOL    HW224189   1.065   1.296   5.116 -1.3227  1.2368 -2.5351
 7484SOL     OW24190   0.377   9.253   0.671 -0.3997 -0.8306  0.4625
 7484SOL    HW124191   0.382   9.235   0.577  1.1560  0.6020  0.2051
 7484SOL    HW224192   0.397   9.347   0.678  0.4603 -1.1037  2.2725
 7485SOL     OW24193   0.666   2.493   2.427 -0.0246  1.1034  0.7340
 7485SOL    HW124194   0.658   2.454   2.514 -0.5971 -2.4294 -0.7340
 7485SOL    HW224195   0.753   2.532   2.427  1.0452 -1.0662  2.1358
 7486SOL     OW24196   1.649   6.927   1.615  0.1021  0.1084  0.1610
 7486SOL    HW124197   1.723   6.895   1.667  1.6010  1.7256 -0.8220
 7486SOL    HW224198   1.638   7.018   1.644  0.2880  0.7161 -1.5422
 7487SOL     OW24199   9.453   6.544   1.263  0.0527 -0.3774 -0.4014
 7487SOL    HW124200   9.454   6.553   1.358 -1.3412  2.4198 -0.5612
 7487SOL    HW224201   9.409   6.460   1.248 -1.0444 -0.1985  1.4457
 7488SOL     OW24202   3.708   7.316   1.157 -0.4127  0.1940  0.0950
 7488SOL    HW124203   3.669   7.230   1.175  0.1396  0.2605  1.7307
 7488SOL    HW224204   3.661   7.376   1.215  0.3200  0.7229  0.1397
 7489SOL     OW24205   5.533   4.774   0.062  0.2226 -0.2794  0.1437
 7489SOL    HW124206   5.573   4.835   0.125  0.4436 -1.5852  1.3141
 7489SOL    HW224207   5.477   4.718   0.115  0.4923 -1.4926 -0.8173
 7490SOL     OW24208   5.327   1.406   8.176 -0.2217  0.3877  0.2295
 7490SOL    HW124209   5.354   1.329   8.125 -0.1168 -1.4319  2.8673
 7490SOL    HW224210   5.257   1.446   8.123 -0.9960 -2.1117 -0.7909
 7491SOL     OW24211   3.301   7.900   2.263  0.4630 -0.1503 -0.7275
 7491SOL    HW124212   3.327   7.827   2.207  1.4905  0.1308 -0.6316
 7491SOL    HW224213   3.349   7.976   2.228  1.7063 -0.1106  0.9469
 7492SOL     OW24214   2.094   7.749   4.795  0.1238  0.0438  0.2300
 7492SOL    HW124215   2.167   7.761   4.855 -0.0862 -0.7775  0.6719
 7492SOL    HW224216   2.107   7.661   4.759 -1.2396 -0.5868  1.1735
 7493SOL     OW24217   1.443   3.128   3.195 -0.1288  0.7672 -0.0983
 7493SOL    HW124218   1.408   3.216   3.184  0.7743  0.8330 -3.7660
 7493SOL    HW224219   1.516   3.138   3.256 -1.0423  2.1945  0.8162
 7494SOL     OW24220   1.383   4.154   2.916 -0.5763  0.1194 -0.4181
 7494SOL    HW124221   1.335   4.154   2.834 -1.7450  0.6427  0.2378
 7494SOL    HW224222   1.372   4.065   2.950 -0.1153 -0.0894 -0.8011
 7495SOL     OW24223   6.426   7.301   2.076 -0.0524 -0.5388  0.2979
 7495SOL    HW124224   6.492   7.232   2.073  0.4749 -0.0920  1.1503
 7495SOL    HW224225   6.426   7.339   1.988 -1.7309 -2.8526 -0.7908
 7496SOL     OW24226   3.357   8.860   2.477 -0.3105 -0.2746 -0.0638
 7496SOL    HW124227   3.389   8.896   2.560  1.3842  0.4678 -0.9876
 7496SOL    HW224228   3.283   8.916   2.454  0.5068  0.8678 -0.0454
 7497SOL     OW24229   0.320   6.474   9.573 -0.6747 -0.3089  0.2487
 7497SOL    HW124230   0.289   6.553   9.530 -0.4711  0.6137  1.7444
 7497SOL    HW224231   0.402   6.499   9.615 -0.9482 -1.1177  1.3054
 7498SOL     OW24232   5.838   3.238   7.865  0.4117 -0.5364 -0.5449
 7498SOL    HW124233   5.803   3.323   7.837 -0.5572 -0.9161 -0.5441
 7498SOL    HW224234   5.762   3.180   7.863  1.1179 -1.4613 -0.7756
 7499SOL     OW24235   2.600   5.997   3.081  0.2669 -0.0206 -0.1659
 7499SOL    HW124236   2.540   6.071   3.082 -1.5257 -1.3672 -1.7408
 7499SOL    HW224237   2.650   6.005   3.163 -2.0535  1.1631  1.2350
 7500SOL     OW24238   2.410   3.083   5.501  0.3128 -0.0606 -0.1006
 7500SOL    HW124239   2.414   3.175   5.475  0.5174  0.0431  0.2895
 7500SOL    HW224240   2.319   3.070   5.530  0.3503  0.0835  0.0823
 7501SOL     OW24241   5.646   5.053   4.325 -0.3206  0.1127  0.4068
 7501SOL    HW124242   5.627   5.027   4.415  1.2809  1.1382  1.1022
 7501SOL    HW224243   5.735   5.021   4.309 -0.9270 -0.8993 -1.1902
 7502SOL     OW24244   7.436   5.486   5.202 -0.2251 -0.0014 -0.1448
 7502SOL    HW124245   7.396   5.542   5.136  0.1398  0.0377 -0.3353
 7502SOL    HW224246   7.426   5.397   5.168 -2.6574 -0.2760  1.1162
 7503SOL     OW24247   3.839   3.129   0.153 -0.1143  0.0431  0.0604
 7503SOL    HW124248   3.772   3.118   0.222 -0.3056  0.1737 -0.1037
 7503SOL    HW224249   3.805   3.080   0.079  0.1370 -0.1734  0.0883
 7504SOL     OW24250   4.653   9.041   5.122 -0.2478 -0.7844  0.1297
 7504SOL    HW124251   4.628   9.002   5.206  1.0360  0.3110  1.0591
 7504SOL    HW224252   4.736   9.085   5.139 -0.4001  0.2447 -1.4989
 7505SOL     OW24253   7.203   5.759   0.455  0.6474  0.7340 -0.2150
 7505SOL    HW124254   7.281   5.715   0.422 -0.4461 -0.9325 -0.7041
 7505SOL    HW224255   7.144   5.687   0.479 -0.0180  1.9307  1.9232
 7506SOL     OW24256   9.561   0.008   1.995 -0.0164  0.6829 -0.3423
 7506SOL    HW124257   9.517   0.079   2.043 -2.3653 -1.6849  1.2879
 7506SOL    HW224258   9.502  -0.011   1.922  0.8208  0.6696 -1.0224
 7507SOL     OW24259   4.062   9.136   2.102  0.0275 -0.6551 -0.3194
 7507SOL    HW124260   3.977   9.119   2.143 -0.6606  0.2363 -1.3265
 7507SOL    HW224261   4.076   9.230   2.113  0.8192 -0.7686 -0.2983
 7508SOL     OW24262   5.593   5.073   7.946  0.9257 -0.5101  0.1702
 7508SOL    HW124263   5.686   5.085   7.928  1.1335 -0.0913  1.4349
 7508SOL    HW224264   5.583   5.100   8.037 -0.5199 -0.1014 -0.0912
 7509SOL     OW24265   1.167   9.491   1.704  0.0531 -0.2444 -0.0624
 7509SOL    HW124266   1.087   9.442   1.688 -0.6093  0.3692  1.2345
 7509SOL    HW224267   1.165   9.511   1.798  0.3713  2.1028 -0.4974
 7510SOL     OW24268   8.736   2.094   6.856 -0.5708  0.2820 -0.2216
 7510SOL    HW124269   8.758   2.136   6.939  1.3076  0.7998 -0.9349
 7510SOL    HW224270   8.690   2.162   6.807  0.0919  0.6520 -0.3482
 7511SOL     OW24271   0.417   3.656   8.357  0.2308 -0.1111  0.6593
 7511SOL    HW124272   0.485   3.595   8.329  0.2320 -0.6933  1.8458
 7511SOL    HW224273   0.461   3.740   8.364  0.3618 -0.0831 -0.4642
 7512SOL     OW24274   1.372   8.876   7.865  0.2951  0.0254  0.1725
 7512SOL    HW124275   1.327   8.881   7.780  1.1760  2.8194 -0.2402
 7512SOL    HW224276   1.374   8.783   7.885 -1.2184 -0.6161 -2.1834
 7513SOL     OW24277   4.662   4.582   8.478  0.3709 -0.1025  0.9432
 7513SOL    HW124278   4.669   4.487   8.474  1.7384  0.0242 -1.1412
 7513SOL    HW224279   4.671   4.603   8.571 -0.5728 -2.0085  1.5071
 7514SOL     OW24280   9.522   8.535   2.581  0.4351 -0.4474 -0.0245
 7514SOL    HW124281   9.575   8.480   2.639  2.2422  0.6428 -0.5563
 7514SOL    HW224282   9.570   8.536   2.498 -0.8753 -0.0845 -0.8203
 7515SOL     OW24283   8.345   1.799   1.901 -0.2066 -0.7125 -0.0564
 7515SOL    HW124284   8.336   1.743   1.824  0.0867 -0.3869 -0.3288
 7515SOL    HW224285   8.290   1.875   1.882  0.8000 -0.0710 -0.4719
 7516SOL     OW24286   3.083   7.994   3.352 -0.5815  0.0484  0.5475
 7516SOL    HW124287   3.137   7.938   3.296  0.0988 -0.0945  1.3314
 7516SOL    HW224288   3.029   7.933   3.402 -1.5286  0.1915 -0.2573
 7517SOL     OW24289   4.565   1.759   1.568 -0.9553 -0.2448  0.2599
 7517SOL    HW124290   4.587   1.684   1.512  0.4049  0.5214 -0.2927
 7517SOL    HW224291   4.611   1.742   1.650 -0.5104  0.0491  0.0759
 7518SOL     OW24292   8.362   4.424   0.879 -0.1229 -0.2645  0.2942
 7518SOL    HW124293   8.406   4.339   0.888 -0.3020 -0.4027 -0.1537
 7518SOL    HW224294   8.365   4.443   0.786 -2.5754 -1.1111 -0.0212
 7519SOL     OW24295   2.801   9.459   2.336 -0.3526  0.3256 -0.0233
 7519SOL    HW124296   2.886   9.494   2.313  0.4624 -1.9151 -0.6858
 7519SOL    HW224297   2.744   9.536   2.345  1.4776  1.7918 -0.5466
 7520SOL     OW24298   6.200   5.098   4.966  0.3365  0.3703 -0.6638
 7520SOL    HW124299   6.281   5.051   4.984  1.0224  1.5542 -0.6130
 7520SOL    HW224300   6.198   5.109   4.871  0.7403  1.2044 -0.5839
 7521SOL     OW24301   7.345   6.476   0.309 -0.3103  0.5217  0.1819
 7521SOL    HW124302   7.330   6.399   0.254 -0.8292  0.9676 -0.3107
 7521SOL    HW224303   7.438   6.473   0.330 -0.5997 -1.0538  1.4057
 7522SOL     OW24304   1.922   7.400   4.620  0.3704  0.2796 -0.3707
 7522SOL    HW124305   2.004   7.399   4.669  0.0146  0.3436  0.2471
 7522SOL    HW224306   1.856   7.424   4.686 -0.0253  1.0329 -1.0236
 7523SOL     OW24307   4.414   5.657   6.508  0.3316  0.0645 -0.0328
 7523SOL    HW124308   4.389   5.746   6.533  3.3893  1.5321 -1.6614
 7523SOL    HW224309   4.442   5.616   6.590  3.2857  2.2853  0.2089
 7524SOL     OW24310   7.801   3.065   0.780  0.2471  0.2861  0.4484
 7524SOL    HW124311   7.743   3.130   0.741 -0.3956  0.7487  2.0816
 7524SOL    HW224312   7.876   3.115   0.810  1.6329 -0.3273 -1.7718
 7525SOL     OW24313   2.633   5.343   3.227 -0.0423 -0.4169  0.4089
 7525SOL    HW124314   2.603   5.252   3.227 -0.9267 -0.1685 -1.1333
 7525SOL    HW224315   2.559   5.393   3.263  0.5263 -0.3087  1.4685
 7526SOL     OW24316   3.600   4.737   1.267  0.6990 -0.1707  0.1208
 7526SOL    HW124317   3.602   4.713   1.359 -1.5692 -0.2286  0.2089
 7526SOL    HW224318   3.679   4.790   1.254  0.3121  1.1059  2.4622
 7527SOL     OW24319   5.648   6.283   5.723  0.0981  0.2623  0.0439
 7527SOL    HW124320   5.590   6.265   5.797  1.0310 -1.1582  0.4694
 7527SOL    HW224321   5.592   6.274   5.646 -0.5853  0.4293  0.5130
 7528SOL     OW24322   8.093   4.724   7.248 -0.2239 -0.0834  0.2016
 7528SOL    HW124323   8.100   4.634   7.217  0.3929  0.2020 -0.4905
 7528SOL    HW224324   8.155   4.773   7.195 -0.5744  0.7604  0.5577
 7529SOL     OW24325   2.461   5.528   6.990 -0.6179 -0.4497  0.3005
 7529SOL    HW124326   2.523   5.582   6.942  1.9646 -2.5838  0.9404
 7529SOL    HW224327   2.420   5.588   7.053 -0.2197  1.3197 -1.0552
 7530SOL     OW24328   5.661   9.536   3.117  0.2475  0.1632 -0.2739
 7530SOL    HW124329   5.738   9.529   3.174  0.0766 -1.0222 -0.1594
 7530SOL    HW224330   5.659   9.628   3.091  3.2973 -0.2448 -2.5060
 7531SOL     OW24331   6.498   8.557   7.083  0.3542 -0.2499 -0.0099
 7531SOL    HW124332   6.476   8.504   7.006 -0.5724 -0.9218  0.6961
 7531SOL    HW224333   6.415   8.597   7.109  1.0607  1.7118 -0.6192
 7532SOL     OW24334   4.840   0.006   4.943  0.2254  0.3637  0.2449
 7532SOL    HW124335   4.874  -0.077   4.909 -0.2255  0.7604 -1.2589
 7532SOL    HW224336   4.899   0.029   5.015  1.8411 -0.0610 -0.8893
 7533SOL     OW24337   4.126   9.188   8.241 -0.0105 -0.0834  0.1326
 7533SOL    HW124338   4.039   9.162   8.273 -0.3892  0.6989 -0.2350
 7533SOL    HW224339   4.160   9.111   8.196 -0.8477 -0.1460 -0.4044
 7534SOL     OW24340   7.577   8.448   7.486  0.1504  0.6632 -0.0632
 7534SOL    HW124341   7.515   8.476   7.418 -0.1830 -1.0425 -0.4919
 7534SOL    HW224342   7.641   8.395   7.440 -0.3430 -0.9117  0.9882
 7535SOL     OW24343   4.226   8.674   4.808  0.4628  0.0827 -0.1089
 7535SOL    HW124344   4.177   8.657   4.728 -2.7602  1.8868  1.2758
 7535SOL    HW224345   4.231   8.588   4.851 -3.0508 -0.0376  0.3758
 7536SOL     OW24346   2.150   4.987   3.751 -0.0619 -0.0750  0.0453
 7536SOL    HW124347   2.114   5.031   3.674  1.0636 -2.3965 -1.9525
 7536SOL    HW224348   2.243   5.012   3.752  0.0266 -0.4064  0.3655
 7537SOL     OW24349   8.299   6.220   9.248  0.2261 -0.5981  0.4653
 7537SOL    HW124350   8.348   6.223   9.166 -2.3608  0.8534 -1.2009
 7537SOL    HW224351   8.225   6.163   9.229 -2.2049  2.2462  0.5068
 7538SOL     OW24352   2.146   5.916   4.088  0.3113 -0.2077  0.3348
 7538SOL    HW124353   2.192   5.892   4.168  0.7386  1.9710  0.8213
 7538SOL    HW224354   2.119   6.007   4.102 -0.5072 -0.0933 -1.5960
 7539SOL     OW24355   6.204   3.854   9.375  0.0168 -0.1207 -0.0990
 7539SOL    HW124356   6.144   3.786   9.345 -0.5119  0.1389  0.3476
 7539SOL    HW224357   6.243   3.818   9.454  0.1473 -0.1294 -0.1682
 7540SOL     OW24358   3.074   1.001   9.058  0.0226 -0.0030 -0.3671
 7540SOL    HW124359   3.135   0.941   9.100  1.2325  1.4520  0.0660
 7540SOL    HW224360   3.088   0.987   8.964  0.9339  0.1934 -0.2724
 7541SOL     OW24361   6.331   0.345   8.593 -0.4362  0.6544  0.3743
 7541SOL    HW124362   6.341   0.439   8.606  1.8289  0.3161  1.7528
 7541SOL    HW224363   6.354   0.331   8.501  0.2149  1.3701  0.4118
 7542SOL     OW24364   4.054   0.474   5.334  0.2921  0.7329 -0.4671
 7542SOL    HW124365   4.147   0.470   5.313  0.6012 -0.7658  1.0390
 7542SOL    HW224366   4.040   0.566   5.358  0.9737  1.3609 -2.2937
 7543SOL     OW24367   1.521   9.561   3.699  0.3231 -0.2442  0.1263
 7543SOL    HW124368   1.551   9.528   3.614 -0.1605 -0.6941  0.1227
 7543SOL    HW224369   1.437   9.603   3.680 -0.8327 -2.1705  0.6763
 7544SOL     OW24370   0.385   1.889   4.485 -0.6112  0.2423 -0.0075
 7544SOL    HW124371   0.436   1.812   4.509  1.6259  0.9889 -2.0072
 7544SOL    HW224372   0.449   1.960   4.478 -2.0057  1.4198 -1.9255
 7545SOL     OW24373   3.904   8.190   5.824  0.2832  0.9001 -0.3732
 7545SOL    HW124374   3.866   8.272   5.856  1.5040  1.3109  0.1146
 7545SOL    HW224375   3.995   8.193   5.856  0.5896 -0.2328 -1.1048
 7546SOL     OW24376   7.920   2.232   7.549  0.4046 -0.3506  0.1662
 7546SOL    HW124377   7.870   2.286   7.611 -0.3113 -0.1495 -0.5824
 7546SOL    HW224378   7.888   2.257   7.463 -0.1440 -2.1604 -0.2073
 7547SOL     OW24379   1.180   1.790   2.559  0.1317 -0.2059  0.6249
 7547SOL    HW124380   1.220   1.769   2.475 -1.0049  1.9312 -0.5079
 7547SOL    HW224381   1.220   1.727   2.620  1.4783 -1.3786 -1.3408
 7548SOL     OW24382   6.608   5.801   3.106 -0.0138 -0.4529  0.2328
 7548SOL    HW124383   6.587   5.712   3.078  0.6177 -0.5052 -0.0828
 7548SOL    HW224384   6.600   5.854   3.027  3.3352 -0.8544 -0.5376
 7549SOL     OW24385   7.359   4.507   2.985  0.6461  0.0589 -0.7088
 7549SOL    HW124386   7.430   4.444   3.003  1.8409  0.5929 -3.1244
 7549SOL    HW224387   7.388   4.588   3.027  0.9082 -0.0248 -0.7235
 7550SOL     OW24388   3.215   4.604   0.342  0.4849 -0.5509  0.2326
 7550SOL    HW124389   3.291   4.553   0.313  0.7883  1.0897 -2.0553
 7550SOL    HW224390   3.151   4.595   0.271 -1.3387 -1.4485  1.8638
 7551SOL     OW24391   3.787   6.910   4.427  0.4396  0.2161 -0.3151
 7551SOL    HW124392   3.802   6.863   4.345  0.9209 -0.6170  0.2339
 7551SOL    HW224393   3.756   6.843   4.488 -0.8362  1.0017 -0.0601
 7552SOL     OW24394   8.001   2.164   3.400 -0.4251 -0.3580 -0.3975
 7552SOL    HW124395   7.966   2.229   3.340 -0.1416 -0.1035 -0.2911
 7552SOL    HW224396   7.924   2.116   3.431 -0.7293  0.4149  0.0983
 7553SOL     OW24397   8.443   4.981   8.680 -0.0497  0.3226  0.0106
 7553SOL    HW124398   8.536   4.976   8.704 -0.1988 -0.4835  0.4877
 7553SOL    HW224399   8.397   4.985   8.764 -0.3780  2.8395 -0.2328
 7554SOL     OW24400   8.719   1.789   0.338  0.1795 -0.1637 -0.0425
 7554SOL    HW124401   8.754   1.793   0.427  2.1189 -0.4189 -0.7525
 7554SOL    HW224402   8.713   1.881   0.311 -1.5029 -0.0082  0.6999
 7555SOL     OW24403   0.539   7.126   2.235 -0.4165 -0.1322 -0.0943
 7555SOL    HW124404   0.463   7.078   2.203 -1.5785  2.2804 -1.1725
 7555SOL    HW224405   0.503   7.198   2.285  1.2309  0.2939  0.5690
 7556SOL     OW24406   7.679   1.179   7.631 -0.6627  0.2156 -0.4260
 7556SOL    HW124407   7.636   1.094   7.622 -2.6729  1.2147 -0.9763
 7556SOL    HW224408   7.699   1.186   7.724 -0.4568 -0.8447 -0.3749
 7557SOL     OW24409   5.400   3.200   4.249 -0.1258 -0.1049 -0.3082
 7557SOL    HW124410   5.480   3.222   4.201 -0.0090 -0.7314 -0.4065
 7557SOL    HW224411   5.431   3.165   4.332 -0.3344  1.2779  0.3689
 7558SOL     OW24412   2.514   1.559   0.805 -0.4409 -0.2885  0.1694
 7558SOL    HW124413   2.568   1.637   0.794  0.6219 -1.2515 -2.1803
 7558SOL    HW224414   2.448   1.566   0.736  0.1211 -1.7701 -0.5661
 7559SOL     OW24415   6.522   2.300   8.464 -0.4451 -0.6470 -0.1245
 7559SOL    HW124416   6.548   2.370   8.523 -2.7291 -0.2348  0.5188
 7559SOL    HW224417   6.520   2.340   8.377 -1.3999  0.0316  0.1945
 7560SOL     OW24418   8.543   0.700   6.291  0.4557  0.2540  0.3032
 7560SOL    HW124419   8.464   0.730   6.245 -0.8067 -1.3408  1.3055
 7560SOL    HW224420   8.528   0.606   6.304  3.2973 -0.4841 -0.9460
 7561SOL     OW24421   0.246   0.457   3.832 -0.5263  0.0258 -0.6056
 7561SOL    HW124422   0.162   0.470   3.788 -1.0034 -0.2455  0.2009
 7561SOL    HW224423   0.302   0.526   3.798 -1.2064  0.4772 -0.8326
 7562SOL     OW24424   0.846   6.516   3.177 -0.0890 -0.3503 -0.3756
 7562SOL    HW124425   0.854   6.426   3.144 -1.0509 -0.0896 -1.3752
 7562SOL    HW224426   0.928   6.531   3.224 -0.5818 -2.3253  1.2744
 7563SOL     OW24427   6.421   6.095   3.677 -0.4948 -0.6804  0.0583
 7563SOL    HW124428   6.377   6.015   3.648 -3.1139  0.3406  0.8679
 7563SOL    HW224429   6.354   6.142   3.726  1.3160  1.4789  0.6241
 7564SOL     OW24430   0.555   8.182   2.421 -0.3597  0.5127 -0.4626
 7564SOL    HW124431   0.483   8.157   2.364 -0.1244  0.6502 -0.8265
 7564SOL    HW224432   0.598   8.255   2.376 -0.1561  0.6084 -0.1218
 7565SOL     OW24433   0.855   4.805   8.558  0.0831  0.1101 -0.1904
 7565SOL    HW124434   0.919   4.742   8.590  1.3434  1.0274 -0.8147
 7565SOL    HW224435   0.854   4.874   8.623 -0.6559 -0.1303  0.0635
 7566SOL     OW24436   7.494   2.742   1.627  0.0829  0.1854 -0.7669
 7566SOL    HW124437   7.438   2.735   1.704  0.5952  2.4539 -0.1378
 7566SOL    HW224438   7.559   2.673   1.639  0.0539  0.3953  0.7611
 7567SOL     OW24439   3.396   0.706   5.961  0.2642  0.2859  0.6330
 7567SOL    HW124440   3.410   0.654   5.881 -0.0721  0.8272  0.2147
 7567SOL    HW224441   3.483   0.740   5.983  0.0195  1.9859 -0.8060
 7568SOL     OW24442   1.693   4.720   0.064 -0.3349  0.0313 -0.4656
 7568SOL    HW124443   1.623   4.745   0.124 -0.1135  3.0968 -1.3081
 7568SOL    HW224444   1.772   4.717   0.118 -0.1286  2.7992 -0.4705
 7569SOL     OW24445   3.631   4.770   8.451 -0.0494  0.1690 -0.3461
 7569SOL    HW124446   3.599   4.846   8.403 -0.7994  0.3004  0.3356
 7569SOL    HW224447   3.674   4.808   8.528  1.8032 -0.0010 -1.2520
 7570SOL     OW24448   3.808   4.525   5.081 -0.1899 -0.1552 -0.2660
 7570SOL    HW124449   3.720   4.548   5.051  0.0895  1.8030  0.2615
 7570SOL    HW224450   3.866   4.566   5.017  0.3520 -0.8219 -0.2046
 7571SOL     OW24451   3.830   1.737   3.923  0.4332 -0.5168  0.2137
 7571SOL    HW124452   3.863   1.777   3.842  2.1631 -0.9198  0.6623
 7571SOL    HW224453   3.820   1.810   3.984 -1.2339 -0.1642 -0.4490
 7572SOL     OW24454   0.857   9.340   3.262  0.2213  0.8420 -0.2798
 7572SOL    HW124455   0.826   9.369   3.348 -0.7908 -1.1603  0.1015
 7572SOL    HW224456   0.776   9.325   3.213  0.7576  0.5053 -1.0618
 7573SOL     OW24457   5.167   2.640   0.277  0.5173 -0.3440 -0.5623
 7573SOL    HW124458   5.226   2.683   0.340  0.0076 -0.6408  0.1303
 7573SOL    HW224459   5.194   2.548   0.279  1.9657 -0.0226 -2.4399
 7574SOL     OW24460   5.756   8.147   0.641 -0.1806  0.6101 -0.3050
 7574SOL    HW124461   5.733   8.238   0.623 -0.4332  0.8744  1.2297
 7574SOL    HW224462   5.821   8.152   0.712  1.8305 -0.3044 -1.9840
 7575SOL     OW24463   0.888   9.397   0.890  0.0839 -0.4622  0.3213
 7575SOL    HW124464   0.799   9.380   0.921  0.3433 -2.0524  0.2954
 7575SOL    HW224465   0.876   9.439   0.805 -0.6437  0.1103  0.6976
 7576SOL     OW24466   8.432   4.989   2.901 -0.5069 -0.1781  0.3226
 7576SOL    HW124467   8.418   5.037   2.982 -0.7434  0.7241 -0.2415
 7576SOL    HW224468   8.357   5.011   2.846  0.5436  0.7011 -0.8268
 7577SOL     OW24469   7.129   7.758   5.226 -0.7896  0.1593  0.3017
 7577SOL    HW124470   7.189   7.700   5.179 -0.9643 -0.5065  0.8813
 7577SOL    HW224471   7.153   7.747   5.318 -0.2860  1.6374  0.3663
 7578SOL     OW24472   1.217   2.806   5.025 -0.0978 -0.4401 -0.0465
 7578SOL    HW124473   1.303   2.763   5.031 -0.2486 -0.8069 -0.4723
 7578SOL    HW224474   1.200   2.838   5.113  0.1455 -1.0070  0.2085
 7579SOL     OW24475   7.666   0.322   3.003  0.4554 -0.3734  0.2108
 7579SOL    HW124476   7.591   0.329   3.062  0.2672 -0.5631 -0.0044
 7579SOL    HW224477   7.643   0.376   2.927  1.5224  1.4946  1.1443
 7580SOL     OW24478   2.650   6.154   3.563  0.3155  0.4906 -0.6714
 7580SOL    HW124479   2.733   6.182   3.525  0.7581 -0.4549 -0.4359
 7580SOL    HW224480   2.664   6.062   3.586 -0.8248  0.2918 -0.7064
 7581SOL     OW24481   8.190   3.756   4.383 -0.1803  0.2547 -0.2194
 7581SOL    HW124482   8.244   3.834   4.392 -0.6606  0.8773 -2.3054
 7581SOL    HW224483   8.109   3.777   4.430  0.8164 -0.1953  1.8082
 7582SOL     OW24484   4.782   1.109   3.088 -0.3857  0.3753  0.6792
 7582SOL    HW124485   4.853   1.091   3.026 -0.3254 -0.1122  0.8938
 7582SOL    HW224486   4.768   1.204   3.080 -0.1929  0.3611  0.1193
 7583SOL     OW24487   8.703   8.067   3.133  0.1751  0.4406  0.5695
 7583SOL    HW124488   8.633   8.111   3.181  0.4701  1.4536  0.0923
 7583SOL    HW224489   8.674   7.976   3.128 -1.8919  1.0956 -0.9789
 7584SOL     OW24490   7.023   7.258   4.837  0.3326 -0.0432 -0.3866
 7584SOL    HW124491   7.015   7.330   4.775 -0.7767 -0.4345 -0.7118
 7584SOL    HW224492   6.976   7.289   4.915 -0.0551 -0.3712 -0.4895
 7585SOL     OW24493   6.762   7.450   3.940  0.6570  0.5162  0.6146
 7585SOL    HW124494   6.851   7.477   3.965  0.8850  1.8280 -1.4213
 7585SOL    HW224495   6.772   7.411   3.853 -0.4172 -1.8723  1.4574
 7586SOL     OW24496   1.569   6.014   5.907 -0.1028  0.5236 -0.8033
 7586SOL    HW124497   1.479   6.047   5.902  0.1452  1.2265 -0.8497
 7586SOL    HW224498   1.567   5.931   5.859 -1.1964 -0.5696  1.0403
 7587SOL     OW24499   6.905   7.128   6.846  0.1214 -0.7271  0.5512
 7587SOL    HW124500   6.818   7.111   6.883 -0.6677 -3.1985 -2.1119
 7587SOL    HW224501   6.966   7.090   6.909 -0.9601 -1.9794  0.8882
 7588SOL     OW24502   5.033   3.289   9.523 -0.2491  0.0402 -0.4377
 7588SOL    HW124503   5.026   3.221   9.591 -1.0399 -0.2683 -0.8195
 7588SOL    HW224504   4.955   3.277   9.470  0.8360 -0.3584 -2.0017
 7589SOL     OW24505   0.398   6.466   5.925 -0.0971 -0.2546 -0.5200
 7589SOL    HW124506   0.305   6.443   5.920 -0.5319  1.4734 -1.1515
 7589SOL    HW224507   0.437   6.423   5.849 -0.0837 -2.0353  0.4294
 7590SOL     OW24508   4.712   8.247   3.236  0.4519 -0.4824  0.0975
 7590SOL    HW124509   4.724   8.174   3.296  1.6996 -0.2493  0.1759
 7590SOL    HW224510   4.794   8.297   3.243  0.1011  0.2574 -0.8323
 7591SOL     OW24511   1.540   7.419   6.099  0.0075  0.1769 -0.2514
 7591SOL    HW124512   1.569   7.496   6.149  0.9708 -0.7043  0.5968
 7591SOL    HW224513   1.494   7.365   6.164  0.3392 -0.4913 -0.5675
 7592SOL     OW24514   6.485   6.499   8.610 -0.1261 -0.1989  0.2220
 7592SOL    HW124515   6.507   6.470   8.698  0.2130  0.5094  0.3814
 7592SOL    HW224516   6.513   6.591   8.607  0.2263 -0.3170 -0.7425
 7593SOL     OW24517   5.219   2.643   9.280 -0.1290 -0.3164  0.4048
 7593SOL    HW124518   5.262   2.656   9.364 -2.4695 -0.0156  1.6409
 7593SOL    HW224519   5.259   2.564   9.244  0.8646 -0.4985  1.8417
 7594SOL     OW24520   7.643   0.066   5.348  0.5970 -0.3258 -0.6735
 7594SOL    HW124521   7.598   0.003   5.291 -0.3666 -0.8947  0.6735
 7594SOL    HW224522   7.691   0.123   5.287 -1.3221 -0.1633 -2.1439
 7595SOL     OW24523   2.886   3.583   1.093  0.1079 -0.0878  0.1860
 7595SOL    HW124524   2.802   3.621   1.118  0.4617  0.2173  0.9512
 7595SOL    HW224525   2.864   3.515   1.030 -0.7939 -0.5390  0.9618
 7596SOL     OW24526   4.239   4.949   4.994  0.1744 -0.1253  0.3538
 7596SOL    HW124527   4.238   5.044   4.987  0.0040 -0.2490 -2.0066
 7596SOL    HW224528   4.190   4.930   5.074 -1.0262  1.7150  0.0917
 7597SOL     OW24529   3.490   4.918   2.873 -0.7891 -0.0829 -0.2650
 7597SOL    HW124530   3.422   4.969   2.915 -0.0139  2.3176 -1.7142
 7597SOL    HW224531   3.465   4.916   2.780  1.2772  1.3236 -0.9253
 7598SOL     OW24532   1.871   0.418   3.597  0.2017 -0.1802  0.6666
 7598SOL    HW124533   1.790   0.417   3.648  0.2082 -0.5611  0.6734
 7598SOL    HW224534   1.907   0.505   3.611  0.4023 -0.4066  1.6309
 7599SOL     OW24535   2.800   3.407   8.337 -0.4974  0.0370 -0.6710
 7599SOL    HW124536   2.762   3.332   8.290  0.1019 -0.1967 -0.7952
 7599SOL    HW224537   2.786   3.481   8.279  2.7693 -0.6958 -2.6661
 7600SOL     OW24538   2.082   1.311   7.852  0.3604  0.0591 -0.1567
 7600SOL    HW124539   2.145   1.357   7.908  0.9705  0.6064 -1.2543
 7600SOL    HW224540   2.004   1.301   7.906  0.2663  2.2503  0.1948
 7601SOL     OW24541   7.215   0.299   7.244 -0.2502 -0.0347 -0.6722
 7601SOL    HW124542   7.146   0.346   7.196 -0.1218 -1.0056 -1.8599
 7601SOL    HW224543   7.225   0.348   7.325 -1.7234  0.6459 -0.8625
 7602SOL     OW24544   4.708   4.991   7.080  0.2721  0.0956  0.8898
 7602SOL    HW124545   4.625   4.946   7.064  0.3565 -0.2714  1.4400
 7602SOL    HW224546   4.683   5.072   7.124  0.1110  0.6494 -0.2123
 7603SOL     OW24547   7.034   0.905   0.876  0.6244 -0.3215 -0.1254
 7603SOL    HW124548   7.116   0.857   0.867  0.6593 -0.4241  0.6712
 7603SOL    HW224549   7.000   0.879   0.962 -0.6701 -0.9548 -0.7824
 7604SOL     OW24550   8.086   1.991   2.538 -0.2227  0.1277  0.4842
 7604SOL    HW124551   8.111   2.068   2.487 -0.0179 -0.7187 -0.7430
 7604SOL    HW224552   8.131   1.918   2.495  0.1134 -0.6094  2.0147
 7605SOL     OW24553   8.427   5.324   4.899  0.4126  0.5763  0.4129
 7605SOL    HW124554   8.459   5.304   4.987 -0.3572  0.5606  0.7024
 7605SOL    HW224555   8.489   5.387   4.864 -0.3053  2.0555  1.6985
 7606SOL     OW24556   3.350   0.117   5.171  0.2305 -0.1090 -0.1702
 7606SOL    HW124557   3.427   0.166   5.141  0.0051  0.3571  0.0042
 7606SOL    HW224558   3.386   0.042   5.218  0.5845 -0.4613 -0.9884
 7607SOL     OW24559   6.781   7.111   7.441 -0.4214 -0.2817  0.1067
 7607SOL    HW124560   6.765   7.027   7.399 -1.1551 -0.3992  0.6021
 7607SOL    HW224561   6.875   7.126   7.430 -0.3022 -1.1127 -0.0758
 7608SOL     OW24562   7.221   1.358   1.525  0.2555  0.2092  0.1558
 7608SOL    HW124563   7.173   1.386   1.603 -0.3477  0.9113 -0.4441
 7608SOL    HW224564   7.152   1.327   1.465  0.4800  1.6798 -0.9025
 7609SOL     OW24565   7.324   6.534   7.931 -0.2244 -0.5324  0.5514
 7609SOL    HW124566   7.330   6.624   7.899  0.9067 -1.0226 -0.7042
 7609SOL    HW224567   7.278   6.542   8.015 -0.4718  1.1627  0.3027
 7610SOL     OW24568   8.840   2.944   9.021  1.1113  0.9985  0.3154
 7610SOL    HW124569   8.766   2.899   8.981 -0.8437  1.9368  2.6360
 7610SOL    HW224570   8.917   2.906   8.979 -0.6239 -0.8778 -1.3528
 7611SOL     OW24571   2.741   3.651   3.333  0.4019 -0.9273 -0.4545
 7611SOL    HW124572   2.803   3.679   3.400  0.3050  1.4717 -1.2971
 7611SOL    HW224573   2.655   3.665   3.372  0.3585 -0.6377 -0.6500
 7612SOL     OW24574   3.025   6.208   6.416  0.2332 -0.3110 -0.7718
 7612SOL    HW124575   3.072   6.124   6.410  1.0014  0.1155 -0.8145
 7612SOL    HW224576   2.998   6.213   6.508  1.1890 -0.0867 -0.4887
 7613SOL     OW24577   8.641   3.328   3.125  0.0210  0.1941 -0.3218
 7613SOL    HW124578   8.595   3.283   3.054  0.2256 -1.0619  0.3218
 7613SOL    HW224579   8.711   3.376   3.081 -0.6177  0.4531 -1.0903
 7614SOL     OW24580   3.967   1.398   6.653 -0.0250 -0.4234 -0.4605
 7614SOL    HW124581   3.978   1.493   6.652  0.7689 -0.4804  0.7481
 7614SOL    HW224582   4.056   1.363   6.658 -0.3336 -1.2163 -0.3243
 7615SOL     OW24583   7.619   7.800   6.671 -0.1695 -0.3727  0.2638
 7615SOL    HW124584   7.707   7.778   6.642  0.1046 -0.0583  0.8244
 7615SOL    HW224585   7.566   7.724   6.648  0.5162 -1.1287  1.1103
 7616SOL     OW24586   9.034   3.680   9.183  0.8934  0.2089  0.1075
 7616SOL    HW124587   9.046   3.763   9.230 -0.0126  0.4820 -0.1111
 7616SOL    HW224588   9.046   3.613   9.250  0.1632  0.5784  0.6310
 7617SOL     OW24589   4.305   4.922   5.664 -0.4883  0.3485  0.6498
 7617SOL    HW124590   4.351   4.843   5.635 -0.1173  0.2554  1.4510
 7617SOL    HW224591   4.370   4.991   5.658 -0.8030  0.5907 -0.0119
 7618SOL     OW24592   6.467   6.456   4.333 -0.8654 -0.0077 -0.7477
 7618SOL    HW124593   6.529   6.433   4.264 -0.5640 -0.2202 -0.4067
 7618SOL    HW224594   6.447   6.548   4.317  1.0135  0.6345  0.2655
 7619SOL     OW24595   4.160   9.445   1.863  0.1195 -0.3957  0.5058
 7619SOL    HW124596   4.152   9.432   1.768 -0.5352  1.2199  0.3117
 7619SOL    HW224597   4.254   9.450   1.878  0.2927 -2.0967  0.1766
 7620SOL     OW24598   6.550   1.588   5.313  0.5156  0.1729 -0.2933
 7620SOL    HW124599   6.615   1.638   5.363  0.8665  1.0059 -1.5424
 7620SOL    HW224600   6.484   1.653   5.288  0.0186 -0.3561 -0.3760
 7621SOL     OW24601   7.999   9.252   4.260  0.2920  0.3793 -0.6329
 7621SOL    HW124602   8.057   9.178   4.278 -0.5723 -0.5183 -1.4093
 7621SOL    HW224603   8.034   9.323   4.313  0.1721 -1.0247  1.4713
 7622SOL     OW24604   0.392   7.876   4.312  0.5157 -0.4466 -0.3158
 7622SOL    HW124605   0.320   7.890   4.373  0.4476  0.9661 -0.6940
 7622SOL    HW224606   0.349   7.858   4.228  0.6110 -1.5715 -0.1338
 7623SOL     OW24607   5.849   9.568   8.669 -0.1229  0.2273 -0.3491
 7623SOL    HW124608   5.930   9.570   8.719  0.7662  0.9687 -1.7398
 7623SOL    HW224609   5.838   9.477   8.643  1.2021  0.3702 -1.5406
 7624SOL     OW24610   0.496   1.087   6.474  0.2191  0.0754  0.3531
 7624SOL    HW124611   0.453   1.032   6.540 -0.1207  1.2293  1.1371
 7624SOL    HW224612   0.484   1.176   6.506  0.8558  0.6102 -0.8192
 7625SOL     OW24613   4.713   8.865   4.518  0.6340  0.1042  0.0378
 7625SOL    HW124614   4.752   8.778   4.520  1.1212  0.2723 -1.1776
 7625SOL    HW224615   4.619   8.850   4.523  0.7596 -0.4172  1.0048
 7626SOL     OW24616   6.638   9.412   0.723 -0.0386  0.3579 -0.2199
 7626SOL    HW124617   6.711   9.350   0.723 -2.0356 -2.3316  2.9383
 7626SOL    HW224618   6.655   9.470   0.797 -0.9236 -0.1537  0.4053
 7627SOL     OW24619   3.657   5.838   1.322 -0.9598  0.0831  0.5888
 7627SOL    HW124620   3.686   5.824   1.232 -2.2678  1.4175 -0.0681
 7627SOL    HW224621   3.582   5.780   1.332  0.3477 -1.5458  1.5056
 7628SOL     OW24622   4.880   4.002   7.976 -0.3781 -0.2781 -0.6292
 7628SOL    HW124623   4.838   4.087   7.982 -1.6452 -0.8150 -1.5130
 7628SOL    HW224624   4.972   4.022   7.962 -0.5893  0.9406 -0.4160
 7629SOL     OW24625   7.993   5.737   3.062  0.1981  0.0865  0.1448
 7629SOL    HW124626   7.989   5.722   2.967  1.7588  0.9165 -0.0859
 7629SOL    HW224627   7.949   5.661   3.100 -0.1730 -0.4162 -1.2362
 7630SOL     OW24628   3.769   6.067   5.268  0.0199  0.7201 -0.1123
 7630SOL    HW124629   3.731   6.040   5.351 -0.8934 -0.5516 -0.8971
 7630SOL    HW224630   3.785   5.985   5.221  3.2790  1.2073 -0.0833
 7631SOL     OW24631   2.003   8.659   8.789 -0.7881 -0.0562  0.1812
 7631SOL    HW124632   1.971   8.637   8.702  1.5965  0.2967 -0.8569
 7631SOL    HW224633   2.061   8.734   8.775  1.3136 -1.2824  1.7151
 7632SOL     OW24634   1.449   5.152   0.768  0.2241 -0.1057 -0.0240
 7632SOL    HW124635   1.517   5.218   0.782  0.1445 -0.2183  0.9753
 7632SOL    HW224636   1.497   5.070   0.756  0.4346  0.3754 -3.3355
 7633SOL     OW24637   5.094   5.824   5.818 -0.5654 -0.6591 -0.1607
 7633SOL    HW124638   5.048   5.904   5.794  0.7774 -0.1590 -1.2457
 7633SOL    HW224639   5.051   5.794   5.898 -0.9758  1.2605  0.3863
 7634SOL     OW24640   1.849   0.760   6.790  0.8226  0.1092  0.3212
 7634SOL    HW124641   1.760   0.758   6.756  0.9232 -0.7735  0.0733
 7634SOL    HW224642   1.884   0.844   6.760  0.0421  0.5183  0.5293
 7635SOL     OW24643   4.482   1.608   1.895  0.3588  0.1506  0.0876
 7635SOL    HW124644   4.563   1.633   1.850 -0.3588  0.9020 -0.8344
 7635SOL    HW224645   4.511   1.572   1.978  1.6148  1.1299  0.1134
 7636SOL     OW24646   0.552   0.071   5.066 -0.2950  0.6436  0.2078
 7636SOL    HW124647   0.498   0.141   5.104  0.6364  1.9272 -0.7507
 7636SOL    HW224648   0.493   0.023   5.008 -1.0446  0.3461  1.1824
 7637SOL     OW24649   5.819   4.149   2.224  0.0997 -0.3265  0.4405
 7637SOL    HW124650   5.856   4.181   2.142 -0.9140  1.0489  0.4882
 7637SOL    HW224651   5.731   4.187   2.227  0.4247  0.3595  2.5644
 7638SOL     OW24652   8.729   6.439   5.225  0.2421  0.1174 -0.1532
 7638SOL    HW124653   8.820   6.421   5.248  0.2109  1.0411  0.7646
 7638SOL    HW224654   8.704   6.367   5.167  2.0859  0.8049 -1.8696
 7639SOL     OW24655   5.654   7.442   9.067 -0.0148 -0.0673  0.3767
 7639SOL    HW124656   5.736   7.488   9.085 -0.9299  0.7244  3.0743
 7639SOL    HW224657   5.604   7.502   9.011  1.1073 -0.4970 -1.1664
 7640SOL     OW24658   0.010   6.201   2.979 -0.4686 -0.5204  1.0764
 7640SOL    HW124659   0.102   6.197   2.956 -0.4915  1.6421  0.4143
 7640SOL    HW224660   0.009   6.211   3.074  0.0177  0.1478  1.0151
 7641SOL     OW24661   2.748   6.004   3.298  0.0509  0.4653 -0.0291
 7641SOL    HW124662   2.791   6.089   3.299 -3.4064  2.3793  1.4582
 7641SOL    HW224663   2.736   5.981   3.390 -0.8559 -0.6311 -0.3824
 7642SOL     OW24664   5.850   9.099   8.171  0.2928  0.0624 -0.2172
 7642SOL    HW124665   5.879   9.082   8.081 -0.3196 -0.4101 -0.3310
 7642SOL    HW224666   5.807   9.018   8.198 -1.3139  0.8659 -0.2079
 7643SOL     OW24667   4.244   4.246   2.513  0.5271  0.1133  0.4252
 7643SOL    HW124668   4.227   4.285   2.427 -0.0750  0.7702  0.8348
 7643SOL    HW224669   4.281   4.160   2.493  0.1938  0.1735 -0.4899
 7644SOL     OW24670   4.059   0.576   1.049  0.0569  0.0256  0.0990
 7644SOL    HW124671   3.997   0.642   1.079 -0.3942 -0.7870  1.0203
 7644SOL    HW224672   4.065   0.514   1.121  3.3754  1.0010  0.8206
 7645SOL     OW24673   0.446   1.704   2.543 -0.5086  0.2867  0.3979
 7645SOL    HW124674   0.511   1.660   2.488  0.4616  1.2874  0.7209
 7645SOL    HW224675   0.397   1.633   2.584  1.2609 -0.5165  1.1937
 7646SOL     OW24676   9.109   5.662   9.017  0.0960  0.5576 -0.3576
 7646SOL    HW124677   9.099   5.704   9.103  0.8833 -1.0207  0.5545
 7646SOL    HW224678   9.171   5.718   8.971 -0.3092  1.4158  0.1132
 7647SOL     OW24679   8.265   8.174   5.604  0.6034 -0.2337  0.0635
 7647SOL    HW124680   8.229   8.106   5.660  0.6756 -0.1600  0.2014
 7647SOL    HW224681   8.357   8.150   5.594  0.9517  0.5572  1.2062
 7648SOL     OW24682   2.253   6.499   2.405 -0.3626  0.2476  0.0748
 7648SOL    HW124683   2.164   6.475   2.382 -0.6307  0.9182  0.3901
 7648SOL    HW224684   2.245   6.546   2.488  0.3581 -0.2726  0.4600
 7649SOL     OW24685   1.829   1.531   2.512  0.3163  0.1249 -0.2182
 7649SOL    HW124686   1.775   1.607   2.535 -2.7449 -2.0985  0.4689
 7649SOL    HW224687   1.792   1.500   2.429  0.9316 -1.1249 -0.0413
 7650SOL     OW24688   5.599   4.450   1.051 -0.0264  0.5943 -0.0753
 7650SOL    HW124689   5.672   4.423   0.997 -1.0114 -0.4117 -0.9487
 7650SOL    HW224690   5.524   4.451   0.991 -0.9007  0.7239  0.9896
 7651SOL     OW24691   3.945   6.649   7.008  0.1986 -0.0802  0.0384
 7651SOL    HW124692   3.865   6.642   7.061  0.8638 -0.4659  1.0131
 7651SOL    HW224693   3.992   6.723   7.045  0.2716  0.1890 -0.5834
 7652SOL     OW24694   2.707   7.584   7.696  0.2420 -0.3445  0.2910
 7652SOL    HW124695   2.716   7.489   7.694  0.1613 -0.3863  1.3297
 7652SOL    HW224696   2.777   7.616   7.638  0.1246 -1.0308 -0.2484
 7653SOL     OW24697   2.385   6.953   8.675 -0.2814 -0.2959  0.4255
 7653SOL    HW124698   2.302   6.997   8.693 -1.1950 -1.5998 -0.4694
 7653SOL    HW224699   2.451   7.008   8.718 -1.6345  0.5178  1.5363
 7654SOL     OW24700   0.608   7.214   3.669 -0.2835 -0.6306  0.2193
 7654SOL    HW124701   0.533   7.248   3.719  2.0098  1.4075  2.5153
 7654SOL    HW224702   0.640   7.141   3.721  0.5812 -0.1335  0.3920
 7655SOL     OW24703   3.419   9.102   1.441 -0.2261 -0.0590 -0.0267
 7655SOL    HW124704   3.372   9.024   1.412 -0.4833 -0.0553  0.3823
 7655SOL    HW224705   3.417   9.098   1.536  0.5576 -0.0342 -0.0023
 7656SOL     OW24706   7.754   7.735   8.847  0.1504  0.4329 -0.2164
 7656SOL    HW124707   7.674   7.724   8.899  1.2979 -1.3166  1.3135
 7656SOL    HW224708   7.821   7.759   8.911  0.7589  2.6209 -1.5816
 7657SOL     OW24709   4.763   3.096   0.992 -0.0232  0.5279 -0.0186
 7657SOL    HW124710   4.785   3.112   1.083  2.2290  1.5435 -0.6468
 7657SOL    HW224711   4.698   3.163   0.971 -0.3088  0.4990  0.7541
 7658SOL     OW24712   1.950   8.747   5.103 -0.0412  0.1606 -0.3426
 7658SOL    HW124713   1.937   8.836   5.135  0.4604 -0.3296  1.2879
 7658SOL    HW224714   2.030   8.751   5.051  1.6817  0.1300  2.1365
 7659SOL     OW24715   7.038   9.239   1.385 -0.2480  0.1601  0.5670
 7659SOL    HW124716   7.077   9.204   1.465 -0.7565  2.6211  2.0141
 7659SOL    HW224717   7.113   9.253   1.326  0.6732  1.5771  1.9928
 7660SOL     OW24718   0.360   6.399   8.001  0.9440 -0.2340 -0.8795
 7660SOL    HW124719   0.269   6.417   7.978  0.3869  3.2378  3.0540
 7660SOL    HW224720   0.356   6.315   8.047 -0.2942 -0.1145 -0.7222
 7661SOL     OW24721   3.662   8.148   8.328  0.0539 -0.0600 -0.5825
 7661SOL    HW124722   3.615   8.171   8.408 -0.9818  0.5226 -1.3339
 7661SOL    HW224723   3.719   8.076   8.354  2.3479  2.3267  1.5286
 7662SOL     OW24724   0.542   0.333   3.595 -0.1152 -0.0817 -0.0293
 7662SOL    HW124725   0.484   0.403   3.625  0.4929  0.1479  0.6263
 7662SOL    HW224726   0.623   0.378   3.571 -0.1900 -0.4035 -0.9248
 7663SOL     OW24727   0.795   6.938   4.683 -0.4546  0.4941 -0.0851
 7663SOL    HW124728   0.828   7.019   4.722 -0.6670  0.9427 -0.8105
 7663SOL    HW224729   0.826   6.942   4.592 -1.1124  0.1250 -0.3286
 7664SOL     OW24730   5.638   3.970   8.612  0.2077 -0.1345  0.1793
 7664SOL    HW124731   5.678   3.924   8.538 -1.5602  1.2176 -1.7055
 7664SOL    HW224732   5.610   4.054   8.576 -4.8562 -1.1241  1.0994
 7665SOL     OW24733   2.247   7.274   9.520 -0.0722  0.0061  0.1156
 7665SOL    HW124734   2.318   7.308   9.573  0.5009  0.0169 -0.6467
 7665SOL    HW224735   2.191   7.227   9.582  0.6180 -0.0360  0.7175
 7666SOL     OW24736   6.447   4.177   3.802  0.1650  0.2881  0.3195
 7666SOL    HW124737   6.392   4.166   3.879  0.6806 -0.8969  0.5516
 7666SOL    HW224738   6.536   4.176   3.837  0.4380 -1.0813 -0.3339
 7667SOL     OW24739   2.760   0.420   3.259 -0.0182  0.0916  0.1419
 7667SOL    HW124740   2.776   0.453   3.171  2.8837  0.1891  0.5992
 7667SOL    HW224741   2.774   0.326   3.252  1.0255  0.1938  0.6004
 7668SOL     OW24742   1.720   2.813   7.608  0.0693 -0.4159  0.2213
 7668SOL    HW124743   1.782   2.800   7.680 -0.7031 -1.8849  0.6759
 7668SOL    HW224744   1.759   2.767   7.534  0.5946  0.6160 -0.1584
 7669SOL     OW24745   9.117   0.557   6.729  0.2914  0.3221  0.2577
 7669SOL    HW124746   9.022   0.556   6.727  0.2695 -2.3845 -1.2167
 7669SOL    HW224747   9.139   0.647   6.754 -2.6092  0.8190  1.4269
 7670SOL     OW24748   9.400   8.321   5.397 -0.3967 -0.3500 -0.1681
 7670SOL    HW124749   9.495   8.328   5.400 -0.5092  2.1426 -0.4933
 7670SOL    HW224750   9.383   8.232   5.363  1.7727 -0.8488 -0.0638
 7671SOL     OW24751   2.984   3.110   9.029 -0.1161 -0.0266  0.4811
 7671SOL    HW124752   2.985   3.173   9.102  0.5156  1.7077 -0.9591
 7671SOL    HW224753   2.934   3.153   8.960 -0.6273 -1.6049 -0.1793
 7672SOL     OW24754   4.399   8.814   0.578  0.4502  0.2097  0.5429
 7672SOL    HW124755   4.407   8.754   0.504 -0.7530 -0.0737  0.6309
 7672SOL    HW224756   4.366   8.895   0.539  0.3535  0.2430  0.6956
 7673SOL     OW24757   5.608   2.715   5.111  0.0430  0.3677 -0.0230
 7673SOL    HW124758   5.547   2.739   5.181 -0.5810  1.0841 -0.7944
 7673SOL    HW224759   5.567   2.747   5.031  1.3835  0.7776 -0.5793
 7674SOL     OW24760   5.653   6.299   3.031 -0.0909 -0.6986  0.0889
 7674SOL    HW124761   5.644   6.365   3.100 -0.7864 -0.4832 -0.1976
 7674SOL    HW224762   5.563   6.271   3.013  0.0921 -0.8257 -0.6583
 7675SOL     OW24763   6.266   0.518   2.567 -0.3973  0.4052 -0.0036
 7675SOL    HW124764   6.245   0.486   2.479 -0.3415  2.0521 -0.6612
 7675SOL    HW224765   6.311   0.601   2.552 -1.5487  1.3935  1.5867
 7676SOL     OW24766   9.158   6.418   2.062 -0.7868 -0.2264 -0.2311
 7676SOL    HW124767   9.125   6.446   1.977 -0.3007  1.3179  0.0616
 7676SOL    HW224768   9.172   6.324   2.052 -2.5098 -0.4182 -1.2456
 7677SOL     OW24769   4.068   0.599   6.273  0.4583 -0.1892  0.3970
 7677SOL    HW124770   4.078   0.608   6.178  1.3827 -3.1736  0.1222
 7677SOL    HW224771   3.976   0.574   6.285  0.8979 -2.2378 -0.0412
 7678SOL     OW24772   5.019   3.323   2.432  0.3305 -0.0693 -0.6261
 7678SOL    HW124773   4.945   3.367   2.473  1.2945  1.7319 -0.6718
 7678SOL    HW224774   5.063   3.278   2.504  0.9466  1.5036  0.0320
 7679SOL     OW24775   1.174   1.467   0.326 -0.0490  0.2650  0.7059
 7679SOL    HW124776   1.264   1.500   0.330  0.1752 -0.3199  0.5906
 7679SOL    HW224777   1.122   1.543   0.301  0.9907 -0.3654 -4.3721
 7680SOL     OW24778   1.953   5.003   2.553  0.0382 -0.8156  0.0732
 7680SOL    HW124779   1.885   5.048   2.605  1.3501 -0.5808  1.6747
 7680SOL    HW224780   1.925   5.015   2.462 -4.0802 -3.9387  0.6408
 7681SOL     OW24781   4.402   0.931   5.738  0.0134  0.4655 -0.6095
 7681SOL    HW124782   4.439   0.972   5.660  1.6785  0.2861  0.0420
 7681SOL    HW224783   4.398   1.002   5.802 -0.2182  0.3392 -0.4820
 7682SOL     OW24784   3.371   3.753   5.410 -0.1264  0.0415 -0.2030
 7682SOL    HW124785   3.312   3.679   5.395  0.5637 -0.5287 -0.1609
 7682SOL    HW224786   3.433   3.749   5.337  1.6922 -1.1898  1.3323
 7683SOL     OW24787   7.265   3.202   8.691 -0.6148  0.1802 -0.0778
 7683SOL    HW124788   7.241   3.110   8.698 -0.0204  0.0878  1.1547
 7683SOL    HW224789   7.339   3.212   8.751 -0.3832  1.3675 -0.5207
 7684SOL     OW24790   6.960   4.860   2.758  0.1883 -0.0361 -0.2258
 7684SOL    HW124791   6.894   4.822   2.701  1.3967  0.7687 -2.2665
 7684SOL    HW224792   6.962   4.803   2.835 -1.8905 -0.8289 -0.7093
 7685SOL     OW24793   3.744   7.805   8.809  0.2563  0.1538  0.4163
 7685SOL    HW124794   3.698   7.877   8.767 -1.7662 -0.8934  0.7057
 7685SOL    HW224795   3.763   7.743   8.739  0.1575  0.0475  0.4826
 7686SOL     OW24796   2.598   2.724   5.875 -0.0489 -0.1264  0.5935
 7686SOL    HW124797   2.575   2.804   5.829  1.1392 -0.4536 -0.6341
 7686SOL    HW224798   2.647   2.754   5.952 -0.0201  0.3525  0.3901
 7687SOL     OW24799   5.665   1.190   7.159 -0.4370  0.0880  0.1530
 7687SOL    HW124800   5.742   1.143   7.126 -0.0537  0.6704  0.2018
 7687SOL    HW224801   5.641   1.250   7.088 -1.0273 -0.2954  0.0236
 7688SOL     OW24802   3.635   1.419   8.162 -0.1910 -0.3655  0.5675
 7688SOL    HW124803   3.582   1.347   8.129  1.3240 -1.5859  0.6625
 7688SOL    HW224804   3.599   1.497   8.120  0.2192 -1.5565 -2.2198
 7689SOL     OW24805   3.229   2.798   9.309 -0.0348 -0.3637  0.1984
 7689SOL    HW124806   3.237   2.851   9.230 -0.3061 -0.8435 -0.1585
 7689SOL    HW224807   3.303   2.737   9.305  2.6464  2.4127  2.5561
 7690SOL     OW24808   7.275   4.053   3.808  0.3513 -0.1332 -0.2743
 7690SOL    HW124809   7.356   4.099   3.830 -0.1266  0.9153 -0.6394
 7690SOL    HW224810   7.208   4.122   3.807 -0.5524 -0.9925  0.0740
 7691SOL     OW24811   7.365   0.490   1.287 -0.3539 -0.0478 -0.5354
 7691SOL    HW124812   7.443   0.494   1.342 -0.8232  0.4928  0.1162
 7691SOL    HW224813   7.394   0.522   1.201 -0.0283  0.8935 -0.0925
 7692SOL     OW24814   7.339   1.169   0.483 -0.2360 -0.4883  0.4175
 7692SOL    HW124815   7.343   1.092   0.541 -0.0394 -1.9669 -1.4408
 7692SOL    HW224816   7.248   1.197   0.487 -0.3882 -1.0218  0.8640
 7693SOL     OW24817   4.657   2.836   2.818  0.0170  0.8680  0.8861
 7693SOL    HW124818   4.643   2.876   2.733  2.0098  3.4544  1.6418
 7693SOL    HW224819   4.596   2.881   2.877  0.0810  0.5406  1.2154
 7694SOL     OW24820   0.543   5.622   0.419 -0.0733 -0.3361 -0.1264
 7694SOL    HW124821   0.487   5.678   0.365  0.2441  0.3593  0.2481
 7694SOL    HW224822   0.482   5.577   0.478 -0.5975 -2.2287 -1.9723
 7695SOL     OW24823   3.781   3.969   9.169 -0.4452  0.1418  0.2592
 7695SOL    HW124824   3.771   3.875   9.180  1.2887 -0.3245 -1.5638
 7695SOL    HW224825   3.744   3.988   9.083 -0.0062  0.9534  0.2313
 7696SOL     OW24826   3.474   6.508   8.266 -0.4458  0.0406  0.2784
 7696SOL    HW124827   3.493   6.601   8.258 -1.4595  0.1587 -1.0793
 7696SOL    HW224828   3.452   6.480   8.177 -1.5383 -1.1661  0.8930
 7697SOL     OW24829   2.347   0.503   7.263  0.5709 -0.2091  0.0702
 7697SOL    HW124830   2.329   0.595   7.242  0.7288  0.0100  0.8609
 7697SOL    HW224831   2.411   0.475   7.197  1.8500  0.7691  0.8373
 7698SOL     OW24832   7.630   4.453   0.919 -0.4341  0.0186  0.1536
 7698SOL    HW124833   7.715   4.486   0.948  0.4496 -0.7231 -1.4382
 7698SOL    HW224834   7.572   4.467   0.993  0.4794  2.7484  0.4730
 7699SOL     OW24835   5.029   6.433   1.826 -0.4253 -0.1687  0.0361
 7699SOL    HW124836   4.969   6.506   1.844 -0.3726  0.1760 -1.0962
 7699SOL    HW224837   4.972   6.357   1.820 -0.3085 -0.6254  3.0915
 7700SOL     OW24838   1.606   7.435   3.226  0.3327 -0.4171  0.3717
 7700SOL    HW124839   1.640   7.466   3.310 -0.8308  0.4985  0.5321
 7700SOL    HW224840   1.546   7.503   3.197 -2.0936 -2.3150  0.5710
 7701SOL     OW24841   7.377   8.590   2.797 -0.0079  0.3189 -0.2044
 7701SOL    HW124842   7.429   8.535   2.739  1.5574  0.7450  0.7499
 7701SOL    HW224843   7.288   8.555   2.790  0.4573 -0.6719 -1.5770
 7702SOL     OW24844   3.200   0.180   6.067  0.2540  0.1638 -0.0238
 7702SOL    HW124845   3.211   0.258   6.121 -0.2801  0.4553 -0.3343
 7702SOL    HW224846   3.279   0.177   6.013  0.5724  0.1292  0.4353
 7703SOL     OW24847   9.121   9.249   4.850 -0.4533 -0.3209  0.3914
 7703SOL    HW124848   9.213   9.277   4.844 -0.2020 -1.2967 -0.7205
 7703SOL    HW224849   9.076   9.297   4.782 -0.6663 -0.2360  0.5902
 7704SOL     OW24850   8.182   5.146   5.282  0.6586 -0.4957  0.1916
 7704SOL    HW124851   8.157   5.106   5.199  0.6048  1.0777 -0.6005
 7704SOL    HW224852   8.167   5.240   5.268  2.6268  0.0366  1.2507
 7705SOL     OW24853   8.505   9.404   8.597 -0.3493  0.1650 -0.1725
 7705SOL    HW124854   8.438   9.348   8.560 -1.5684  1.5081 -0.0856
 7705SOL    HW224855   8.579   9.345   8.615 -1.6793 -1.4325  0.2200
 7706SOL     OW24856   3.365   3.845   1.248 -0.4799  0.0590  0.4470
 7706SOL    HW124857   3.303   3.884   1.311 -0.9366 -0.5418  0.3776
 7706SOL    HW224858   3.321   3.853   1.164 -0.6415 -0.7367  0.4532
 7707SOL     OW24859   5.938   0.789   7.313 -0.4129 -0.1013  0.2721
 7707SOL    HW124860   5.979   0.715   7.357  1.7993  0.4301 -0.7136
 7707SOL    HW224861   5.951   0.772   7.220 -2.2285  0.2917 -0.0956
 7708SOL     OW24862   7.573   5.838   6.776 -0.4920  0.0202 -0.6055
 7708SOL    HW124863   7.550   5.759   6.824 -1.2986  0.5664 -0.0807
 7708SOL    HW224864   7.655   5.868   6.816 -1.1192  0.4325  0.3887
 7709SOL     OW24865   0.858   1.513   5.224  0.1106  0.2825 -0.8040
 7709SOL    HW124866   0.885   1.586   5.279 -3.4595  0.0542  1.5539
 7709SOL    HW224867   0.933   1.453   5.226  1.6169  2.0739  0.4415
 7710SOL     OW24868   4.552   0.304   5.913  0.3281 -0.3164  0.1275
 7710SOL    HW124869   4.601   0.270   5.988 -0.4708 -0.2611  0.6777
 7710SOL    HW224870   4.618   0.311   5.843  0.6784 -2.3571  0.1871
 7711SOL     OW24871   3.242   7.454   1.743  0.1731  0.4467 -0.1919
 7711SOL    HW124872   3.264   7.524   1.804  0.3701 -0.7861  1.2007
 7711SOL    HW224873   3.165   7.412   1.782 -0.4264  0.3696 -1.4158
 7712SOL     OW24874   8.089   5.549   5.022 -0.1129 -0.0835 -0.1481
 7712SOL    HW124875   8.032   5.602   4.966  0.9182  1.3593  0.1273
 7712SOL    HW224876   8.178   5.578   5.001  0.3601 -0.3202  1.3968
 7713SOL     OW24877   4.347   6.706   2.606  0.6910 -0.1291  0.2363
 7713SOL    HW124878   4.435   6.672   2.618  1.1148 -0.2504 -2.4429
 7713SOL    HW224879   4.298   6.635   2.565  0.1092  0.7340 -0.6422
 7714SOL     OW24880   9.532   2.933   4.915 -0.2068 -0.3466 -0.2407
 7714SOL    HW124881   9.470   2.865   4.886  1.8531 -1.7652 -1.6010
 7714SOL    HW224882   9.600   2.884   4.961  2.1564  0.5042 -2.6256
 7715SOL     OW24883   1.255   1.442   8.703  0.5028  0.0995  0.1968
 7715SOL    HW124884   1.304   1.396   8.771  0.7888 -0.1131 -0.1443
 7715SOL    HW224885   1.316   1.446   8.629  0.1093  0.1044 -0.1287
 7716SOL     OW24886   2.991   5.512   4.854 -1.0270  0.1318 -0.9468
 7716SOL    HW124887   3.064   5.534   4.796  0.2673 -0.1662  0.4883
 7716SOL    HW224888   2.969   5.595   4.897 -1.1605  0.1117 -0.9771
 7717SOL     OW24889   1.154   4.574   3.062 -0.3223  0.5840  0.3660
 7717SOL    HW124890   1.221   4.525   3.014 -1.2255 -0.1358 -0.1832
 7717SOL    HW224891   1.131   4.518   3.136 -0.0649  0.9878  0.7534
 7718SOL     OW24892   2.475   7.037   3.959 -0.1010 -0.2775 -0.0158
 7718SOL    HW124893   2.384   7.060   3.979 -0.4415 -0.9466 -0.7070
 7718SOL    HW224894   2.498   7.094   3.885  0.3438  0.5074  0.7186
 7719SOL     OW24895   6.816   8.072   8.660  0.0783  0.2371  0.2613
 7719SOL    HW124896   6.870   8.018   8.603  0.1286 -2.0121  2.2712
 7719SOL    HW224897   6.877   8.132   8.703  0.5688 -0.3314  0.3748
 7720SOL     OW24898   1.665   8.186   5.811  0.0713  0.2648 -0.1632
 7720SOL    HW124899   1.755   8.216   5.802  0.4195 -0.3313  1.1432
 7720SOL    HW224900   1.667   8.093   5.788 -0.0530  0.0585  0.6391
 7721SOL     OW24901   4.901   2.818   7.367 -0.7676 -0.4969 -0.1471
 7721SOL    HW124902   4.816   2.830   7.323 -0.3736 -0.7904 -1.0134
 7721SOL    HW224903   4.964   2.861   7.309 -0.5452  1.6186  1.5172
 7722SOL     OW24904   7.507   3.011   3.176  0.3396  0.3908  0.2789
 7722SOL    HW124905   7.445   3.051   3.115  0.7202  1.7995  0.7792
 7722SOL    HW224906   7.458   2.940   3.218 -0.8697  1.3533  0.5263
 7723SOL     OW24907   8.897   4.004   7.141  0.5308 -0.3709  0.5915
 7723SOL    HW124908   8.972   4.059   7.162  1.2681 -0.8999 -0.5695
 7723SOL    HW224909   8.852   4.051   7.070  1.2602 -1.3060 -0.5280
 7724SOL     OW24910   6.826   2.965   8.335 -0.0882  0.2658  0.2659
 7724SOL    HW124911   6.889   2.894   8.344 -0.4697 -0.2064 -0.6884
 7724SOL    HW224912   6.832   3.013   8.418  0.3055 -0.7600  0.8431
 7725SOL     OW24913   2.517   3.697   3.499 -0.4265  0.2321 -0.2027
 7725SOL    HW124914   2.470   3.683   3.582  1.8536 -3.6153  0.6937
 7725SOL    HW224915   2.469   3.642   3.436  0.7155 -0.9231 -0.1104
 7726SOL     OW24916   6.716   6.004   0.154  0.4491  0.2390 -0.1005
 7726SOL    HW124917   6.803   5.964   0.156  0.4251 -0.1455 -2.6848
 7726SOL    HW224918   6.730   6.089   0.111 -0.0685  1.4494  1.9960
 7727SOL     OW24919   5.283   0.724   1.230 -0.5549 -0.2703 -0.1124
 7727SOL    HW124920   5.230   0.672   1.290 -0.2888 -1.7383 -1.1179
 7727SOL    HW224921   5.362   0.672   1.216 -0.3956  0.2745 -1.3545
 7728SOL     OW24922   4.703   4.192   5.256 -0.1842 -0.0728  0.9498
 7728SOL    HW124923   4.673   4.261   5.197  1.4727 -1.1245 -1.2407
 7728SOL    HW224924   4.794   4.215   5.276 -0.1522 -0.7271  1.5984
 7729SOL     OW24925   2.565   0.735   3.133  0.0787 -0.1173 -0.2960
 7729SOL    HW124926   2.597   0.736   3.224 -0.6758 -0.8010 -0.0084
 7729SOL    HW224927   2.481   0.690   3.138  1.4951 -3.2915 -1.7900
 7730SOL     OW24928   2.819   7.845   8.548 -0.4872 -0.3361 -0.5361
 7730SOL    HW124929   2.728   7.862   8.523 -0.1554  1.0518 -0.8920
 7730SOL    HW224930   2.868   7.918   8.510  0.8252 -1.2353 -0.6192
 7731SOL     OW24931   2.361   2.476   4.170 -0.0462  0.5311  0.1878
 7731SOL    HW124932   2.346   2.530   4.092 -1.0892 -0.4211 -0.3010
 7731SOL    HW224933   2.455   2.457   4.169 -0.1804 -0.2139 -1.3629
 7732SOL     OW24934   1.177   2.081   6.304 -0.5125 -0.1842  0.2344
 7732SOL    HW124935   1.228   2.154   6.339  0.5673  0.0165 -1.6138
 7732SOL    HW224936   1.139   2.114   6.223 -1.1817 -1.2367  0.0947
 7733SOL     OW24937   4.552   1.740   7.896 -0.5306 -0.5102  0.4755
 7733SOL    HW124938   4.619   1.779   7.840 -0.8923 -3.1228 -2.0159
 7733SOL    HW224939   4.601   1.682   7.955 -0.3622  0.4474  1.3196
 7734SOL     OW24940   7.533   2.740   1.363  0.1099  0.0930  0.2429
 7734SOL    HW124941   7.624   2.712   1.370 -0.0241  0.0718  2.7665
 7734SOL    HW224942   7.500   2.737   1.453 -1.5924  2.7416 -0.1788
 7735SOL     OW24943   0.102   9.395   6.193  0.1689  0.8537  0.2909
 7735SOL    HW124944   0.015   9.432   6.205 -0.5730 -0.7099 -0.0702
 7735SOL    HW224945   0.127   9.362   6.279 -0.4304 -0.3926  0.0128
 7736SOL     OW24946   2.359   5.237   5.144 -0.3228 -0.1246  0.3511
 7736SOL    HW124947   2.359   5.254   5.050 -1.2507  1.1951  0.5597
 7736SOL    HW224948   2.309   5.310   5.181  0.4584 -0.3535  1.9175
 7737SOL     OW24949   1.190   0.172   8.538  0.2573 -0.2427 -0.4256
 7737SOL    HW124950   1.096   0.187   8.548 -0.0699 -1.9362 -0.6344
 7737SOL    HW224951   1.223   0.254   8.502 -0.7230  1.2596  1.7978
 7738SOL     OW24952   8.564   1.557   4.517 -0.2423 -0.2526 -0.0307
 7738SOL    HW124953   8.472   1.562   4.543  0.0707  0.5572  0.9716
 7738SOL    HW224954   8.600   1.486   4.570  0.0053  0.2963  0.5509
 7739SOL     OW24955   1.998   0.539   8.698  0.1809  0.3939 -0.5749
 7739SOL    HW124956   2.084   0.554   8.739 -0.3115 -0.9662  1.0871
 7739SOL    HW224957   2.016   0.539   8.604  1.9618  0.3787 -0.2711
 7740SOL     OW24958   3.659   0.477   0.028  0.2822 -0.6111  0.0622
 7740SOL    HW124959   3.563   0.482   0.033 -0.0077 -2.8523 -1.6666
 7740SOL    HW224960   3.680   0.391   0.063  1.6264 -0.3666 -0.0980
 7741SOL     OW24961   3.191   7.370   6.856  0.2337  0.1253 -0.0482
 7741SOL    HW124962   3.286   7.360   6.847  0.1082 -0.0062 -1.6218
 7741SOL    HW224963   3.175   7.464   6.843  0.2027  0.2527  0.8867
 7742SOL     OW24964   2.846   6.462   6.514  0.1467 -0.7217  0.2971
 7742SOL    HW124965   2.787   6.386   6.514  0.9453 -1.3766  1.5503
 7742SOL    HW224966   2.789   6.536   6.490 -1.1431 -1.3715  1.2176
 7743SOL     OW24967   0.169   8.714   6.025 -0.4047  0.1273  0.1756
 7743SOL    HW124968   0.217   8.685   5.947 -0.4575 -1.6113  0.7492
 7743SOL    HW224969   0.208   8.665   6.097 -0.7095  1.3212  1.1947
 7744SOL     OW24970   9.170   0.785   4.334  0.0370  0.5265 -0.6353
 7744SOL    HW124971   9.193   0.833   4.255 -0.8907  0.3523 -1.0326
 7744SOL    HW224972   9.085   0.745   4.314 -0.0397  0.1737  0.3160
 7745SOL     OW24973   4.241   3.141   9.592  0.6762 -0.1796  0.0704
 7745SOL    HW124974   4.224   3.133   9.498  2.4700  0.8842 -0.3890
 7745SOL    HW224975   4.174   3.201   9.624  0.1079 -0.4811 -0.5479
 7746SOL     OW24976   2.106   9.442   8.002 -0.6482  0.4003 -0.0103
 7746SOL    HW124977   2.050   9.384   8.054 -3.5863  0.8870 -2.3127
 7746SOL    HW224978   2.114   9.521   8.055 -1.1245 -0.1491  0.9173
 7747SOL     OW24979   8.813   8.385   3.512  0.1303 -0.1000 -0.2047
 7747SOL    HW124980   8.901   8.367   3.479  0.6365  1.0818  0.4278
 7747SOL    HW224981   8.784   8.301   3.547  0.7386 -0.6671 -1.0098
 7748SOL     OW24982   0.649   0.600   4.035  0.3771 -0.1760  0.1770
 7748SOL    HW124983   0.646   0.623   4.128  0.8016  0.4539  0.0476
 7748SOL    HW224984   0.587   0.528   4.025  0.6241 -0.5161  1.0214
 7749SOL     OW24985   8.428   6.527   1.691 -0.2188  0.4703  0.3934
 7749SOL    HW124986   8.506   6.556   1.739  0.2153 -2.1608  1.4227
 7749SOL    HW224987   8.443   6.434   1.673 -1.6772  0.6680 -2.3862
 7750SOL     OW24988   1.535   7.029   7.524  0.3037  0.1827 -0.2140
 7750SOL    HW124989   1.570   6.982   7.448  0.2971 -1.6620  0.8605
 7750SOL    HW224990   1.575   6.986   7.599 -2.5926 -0.6246  0.9878
 7751SOL     OW24991   4.903   0.463   6.412 -0.1087  0.2244  0.2350
 7751SOL    HW124992   4.946   0.395   6.465  0.8579  1.8520  1.6491
 7751SOL    HW224993   4.813   0.464   6.444 -0.2292 -0.6242 -0.0541
 7752SOL     OW24994   2.770   3.214   7.548 -0.2060  0.2037 -0.2938
 7752SOL    HW124995   2.792   3.159   7.623  1.2135  0.9225 -0.1488
 7752SOL    HW224996   2.727   3.155   7.487 -1.4411 -0.3759  1.0989
 7753SOL     OW24997   6.554   2.144   2.003  0.8920  0.4045  0.1322
 7753SOL    HW124998   6.524   2.133   2.093  0.9652  1.9529  0.3776
 7753SOL    HW224999   6.634   2.092   1.997  1.0816  0.5804  1.0719
 7754SOL     OW25000   4.946   7.774   9.614 -0.5593  0.4937 -0.0085
 7754SOL    HW125001   4.944   7.867   9.640  0.3284  0.3617  0.5641
 7754SOL    HW225002   4.902   7.728   9.685 -1.9378  0.5691 -0.7855
 7755SOL     OW25003   8.226   0.544   1.677  0.4813 -0.2863  0.3584
 7755SOL    HW125004   8.146   0.491   1.680  0.0440  0.3702  0.5719
 7755SOL    HW225005   8.291   0.494   1.726 -0.3716  0.1004  1.9465
 7756SOL     OW25006   7.510   4.929   4.614  0.0363 -0.7509 -0.0045
 7756SOL    HW125007   7.422   4.963   4.629  0.2578 -0.0171 -0.3414
 7756SOL    HW225008   7.507   4.839   4.648 -0.2260 -0.0443  1.9292
 7757SOL     OW25009   6.557   5.661   6.082  0.1005 -0.0575  0.1092
 7757SOL    HW125010   6.644   5.642   6.118 -0.0211  0.7797  0.8886
 7757SOL    HW225011   6.532   5.581   6.037  1.3787 -0.2422 -0.3339
 7758SOL     OW25012   4.088   7.092   6.569 -0.2691 -0.1182 -0.3642
 7758SOL    HW125013   4.143   7.128   6.639 -0.4351  0.4794 -0.5371
 7758SOL    HW225014   4.015   7.052   6.616  0.8594 -1.9418 -0.0635
 7759SOL     OW25015   9.581   6.529   4.659  1.2543  0.0793  0.5582
 7759SOL    HW125016   9.586   6.613   4.703 -1.1652  1.0824 -0.8680
 7759SOL    HW225017   9.661   6.483   4.685  2.3304  2.5290  1.8954
 7760SOL     OW25018   9.546   0.470   0.566 -0.1334  0.7524 -0.2884
 7760SOL    HW125019   9.575   0.510   0.648  0.8381  0.0336 -0.2575
 7760SOL    HW225020   9.627   0.446   0.521 -0.6651  0.4971 -1.1390
 7761SOL     OW25021   6.884   8.243   1.704  0.5113  0.7891 -0.5830
 7761SOL    HW125022   6.822   8.198   1.761  0.1243  0.8284 -0.9733
 7761SOL    HW225023   6.853   8.333   1.702  0.5720  0.8051 -0.7922
 7762SOL     OW25024   9.226   5.367   7.713  0.1559  0.6994 -0.5154
 7762SOL    HW125025   9.243   5.277   7.741  0.1726  0.4738 -1.2312
 7762SOL    HW225026   9.133   5.381   7.733  0.0115  0.3288 -0.9143
 7763SOL     OW25027   3.975   7.515   4.956 -0.1821 -0.2712  0.0903
 7763SOL    HW125028   4.014   7.600   4.975 -1.6785  0.8062 -1.3693
 7763SOL    HW225029   4.012   7.490   4.871  0.2034 -1.0594  0.4812
 7764SOL     OW25030   0.136   2.987   7.102  0.0186  0.3843 -0.3253
 7764SOL    HW125031   0.111   3.074   7.070  0.7638  1.0699  0.9077
 7764SOL    HW225032   0.113   2.988   7.195 -1.3639 -1.2870 -0.6011
 7765SOL     OW25033   8.211   1.699   6.633  0.8452 -0.1620  0.0571
 7765SOL    HW125034   8.274   1.664   6.570  2.4048  2.2870  0.1119
 7765SOL    HW225035   8.128   1.701   6.585  1.1850 -1.6380 -0.6722
 7766SOL     OW25036   6.884   1.744   0.219  0.2847  0.3964 -0.5597
 7766SOL    HW125037   6.952   1.693   0.172  0.0620  0.9172 -1.4740
 7766SOL    HW225038   6.802   1.710   0.185  0.1006  0.3836 -0.1065
 7767SOL     OW25039   7.884   4.954   9.100 -0.4304  0.2377 -0.7656
 7767SOL    HW125040   7.961   4.899   9.115 -0.8128  0.1934  1.3365
 7767SOL    HW225041   7.810   4.897   9.119 -0.9675  0.5834 -1.7463
 7768SOL     OW25042   1.659   3.998   7.469  0.2468  0.0772 -0.3252
 7768SOL    HW125043   1.665   4.083   7.512 -1.2239 -0.7028  1.5715
 7768SOL    HW225044   1.742   3.954   7.489  0.5917  0.6647 -0.4487
 7769SOL     OW25045   4.865   8.793   3.940 -0.4731  0.5472  0.3997
 7769SOL    HW125046   4.771   8.807   3.930 -0.4818  0.9937  1.0323
 7769SOL    HW225047   4.872   8.704   3.975 -0.6374  0.3785  0.0096
 7770SOL     OW25048   7.218   9.249   7.109 -0.0828 -0.2443  0.5485
 7770SOL    HW125049   7.187   9.312   7.044  0.3772 -0.4818  0.0872
 7770SOL    HW225050   7.184   9.281   7.193  0.3794  0.7642  0.3599
 7771SOL     OW25051   7.536   6.285   6.975  0.1266 -0.3629  0.0813
 7771SOL    HW125052   7.519   6.257   7.065  0.3131 -0.1783  0.1760
 7771SOL    HW225053   7.525   6.207   6.922 -0.8052 -0.2984  0.1675
 7772SOL     OW25054   9.372   3.299   2.613  0.0319 -0.4144  0.3689
 7772SOL    HW125055   9.385   3.205   2.625 -1.1426 -0.3384  2.8721
 7772SOL    HW225056   9.280   3.313   2.634  0.2340  1.3064  0.1995
 7773SOL     OW25057   4.626   6.195   7.054  0.5827  0.5781  0.0693
 7773SOL    HW125058   4.636   6.205   6.959 -0.8879  0.2330 -0.1381
 7773SOL    HW225059   4.571   6.118   7.064 -2.1799  2.5369  1.0569
 7774SOL     OW25060   3.931   5.688   8.423 -0.4874  0.0515 -0.7775
 7774SOL    HW125061   3.961   5.605   8.387 -1.3048  0.3092 -2.1570
 7774SOL    HW225062   3.861   5.664   8.483  1.7415 -0.4837  1.7859
 7775SOL     OW25063   3.198   2.029   0.982  0.3988  0.1822  0.1800
 7775SOL    HW125064   3.224   1.938   0.998 -0.3073 -0.3413 -1.4870
 7775SOL    HW225065   3.191   2.036   0.887  0.1336  1.9061  0.2922
 7776SOL     OW25066   3.634   4.381   7.296  0.3975 -0.8473  0.0022
 7776SOL    HW125067   3.626   4.471   7.328 -0.1848 -1.3800  1.4446
 7776SOL    HW225068   3.649   4.328   7.375 -1.0458 -2.2239 -0.5770
 7777SOL     OW25069   7.021   5.000   4.700  0.6205 -0.2702 -0.2820
 7777SOL    HW125070   7.071   4.924   4.669  0.4975 -0.1606 -0.7585
 7777SOL    HW225071   6.965   5.023   4.626 -0.4532 -0.6622  0.3939
 7778SOL     OW25072   0.277   2.575   3.142 -0.1173 -0.0138 -0.2694
 7778SOL    HW125073   0.278   2.502   3.205  3.5849 -0.7838 -0.9463
 7778SOL    HW225074   0.238   2.538   3.063 -3.2000  0.4547  0.9014
 7779SOL     OW25075   7.251   7.540   1.352 -0.1119 -0.2576  0.2906
 7779SOL    HW125076   7.173   7.487   1.369  0.7131 -1.7705 -0.5001
 7779SOL    HW225077   7.285   7.560   1.439 -0.8399 -0.3891  0.6168
 7780SOL     OW25078   9.026   7.472   6.168 -0.5267  0.0718 -0.2914
 7780SOL    HW125079   8.972   7.546   6.143 -0.3833 -0.0190 -0.8723
 7780SOL    HW225080   9.017   7.467   6.263 -1.1730  0.3370 -0.3352
 7781SOL     OW25081   4.743   3.481   0.322  0.2518  0.0120  0.5173
 7781SOL    HW125082   4.670   3.475   0.261 -1.0830  2.2132  1.7593
 7781SOL    HW225083   4.777   3.570   0.310  0.8322  0.0227  2.0069
 7782SOL     OW25084   2.298   1.514   5.359 -0.6799 -0.7658  0.0736
 7782SOL    HW125085   2.243   1.440   5.383 -1.0913 -0.8361 -1.0090
 7782SOL    HW225086   2.385   1.477   5.348 -0.4342 -0.6962  1.5641
 7783SOL     OW25087   7.527   8.697   6.336 -0.2860  0.2625 -0.0521
 7783SOL    HW125088   7.586   8.625   6.358 -0.5298  0.0143 -0.2104
 7783SOL    HW225089   7.522   8.697   6.240 -1.6665 -0.6378 -0.0110
 7784SOL     OW25090   2.094   7.351   3.479 -0.0376 -0.3381 -0.2884
 7784SOL    HW125091   2.153   7.375   3.551  0.9859 -0.3027 -1.1151
 7784SOL    HW225092   2.153   7.322   3.409 -0.8252  2.0218 -2.0492
 7785SOL     OW25093   3.873   3.405   5.053 -0.0100  0.1859 -0.0952
 7785SOL    HW125094   3.960   3.431   5.024 -0.3366  0.6646 -0.7001
 7785SOL    HW225095   3.855   3.461   5.129  0.2695 -0.0223  0.1239
 7786SOL     OW25096   7.846   5.588   2.860  0.6231 -0.2134  0.3134
 7786SOL    HW125097   7.772   5.534   2.832 -1.0336 -0.3421  4.3440
 7786SOL    HW225098   7.923   5.544   2.822 -1.0726 -1.9251 -1.3760
 7787SOL     OW25099   5.142   8.960   6.210 -0.4110  0.0130 -0.0481
 7787SOL    HW125100   5.133   8.890   6.275 -0.1697  0.4542  0.4696
 7787SOL    HW225101   5.124   8.918   6.126 -1.7094 -0.3622  0.3947
 7788SOL     OW25102   5.338   7.058   8.991  0.7763 -0.4011 -0.4462
 7788SOL    HW125103   5.367   7.021   8.908 -0.7320 -1.0613 -0.7030
 7788SOL    HW225104   5.309   6.983   9.043 -0.3559  0.2117 -0.1693
 7789SOL     OW25105   7.491   0.238   6.408 -0.5789 -0.3647  0.6262
 7789SOL    HW125106   7.433   0.243   6.332 -0.2554 -0.2046  0.3854
 7789SOL    HW225107   7.447   0.290   6.476  0.1545  1.3329 -0.1348
 7790SOL     OW25108   3.936   2.532   4.338 -0.6498 -0.0468  0.1608
 7790SOL    HW125109   3.866   2.578   4.385 -0.6106  1.5795 -1.2528
 7790SOL    HW225110   3.917   2.550   4.246  0.2843 -1.6106 -0.3599
 7791SOL     OW25111   4.800   4.289   6.420  0.7375 -0.0429 -0.0216
 7791SOL    HW125112   4.797   4.321   6.510  1.9236 -0.9305  0.3459
 7791SOL    HW225113   4.722   4.235   6.412  0.8435 -0.2969  0.5994
 7792SOL     OW25114   4.747   5.834   9.056  0.6730  0.0746 -0.5420
 7792SOL    HW125115   4.782   5.819   9.144 -0.7119 -0.7492 -0.0924
 7792SOL    HW225116   4.728   5.746   9.023 -0.0605  0.4482 -1.1423
 7793SOL     OW25117   3.720   6.525   1.413  0.2558 -0.1754 -0.8975
 7793SOL    HW125118   3.769   6.584   1.356  0.6620 -0.4862 -0.8772
 7793SOL    HW225119   3.638   6.571   1.431  0.5665  0.3787 -0.8856
 7794SOL     OW25120   3.836   6.767   2.149  0.5306 -0.1192  0.0735
 7794SOL    HW125121   3.883   6.698   2.195  3.4026  2.0465  0.6449
 7794SOL    HW225122   3.873   6.766   2.060 -0.0213  0.1534 -0.1634
 7795SOL     OW25123   4.909   2.899   7.935  0.3150  0.0944 -0.7640
 7795SOL    HW125124   4.926   2.931   7.846  0.5216  1.1150 -0.3635
 7795SOL    HW225125   4.935   2.971   7.992  1.1945 -0.9499  0.1899
 7796SOL     OW25126   4.662   1.767   9.133 -0.0135  0.6668  0.0786
 7796SOL    HW125127   4.723   1.743   9.203  0.1087  2.4873  0.6463
 7796SOL    HW225128   4.697   1.724   9.055 -1.2480 -3.0907  1.3855
 7797SOL     OW25129   7.721   2.746   8.270  0.2934  0.3884 -0.3648
 7797SOL    HW125130   7.714   2.748   8.175 -2.5204  1.9409 -0.2478
 7797SOL    HW225131   7.765   2.827   8.293 -1.2596  1.2611 -0.3170
 7798SOL     OW25132   7.246   6.244   2.371 -0.4159  0.1588  0.0646
 7798SOL    HW125133   7.192   6.168   2.391  0.6694 -0.5402  0.4207
 7798SOL    HW225134   7.257   6.289   2.454 -1.1040  0.7440 -0.1564
 7799SOL     OW25135   1.983   3.133   6.261 -0.5499  0.0664  0.0640
 7799SOL    HW125136   1.950   3.219   6.286  1.0235  0.4966  0.7621
 7799SOL    HW225137   1.920   3.072   6.298 -1.8531  0.8859 -0.6859
 7800SOL     OW25138   1.327   5.188   7.099 -0.3430 -0.1798 -0.5053
 7800SOL    HW125139   1.310   5.097   7.124  0.1923 -0.4299 -1.0572
 7800SOL    HW225140   1.262   5.238   7.149 -0.5473 -0.8454 -0.0853
 7801SOL     OW25141   7.928   8.826   7.391  0.5737 -0.6502  0.3733
 7801SOL    HW125142   7.960   8.871   7.312  1.5215 -0.6308  0.7545
 7801SOL    HW225143   7.845   8.787   7.364 -1.2114  2.6866  0.4421
 7802SOL     OW25144   0.219   2.390   2.905 -0.7975  0.9589 -0.3829
 7802SOL    HW125145   0.166   2.428   2.834 -0.0157 -1.1495 -2.2059
 7802SOL    HW225146   0.157   2.338   2.956 -0.6837 -1.3107 -2.3722
 7803SOL     OW25147   6.340   5.141   2.011  0.6117 -0.2934 -0.1352
 7803SOL    HW125148   6.378   5.148   1.923 -0.8475 -0.7830 -0.8387
 7803SOL    HW225149   6.380   5.062   2.048  1.3777  0.0205 -0.2773
 7804SOL     OW25150   5.305   8.172   0.746 -0.3287  0.0441  0.3240
 7804SOL    HW125151   5.280   8.262   0.727  0.2699  0.2849  0.6340
 7804SOL    HW225152   5.222   8.126   0.760 -0.6159  0.6730  0.7254
 7805SOL     OW25153   7.600   5.088   8.514 -0.3888  0.0555  0.1842
 7805SOL    HW125154   7.665   5.150   8.480  0.6650  0.6417  3.0003
 7805SOL    HW225155   7.547   5.066   8.438  1.9732  0.9473 -1.8826
 7806SOL     OW25156   6.357   8.646   3.826 -0.0567  0.7885 -0.0013
 7806SOL    HW125157   6.272   8.629   3.867  1.1873 -0.8623  2.1641
 7806SOL    HW225158   6.347   8.730   3.782 -2.6131  0.9300  0.7023
 7807SOL     OW25159   1.584   4.730   2.489 -0.2923 -0.3485 -0.2493
 7807SOL    HW125160   1.602   4.796   2.422 -0.5877 -1.8384 -1.8624
 7807SOL    HW225161   1.589   4.778   2.572 -0.0677  1.5905 -1.3286
 7808SOL     OW25162   3.539   6.084   8.286 -0.1758  0.0067  0.4151
 7808SOL    HW125163   3.592   6.074   8.207  0.8125  0.1886  1.0451
 7808SOL    HW225164   3.449   6.081   8.254  0.1940 -0.6203 -0.6366
 7809SOL     OW25165   7.515   2.210   8.075 -0.4661 -0.7921 -0.3459
 7809SOL    HW125166   7.586   2.234   8.135  0.0298  0.2402 -1.2877
 7809SOL    HW225167   7.498   2.118   8.092  0.6717 -0.8867  0.3521
 7810SOL     OW25168   4.119   1.213   6.335 -0.3155  0.1229 -0.6926
 7810SOL    HW125169   4.046   1.250   6.287 -1.9741 -2.0812 -0.0027
 7810SOL    HW225170   4.097   1.227   6.427 -0.3533 -1.3870 -0.4567
 7811SOL     OW25171   5.539   4.898   5.155  0.2465  0.0891  0.2403
 7811SOL    HW125172   5.594   4.967   5.191  3.0048 -1.6237 -0.3573
 7811SOL    HW225173   5.528   4.923   5.063  1.4452 -0.3214 -0.0373
 7812SOL     OW25174   3.908   9.533   6.313 -0.3273 -0.6497 -0.3970
 7812SOL    HW125175   3.922   9.593   6.240  1.1657 -1.1117 -0.5195
 7812SOL    HW225176   3.859   9.460   6.274 -1.1117 -0.0836 -0.5078
 7813SOL     OW25177   0.957   4.683   6.136 -0.3551 -0.3434  0.4535
 7813SOL    HW125178   0.885   4.726   6.183 -0.1000 -0.1741  0.6964
 7813SOL    HW225179   1.031   4.689   6.196  0.4693  1.4449 -0.6543
 7814SOL     OW25180   9.214   3.181   3.326 -0.3008 -0.1603  0.3148
 7814SOL    HW125181   9.297   3.132   3.327  0.2410  0.6703 -1.0267
 7814SOL    HW225182   9.156   3.128   3.271 -0.2716 -0.1728  0.2960
 7815SOL     OW25183   7.895   5.976   3.795  0.3583 -0.0772 -0.8495
 7815SOL    HW125184   7.916   5.958   3.703  0.1975 -1.6090 -0.6211
 7815SOL    HW225185   7.858   6.064   3.795 -1.3237 -0.7203 -2.5361
 7816SOL     OW25186   3.534   5.718   8.535  0.3066 -0.1852 -0.2668
 7816SOL    HW125187   3.581   5.652   8.586 -2.1561 -0.6350  1.6278
 7816SOL    HW225188   3.577   5.800   8.557  2.2866 -0.9027 -1.2572
 7817SOL     OW25189   3.164   0.276   4.981  0.6080  0.2501  0.5664
 7817SOL    HW125190   3.233   0.276   4.914  0.5372  2.5603  0.4097
 7817SOL    HW225191   3.202   0.225   5.053  1.9451  0.3291 -0.0383
 7818SOL     OW25192   9.489   9.202   8.473 -0.4783  0.1341 -0.2592
 7818SOL    HW125193   9.511   9.228   8.562  0.7174 -1.6774  0.0237
 7818SOL    HW225194   9.440   9.276   8.438  0.0763  1.3904  1.4866
 7819SOL     OW25195   3.240   5.591   3.366 -0.3984 -0.1004 -0.1375
 7819SOL    HW125196   3.287   5.512   3.395 -0.2643  0.1053  0.2226
 7819SOL    HW225197   3.269   5.659   3.427  0.3284  0.4851 -1.1140
 7820SOL     OW25198   7.490   3.184   8.841 -0.0583  0.0619 -0.3085
 7820SOL    HW125199   7.535   3.268   8.828 -0.0246  0.5452  2.3220
 7820SOL    HW225200   7.560   3.122   8.861 -0.2085 -0.2830 -0.8242
 7821SOL     OW25201   8.161   7.515   2.940  0.1278 -0.5070 -0.2651
 7821SOL    HW125202   8.078   7.469   2.944 -0.4844  0.5866 -0.0379
 7821SOL    HW225203   8.204   7.480   2.862 -0.6454 -0.9059 -0.5174
 7822SOL     OW25204   2.254   6.910   8.310  0.1265 -0.5802 -0.0926
 7822SOL    HW125205   2.304   6.988   8.335  1.4506 -1.2498 -0.6093
 7822SOL    HW225206   2.162   6.937   8.319  0.5638  0.8603  0.2682
 7823SOL     OW25207   9.233   7.791   2.554  0.0599 -0.1873  0.3264
 7823SOL    HW125208   9.259   7.735   2.627 -1.7711  0.8322  1.8380
 7823SOL    HW225209   9.312   7.842   2.534  1.1631 -1.8496  0.2294
 7824SOL     OW25210   5.130   3.237   6.056  0.2926 -0.1534  0.0591
 7824SOL    HW125211   5.180   3.219   6.136  0.3027  1.9124  0.5632
 7824SOL    HW225212   5.173   3.313   6.018 -1.0034  0.1691 -0.8069
 7825SOL     OW25213   4.104   2.786   7.969 -0.0726 -0.2850 -0.3721
 7825SOL    HW125214   4.011   2.763   7.960  0.1896 -1.3017 -0.6764
 7825SOL    HW225215   4.123   2.836   7.890 -0.4340  0.1943 -0.1602
 7826SOL     OW25216   3.775   9.002   6.873  0.1887  0.2282 -0.5652
 7826SOL    HW125217   3.847   9.056   6.840  0.0203  0.3472 -0.7421
 7826SOL    HW225218   3.773   9.019   6.967  0.0946  0.5795 -0.6305
 7827SOL     OW25219   2.031   1.535   9.138  0.4992  0.5126  0.3544
 7827SOL    HW125220   2.063   1.517   9.227  0.5608 -1.4313 -0.0118
 7827SOL    HW225221   1.976   1.613   9.147 -0.4749 -0.3365  2.3289
 7828SOL     OW25222   3.656   0.849   5.171 -0.2519 -0.1557 -0.3917
 7828SOL    HW125223   3.689   0.925   5.218 -0.7231  0.6468 -1.3305
 7828SOL    HW225224   3.728   0.821   5.115 -0.3551  0.1410 -0.6800
 7829SOL     OW25225   8.202   3.770   9.359 -0.2758 -0.0592 -0.7336
 7829SOL    HW125226   8.284   3.806   9.394 -1.4121  3.2019 -1.1411
 7829SOL    HW225227   8.169   3.714   9.429  1.0830  0.5135  0.4149
 7830SOL     OW25228   4.594   6.274   1.704 -0.4330  0.8895 -0.2907
 7830SOL    HW125229   4.612   6.273   1.798 -1.5863  2.2142 -0.0242
 7830SOL    HW225230   4.567   6.184   1.684 -0.5261  0.6764  0.7246
 7831SOL     OW25231   3.225   0.400   6.751 -0.2421 -0.0634 -0.0097
 7831SOL    HW125232   3.290   0.337   6.782 -0.0331  1.0322  1.9239
 7831SOL    HW225233   3.174   0.351   6.686  0.5781 -1.8963  0.6568
 7832SOL     OW25234   7.129   3.525   6.002  0.2459 -1.0308 -0.0935
 7832SOL    HW125235   7.141   3.609   6.046  1.4102 -2.0275  1.5883
 7832SOL    HW225236   7.034   3.520   5.986 -0.2257 -0.4668  2.1095
 7833SOL     OW25237   6.853   3.308   4.854  0.0381  0.5748  0.5204
 7833SOL    HW125238   6.921   3.290   4.790 -0.6240  1.2791 -0.4148
 7833SOL    HW225239   6.900   3.331   4.934  0.9167  1.5932 -0.2610
 7834SOL     OW25240   3.991   4.264   5.482  0.8261 -1.0621 -0.1242
 7834SOL    HW125241   3.949   4.336   5.435  1.4817 -1.1592 -0.8878
 7834SOL    HW225242   3.933   4.245   5.555 -0.9041 -1.7856 -1.6299
 7835SOL     OW25243   7.818   7.120   7.853 -0.1138  0.0136  0.6092
 7835SOL    HW125244   7.733   7.134   7.895 -0.9882 -0.5130 -0.9015
 7835SOL    HW225245   7.847   7.034   7.884 -1.0235 -0.6281 -0.2634
 7836SOL     OW25246   0.249   3.194   8.821 -0.1346 -0.5680 -0.1569
 7836SOL    HW125247   0.342   3.215   8.818  0.1439 -1.4387  1.5187
 7836SOL    HW225248   0.220   3.201   8.730  1.4784  0.0686 -0.6500
 7837SOL     OW25249   1.465   6.381   5.971 -0.2403 -0.5391  0.1089
 7837SOL    HW125250   1.392   6.442   5.961  0.9824  0.9781 -0.0413
 7837SOL    HW225251   1.513   6.388   5.889  0.0311 -1.5943  0.1650
 7838SOL     OW25252   4.064   2.157   9.296  0.2862  0.5112  0.8346
 7838SOL    HW125253   4.075   2.080   9.241 -1.9066  1.5774 -1.3211
 7838SOL    HW225254   4.111   2.227   9.250  0.0560  1.0147  1.3461
 7839SOL     OW25255   7.810   3.610   9.219 -0.2443 -0.7846  0.0282
 7839SOL    HW125256   7.813   3.656   9.135  1.6768 -0.7487  0.0600
 7839SOL    HW225257   7.725   3.565   9.219 -2.1093  2.4766 -0.0954
 7840SOL     OW25258   4.024   8.852   6.679 -0.1342  0.1640  0.7481
 7840SOL    HW125259   4.048   8.944   6.663  0.0806  0.2528  1.5233
 7840SOL    HW225260   4.107   8.807   6.690 -0.2320 -0.1858  0.0755
 7841SOL     OW25261   8.133   4.151   9.446 -0.6809 -0.0433  0.1269
 7841SOL    HW125262   8.174   4.193   9.370  0.4468 -0.5819  0.4220
 7841SOL    HW225263   8.201   4.150   9.513 -1.6792  0.5018  1.1987
 7842SOL     OW25264   6.377   6.756   8.887  0.3660 -0.0759 -0.0518
 7842SOL    HW125265   6.400   6.664   8.904  1.5836  0.0057 -1.0934
 7842SOL    HW225266   6.331   6.784   8.966 -0.6741 -1.7814  0.0103
 7843SOL     OW25267   1.884   6.353   7.681  0.1779 -0.2235 -0.0001
 7843SOL    HW125268   1.818   6.421   7.671 -1.1232 -1.5213 -0.6959
 7843SOL    HW225269   1.952   6.375   7.617  0.0088  0.6641  0.1206
 7844SOL     OW25270   1.953   8.857   4.727  0.2747  0.2448 -0.1089
 7844SOL    HW125271   1.941   8.772   4.684  0.7648 -0.3295  0.8570
 7844SOL    HW225272   1.904   8.919   4.673 -0.7325 -0.7828 -0.3905
 7845SOL     OW25273   8.435   6.886   2.650 -0.3739 -0.2351  0.6997
 7845SOL    HW125274   8.457   6.929   2.732  0.9409 -0.4736  0.5022
 7845SOL    HW225275   8.343   6.906   2.635  0.0520  2.0527  0.8825
 7846SOL     OW25276   6.356   6.734   0.587 -0.2869 -0.2216 -0.0087
 7846SOL    HW125277   6.357   6.661   0.650  3.2560 -2.4613 -2.2916
 7846SOL    HW225278   6.281   6.716   0.531 -0.0515 -1.5728  0.0677
 7847SOL     OW25279   1.696   7.499   9.466  0.4115 -0.7282 -0.2375
 7847SOL    HW125280   1.731   7.435   9.405  0.9851  0.3935 -1.1218
 7847SOL    HW225281   1.772   7.549   9.497 -0.0757 -0.1063 -0.0001
 7848SOL     OW25282   1.296   5.681   8.849  0.1775 -0.5266 -0.7775
 7848SOL    HW125283   1.211   5.671   8.891 -0.1066  1.5845 -0.7519
 7848SOL    HW225284   1.331   5.592   8.843 -2.5248 -1.6023 -1.9195
 7849SOL     OW25285   3.337   8.148   8.742 -0.5175 -0.4144  0.0505
 7849SOL    HW125286   3.381   8.075   8.786 -0.7085 -2.6498 -3.1008
 7849SOL    HW225287   3.244   8.136   8.762 -0.7063 -1.9614 -1.4779
 7850SOL     OW25288   5.250   5.583   1.421  0.3626 -0.2521 -0.1002
 7850SOL    HW125289   5.324   5.527   1.444  1.4415  0.6004 -1.3706
 7850SOL    HW225290   5.270   5.614   1.332  0.9550  3.8558  1.2298
 7851SOL     OW25291   6.620   3.763   4.823  0.8960  0.1246  0.5402
 7851SOL    HW125292   6.597   3.782   4.914 -0.3513  1.0829  0.0503
 7851SOL    HW225293   6.546   3.713   4.790  0.2859  1.6934 -0.5600
 7852SOL     OW25294   7.265   7.914   6.610 -0.2678  0.0224 -0.0364
 7852SOL    HW125295   7.311   7.873   6.683  1.2377 -0.3580 -1.1500
 7852SOL    HW225296   7.240   7.840   6.553  0.8918  0.4722 -1.1740
 7853SOL     OW25297   2.251   4.327   6.238  0.2695 -0.2052 -0.2155
 7853SOL    HW125298   2.231   4.359   6.150  1.4970 -1.2786 -0.9189
 7853SOL    HW225299   2.345   4.309   6.237  0.5208  0.7342  1.6620
 7854SOL     OW25300   8.490   5.473   2.077 -0.0671 -0.2907 -0.5473
 7854SOL    HW125301   8.406   5.427   2.071  0.4768 -1.1553 -2.0687
 7854SOL    HW225302   8.522   5.452   2.165 -1.7696  0.7053  0.3570
 7855SOL     OW25303   4.980   0.669   7.457 -0.0129 -0.2645 -0.2412
 7855SOL    HW125304   4.904   0.727   7.450 -1.6036 -2.2409 -0.1887
 7855SOL    HW225305   4.999   0.645   7.366 -1.5404 -2.2492 -0.1094
 7856SOL     OW25306   6.223   1.545   9.056 -0.0286  0.3367 -0.3124
 7856SOL    HW125307   6.143   1.508   9.094  0.8176 -1.1103  0.1564
 7856SOL    HW225308   6.196   1.577   8.970 -1.0210 -0.5579 -0.3585
 7857SOL     OW25309   1.676   0.952   2.916 -0.1460 -0.0246  0.0943
 7857SOL    HW125310   1.679   0.981   2.825 -1.6690  2.4253  0.7339
 7857SOL    HW225311   1.759   0.980   2.953 -0.7183  1.7605  0.1399
 7858SOL     OW25312   0.631   8.815   5.479  0.0804 -0.1258  0.5141
 7858SOL    HW125313   0.599   8.729   5.504  0.3908 -0.2483  0.4895
 7858SOL    HW225314   0.641   8.810   5.384  0.7861 -0.2986  0.5907
 7859SOL     OW25315   7.389   7.092   3.870  0.4419 -0.6064 -0.0473
 7859SOL    HW125316   7.302   7.075   3.906  0.8961 -1.2879  0.7784
 7859SOL    HW225317   7.372   7.127   3.782 -0.6580 -0.9278  0.0141
 7860SOL     OW25318   7.178   0.464   6.986 -0.5462 -0.3505 -0.1707
 7860SOL    HW125319   7.221   0.436   6.905  1.8570  0.0443  0.8860
 7860SOL    HW225320   7.084   0.462   6.965 -0.1549 -2.7028 -2.1593
 7861SOL     OW25321   4.866   8.132   6.148 -0.1100  0.0377  0.2104
 7861SOL    HW125322   4.918   8.094   6.078  1.9869 -0.5637  1.9830
 7861SOL    HW225323   4.831   8.057   6.196  0.3778  0.3712  1.1172
 7862SOL     OW25324   3.644   1.224   3.350  0.5128  0.8613  0.3847
 7862SOL    HW125325   3.576   1.290   3.362  0.6542  1.1030 -0.1220
 7862SOL    HW225326   3.596   1.142   3.336  0.3207  1.0674 -0.1847
 7863SOL     OW25327   6.333   2.671   0.864  0.3711  0.4351  0.2666
 7863SOL    HW125328   6.367   2.599   0.812  2.0096  0.3614  1.3679
 7863SOL    HW225329   6.315   2.633   0.950 -0.7261  0.9040  0.2682
 7864SOL     OW25330   0.321   0.184   8.078 -0.0781  0.7450 -0.0433
 7864SOL    HW125331   0.375   0.230   8.142 -0.2373 -0.2310  0.8231
 7864SOL    HW225332   0.231   0.209   8.100 -0.0268  2.5556 -1.6297
 7865SOL     OW25333   9.388   3.675   4.032  0.3497 -0.5421  0.4315
 7865SOL    HW125334   9.375   3.770   4.039 -1.6855 -0.7443  0.0317
 7865SOL    HW225335   9.415   3.662   3.941  2.6513 -0.2139  0.9964
 7866SOL     OW25336   5.198   1.638   4.003  0.2068 -0.4687  0.6422
 7866SOL    HW125337   5.250   1.642   3.923 -0.1206  0.7132  0.4750
 7866SOL    HW225338   5.169   1.728   4.018  0.7546 -0.5462  2.4219
 7867SOL     OW25339   0.435   9.100   7.592  0.4894  0.2128 -0.5419
 7867SOL    HW125340   0.352   9.076   7.549  1.4040 -4.8321 -0.0739
 7867SOL    HW225341   0.424   9.073   7.683  1.7471  2.2377  0.2815
 7868SOL     OW25342   1.495   6.444   5.375 -0.0475 -0.0651  0.0278
 7868SOL    HW125343   1.448   6.360   5.369  0.2430 -0.1582 -1.2206
 7868SOL    HW225344   1.442   6.505   5.323  0.3122  0.2554  0.0352
 7869SOL     OW25345   9.407   1.261   5.171 -0.0021  0.0913  0.2706
 7869SOL    HW125346   9.410   1.217   5.086  0.9925 -2.9920  1.7757
 7869SOL    HW225347   9.476   1.328   5.165  1.1482 -1.1339 -0.8501
 7870SOL     OW25348   4.113   4.764   6.339 -0.0222  0.8054 -0.0214
 7870SOL    HW125349   4.127   4.777   6.245 -1.1280  0.9283 -0.1720
 7870SOL    HW225350   4.177   4.823   6.380 -1.3675  2.8547 -0.7005
 7871SOL     OW25351   7.536   3.427   0.349  0.8617 -0.7688  0.0267
 7871SOL    HW125352   7.525   3.452   0.441 -0.4011 -1.1218 -0.0109
 7871SOL    HW225353   7.534   3.511   0.302 -1.6102 -0.7406  0.0648
 7872SOL     OW25354   1.437   1.383   5.579  0.5815 -0.2893 -0.1242
 7872SOL    HW125355   1.391   1.457   5.620  1.8294  0.2436  0.3746
 7872SOL    HW225356   1.372   1.345   5.519 -0.9446 -0.4028  1.5085
 7873SOL     OW25357   6.241   3.801   4.937  0.3123 -0.3075  0.3833
 7873SOL    HW125358   6.280   3.783   5.023 -0.4749  0.1883  0.8568
 7873SOL    HW225359   6.268   3.727   4.883  1.8031 -0.0437  0.7176
 7874SOL     OW25360   5.400   0.196   3.135  0.2296  0.7881  0.1104
 7874SOL    HW125361   5.382   0.115   3.088 -2.9799  1.3967  0.0434
 7874SOL    HW225362   5.445   0.252   3.072 -1.5203  0.5924 -1.3918
 7875SOL     OW25363   6.731   3.021   9.454 -0.6437  0.4263  0.2622
 7875SOL    HW125364   6.736   3.027   9.359  1.6826  3.0563  0.4350
 7875SOL    HW225365   6.666   2.953   9.470 -0.3998 -0.8189 -3.1810
 7876SOL     OW25366   6.580   4.104   1.977 -0.3106  0.1712 -0.5620
 7876SOL    HW125367   6.609   4.136   1.891  0.9069  0.5639 -0.0241
 7876SOL    HW225368   6.591   4.179   2.035  1.2524 -0.7600  0.4244
 7877SOL     OW25369   2.580   3.941   3.635 -0.3496 -0.5316 -0.1537
 7877SOL    HW125370   2.603   3.864   3.584  0.8415  0.9870 -2.0150
 7877SOL    HW225371   2.497   3.971   3.598 -0.8257 -0.8907  0.5853
 7878SOL     OW25372   3.359   2.088   9.419  0.4126 -0.4459  0.4423
 7878SOL    HW125373   3.298   2.047   9.358  1.2236 -1.2152  0.1214
 7878SOL    HW225374   3.341   2.047   9.503 -0.1011 -0.0327  0.5372
 7879SOL     OW25375   8.613   8.663   0.570  0.2730 -0.2340  0.3336
 7879SOL    HW125376   8.568   8.669   0.486 -1.0873  1.0817  1.1055
 7879SOL    HW225377   8.547   8.689   0.635  1.4926 -0.4926  1.7437
 7880SOL     OW25378   9.299   3.355   5.882 -0.2711  0.2580  0.3065
 7880SOL    HW125379   9.237   3.302   5.932  0.9280 -0.2628  1.2926
 7880SOL    HW225380   9.294   3.320   5.793 -2.1267  0.9182  0.1038
 7881SOL     OW25381   9.164   7.157   4.178  0.1052 -0.1780  0.0754
 7881SOL    HW125382   9.255   7.138   4.203  0.3752  1.6909  0.6552
 7881SOL    HW225383   9.131   7.214   4.247 -0.9771  0.5063 -0.9540
 7882SOL     OW25384   7.446   7.342   1.659 -0.1900  0.1772 -0.2588
 7882SOL    HW125385   7.523   7.369   1.709 -0.9291 -0.1799  1.1175
 7882SOL    HW225386   7.407   7.424   1.629  0.6718  0.3628 -0.9023
 7883SOL     OW25387   1.448   9.243   0.513 -0.3472  0.8088 -0.0590
 7883SOL    HW125388   1.493   9.325   0.490 -0.3582  0.4727 -1.3533
 7883SOL    HW225389   1.513   9.175   0.495 -1.1847  0.3528 -1.4911
 7884SOL     OW25390   4.899   4.113   5.500 -0.2223  1.1293 -0.0864
 7884SOL    HW125391   4.982   4.151   5.472  0.8386 -0.6118  0.5101
 7884SOL    HW225392   4.874   4.165   5.576 -0.5313  2.6774 -1.1994
 7885SOL     OW25393   8.018   2.431   6.126 -0.6404 -0.0297  0.2516
 7885SOL    HW125394   7.968   2.409   6.205 -1.3397  1.4440  0.2633
 7885SOL    HW225395   8.087   2.489   6.157  0.4920 -1.2286  0.0703
 7886SOL     OW25396   8.176   4.680   6.082 -0.1022 -0.2003  0.3268
 7886SOL    HW125397   8.097   4.652   6.128 -0.7361 -0.4449 -0.8792
 7886SOL    HW225398   8.243   4.619   6.111 -0.4283 -0.2246  1.0711
 7887SOL     OW25399   5.071   2.492   7.512 -0.3906 -0.0234  0.1614
 7887SOL    HW125400   4.983   2.522   7.493 -0.6496 -1.5511 -1.3607
 7887SOL    HW225401   5.061   2.398   7.527  0.9705 -0.2186 -0.0243
 7888SOL     OW25402   7.603   0.747   2.038 -0.4232 -0.4412 -0.1425
 7888SOL    HW125403   7.679   0.694   2.016  0.6016  1.7058 -2.1671
 7888SOL    HW225404   7.530   0.705   1.992 -0.0322 -1.2480 -0.0340
 7889SOL     OW25405   4.920   5.210   3.565  0.3341 -0.1507  0.1618
 7889SOL    HW125406   4.904   5.138   3.504 -0.4749  2.4324 -2.9282
 7889SOL    HW225407   4.955   5.280   3.510  1.5263  1.7268  3.0955
 7890SOL     OW25408   5.484   2.623   0.645 -0.3771 -0.1781  0.5252
 7890SOL    HW125409   5.579   2.629   0.643 -0.1539 -2.2939 -2.8250
 7890SOL    HW225410   5.455   2.661   0.562 -2.0929 -2.6510 -0.1388
 7891SOL     OW25411   3.520   2.314   3.476  0.5061 -0.1296  0.4240
 7891SOL    HW125412   3.601   2.350   3.441 -0.0171  0.5473 -0.1117
 7891SOL    HW225413   3.508   2.359   3.560  0.2035  0.4572  0.0686
 7892SOL     OW25414   6.798   4.874   7.887  0.4139  0.4185 -0.2005
 7892SOL    HW125415   6.810   4.961   7.850  2.1282  0.2880 -0.0499
 7892SOL    HW225416   6.771   4.889   7.977  0.6415  0.8006 -0.1956
 7893SOL     OW25417   7.933   3.792   4.533 -0.0787 -0.0762  0.0868
 7893SOL    HW125418   7.940   3.764   4.624  2.0637 -0.1072 -0.0404
 7893SOL    HW225419   7.865   3.735   4.496 -3.1096  1.8306  2.2833
 7894SOL     OW25420   0.735   6.136   8.075  0.2524  0.6658 -0.1909
 7894SOL    HW125421   0.655   6.091   8.047  0.0122  1.5651 -0.9961
 7894SOL    HW225422   0.705   6.201   8.138  0.3305  1.1059 -0.6074
 7895SOL     OW25423   6.781   6.596   7.802  0.9693 -0.1168 -0.1892
 7895SOL    HW125424   6.705   6.538   7.814 -0.2757  1.4559 -0.2068
 7895SOL    HW225425   6.850   6.555   7.854 -0.1107 -1.1999  0.4496
 7896SOL     OW25426   7.834   7.572   3.166  0.0239 -0.5136  0.1322
 7896SOL    HW125427   7.818   7.602   3.076  0.3897  1.6115  0.7253
 7896SOL    HW225428   7.929   7.569   3.174  0.0032 -0.0062  0.6394
 7897SOL     OW25429   0.239   2.016   4.674  0.2936  0.4750  0.1361
 7897SOL    HW125430   0.284   1.994   4.592  1.9076 -1.7058  1.4786
 7897SOL    HW225431   0.310   2.042   4.734 -0.6735  0.6911  1.2249
 7898SOL     OW25432   5.177   3.830   4.655 -0.1409 -0.4748  0.1438
 7898SOL    HW125433   5.145   3.915   4.624  0.1384 -0.8809 -1.3506
 7898SOL    HW225434   5.167   3.772   4.579  3.2546 -0.8480 -0.1510
 7899SOL     OW25435   9.307   4.144   2.873 -0.2774 -0.1370  0.2847
 7899SOL    HW125436   9.240   4.150   2.805 -2.3587 -0.1923  2.2014
 7899SOL    HW225437   9.332   4.052   2.873  0.3362  0.0165 -0.9091
 7900SOL     OW25438   9.432   1.810   0.311  0.4678 -0.1188 -0.5895
 7900SOL    HW125439   9.367   1.876   0.335  0.6610 -0.5304  1.1485
 7900SOL    HW225440   9.511   1.835   0.357  0.7570 -1.1575 -0.4808
 7901SOL     OW25441   9.097   8.119   8.926 -0.0208 -0.1804  0.4648
 7901SOL    HW125442   9.163   8.176   8.965  0.2460 -0.1728  0.0103
 7901SOL    HW225443   9.051   8.174   8.862 -0.8127 -0.0432  1.1307
 7902SOL     OW25444   5.869   5.839   1.495  0.1588 -0.1038  0.4223
 7902SOL    HW125445   5.785   5.822   1.538  0.7281  1.9507  2.5677
 7902SOL    HW225446   5.848   5.900   1.425 -0.2994 -0.6832  0.0425
 7903SOL     OW25447   3.215   6.557   0.072 -0.3814  0.4357 -0.5447
 7903SOL    HW125448   3.178   6.605   0.146  0.0147  0.4678 -0.3610
 7903SOL    HW225449   3.143   6.503   0.040 -0.6969  0.7994 -0.4528
 7904SOL     OW25450   7.814   2.188   8.954 -0.4713  0.0533  0.3190
 7904SOL    HW125451   7.780   2.274   8.930 -2.2697 -0.7856 -0.2359
 7904SOL    HW225452   7.869   2.162   8.880  2.2532  1.7462  1.5486
 7905SOL     OW25453   7.770   6.395   4.597 -0.3577  0.2008 -0.0502
 7905SOL    HW125454   7.815   6.477   4.620 -2.0692  1.0913  0.3242
 7905SOL    HW225455   7.712   6.420   4.525  1.0770 -1.3592 -1.8834
 7906SOL     OW25456   6.549   6.609   6.578  0.3192 -0.0473  0.1277
 7906SOL    HW125457   6.504   6.527   6.602 -1.9531  1.4473  1.3570
 7906SOL    HW225458   6.491   6.650   6.514 -0.1922  1.9498  1.7474
 7907SOL     OW25459   8.671   2.480   5.705 -0.6218  0.2165  0.0184
 7907SOL    HW125460   8.641   2.424   5.777 -0.8418  0.1683 -0.1086
 7907SOL    HW225461   8.733   2.540   5.745 -0.6528  0.1112  0.2255
 7908SOL     OW25462   8.704   2.061   9.604 -0.8688 -0.6381  0.8203
 7908SOL    HW125463   8.640   2.055   9.532 -0.1584 -0.4061  0.1609
 7908SOL    HW225464   8.723   2.154   9.611  0.3567 -0.8274  0.1518
 7909SOL     OW25465   5.933   4.013   0.132  0.0307 -0.0970 -0.0002
 7909SOL    HW125466   6.016   4.058   0.148 -0.1044  0.0321  0.3571
 7909SOL    HW225467   5.946   3.966   0.050  0.5651 -0.3288  0.2120
 7910SOL     OW25468   3.759   0.489   1.645 -0.2052 -0.1380  0.1586
 7910SOL    HW125469   3.718   0.437   1.715  0.5156 -1.1254 -0.1237
 7910SOL    HW225470   3.843   0.516   1.682  1.3414 -2.8025 -1.1219
 7911SOL     OW25471   1.546   8.831   5.987 -0.0753 -0.1923  0.2025
 7911SOL    HW125472   1.561   8.776   6.065  0.5041 -0.2537  0.0509
 7911SOL    HW225473   1.542   8.768   5.915  0.9413 -0.0154 -0.0187
 7912SOL     OW25474   0.798   2.212   4.392  0.6645 -0.1642 -0.2629
 7912SOL    HW125475   0.739   2.159   4.337  1.7956 -1.1823 -0.5410
 7912SOL    HW225476   0.882   2.208   4.347  0.9054  1.4807 -0.0048
 7913SOL     OW25477   7.846   4.492   3.188 -0.3498 -0.2893  0.5291
 7913SOL    HW125478   7.895   4.567   3.155  0.2193 -0.4648  0.9636
 7913SOL    HW225479   7.782   4.530   3.248 -0.5336 -0.0920  0.2140
 7914SOL     OW25480   9.144   1.987   2.560  0.1880  0.3850 -0.1022
 7914SOL    HW125481   9.120   2.063   2.614  2.2372  1.0447 -0.0333
 7914SOL    HW225482   9.135   1.912   2.619 -4.1006  0.1025 -0.7650
 7915SOL     OW25483   3.944   3.671   3.397  0.7728 -0.0273 -0.9346
 7915SOL    HW125484   3.929   3.727   3.321 -1.5349  2.6888  1.2774
 7915SOL    HW225485   4.018   3.711   3.443 -0.3852  0.8794  0.2410
 7916SOL     OW25486   5.874   2.421   4.298  0.0662  0.3012 -0.1079
 7916SOL    HW125487   5.826   2.502   4.312  1.9626  1.5494 -0.5071
 7916SOL    HW225488   5.960   2.449   4.268  1.0543 -1.8343  0.5420
 7917SOL     OW25489   5.352   8.039   7.130 -0.4703 -0.0814 -0.0706
 7917SOL    HW125490   5.399   8.122   7.142  0.6118 -0.8107  1.0189
 7917SOL    HW225491   5.269   8.051   7.176  0.2041 -0.0002  1.1824
 7918SOL     OW25492   7.365   0.255   5.133 -0.4402  0.1852 -0.2352
 7918SOL    HW125493   7.453   0.232   5.105 -0.3002 -1.3352  1.2897
 7918SOL    HW225494   7.372   0.347   5.160 -0.3533  1.3874 -3.8769
 7919SOL     OW25495   9.470   3.768   6.817 -0.1080  0.7951 -0.0977
 7919SOL    HW125496   9.511   3.694   6.863 -1.0007 -0.3229 -1.0612
 7919SOL    HW225497   9.378   3.763   6.841  0.0102  2.3988  0.8461
 7920SOL     OW25498   3.814   3.269   4.695  0.6592 -0.3696  0.7174
 7920SOL    HW125499   3.829   3.355   4.735 -0.4616 -0.7355  1.9959
 7920SOL    HW225500   3.813   3.287   4.601 -3.7340  1.8869  0.9286
 7921SOL     OW25501   1.098   9.480   4.745  0.1044  0.2643  0.4632
 7921SOL    HW125502   1.098   9.441   4.657  1.4368  1.3514 -0.0476
 7921SOL    HW225503   1.005   9.484   4.768 -0.1710 -1.7250 -0.1038
 7922SOL     OW25504   5.304   0.100   8.415 -0.6835  0.1634 -0.4938
 7922SOL    HW125505   5.322   0.010   8.387  1.7596  0.4686 -0.0852
 7922SOL    HW225506   5.322   0.153   8.337 -0.2731  0.4552 -0.2025
 7923SOL     OW25507   7.130   7.717   8.920 -0.3076 -0.3306  0.7524
 7923SOL    HW125508   7.175   7.765   8.850  1.5380 -1.4040  1.1466
 7923SOL    HW225509   7.083   7.785   8.969  1.5521  0.9869  0.8209
 7924SOL     OW25510   3.268   3.579   0.109 -0.1378 -0.2419  0.3841
 7924SOL    HW125511   3.318   3.497   0.110  1.2637  0.5620  0.2620
 7924SOL    HW225512   3.296   3.625   0.189 -0.0202  0.5922 -0.1216
 7925SOL     OW25513   4.071   4.923   8.793  0.1165 -0.6092 -0.1597
 7925SOL    HW125514   4.102   4.988   8.730  1.4588 -2.8709 -2.0016
 7925SOL    HW225515   4.108   4.840   8.762  1.2091 -1.8440  3.8462
 7926SOL     OW25516   0.500   1.549   5.999 -0.5932 -0.3682 -0.4064
 7926SOL    HW125517   0.568   1.534   6.065 -0.8658 -0.9687 -0.2531
 7926SOL    HW225518   0.447   1.469   6.001 -0.7191 -0.3125 -1.2179
 7927SOL     OW25519   1.697   7.743   6.707  0.3767  0.0445 -0.2336
 7927SOL    HW125520   1.611   7.782   6.690  1.0779  1.0074 -1.7588
 7927SOL    HW225521   1.687   7.651   6.682 -0.3599  0.0013  0.1872
 7928SOL     OW25522   6.821   8.124   5.096  0.2400  0.0281  0.7372
 7928SOL    HW125523   6.757   8.057   5.121 -0.1488 -0.1551 -0.6505
 7928SOL    HW225524   6.852   8.097   5.010  0.8605  1.0758  0.6107
 7929SOL     OW25525   0.076   8.251   1.647 -0.4108 -0.4009 -0.0175
 7929SOL    HW125526   0.085   8.203   1.565  0.0868  3.2362 -2.3089
 7929SOL    HW225527  -0.008   8.296   1.639  0.1599  0.8805  0.9439
 7930SOL     OW25528   8.904   2.628   3.653  0.4292 -0.4514  0.6096
 7930SOL    HW125529   8.885   2.719   3.630  0.8065 -0.6776 -0.7108
 7930SOL    HW225530   8.834   2.578   3.611  0.8997 -0.8556  0.2972
 7931SOL     OW25531   5.367   1.051   5.623  0.2298 -1.0429  0.6188
 7931SOL    HW125532   5.344   1.015   5.538  1.3743  0.8757 -0.5732
 7931SOL    HW225533   5.284   1.054   5.671 -0.6626 -1.0614 -0.8716
 7932SOL     OW25534   7.338   0.923   1.067 -0.0126 -0.2503 -0.3288
 7932SOL    HW125535   7.347   0.982   0.992  0.8209 -2.3827 -1.9964
 7932SOL    HW225536   7.295   0.845   1.032 -3.0982  0.0525  2.2605
 7933SOL     OW25537   8.837   1.420   4.078 -0.3034 -0.2656  0.5303
 7933SOL    HW125538   8.897   1.418   4.152  1.9063 -3.3718 -1.1313
 7933SOL    HW225539   8.776   1.348   4.094 -0.5286 -0.2356 -0.1486
 7934SOL     OW25540   3.174   8.058   7.196 -0.7877  0.1209 -0.4658
 7934SOL    HW125541   3.263   8.024   7.190 -0.1440  0.6438  3.5068
 7934SOL    HW225542   3.179   8.143   7.151  0.3266 -0.4193 -1.4339
 7935SOL     OW25543   3.672   8.396   3.547 -0.3209 -0.0603 -0.2360
 7935SOL    HW125544   3.696   8.370   3.458  0.1084  0.1862 -0.1942
 7935SOL    HW225545   3.655   8.314   3.592  0.2862 -0.2317 -0.3139
 7936SOL     OW25546   5.229   8.157   4.424  0.2746  0.6828 -0.7476
 7936SOL    HW125547   5.302   8.124   4.477  0.7129  4.0869  1.0188
 7936SOL    HW225548   5.271   8.189   4.344  0.4978  1.1187 -0.4611
 7937SOL     OW25549   7.600   2.194   7.675 -0.8709  0.1343 -0.2199
 7937SOL    HW125550   7.675   2.252   7.688 -0.2466  0.1547 -3.2254
 7937SOL    HW225551   7.634   2.123   7.622 -3.1029  0.5413 -2.3535
 7938SOL     OW25552   2.503   7.618   0.096 -0.1204 -0.0630 -0.0556
 7938SOL    HW125553   2.519   7.602   0.189 -0.2684  3.9776  0.8412
 7938SOL    HW225554   2.591   7.633   0.060 -0.1846 -0.0821 -0.2188
 7939SOL     OW25555   6.065   3.411   9.610 -0.0557 -0.1399 -0.1523
 7939SOL    HW125556   6.047   3.490   9.662  0.3765 -1.6431  2.4625
 7939SOL    HW225557   5.979   3.378   9.586 -0.2425  1.2658 -1.6397
 7940SOL     OW25558   9.101   4.799   3.530  0.3670 -0.1764  0.2372
 7940SOL    HW125559   9.096   4.894   3.537 -0.9765 -0.2698  0.8654
 7940SOL    HW225560   9.051   4.766   3.605 -1.1372 -1.3625 -1.2139
 7941SOL     OW25561   3.631   7.933   7.656  0.7850  0.0508 -0.0786
 7941SOL    HW125562   3.571   7.969   7.722  1.7871  0.0536  0.8428
 7941SOL    HW225563   3.618   7.989   7.580 -0.7707 -0.2683 -0.0979
 7942SOL     OW25564   9.042   2.911   7.456  0.2261  0.1895  0.0217
 7942SOL    HW125565   9.132   2.885   7.437  0.8777  2.2240  0.0493
 7942SOL    HW225566   9.022   2.977   7.389 -0.8951  0.4522  0.5935
 7943SOL     OW25567   1.685   2.515   7.259 -0.3193 -0.1173 -0.1193
 7943SOL    HW125568   1.678   2.442   7.321  0.1764  0.0087  0.0833
 7943SOL    HW225569   1.623   2.492   7.189 -0.8798 -0.2603  0.4113
 7944SOL     OW25570   8.767   6.870   1.159 -0.1369 -0.1083  0.4104
 7944SOL    HW125571   8.811   6.935   1.214 -0.7717  0.3047  0.4334
 7944SOL    HW225572   8.815   6.789   1.176  0.3949  0.2564  0.7023
 7945SOL     OW25573   8.502   5.132   2.533 -0.2028  0.3847 -0.2984
 7945SOL    HW125574   8.479   5.104   2.622 -0.9417  0.8738 -0.3215
 7945SOL    HW225575   8.588   5.094   2.517 -1.9880 -3.7888 -1.1954
 7946SOL     OW25576   8.489   6.721   6.929  0.7879 -0.1145  0.0731
 7946SOL    HW125577   8.454   6.640   6.965  0.2239  0.0118 -0.1795
 7946SOL    HW225578   8.560   6.745   6.989  0.8785 -0.7208  0.2202
 7947SOL     OW25579   8.497   8.634   1.399  0.2730 -0.0124 -0.3701
 7947SOL    HW125580   8.522   8.687   1.475 -0.9488  0.4988 -0.3138
 7947SOL    HW225581   8.440   8.566   1.434 -3.4910  2.4131 -1.1890
 7948SOL     OW25582   1.915   7.506   7.353 -0.1441 -0.1814 -0.2798
 7948SOL    HW125583   1.820   7.507   7.346 -0.0889 -0.8589 -1.3054
 7948SOL    HW225584   1.934   7.557   7.432 -1.3801 -0.5240  0.2583
 7949SOL     OW25585   6.566   5.925   6.026  0.3828 -0.3737 -0.4024
 7949SOL    HW125586   6.537   5.838   6.054 -1.3309  0.1562 -0.3824
 7949SOL    HW225587   6.538   5.983   6.097 -2.0234  0.6821 -2.0622
 7950SOL     OW25588   9.242   4.681   2.657  0.6172 -0.1968 -0.4472
 7950SOL    HW125589   9.298   4.737   2.711 -0.9685 -0.9821  2.2061
 7950SOL    HW225590   9.302   4.614   2.622  1.9619  1.2468 -1.0572
 7951SOL     OW25591   8.632   0.107   1.594 -0.3345  0.0589  0.5921
 7951SOL    HW125592   8.593   0.155   1.667 -1.8266 -2.3855  1.5022
 7951SOL    HW225593   8.726   0.105   1.613 -0.4965  0.8998  1.5269
 7952SOL     OW25594   5.495   5.867   6.593  0.2779 -0.0355  0.5234
 7952SOL    HW125595   5.550   5.929   6.545  0.0947  0.9657  1.5780
 7952SOL    HW225596   5.553   5.827   6.657  0.9535 -2.6374 -1.5463
 7953SOL     OW25597   1.353   9.094   8.759 -0.3528  0.1873  0.3432
 7953SOL    HW125598   1.352   9.152   8.683 -0.4504 -1.1591 -0.7385
 7953SOL    HW225599   1.298   9.020   8.732 -1.3400  0.2015  2.1810
 7954SOL     OW25600   0.635   7.882   7.915  0.5293 -0.4067 -0.1412
 7954SOL    HW125601   0.727   7.887   7.942  0.4719 -1.9707  0.4294
 7954SOL    HW225602   0.588   7.862   7.996  0.0850 -2.8960 -0.9389
 7955SOL     OW25603   7.269   7.187   1.822  0.2914 -0.1508 -0.0742
 7955SOL    HW125604   7.206   7.259   1.833  1.1536  0.5774  0.2286
 7955SOL    HW225605   7.334   7.221   1.760  0.7485 -0.6378  0.1286
 7956SOL     OW25606   4.314   3.175   1.566  0.4618  0.3379 -0.2296
 7956SOL    HW125607   4.239   3.194   1.622  2.3295  0.3148  2.4901
 7956SOL    HW225608   4.276   3.133   1.489 -2.1794 -1.5952  1.9224
 7957SOL     OW25609   4.015   0.957   2.728  0.3036  0.1900 -0.5002
 7957SOL    HW125610   4.036   0.972   2.820 -0.5763  0.2209 -0.3031
 7957SOL    HW225611   4.078   0.891   2.700  1.3726  1.0527 -0.2065
 7958SOL     OW25612   8.015   6.702   5.541  0.4639 -0.0399  0.3512
 7958SOL    HW125613   8.065   6.677   5.619 -0.0463  0.5572  0.8899
 7958SOL    HW225614   7.924   6.704   5.571  0.1738 -0.5508 -0.4665
 7959SOL     OW25615   2.366   5.105   0.441  0.3988 -0.8970 -0.4174
 7959SOL    HW125616   2.386   5.166   0.512  0.9970 -0.3204 -1.0599
 7959SOL    HW225617   2.409   5.024   0.467  0.7329 -0.6477 -0.1708
 7960SOL     OW25618   5.902   0.267   7.413 -0.5951  0.3576 -0.5575
 7960SOL    HW125619   5.826   0.217   7.444 -0.3676 -0.6215 -1.5135
 7960SOL    HW225620   5.877   0.296   7.325  0.4111 -0.6183 -1.1836
 7961SOL     OW25621   8.496   4.045   7.950 -0.1078 -0.1099  0.6627
 7961SOL    HW125622   8.504   3.968   8.007 -2.1924 -0.7639  0.1551
 7961SOL    HW225623   8.472   4.116   8.009 -0.2490 -0.3215  0.8604
 7962SOL     OW25624   1.035   8.643   1.974  0.1247  0.4436  0.3705
 7962SOL    HW125625   1.019   8.552   1.948 -2.0399  0.2453  2.1239
 7962SOL    HW225626   0.988   8.695   1.909  0.0878  0.2397  0.2325
 7963SOL     OW25627   7.546   8.710   0.552 -0.0461 -0.1539  0.1237
 7963SOL    HW125628   7.526   8.638   0.613 -0.7092 -1.3710 -1.4440
 7963SOL    HW225629   7.641   8.720   0.558  0.0355 -1.0268  0.5284
 7964SOL     OW25630   1.224   6.273   2.473 -0.2670  0.1153 -0.0973
 7964SOL    HW125631   1.158   6.290   2.540 -0.6850 -1.8900  0.0639
 7964SOL    HW225632   1.233   6.177   2.472  0.7036  0.1835 -1.9742
 7965SOL     OW25633   8.729   4.350   5.847  0.3029  0.3990 -0.5263
 7965SOL    HW125634   8.695   4.316   5.929  1.9467 -0.4817 -0.1559
 7965SOL    HW225635   8.668   4.419   5.822  0.2479  1.3106  1.8926
 7966SOL     OW25636   6.107   0.251   3.681  0.1971  0.0830  0.4700
 7966SOL    HW125637   6.145   0.279   3.764  1.1778 -1.2650  0.5163
 7966SOL    HW225638   6.038   0.314   3.663 -0.3077  0.1801  2.5221
 7967SOL     OW25639   6.295   0.393   6.717  0.1709 -0.1775  0.4777
 7967SOL    HW125640   6.222   0.444   6.751  2.1049  2.5903  0.8327
 7967SOL    HW225641   6.284   0.395   6.622  0.8072  2.0630  0.3924
 7968SOL     OW25642   1.985   7.728   1.286 -0.1743  0.4723  0.4327
 7968SOL    HW125643   1.958   7.689   1.369 -0.7887 -0.9250 -0.3911
 7968SOL    HW225644   1.918   7.794   1.268  0.3046  1.2338  1.3261
 7969SOL     OW25645   0.183   0.477   8.997 -0.0866 -0.3275 -0.2299
 7969SOL    HW125646   0.196   0.442   8.909 -0.0793 -0.2337 -0.2659
 7969SOL    HW225647   0.251   0.435   9.050 -0.7420 -1.1839 -0.0419
 7970SOL     OW25648   9.505   0.273   3.767  0.1214  0.0758  0.1293
 7970SOL    HW125649   9.414   0.258   3.743 -0.2868  2.8945 -0.4648
 7970SOL    HW225650   9.503   0.294   3.860  0.1730 -0.0107  0.1496
 7971SOL     OW25651   8.565   5.811   3.743 -0.6151 -0.0855  0.2481
 7971SOL    HW125652   8.596   5.889   3.789 -2.8267  1.1534 -0.2174
 7971SOL    HW225653   8.630   5.744   3.763  1.6034  1.9556  0.3446
 7972SOL     OW25654   4.441   6.500   8.613  0.2191 -0.0172 -0.2683
 7972SOL    HW125655   4.373   6.435   8.594 -0.7822  0.8515  0.2361
 7972SOL    HW225656   4.422   6.529   8.702  0.6174  0.9978 -0.5005
 7973SOL     OW25657   4.046   3.105   2.552  0.0635  0.2774  0.7652
 7973SOL    HW125658   4.063   3.195   2.582 -0.7448  1.0950 -1.0450
 7973SOL    HW225659   3.953   3.105   2.530  0.2872 -0.6879 -0.2777
 7974SOL     OW25660   4.482   8.158   8.783 -0.0355  0.1598  0.0716
 7974SOL    HW125661   4.499   8.088   8.846  1.8017  0.2312 -0.2998
 7974SOL    HW225662   4.547   8.145   8.714  0.5272  2.3652  0.0992
 7975SOL     OW25663   3.017   3.782   6.364  0.1939 -0.3332 -0.4209
 7975SOL    HW125664   3.099   3.772   6.315  0.9074 -0.6485  0.8088
 7975SOL    HW225665   2.968   3.849   6.315  0.5002 -1.2551 -2.0462
 7976SOL     OW25666   6.264   2.197   5.810  0.0743 -0.1705 -0.4912
 7976SOL    HW125667   6.233   2.266   5.752 -1.3417  0.1078  0.5433
 7976SOL    HW225668   6.277   2.241   5.894  1.4921 -0.6917 -0.4045
 7977SOL     OW25669   3.386   7.699   2.709  0.2213  0.9777 -0.7543
 7977SOL    HW125670   3.360   7.754   2.783 -1.0783 -1.7318  0.9517
 7977SOL    HW225671   3.309   7.698   2.651 -0.2527 -0.0025 -0.1340
 7978SOL     OW25672   5.859   7.120   7.141  0.2676  0.5092  0.1665
 7978SOL    HW125673   5.770   7.107   7.172 -0.0305  1.1429 -0.4091
 7978SOL    HW225674   5.891   7.031   7.122 -0.9713  0.3762 -1.6013
 7979SOL     OW25675   6.668   8.237   2.903 -0.0231  0.0245 -0.3050
 7979SOL    HW125676   6.573   8.226   2.902 -0.0088 -0.0930 -0.5802
 7979SOL    HW225677   6.698   8.182   2.975 -0.1713  0.1433 -0.1510
 7980SOL     OW25678   4.528   1.718   6.607  0.2688 -0.2886  0.0324
 7980SOL    HW125679   4.476   1.647   6.570  0.3854 -1.7709  2.4951
 7980SOL    HW225680   4.469   1.761   6.669  1.3144 -0.7634  1.4152
 7981SOL     OW25681   8.030   6.364   2.620  0.4822 -0.6499 -0.1927
 7981SOL    HW125682   7.975   6.441   2.632  0.1654 -0.8858 -0.1237
 7981SOL    HW225683   8.107   6.381   2.674  0.5472 -0.2530 -0.4082
 7982SOL     OW25684   6.980   3.111   7.448  0.2180 -0.1704  0.2313
 7982SOL    HW125685   7.019   3.152   7.525 -0.6249 -0.5972  0.8896
 7982SOL    HW225686   7.053   3.104   7.386  0.7282  0.9026  0.6757
 7983SOL     OW25687   8.279   6.453   1.258  0.2514  0.1743  0.8238
 7983SOL    HW125688   8.322   6.526   1.213  2.2933 -0.9614  0.7932
 7983SOL    HW225689   8.253   6.394   1.187  0.5070 -0.0836  0.9401
 7984SOL     OW25690   0.641   3.761   2.084 -0.1655  0.4816 -0.9310
 7984SOL    HW125691   0.683   3.718   2.009 -1.5391 -0.1138 -1.4075
 7984SOL    HW225692   0.604   3.841   2.047  0.6303  1.0499 -0.4987
 7985SOL     OW25693   6.026   2.506   2.466 -0.5993 -0.1858  0.3133
 7985SOL    HW125694   6.010   2.562   2.390 -0.9604 -0.1445  0.4199
 7985SOL    HW225695   6.092   2.444   2.435 -0.8591 -0.2700 -0.0854
 7986SOL     OW25696   3.586   4.797   4.141 -0.0567 -0.3918  0.2131
 7986SOL    HW125697   3.501   4.773   4.106 -0.8581  1.0662  1.0730
 7986SOL    HW225698   3.641   4.720   4.127 -1.3286 -1.1170 -0.9306
 7987SOL     OW25699   1.704   8.166   9.286  0.2048  0.1380  0.4187
 7987SOL    HW125700   1.732   8.175   9.377  0.8435  1.0658  0.1530
 7987SOL    HW225701   1.781   8.192   9.235 -0.5859  1.0751 -0.3561
 7988SOL     OW25702   1.152   4.316   4.691  0.6757 -0.2404 -0.2057
 7988SOL    HW125703   1.197   4.391   4.652 -0.5835  0.8307  0.3250
 7988SOL    HW225704   1.059   4.341   4.693  0.4014 -1.2107  1.3131
 7989SOL     OW25705   5.526   0.305   1.397 -0.6233 -0.6806 -0.2608
 7989SOL    HW125706   5.597   0.365   1.374 -1.7343  0.8713  0.1877
 7989SOL    HW225707   5.508   0.258   1.315 -1.3778  1.4013 -1.3668
 7990SOL     OW25708   2.119   0.582   8.424  0.1457  0.5995  0.2265
 7990SOL    HW125709   2.125   0.670   8.386  2.1428  0.5318  0.2870
 7990SOL    HW225710   2.168   0.526   8.364  0.0320 -0.2327  0.8791
 7991SOL     OW25711   5.165   2.594   7.931  0.5579 -0.5800  0.3229
 7991SOL    HW125712   5.256   2.613   7.906  0.4637 -0.4570  0.0694
 7991SOL    HW225713   5.138   2.524   7.872  0.4549 -0.5483  0.3325
 7992SOL     OW25714   3.183   0.371   7.809 -0.1740  0.2957  0.5922
 7992SOL    HW125715   3.175   0.454   7.856  1.0714  0.2516  0.9222
 7992SOL    HW225716   3.262   0.380   7.757 -0.3677 -0.4553  0.1517
 7993SOL     OW25717   5.100   6.357   6.958  0.3573 -0.2255 -0.4057
 7993SOL    HW125718   5.009   6.372   6.933  0.2258  0.0089  0.1948
 7993SOL    HW225719   5.141   6.443   6.950  0.5065 -0.3117 -0.5806
 7994SOL     OW25720   6.518   3.829   6.741  0.0055  0.0502 -0.1586
 7994SOL    HW125721   6.601   3.818   6.695  0.1144  0.5649 -0.0853
 7994SOL    HW225722   6.526   3.913   6.785 -0.3905 -0.0959  0.1963
 7995SOL     OW25723   4.615   6.444   2.175  0.7591  0.0078 -0.2479
 7995SOL    HW125724   4.613   6.381   2.247 -0.2715 -0.7216 -0.8869
 7995SOL    HW225725   4.681   6.508   2.201  0.1819 -0.0582  1.4945
 7996SOL     OW25726   0.252   6.365   1.531  0.5030 -0.4500 -0.0683
 7996SOL    HW125727   0.215   6.414   1.458  0.9604 -1.2068 -0.8242
 7996SOL    HW225728   0.191   6.380   1.603 -0.7923 -0.9234 -1.0167
 7997SOL     OW25729   7.076   8.813   5.491 -0.0676  0.0179  0.2002
 7997SOL    HW125730   7.038   8.901   5.488 -0.0080  0.1651  2.3013
 7997SOL    HW225731   7.144   8.814   5.424 -0.9225  1.1447 -0.6839
 7998SOL     OW25732   4.286   0.875   0.738 -0.0772 -0.0558  0.9920
 7998SOL    HW125733   4.250   0.788   0.755  0.4499 -0.0512  2.2387
 7998SOL    HW225734   4.229   0.934   0.786  0.2287  0.1664  1.0865
 7999SOL     OW25735   5.943   5.555   8.048  0.5204  0.3191 -0.7277
 7999SOL    HW125736   6.002   5.483   8.071 -2.9463 -2.6892 -0.1992
 7999SOL    HW225737   5.946   5.614   8.124  0.3230 -1.5947  0.8453
 8000SOL     OW25738   6.824   9.052   4.421 -0.1731  0.1839  0.4009
 8000SOL    HW125739   6.763   9.091   4.483 -0.6712  0.0604 -0.0074
 8000SOL    HW225740   6.815   9.104   4.341  1.1642  0.9510  0.7174
 8001SOL     OW25741   8.815   3.543   3.257 -0.2305  1.4207  0.0833
 8001SOL    HW125742   8.856   3.471   3.210  0.0786  1.8413 -0.2942
 8001SOL    HW225743   8.757   3.500   3.321 -1.6396  0.8205 -1.5210
 8002SOL     OW25744   5.888   4.992   3.752 -0.5653 -0.0611  0.7258
 8002SOL    HW125745   5.803   5.037   3.747 -0.3063  0.3939  0.3308
 8002SOL    HW225746   5.868   4.901   3.728 -0.9734 -0.0007  0.8256
 8003SOL     OW25747   9.422   8.636   1.924  0.4136  0.6860 -0.6634
 8003SOL    HW125748   9.478   8.640   1.847  2.0043 -2.9189  0.1144
 8003SOL    HW225749   9.374   8.554   1.914  0.0349  0.5487  1.7552
 8004SOL     OW25750   2.665   4.810   7.435  0.0143  0.6429  0.3339
 8004SOL    HW125751   2.576   4.774   7.440  0.6094 -0.8898  0.2445
 8004SOL    HW225752   2.660   4.890   7.487 -1.3752  0.4825  0.4988
 8005SOL     OW25753   6.089   0.465   5.550  0.2436 -0.2663  0.6587
 8005SOL    HW125754   6.078   0.477   5.456  0.0638  0.4751  0.7685
 8005SOL    HW225755   6.020   0.519   5.589 -0.6626 -1.7356  1.1931
 8006SOL     OW25756   9.194   0.414   1.419  0.7753 -0.1379 -0.3971
 8006SOL    HW125757   9.118   0.472   1.416  1.2262  0.4080 -1.5631
 8006SOL    HW225758   9.223   0.419   1.510  0.5176  1.0930 -0.3636
 8007SOL     OW25759   6.683   8.605   3.290 -0.2659 -0.7167 -0.1884
 8007SOL    HW125760   6.663   8.663   3.217 -0.6113 -0.1547  0.3321
 8007SOL    HW225761   6.599   8.565   3.314 -0.5041  0.3916  0.9532
 8008SOL     OW25762   3.881   8.640   5.073  0.3703 -0.1647 -0.4691
 8008SOL    HW125763   3.879   8.545   5.077  0.7996 -0.2483 -1.7250
 8008SOL    HW225764   3.816   8.663   5.008  0.7867  0.3519 -0.7143
 8009SOL     OW25765   3.957   2.671   1.437 -0.4499  0.1811  0.2798
 8009SOL    HW125766   4.006   2.595   1.470  1.9450  1.3169 -0.4102
 8009SOL    HW225767   3.961   2.661   1.342 -0.2600  1.0641  0.1889
 8010SOL     OW25768   2.337   0.259   5.383 -0.2577 -0.2294  0.1651
 8010SOL    HW125769   2.321   0.328   5.319 -1.4892 -0.9329 -0.3098
 8010SOL    HW225770   2.395   0.198   5.338 -0.2614 -0.1905  0.1072
 8011SOL     OW25771   7.067   5.141   5.752 -0.1033 -0.3318  0.1956
 8011SOL    HW125772   7.010   5.076   5.713 -0.9028  0.2919  0.3032
 8011SOL    HW225773   7.077   5.113   5.843  0.2785 -0.7801  0.0224
 8012SOL     OW25774   4.720   7.023   6.824  0.2910 -0.7015 -0.2262
 8012SOL    HW125775   4.796   6.966   6.819  0.4342 -0.5609  0.2843
 8012SOL    HW225776   4.688   7.013   6.914 -0.1797 -0.6148 -0.3800
 8013SOL     OW25777   2.178   7.174   1.606  0.0356  0.0539  0.1503
 8013SOL    HW125778   2.149   7.097   1.558  0.0350 -0.4749  0.9706
 8013SOL    HW225779   2.111   7.187   1.674  2.4496 -2.3138  3.2949
 8014SOL     OW25780   0.056   6.402   1.708 -0.1125  0.3168 -0.0994
 8014SOL    HW125781  -0.027   6.437   1.741 -0.6203 -1.4352  0.6061
 8014SOL    HW225782   0.104   6.379   1.787  0.0970 -0.7544 -0.5245
 8015SOL     OW25783   1.814   9.266   6.734  0.5265 -0.6255  0.2463
 8015SOL    HW125784   1.771   9.345   6.702  0.9802 -0.0661  0.9882
 8015SOL    HW225785   1.749   9.225   6.791 -0.8298 -2.3713 -2.3451
 8016SOL     OW25786   5.996   9.336   3.059  0.1886 -0.5246  0.3950
 8016SOL    HW125787   5.982   9.377   2.974  1.5380  0.2069  0.4955
 8016SOL    HW225788   5.917   9.284   3.074  0.2325 -1.2473 -1.6143
 8017SOL     OW25789   3.266   5.069   0.957 -0.3008  0.1676  0.0976
 8017SOL    HW125790   3.329   5.115   1.012  2.1878 -3.6720  0.8261
 8017SOL    HW225791   3.318   5.034   0.885 -2.2534 -0.4675 -1.0795
 8018SOL     OW25792   3.019   1.555   2.531 -0.4883  0.5989 -0.5408
 8018SOL    HW125793   2.961   1.612   2.583 -0.6214  0.6066 -0.6960
 8018SOL    HW225794   3.021   1.473   2.580 -0.9930  0.4465 -0.7638
 8019SOL     OW25795   3.265   5.310   8.880 -0.1878  0.1560  0.6899
 8019SOL    HW125796   3.263   5.405   8.869  0.4486  0.3940  2.3557
 8019SOL    HW225797   3.354   5.292   8.912 -0.5982 -0.8766  1.2735
 8020SOL     OW25798   6.900   2.143   4.778  0.4761 -0.0265 -0.5347
 8020SOL    HW125799   6.917   2.056   4.814 -0.3313 -0.0228 -0.1346
 8020SOL    HW225800   6.907   2.132   4.683 -2.1608 -1.1320 -0.6829
 8021SOL     OW25801   6.542   3.502   9.439 -0.0742  0.1164 -0.8235
 8021SOL    HW125802   6.488   3.429   9.469 -0.4136 -0.1008 -1.8872
 8021SOL    HW225803   6.595   3.526   9.514  0.6835 -1.8019 -0.6929
 8022SOL     OW25804   2.078   5.461   6.368 -0.2259  0.4533  0.5781
 8022SOL    HW125805   2.029   5.411   6.302  1.2533 -0.5388  0.1658
 8022SOL    HW225806   2.138   5.397   6.407 -0.5257  1.2013  2.3667
 8023SOL     OW25807   3.665   6.699   8.609  0.4978 -0.1330  0.6367
 8023SOL    HW125808   3.721   6.665   8.679  0.0830 -0.0619  1.0088
 8023SOL    HW225809   3.611   6.625   8.583 -0.1313  0.1208  1.1757
 8024SOL     OW25810   7.543   1.823   2.486  0.0312 -0.2658  0.7103
 8024SOL    HW125811   7.615   1.802   2.546  0.1862  2.3432  1.5766
 8024SOL    HW225812   7.489   1.885   2.535  0.4126  2.3755 -1.9482
 8025SOL     OW25813   4.042   4.042   7.091 -0.0048  0.6033 -0.3123
 8025SOL    HW125814   4.016   4.067   7.002 -1.3346 -0.8336 -0.3892
 8025SOL    HW225815   4.026   4.120   7.143 -0.6755  1.0181 -1.1002
 8026SOL     OW25816   5.652   8.747   9.227 -0.1268 -0.1003  0.3068
 8026SOL    HW125817   5.675   8.742   9.320 -0.0366  1.2592  0.3724
 8026SOL    HW225818   5.642   8.841   9.209  0.6502 -0.2809 -1.2416
 8027SOL     OW25819   4.019   0.412   4.118 -0.3039 -0.0445  0.3325
 8027SOL    HW125820   4.040   0.496   4.078  0.0153 -0.4732 -0.4247
 8027SOL    HW225821   3.978   0.435   4.201 -0.7010  0.8629 -0.0966
 8028SOL     OW25822   4.390   0.849   1.137 -0.0140 -0.9737  0.0842
 8028SOL    HW125823   4.380   0.930   1.087 -0.2702 -0.3595  1.0952
 8028SOL    HW225824   4.456   0.799   1.089  1.5647  0.6546  0.4506
 8029SOL     OW25825   9.548   1.143   1.442 -0.1659  0.1052 -0.7580
 8029SOL    HW125826   9.549   1.056   1.481 -2.1382  0.1578 -0.4758
 8029SOL    HW225827   9.584   1.201   1.509 -2.3445  0.0042  0.6161
 8030SOL     OW25828   5.453   3.082   1.328  0.0565 -0.1981 -0.5281
 8030SOL    HW125829   5.392   3.132   1.274  0.1516 -1.0306 -1.4400
 8030SOL    HW225830   5.539   3.122   1.312 -0.0052 -0.0668 -0.5307
 8031SOL     OW25831   1.540   5.786   2.080 -0.1367  0.2781  0.0478
 8031SOL    HW125832   1.622   5.828   2.104 -0.9626  2.1517 -0.2461
 8031SOL    HW225833   1.472   5.845   2.113 -1.3710 -1.0825  0.0392
 8032SOL     OW25834   2.802   8.677   2.678  0.1733  0.0882 -0.5523
 8032SOL    HW125835   2.861   8.637   2.741 -0.1036 -0.2393 -0.4938
 8032SOL    HW225836   2.779   8.761   2.716 -1.5210 -0.8889  0.7608
 8033SOL     OW25837   1.204   3.327   9.260  0.3455  0.2612  0.4972
 8033SOL    HW125838   1.256   3.406   9.246  1.5002 -0.8704 -2.3041
 8033SOL    HW225839   1.267   3.256   9.254 -1.0954 -1.0262  0.0854
 8034SOL     OW25840   7.920   5.000   0.204 -0.1627  0.3103  0.4596
 8034SOL    HW125841   7.861   4.974   0.134 -0.8081  0.1424  1.0548
 8034SOL    HW225842   7.931   5.094   0.193 -1.1336  0.4676  0.7783
 8035SOL     OW25843   4.880   6.509   6.354  0.1503 -0.3747 -0.3359
 8035SOL    HW125844   4.813   6.495   6.288  0.7082 -0.3751 -0.9152
 8035SOL    HW225845   4.919   6.593   6.331 -0.2881  0.0912  0.5658
 8036SOL     OW25846   9.471   0.574   1.698 -0.0944 -0.2917 -0.8263
 8036SOL    HW125847   9.566   0.585   1.705 -0.2351  1.0796 -0.8200
 8036SOL    HW225848   9.445   0.538   1.783  0.1870  1.2960 -0.0263
 8037SOL     OW25849   4.937   9.609   2.889 -0.7854 -0.0969 -0.0379
 8037SOL    HW125850   4.858   9.662   2.887 -0.7992 -0.1314 -0.4359
 8037SOL    HW225851   5.009   9.672   2.898 -0.9150 -0.1242  1.4299
 8038SOL     OW25852   6.787   2.605   7.226  0.0635 -0.0860  0.1748
 8038SOL    HW125853   6.760   2.629   7.315 -2.7813  0.9483 -0.8442
 8038SOL    HW225854   6.709   2.564   7.188  1.1513 -0.3664 -1.8919
 8039SOL     OW25855   3.622   0.342   7.023 -0.7126 -0.2472 -0.3180
 8039SOL    HW125856   3.635   0.308   7.112 -0.6393 -1.1295 -0.6531
 8039SOL    HW225857   3.600   0.264   6.971 -0.6968  0.2533 -1.0833
 8040SOL     OW25858   9.130   4.770   2.410  0.0605 -0.0916 -0.7276
 8040SOL    HW125859   9.173   4.747   2.492  1.4899  3.1125 -0.4144
 8040SOL    HW225860   9.189   4.740   2.341  0.1134 -0.5312 -0.4891
 8041SOL     OW25861   1.595   7.199   9.259  0.4910  0.2122  0.7391
 8041SOL    HW125862   1.685   7.172   9.242  0.4047 -0.2234  0.9601
 8041SOL    HW225863   1.571   7.251   9.183  0.7750 -0.0589  0.4610
 8042SOL     OW25864   3.201   4.028   1.905  0.6823 -0.1342  0.4724
 8042SOL    HW125865   3.163   4.108   1.940  0.0397 -1.0817  2.0725
 8042SOL    HW225866   3.296   4.040   1.914  0.6107  0.6613  0.1791
 8043SOL     OW25867   2.128   7.089   7.343  0.5453 -0.0693 -0.4310
 8043SOL    HW125868   2.209   7.089   7.293  0.9641  1.2190  0.2312
 8043SOL    HW225869   2.119   7.178   7.376 -1.1326 -0.1868 -0.4711
 8044SOL     OW25870   4.598   3.627   7.566  0.8598  0.2808 -0.1038
 8044SOL    HW125871   4.571   3.663   7.482  1.3362  0.0157 -0.3734
 8044SOL    HW225872   4.596   3.701   7.626 -0.3591  0.2895 -0.1407
 8045SOL     OW25873   6.622   1.383   2.705  0.6208 -0.1925 -0.6349
 8045SOL    HW125874   6.635   1.448   2.775  1.0677 -0.1218 -0.7759
 8045SOL    HW225875   6.532   1.396   2.676  0.5462  0.0185 -0.3090
 8046SOL     OW25876   3.185   8.935   1.582  0.5084 -0.0766  0.2536
 8046SOL    HW125877   3.126   8.867   1.613  2.7032 -1.8783  0.7669
 8046SOL    HW225878   3.262   8.888   1.550  1.6088  2.1165 -0.5602
 8047SOL     OW25879   1.116   8.142   3.381 -0.4029 -0.5027 -0.1326
 8047SOL    HW125880   1.090   8.075   3.444 -0.8047 -0.7543 -0.5592
 8047SOL    HW225881   1.192   8.184   3.420  0.6346 -2.0426 -0.4131
 8048SOL     OW25882   6.544   3.537   7.718 -0.0627 -0.1049 -0.2492
 8048SOL    HW125883   6.515   3.479   7.648  2.2839 -0.1159 -1.2977
 8048SOL    HW225884   6.475   3.604   7.724  0.5283  1.0770 -4.0204
 8049SOL     OW25885   4.266   6.037   3.157  0.6255 -0.0524 -0.0869
 8049SOL    HW125886   4.222   6.086   3.088 -1.6291 -0.7513  0.7647
 8049SOL    HW225887   4.316   5.970   3.110  0.7517  0.7192 -1.0972
 8050SOL     OW25888   3.939   2.774   4.714  0.4055  0.2356  0.5121
 8050SOL    HW125889   3.998   2.718   4.765 -0.1630 -0.7400  0.1415
 8050SOL    HW225890   3.872   2.801   4.777 -1.1075 -2.1394  0.0512
 8051SOL     OW25891   0.370   6.717   9.338  0.0345  0.4454 -0.3464
 8051SOL    HW125892   0.453   6.688   9.377 -0.1673 -0.4193 -0.5508
 8051SOL    HW225893   0.363   6.809   9.364 -0.0035 -0.0495  1.5081
 8052SOL     OW25894   8.258   1.226   2.309 -0.1278 -0.7450 -0.3317
 8052SOL    HW125895   8.313   1.241   2.232  1.8098  0.2270  1.1846
 8052SOL    HW225896   8.318   1.192   2.375 -0.4808  3.4591  2.4945
 8053SOL     OW25897   1.440   7.216   7.967 -0.3129 -0.3036 -0.2300
 8053SOL    HW125898   1.356   7.255   7.993  0.0159  1.4241 -1.5361
 8053SOL    HW225899   1.503   7.250   8.031 -0.3736 -0.3687 -0.1366
 8054SOL     OW25900   5.642   8.805   2.628 -0.2131 -0.4885 -0.2845
 8054SOL    HW125901   5.583   8.771   2.695 -1.6722  2.6137  0.1797
 8054SOL    HW225902   5.710   8.852   2.677  0.8892 -1.3339 -0.9326
 8055SOL     OW25903   6.549   3.427   9.080 -0.8641 -0.1071  0.7459
 8055SOL    HW125904   6.528   3.512   9.118 -0.2631  0.9256 -1.0968
 8055SOL    HW225905   6.495   3.421   9.001  0.8132 -0.3223 -0.4550
 8056SOL     OW25906   7.692   3.321   3.776 -0.0656  0.3881  0.2098
 8056SOL    HW125907   7.616   3.345   3.724 -1.0513 -1.3376  0.7668
 8056SOL    HW225908   7.663   3.328   3.867  0.7573  0.6882  0.4604
 8057SOL     OW25909   2.938   3.542   3.135  0.4258 -0.2214 -0.5755
 8057SOL    HW125910   3.030   3.567   3.127  0.2799  0.3665 -0.4298
 8057SOL    HW225911   2.893   3.622   3.161  0.1108 -0.8856  1.0363
 8058SOL     OW25912   2.588   5.741   1.852 -0.4860  0.3767 -0.0423
 8058SOL    HW125913   2.682   5.758   1.856 -0.0639 -1.3612 -1.4645
 8058SOL    HW225914   2.569   5.732   1.759 -2.1879  1.2197  0.1967
 8059SOL     OW25915   2.915   3.975   4.950 -0.5132  0.4023  0.6676
 8059SOL    HW125916   2.913   4.066   4.978 -1.2234  0.5941  0.0014
 8059SOL    HW225917   2.826   3.956   4.921  0.3159  0.4355 -2.1282
 8060SOL     OW25918   3.911   8.832   9.119  0.6553  0.4080  0.3731
 8060SOL    HW125919   3.914   8.763   9.053 -0.3573 -0.1285  0.8566
 8060SOL    HW225920   3.823   8.825   9.156  0.3338  2.3373  0.0368
 8061SOL     OW25921   9.607   1.480   5.113  0.2453  0.1233 -0.2321
 8061SOL    HW125922   9.680   1.418   5.107  0.6655  0.5942 -0.0617
 8061SOL    HW225923   9.641   1.551   5.168 -0.8134 -0.3193  1.0460
 8062SOL     OW25924   6.679   7.179   0.687 -0.3405  0.0115  0.3028
 8062SOL    HW125925   6.709   7.144   0.603  0.9805 -0.3149  0.8848
 8062SOL    HW225926   6.602   7.231   0.665 -0.9295 -1.2886 -0.9130
 8063SOL     OW25927   7.917   6.337   5.881  0.2023  0.3512  0.0504
 8063SOL    HW125928   7.969   6.319   5.803  1.6807  1.0893  0.8189
 8063SOL    HW225929   7.982   6.354   5.949 -1.0589  1.1968  1.0794
 8064SOL     OW25930   2.723   8.848   8.425 -0.1597 -0.5418 -0.3587
 8064SOL    HW125931   2.676   8.786   8.481 -0.9523  0.6508  0.3516
 8064SOL    HW225932   2.796   8.878   8.478 -0.0315 -0.5422 -0.5352
 8065SOL     OW25933   6.641   2.951   8.058 -0.2273 -0.3415 -0.3004
 8065SOL    HW125934   6.564   2.927   8.007 -0.2267  1.0597 -1.0113
 8065SOL    HW225935   6.679   2.868   8.085 -2.1854 -1.0609  0.3879
 8066SOL     OW25936   4.082   8.016   8.796 -0.1766  0.3398  0.0822
 8066SOL    HW125937   4.020   7.967   8.851 -0.8124  0.3511 -0.6009
 8066SOL    HW225938   4.117   7.950   8.736  0.9201  0.2168  0.8276
 8067SOL     OW25939   6.990   7.936   9.049  0.2190 -0.1564 -0.6808
 8067SOL    HW125940   6.977   8.023   9.013  0.6112  0.6395  1.0154
 8067SOL    HW225941   6.904   7.894   9.043 -0.1288  0.5812 -0.8813
 8068SOL     OW25942   5.952   2.851   2.868  0.2518  0.1125  0.0737
 8068SOL    HW125943   6.015   2.840   2.939 -0.8968  0.4906  1.1671
 8068SOL    HW225944   5.994   2.808   2.793  1.3115 -0.6430  1.0622
 8069SOL     OW25945   6.471   1.862   3.409  0.5892 -0.3814  0.8941
 8069SOL    HW125946   6.410   1.909   3.466  1.1679  1.0697  0.3504
 8069SOL    HW225947   6.414   1.810   3.351 -0.4246  3.0227 -1.4728
 8070SOL     OW25948   0.787   6.082   3.860 -0.2569  0.2928  0.4125
 8070SOL    HW125949   0.746   6.150   3.911  1.1774  0.7027  1.0679
 8070SOL    HW225950   0.866   6.122   3.824  0.4731 -0.9200  0.5773
 8071SOL     OW25951   8.329   9.065   1.512  0.2844 -0.3519  0.3030
 8071SOL    HW125952   8.310   9.142   1.458 -1.0297 -2.4888 -2.5336
 8071SOL    HW225953   8.334   9.099   1.601 -1.7898  2.7878 -0.6084
 8072SOL     OW25954   5.738   2.651   1.483  0.0349 -0.4240 -1.0088
 8072SOL    HW125955   5.800   2.603   1.537  1.0765  1.4968 -0.3737
 8072SOL    HW225956   5.652   2.621   1.512  0.5693  0.0818  1.3250
 8073SOL     OW25957   3.338   5.762   3.551 -0.4849  0.3022  0.4914
 8073SOL    HW125958   3.412   5.728   3.600 -0.2764 -0.5115 -0.3820
 8073SOL    HW225959   3.344   5.857   3.562  1.4435  0.3505 -0.6185
 8074SOL     OW25960   4.921   8.400   3.282  0.2078 -0.8683  0.1689
 8074SOL    HW125961   4.958   8.459   3.348  1.0949 -0.2557 -0.8547
 8074SOL    HW225962   4.985   8.400   3.211 -1.0801 -0.9276 -1.0235
 8075SOL     OW25963   5.635   1.574   4.558  0.3687  0.4608  0.0047
 8075SOL    HW125964   5.727   1.566   4.579  0.1861 -0.4990  0.4618
 8075SOL    HW225965   5.634   1.591   4.463  0.9569 -1.3784 -0.3689
 8076SOL     OW25966   1.861   3.668   9.034 -0.5957 -0.2389  0.2387
 8076SOL    HW125967   1.801   3.742   9.042  2.7445  2.7799 -0.1523
 8076SOL    HW225968   1.882   3.663   8.941 -1.8763 -2.8151 -0.0104
 8077SOL     OW25969   4.227   0.796   2.679 -0.8283 -0.3698  0.0937
 8077SOL    HW125970   4.315   0.830   2.693 -0.8655 -0.6670  1.1750
 8077SOL    HW225971   4.220   0.723   2.741 -2.4965  0.8823  1.4737
 8078SOL     OW25972   1.613   8.094   7.265 -0.2997  0.4695  0.3320
 8078SOL    HW125973   1.527   8.052   7.275  0.5500 -1.5809 -0.5934
 8078SOL    HW225974   1.594   8.178   7.223 -1.8331  0.0062  0.0499
 8079SOL     OW25975   4.134   5.125   4.244  0.2909  0.7895 -0.0415
 8079SOL    HW125976   4.226   5.151   4.251  0.3321  0.4029  1.0356
 8079SOL    HW225977   4.132   5.035   4.276  0.0437 -0.4244 -3.0886
 8080SOL     OW25978   3.230   7.095   0.017 -0.9166 -0.0488 -0.1010
 8080SOL    HW125979   3.302   7.057  -0.033 -0.6455  1.1060 -0.5977
 8080SOL    HW225980   3.273   7.138   0.091 -1.2693 -1.1748  0.8031
 8081SOL     OW25981   3.776   6.224   6.297 -0.4167 -0.3658  0.2783
 8081SOL    HW125982   3.844   6.196   6.236  0.0794 -2.1639  1.5904
 8081SOL    HW225983   3.751   6.312   6.267  2.1097  0.1312 -0.5450
 8082SOL     OW25984   3.208   3.923   4.069  0.5677 -0.4107  0.3079
 8082SOL    HW125985   3.235   3.966   3.989 -0.2585  1.7715  1.1291
 8082SOL    HW225986   3.129   3.874   4.045  0.5224 -0.0578 -0.2725
 8083SOL     OW25987   7.316   0.616   0.290 -0.0065  0.4329 -0.2696
 8083SOL    HW125988   7.343   0.598   0.200  0.0816  0.1402 -0.1869
 8083SOL    HW225989   7.323   0.531   0.334 -1.0776  0.3345 -0.2523
 8084SOL     OW25990   1.039   7.448   5.903  0.4775 -1.0366  0.2006
 8084SOL    HW125991   0.970   7.513   5.919 -1.5667 -2.7979 -0.9764
 8084SOL    HW225992   1.097   7.456   5.979 -0.8916  0.6539  1.1539
 8085SOL     OW25993   3.690   7.311   4.853 -0.3405 -0.0972  0.3034
 8085SOL    HW125994   3.659   7.255   4.925 -1.0390  0.6783  0.6205
 8085SOL    HW225995   3.737   7.382   4.897  3.1493 -1.8863 -0.1872
 8086SOL     OW25996   0.515   7.882   9.246 -0.6160 -0.3410 -0.2891
 8086SOL    HW125997   0.605   7.903   9.272 -1.0524  0.9847  0.2510
 8086SOL    HW225998   0.504   7.790   9.272  0.2399 -0.2064  0.6310
 8087SOL     OW25999   7.392   6.999   6.331 -0.1611  0.3813  0.3039
 8087SOL    HW126000   7.340   6.921   6.313  0.2543  0.4551 -1.3336
 8087SOL    HW226001   7.331   7.072   6.320 -0.1508  0.3754  0.2099
 8088SOL     OW26002   1.847   7.887   4.770 -0.1494  0.0664 -0.4317
 8088SOL    HW126003   1.909   7.816   4.784  0.1429  0.3566 -0.2548
 8088SOL    HW226004   1.855   7.943   4.847  0.5663  0.9937 -1.1505
 8089SOL     OW26005   2.478   0.450   3.415 -0.3937 -0.3330 -0.0981
 8089SOL    HW126006   2.467   0.356   3.401 -2.4046 -0.3416  1.0891
 8089SOL    HW226007   2.448   0.490   3.333 -1.3728 -0.6877  0.0769
 8090SOL     OW26008   6.373   0.288   5.725 -0.5115 -0.3411 -0.1259
 8090SOL    HW126009   6.291   0.255   5.687  0.3484 -2.3978 -0.3378
 8090SOL    HW226010   6.436   0.217   5.710  1.1420  0.9113  0.6390
 8091SOL     OW26011   2.301   2.434   5.314  0.4088  0.7150 -0.0545
 8091SOL    HW126012   2.342   2.372   5.253  1.9124  1.2584  0.3482
 8091SOL    HW226013   2.223   2.464   5.268  1.5388  1.1827 -1.8176
 8092SOL     OW26014   5.690   7.503   7.696 -0.0258  0.5080  0.0948
 8092SOL    HW126015   5.702   7.417   7.736 -1.2725  0.6831  0.9200
 8092SOL    HW226016   5.698   7.564   7.769  0.4188  1.0607 -0.4134
 8093SOL     OW26017   1.735   0.131   8.977  0.0883 -0.0427 -0.5759
 8093SOL    HW126018   1.670   0.153   9.044  0.3510 -1.1815  0.0804
 8093SOL    HW226019   1.684   0.092   8.906  0.2129 -3.6521  1.1135
 8094SOL     OW26020   0.466   3.009   2.500 -0.1440 -0.1339 -0.0598
 8094SOL    HW126021   0.441   3.070   2.430  0.3393  0.0714 -0.0563
 8094SOL    HW226022   0.555   3.035   2.524 -0.0822 -0.5913  0.2158
 8095SOL     OW26023   6.756   4.094   4.159 -0.3772  0.5400  0.3355
 8095SOL    HW126024   6.688   4.146   4.116 -1.0382 -0.9204 -0.4809
 8095SOL    HW226025   6.817   4.073   4.089 -0.9657 -1.0785  0.2531
 8096SOL     OW26026   8.989   1.440   6.324  0.9030 -0.2119 -0.6489
 8096SOL    HW126027   9.059   1.407   6.381  1.2974 -1.2157 -1.6757
 8096SOL    HW226028   9.033   1.496   6.261  0.3246  1.7960  0.6349
 8097SOL     OW26029   7.972   0.362   8.999  0.5804 -0.1568 -0.6699
 8097SOL    HW126030   7.900   0.355   8.936  0.6729 -0.9038 -0.6937
 8097SOL    HW226031   8.015   0.444   8.977 -0.9854  0.9329  0.1031
 8098SOL     OW26032   9.279   7.193   4.948  0.7577  0.0658 -0.0578
 8098SOL    HW126033   9.249   7.107   4.916 -1.4609  0.4201  0.8934
 8098SOL    HW226034   9.230   7.256   4.895  1.7769  0.7661 -0.1934
 8099SOL     OW26035   8.247   2.897   5.387 -0.3048  0.6171 -0.3542
 8099SOL    HW126036   8.170   2.920   5.334 -2.1654 -1.3695  1.3083
 8099SOL    HW226037   8.297   2.837   5.331 -0.3872  1.2698 -1.1451
 8100SOL     OW26038   4.714   3.607   2.285  0.1162  0.5477  0.2685
 8100SOL    HW126039   4.805   3.577   2.278  0.0703  0.4399  0.1219
 8100SOL    HW226040   4.710   3.653   2.368  0.0364 -0.3777  0.7937
 8101SOL     OW26041   8.904   7.985   0.324 -0.4269 -0.0309  0.0342
 8101SOL    HW126042   8.884   8.076   0.347 -0.2180  0.0282 -0.0188
 8101SOL    HW226043   8.886   7.979   0.231  1.1863  0.4077 -0.3353
 8102SOL     OW26044   6.941   1.661   9.441  0.5066 -0.1521 -0.0719
 8102SOL    HW126045   6.938   1.750   9.477 -0.8247 -0.3122  0.2908
 8102SOL    HW226046   7.021   1.658   9.389  1.0739  0.9511  0.6923
 8103SOL     OW26047   2.403   0.049   8.056  0.1658  0.7165  0.5236
 8103SOL    HW126048   2.395   0.011   7.969  1.0151 -0.4058  0.9125
 8103SOL    HW226049   2.313   0.066   8.084 -0.0957  1.4169 -0.6938
 8104SOL     OW26050   8.955   7.859   2.205  0.2607 -0.1836 -0.2898
 8104SOL    HW126051   9.035   7.825   2.245 -0.1447  0.0966  0.7952
 8104SOL    HW226052   8.957   7.953   2.223 -1.4602 -0.4897  1.9193
 8105SOL     OW26053   7.904   6.961   2.201 -0.0131 -0.3977  0.4887
 8105SOL    HW126054   7.902   7.057   2.206  0.3349 -0.4429  1.9470
 8105SOL    HW226055   7.995   6.940   2.181  0.1993 -0.4479  1.4564
 8106SOL     OW26056   7.374   2.464   0.394 -0.2464  0.3105 -0.1048
 8106SOL    HW126057   7.432   2.391   0.418 -0.7779  0.0016  0.2696
 8106SOL    HW226058   7.413   2.500   0.314  0.4128  0.0601  0.0916
 8107SOL     OW26059   4.124   3.835   4.186  0.4164 -0.1449 -0.1283
 8107SOL    HW126060   4.207   3.820   4.231 -0.0079  2.8853  1.9709
 8107SOL    HW226061   4.117   3.930   4.179 -3.8620 -0.0786  1.8899
 8108SOL     OW26062   8.418   7.875   9.131  0.0966 -0.8260  0.0966
 8108SOL    HW126063   8.406   7.780   9.136  0.0921 -0.7948  3.7427
 8108SOL    HW226064   8.373   7.908   9.209 -1.1216  2.3788 -1.8046
 8109SOL     OW26065   8.661   2.285   2.043 -0.5791 -0.0754 -0.2244
 8109SOL    HW126066   8.573   2.254   2.022 -1.4055  2.3416 -0.6444
 8109SOL    HW226067   8.649   2.347   2.115  0.4359  1.8814 -1.6435
 8110SOL     OW26068   7.139   2.497   6.736 -0.0372 -0.1644 -0.0464
 8110SOL    HW126069   7.058   2.476   6.689  0.9122  0.0248 -1.8434
 8110SOL    HW226070   7.115   2.569   6.794 -1.1733 -0.1717 -0.4765
 8111SOL     OW26071   5.489   4.333   4.287  0.2106 -0.0813  0.3257
 8111SOL    HW126072   5.401   4.358   4.257  0.8611  0.0945 -1.5616
 8111SOL    HW226073   5.474   4.291   4.372 -1.4439  2.0543  1.1851
 8112SOL     OW26074   5.927   8.420   8.217  0.0128 -0.1555 -0.8465
 8112SOL    HW126075   5.955   8.347   8.162  1.1706 -1.1755  0.9782
 8112SOL    HW226076   5.963   8.400   8.304 -0.3199  2.1972 -0.0876
 8113SOL     OW26077   7.631   9.156   9.613 -0.1296  0.1613 -0.5273
 8113SOL    HW126078   7.629   9.061   9.601  0.0322  0.1009 -0.0825
 8113SOL    HW226079   7.700   9.185   9.554  0.6548 -0.1342  0.2274
 8114SOL     OW26080   3.453   3.388   7.578  0.3568  0.2237  0.0807
 8114SOL    HW126081   3.448   3.475   7.537  0.5645  0.6682  0.9758
 8114SOL    HW226082   3.377   3.385   7.636 -0.2787 -0.6445 -0.7654
 8115SOL     OW26083   7.472   4.546   3.922  0.3467  0.4162 -0.0001
 8115SOL    HW126084   7.510   4.479   3.978 -1.0006 -0.0241  0.4304
 8115SOL    HW226085   7.538   4.561   3.854  0.6096 -1.5120 -0.2354
 8116SOL     OW26086   0.816   2.239   5.622  0.2612  0.5222 -0.2484
 8116SOL    HW126087   0.825   2.292   5.701 -0.3396 -0.2874  0.3760
 8116SOL    HW226088   0.794   2.303   5.553  1.0455  1.2658  0.1722
 8117SOL     OW26089   9.140   7.525   0.220 -0.0080  0.1430  0.8436
 8117SOL    HW126090   9.214   7.467   0.235  0.4339  0.5248  0.2233
 8117SOL    HW226091   9.070   7.492   0.277  0.2747 -0.9040  0.5951
 8118SOL     OW26092   8.806   2.539   6.107 -0.2665  0.2411 -0.2942
 8118SOL    HW126093   8.826   2.616   6.160 -0.6702  0.6005 -0.6640
 8118SOL    HW226094   8.843   2.466   6.157 -0.2953  0.6176  0.2892
 8119SOL     OW26095   8.795   1.608   6.635 -0.4123  0.1569  0.1923
 8119SOL    HW126096   8.786   1.691   6.590 -2.7852 -0.3607 -0.4153
 8119SOL    HW226097   8.705   1.577   6.649  0.3624 -2.0530  0.8787
 8120SOL     OW26098   3.789   2.457   9.152 -0.1617 -0.0751 -0.1036
 8120SOL    HW126099   3.801   2.377   9.203  0.4363 -1.3902 -2.1689
 8120SOL    HW226100   3.733   2.430   9.079 -0.5825  1.6114 -0.4446
 8121SOL     OW26101   8.882   6.919   5.333 -0.1327 -0.4552  0.3260
 8121SOL    HW126102   8.826   6.858   5.285 -0.3426 -0.2029  0.2426
 8121SOL    HW226103   8.895   6.992   5.272  0.6641 -0.7155  0.1794
 8122SOL     OW26104   6.825   4.690   2.192  0.3655  0.2697 -0.1476
 8122SOL    HW126105   6.812   4.604   2.234  2.0414 -0.5412 -1.1646
 8122SOL    HW226106   6.920   4.697   2.182  0.1144 -0.0965 -4.6905
 8123SOL     OW26107   4.147   8.360   5.629  0.3766  0.4315 -0.9248
 8123SOL    HW126108   4.185   8.272   5.624  0.2264  0.3856 -1.2516
 8123SOL    HW226109   4.217   8.418   5.597  0.1483  0.3389 -1.6014
 8124SOL     OW26110   6.588   2.017   0.591  0.6156  0.1976 -1.0239
 8124SOL    HW126111   6.658   2.003   0.528  0.6170  1.1950 -1.2645
 8124SOL    HW226112   6.594   2.110   0.613 -0.1812  0.1364 -0.5098
 8125SOL     OW26113   2.442   0.052   2.151  0.3068 -0.1825 -0.1992
 8125SOL    HW126114   2.453   0.137   2.109  0.0034 -0.2797 -0.4719
 8125SOL    HW226115   2.348   0.036   2.150  0.0661  0.6285  2.1287
 8126SOL     OW26116   9.607   8.647   6.773  0.1312  0.3707  0.2525
 8126SOL    HW126117   9.587   8.554   6.780 -0.0954  0.3385 -0.6763
 8126SOL    HW226118   9.606   8.679   6.863 -1.3961 -0.1892  0.4621
 8127SOL     OW26119   9.257   1.308   0.284  0.1604  0.8783 -0.0385
 8127SOL    HW126120   9.210   1.378   0.238 -0.6242  1.3607  1.4279
 8127SOL    HW226121   9.276   1.243   0.216 -1.0515  1.4988 -1.0182
 8128SOL     OW26122   7.462   4.031   5.036 -0.0891 -0.2293 -0.3530
 8128SOL    HW126123   7.531   4.047   4.971  0.3220 -1.2349 -0.1798
 8128SOL    HW226124   7.381   4.033   4.986  0.2881 -1.8807 -1.0861
 8129SOL     OW26125   9.320   4.451   2.880 -0.0536  0.6394  0.7575
 8129SOL    HW126126   9.389   4.389   2.905 -2.0332 -1.7890  0.6310
 8129SOL    HW226127   9.343   4.476   2.790  1.7181  1.5077  1.4166
 8130SOL     OW26128   3.282   6.417   6.114  0.3931  0.0529  0.1671
 8130SOL    HW126129   3.325   6.333   6.100  0.7923 -0.1936  2.4721
 8130SOL    HW226130   3.190   6.395   6.127  0.4493  0.0045  0.4821
 8131SOL     OW26131   4.315   4.776   0.235 -0.1827  0.3631  0.0126
 8131SOL    HW126132   4.315   4.700   0.293  1.4324  0.5918  0.3613
 8131SOL    HW226133   4.248   4.757   0.170 -0.4714 -0.9218  0.6584
 8132SOL     OW26134   4.058   5.964   5.165 -0.0096 -0.0298 -0.6198
 8132SOL    HW126135   4.014   6.035   5.119 -1.6617 -1.3798 -1.2102
 8132SOL    HW226136   4.001   5.888   5.153  0.1725 -0.7949  2.4856
 8133SOL     OW26137   5.466   3.103   2.338  0.3987  0.1089  0.1432
 8133SOL    HW126138   5.548   3.074   2.380  0.4857  0.9201  0.5558
 8133SOL    HW226139   5.439   3.028   2.284  2.4438  0.5047 -1.5632
 8134SOL     OW26140   2.861   5.995   7.055 -0.0118  0.4810  0.1930
 8134SOL    HW126141   2.841   6.088   7.047 -0.6530  0.2444 -1.4451
 8134SOL    HW226142   2.783   5.951   7.021 -0.1352 -0.6979  1.8927
 8135SOL     OW26143   2.218   5.050   9.149  0.4236  0.2055  0.2933
 8135SOL    HW126144   2.160   5.113   9.192 -2.2985 -3.1044  1.9664
 8135SOL    HW226145   2.165   5.010   9.081  2.2909  0.1291 -1.1944
 8136SOL     OW26146   7.398   0.070   0.837 -0.2104 -0.4588 -0.0844
 8136SOL    HW126147   7.426   0.014   0.765  1.0029  1.7072 -1.4281
 8136SOL    HW226148   7.310   0.100   0.811  0.6913  1.2672 -1.3805
 8137SOL     OW26149   7.694   7.217   2.782 -0.8175  0.1150 -0.1793
 8137SOL    HW126150   7.753   7.142   2.793  0.1241  0.9244  0.5121
 8137SOL    HW226151   7.677   7.222   2.688  1.6506  0.8833 -0.6479
 8138SOL     OW26152   9.123   6.356   5.855 -0.3575  0.4727  0.6986
 8138SOL    HW126153   9.181   6.349   5.779 -0.7347  1.3289  0.3181
 8138SOL    HW226154   9.157   6.431   5.904 -1.8211  1.7345 -0.1447
 8139SOL     OW26155   7.754   4.643   7.133 -0.0771  0.0972  0.3897
 8139SOL    HW126156   7.763   4.693   7.214 -0.3973 -0.5040  0.8140
 8139SOL    HW226157   7.711   4.562   7.161 -1.6002  0.5143 -0.6231
 8140SOL     OW26158   0.365   2.205   0.250 -0.1228 -0.0360  0.0540
 8140SOL    HW126159   0.355   2.114   0.224  0.8535 -0.8372  2.2661
 8140SOL    HW226160   0.310   2.214   0.328  1.4564  0.6141  1.1528
 8141SOL     OW26161   6.303   3.246   7.277  0.0660  0.3513 -0.7225
 8141SOL    HW126162   6.237   3.234   7.209 -0.6863  0.7940 -0.0951
 8141SOL    HW226163   6.254   3.281   7.352  0.8180 -0.3820  0.1369
 8142SOL     OW26164   1.293   0.412   8.469  0.3547  0.4840  0.3976
 8142SOL    HW126165   1.277   0.410   8.374  2.4476 -1.1108  0.0162
 8142SOL    HW226166   1.343   0.492   8.483  0.8212  0.2620  0.0088
 8143SOL     OW26167   3.041   2.921   8.476 -0.3743 -1.1684 -0.1538
 8143SOL    HW126168   3.016   2.974   8.552 -0.3513 -0.3928 -0.6764
 8143SOL    HW226169   2.958   2.894   8.437 -0.3915 -0.9451 -0.2748
 8144SOL     OW26170   2.765   4.741   3.369 -0.0489  0.2317  0.4003
 8144SOL    HW126171   2.753   4.798   3.292  1.1993 -1.0563 -0.8126
 8144SOL    HW226172   2.800   4.660   3.333 -0.6341 -0.8778  2.2293
 8145SOL     OW26173   1.314   0.373   5.386 -0.6724  0.2003  0.3438
 8145SOL    HW126174   1.356   0.385   5.472 -0.8856  0.8651  0.3627
 8145SOL    HW226175   1.381   0.401   5.323 -0.0587 -1.4582  0.2043
 8146SOL     OW26176   6.561   3.028   8.343  0.2114  0.0855 -0.1802
 8146SOL    HW126177   6.636   3.016   8.285  3.1643 -0.7545  3.4573
 8146SOL    HW226178   6.499   2.961   8.316  1.9408 -1.0432 -1.6279
 8147SOL     OW26179   8.290   6.041   7.870 -0.4205 -0.3289 -0.6518
 8147SOL    HW126180   8.226   5.979   7.835 -1.4899  0.6863 -0.5928
 8147SOL    HW226181   8.283   6.117   7.811 -0.1518  0.2708  0.0743
 8148SOL     OW26182   9.561   0.101   2.476 -0.0429 -0.2626 -0.4972
 8148SOL    HW126183   9.515   0.017   2.478 -1.2392  0.3616  0.1935
 8148SOL    HW226184   9.490   0.166   2.472  0.8283  0.7210 -0.3356
 8149SOL     OW26185   4.587   4.879   4.239  0.1410  0.6056 -0.0627
 8149SOL    HW126186   4.641   4.947   4.281  1.0266 -0.5487  0.7311
 8149SOL    HW226187   4.537   4.840   4.311 -0.7417  0.7324 -0.5908
 8150SOL     OW26188   1.475   3.934   3.269 -0.0535  0.0071 -0.3846
 8150SOL    HW126189   1.433   3.860   3.226 -0.2958 -0.5047  0.7009
 8150SOL    HW226190   1.454   3.923   3.362  1.6448  0.2959  0.0615
 8151SOL     OW26191   7.364   4.629   7.126 -0.7148  0.0328 -0.1881
 8151SOL    HW126192   7.318   4.564   7.179  0.1494 -1.8596 -1.6415
 8151SOL    HW226193   7.426   4.578   7.074  0.4159  2.1077 -0.9885
 8152SOL     OW26194   4.291   0.730   2.421 -0.1842  0.4540  0.1122
 8152SOL    HW126195   4.278   0.767   2.508 -1.2889  0.9460 -0.2412
 8152SOL    HW226196   4.275   0.636   2.432 -0.1171  0.4862  0.4817
 8153SOL     OW26197   8.919   3.949   4.729 -0.3842 -0.0372 -0.1083
 8153SOL    HW126198   8.865   3.963   4.807 -0.2759  0.0125 -0.0410
 8153SOL    HW226199   8.959   4.035   4.712 -1.4937  0.3229 -1.0472
 8154SOL     OW26200   5.197   2.331   8.439  0.0122  0.3394 -0.2728
 8154SOL    HW126201   5.156   2.290   8.516  2.7504 -1.8368  0.2024
 8154SOL    HW226202   5.167   2.278   8.365  1.4235 -0.9844  0.0272
 8155SOL     OW26203   5.433   7.889   1.750 -0.1037  0.0174  0.1305
 8155SOL    HW126204   5.409   7.974   1.715  1.4012  1.3540  2.1002
 8155SOL    HW226205   5.507   7.860   1.696 -0.1013  0.3355 -0.0377
 8156SOL     OW26206   3.238   5.353   5.206  0.9246  0.3695  0.0614
 8156SOL    HW126207   3.251   5.426   5.267 -2.1899  0.5723  0.6646
 8156SOL    HW226208   3.236   5.275   5.262  1.6762  0.1067 -0.2640
 8157SOL     OW26209   0.426   1.937   0.440 -0.1461 -0.5372  0.3293
 8157SOL    HW126210   0.357   1.948   0.506 -0.6382 -1.2263 -0.0670
 8157SOL    HW226211   0.502   1.980   0.479 -0.8673  0.5119  0.6431
 8158SOL     OW26212   4.090   3.013   3.071  0.2114 -0.0555 -0.1022
 8158SOL    HW126213   4.029   2.986   3.003  0.4884  0.4963 -0.5731
 8158SOL    HW226214   4.039   3.071   3.128  0.3393  0.5559 -0.6019
 8159SOL     OW26215   5.477   3.864   3.586  0.1082  0.3850  0.1112
 8159SOL    HW126216   5.403   3.919   3.558 -2.0167 -1.4568  1.8158
 8159SOL    HW226217   5.524   3.918   3.650 -1.7532  0.3923  1.5288
 8160SOL     OW26218   3.478   5.457   5.168  0.3317  0.6375  0.7399
 8160SOL    HW126219   3.529   5.415   5.237  1.3715  0.1995 -0.2468
 8160SOL    HW226220   3.404   5.397   5.153  1.2396 -0.3645  0.0620
 8161SOL     OW26221   1.199   3.314   2.861 -0.2087 -0.4585 -0.0674
 8161SOL    HW126222   1.187   3.305   2.767  0.4007  2.3141 -0.5112
 8161SOL    HW226223   1.273   3.258   2.883 -1.5525 -2.6476 -0.8151
 8162SOL     OW26224   4.720   9.574   6.877  0.2130 -0.1453  0.2045
 8162SOL    HW126225   4.708   9.543   6.967  0.5292  0.2789  0.3989
 8162SOL    HW226226   4.811   9.552   6.857  0.5389  0.9272  0.4608
 8163SOL     OW26227   4.731   4.034   9.503  0.7762  0.3923  0.1041
 8163SOL    HW126228   4.810   3.982   9.521  1.2359  1.4119  1.1233
 8163SOL    HW226229   4.709   4.074   9.587 -0.2877  0.8829 -0.3910
 8164SOL     OW26230   5.989   8.276   8.484  0.4205  0.2243  0.3383
 8164SOL    HW126231   6.064   8.220   8.465  0.9481  1.3447 -0.9972
 8164SOL    HW226232   6.026   8.353   8.528 -0.2962 -0.3930  2.1269
 8165SOL     OW26233   7.454   8.283   8.083 -0.4304  0.3793  0.4185
 8165SOL    HW126234   7.363   8.283   8.053 -0.3871 -0.2096  0.2674
 8165SOL    HW226235   7.499   8.342   8.022 -0.6525  0.4340  0.3065
 8166SOL     OW26236   4.777   2.049   6.095 -0.1010  0.2710  0.3200
 8166SOL    HW126237   4.683   2.033   6.086  0.0534 -0.1413 -0.7154
 8166SOL    HW226238   4.818   1.966   6.071  0.5875  1.0328 -1.3507
 8167SOL     OW26239   0.587   3.036   7.776 -0.0306  0.0301  0.2117
 8167SOL    HW126240   0.679   3.017   7.757 -0.0560  0.1850 -0.0654
 8167SOL    HW226241   0.568   3.116   7.727 -0.4245 -0.2204 -0.0520
 8168SOL     OW26242   7.838   5.945   6.899  0.0623  0.1959  0.1741
 8168SOL    HW126243   7.838   6.004   6.824  1.1668 -2.2540 -1.9141
 8168SOL    HW226244   7.893   5.989   6.964 -2.1808  3.0856  0.2549
 8169SOL     OW26245   8.917   7.407   1.046 -0.0990  0.2070  0.2861
 8169SOL    HW126246   8.960   7.489   1.071 -3.1292  2.6085 -1.7121
 8169SOL    HW226247   8.922   7.406   0.951 -2.2614 -0.6402  0.1411
 8170SOL     OW26248   4.231   2.324   9.048  0.2862  0.0658  0.2314
 8170SOL    HW126249   4.303   2.296   8.992  1.8816  0.0853  2.1684
 8170SOL    HW226250   4.273   2.374   9.118 -1.4369 -1.0293  2.1567
 8171SOL     OW26251   0.159   2.217   7.404 -0.1881 -0.2582 -0.5923
 8171SOL    HW126252   0.077   2.173   7.427  0.1597 -0.3453  0.5292
 8171SOL    HW226253   0.157   2.298   7.455 -0.2267  0.4347 -1.6575
 8172SOL     OW26254   9.229   3.986   7.566 -0.2781  0.0960 -0.4662
 8172SOL    HW126255   9.174   3.910   7.586 -0.8778  0.8424  0.8676
 8172SOL    HW226256   9.316   3.950   7.550 -0.6616 -0.9117 -0.3501
 8173SOL     OW26257   3.514   7.105   1.186  0.0553  0.3057 -0.4739
 8173SOL    HW126258   3.458   7.176   1.155 -0.8661 -0.0360  0.3466
 8173SOL    HW226259   3.485   7.090   1.276  0.8008 -0.5470 -0.3680
 8174SOL     OW26260   6.820   3.863   8.716 -0.1428 -0.2977  0.2582
 8174SOL    HW126261   6.836   3.770   8.704  0.7599 -0.2715  1.1611
 8174SOL    HW226262   6.745   3.867   8.776 -0.5888 -0.4220 -0.2736
 8175SOL     OW26263   8.662   7.047   1.535  0.3256 -0.4268 -0.2735
 8175SOL    HW126264   8.723   7.111   1.499  0.5950 -1.8041 -2.4870
 8175SOL    HW226265   8.718   6.978   1.570  0.0257 -0.5526 -0.0319
 8176SOL     OW26266   8.091   6.463   2.985  0.2611  0.2672  0.1321
 8176SOL    HW126267   8.034   6.509   3.048  0.3921 -1.3267  1.4738
 8176SOL    HW226268   8.151   6.413   3.040 -0.1339 -1.8236 -1.2503
 8177SOL     OW26269   8.195   6.052   3.735 -0.1571  0.0238 -0.5648
 8177SOL    HW126270   8.109   6.087   3.711 -0.3020  0.1917  0.1662
 8177SOL    HW226271   8.203   5.971   3.684 -1.5894 -1.0232  0.7634
 8178SOL     OW26272   0.791   6.909   1.047  0.3756  0.0409  0.3216
 8178SOL    HW126273   0.763   6.966   1.118  1.5270  1.7985 -0.5584
 8178SOL    HW226274   0.887   6.905   1.055  0.3752 -1.2498 -0.0513
 8179SOL     OW26275   2.902   3.798   8.975 -0.1464  0.1045  0.3165
 8179SOL    HW126276   2.847   3.755   8.910  0.5198  1.8440 -1.4927
 8179SOL    HW226277   2.975   3.738   8.989 -0.7205 -0.6586  0.0979
 8180SOL     OW26278   6.275   6.627   3.752  0.3677  0.4800  0.2297
 8180SOL    HW126279   6.347   6.598   3.696 -0.7071  0.2379 -1.0822
 8180SOL    HW226280   6.280   6.723   3.751  1.3941  0.4474  1.1499
 8181SOL     OW26281   6.321   0.613   0.618 -0.3553 -0.9786 -0.9653
 8181SOL    HW126282   6.354   0.694   0.658 -0.1214  0.1047 -3.2143
 8181SOL    HW226283   6.226   0.625   0.615 -0.5833 -1.8804  0.8290
 8182SOL     OW26284   3.753   9.562   1.082  0.1802 -0.1885 -0.4770
 8182SOL    HW126285   3.736   9.548   0.989  0.2134  0.7976 -0.6405
 8182SOL    HW226286   3.806   9.487   1.108 -0.7829 -1.0635 -0.9741
 8183SOL     OW26287   5.791   1.144   6.064 -0.4816 -0.0939  0.2634
 8183SOL    HW126288   5.698   1.158   6.046 -0.5195  2.0112  1.8126
 8183SOL    HW226289   5.829   1.231   6.066  0.8950 -0.6581  2.7437
 8184SOL     OW26290   8.469   1.103   2.477  0.0280  0.1034 -0.0197
 8184SOL    HW126291   8.534   1.126   2.411  1.7801 -1.9919  0.8467
 8184SOL    HW226292   8.494   1.152   2.555 -0.2192  0.2713 -0.0437
 8185SOL     OW26293   3.865   6.552   2.977 -0.2258  0.0918  0.1644
 8185SOL    HW126294   3.820   6.635   2.990 -0.0471  0.0923  0.8412
 8185SOL    HW226295   3.795   6.490   2.956 -0.4510  0.2499  0.4392
 8186SOL     OW26296   8.213   1.985   8.241  0.0770 -0.2774 -0.1775
 8186SOL    HW126297   8.294   2.004   8.288 -0.5866  0.4038  0.7230
 8186SOL    HW226298   8.222   1.894   8.213  0.3814 -0.7784  1.4977
 8187SOL     OW26299   0.281   0.996   7.707  0.4392 -0.2559 -0.1457
 8187SOL    HW126300   0.352   1.022   7.649 -1.0248 -1.0870 -2.4244
 8187SOL    HW226301   0.228   1.075   7.718  0.4140 -0.2402 -0.3884
 8188SOL     OW26302   0.621   2.106   7.496 -0.4430 -0.0622 -0.5488
 8188SOL    HW126303   0.589   2.191   7.465  1.3758  1.5436  1.6126
 8188SOL    HW226304   0.712   2.103   7.466 -0.8318 -1.9055 -1.7080
 8189SOL     OW26305   6.915   0.270   1.621  0.4506  0.2598 -0.5209
 8189SOL    HW126306   6.868   0.301   1.698  0.6324 -0.3242 -0.1696
 8189SOL    HW226307   6.992   0.325   1.615 -0.7356  1.9154 -1.6814
 8190SOL     OW26308   8.112   7.787   3.302 -0.5891 -0.1843  0.1234
 8190SOL    HW126309   8.105   7.719   3.370  0.0471 -1.0306 -0.6388
 8190SOL    HW226310   8.090   7.868   3.348 -2.7204 -1.0443  0.7537
 8191SOL     OW26311   7.244   1.909   2.558  0.0563 -0.1154 -0.1496
 8191SOL    HW126312   7.162   1.869   2.587 -0.2421  0.9258  0.5008
 8191SOL    HW226313   7.223   2.001   2.547  1.0482  0.0959 -0.3743
 8192SOL     OW26314   2.517   3.088   8.449  0.0067 -0.0423 -0.2050
 8192SOL    HW126315   2.567   3.133   8.518 -0.2968 -0.1316  0.0743
 8192SOL    HW226316   2.494   3.003   8.488  0.1687 -0.2493 -0.5587
 8193SOL     OW26317   6.891   1.404   3.234 -0.4823  0.8846 -0.4245
 8193SOL    HW126318   6.929   1.488   3.208 -0.9092  1.4989  0.8193
 8193SOL    HW226319   6.800   1.408   3.205 -0.1592  0.2554 -1.5930
 8194SOL     OW26320   2.202   8.794   4.459 -0.4981 -0.0896  0.6417
 8194SOL    HW126321   2.149   8.870   4.436 -0.2657 -0.1113  0.0096
 8194SOL    HW226322   2.265   8.827   4.522 -0.1639  0.3279  0.0976
 8195SOL     OW26323   2.813   7.332   5.350 -0.0108  0.0142 -0.4295
 8195SOL    HW126324   2.748   7.286   5.403  1.8128 -3.2083 -0.7146
 8195SOL    HW226325   2.778   7.329   5.261  0.8564 -2.6973 -0.7718
 8196SOL     OW26326   2.491   4.371   1.696  0.0672  0.7367 -0.0728
 8196SOL    HW126327   2.407   4.326   1.702  1.4317 -2.0633  0.2120
 8196SOL    HW226328   2.509   4.401   1.785  0.1009 -0.2045  0.2501
 8197SOL     OW26329   8.829   2.160   3.165 -0.2441 -0.5276  0.2399
 8197SOL    HW126330   8.757   2.222   3.174 -0.7046 -0.9095 -0.7342
 8197SOL    HW226331   8.820   2.124   3.077  0.7106 -1.1201  0.3624
 8198SOL     OW26332   2.696   4.110   7.847 -0.0910  0.4411 -0.1371
 8198SOL    HW126333   2.609   4.110   7.886 -1.0643 -0.4342 -2.1407
 8198SOL    HW226334   2.730   4.198   7.863 -0.7009  0.3414  1.9708
 8199SOL     OW26335   0.988   7.314   3.564  0.3566 -0.0365  0.4106
 8199SOL    HW126336   1.005   7.405   3.588  1.8972  0.2942 -1.6949
 8199SOL    HW226337   0.908   7.317   3.512 -0.0398 -0.0142  1.0146
 8200SOL     OW26338   2.602   2.427   6.480  0.2616 -0.0957  0.3206
 8200SOL    HW126339   2.527   2.387   6.523 -0.1460  0.0930 -0.2029
 8200SOL    HW226340   2.678   2.397   6.530 -0.2620  0.8259  1.7140
 8201SOL     OW26341   0.761   3.639   3.387  0.1335  0.4654  0.3025
 8201SOL    HW126342   0.772   3.682   3.303 -1.5718 -0.8465 -0.6559
 8201SOL    HW226343   0.738   3.549   3.366 -0.8083  0.2104  2.1340
 8202SOL     OW26344   3.017   9.274   2.819 -0.2545 -0.8588  0.2335
 8202SOL    HW126345   2.927   9.300   2.839 -0.0383 -0.5876  0.8731
 8202SOL    HW226346   3.010   9.180   2.799 -0.6463 -0.8889  0.4931
 8203SOL     OW26347   1.218   1.118   0.421  0.0902 -0.6617 -0.0795
 8203SOL    HW126348   1.288   1.143   0.482 -1.1356 -0.4584  1.3110
 8203SOL    HW226349   1.233   1.173   0.344  2.3535 -1.7154 -0.4922
 8204SOL     OW26350   4.243   7.495   0.705  0.0578 -0.3715 -0.1489
 8204SOL    HW126351   4.174   7.524   0.765  1.6262  0.2666  1.4421
 8204SOL    HW226352   4.275   7.414   0.744  1.7789  0.5820  0.5158
 8205SOL     OW26353   3.840   0.738   8.492  0.0456 -0.2598 -0.3349
 8205SOL    HW126354   3.796   0.750   8.576 -3.2694 -0.3477 -1.9053
 8205SOL    HW226355   3.932   0.722   8.515 -0.7702 -0.6100  3.2457
 8206SOL     OW26356   6.759   5.647   1.371 -0.1136 -0.0678 -0.1344
 8206SOL    HW126357   6.810   5.577   1.412  1.1232  0.6919 -0.3223
 8206SOL    HW226358   6.684   5.659   1.429 -1.3467 -2.7270 -0.9854
 8207SOL     OW26359   2.896   3.362   0.569 -0.4712  0.1950 -0.0970
 8207SOL    HW126360   2.801   3.352   0.561 -0.4249  0.2193 -0.6737
 8207SOL    HW226361   2.926   3.280   0.608 -0.4595 -0.7725 -2.0355
 8208SOL     OW26362   5.979   3.759   6.250 -0.1444  0.4280  0.2288
 8208SOL    HW126363   5.960   3.691   6.315 -1.1606  1.5033  1.0985
 8208SOL    HW226364   6.055   3.806   6.287 -0.2170  0.5379  0.2370
 8209SOL     OW26365   3.396   1.199   9.331  0.1838 -1.3726  0.3446
 8209SOL    HW126366   3.469   1.191   9.269 -2.3274 -4.4160 -2.6134
 8209SOL    HW226367   3.345   1.273   9.299  0.2750 -1.2749  0.4244
 8210SOL     OW26368   4.922   4.068   8.319  0.0904  0.0097 -0.4374
 8210SOL    HW126369   4.866   4.109   8.253  1.3702 -0.3626 -1.8147
 8210SOL    HW226370   4.962   4.142   8.365 -1.0661  0.2739  0.1686
 8211SOL     OW26371   6.767   7.450   1.965  0.4368  0.8756 -0.3881
 8211SOL    HW126372   6.710   7.487   2.031 -0.2189  1.5285 -1.2861
 8211SOL    HW226373   6.852   7.440   2.008 -0.1023  0.8173  0.6715
 8212SOL     OW26374   3.284   9.328   2.939 -0.3016  0.4497  0.5289
 8212SOL    HW126375   3.210   9.269   2.945  1.1930 -1.5690  0.1800
 8212SOL    HW226376   3.256   9.407   2.985 -2.8288 -0.0071 -0.0715
 8213SOL     OW26377   6.765   8.470   9.489  0.2021 -0.1222  0.6366
 8213SOL    HW126378   6.743   8.562   9.495  0.1926 -0.0343 -0.5557
 8213SOL    HW226379   6.802   8.459   9.401 -1.1467 -1.5316  0.1962
 8214SOL     OW26380   6.121   2.017   3.310  0.0285 -0.0787 -0.1275
 8214SOL    HW126381   6.157   1.989   3.226  0.7376 -0.3912  0.2658
 8214SOL    HW226382   6.162   2.102   3.325  0.7504 -0.5073  0.3979
 8215SOL     OW26383   8.605   6.161   0.352 -0.5364  0.3240 -0.0866
 8215SOL    HW126384   8.552   6.213   0.413 -0.1799 -1.0480  1.4706
 8215SOL    HW226385   8.582   6.070   0.372  1.3523 -0.2489 -0.3626
 8216SOL     OW26386   8.827   6.822   1.941  0.3132 -0.4997 -0.4764
 8216SOL    HW126387   8.814   6.914   1.918  1.0213 -0.1328  0.5309
 8216SOL    HW226388   8.767   6.807   2.014 -1.1316 -1.3646 -1.7647
 8217SOL     OW26389   2.890   6.493   1.554  0.6128  0.0237  0.6679
 8217SOL    HW126390   2.894   6.398   1.566 -0.3369  0.2016  2.8969
 8217SOL    HW226391   2.800   6.510   1.527  0.8775  0.2721 -0.0740
 8218SOL     OW26392   0.496   3.577   2.615  0.1496 -0.3332 -0.3467
 8218SOL    HW126393   0.563   3.645   2.607  0.8938 -0.9562  0.4290
 8218SOL    HW226394   0.446   3.602   2.694  0.7560 -0.9563  0.2434
 8219SOL     OW26395   8.647   1.122   9.517  0.0893 -0.2238 -0.7676
 8219SOL    HW126396   8.645   1.075   9.600 -1.5601 -2.0114 -1.7486
 8219SOL    HW226397   8.722   1.085   9.470  0.2706 -0.0932 -0.5874
 8220SOL     OW26398   7.102   3.331   1.559 -0.0482 -0.3450  0.4906
 8220SOL    HW126399   7.069   3.258   1.507 -0.4995 -0.5460  1.0489
 8220SOL    HW226400   7.183   3.357   1.515  0.3086 -1.4102  0.4868
 8221SOL     OW26401   0.758   6.030   7.009  0.1358  0.1253  0.3729
 8221SOL    HW126402   0.799   6.108   6.972 -0.5223  0.2039 -0.2174
 8221SOL    HW226403   0.830   5.972   7.029  0.8155  1.6111  2.6043
 8222SOL     OW26404   6.361   9.028   5.046 -0.3233 -0.4013  0.6341
 8222SOL    HW126405   6.354   8.999   5.137 -1.6804 -0.5439  0.4981
 8222SOL    HW226406   6.289   8.984   5.001  0.5771 -0.6614 -0.6069
 8223SOL     OW26407   7.855   8.796   4.137  0.0588 -0.5627 -0.4024
 8223SOL    HW126408   7.802   8.870   4.107  1.1886  0.1552 -0.6614
 8223SOL    HW226409   7.843   8.795   4.232  0.6944  0.4754 -0.3015
 8224SOL     OW26410   7.271   3.943   2.705 -0.3308 -0.0964 -0.1437
 8224SOL    HW126411   7.343   3.949   2.769  0.5260 -0.0114 -1.0952
 8224SOL    HW226412   7.252   3.849   2.700 -1.4564  0.0241  1.3617
 8225SOL     OW26413   0.911   4.511   8.532 -0.1146 -0.0198 -0.2796
 8225SOL    HW126414   0.862   4.457   8.470  1.1209 -1.3125 -0.1877
 8225SOL    HW226415   0.875   4.488   8.617 -0.0113 -0.2480 -0.2963
 8226SOL     OW26416   4.806   6.065   8.081 -0.0662  0.2489  0.0265
 8226SOL    HW126417   4.888   6.102   8.046 -0.4922  1.8583  0.6374
 8226SOL    HW226418   4.737   6.108   8.030 -0.5669 -0.4116  0.1373
 8227SOL     OW26419   3.097   1.637   6.792 -0.2730 -0.2424 -0.3227
 8227SOL    HW126420   3.046   1.591   6.726 -0.5584  0.7043 -0.7819
 8227SOL    HW226421   3.128   1.568   6.851  0.1153 -1.1218 -1.5106
 8228SOL     OW26422   4.942   0.590   2.044  0.1702  0.4101  0.2773
 8228SOL    HW126423   4.996   0.549   1.977  0.5284 -0.3399  1.0018
 8228SOL    HW226424   4.870   0.629   1.996  1.0720  0.9661 -0.6592
 8229SOL     OW26425   9.541   9.086   3.337  0.1490  0.0942 -0.0738
 8229SOL    HW126426   9.610   9.080   3.403 -0.2939 -0.6941  0.3408
 8229SOL    HW226427   9.587   9.102   3.255  0.7485  0.5872  0.3467
 8230SOL     OW26428   6.935   5.298   3.596 -0.0838  0.2571 -0.8769
 8230SOL    HW126429   6.845   5.319   3.623 -1.8764 -0.3318 -5.3642
 8230SOL    HW226430   6.956   5.366   3.531  2.5072 -0.0257 -0.4295
 8231SOL     OW26431   1.579   5.965   6.320  0.4905  0.0979  0.1151
 8231SOL    HW126432   1.574   6.048   6.273 -3.0925 -0.6406 -1.0657
 8231SOL    HW226433   1.564   5.988   6.412 -0.5343  0.7916 -0.2094
 8232SOL     OW26434   5.602   0.364   6.172 -0.7801  0.4023 -0.7077
 8232SOL    HW126435   5.638   0.401   6.091 -0.2808  0.7850 -0.3231
 8232SOL    HW226436   5.515   0.401   6.180 -0.4341  1.2035 -0.5339
 8233SOL     OW26437   9.535   9.520   3.533 -0.1646 -0.2129 -0.1941
 8233SOL    HW126438   9.605   9.467   3.570 -0.5727 -1.9055 -1.6652
 8233SOL    HW226439   9.577   9.568   3.461  0.5907  2.9292  2.1305
 8234SOL     OW26440   8.965   1.022   4.936 -0.3940  0.1900  0.0395
 8234SOL    HW126441   9.009   0.943   4.905  1.7624  1.7606 -1.1958
 8234SOL    HW226442   9.024   1.058   5.001 -0.8413  1.3235 -0.1623
 8235SOL     OW26443   8.300   0.168   8.566  0.1570 -0.4170 -0.1141
 8235SOL    HW126444   8.360   0.108   8.523 -1.6240 -2.2674 -0.1472
 8235SOL    HW226445   8.317   0.156   8.659  0.5633 -0.1246 -0.1472
 8236SOL     OW26446   4.067   0.293   9.181  0.2361  0.2366  0.3380
 8236SOL    HW126447   4.103   0.215   9.139  2.7779  0.5778  1.7299
 8236SOL    HW226448   4.018   0.259   9.256 -0.4964 -0.0881 -0.2630
 8237SOL     OW26449   6.858   3.449   1.047 -0.7506 -0.7910  0.3582
 8237SOL    HW126450   6.920   3.442   0.975  0.2462  1.3451  0.9346
 8237SOL    HW226451   6.912   3.470   1.124 -1.8933 -1.8878  1.5198
 8238SOL     OW26452   9.325   5.701   0.078  0.2236 -0.0632  0.4956
 8238SOL    HW126453   9.242   5.744   0.057  1.0491  1.7542  0.7556
 8238SOL    HW226454   9.389   5.772   0.080  2.0676 -1.5839 -1.0319
 8239SOL     OW26455   1.554   2.422   1.427 -0.8587  0.1360 -0.0574
 8239SOL    HW126456   1.624   2.361   1.404 -0.4682  0.3948  0.4271
 8239SOL    HW226457   1.574   2.449   1.517 -0.1375  2.1914 -0.7776
 8240SOL     OW26458   2.128   6.411   8.908 -0.5205  0.0750 -0.1112
 8240SOL    HW126459   2.061   6.351   8.874 -0.8940  1.2474 -1.5301
 8240SOL    HW226460   2.178   6.437   8.831  0.6860  0.3346  0.7339
 8241SOL     OW26461   9.323   4.246   3.588  0.2828  0.2170  0.0615
 8241SOL    HW126462   9.235   4.259   3.551  0.6147 -0.2386 -0.9464
 8241SOL    HW226463   9.323   4.297   3.669 -0.6710  0.8065 -0.2864
 8242SOL     OW26464   2.274   5.811   4.938 -0.4277 -0.5126  0.1927
 8242SOL    HW126465   2.210   5.739   4.938  0.4863 -1.3520 -0.2295
 8242SOL    HW226466   2.226   5.886   4.902 -1.3587 -0.9385  0.4930
 8243SOL     OW26467   4.843   7.000   7.936 -0.0975 -0.2964 -0.1170
 8243SOL    HW126468   4.776   6.936   7.962 -1.2018  1.0502  0.4848
 8243SOL    HW226469   4.804   7.047   7.863  0.6713 -0.2515 -0.5053
 8244SOL     OW26470   7.774   7.277   8.134  0.5512 -0.0555  0.2345
 8244SOL    HW126471   7.747   7.196   8.176  1.2557  0.7009  2.2886
 8244SOL    HW226472   7.864   7.260   8.104 -0.2649 -0.9006 -1.9588
 8245SOL     OW26473   7.191   2.650   1.639  0.0013 -0.0736  0.3749
 8245SOL    HW126474   7.122   2.653   1.705  0.3379  0.1075  0.7221
 8245SOL    HW226475   7.272   2.640   1.689  0.3042  0.5592  0.0226
 8246SOL     OW26476   0.944   6.085   2.926  0.1118 -0.2235  0.1246
 8246SOL    HW126477   0.887   6.083   2.849 -0.3362  2.3746  0.2824
 8246SOL    HW226478   0.906   6.020   2.985 -2.7266  1.3303  0.1878
 8247SOL     OW26479   3.925   6.545   2.281 -0.3539  0.4546 -0.3265
 8247SOL    HW126480   3.938   6.529   2.375  1.7682  2.8028 -0.1398
 8247SOL    HW226481   3.882   6.465   2.250 -1.6932 -0.1620  2.7211
 8248SOL     OW26482   7.514   8.421   1.193  0.3573 -0.4019 -0.0425
 8248SOL    HW126483   7.431   8.462   1.220 -0.4548 -0.7004 -1.9431
 8248SOL    HW226484   7.549   8.479   1.126  2.1037  0.0999  1.2295
 8249SOL     OW26485   6.403   6.373   6.311  0.0891  0.3945 -0.3930
 8249SOL    HW126486   6.491   6.362   6.346 -0.5175 -1.6537  0.6351
 8249SOL    HW226487   6.378   6.462   6.336  1.1040  0.2973  1.0665
 8250SOL     OW26488   3.044   7.727   6.963  0.0302  0.1595  0.3014
 8250SOL    HW126489   3.082   7.701   6.879 -0.5601  0.8957 -0.2103
 8250SOL    HW226490   3.071   7.659   7.024  2.1951  0.6540 -0.0141
 8251SOL     OW26491   0.868   6.933   5.741 -0.1631  0.1034  0.2386
 8251SOL    HW126492   0.812   6.939   5.819 -0.6190  0.0167 -0.0801
 8251SOL    HW226493   0.930   7.006   5.751 -2.1792  2.0636 -0.8365
 8252SOL     OW26494   4.501   7.772   5.149 -0.0855  0.2879  0.6560
 8252SOL    HW126495   4.578   7.821   5.123  0.2997  0.6920  2.4667
 8252SOL    HW226496   4.434   7.796   5.085  1.6282 -1.2505 -1.9172
 8253SOL     OW26497   3.378   3.715   0.315  0.1913  0.1445 -0.3747
 8253SOL    HW126498   3.398   3.789   0.372  0.1301  0.1687 -0.3844
 8253SOL    HW226499   3.365   3.641   0.374 -3.8268  0.9545  0.0166
 8254SOL     OW26500   7.672   0.199   8.937  0.1850 -0.1123  0.4235
 8254SOL    HW126501   7.682   0.176   9.029  1.2655  1.1991  0.6600
 8254SOL    HW226502   7.707   0.124   8.889 -0.1486 -0.6918  1.0635
 8255SOL     OW26503   8.503   7.080   1.280 -0.2657 -0.6418  0.4366
 8255SOL    HW126504   8.547   7.100   1.363  1.0730 -1.2803 -0.0927
 8255SOL    HW226505   8.481   7.165   1.243  0.6082 -0.2975  0.6833
 8256SOL     OW26506   2.608   2.233   2.369 -0.4607  0.1236  0.1263
 8256SOL    HW126507   2.621   2.139   2.378 -1.0020  0.0161 -0.1434
 8256SOL    HW226508   2.665   2.272   2.436 -1.5615 -0.4750  1.4832
 8257SOL     OW26509   2.357   9.174   5.353 -0.1768  0.2802  0.0221
 8257SOL    HW126510   2.275   9.147   5.395  1.5263 -2.2318  2.0266
 8257SOL    HW226511   2.377   9.104   5.291  0.5484  0.7872 -0.3371
 8258SOL     OW26512   2.145   1.079   9.569  0.6243 -0.0958  0.2338
 8258SOL    HW126513   2.100   1.116   9.493  2.6163 -0.2167 -1.0732
 8258SOL    HW226514   2.099   0.997   9.586  0.3920 -0.2793 -1.1330
 8259SOL     OW26515   8.779   2.993   4.423 -0.0466  0.0455  0.2957
 8259SOL    HW126516   8.716   3.064   4.413  2.4253  2.1879 -1.4714
 8259SOL    HW226517   8.862   3.030   4.393  2.7434 -1.7301  4.8113
 8260SOL     OW26518   9.523   2.686   0.507  0.1552 -0.2860  0.4816
 8260SOL    HW126519   9.603   2.633   0.496  0.0549 -0.4926  0.7355
 8260SOL    HW226520   9.540   2.765   0.457  0.5310 -0.3204  0.5497
 8261SOL     OW26521   2.333   7.245   1.087  0.0135 -0.0592  0.3928
 8261SOL    HW126522   2.317   7.338   1.097 -0.5080 -0.0935 -0.0630
 8261SOL    HW226523   2.248   7.204   1.106 -0.1447 -0.3369 -0.8366
 8262SOL     OW26524   1.135   2.527   5.339 -0.2477 -0.1172  0.3499
 8262SOL    HW126525   1.071   2.537   5.409 -0.9967  0.5843 -0.4166
 8262SOL    HW226526   1.084   2.495   5.264  0.3199  0.3006 -0.2269
 8263SOL     OW26527   6.514   1.686   4.769 -0.5634  0.2724 -0.5802
 8263SOL    HW126528   6.563   1.695   4.851 -1.1470 -0.9756 -0.0582
 8263SOL    HW226529   6.449   1.756   4.772  0.1331  0.9264 -0.5115
 8264SOL     OW26530   7.704   7.002   8.241  0.1158  0.4739  0.6077
 8264SOL    HW126531   7.718   7.015   8.334  0.5691  0.1314  0.5902
 8264SOL    HW226532   7.620   6.957   8.235 -0.3413  1.2834  0.7948
 8265SOL     OW26533   0.877   7.670   6.439  0.0971  0.0506  0.2790
 8265SOL    HW126534   0.804   7.660   6.499  0.0923 -2.2177 -0.0321
 8265SOL    HW226535   0.837   7.705   6.359 -0.5525 -0.6020  0.3080
 8266SOL     OW26536   8.663   2.123   0.858 -0.2312  0.0450 -0.1756
 8266SOL    HW126537   8.644   2.138   0.950  0.7691  0.1762  0.0217
 8266SOL    HW226538   8.591   2.166   0.811  0.4693  2.0531  0.4748
 8267SOL     OW26539   1.865   3.988   2.986  0.5845 -0.2679 -0.6096
 8267SOL    HW126540   1.817   3.995   2.904 -1.7598  1.5562  0.7865
 8267SOL    HW226541   1.797   3.988   3.054  2.4776 -0.4225  1.4070
 8268SOL     OW26542   0.904   1.290   4.012  0.5543  0.3990 -0.0369
 8268SOL    HW126543   0.956   1.342   3.951  0.6358 -0.7035 -0.9433
 8268SOL    HW226544   0.868   1.219   3.958  0.5073 -0.5224  1.1742
 8269SOL     OW26545   7.550   1.301   9.507 -0.4833 -0.0442 -0.5952
 8269SOL    HW126546   7.618   1.261   9.561  0.5300  0.5402 -1.3923
 8269SOL    HW226547   7.488   1.230   9.489 -0.2657 -0.5073  0.4008
 8270SOL     OW26548   4.221   7.293   7.347  0.6517 -0.2446  0.0836
 8270SOL    HW126549   4.248   7.204   7.324  0.4296 -0.1716 -0.4801
 8270SOL    HW226550   4.203   7.335   7.263  0.8085  0.3516  0.3418
 8271SOL     OW26551   7.799   2.858   5.289  0.1420 -0.2020 -0.5146
 8271SOL    HW126552   7.870   2.911   5.252 -0.7516  1.2875 -0.1759
 8271SOL    HW226553   7.730   2.921   5.310 -0.2860 -1.2637  1.5578
 8272SOL     OW26554   3.271   0.843   3.220  0.0969 -0.0062 -0.3995
 8272SOL    HW126555   3.306   0.757   3.240 -0.5619 -0.4318 -1.0190
 8272SOL    HW226556   3.184   0.826   3.181 -0.6950  0.9936  0.8480
 8273SOL     OW26557   6.691   7.502   8.249 -0.6524 -0.2472  0.5815
 8273SOL    HW126558   6.734   7.445   8.185  1.4465 -0.6693  2.2695
 8273SOL    HW226559   6.643   7.442   8.307 -2.9246  0.1585 -0.7362
 8274SOL     OW26560   5.359   6.020   0.519  0.6989 -0.0883 -0.0212
 8274SOL    HW126561   5.443   6.040   0.477  0.7470 -0.6265 -0.1924
 8274SOL    HW226562   5.328   6.104   0.552  0.3793  0.4730 -1.6535
 8275SOL     OW26563   5.690   6.835   8.168 -0.4339  0.7339 -0.2113
 8275SOL    HW126564   5.637   6.762   8.136 -1.1715  0.6070  1.1942
 8275SOL    HW226565   5.776   6.797   8.184 -0.9298  0.0388  0.9139
 8276SOL     OW26566   2.023   1.300   9.003  0.0816 -0.5107 -0.2709
 8276SOL    HW126567   2.104   1.287   8.953  1.1441  0.6724  1.0501
 8276SOL    HW226568   2.033   1.387   9.041 -0.8561 -1.2007  1.6736
 8277SOL     OW26569   1.949   6.440   5.641 -0.4274  0.4321  0.2471
 8277SOL    HW126570   1.889   6.444   5.566 -0.3797  1.4810  0.2408
 8277SOL    HW226571   2.014   6.375   5.616 -0.1773  1.0590 -0.8128
 8278SOL     OW26572   6.479   4.241   0.103  0.2375  0.1036 -0.0525
 8278SOL    HW126573   6.556   4.201   0.064  0.1388 -0.4920  0.3514
 8278SOL    HW226574   6.462   4.190   0.182 -1.6366 -0.9636 -1.0527
 8279SOL     OW26575   1.207   0.318   0.953 -0.0962 -0.1593  0.2929
 8279SOL    HW126576   1.280   0.273   0.909 -0.7292 -0.5729 -0.3548
 8279SOL    HW226577   1.233   0.320   1.045  0.8498 -0.0732  0.0421
 8280SOL     OW26578   2.347   9.016   5.940 -0.6189  0.0530  0.0169
 8280SOL    HW126579   2.294   9.019   6.020 -2.1601  0.4501 -0.9700
 8280SOL    HW226580   2.348   9.107   5.909  1.4730  0.2381  0.4910
 8281SOL     OW26581   5.638   5.913   1.290 -0.1146  0.1287  0.3057
 8281SOL    HW126582   5.543   5.925   1.283 -0.0414  1.2878  1.0957
 8281SOL    HW226583   5.669   5.921   1.199 -0.7675 -0.2055  0.0488
 8282SOL     OW26584   6.079   0.020   1.870 -0.0356 -0.1183 -0.3658
 8282SOL    HW126585   6.160   0.053   1.830  0.1006 -2.3777 -2.1931
 8282SOL    HW226586   6.011   0.041   1.807 -0.1531 -1.9159 -0.8963
 8283SOL     OW26587   3.070   2.815   1.157 -0.0413  0.1061 -0.6419
 8283SOL    HW126588   3.132   2.868   1.108  1.7018 -1.4579 -0.2540
 8283SOL    HW226589   3.114   2.797   1.240 -1.7974  0.4340  0.4094
 8284SOL     OW26590   7.952   1.576   2.560  0.1826 -0.0418 -0.1394
 8284SOL    HW126591   8.004   1.570   2.480  0.3231  0.3285 -0.0780
 8284SOL    HW226592   8.016   1.589   2.629 -0.0639  2.5055 -0.2935
 8285SOL     OW26593   9.402   6.403   4.899  0.2566 -0.2511  0.4188
 8285SOL    HW126594   9.339   6.334   4.877 -0.3218 -0.0480  1.3789
 8285SOL    HW226595   9.441   6.427   4.815 -0.3587 -0.9508 -0.0843
 8286SOL     OW26596   4.330   6.552   0.012  0.7849  0.0164  0.7662
 8286SOL    HW126597   4.362   6.548  -0.078 -1.3913  2.7590 -0.2708
 8286SOL    HW226598   4.252   6.498   0.012  0.7070  0.1271  0.9556
 8287SOL     OW26599   9.612   5.491   1.491 -0.1705 -0.1347 -0.0424
 8287SOL    HW126600   9.695   5.461   1.453  0.0196  0.1894  0.1095
 8287SOL    HW226601   9.565   5.411   1.513 -0.3867 -0.3338 -1.1774
 8288SOL     OW26602   5.682   4.665   3.344 -0.0358  0.1318 -0.1050
 8288SOL    HW126603   5.695   4.707   3.429 -1.5662  0.3214  0.0691
 8288SOL    HW226604   5.770   4.660   3.305  0.5739  0.7478  1.1472
 8289SOL     OW26605   0.460   3.190   4.244 -0.2226 -0.1087 -0.4136
 8289SOL    HW126606   0.388   3.165   4.185 -0.5052 -0.8239  0.2304
 8289SOL    HW226607   0.538   3.183   4.190 -0.4450 -1.0765 -0.6326
 8290SOL     OW26608   5.567   7.877   7.828 -0.0316 -0.1337  0.3877
 8290SOL    HW126609   5.631   7.874   7.756  1.4732 -0.3569  1.6864
 8290SOL    HW226610   5.516   7.956   7.812 -0.9749 -1.1122 -1.9189
 8291SOL     OW26611   5.932   3.193   6.699 -0.9235  0.1970  0.6097
 8291SOL    HW126612   5.950   3.104   6.730 -0.1656 -0.3634 -1.2681
 8291SOL    HW226613   6.002   3.246   6.737  0.9021 -0.7490 -1.1911
 8292SOL     OW26614   3.343   2.885   6.004  0.6382 -0.6259  0.1970
 8292SOL    HW126615   3.435   2.904   5.987  0.6376 -0.7074  0.0993
 8292SOL    HW226616   3.305   2.968   6.032  0.8665 -0.7129  0.7785
 8293SOL     OW26617   5.204   6.570   0.949 -0.7590  0.2599 -0.4435
 8293SOL    HW126618   5.168   6.484   0.930 -1.4819  0.1224  1.3906
 8293SOL    HW226619   5.269   6.555   1.017  1.5568  0.7581 -2.3927
 8294SOL     OW26620   8.889   5.768   2.038 -0.0541  0.2288  0.5612
 8294SOL    HW126621   8.879   5.838   1.974 -0.3030  0.7734  1.1782
 8294SOL    HW226622   8.978   5.736   2.025 -0.2377  0.0566 -0.3167
 8295SOL     OW26623   7.837   6.195   2.879 -0.0069 -0.5790 -0.6948
 8295SOL    HW126624   7.911   6.245   2.844 -0.8891  1.6697  0.4566
 8295SOL    HW226625   7.878   6.127   2.932  1.3372  1.2364  0.7676
 8296SOL     OW26626   3.085   6.511   7.547 -0.3384  0.4469  0.0545
 8296SOL    HW126627   3.098   6.418   7.529  0.1354 -0.0607  2.6131
 8296SOL    HW226628   2.996   6.516   7.582  0.3965  0.4994  2.0918
 8297SOL     OW26629   4.778   0.348   7.143  0.4395  0.1941  0.4929
 8297SOL    HW126630   4.772   0.433   7.187 -1.0247 -0.1478  1.0329
 8297SOL    HW226631   4.691   0.310   7.153  1.9780 -3.1102  3.7773
 8298SOL     OW26632   5.524   5.051   6.508  0.1790  0.4381 -0.2426
 8298SOL    HW126633   5.522   5.025   6.601  0.3463 -0.6208 -0.5232
 8298SOL    HW226634   5.432   5.056   6.483  0.1438 -0.9485 -0.4545
 8299SOL     OW26635   6.760   7.239   5.537 -0.4616 -0.6313 -0.4763
 8299SOL    HW126636   6.706   7.197   5.470 -0.0305 -0.5173 -0.9059
 8299SOL    HW226637   6.799   7.166   5.585 -2.5077 -0.7453  1.1318
 8300SOL     OW26638   0.761   6.296   5.690  0.2693  0.3804  0.6610
 8300SOL    HW126639   0.766   6.391   5.683 -2.0417  0.5176  0.0090
 8300SOL    HW226640   0.757   6.279   5.784 -2.4034  1.2482  0.7998
 8301SOL     OW26641   8.989   3.659   5.749  0.0808  0.2520  0.6054
 8301SOL    HW126642   8.914   3.718   5.738 -1.3595 -1.8036 -1.7006
 8301SOL    HW226643   8.953   3.572   5.730  2.8746 -0.9437  0.3519
 8302SOL     OW26644   7.955   0.655   0.195 -0.0982  0.4163 -0.5118
 8302SOL    HW126645   7.964   0.584   0.258 -3.3200  0.0142 -0.3182
 8302SOL    HW226646   8.019   0.721   0.223 -0.5753 -0.2709  2.4741
 8303SOL     OW26647   2.019   0.574   6.975  0.2502  0.0272 -0.4791
 8303SOL    HW126648   1.975   0.642   6.925 -1.1705 -1.0792 -0.7810
 8303SOL    HW226649   1.987   0.585   7.065  0.9217  0.4751 -0.2872
 8304SOL     OW26650   9.253   6.241   2.919 -0.0561  0.0755  0.2054
 8304SOL    HW126651   9.161   6.249   2.894  0.1580  1.2801 -0.2999
 8304SOL    HW226652   9.276   6.328   2.954  0.7757 -0.3380  0.7380
 8305SOL     OW26653   5.996   7.989   1.747 -0.3360  0.6409 -0.1302
 8305SOL    HW126654   5.993   7.960   1.838  1.8375 -0.0649 -0.2287
 8305SOL    HW226655   6.087   7.975   1.720 -1.0254  0.3197 -2.5790
 8306SOL     OW26656   8.008   9.077   1.400  0.6602 -0.7375  0.1468
 8306SOL    HW126657   7.977   9.076   1.309 -1.0046  0.9712  0.6291
 8306SOL    HW226658   8.084   9.134   1.400 -1.5185  2.4248  0.3361
 8307SOL     OW26659   1.111   8.114   0.281  0.2499  0.2693 -0.1497
 8307SOL    HW126660   1.053   8.049   0.320  0.2845  1.2605  1.6745
 8307SOL    HW226661   1.075   8.128   0.194 -1.2130 -0.4281  0.2983
 8308SOL     OW26662   0.760   3.311   0.475  0.2300  0.0151  0.3527
 8308SOL    HW126663   0.815   3.378   0.515  2.0823 -1.1924 -0.0238
 8308SOL    HW226664   0.750   3.244   0.543 -2.5962  1.0889  1.1513
 8309SOL     OW26665   0.980   1.461   3.733 -0.2802  0.2674  0.0909
 8309SOL    HW126666   1.066   1.477   3.695 -1.8397  1.3386 -3.4416
 8309SOL    HW226667   0.939   1.548   3.736 -1.6514 -0.3678  0.6263
 8310SOL     OW26668   1.645   5.556   4.807 -0.0734  0.0782  0.7840
 8310SOL    HW126669   1.729   5.533   4.847  0.4026  0.9246  0.3001
 8310SOL    HW226670   1.594   5.594   4.878  1.1602  2.5845  0.4605
 8311SOL     OW26671   2.673   9.600   6.123  0.3716 -0.5301  0.5387
 8311SOL    HW126672   2.647   9.606   6.216 -0.6271 -1.4050  0.3452
 8311SOL    HW226673   2.656   9.687   6.088 -2.3096 -0.9769  0.4803
 8312SOL     OW26674   5.672   5.085   2.554  0.6273 -0.1270 -0.2447
 8312SOL    HW126675   5.593   5.138   2.570  0.5758 -0.0896 -0.6193
 8312SOL    HW226676   5.743   5.149   2.553  0.6890 -0.1852  0.2968
 8313SOL     OW26677   0.849   1.436   9.231 -0.4363  0.2426  0.0529
 8313SOL    HW126678   0.785   1.378   9.190 -0.9620  1.8843 -1.5987
 8313SOL    HW226679   0.798   1.513   9.257  0.2054 -0.0472  2.3478
 8314SOL     OW26680   1.218   1.969   7.005  0.0780  0.4379  0.3242
 8314SOL    HW126681   1.162   1.919   6.945  0.4079 -1.3844  1.4495
 8314SOL    HW226682   1.305   1.961   6.968  0.2335 -0.4265  0.8456
 8315SOL     OW26683   6.400   0.409   3.789  0.0046 -0.1764 -0.0695
 8315SOL    HW126684   6.347   0.474   3.744  1.2308  0.9490  0.0608
 8315SOL    HW226685   6.342   0.373   3.856  0.0856  2.8920  1.8427
 8316SOL     OW26686   7.878   1.065   3.041  0.2693  0.1186  0.5564
 8316SOL    HW126687   7.844   1.117   2.968 -1.7875 -0.2902  1.1520
 8316SOL    HW226688   7.966   1.038   3.013 -0.1501  0.6423 -1.4055
 8317SOL     OW26689   3.714   6.736   1.075  0.0093  0.6579 -0.3246
 8317SOL    HW126690   3.776   6.681   1.027 -0.5919 -0.1609 -0.1743
 8317SOL    HW226691   3.752   6.746   1.162 -0.2811 -0.2257 -0.0875
 8318SOL     OW26692   0.257   0.685   6.391 -0.4323  0.1069  0.1112
 8318SOL    HW126693   0.314   0.750   6.431  1.7996 -0.7544 -1.4559
 8318SOL    HW226694   0.275   0.605   6.440  0.0267 -0.2487 -0.6145
 8319SOL     OW26695   0.944   0.437   3.834 -0.2120 -0.6279  0.5951
 8319SOL    HW126696   0.936   0.430   3.929 -0.9091 -0.6438  0.5428
 8319SOL    HW226697   0.944   0.347   3.803  0.2805 -0.6323  0.5913
 8320SOL     OW26698   0.427   6.216   7.593  0.3166 -0.3070 -0.2430
 8320SOL    HW126699   0.495   6.278   7.621 -0.3700 -0.5941  2.3116
 8320SOL    HW226700   0.424   6.226   7.497  2.3226  1.3750 -0.2144
 8321SOL     OW26701   3.541   0.863   6.720 -0.7251 -0.1499 -0.4694
 8321SOL    HW126702   3.508   0.773   6.726 -0.5676 -0.1552  0.3500
 8321SOL    HW226703   3.622   0.855   6.669 -1.6735 -0.2066 -2.0466
 8322SOL     OW26704   3.215   7.753   2.497  0.5365 -0.1019 -0.5257
 8322SOL    HW126705   3.245   7.780   2.411 -0.3429 -1.0087 -1.1349
 8322SOL    HW226706   3.160   7.826   2.527 -1.0815 -0.7399 -1.7652
 8323SOL     OW26707   5.491   2.717   7.310 -0.2066 -0.3512  0.2599
 8323SOL    HW126708   5.513   2.687   7.222 -0.5667  0.1261 -0.0005
 8323SOL    HW226709   5.432   2.650   7.344  0.0352 -0.6015  0.1841
 8324SOL     OW26710   5.190   8.588   3.708  0.4971 -0.1853  0.2187
 8324SOL    HW126711   5.121   8.655   3.705  1.2370  0.5765 -0.0840
 8324SOL    HW226712   5.258   8.621   3.649 -0.1768 -2.4217 -1.9446
 8325SOL     OW26713   6.795   0.069   2.797 -0.1221 -0.7630  0.2521
 8325SOL    HW126714   6.854   0.118   2.855 -0.8699 -0.4331  0.7393
 8325SOL    HW226715   6.731   0.133   2.767  0.1616 -0.9584 -0.8469
 8326SOL     OW26716   1.569   8.593   1.043  0.0236  0.1072  0.1947
 8326SOL    HW126717   1.489   8.619   0.997  1.8400  1.4752 -2.4293
 8326SOL    HW226718   1.623   8.552   0.976  1.3915 -1.1840  1.9892
 8327SOL     OW26719   5.539   1.541   0.929 -0.1654 -0.8114  0.1859
 8327SOL    HW126720   5.522   1.492   1.010 -0.7204  0.7538  1.0621
 8327SOL    HW226721   5.595   1.483   0.877 -1.1008 -2.5127  0.9944
 8328SOL     OW26722   6.030   4.563   8.366 -0.3686 -0.2413  0.8629
 8328SOL    HW126723   5.938   4.583   8.381 -1.0842 -0.7271 -2.2314
 8328SOL    HW226724   6.066   4.642   8.327 -0.3616 -1.1299 -1.0178
 8329SOL     OW26725   2.024   4.167   2.250  0.4937 -0.8504  0.0827
 8329SOL    HW126726   1.987   4.250   2.281 -1.9464 -2.8556  3.2363
 8329SOL    HW226727   1.956   4.130   2.193  0.7099 -1.4839  0.2256
 8330SOL     OW26728   2.063   4.495   9.086 -0.4166  0.2696  0.0343
 8330SOL    HW126729   1.983   4.496   9.138  0.1673 -2.8765  1.2173
 8330SOL    HW226730   2.132   4.522   9.147  0.2953 -3.5839  1.2148
 8331SOL     OW26731   7.073   1.051   8.706 -0.3649 -0.1739  0.0917
 8331SOL    HW126732   7.054   0.971   8.658 -0.1917 -0.7881  1.0272
 8331SOL    HW226733   6.988   1.095   8.713 -0.0830  0.9927 -2.5723
 8332SOL     OW26734   8.349   6.101   1.091  0.0559 -0.3273  0.1281
 8332SOL    HW126735   8.430   6.133   1.131 -0.5532 -0.8579  1.8681
 8332SOL    HW226736   8.306   6.179   1.057  0.3519  0.2394  1.0115
 8333SOL     OW26737   8.620   8.831   3.442  0.0146  0.1629  0.0116
 8333SOL    HW126738   8.704   8.786   3.444  0.3745  0.5815 -2.5136
 8333SOL    HW226739   8.625   8.895   3.513  1.9651  0.3908 -0.2903
 8334SOL     OW26740   4.890   3.206   9.272 -0.2318  0.3341 -0.0815
 8334SOL    HW126741   4.926   3.270   9.211  3.5701  0.2013  1.7227
 8334SOL    HW226742   4.964   3.149   9.293 -1.8302 -0.7652  3.2153
 8335SOL     OW26743   0.908   6.881   6.379 -0.2521  0.0546 -0.0833
 8335SOL    HW126744   0.925   6.964   6.335  0.2292  0.9482  1.7235
 8335SOL    HW226745   0.965   6.818   6.334 -0.5778  0.6856 -1.4325
 8336SOL     OW26746   1.988   7.135   5.801 -0.1806 -0.3953  0.0442
 8336SOL    HW126747   2.011   7.092   5.884 -1.4066  0.1523  0.6965
 8336SOL    HW226748   2.035   7.086   5.735  0.6367 -1.0077  1.0460
 8337SOL     OW26749   6.057   4.020   5.019 -0.0857  0.2433  0.2410
 8337SOL    HW126750   6.140   3.972   5.023 -0.9584 -1.2484  1.4211
 8337SOL    HW226751   6.046   4.042   4.926  1.1783 -0.3116 -0.0580
 8338SOL     OW26752   6.616   3.078   4.433  0.1970 -0.1664 -0.3196
 8338SOL    HW126753   6.598   3.066   4.526  1.2154 -0.2280 -0.1165
 8338SOL    HW226754   6.660   3.163   4.428  1.4899 -0.8239 -0.5376
 8339SOL     OW26755   2.544   2.315   0.957 -0.0417  0.2501  0.3012
 8339SOL    HW126756   2.546   2.322   1.052  0.0867 -1.0769  0.4174
 8339SOL    HW226757   2.477   2.249   0.939  1.7422 -1.4912 -0.3492
 8340SOL     OW26758   4.566   7.372   5.886 -0.1819  0.0520  0.2381
 8340SOL    HW126759   4.496   7.380   5.822  0.7134  1.0539 -0.6472
 8340SOL    HW226760   4.645   7.401   5.840  1.0156 -1.9330  0.9000
 8341SOL     OW26761   5.516   1.730   5.171 -0.0388  0.2475  0.5204
 8341SOL    HW126762   5.516   1.805   5.231 -0.5541  0.6789 -0.0050
 8341SOL    HW226763   5.442   1.677   5.199 -0.7808  0.8670 -0.2309
 8342SOL     OW26764   4.824   0.689   2.512  0.0688  0.2285 -0.4046
 8342SOL    HW126765   4.742   0.665   2.469  2.3411 -3.1366 -3.4364
 8342SOL    HW226766   4.849   0.772   2.472 -0.6578  0.0176 -1.3212
 8343SOL     OW26767   0.436   9.560   5.720 -0.5943 -0.5168 -0.6968
 8343SOL    HW126768   0.481   9.544   5.802 -0.9466 -1.0892 -0.6090
 8343SOL    HW226769   0.394   9.477   5.699  0.3993 -0.7165 -2.0331
 8344SOL     OW26770   7.566   2.767   2.503 -0.0280 -0.0936 -0.3370
 8344SOL    HW126771   7.478   2.730   2.495  0.0625 -0.6612  1.0218
 8344SOL    HW226772   7.553   2.852   2.546  0.0675 -0.1497 -0.1936
 8345SOL     OW26773   1.557   8.962   1.572  0.1188  0.5169 -0.3862
 8345SOL    HW126774   1.626   8.916   1.619 -0.7438 -1.3072 -0.8147
 8345SOL    HW226775   1.584   8.959   1.481 -1.1283 -1.5202 -0.7652
 8346SOL     OW26776   8.893   6.186   3.131 -0.6722  0.6974 -0.3619
 8346SOL    HW126777   8.834   6.119   3.168 -0.2913  1.1826  1.2136
 8346SOL    HW226778   8.937   6.142   3.059 -0.4291 -0.7848  0.6368
 8347SOL     OW26779   8.177   3.711   5.706 -0.3263 -0.6804  0.2371
 8347SOL    HW126780   8.267   3.740   5.698 -0.3383  0.1189  2.3911
 8347SOL    HW226781   8.153   3.731   5.796 -3.3669  1.2138 -0.8465
 8348SOL     OW26782   3.386   8.318   1.964 -0.5183 -0.3420 -0.2467
 8348SOL    HW126783   3.380   8.389   2.028 -4.0288 -0.1041 -0.6344
 8348SOL    HW226784   3.368   8.239   2.015 -3.2775 -0.1571 -0.7735
 8349SOL     OW26785   7.655   5.873   1.173 -0.4135 -0.1369  0.1195
 8349SOL    HW126786   7.644   5.932   1.248  1.8345 -2.5413  2.5441
 8349SOL    HW226787   7.601   5.797   1.194 -1.1815 -0.1415 -1.6663
 8350SOL     OW26788   4.474   1.928   6.877 -0.7061  0.2548  0.2273
 8350SOL    HW126789   4.459   2.021   6.857 -1.0609  0.0086 -0.6881
 8350SOL    HW226790   4.390   1.886   6.861 -0.6021 -0.2011  0.8470
 8351SOL     OW26791   8.374   6.722   5.264 -0.1918 -0.0868  0.0322
 8351SOL    HW126792   8.342   6.679   5.343 -0.9235  0.7588  0.2135
 8351SOL    HW226793   8.456   6.676   5.243  0.5641  0.3227  1.8612
 8352SOL     OW26794   6.890   3.631   0.710 -0.6993  0.3234 -0.3600
 8352SOL    HW126795   6.937   3.580   0.777 -1.5737 -0.9430 -0.6941
 8352SOL    HW226796   6.917   3.592   0.627 -1.3034  0.4777 -0.6282
 8353SOL     OW26797   8.469   9.566   5.924  0.3776  0.2833  0.0022
 8353SOL    HW126798   8.385   9.568   5.879 -0.0799  0.9317  0.8653
 8353SOL    HW226799   8.507   9.652   5.907 -0.2704  0.9344  1.7000
 8354SOL     OW26800   6.172   2.873   2.460 -0.3695 -0.0554  0.5224
 8354SOL    HW126801   6.133   2.900   2.377 -0.5342  0.4141  0.7519
 8354SOL    HW226802   6.211   2.953   2.495  2.0755 -0.7614 -0.3848
 8355SOL     OW26803   5.433   1.422   0.298 -0.0525  0.2645  0.0780
 8355SOL    HW126804   5.371   1.376   0.355 -2.2453  2.1973 -0.6286
 8355SOL    HW226805   5.415   1.387   0.211  0.1203  0.5781 -0.0820
 8356SOL     OW26806   8.799   1.856   8.892 -0.2808  0.8453 -0.2239
 8356SOL    HW126807   8.800   1.846   8.987  0.0276  1.2628 -0.1770
 8356SOL    HW226808   8.884   1.822   8.863  0.5329  2.6578 -0.1177
 8357SOL     OW26809   8.079   8.216   1.199  0.2529  0.0598 -0.0549
 8357SOL    HW126810   8.162   8.195   1.155  1.2652 -0.5510  2.0118
 8357SOL    HW226811   8.024   8.140   1.183  1.1241 -0.7990  0.8688
 8358SOL     OW26812   5.552   2.041   8.749 -0.3571  0.7223 -0.0355
 8358SOL    HW126813   5.488   2.083   8.807 -1.7022 -1.3088  0.0502
 8358SOL    HW226814   5.542   1.948   8.766  1.8660  0.2627 -0.8826
 8359SOL     OW26815   7.704   9.357   0.464  0.3525  0.2602 -0.1479
 8359SOL    HW126816   7.774   9.398   0.515  0.6205  1.9298 -1.7728
 8359SOL    HW226817   7.750   9.296   0.406  0.1929 -0.4871  0.4935
 8360SOL     OW26818   7.276   0.261   7.707 -0.1319 -0.1229  0.1016
 8360SOL    HW126819   7.261   0.289   7.797 -0.0359 -1.1116  0.4389
 8360SOL    HW226820   7.349   0.199   7.713 -0.3915 -0.5093 -0.5978
 8361SOL     OW26821   2.493   7.374   4.909 -0.4405  0.4406  0.4940
 8361SOL    HW126822   2.537   7.458   4.898 -0.5729  0.5920  1.1160
 8361SOL    HW226823   2.422   7.392   4.971 -0.2047 -0.2214  0.9660
 8362SOL     OW26824   2.688   0.275   9.080 -0.1180 -0.2279  0.3477
 8362SOL    HW126825   2.744   0.343   9.042  2.1943 -2.1183  0.1439
 8362SOL    HW226826   2.683   0.208   9.012 -0.2088 -1.3907  1.4692
 8363SOL     OW26827   5.558   6.707   5.245 -0.3270 -0.8547 -0.0565
 8363SOL    HW126828   5.629   6.689   5.306 -0.4093 -0.2248  0.2224
 8363SOL    HW226829   5.517   6.621   5.231  2.1639 -1.8132 -2.3669
 8364SOL     OW26830   2.488   2.778   1.830 -0.6929  0.1129  0.3248
 8364SOL    HW126831   2.462   2.838   1.760  3.9377 -0.4935 -2.2929
 8364SOL    HW226832   2.554   2.826   1.880 -0.3944 -1.1771  1.2123
 8365SOL     OW26833   4.198   3.056   2.110  0.1187 -0.0450  0.2812
 8365SOL    HW126834   4.270   3.037   2.050  0.3222 -2.3588  1.1313
 8365SOL    HW226835   4.205   3.149   2.129  0.8813  0.4727 -2.1786
 8366SOL     OW26836   2.646   5.550   0.223 -0.3685  0.1314 -0.2752
 8366SOL    HW126837   2.601   5.583   0.145 -2.0153 -1.1632  0.0606
 8366SOL    HW226838   2.575   5.517   0.278  0.9502 -1.0465  0.7617
 8367SOL     OW26839   4.950   5.824   3.922  0.1346 -0.2596  0.1045
 8367SOL    HW126840   4.949   5.917   3.946  0.9036 -0.1080 -0.4256
 8367SOL    HW226841   4.928   5.823   3.829  0.4717 -0.5848  0.0269
 8368SOL     OW26842   5.880   4.239   4.555  0.0340  0.4029 -0.2978
 8368SOL    HW126843   5.882   4.200   4.643 -0.9860  1.0833  0.0492
 8368SOL    HW226844   5.965   4.218   4.518  0.6302  0.4029  0.9971
 8369SOL     OW26845   1.993   0.352   0.141 -0.3871  0.1854 -0.4163
 8369SOL    HW126846   1.975   0.275   0.088 -0.6241 -1.2243  1.5890
 8369SOL    HW226847   2.086   0.370   0.126 -0.2939 -0.5852 -0.8193
 8370SOL     OW26848   1.938   8.780   6.178  0.3984 -0.3874  0.0212
 8370SOL    HW126849   1.908   8.752   6.091 -0.1337 -0.6062  0.2684
 8370SOL    HW226850   2.026   8.813   6.164  0.0925  0.1490 -0.7122
 8371SOL     OW26851   1.686   2.464   2.337  0.8147  0.3024 -0.2919
 8371SOL    HW126852   1.687   2.524   2.263 -0.1706 -1.6185 -1.9687
 8371SOL    HW226853   1.775   2.430   2.344  0.8091  0.1571 -0.9136
 8372SOL     OW26854   2.076   3.275   7.891 -0.5164 -0.1745 -0.8224
 8372SOL    HW126855   2.149   3.309   7.840 -0.6730  0.2109 -0.7892
 8372SOL    HW226856   2.051   3.194   7.845  0.0611 -0.4178 -0.7087
 8373SOL     OW26857   0.362   2.943   4.448 -0.0677  0.1932  0.7901
 8373SOL    HW126858   0.346   2.850   4.433  0.9189  0.0816  0.3596
 8373SOL    HW226859   0.346   2.985   4.363  0.8104  0.2225  0.6293
 8374SOL     OW26860   8.226   0.503   2.143  0.3790 -0.3950  0.1299
 8374SOL    HW126861   8.194   0.581   2.099  0.0030 -0.2221  0.6957
 8374SOL    HW226862   8.310   0.484   2.101  0.1246 -0.1246 -0.5158
 8375SOL     OW26863   4.937   8.144   7.674 -0.5947 -0.0521  0.0476
 8375SOL    HW126864   4.961   8.229   7.635 -0.0244 -0.9876 -1.7431
 8375SOL    HW226865   4.844   8.152   7.692 -1.0335  0.2575 -2.1130
 8376SOL     OW26866   1.377   3.103   6.475 -0.0195 -0.0628 -0.6204
 8376SOL    HW126867   1.371   3.082   6.568 -2.3579 -0.1403 -0.7310
 8376SOL    HW226868   1.451   3.051   6.443 -0.2074 -1.3094  0.8504
 8377SOL     OW26869   3.075   5.936   1.535  0.5248  0.2550  0.0406
 8377SOL    HW126870   3.073   5.960   1.628 -0.1696 -0.3555  0.1942
 8377SOL    HW226871   3.059   6.018   1.489 -1.6350  0.1672  0.5464
 8378SOL     OW26872   4.184   0.341   5.047  0.4693  0.0460  0.0442
 8378SOL    HW126873   4.221   0.361   5.133  2.6412 -0.4554 -0.7084
 8378SOL    HW226874   4.253   0.293   5.002 -0.8632 -0.2807 -1.7626
 8379SOL     OW26875   8.162   9.412   4.052  0.1650 -0.0102  0.1136
 8379SOL    HW126876   8.110   9.486   4.021 -1.1946 -1.5845 -1.6261
 8379SOL    HW226877   8.097   9.343   4.068  1.4663 -1.1087  0.8011
 8380SOL     OW26878   3.794   8.070   3.927 -0.0237 -0.3748  0.0641
 8380SOL    HW126879   3.791   8.147   3.984 -1.3053  0.3487 -0.9155
 8380SOL    HW226880   3.767   8.103   3.842  0.8010 -1.6503 -0.7154
 8381SOL     OW26881   7.297   1.924   5.108  0.2020 -0.2278  0.2341
 8381SOL    HW126882   7.298   1.844   5.161  0.6907  0.1256  0.7731
 8381SOL    HW226883   7.206   1.935   5.082  0.1891 -1.1354 -0.1100
 8382SOL     OW26884   2.431   2.575   5.569 -0.0683  0.1243 -0.3831
 8382SOL    HW126885   2.507   2.546   5.518  1.1055  1.3770  0.5684
 8382SOL    HW226886   2.369   2.502   5.564  0.9501 -0.6945 -1.6695
 8383SOL     OW26887   4.363   4.559   4.848 -0.4229  0.7721 -0.5890
 8383SOL    HW126888   4.392   4.543   4.938 -0.6019  0.5164 -0.5780
 8383SOL    HW226889   4.395   4.648   4.829  1.7405 -0.0461 -1.1187
 8384SOL     OW26890   6.060   3.028   1.722 -0.7563 -0.1763  0.0500
 8384SOL    HW126891   6.106   2.944   1.723 -0.1489  0.1340  1.9451
 8384SOL    HW226892   6.091   3.072   1.642  0.6807 -0.8214  0.2230
 8385SOL     OW26893   6.866   3.603   8.676 -0.4696  0.4235  0.3651
 8385SOL    HW126894   6.847   3.535   8.740  0.0246 -0.4767 -0.4210
 8385SOL    HW226895   6.916   3.559   8.608 -0.6738  1.4320 -0.4695
 8386SOL     OW26896   3.922   7.134   8.110 -0.3623 -0.0864  0.2432
 8386SOL    HW126897   3.951   7.091   8.030 -0.3472 -2.6510  1.5085
 8386SOL    HW226898   4.002   7.172   8.147 -0.3029  0.7712 -0.7405
 8387SOL     OW26899   8.286   4.657   7.820 -0.0067  0.0443  0.1081
 8387SOL    HW126900   8.276   4.643   7.914  0.8086  0.2049  0.2329
 8387SOL    HW226901   8.370   4.704   7.812  0.1751 -0.4075 -0.7308
 8388SOL     OW26902   2.491   4.196   0.401 -0.0002 -0.2527  0.2221
 8388SOL    HW126903   2.557   4.143   0.357  0.2687 -0.2494  0.6251
 8388SOL    HW226904   2.482   4.157   0.488 -1.0003 -0.6584 -0.0475
 8389SOL     OW26905   3.524   1.743   9.334 -0.2037  0.2070  0.3301
 8389SOL    HW126906   3.600   1.696   9.367 -0.2398  0.7280  1.1937
 8389SOL    HW226907   3.560   1.826   9.301 -0.1323 -0.4132 -1.2264
 8390SOL     OW26908   8.833   2.060   1.612  0.3313 -0.1585 -0.1360
 8390SOL    HW126909   8.826   1.965   1.599 -1.4976 -0.1402  0.4604
 8390SOL    HW226910   8.892   2.070   1.686  1.0906 -0.7932 -0.6406
 8391SOL     OW26911   9.077   4.048   6.390  0.3798 -0.0655  0.0221
 8391SOL    HW126912   9.113   4.063   6.303 -0.6360  1.2928 -0.1999
 8391SOL    HW226913   8.982   4.048   6.377  0.2354 -0.8298  0.9825
 8392SOL     OW26914   0.400   1.482   5.256  0.3911  0.1166 -0.5238
 8392SOL    HW126915   0.332   1.442   5.310 -1.4022 -0.6637 -3.1869
 8392SOL    HW226916   0.405   1.573   5.288 -0.8467 -0.2100  0.7013
 8393SOL     OW26917   1.593   1.722   2.578 -0.0943 -0.0521  0.3174
 8393SOL    HW126918   1.508   1.687   2.550  1.3888 -1.1598 -3.6060
 8393SOL    HW226919   1.610   1.795   2.518  2.3076 -0.8744 -0.1410
 8394SOL     OW26920   0.252   3.183   5.328 -0.0540  0.1245  0.0474
 8394SOL    HW126921   0.266   3.206   5.236 -0.5460 -1.6732 -0.5170
 8394SOL    HW226922   0.183   3.243   5.357  2.0891  2.7354  0.1740
 8395SOL     OW26923   4.347   7.304   7.716 -0.4894  0.4123  0.0708
 8395SOL    HW126924   4.422   7.314   7.656 -0.2093  2.3711  0.6656
 8395SOL    HW226925   4.376   7.239   7.779 -0.3840 -0.9197 -1.2832
 8396SOL     OW26926   1.247   2.379   7.872 -0.2935  0.5644  0.0866
 8396SOL    HW126927   1.179   2.380   7.805 -1.6790  1.2288  1.4621
 8396SOL    HW226928   1.230   2.300   7.924  0.9249 -0.0859 -0.4526
 8397SOL     OW26929   1.464   1.959   9.515 -0.6390  0.4150 -0.1859
 8397SOL    HW126930   1.478   1.907   9.594  0.6000  0.4333 -0.3728
 8397SOL    HW226931   1.394   2.019   9.539  0.0076  0.7206  1.0687
 8398SOL     OW26932   1.646   4.319   0.181  0.3567 -0.1416 -0.2217
 8398SOL    HW126933   1.586   4.247   0.162 -0.2321  0.1543  0.4768
 8398SOL    HW226934   1.711   4.315   0.111 -0.8606 -0.0302 -1.3948
 8399SOL     OW26935   0.160   7.086   1.659  0.0591 -0.5762  0.5193
 8399SOL    HW126936   0.113   7.003   1.652 -1.4516  0.3521 -1.1737
 8399SOL    HW226937   0.101   7.151   1.621  1.4091  1.2077  1.3119
 8400SOL     OW26938   4.644   4.501   2.916  0.1891  0.1588  0.3881
 8400SOL    HW126939   4.608   4.413   2.914  0.0804  0.2105 -1.1566
 8400SOL    HW226940   4.731   4.491   2.955 -0.3548 -0.3986  1.5006
 8401SOL     OW26941   0.962   8.274   1.337  0.0120  0.5460 -0.0178
 8401SOL    HW126942   0.964   8.235   1.249 -1.2689 -0.7694  0.4915
 8401SOL    HW226943   0.924   8.206   1.392 -1.4322  2.1957  1.1158
 8402SOL     OW26944   3.907   5.405   2.871 -0.2181  0.5812  0.0301
 8402SOL    HW126945   3.820   5.368   2.852  0.1552  0.2565 -1.1439
 8402SOL    HW226946   3.893   5.499   2.874 -0.4105  0.6424 -1.5432
 8403SOL     OW26947   2.171   7.557   1.824  0.1170  0.2766  0.0686
 8403SOL    HW126948   2.252   7.609   1.819  0.9919 -1.1304 -1.8549
 8403SOL    HW226949   2.197   7.469   1.796 -1.8013 -0.6109  0.8790
 8404SOL     OW26950   6.778   5.151   0.402  0.1105 -0.7017 -0.0708
 8404SOL    HW126951   6.768   5.172   0.309  1.0919 -1.1699 -0.2883
 8404SOL    HW226952   6.753   5.059   0.410  0.0901 -0.6814  0.1174
 8405SOL     OW26953   3.331   4.506   3.793 -0.5539 -0.3410  0.6394
 8405SOL    HW126954   3.403   4.562   3.762 -0.8289  0.8402  2.0060
 8405SOL    HW226955   3.345   4.422   3.749  0.0038  0.7078 -1.3254
 8406SOL     OW26956   6.433   8.489   3.209 -0.3918 -0.0270  0.3890
 8406SOL    HW126957   6.449   8.492   3.115 -1.3250 -1.2120  0.1694
 8406SOL    HW226958   6.360   8.550   3.223  0.5933  1.1477  0.5639
 8407SOL     OW26959   7.358   5.022   0.583 -0.1295  0.4119  0.3120
 8407SOL    HW126960   7.329   4.994   0.495  0.4683  0.3788  0.1211
 8407SOL    HW226961   7.451   5.040   0.572  0.2901 -1.0381  1.2801
 8408SOL     OW26962   8.377   7.662   5.196 -0.2931  0.3958 -0.2167
 8408SOL    HW126963   8.428   7.733   5.156 -0.6090  1.5955  1.3846
 8408SOL    HW226964   8.306   7.646   5.135 -0.9651  2.4147 -0.0378
 8409SOL     OW26965   9.179   0.500   3.290  0.1087  0.2052  0.0384
 8409SOL    HW126966   9.264   0.545   3.295 -0.6412  1.6745  0.1922
 8409SOL    HW226967   9.201   0.411   3.264  1.6585  0.7133 -0.5435
 8410SOL     OW26968   0.726   6.227   6.501  0.2905  0.2844  0.2167
 8410SOL    HW126969   0.729   6.135   6.475  0.2732 -0.1661  1.6921
 8410SOL    HW226970   0.638   6.239   6.537 -0.1214  1.2129 -1.0224
 8411SOL     OW26971   4.247   6.748   4.924 -0.0273  0.2962 -0.3336
 8411SOL    HW126972   4.325   6.707   4.885  0.6626  1.6673 -0.4504
 8411SOL    HW226973   4.219   6.812   4.859 -0.2334  0.9988  0.4297
 8412SOL     OW26974   0.880   6.519   2.428  0.4697 -0.1637 -0.0286
 8412SOL    HW126975   0.792   6.530   2.464 -0.3901  1.3731 -2.4046
 8412SOL    HW226976   0.919   6.606   2.432  0.6583 -0.1276 -1.8960
 8413SOL     OW26977   2.549   4.135   0.667 -0.3154 -0.1292  0.4215
 8413SOL    HW126978   2.552   4.216   0.717  0.4122  0.5496 -0.6787
 8413SOL    HW226979   2.531   4.067   0.732  0.7168  0.7092  1.6218
 8414SOL     OW26980   2.698   0.453   8.807 -0.8501 -0.2253  0.3352
 8414SOL    HW126981   2.699   0.521   8.739 -1.7000 -0.5946 -0.0706
 8414SOL    HW226982   2.689   0.501   8.889 -2.3677  0.1289 -0.0142
 8415SOL     OW26983   1.813   2.618   6.040 -0.3530  0.0508  0.3025
 8415SOL    HW126984   1.734   2.578   6.006 -0.8550 -0.2833  1.7667
 8415SOL    HW226985   1.864   2.641   5.963 -2.1113  0.7954 -0.6874
 8416SOL     OW26986   9.061   2.320   5.108 -0.3076 -0.1626 -0.4538
 8416SOL    HW126987   9.142   2.277   5.079 -0.0797 -0.6438  0.8193
 8416SOL    HW226988   9.085   2.412   5.118  0.3197 -0.4392  0.6984
 8417SOL     OW26989   1.954   8.535   3.699 -0.1113 -0.0634  0.6500
 8417SOL    HW126990   1.915   8.449   3.689 -0.1540 -0.2353  2.0438
 8417SOL    HW226991   1.900   8.593   3.646 -0.4335 -0.7967  0.1720
 8418SOL     OW26992   8.297   3.848   7.795  0.3917 -0.4354 -0.6056
 8418SOL    HW126993   8.266   3.849   7.704  1.2247  1.0346 -0.9139
 8418SOL    HW226994   8.324   3.938   7.811  3.0789 -1.2920  0.1117
 8419SOL     OW26995   8.445   2.912   2.357 -0.4265  0.1032  0.0498
 8419SOL    HW126996   8.384   2.973   2.397 -0.0419 -0.4654  1.5654
 8419SOL    HW226997   8.530   2.932   2.398  0.0380 -0.3295 -0.6710
 8420SOL     OW26998   2.948   4.247   1.576  0.3134 -0.8763  0.0974
 8420SOL    HW126999   2.957   4.314   1.509 -1.0635 -0.2953  0.4618
 8420SOL    HW227000   2.856   4.219   1.571 -0.0764 -0.2192  2.2681
 8421SOL     OW27001   3.005   2.339   2.343 -0.9432 -0.4685 -0.3656
 8421SOL    HW127002   2.978   2.264   2.396  0.3635 -0.3237  0.5571
 8421SOL    HW227003   3.096   2.321   2.320 -1.2182 -0.1073 -1.8604
 8422SOL     OW27004   2.918   8.679   7.254  0.6128 -0.2521  0.1686
 8422SOL    HW127005   2.947   8.736   7.182 -0.5793 -1.1877 -1.1096
 8422SOL    HW227006   2.832   8.713   7.279  1.2958  0.4726  1.6568
 8423SOL     OW27007   4.862   5.355   7.572 -0.5510  0.1240  0.1111
 8423SOL    HW127008   4.819   5.365   7.657 -0.2691 -0.2561  0.2990
 8423SOL    HW227009   4.888   5.263   7.568  1.0625  0.5515  0.3968
 8424SOL     OW27010   5.455   3.945   2.338  0.3153  0.0519  0.1954
 8424SOL    HW127011   5.412   4.020   2.379  1.0712  0.5378  0.1159
 8424SOL    HW227012   5.384   3.884   2.318 -0.2750  0.6341  0.4982
 8425SOL     OW27013   0.428   8.483   3.599  0.0063 -0.1684 -0.7934
 8425SOL    HW127014   0.408   8.577   3.606 -0.9778 -0.3616 -0.8177
 8425SOL    HW227015   0.468   8.474   3.512  1.6068  0.4677 -0.1461
 8426SOL     OW27016   5.306   6.032   4.280  0.7470  0.4834 -0.2905
 8426SOL    HW127017   5.366   6.029   4.354  0.1639 -4.2628  0.2881
 8426SOL    HW227018   5.222   6.000   4.315  0.3805 -1.7011 -2.7946
 8427SOL     OW27019   3.844   6.796   5.261  0.1935 -0.2649  0.1966
 8427SOL    HW127020   3.834   6.889   5.281 -2.6767 -0.4154 -0.0851
 8427SOL    HW227021   3.923   6.791   5.207  1.2095  1.7622  1.3719
 8428SOL     OW27022   1.670   4.872   2.271 -0.4755  0.8169 -0.4496
 8428SOL    HW127023   1.672   4.967   2.260  2.5065  0.8137 -0.6615
 8428SOL    HW227024   1.762   4.845   2.267 -1.3163 -2.3785 -3.0069
 8429SOL     OW27025   4.438   2.189   8.029  0.0582  0.0697 -0.1716
 8429SOL    HW127026   4.532   2.183   8.013 -0.0013 -0.0713 -0.4921
 8429SOL    HW227027   4.408   2.098   8.027  0.0123  0.0635  0.5693
 8430SOL     OW27028   0.797   7.187   3.952  0.4032  0.4568  0.0821
 8430SOL    HW127029   0.734   7.120   3.927  0.7681  0.1862 -0.1122
 8430SOL    HW227030   0.827   7.161   4.039 -1.2468  1.6694  1.0899
 8431SOL     OW27031   3.580   7.467   7.479  0.0925  0.3581  0.4293
 8431SOL    HW127032   3.559   7.479   7.572 -0.4187  0.1054  0.3463
 8431SOL    HW227033   3.663   7.514   7.468  1.0024 -0.9333  1.3718
 8432SOL     OW27034   0.191   2.389   7.151 -0.3687 -1.0376  0.7506
 8432SOL    HW127035   0.251   2.444   7.201 -1.0223  1.1172 -0.7163
 8432SOL    HW227036   0.148   2.334   7.217 -0.0880  0.6013  2.3641
 8433SOL     OW27037   5.974   4.508   1.361 -0.5055  0.3558  0.1207
 8433SOL    HW127038   5.954   4.458   1.440  1.9485  0.3407  0.8098
 8433SOL    HW227039   5.942   4.596   1.380 -1.5324 -0.0619  0.3900
 8434SOL     OW27040   3.159   7.341   4.583  0.0766 -0.0659 -0.3539
 8434SOL    HW127041   3.069   7.357   4.557  0.1012  0.6685 -0.0053
 8434SOL    HW227042   3.209   7.411   4.540  0.4610 -0.3746 -0.4177
 8435SOL     OW27043   4.374   8.804   4.084  0.4526  0.3057  0.1467
 8435SOL    HW127044   4.392   8.896   4.107 -0.4709  0.9670 -1.6104
 8435SOL    HW227045   4.446   8.756   4.125  2.4123  2.0971 -0.9493
 8436SOL     OW27046   8.104   7.822   5.237 -0.2420  0.0425  0.1719
 8436SOL    HW127047   8.024   7.815   5.186  0.1325  3.6701 -1.1580
 8436SOL    HW227048   8.154   7.892   5.195  2.8668 -0.8729  1.9896
 8437SOL     OW27049   6.307   3.816   7.783 -0.4816 -0.1388 -0.1012
 8437SOL    HW127050   6.340   3.870   7.711  0.8353 -0.7640  0.0002
 8437SOL    HW227051   6.223   3.856   7.807 -0.3621  0.8031 -1.1648
 8438SOL     OW27052   6.385   1.496   0.154 -0.8767 -0.4102  0.4178
 8438SOL    HW127053   6.385   1.405   0.184 -3.1475 -0.3298  0.8752
 8438SOL    HW227054   6.297   1.527   0.174  0.0443  2.1194  0.9016
 8439SOL     OW27055   0.756   7.149   3.288  0.2816  0.0879 -0.2014
 8439SOL    HW127056   0.702   7.162   3.210 -1.0886  1.6711  0.9376
 8439SOL    HW227057   0.748   7.231   3.336  0.2614 -1.1735  2.0888
 8440SOL     OW27058   9.213   6.977   3.603  0.0800  0.2195  0.2296
 8440SOL    HW127059   9.218   6.909   3.536  0.3103 -0.6789  1.1293
 8440SOL    HW227060   9.269   7.047   3.570  0.2867 -0.2545 -0.4529
 8441SOL     OW27061   8.876   9.309   7.837  0.4073 -0.0493  0.3408
 8441SOL    HW127062   8.902   9.229   7.883 -0.1558  0.4134  1.5061
 8441SOL    HW227063   8.874   9.376   7.905  0.2742  0.8204 -0.5106
 8442SOL     OW27064   9.474   2.285   7.164  0.0735 -0.2536 -0.4084
 8442SOL    HW127065   9.510   2.339   7.234 -0.5006 -1.6731  1.0642
 8442SOL    HW227066   9.387   2.260   7.195  0.2968 -1.9615 -1.0115
 8443SOL     OW27067   3.379   5.901   1.715  0.2072  0.0816 -0.6843
 8443SOL    HW127068   3.397   5.889   1.808 -0.6349  0.0645 -0.5175
 8443SOL    HW227069   3.288   5.875   1.705  0.5033 -0.6368 -1.6527
 8444SOL     OW27070   9.560   3.694   2.750  0.0472 -0.2034 -0.0077
 8444SOL    HW127071   9.616   3.695   2.827 -0.6285 -0.3420  0.4866
 8444SOL    HW227072   9.582   3.612   2.705  3.0715  1.4524 -1.9453
 8445SOL     OW27073   6.421   1.048   8.633  0.2104  0.2951  0.4092
 8445SOL    HW127074   6.394   1.105   8.562 -0.8812  2.0225  2.0932
 8445SOL    HW227075   6.407   0.959   8.600 -0.3567  1.0279 -1.4450
 8446SOL     OW27076   9.151   5.188   8.548  0.1369  0.6734  0.2733
 8446SOL    HW127077   9.095   5.120   8.586 -0.5921  0.1497 -1.6433
 8446SOL    HW227078   9.094   5.265   8.541  0.8844  1.4819  2.1787
 8447SOL     OW27079   9.611   7.630   8.370 -0.2178  0.3578 -0.4615
 8447SOL    HW127080   9.600   7.723   8.348  0.6579  0.6116  0.1049
 8447SOL    HW227081   9.525   7.592   8.355 -0.1949  0.9219 -2.2739
 8448SOL     OW27082   6.968   8.584   1.184 -0.2135 -0.1762  0.3658
 8448SOL    HW127083   6.960   8.606   1.091 -0.5613 -0.1783  0.3938
 8448SOL    HW227084   6.882   8.603   1.221  0.1958  0.7153  0.8841
 8449SOL     OW27085   0.458   7.314   7.117 -0.3430 -0.3548  0.0313
 8449SOL    HW127086   0.451   7.230   7.161 -0.5979 -0.2101  0.2698
 8449SOL    HW227087   0.396   7.309   7.045  0.2425 -0.6785 -0.4585
 8450SOL     OW27088   6.896   1.147   0.712 -0.6429  0.5298  0.2182
 8450SOL    HW127089   6.853   1.215   0.764  0.8380 -0.0476  2.3038
 8450SOL    HW227090   6.874   1.066   0.756 -1.2393 -0.2490 -1.4380
 8451SOL     OW27091   5.478   9.457   5.341  0.1464  0.1953  0.2293
 8451SOL    HW127092   5.434   9.538   5.367 -1.2464 -0.7244  0.8947
 8451SOL    HW227093   5.418   9.417   5.278  0.1248 -1.0002  0.9906
 8452SOL     OW27094   6.585   7.971   6.853 -0.6776 -0.1513 -0.2445
 8452SOL    HW127095   6.490   7.964   6.859 -0.5633 -1.8669  0.2284
 8452SOL    HW227096   6.613   7.882   6.829  0.8654  0.1200  0.4786
 8453SOL     OW27097   5.770   6.665   9.360  0.1906 -0.4790  0.1433
 8453SOL    HW127098   5.815   6.583   9.382 -0.4660 -0.8434  0.1740
 8453SOL    HW227099   5.791   6.724   9.432 -1.3884 -1.4431  1.4751
 8454SOL     OW27100   9.495   4.762   8.875 -0.0465  0.2001 -0.4644
 8454SOL    HW127101   9.528   4.846   8.843 -0.1802  1.1685  1.8002
 8454SOL    HW227102   9.521   4.700   8.807  2.3910  1.6253 -0.9655
 8455SOL     OW27103   3.131   4.768   9.112 -0.3563  0.0100  0.1475
 8455SOL    HW127104   3.136   4.736   9.022  1.0176  0.8327 -0.1014
 8455SOL    HW227105   3.086   4.698   9.160  0.1567 -1.0741 -0.8987
 8456SOL     OW27106   0.716   8.879   7.795 -0.0534  0.4947 -0.3024
 8456SOL    HW127107   0.656   8.850   7.726 -0.1535  0.6104 -0.2636
 8456SOL    HW227108   0.736   8.799   7.844  0.6056  0.2719 -0.9143
 8457SOL     OW27109   2.291   2.906   0.110  0.2468 -0.1844  0.1115
 8457SOL    HW127110   2.298   2.915   0.205 -0.8883  0.4939  0.1522
 8457SOL    HW227111   2.323   2.988   0.075  0.7207 -0.4577 -0.1015
 8458SOL     OW27112   2.319   3.274   4.687  0.1866 -0.1836  0.2830
 8458SOL    HW127113   2.414   3.264   4.681  0.0353 -1.1080 -1.0546
 8458SOL    HW227114   2.302   3.289   4.780  1.6732  0.3954  0.4839
 8459SOL     OW27115   3.698   8.167   1.246  0.3939  0.4575 -0.1990
 8459SOL    HW127116   3.636   8.113   1.296  0.7631 -0.6292 -0.8839
 8459SOL    HW227117   3.666   8.257   1.257 -0.8007  0.0038  0.1587
 8460SOL     OW27118   6.015   0.082   8.179 -0.0442  0.4870 -0.3762
 8460SOL    HW127119   5.997   0.167   8.140  2.0476  0.9504 -0.4099
 8460SOL    HW227120   6.098   0.054   8.141 -0.4595 -1.3885 -0.0367
 8461SOL     OW27121   1.301   3.926   8.343 -0.4257 -0.2516  0.0686
 8461SOL    HW127122   1.388   3.902   8.376  0.1313  3.2777  1.6640
 8461SOL    HW227123   1.244   3.916   8.419 -0.5124  1.3572  0.2583
 8462SOL     OW27124   6.383   3.104   2.923  0.6591 -0.7390 -0.1584
 8462SOL    HW127125   6.428   3.137   2.845 -0.4264 -1.7125 -1.2468
 8462SOL    HW227126   6.290   3.126   2.908  0.3867 -1.2624  0.6964
 8463SOL     OW27127   1.858   5.345   4.614 -0.0961  0.0021 -0.0771
 8463SOL    HW127128   1.897   5.305   4.536 -0.9651  0.3286 -0.6992
 8463SOL    HW227129   1.828   5.431   4.585 -0.4790  0.1103  0.6060
 8464SOL     OW27130   6.189   0.192   0.449 -0.1509  0.2243  0.0837
 8464SOL    HW127131   6.251   0.133   0.491 -1.3125 -0.7736  0.4727
 8464SOL    HW227132   6.234   0.276   0.445  0.7530 -0.1532  1.5097
 8465SOL     OW27133   9.197   6.793   3.296  0.4888  0.3935  0.2569
 8465SOL    HW127134   9.132   6.772   3.363 -2.7117  0.0745 -2.6532
 8465SOL    HW227135   9.210   6.888   3.303  0.3461  0.3371  1.3937
 8466SOL     OW27136   5.165   3.244   2.217  0.4904  0.7208 -0.0292
 8466SOL    HW127137   5.138   3.310   2.153 -1.5594 -0.3632 -0.3668
 8466SOL    HW227138   5.128   3.275   2.300  2.6422  1.8176  0.6047
 8467SOL     OW27139   4.445   3.490   2.647  0.6986 -0.0812  0.2274
 8467SOL    HW127140   4.495   3.484   2.566  2.7632  1.8283  1.2219
 8467SOL    HW227141   4.509   3.468   2.716 -0.7115 -0.6593  1.4052
 8468SOL     OW27142   4.898   0.191   3.145  0.1705 -0.0088 -0.0958
 8468SOL    HW127143   4.934   0.102   3.139 -0.1875 -0.1246 -0.5220
 8468SOL    HW227144   4.953   0.244   3.087  1.4545  0.4045  1.4380
 8469SOL     OW27145   5.629   6.412   8.315  0.0429  0.5003 -0.0026
 8469SOL    HW127146   5.569   6.350   8.357 -1.0665 -0.4450 -2.7125
 8469SOL    HW227147   5.715   6.374   8.327 -0.5859 -1.5067 -1.2921
 8470SOL     OW27148   1.262   3.096   5.003 -0.0926  0.1551  0.1322
 8470SOL    HW127149   1.209   3.018   4.985 -3.0909  1.6381  1.8781
 8470SOL    HW227150   1.285   3.130   4.916  0.5775 -2.1197 -0.6692
 8471SOL     OW27151   6.916   3.494   3.711  0.4945  0.1867 -0.1007
 8471SOL    HW127152   6.825   3.526   3.713  0.4326  0.1256 -1.1722
 8471SOL    HW227153   6.945   3.497   3.802 -0.5470  0.3238  0.2377
 8472SOL     OW27154   8.165   2.230   0.201  0.1049 -0.2420  0.1861
 8472SOL    HW127155   8.091   2.223   0.141  0.7630 -0.5131 -0.6117
 8472SOL    HW227156   8.177   2.142   0.236  1.0474 -0.5768 -0.9214
 8473SOL     OW27157   7.722   2.809   7.988 -1.0400  0.2740  0.3432
 8473SOL    HW127158   7.682   2.876   7.931 -0.8639  0.5879  0.5893
 8473SOL    HW227159   7.815   2.832   7.991 -0.7369 -0.7168 -0.5926
 8474SOL     OW27160   7.275   5.428   6.953  0.8575 -0.2171 -0.1179
 8474SOL    HW127161   7.336   5.408   7.025  0.7198 -0.1512  0.0180
 8474SOL    HW227162   7.311   5.382   6.877  0.8649 -0.4931  0.0523
 8475SOL     OW27163   3.306   0.837   9.164  0.3349  0.1785  0.2576
 8475SOL    HW127164   3.370   0.868   9.229  0.7872 -1.5678  0.7132
 8475SOL    HW227165   3.275   0.754   9.200 -0.6284 -0.0212 -0.9909
 8476SOL     OW27166   1.321   6.095   5.904  0.2884 -0.3981  0.4066
 8476SOL    HW127167   1.262   6.050   5.843  1.0328  0.6368 -1.1355
 8476SOL    HW227168   1.340   6.179   5.861  2.0537 -0.2748  1.3563
 8477SOL     OW27169   3.653   5.500   0.060  0.7664  0.8068 -0.2469
 8477SOL    HW127170   3.567   5.542   0.071  0.4992  0.5190 -1.1747
 8477SOL    HW227171   3.635   5.406   0.070  0.8416  0.6890 -1.1520
 8478SOL     OW27172   4.876   2.845   4.990 -0.1647 -0.0010  0.5533
 8478SOL    HW127173   4.796   2.896   4.974 -0.7033 -0.4256  1.7464
 8478SOL    HW227174   4.946   2.897   4.951 -1.2110 -0.4945 -2.1970
 8479SOL     OW27175   2.820   0.305   0.780 -0.0224 -0.2141 -0.6617
 8479SOL    HW127176   2.863   0.360   0.846 -0.8554  1.6253 -1.5885
 8479SOL    HW227177   2.737   0.349   0.761 -1.5507 -2.7312 -0.2271
 8480SOL     OW27178   7.287   6.129   7.787  0.0175 -0.3308 -0.2243
 8480SOL    HW127179   7.245   6.170   7.711 -1.4498  1.3241  1.3832
 8480SOL    HW227180   7.228   6.057   7.811  0.7600 -1.1978 -0.9365
 8481SOL     OW27181   0.548   1.062   3.732 -0.1313 -0.0788 -0.0283
 8481SOL    HW127182   0.518   1.084   3.643  1.2076 -0.3634 -0.5736
 8481SOL    HW227183   0.467   1.052   3.782 -0.9244 -0.0503 -1.2462
 8482SOL     OW27184   3.673   8.119   7.180 -0.2463  0.3364 -0.1935
 8482SOL    HW127185   3.625   8.166   7.111 -1.3265 -0.6644 -0.1617
 8482SOL    HW227186   3.760   8.159   7.180 -0.6889  1.3672 -1.1184
 8483SOL     OW27187   6.901   6.460   8.907  0.1465  0.3630 -0.0793
 8483SOL    HW127188   6.976   6.463   8.966 -0.3327  3.1963  0.5686
 8483SOL    HW227189   6.855   6.379   8.930  2.0458 -0.5479  0.7060
 8484SOL     OW27190   1.933   9.166   1.751  0.1250  0.1285 -0.0660
 8484SOL    HW127191   1.900   9.077   1.741 -1.2597  0.7210 -1.1039
 8484SOL    HW227192   2.002   9.174   1.685 -1.4713  0.5680 -1.7630
 8485SOL     OW27193   0.787   7.544   2.491  0.6291 -0.2500 -0.3500
 8485SOL    HW127194   0.879   7.557   2.513  0.5910  1.3481 -0.9929
 8485SOL    HW227195   0.788   7.482   2.419  1.3254  0.8506 -1.3174
 8486SOL     OW27196   5.771   0.677   2.439 -0.1535 -0.2945 -0.3471
 8486SOL    HW127197   5.844   0.664   2.500  0.0114 -0.5775 -0.6014
 8486SOL    HW227198   5.756   0.591   2.401 -2.4661 -0.9099  1.7184
 8487SOL     OW27199   6.942   8.237   3.237 -0.0012  0.9398  0.2158
 8487SOL    HW127200   7.009   8.173   3.217 -1.7930 -1.4925  1.4191
 8487SOL    HW227201   6.989   8.320   3.244  2.5429 -0.3209 -0.7451
 8488SOL     OW27202   2.498   2.986   4.632 -0.4189 -0.6002 -0.0618
 8488SOL    HW127203   2.559   2.914   4.643  1.6307  0.6355 -2.3687
 8488SOL    HW227204   2.530   3.053   4.692  0.1888 -0.1798 -0.8294
 8489SOL     OW27205   8.512   7.426   4.548 -0.3706 -0.3987  0.2423
 8489SOL    HW127206   8.478   7.375   4.474 -0.5902  0.6397 -0.3798
 8489SOL    HW227207   8.452   7.407   4.620 -1.7768  0.7004 -0.5930
 8490SOL     OW27208   6.473   2.732   6.263  0.3713  0.6468 -0.2658
 8490SOL    HW127209   6.432   2.695   6.341  0.3621  0.4890 -0.3454
 8490SOL    HW227210   6.530   2.662   6.230  0.1415  0.6033 -0.5748
 8491SOL     OW27211   6.958   5.016   0.078 -0.1647  0.0163  0.1735
 8491SOL    HW127212   6.924   4.929   0.098 -1.2230  0.4965  0.5427
 8491SOL    HW227213   7.041   4.999   0.034 -1.2736 -1.2515 -1.5961
 8492SOL     OW27214   6.202   7.044   8.449 -0.0765  0.1455 -0.1416
 8492SOL    HW127215   6.273   6.988   8.418 -1.0154 -0.6550 -0.9043
 8492SOL    HW227216   6.149   6.988   8.506 -0.5416  0.4934 -0.2190
 8493SOL     OW27217   0.066   3.286   9.018 -0.2441 -0.2835  0.3476
 8493SOL    HW127218   0.121   3.346   9.068  0.4082  0.4717 -1.2060
 8493SOL    HW227219   0.123   3.252   8.949 -1.2176 -0.9672 -0.1537
 8494SOL     OW27220   5.110   6.688   5.277  0.1769  0.0676 -0.4018
 8494SOL    HW127221   5.132   6.595   5.275  0.5246  0.1399 -0.0062
 8494SOL    HW227222   5.149   6.721   5.358 -0.2750  0.4770 -0.3440
 8495SOL     OW27223   3.958   8.256   7.121  0.1710  0.3487 -0.3897
 8495SOL    HW127224   4.042   8.255   7.166  0.3355  0.9547 -0.6604
 8495SOL    HW227225   3.909   8.328   7.162 -0.2643 -0.0735 -0.1541
 8496SOL     OW27226   7.030   7.914   1.767  0.8265 -0.8449 -0.0707
 8496SOL    HW127227   7.087   7.980   1.729  4.6587 -3.8148 -0.1607
 8496SOL    HW227228   7.024   7.938   1.860  0.4312  0.6527 -0.4639
 8497SOL     OW27229   4.202   5.254   7.208 -0.2336  0.4899  0.6750
 8497SOL    HW127230   4.155   5.235   7.126 -0.4795 -0.1822  0.9592
 8497SOL    HW227231   4.148   5.213   7.276  0.8512 -0.4623  0.9974
 8498SOL     OW27232   7.880   8.902   5.406 -0.5318  0.0839  0.1778
 8498SOL    HW127233   7.842   8.824   5.447 -0.3245  0.0976  0.4029
 8498SOL    HW227234   7.864   8.972   5.470  0.8836 -0.1418  0.8085
 8499SOL     OW27235   3.450   2.667   3.727 -0.0592 -0.7171  0.0917
 8499SOL    HW127236   3.448   2.572   3.720 -1.5425 -0.6218 -1.6628
 8499SOL    HW227237   3.358   2.693   3.724  0.1567  0.6935  2.9282
 8500SOL     OW27238   8.294   0.861   7.042 -0.3027  0.2464 -0.1280
 8500SOL    HW127239   8.373   0.886   6.994 -0.6321 -1.2474 -1.5211
 8500SOL    HW227240   8.320   0.783   7.091 -0.3770  0.9242  1.0297
 8501SOL     OW27241   2.951   6.830   1.272 -0.0467  0.5467 -0.0553
 8501SOL    HW127242   3.006   6.869   1.204 -0.4708  0.5022 -0.4196
 8501SOL    HW227243   2.865   6.868   1.259 -0.0720  0.7316  0.6164
 8502SOL     OW27244   5.267   9.558   0.502  0.5270 -0.1310  0.3468
 8502SOL    HW127245   5.321   9.525   0.574 -0.6554  1.0531  1.8393
 8502SOL    HW227246   5.177   9.540   0.529  0.0551 -0.0049 -1.0361
 8503SOL     OW27247   6.442   1.598   6.608 -0.0932 -0.2856 -0.0067
 8503SOL    HW127248   6.483   1.666   6.661 -0.4522 -0.1171  0.0610
 8503SOL    HW227249   6.431   1.524   6.667 -0.6456 -0.0394  0.2025
 8504SOL     OW27250   1.454   7.418   5.858 -0.0199  0.1118  0.1843
 8504SOL    HW127251   1.378   7.363   5.873  0.7489 -0.9692  0.2150
 8504SOL    HW227252   1.496   7.426   5.943  1.4561 -1.6975 -0.3018
 8505SOL     OW27253   7.546   4.557   5.668 -0.0540  0.2195  0.0698
 8505SOL    HW127254   7.592   4.539   5.586 -1.8072  0.9387 -1.1249
 8505SOL    HW227255   7.579   4.642   5.696 -0.2887  0.5010 -0.5050
 8506SOL     OW27256   4.312   5.684   5.359  0.4430  0.1419  0.9169
 8506SOL    HW127257   4.393   5.651   5.322  0.2138  1.7748 -1.3286
 8506SOL    HW227258   4.339   5.756   5.416  0.5944  1.0986 -0.3222
 8507SOL     OW27259   2.321   9.379   7.464 -0.5747 -0.0553  0.5370
 8507SOL    HW127260   2.390   9.314   7.449  0.9258  1.5578  0.0578
 8507SOL    HW227261   2.359   9.440   7.527 -1.8046  0.5429  0.7217
 8508SOL     OW27262   5.254   2.851   7.342 -0.1889  0.0280 -0.4378
 8508SOL    HW127263   5.214   2.858   7.255  1.5883 -1.1969 -1.4186
 8508SOL    HW227264   5.349   2.848   7.324  0.1535 -3.5364  1.2370
 8509SOL     OW27265   3.293   4.501   2.421 -0.1032 -0.3956  0.3048
 8509SOL    HW127266   3.374   4.536   2.459 -0.1962  0.8842 -0.6153
 8509SOL    HW227267   3.315   4.480   2.331 -0.1197 -2.5893  0.7545
 8510SOL     OW27268   5.119   0.409   2.496 -0.2749 -0.5440  0.0859
 8510SOL    HW127269   5.069   0.440   2.572  0.3264  0.8942 -0.0908
 8510SOL    HW227270   5.066   0.435   2.421  0.7492  1.1026 -0.1093
 8511SOL     OW27271   1.856   7.442   5.526 -0.6397 -0.3094 -0.2953
 8511SOL    HW127272   1.839   7.420   5.617 -0.2288  1.7653  0.3451
 8511SOL    HW227273   1.852   7.359   5.479 -1.8161 -1.2859  1.4547
 8512SOL     OW27274   5.843   3.178   1.786  0.3311  0.1809 -0.3763
 8512SOL    HW127275   5.909   3.109   1.790 -1.0426 -1.1288  0.9703
 8512SOL    HW227276   5.804   3.180   1.873 -1.2244  1.0698 -1.0397
 8513SOL     OW27277   8.521   5.171   6.756  0.4200 -0.1188 -0.1233
 8513SOL    HW127278   8.467   5.109   6.806  1.2290  0.0548  1.0145
 8513SOL    HW227279   8.586   5.202   6.820  0.9786  0.7369 -1.0885
 8514SOL     OW27280   0.207   7.405   7.235  0.5874  0.5713  0.4790
 8514SOL    HW127281   0.146   7.365   7.174  1.6228  0.0727 -0.2508
 8514SOL    HW227282   0.202   7.350   7.314 -0.3632  0.9135  0.6695
 8515SOL     OW27283   2.733   1.062   7.854  0.2172 -0.4804  0.0593
 8515SOL    HW127284   2.816   1.020   7.874  1.2182  0.9781 -0.8007
 8515SOL    HW227285   2.730   1.067   7.759 -1.0212 -0.7845  0.0543
 8516SOL     OW27286   0.320   0.823   8.703  0.5898 -0.4772 -0.1340
 8516SOL    HW127287   0.283   0.860   8.782 -2.2467  0.1990 -1.6379
 8516SOL    HW227288   0.331   0.898   8.644  2.7492 -0.9439 -0.4254
 8517SOL     OW27289   1.708   5.099   3.660 -0.2800 -0.4829 -0.2035
 8517SOL    HW127290   1.725   5.169   3.723  0.1461 -1.5821  0.9424
 8517SOL    HW227291   1.614   5.082   3.668 -0.5664  0.5309 -1.1341
 8518SOL     OW27292   5.479   0.275   7.308  0.1765  0.2092  0.4639
 8518SOL    HW127293   5.528   0.351   7.275 -0.6140  0.1104 -1.0540
 8518SOL    HW227294   5.543   0.204   7.306  0.5004  0.4948  0.3588
 8519SOL     OW27295   9.399   6.357   3.376 -0.0389  0.0109  0.0425
 8519SOL    HW127296   9.351   6.407   3.311  1.0788  0.5115 -0.4303
 8519SOL    HW227297   9.379   6.398   3.459 -1.0209 -0.2721 -0.0404
 8520SOL     OW27298   8.176   5.751   8.185 -0.9521 -0.5775  0.0508
 8520SOL    HW127299   8.174   5.667   8.231 -1.3320 -0.7264 -0.2366
 8520SOL    HW227300   8.129   5.736   8.104 -0.4473 -0.2578 -0.3060
 8521SOL     OW27301   1.682   3.563   0.468  0.1390  0.0714 -0.0900
 8521SOL    HW127302   1.673   3.479   0.423 -1.4767  0.8342 -1.3107
 8521SOL    HW227303   1.712   3.624   0.400  1.5683  0.4515  0.8439
 8522SOL     OW27304   3.427   5.047   4.805  0.1030  0.7369 -0.2893
 8522SOL    HW127305   3.334   5.027   4.818  0.2969  0.2029  0.3212
 8522SOL    HW227306   3.446   5.013   4.717  0.2624 -1.2563  0.4571
 8523SOL     OW27307   6.461   8.932   4.405  0.1285  0.1142  0.1270
 8523SOL    HW127308   6.414   8.975   4.478 -0.1745 -0.5255  0.3150
 8523SOL    HW227309   6.522   8.872   4.448 -0.2091 -0.4308 -0.1525
 8524SOL     OW27310   5.943   1.580   4.931 -0.0113  0.5857 -0.1038
 8524SOL    HW127311   5.859   1.625   4.942 -0.8536 -0.7904 -0.6336
 8524SOL    HW227312   5.942   1.512   4.998  1.5016  1.6426  1.0710
 8525SOL     OW27313   8.137   9.052   9.476  0.7007  0.0358  0.3698
 8525SOL    HW127314   8.227   9.021   9.481  1.1435  1.1926 -0.0560
 8525SOL    HW227315   8.136   9.111   9.401  0.0737  1.5370  1.4925
 8526SOL     OW27316   1.981   5.769   1.611 -0.0333 -0.3165 -0.5990
 8526SOL    HW127317   1.945   5.795   1.527  0.7195  0.8274 -0.6032
 8526SOL    HW227318   2.047   5.836   1.630 -0.3518 -0.4044  1.0038
 8527SOL     OW27319   3.877   3.670   7.007  0.1952  0.0360  0.1097
 8527SOL    HW127320   3.961   3.706   7.036  0.6972  0.5693 -1.8377
 8527SOL    HW227321   3.812   3.730   7.043  0.7560  0.5514  0.2976
 8528SOL     OW27322   3.153   4.171   0.954  0.1921  0.3985 -0.2638
 8528SOL    HW127323   3.212   4.246   0.945  1.5754 -0.5725  0.4152
 8528SOL    HW227324   3.121   4.156   0.865  0.1057  1.6115 -0.4580
 8529SOL     OW27325   5.757   1.659   3.949 -0.7454  0.8136 -0.3406
 8529SOL    HW127326   5.767   1.572   3.989 -1.4564  0.2781 -1.2805
 8529SOL    HW227327   5.815   1.715   4.000 -0.6890 -0.0939  0.6425
 8530SOL     OW27328   4.843   1.298   5.797  0.2852  0.1577 -0.4153
 8530SOL    HW127329   4.763   1.323   5.750 -0.6222 -1.7791  0.0170
 8530SOL    HW227330   4.818   1.221   5.849  1.9462  0.6319  1.2068
 8531SOL     OW27331   4.464   2.984   9.548 -0.1402 -0.1579 -0.6597
 8531SOL    HW127332   4.449   2.977   9.453 -1.0200 -2.6296 -0.3973
 8531SOL    HW227333   4.380   3.014   9.583 -0.0944 -0.1341 -0.5721
 8532SOL     OW27334   4.181   8.107   1.593 -0.3624 -0.3248 -0.2780
 8532SOL    HW127335   4.251   8.126   1.530 -0.3918  1.2927  0.1207
 8532SOL    HW227336   4.152   8.019   1.570  0.0104 -0.0098 -2.1666
 8533SOL     OW27337   2.767   3.955   8.753 -0.4780  0.9708  0.0172
 8533SOL    HW127338   2.710   3.879   8.742 -0.3605  1.1386 -2.2405
 8533SOL    HW227339   2.707   4.028   8.769 -0.6871  0.6840  0.5741
 8534SOL     OW27340   5.311   7.835   5.530  0.1280 -0.4031 -0.2288
 8534SOL    HW127341   5.330   7.800   5.618  0.5666  1.0091  0.2646
 8534SOL    HW227342   5.294   7.757   5.477  0.0987 -1.3065  1.0468
 8535SOL     OW27343   3.177   7.694   7.413 -0.4075  0.7780 -0.1381
 8535SOL    HW127344   3.264   7.665   7.385 -0.5162  0.1472  0.1536
 8535SOL    HW227345   3.186   7.788   7.426  0.5627  0.5444  1.0405
 8536SOL     OW27346   2.817   8.535   0.480 -0.2860  0.1246 -0.4639
 8536SOL    HW127347   2.868   8.517   0.401  0.4825  0.8661 -0.1507
 8536SOL    HW227348   2.727   8.514   0.456  0.1277 -1.0067 -1.0959
 8537SOL     OW27349   3.415   9.119   9.098  0.0362 -0.3266 -0.0662
 8537SOL    HW127350   3.365   9.183   9.048 -1.4515 -0.4729  1.1657
 8537SOL    HW227351   3.473   9.078   9.033 -1.4637 -0.1717 -1.5769
 8538SOL     OW27352   2.290   1.001   2.288  0.1213  0.3426 -0.4280
 8538SOL    HW127353   2.251   1.084   2.313  1.2399  0.5763  0.6042
 8538SOL    HW227354   2.362   1.025   2.228  0.1563  0.0851 -0.4920
 8539SOL     OW27355   0.880   9.401   6.633  0.0259 -0.0245 -0.4709
 8539SOL    HW127356   0.816   9.448   6.686 -0.4079 -0.2158 -0.8218
 8539SOL    HW227357   0.883   9.448   6.550 -2.0878 -1.8488 -1.7019
 8540SOL     OW27358   4.449   8.296   6.939  0.1186 -0.1056  0.9785
 8540SOL    HW127359   4.405   8.212   6.940 -0.9486  0.4250  0.2601
 8540SOL    HW227360   4.542   8.274   6.947 -0.0683 -1.4025 -0.0189
 8541SOL     OW27361   2.336   1.919   2.858 -0.1751 -0.1235 -0.0521
 8541SOL    HW127362   2.379   1.906   2.942  0.0461  0.0770 -0.1327
 8541SOL    HW227363   2.281   1.996   2.870 -2.0231 -1.4848  0.6339
 8542SOL     OW27364   8.304   2.202   9.214 -0.5056  0.5577 -0.4277
 8542SOL    HW127365   8.389   2.170   9.185 -0.6375 -0.0764 -0.1338
 8542SOL    HW227366   8.243   2.174   9.146 -0.8101 -0.9006  0.3966
 8543SOL     OW27367   4.112   7.420   9.309  0.1080 -0.0428 -0.0906
 8543SOL    HW127368   4.034   7.419   9.253  0.8409 -0.6509 -1.1455
 8543SOL    HW227369   4.174   7.478   9.263 -0.0590  1.2511  1.2493
 8544SOL     OW27370   7.388   4.863   4.870 -0.5001  0.5128 -0.0211
 8544SOL    HW127371   7.310   4.820   4.905  0.3699  0.2666  1.7872
 8544SOL    HW227372   7.432   4.795   4.819 -1.1664  0.4732 -0.5420
 8545SOL     OW27373   2.148   1.963   4.905  0.0453 -0.0612 -0.6307
 8545SOL    HW127374   2.192   1.964   4.990  0.5610  2.1752 -0.8687
 8545SOL    HW227375   2.067   2.012   4.920 -0.8258 -1.3277 -0.9965
 8546SOL     OW27376   6.041   9.093   9.264  0.2324 -0.5706  0.3672
 8546SOL    HW127377   6.015   9.053   9.181 -0.0823 -0.1028  0.2350
 8546SOL    HW227378   5.960   9.131   9.298  0.5483  0.0628  0.4268
 8547SOL     OW27379   2.712   2.773   5.423 -0.3547  0.2124  0.7940
 8547SOL    HW127380   2.649   2.702   5.416 -0.2954  0.1063  1.2802
 8547SOL    HW227381   2.678   2.842   5.366 -0.6309 -0.0459  0.6448
 8548SOL     OW27382   7.600   1.862   4.715 -0.3222  0.1065  0.3778
 8548SOL    HW127383   7.519   1.913   4.720 -0.5936 -0.2769 -0.0631
 8548SOL    HW227384   7.644   1.897   4.637 -1.1373 -1.2259 -0.7201
 8549SOL     OW27385   7.494   3.595   9.251  0.3570  0.2050 -0.0458
 8549SOL    HW127386   7.435   3.568   9.321  1.3908 -0.1089  0.7194
 8549SOL    HW227387   7.435   3.626   9.182 -0.8262 -2.1530 -0.2026
 8550SOL     OW27388   3.951   9.392   0.041  0.2520  0.2699 -0.5460
 8550SOL    HW127389   3.930   9.329  -0.028 -0.7840 -0.7951  0.6796
 8550SOL    HW227390   3.885   9.461   0.032  1.3845  1.2561 -1.8858
 8551SOL     OW27391   4.519   1.031   7.841  0.1385  0.0330  0.0090
 8551SOL    HW127392   4.603   1.056   7.803 -0.7239  1.6051 -0.9573
 8551SOL    HW227393   4.542   0.990   7.925  1.8278  1.1845  0.1542
 8552SOL     OW27394   2.205   6.116   2.473  0.2930 -0.0817 -0.1577
 8552SOL    HW127395   2.127   6.136   2.525  0.9851 -0.1106  0.9303
 8552SOL    HW227396   2.207   6.021   2.467 -0.0593 -0.0582 -0.6735
 8553SOL     OW27397   5.519   1.513   7.289  0.2408  0.4179  0.3316
 8553SOL    HW127398   5.526   1.608   7.299 -0.3370  0.4219  0.7648
 8553SOL    HW227399   5.599   1.488   7.244  0.8717  0.9792  1.1129
 8554SOL     OW27400   0.150   1.780   0.212 -0.0131  0.5238  0.3274
 8554SOL    HW127401   0.113   1.828   0.286  1.5261 -1.3120  2.4362
 8554SOL    HW227402   0.114   1.691   0.221  2.3936 -0.4864  0.6417
 8555SOL     OW27403   5.884   2.335   8.566 -0.6964  0.1703  0.4289
 8555SOL    HW127404   5.961   2.293   8.527 -1.2295 -0.7873  0.3837
 8555SOL    HW227405   5.870   2.289   8.648 -1.9744 -0.5476 -0.1570
 8556SOL     OW27406   1.965   6.782   7.240 -0.6394 -0.2223  0.3469
 8556SOL    HW127407   1.912   6.860   7.223 -1.2420 -0.7608 -0.2929
 8556SOL    HW227408   2.052   6.817   7.261 -1.3580  0.6993  1.9521
 8557SOL     OW27409   7.763   7.343   3.802 -0.0785 -0.1400 -0.1763
 8557SOL    HW127410   7.676   7.334   3.839  0.2222  0.4626  0.7168
 8557SOL    HW227411   7.784   7.257   3.767 -0.6445 -0.5431  0.4629
 8558SOL     OW27412   2.097   4.977   7.301 -0.3991  0.2515 -0.5015
 8558SOL    HW127413   2.147   4.998   7.380 -2.5409 -0.0573  1.0276
 8558SOL    HW227414   2.046   5.056   7.282 -1.5407 -0.3857 -0.2221
 8559SOL     OW27415   0.915   9.212   5.037 -0.0406 -0.0996 -0.3869
 8559SOL    HW127416   0.827   9.175   5.053  0.1079  0.4794  2.1016
 8559SOL    HW227417   0.964   9.139   4.997 -0.9732 -1.2172  0.4322
 8560SOL     OW27418   6.843   7.009   8.552  0.5256  0.4048 -0.2713
 8560SOL    HW127419   6.809   7.096   8.571 -1.5927 -0.1583 -1.1850
 8560SOL    HW227420   6.857   6.969   8.638  2.5693  1.9581  0.1906
 8561SOL     OW27421   4.716   0.303   6.138  0.2840 -0.1957 -0.0342
 8561SOL    HW127422   4.734   0.267   6.225 -0.4089  0.3244  0.3342
 8561SOL    HW227423   4.658   0.377   6.154 -0.3377 -0.4489 -0.9864
 8562SOL     OW27424   9.090   6.263   6.954 -0.1471  0.3210  1.0327
 8562SOL    HW127425   9.162   6.228   7.007 -1.7911  0.3279  3.3797
 8562SOL    HW227426   9.015   6.265   7.012 -1.6760  1.9461 -0.8388
 8563SOL     OW27427   1.225   9.259   1.278  0.2439 -0.2676  0.1202
 8563SOL    HW127428   1.257   9.342   1.314 -0.6845  0.9682 -1.7035
 8563SOL    HW227429   1.206   9.279   1.186 -0.5651 -2.3653 -0.2287
 8564SOL     OW27430   8.391   3.021   0.928  0.4408  0.0136 -0.0705
 8564SOL    HW127431   8.404   3.104   0.974  3.3568 -0.2358 -0.2805
 8564SOL    HW227432   8.373   3.047   0.837  0.4637  0.4322  0.0402
 8565SOL     OW27433   8.964   3.763   6.191  0.6123  0.0936 -0.1477
 8565SOL    HW127434   8.958   3.702   6.117 -1.0348 -0.2650  0.2458
 8565SOL    HW227435   8.936   3.712   6.267 -0.4286  1.2328  0.2544
 8566SOL     OW27436   6.395   7.757   4.284 -0.3336  0.0172 -0.2257
 8566SOL    HW127437   6.350   7.679   4.316 -0.3064 -0.2128 -0.7359
 8566SOL    HW227438   6.390   7.750   4.188  0.4368  0.1824 -0.2889
 8567SOL     OW27439   3.986   3.919   8.590  0.1868 -0.1211  0.0008
 8567SOL    HW127440   3.941   3.848   8.544 -0.3038  0.0235  0.2486
 8567SOL    HW227441   4.055   3.946   8.530 -0.4240  0.0403 -0.6428
 8568SOL     OW27442   3.277   4.222   0.504  0.2894  0.3498 -0.8965
 8568SOL    HW127443   3.229   4.305   0.502 -0.0356  0.3476  1.9122
 8568SOL    HW227444   3.210   4.155   0.514  0.6822  0.1583  0.8433
 8569SOL     OW27445   6.036   4.025   7.475 -0.2348  0.3907 -0.0174
 8569SOL    HW127446   5.969   4.087   7.446  1.9940  1.9758 -2.2583
 8569SOL    HW227447   6.070   4.063   7.556 -0.4562  0.8760 -0.1466
 8570SOL     OW27448   3.457   9.177   4.103  0.6892  0.1689  0.1701
 8570SOL    HW127449   3.510   9.114   4.055 -0.2641 -1.1310  0.7386
 8570SOL    HW227450   3.372   9.133   4.113  0.1679  1.3289  1.0599
 8571SOL     OW27451   2.377   9.469   1.854  0.1187  0.6346  0.2531
 8571SOL    HW127452   2.320   9.451   1.779  0.7154 -1.4307  0.2231
 8571SOL    HW227453   2.318   9.493   1.925 -0.6591  0.2973 -0.2682
 8572SOL     OW27454   6.151   8.943   4.597  0.5220  0.7510  0.1569
 8572SOL    HW127455   6.068   8.983   4.623  0.5422  0.9073 -0.0197
 8572SOL    HW227456   6.135   8.907   4.510  0.5447  0.4970  0.2581
 8573SOL     OW27457   4.006   4.754   1.226 -0.0720  0.8984  0.4773
 8573SOL    HW127458   3.953   4.826   1.261  0.7693  1.2859  0.9659
 8573SOL    HW227459   4.013   4.774   1.132 -1.6454  0.2857  0.1838
 8574SOL     OW27460   3.510   9.452   4.114  0.0946  0.0427 -0.6523
 8574SOL    HW127461   3.483   9.361   4.129  1.5626 -0.2644  0.3506
 8574SOL    HW227462   3.455   9.503   4.173  0.3206 -0.3758 -0.0629
 8575SOL     OW27463   8.844   0.257   8.183  0.4346  0.2010 -0.0428
 8575SOL    HW127464   8.913   0.318   8.209  1.1747 -0.6691  0.1264
 8575SOL    HW227465   8.882   0.209   8.108  0.8795 -1.7314  1.3427
 8576SOL     OW27466   8.748   1.253   1.656  0.1333  0.2649 -0.2331
 8576SOL    HW127467   8.821   1.310   1.634 -0.0850  0.1957 -1.1659
 8576SOL    HW227468   8.765   1.225   1.746  0.3483  1.6367  0.1668
 8577SOL     OW27469   6.340   6.053   4.493 -0.0118 -0.3204  0.3015
 8577SOL    HW127470   6.417   6.054   4.550 -0.2771 -2.1654  0.7728
 8577SOL    HW227471   6.366   6.105   4.416  1.7362 -0.9584  0.4120
 8578SOL     OW27472   2.296   8.530   4.949 -0.1627 -0.8175 -0.4323
 8578SOL    HW127473   2.305   8.528   4.853 -1.0385 -1.7617 -0.5228
 8578SOL    HW227474   2.385   8.523   4.982  0.2531  0.6056 -1.1624
 8579SOL     OW27475   8.064   1.915   3.041 -0.2129 -0.1483 -0.1697
 8579SOL    HW127476   8.033   1.928   2.952  3.0507 -0.0176 -1.4308
 8579SOL    HW227477   8.079   2.004   3.074 -1.0351 -0.2069  0.3728
 8580SOL     OW27478   0.001   3.582   4.817  0.4609 -0.0552 -0.0041
 8580SOL    HW127479  -0.028   3.614   4.902  0.9598 -0.0881  0.1858
 8580SOL    HW227480   0.076   3.638   4.795 -0.0965  0.4113 -0.7487
 8581SOL     OW27481   5.141   7.532   6.728  0.3128 -0.2500  0.0318
 8581SOL    HW127482   5.059   7.508   6.771  0.7371 -0.8022  0.5583
 8581SOL    HW227483   5.208   7.519   6.796  1.3799 -3.6129 -1.4318
 8582SOL     OW27484   7.134   1.200   0.820  0.0195 -0.0064 -0.4924
 8582SOL    HW127485   7.049   1.162   0.841 -0.0678  0.1776 -0.5147
 8582SOL    HW227486   7.114   1.271   0.759  0.2423 -0.3531 -0.9810
 8583SOL     OW27487   0.314   5.693   1.998  0.0146  0.0624 -0.2332
 8583SOL    HW127488   0.393   5.639   2.004 -0.4011 -0.4627  0.8144
 8583SOL    HW227489   0.324   5.758   2.067 -0.6407 -0.2584  0.1773
 8584SOL     OW27490   3.696   8.583   4.472 -0.2388 -0.0203  0.4988
 8584SOL    HW127491   3.746   8.594   4.553 -2.0642 -0.2464  1.7157
 8584SOL    HW227492   3.762   8.578   4.403  1.4002 -0.3954  2.0328
 8585SOL     OW27493   7.671   6.051   9.036 -0.0704 -0.4201 -0.8573
 8585SOL    HW127494   7.591   6.052   9.088  0.6819  0.9014  0.3627
 8585SOL    HW227495   7.651   6.105   8.960 -1.6138 -3.4515 -2.7498
 8586SOL     OW27496   0.703   7.587   5.610 -0.6620  1.0429  0.1967
 8586SOL    HW127497   0.652   7.615   5.534 -0.8815 -1.4007 -0.6520
 8586SOL    HW227498   0.647   7.523   5.654  0.1535  1.1634  1.4649
 8587SOL     OW27499   2.880   3.857   4.427 -0.3956  0.2016 -0.7079
 8587SOL    HW127500   2.891   3.812   4.511 -0.2851 -0.4407 -1.0657
 8587SOL    HW227501   2.795   3.828   4.395 -1.0872  1.5249 -0.1771
 8588SOL     OW27502   3.573   6.948   8.647  0.0081  0.2228 -0.1700
 8588SOL    HW127503   3.596   6.855   8.648 -0.3241  0.1295  1.5818
 8588SOL    HW227504   3.655   6.994   8.629  0.8640 -0.2855  2.1238
 8589SOL     OW27505   3.294   5.924   3.221  0.4769 -0.1644 -0.2290
 8589SOL    HW127506   3.343   6.004   3.240 -0.3932  0.0665  1.2397
 8589SOL    HW227507   3.313   5.867   3.296 -0.0200 -0.7745 -0.5617
 8590SOL     OW27508   6.023   6.329   2.449  0.7590 -0.4197 -0.0853
 8590SOL    HW127509   6.051   6.394   2.385  0.7937  0.6346  0.9647
 8590SOL    HW227510   6.016   6.248   2.400  0.0671  0.5071 -1.5969
 8591SOL     OW27511   9.562   1.299   6.356  0.2515  0.0419 -0.0599
 8591SOL    HW127512   9.605   1.344   6.283 -1.6020 -3.1185 -3.4177
 8591SOL    HW227513   9.632   1.250   6.398  1.0297  0.1671 -1.1542
 8592SOL     OW27514   0.449   7.968   6.159 -0.3370  0.1019  0.5723
 8592SOL    HW127515   0.475   7.924   6.240 -2.2645 -0.8205  0.7400
 8592SOL    HW227516   0.376   8.024   6.184 -2.2470 -1.6235 -0.7984
 8593SOL     OW27517   5.662   1.399   6.653 -0.4489 -0.9105 -0.2932
 8593SOL    HW127518   5.644   1.345   6.576 -1.4675 -1.8955  0.5897
 8593SOL    HW227519   5.686   1.484   6.618 -0.3293 -1.4986 -1.7108
 8594SOL     OW27520   9.246   4.903   0.813 -0.0410  0.1161 -0.4464
 8594SOL    HW127521   9.309   4.835   0.791  1.3180  1.1070  0.2504
 8594SOL    HW227522   9.268   4.929   0.902 -0.0453  1.9561 -0.9328
 8595SOL     OW27523   0.000   0.356   1.865 -0.1730 -0.4046 -0.1827
 8595SOL    HW127524  -0.046   0.404   1.933  1.6536 -0.7866  1.4346
 8595SOL    HW227525   0.070   0.309   1.912 -0.8293 -3.3313 -1.8645
 8596SOL     OW27526   1.011   2.500   2.830  0.4260  0.2075 -0.5165
 8596SOL    HW127527   1.025   2.405   2.823  0.6045  0.1053  0.9495
 8596SOL    HW227528   0.918   2.512   2.815  0.1305 -0.3821  0.7505
 8597SOL     OW27529   3.166   1.003   6.633  0.1365 -0.1378  0.3240
 8597SOL    HW127530   3.261   1.008   6.620  0.0955  1.9682  0.4623
 8597SOL    HW227531   3.130   1.008   6.545  0.1366 -0.1584  0.3228
 8598SOL     OW27532   0.880   8.853   8.595 -0.7721 -0.2194 -0.5108
 8598SOL    HW127533   0.874   8.767   8.552 -0.7590 -0.4876  0.0082
 8598SOL    HW227534   0.937   8.905   8.539 -0.7618 -0.5630 -0.8196
 8599SOL     OW27535   5.367   8.886   9.247 -0.2059 -0.2279 -0.0862
 8599SOL    HW127536   5.419   8.846   9.317 -0.7424  0.2856  0.6206
 8599SOL    HW227537   5.352   8.976   9.276 -0.3606  0.0212 -0.9079
 8600SOL     OW27538   1.504   1.283   1.385  0.1253 -0.2538 -0.6238
 8600SOL    HW127539   1.456   1.366   1.389 -0.0033 -0.2690 -1.5731
 8600SOL    HW227540   1.462   1.227   1.451 -0.7775 -0.0670 -1.0242
 8601SOL     OW27541   2.242   2.461   2.175 -0.6961 -0.1743 -0.5948
 8601SOL    HW127542   2.291   2.382   2.198 -0.3088  0.0956 -0.4625
 8601SOL    HW227543   2.152   2.432   2.162 -0.4339 -0.7412 -1.1722
 8602SOL     OW27544   2.579   9.406   0.743  0.2100 -0.2134  0.0589
 8602SOL    HW127545   2.651   9.374   0.690 -0.1675  0.4473 -0.8723
 8602SOL    HW227546   2.596   9.371   0.830  1.6063 -0.1314 -0.1623
 8603SOL     OW27547   2.413   8.848   6.927  0.1864 -0.6919  0.2110
 8603SOL    HW127548   2.490   8.817   6.975  1.3545 -1.5275 -2.0134
 8603SOL    HW227549   2.410   8.942   6.943  0.2481 -0.9946  2.1924
 8604SOL     OW27550   6.598   0.179   9.027 -0.1534  0.4546 -0.1362
 8604SOL    HW127551   6.590   0.273   9.038 -1.5764  0.3414  0.0251
 8604SOL    HW227552   6.604   0.166   8.933  0.9952  0.7439 -0.1199
 8605SOL     OW27553   7.258   6.791   7.817  0.8095  0.3106  0.0591
 8605SOL    HW127554   7.185   6.821   7.871  1.2034  0.9905  0.2298
 8605SOL    HW227555   7.274   6.863   7.757  3.0198  1.3424  1.7379
 8606SOL     OW27556   6.047   3.458   1.794  0.0059 -0.0217 -0.1524
 8606SOL    HW127557   5.954   3.453   1.775  0.0482  0.1651 -0.4159
 8606SOL    HW227558   6.065   3.552   1.800 -0.2158 -0.0606  1.8585
 8607SOL     OW27559   8.179   2.189   2.369 -0.1878 -0.5993  0.1128
 8607SOL    HW127560   8.231   2.269   2.381 -0.0309 -0.7994  0.7948
 8607SOL    HW227561   8.131   2.204   2.288  0.0931  0.0544  0.0615
 8608SOL     OW27562   5.660   3.281   0.239  0.1989 -0.0661  0.1512
 8608SOL    HW127563   5.591   3.217   0.223  0.4544 -0.0918 -0.9383
 8608SOL    HW227564   5.693   3.259   0.326  0.6798 -1.8065 -0.4322
 8609SOL     OW27565   5.573   4.366   2.970  0.3341 -0.6784  0.0183
 8609SOL    HW127566   5.622   4.391   2.892  1.2904 -0.2199  0.7461
 8609SOL    HW227567   5.481   4.376   2.945  0.6451  0.3390 -0.7618
 8610SOL     OW27568   3.861   7.829   0.075 -0.0246 -0.5582 -0.0018
 8610SOL    HW127569   3.881   7.735   0.072  1.5749 -0.2985  1.1420
 8610SOL    HW227570   3.825   7.843   0.162 -1.9015 -0.3546 -0.7598
 8611SOL     OW27571   7.782   0.280   8.486 -0.2074  0.6251  0.3418
 8611SOL    HW127572   7.745   0.365   8.510  2.1283  1.5762  0.9008
 8611SOL    HW227573   7.850   0.265   8.552  3.6620  1.3288 -3.0942
 8612SOL     OW27574   8.685   8.289   2.415 -0.1366  0.0857  0.4921
 8612SOL    HW127575   8.758   8.297   2.354 -0.5420  1.7674  0.1994
 8612SOL    HW227576   8.607   8.298   2.360 -0.5095  1.3711  1.1954
 8613SOL     OW27577   7.521   6.989   2.875 -0.4308 -0.0665  0.3362
 8613SOL    HW127578   7.568   6.951   2.949 -1.3223 -1.2017  0.3496
 8613SOL    HW227579   7.432   7.005   2.908 -0.8869 -0.7500 -0.5124
 8614SOL     OW27580   7.043   0.784   5.288  0.6278  0.2448  0.3897
 8614SOL    HW127581   7.117   0.738   5.249  2.1046  3.3035 -0.7976
 8614SOL    HW227582   7.000   0.827   5.214  1.3982  3.3747  1.5959
 8615SOL     OW27583   2.805   1.532   5.558  0.2003  0.1238 -0.0355
 8615SOL    HW127584   2.893   1.522   5.521  0.4744  0.8608  0.3980
 8615SOL    HW227585   2.816   1.591   5.633 -0.9728  1.9861 -1.2310
 8616SOL     OW27586   1.149   4.472   5.652 -0.2471  0.3205 -0.2533
 8616SOL    HW127587   1.222   4.522   5.688 -0.4699  1.1161 -0.8930
 8616SOL    HW227588   1.094   4.537   5.609 -0.5175 -0.4828 -1.1400
 8617SOL     OW27589   4.470   0.157   0.096  0.0140  0.1904 -0.2757
 8617SOL    HW127590   4.563   0.174   0.079  0.1030 -0.7320 -0.8053
 8617SOL    HW227591   4.448   0.214   0.169  0.4164  2.0702 -1.5452
 8618SOL     OW27592   7.576   4.909   3.281  0.1883 -0.4124 -0.2280
 8618SOL    HW127593   7.498   4.951   3.244  1.2567  1.4626 -0.4843
 8618SOL    HW227594   7.615   4.976   3.336  2.6043 -0.6443 -1.5470
 8619SOL     OW27595   7.901   7.791   7.202  0.4172  0.0528  0.2682
 8619SOL    HW127596   7.824   7.765   7.253  0.1297 -1.0530 -0.6770
 8619SOL    HW227597   7.916   7.717   7.143 -1.2673  2.4458 -3.6147
 8620SOL     OW27598   2.281   4.466   3.929 -0.0924 -0.0517 -0.0468
 8620SOL    HW127599   2.248   4.549   3.895 -0.7553 -1.0239 -1.9111
 8620SOL    HW227600   2.211   4.403   3.913  1.2950 -1.4560 -0.8947
 8621SOL     OW27601   5.349   8.598   2.036 -0.0924 -0.1566  0.0493
 8621SOL    HW127602   5.367   8.640   1.952  0.0787  0.0927  0.2100
 8621SOL    HW227603   5.304   8.517   2.013 -1.2297  0.5323 -0.2234
 8622SOL     OW27604   9.099   0.625   2.968  0.2122 -0.4508  0.8327
 8622SOL    HW127605   9.058   0.541   2.986 -0.2318  0.2100  3.1983
 8622SOL    HW227606   9.085   0.677   3.047 -1.3349  2.6078 -1.2419
 8623SOL     OW27607   9.606   7.997   1.838  0.2569 -0.0169 -0.6217
 8623SOL    HW127608   9.601   8.076   1.891 -0.8210  0.9753 -2.1112
 8623SOL    HW227609   9.685   8.007   1.786  0.6607 -0.4121 -0.0934
 8624SOL     OW27610   4.552   0.209   4.632 -0.3355  0.1301 -0.1597
 8624SOL    HW127611   4.636   0.197   4.588  0.7755  1.7584  1.3899
 8624SOL    HW227612   4.550   0.138   4.697  0.3561  0.7062  0.5078
 8625SOL     OW27613   2.731   1.925   5.416  0.2997  0.1496  0.0936
 8625SOL    HW127614   2.730   1.839   5.375  0.1398 -0.7732  1.9415
 8625SOL    HW227615   2.694   1.911   5.503 -1.5613  2.4403 -0.2015
 8626SOL     OW27616   3.500   6.352   5.853  0.5513 -0.4466  0.5724
 8626SOL    HW127617   3.528   6.443   5.849 -1.9464  0.3656 -0.0085
 8626SOL    HW227618   3.518   6.316   5.766  1.5208 -0.5394  0.7981
 8627SOL     OW27619   0.082   3.474   0.059 -0.2205 -0.2306 -0.4568
 8627SOL    HW127620   0.021   3.546   0.073  0.9761  0.9729 -1.2865
 8627SOL    HW227621   0.164   3.515   0.031  0.6096 -1.8805 -0.6224
 8628SOL     OW27622   8.389   3.404   2.231 -0.0525  0.1902 -0.1584
 8628SOL    HW127623   8.469   3.454   2.213  0.0867 -0.1261 -0.4202
 8628SOL    HW227624   8.336   3.414   2.152  0.2848 -0.6675 -0.5024
 8629SOL     OW27625   7.329   5.437   4.092 -0.0040  0.4106 -0.0850
 8629SOL    HW127626   7.373   5.489   4.024  1.3283 -0.0693  0.3756
 8629SOL    HW227627   7.374   5.352   4.090 -0.6291  0.0424  0.7143
 8630SOL     OW27628   7.645   5.085   0.649 -0.1191  0.1345 -0.5629
 8630SOL    HW127629   7.681   5.006   0.609 -1.6732 -1.1641  0.4995
 8630SOL    HW227630   7.662   5.155   0.585 -0.2674 -1.3718 -2.3173
 8631SOL     OW27631   1.237   5.756   3.502 -0.5552  0.2305  0.0083
 8631SOL    HW127632   1.169   5.818   3.529  1.5712  2.1755  1.2805
 8631SOL    HW227633   1.214   5.675   3.547 -1.6388  1.0454  1.0016
 8632SOL     OW27634   1.515   5.801   8.295  0.2008  0.2278 -0.4409
 8632SOL    HW127635   1.473   5.758   8.221 -0.6908 -1.7911  1.1458
 8632SOL    HW227636   1.547   5.729   8.350  0.6038  1.6449  1.2748
 8633SOL     OW27637   5.228   3.633   1.565  0.0345 -0.1831 -0.0631
 8633SOL    HW127638   5.310   3.682   1.567 -1.2664  2.1977 -0.4589
 8633SOL    HW227639   5.187   3.650   1.650 -0.3274 -0.8577 -0.0921
 8634SOL     OW27640   7.162   2.874   5.763  0.5267 -0.1220 -0.0323
 8634SOL    HW127641   7.086   2.927   5.787 -0.0020 -0.6523 -0.4745
 8634SOL    HW227642   7.189   2.908   5.678 -0.0669 -0.7949 -0.5118
 8635SOL     OW27643   7.224   3.517   9.254 -0.1085  0.1687  0.0358
 8635SOL    HW127644   7.132   3.543   9.247 -0.7535 -1.6313  0.9138
 8635SOL    HW227645   7.227   3.464   9.334  0.8735 -2.7710 -1.7662
 8636SOL     OW27646   4.202   2.773   9.574 -0.3578 -0.3492 -0.0879
 8636SOL    HW127647   4.282   2.776   9.521 -1.6197 -0.1487 -2.0989
 8636SOL    HW227648   4.223   2.713   9.646  1.8744  0.4157 -0.0153
 8637SOL     OW27649   1.788   5.384   1.242  0.5130 -0.1335  0.5574
 8637SOL    HW127650   1.838   5.360   1.321  0.0644 -1.9802  0.3199
 8637SOL    HW227651   1.747   5.302   1.214 -1.1495  0.9577 -0.3291
 8638SOL     OW27652   8.573   9.131   2.263 -0.0033 -0.1995  0.3666
 8638SOL    HW127653   8.643   9.120   2.198  1.0266  2.2148  0.9667
 8638SOL    HW227654   8.497   9.157   2.211  0.5046  0.5814 -0.0055
 8639SOL     OW27655   7.910   1.672   0.876  0.0644  0.2216  0.1286
 8639SOL    HW127656   7.883   1.634   0.793 -1.8297 -1.5923  1.4588
 8639SOL    HW227657   7.996   1.635   0.893 -0.5140 -1.2388  0.0165
 8640SOL     OW27658   5.905   1.517   8.334 -0.3520  0.4428 -0.0784
 8640SOL    HW127659   5.838   1.549   8.274  0.1849  0.9788 -0.4143
 8640SOL    HW227660   5.973   1.585   8.331  0.7160 -0.6179 -0.6191
 8641SOL     OW27661   2.766   7.405   2.016  0.1437 -0.3818 -0.0264
 8641SOL    HW127662   2.717   7.323   2.017  0.0086 -0.3041  0.6434
 8641SOL    HW227663   2.720   7.461   2.079 -0.0618  0.3858 -0.8493
 8642SOL     OW27664   0.619   4.959   9.139  0.6329 -0.1657 -0.3165
 8642SOL    HW127665   0.532   4.998   9.127  0.4002  0.6141  3.0695
 8642SOL    HW227666   0.605   4.865   9.125 -1.7859 -0.6417  3.7791
 8643SOL     OW27667   2.367   5.754   8.258 -0.1892  0.0011 -0.0953
 8643SOL    HW127668   2.350   5.714   8.343  0.0963  1.2443  0.5798
 8643SOL    HW227669   2.332   5.843   8.267  1.6453  0.8061 -0.5900
 8644SOL     OW27670   4.793   5.849   5.167 -0.3114  0.1665  0.4448
 8644SOL    HW127671   4.873   5.899   5.183 -1.1556  1.6668  0.1549
 8644SOL    HW227672   4.755   5.835   5.254 -0.0613  0.0202  0.5297
 8645SOL     OW27673   5.870   6.628   6.764  0.1848  0.4610  0.4750
 8645SOL    HW127674   5.945   6.574   6.737 -0.3902  0.9172 -2.3319
 8645SOL    HW227675   5.907   6.715   6.778  0.1566  0.8218 -1.4652
 8646SOL     OW27676   5.202   8.390   1.898 -0.0097 -0.0703  0.0641
 8646SOL    HW127677   5.180   8.464   1.841 -0.3435  1.5818  2.1910
 8646SOL    HW227678   5.120   8.366   1.940  0.3362 -0.8306  0.3286
 8647SOL     OW27679   6.410   4.627   8.542 -0.0349  0.1418  0.5693
 8647SOL    HW127680   6.402   4.635   8.447  0.1497  1.7462  0.6635
 8647SOL    HW227681   6.481   4.564   8.554  0.1628  0.1615 -0.3580
 8648SOL     OW27682   4.406   8.972   6.746 -0.0718  0.0146 -0.2532
 8648SOL    HW127683   4.393   8.986   6.839  2.3969  0.7874  0.0320
 8648SOL    HW227684   4.459   8.893   6.740  0.2401  0.2645 -0.9721
 8649SOL     OW27685   8.588   9.399   6.710  0.4359 -0.2879 -0.2961
 8649SOL    HW127686   8.525   9.464   6.679 -1.8121 -1.4786  1.5150
 8649SOL    HW227687   8.640   9.377   6.632  0.3879  2.6094 -1.2631
 8650SOL     OW27688   3.668   6.174   4.195  0.0641 -0.4717 -0.0182
 8650SOL    HW127689   3.664   6.258   4.150  2.5128  0.3287  1.0612
 8650SOL    HW227690   3.604   6.119   4.150 -1.1815  1.7633 -1.1392
 8651SOL     OW27691   9.412   2.433   8.432 -0.3201  0.2431 -0.0896
 8651SOL    HW127692   9.476   2.478   8.376  0.5707  1.6931  1.9715
 8651SOL    HW227693   9.327   2.457   8.396  0.0731  3.9990  1.0384
 8652SOL     OW27694   7.239   8.127   6.285  0.2535  0.1542 -0.3486
 8652SOL    HW127695   7.151   8.093   6.300  0.6409 -0.8794 -0.3274
 8652SOL    HW227696   7.225   8.213   6.245 -0.7614  0.8927  1.4885
 8653SOL     OW27697   2.284   5.657   7.295  0.0516  0.7471  0.3483
 8653SOL    HW127698   2.379   5.655   7.310  0.2478 -0.7335 -0.8319
 8653SOL    HW227699   2.247   5.626   7.378  0.6009  1.2276  0.7822
 8654SOL     OW27700   4.788   1.337   2.253  0.4252  0.1166 -0.3597
 8654SOL    HW127701   4.861   1.362   2.196  0.8160 -1.3522 -0.5338
 8654SOL    HW227702   4.829   1.316   2.337 -0.0815  1.6394  0.3204
 8655SOL     OW27703   5.740   1.803   3.705  0.1014  0.4655 -0.2982
 8655SOL    HW127704   5.734   1.749   3.784  1.2638 -0.0816 -0.5691
 8655SOL    HW227705   5.757   1.891   3.738  0.2323  0.3019  0.0830
 8656SOL     OW27706   2.790   0.699   8.037 -0.6056 -0.2391  0.2204
 8656SOL    HW127707   2.783   0.783   8.084  1.0099  0.2849 -0.4060
 8656SOL    HW227708   2.831   0.722   7.954 -0.8328 -1.5655 -0.2696
 8657SOL     OW27709   9.117   6.360   7.680 -0.3333  0.2123 -0.0580
 8657SOL    HW127710   9.136   6.424   7.611 -0.4108  0.1759 -0.1126
 8657SOL    HW227711   9.178   6.383   7.751  1.4089 -1.2256 -1.0284
 8658SOL     OW27712   4.286   1.217   5.586  0.1875  0.4715  0.1622
 8658SOL    HW127713   4.375   1.182   5.585  0.6491  1.5832  0.6689
 8658SOL    HW227714   4.278   1.265   5.504 -0.3340 -0.5031 -0.3797
 8659SOL     OW27715   1.440   1.261   6.083  0.7607 -0.2185 -0.2071
 8659SOL    HW127716   1.473   1.306   6.006  2.9582 -0.4925  0.5088
 8659SOL    HW227717   1.488   1.178   6.086  1.1451  0.0043  1.6824
 8660SOL     OW27718   0.010   3.476   2.630 -0.1483 -0.2159  0.0385
 8660SOL    HW127719   0.044   3.452   2.544 -1.4070  1.2544 -0.9309
 8660SOL    HW227720   0.012   3.395   2.680  0.0422 -1.2556 -1.5768
 8661SOL     OW27721   2.739   1.173   1.685 -0.0849 -0.3890  0.1540
 8661SOL    HW127722   2.814   1.174   1.744 -0.3241 -0.7990  0.4739
 8661SOL    HW227723   2.680   1.240   1.720  0.1778  0.0169 -0.1670
 8662SOL     OW27724   5.148   9.485   8.714  0.0055 -0.4005  0.2551
 8662SOL    HW127725   5.076   9.504   8.774 -0.3607 -2.0898  0.4005
 8662SOL    HW227726   5.130   9.396   8.682  0.4074  0.2755 -2.0485
 8663SOL     OW27727   9.239   3.718   4.387  0.2054  0.2194 -0.0325
 8663SOL    HW127728   9.314   3.730   4.446  0.3116  0.7146 -0.2681
 8663SOL    HW227729   9.163   3.739   4.442  0.3733  1.8109 -0.3762
 8664SOL     OW27730   6.973   8.651   5.071  0.6568 -0.4391 -0.7457
 8664SOL    HW127731   7.015   8.656   4.985  0.4644  2.7946 -0.7658
 8664SOL    HW227732   6.915   8.727   5.074 -0.3490 -1.2185  1.7469
 8665SOL     OW27733   1.001   3.814   0.392  0.2158 -0.2418  0.5179
 8665SOL    HW127734   1.017   3.819   0.297 -0.5608 -1.2369  0.3200
 8665SOL    HW227735   1.078   3.855   0.431  0.8801 -0.4417 -0.5340
 8666SOL     OW27736   1.625   8.250   4.673 -0.4812 -0.1702  0.2507
 8666SOL    HW127737   1.576   8.205   4.605 -0.5287 -0.1046  0.2413
 8666SOL    HW227738   1.704   8.281   4.629  1.2761 -3.2132  0.9961
 8667SOL     OW27739   0.421   9.110   3.587 -0.3236 -0.1470 -0.0077
 8667SOL    HW127740   0.413   9.021   3.621 -2.3675  0.4421  1.2888
 8667SOL    HW227741   0.497   9.146   3.632 -0.7139 -0.6220  1.0872
 8668SOL     OW27742   3.214   7.488   4.091 -0.0970  0.1041  0.5476
 8668SOL    HW127743   3.232   7.471   4.184 -1.5431  1.7667  1.2022
 8668SOL    HW227744   3.135   7.438   4.072  0.7026 -0.9514 -0.0738
 8669SOL     OW27745   8.221   2.015   3.816 -0.1423 -0.1236  0.2914
 8669SOL    HW127746   8.297   1.997   3.760 -0.3462  0.3778 -0.1510
 8669SOL    HW227747   8.165   2.071   3.763 -0.4927  0.0936  0.8855
 8670SOL     OW27748   0.195   3.517   7.965  0.1905 -0.5862 -0.0980
 8670SOL    HW127749   0.279   3.561   7.978 -0.4182  0.3523  0.7931
 8670SOL    HW227750   0.205   3.469   7.883  1.4506 -0.1541 -0.2122
 8671SOL     OW27751   3.825   1.278   3.578 -0.1853  0.3152  0.2763
 8671SOL    HW127752   3.903   1.278   3.522  0.9563 -2.4622  1.6711
 8671SOL    HW227753   3.760   1.229   3.528 -0.2664  0.6158  0.0828
 8672SOL     OW27754   2.802   0.002   1.898 -0.3829  0.0481 -0.5456
 8672SOL    HW127755   2.745  -0.071   1.873  1.0478 -1.5880  0.6211
 8672SOL    HW227756   2.798   0.003   1.994  0.8682  0.4371 -0.4826
 8673SOL     OW27757   5.944   7.301   3.310  0.3385 -0.1639  0.1870
 8673SOL    HW127758   5.878   7.280   3.377  0.1256  2.4182  0.8725
 8673SOL    HW227759   5.899   7.288   3.227 -0.3063 -0.6110  0.5929
 8674SOL     OW27760   0.841   8.275   1.697  0.0380  0.5053 -0.5359
 8674SOL    HW127761   0.795   8.270   1.781  1.6445 -0.3573  0.3448
 8674SOL    HW227762   0.855   8.369   1.683  0.9828  0.6157  0.9006
 8675SOL     OW27763   6.390   5.965   1.766 -0.1148 -0.0346  0.4652
 8675SOL    HW127764   6.430   5.950   1.852 -0.2165 -0.7365  0.3990
 8675SOL    HW227765   6.406   5.884   1.718  1.4603  0.9774 -0.8037
 8676SOL     OW27766   5.803   0.140   2.950  0.6354  0.2514 -0.2510
 8676SOL    HW127767   5.824   0.054   2.914 -0.1551  0.1073 -0.3783
 8676SOL    HW227768   5.866   0.199   2.907  1.0176 -0.2166 -0.3486
 8677SOL     OW27769   5.181   4.364   1.661 -0.3359 -0.5754 -0.2337
 8677SOL    HW127770   5.102   4.357   1.608 -1.7406 -0.7612  1.7486
 8677SOL    HW227771   5.230   4.284   1.642 -1.2483 -1.0722 -0.5606
 8678SOL     OW27772   4.710   1.762   4.046 -0.0585 -0.0995 -0.3227
 8678SOL    HW127773   4.768   1.700   4.090  2.6849  2.0918 -0.6062
 8678SOL    HW227774   4.649   1.707   3.997 -0.0899 -2.5531  2.2307
 8679SOL     OW27775   0.950   4.762   1.695 -0.6433  0.4304 -0.4628
 8679SOL    HW127776   0.942   4.829   1.763 -0.7798 -0.1858  0.1383
 8679SOL    HW227777   0.979   4.811   1.618  2.7512  0.7775  0.8258
 8680SOL     OW27778   5.580   2.879   9.391  0.5485  0.3937 -0.4161
 8680SOL    HW127779   5.509   2.884   9.327  0.4086  1.0296 -0.2227
 8680SOL    HW227780   5.536   2.859   9.474  0.8799 -2.0877 -0.7594
 8681SOL     OW27781   9.521   5.860   7.885  0.4225 -0.3458 -0.0967
 8681SOL    HW127782   9.504   5.772   7.849 -0.0999  0.3839 -1.7325
 8681SOL    HW227783   9.537   5.914   7.808 -1.9301  1.5722  0.6335
 8682SOL     OW27784   6.552   0.960   1.332 -0.3931 -0.3826 -0.4569
 8682SOL    HW127785   6.623   0.975   1.269 -0.2217  1.7029  0.1659
 8682SOL    HW227786   6.597   0.935   1.412 -0.4805 -0.8383 -0.5474
 8683SOL     OW27787   2.488   4.448   3.748  0.3609 -0.2722  0.7390
 8683SOL    HW127788   2.423   4.463   3.817  0.6359 -2.1686  1.4951
 8683SOL    HW227789   2.531   4.532   3.736 -1.0448  0.5828  1.4792
 8684SOL     OW27790   1.939   4.781   8.768  0.2034  0.0045 -0.0721
 8684SOL    HW127791   1.918   4.733   8.687  0.4940 -0.7408  0.2907
 8684SOL    HW227792   1.885   4.860   8.763 -0.3941 -0.4237 -0.6136
 8685SOL     OW27793   3.331   0.910   7.939  0.0791  0.4748 -0.5047
 8685SOL    HW127794   3.304   0.940   7.852 -1.1021  0.5956 -0.1182
 8685SOL    HW227795   3.321   0.987   7.995  1.1284  0.4809 -0.3090
 8686SOL     OW27796   3.503   4.601   0.764 -0.0874 -0.3773  0.4220
 8686SOL    HW127797   3.501   4.568   0.674 -0.8522  1.9517 -0.4868
 8686SOL    HW227798   3.594   4.589   0.792  0.0781 -1.4638 -0.5042
 8687SOL     OW27799   1.959   2.522   8.052  0.3419 -0.6267 -0.3497
 8687SOL    HW127800   2.020   2.587   8.088  0.1613  0.4543 -1.8582
 8687SOL    HW227801   1.872   2.556   8.073  0.2368 -1.4981  0.6824
 8688SOL     OW27802   2.218   1.440   3.934  0.3676  0.2970  0.2529
 8688SOL    HW127803   2.164   1.373   3.975  0.3356  0.5569  0.6364
 8688SOL    HW227804   2.303   1.398   3.922 -0.2688 -0.5721 -1.5838
 8689SOL     OW27805   5.600   4.758   9.115  0.0797  0.1548 -0.3765
 8689SOL    HW127806   5.514   4.769   9.075 -0.2456  2.9301  0.8757
 8689SOL    HW227807   5.585   4.767   9.209  1.7629  1.1504 -0.1541
 8690SOL     OW27808   6.393   1.667   0.718  0.1693  0.4465  0.1694
 8690SOL    HW127809   6.381   1.726   0.643  0.1323  0.9536  0.5655
 8690SOL    HW227810   6.347   1.711   0.789 -1.4904 -0.9729  0.0293
 8691SOL     OW27811   9.459   1.649   1.673  0.5127 -0.5113  0.2862
 8691SOL    HW127812   9.487   1.558   1.674 -0.8439 -1.0530 -2.1677
 8691SOL    HW227813   9.363   1.644   1.679  0.4979  1.0027  3.6114
 8692SOL     OW27814   9.282   7.669   4.085 -0.1655 -0.2045 -0.3083
 8692SOL    HW127815   9.221   7.716   4.028 -0.1583  1.0379  0.6629
 8692SOL    HW227816   9.226   7.621   4.146 -0.1721 -0.7525 -0.7434
 8693SOL     OW27817   5.084   5.916   0.842 -0.8983  0.0196 -0.0641
 8693SOL    HW127818   5.126   5.831   0.853 -0.4100  0.1748 -0.6753
 8693SOL    HW227819   5.123   5.971   0.909 -1.2985 -0.2645  0.4073
 8694SOL     OW27820   6.888   7.409   5.049  0.2476  0.1946 -0.1518
 8694SOL    HW127821   6.925   7.436   5.133  0.3123  0.6551 -0.3286
 8694SOL    HW227822   6.875   7.490   5.001 -3.0261  0.3266  0.7220
 8695SOL     OW27823   6.101   5.509   3.781  0.1302 -0.6104 -0.0456
 8695SOL    HW127824   6.043   5.439   3.752 -0.5521  0.2266 -0.7416
 8695SOL    HW227825   6.098   5.503   3.877 -2.7135  0.6283  0.0595
 8696SOL     OW27826   9.465   1.200   2.269 -0.3096 -0.2992  0.3516
 8696SOL    HW127827   9.450   1.294   2.274 -0.4827 -0.3034 -0.0853
 8696SOL    HW227828   9.463   1.180   2.176  0.3401 -0.6364  0.4029
 8697SOL     OW27829   4.801   1.057   4.057 -0.5183  0.3440 -0.5459
 8697SOL    HW127830   4.705   1.056   4.063 -0.5540  0.6217 -1.0467
 8697SOL    HW227831   4.826   0.965   4.053 -0.8382  0.2999 -1.5686
 8698SOL     OW27832   6.246   8.631   7.080  0.0320  0.1346  0.0474
 8698SOL    HW127833   6.218   8.549   7.040  0.5565 -0.0700  0.0946
 8698SOL    HW227834   6.204   8.699   7.027 -1.8699 -0.1702  1.0666
 8699SOL     OW27835   7.659   7.109   3.450  0.0027 -0.5726 -0.2768
 8699SOL    HW127836   7.738   7.054   3.453  0.9552  0.7601  0.1090
 8699SOL    HW227837   7.590   7.053   3.484  0.9855 -1.4680  0.3241
 8700SOL     OW27838   3.139   0.650   0.562 -0.3936  0.2906  0.2893
 8700SOL    HW127839   3.221   0.686   0.528  0.4341  0.9431  2.8262
 8700SOL    HW227840   3.071   0.707   0.526  0.5169  1.5233  0.4519
 8701SOL     OW27841   5.950   7.854   0.095 -0.0263  0.0155  0.2053
 8701SOL    HW127842   5.903   7.772   0.085  2.0733 -1.2436 -0.0701
 8701SOL    HW227843   5.913   7.911   0.027  0.3213 -1.6684 -1.4970
 8702SOL     OW27844   6.487   0.147   9.275 -0.0080 -0.4270 -0.4474
 8702SOL    HW127845   6.420   0.215   9.290  1.0666  0.3287  1.3092
 8702SOL    HW227846   6.518   0.163   9.187  1.3194  2.4755  0.4124
 8703SOL     OW27847   5.970   9.064   7.913 -0.5916  0.3249 -0.8470
 8703SOL    HW127848   5.995   9.141   7.863 -0.3719  0.1552 -0.9990
 8703SOL    HW227849   5.995   8.990   7.858  0.8628  0.1054  0.0488
 8704SOL     OW27850   2.778   2.123   7.631 -0.1192  0.3130 -0.5241
 8704SOL    HW127851   2.845   2.178   7.591  0.1153  0.3966 -0.0135
 8704SOL    HW227852   2.787   2.137   7.725 -1.0486  0.5509 -0.4622
 8705SOL     OW27853   7.804   0.257   4.735 -0.3111 -0.4468 -0.6275
 8705SOL    HW127854   7.765   0.292   4.655 -0.5999 -1.1240 -0.7836
 8705SOL    HW227855   7.890   0.299   4.740 -0.7943  0.5983 -0.5983
 8706SOL     OW27856   4.032   8.256   1.764  0.3964  0.3411 -0.2999
 8706SOL    HW127857   4.051   8.269   1.857  1.1801  0.0484 -0.4117
 8706SOL    HW227858   4.109   8.211   1.730  0.1629  0.5488 -1.1204
 8707SOL     OW27859   3.558   6.950   8.988 -0.3258  0.2063 -0.6028
 8707SOL    HW127860   3.547   7.041   8.959 -0.8577  0.2083 -0.4049
 8707SOL    HW227861   3.472   6.925   9.022  0.3058  0.2464  1.1169
 8708SOL     OW27862   3.555   5.768   6.866 -0.6226 -0.4624 -0.2463
 8708SOL    HW127863   3.507   5.696   6.825  0.3414 -0.5182 -1.3384
 8708SOL    HW227864   3.627   5.786   6.806 -0.6933  1.2579  0.1382
 8709SOL     OW27865   4.095   2.904   6.660  0.2839  0.2786 -0.2623
 8709SOL    HW127866   4.177   2.924   6.706 -0.6138 -0.1458  1.5624
 8709SOL    HW227867   4.035   2.875   6.728 -0.8005 -1.3684 -1.8320
 8710SOL     OW27868   9.306   1.098   5.384  0.7467 -0.1536  0.1168
 8710SOL    HW127869   9.232   1.046   5.353  1.4897 -1.7312  0.8592
 8710SOL    HW227870   9.342   1.139   5.305 -0.7590  0.4781 -0.2804
 8711SOL     OW27871   5.023   0.376   0.355  0.6185 -0.1434  0.4551
 8711SOL    HW127872   4.932   0.363   0.379  0.4677  0.9366  0.5370
 8711SOL    HW227873   5.060   0.288   0.351 -0.0690 -0.5246  1.8243
 8712SOL     OW27874   0.901   1.497   2.056 -0.4499 -0.1199  0.0058
 8712SOL    HW127875   0.953   1.418   2.070  0.4671  0.0627 -2.0754
 8712SOL    HW227876   0.810   1.468   2.066 -0.1968 -1.7870 -1.9881
 8713SOL     OW27877   0.801   2.779   2.238  0.0432  0.6046 -0.3930
 8713SOL    HW127878   0.791   2.793   2.144 -0.1634  1.6106 -0.2337
 8713SOL    HW227879   0.714   2.754   2.269  0.2283 -0.2644 -0.5433
 8714SOL     OW27880   1.909   1.285   6.062  0.4819 -0.7030 -0.1313
 8714SOL    HW127881   1.919   1.360   6.120  0.0299 -1.7665  1.3802
 8714SOL    HW227882   1.998   1.252   6.049  0.7882  0.5857 -1.5341
 8715SOL     OW27883   5.847   6.449   8.655  0.6322 -0.0043 -0.8668
 8715SOL    HW127884   5.805   6.381   8.707  1.1018  0.6540  0.4014
 8715SOL    HW227885   5.941   6.434   8.667  0.7451  1.4609  0.2528
 8716SOL     OW27886   7.970   1.684   1.981  0.0774 -0.2891 -0.1141
 8716SOL    HW127887   7.963   1.672   1.886 -0.4777 -1.2176  0.0265
 8716SOL    HW227888   7.917   1.761   2.000  1.6455  1.0140 -0.7559
 8717SOL     OW27889   3.371   0.968   7.428 -0.0581 -0.0769 -0.4432
 8717SOL    HW127890   3.448   0.975   7.372  1.1661 -1.4399  0.9799
 8717SOL    HW227891   3.355   1.058   7.457  1.8752  0.1000  0.2821
 8718SOL     OW27892   3.659   0.884   7.112 -0.3537 -0.2991  0.3652
 8718SOL    HW127893   3.695   0.904   7.025  1.0232  0.1505  1.0217
 8718SOL    HW227894   3.666   0.789   7.119 -1.2205 -0.4318 -0.3141
 8719SOL     OW27895   1.252   7.191   3.167  0.3060 -0.0604  0.3119
 8719SOL    HW127896   1.249   7.286   3.156 -1.4691 -0.1674 -0.3842
 8719SOL    HW227897   1.243   7.177   3.261  0.0391  0.4497  0.3640
 8720SOL     OW27898   3.091   0.942   8.472  0.5533 -0.2479  0.5157
 8720SOL    HW127899   3.058   0.853   8.458  0.4007 -0.0013 -0.8396
 8720SOL    HW227900   3.042   0.996   8.410  2.1320  0.4388 -0.1847
 8721SOL     OW27901   1.839   2.310   4.422 -0.1441 -0.1772  0.3775
 8721SOL    HW127902   1.867   2.220   4.410  0.9420  0.1663  0.1896
 8721SOL    HW227903   1.764   2.305   4.481 -0.1640 -1.1999  0.2808
 8722SOL     OW27904   3.952   8.777   8.252  0.0685 -0.1230 -0.1594
 8722SOL    HW127905   3.877   8.727   8.221 -1.3703  1.3226  0.8449
 8722SOL    HW227906   4.007   8.789   8.175 -1.3247 -0.1798 -1.1909
 8723SOL     OW27907   6.096   6.670   2.910 -0.8699 -0.0625 -0.3196
 8723SOL    HW127908   6.090   6.681   3.005 -0.1679  1.1336 -0.3875
 8723SOL    HW227909   6.136   6.584   2.898  1.8512  0.9544  0.6015
 8724SOL     OW27910   4.768   4.089   7.161 -0.9225 -0.2037 -0.0501
 8724SOL    HW127911   4.777   4.182   7.181 -0.1958 -0.3152  0.1701
 8724SOL    HW227912   4.858   4.059   7.146 -1.2229 -0.6717 -1.0087
 8725SOL     OW27913   8.757   4.573   9.369 -0.3868  0.6835 -0.2414
 8725SOL    HW127914   8.813   4.620   9.308  0.6066  0.2391  0.2969
 8725SOL    HW227915   8.684   4.541   9.316  0.9911 -0.6194 -1.4446
 8726SOL     OW27916   5.151   4.241   2.682  0.3799 -0.0194 -0.1339
 8726SOL    HW127917   5.064   4.231   2.720  0.4614 -1.2800 -0.2515
 8726SOL    HW227918   5.172   4.334   2.696  0.4226 -0.3907  2.9604
 8727SOL     OW27919   3.313   2.713   6.427 -0.4627 -0.6136  0.4303
 8727SOL    HW127920   3.376   2.673   6.367  0.4967  0.0236  0.9857
 8727SOL    HW227921   3.295   2.646   6.492 -0.8746 -1.0237 -0.0984
 8728SOL     OW27922   7.079   2.631   5.902 -0.8540 -0.6236 -0.8939
 8728SOL    HW127923   7.103   2.695   5.835 -0.0859  0.5010  0.4022
 8728SOL    HW227924   7.148   2.639   5.968 -1.9164 -1.2324  0.3389
 8729SOL     OW27925   6.194   1.630   2.322  0.4707  0.6784  0.2763
 8729SOL    HW127926   6.190   1.536   2.336  0.2088  0.1363 -2.6830
 8729SOL    HW227927   6.280   1.656   2.356  1.0745 -0.8861  0.0352
 8730SOL     OW27928   9.029   6.622   9.551  0.2012 -0.2952  0.2725
 8730SOL    HW127929   9.113   6.584   9.527  1.1590  1.1207  1.2240
 8730SOL    HW227930   9.003   6.575   9.630  1.3459  0.9060  1.4077
 8731SOL     OW27931   3.871   0.475   4.347  0.3120  0.8712 -0.0143
 8731SOL    HW127932   3.799   0.496   4.406 -1.2637 -1.5714 -0.9116
 8731SOL    HW227933   3.931   0.422   4.400  0.2670  0.9529  0.1167
 8732SOL     OW27934   1.919   2.167   7.349 -0.0795 -0.2387  0.4973
 8732SOL    HW127935   1.929   2.188   7.442 -1.0931  1.3883  0.2844
 8732SOL    HW227936   2.006   2.180   7.312 -0.4164  3.1782  0.5426
 8733SOL     OW27937   5.757   2.653   9.081 -0.0858 -0.2777  0.4082
 8733SOL    HW127938   5.755   2.649   9.177 -0.9226 -1.3456  0.3729
 8733SOL    HW227939   5.748   2.746   9.060 -1.3891 -0.1635  1.3604
 8734SOL     OW27940   3.787   1.108   9.443 -0.7364 -0.0063  0.3636
 8734SOL    HW127941   3.760   1.141   9.357 -3.3457 -3.7977 -0.5317
 8734SOL    HW227942   3.713   1.126   9.501 -0.8925 -1.3384  0.6207
 8735SOL     OW27943   1.293   2.851   5.306  0.1508  0.1149  0.3966
 8735SOL    HW127944   1.366   2.909   5.284  0.7804 -1.1679 -1.1074
 8735SOL    HW227945   1.335   2.768   5.328 -0.8189 -0.4644  0.1058
 8736SOL     OW27946   7.975   4.437   7.867  0.2022  0.1042  0.1066
 8736SOL    HW127947   8.002   4.434   7.959  2.0423 -3.3296 -0.3638
 8736SOL    HW227948   8.036   4.378   7.822  0.1962  2.5525 -3.6256
 8737SOL     OW27949   8.725   1.810   5.790  0.1754 -0.3601 -0.1802
 8737SOL    HW127950   8.651   1.866   5.812 -0.5393 -0.8271 -1.3019
 8737SOL    HW227951   8.799   1.870   5.780  0.0044  0.0989  1.0715
 8738SOL     OW27952   6.098   0.312   8.037 -0.3217  0.2438  0.2242
 8738SOL    HW127953   6.120   0.370   7.964 -0.0724  1.4183  1.2000
 8738SOL    HW227954   6.005   0.293   8.026  0.2322 -1.7135 -1.8317
 8739SOL     OW27955   7.619   1.705   5.127  0.0064 -0.1618  0.2186
 8739SOL    HW127956   7.613   1.676   5.218 -1.4024 -0.0043  0.2027
 8739SOL    HW227957   7.596   1.798   5.130  1.6096  0.2696 -0.1054
 8740SOL     OW27958   5.991   7.678   1.814 -0.6594 -0.2193 -0.6884
 8740SOL    HW127959   5.973   7.677   1.720 -1.1602  0.6130 -0.6116
 8740SOL    HW227960   5.978   7.770   1.840 -0.3114 -0.3986  0.1502
 8741SOL     OW27961   8.831   4.408   3.961 -0.4445  0.3362 -0.3901
 8741SOL    HW127962   8.919   4.445   3.974 -0.5438  0.1580  0.9028
 8741SOL    HW227963   8.846   4.315   3.950 -0.4899  0.2347  0.3262
 8742SOL     OW27964   6.624   9.363   2.041 -0.8961  0.3953 -0.1308
 8742SOL    HW127965   6.712   9.399   2.052  0.0580 -1.8752  0.1890
 8742SOL    HW227966   6.612   9.305   2.115 -2.4058  0.1237 -0.5495
 8743SOL     OW27967   6.471   7.000   8.789  0.0202  0.6903 -0.2577
 8743SOL    HW127968   6.508   7.037   8.869 -1.0153  0.2639  0.4399
 8743SOL    HW227969   6.428   6.919   8.817  0.5180 -0.0031 -1.4224
 8744SOL     OW27970   6.763   6.372   7.617  0.0652  0.0493  0.0278
 8744SOL    HW127971   6.750   6.398   7.525  0.1286 -0.2501 -0.0685
 8744SOL    HW227972   6.768   6.454   7.665  0.3828  0.2211 -0.2877
 8745SOL     OW27973   6.149   6.309   5.094 -0.0566  0.5450  0.4443
 8745SOL    HW127974   6.220   6.308   5.158 -0.9297 -0.0969  1.4383
 8745SOL    HW227975   6.118   6.400   5.094  1.1459  0.9778 -0.4646
 8746SOL     OW27976   0.873   8.869   0.163 -0.3526 -0.5336 -0.1786
 8746SOL    HW127977   0.958   8.895   0.199 -1.1043 -0.4837  1.7117
 8746SOL    HW227978   0.849   8.792   0.213 -2.3533  0.6901  0.8733
 8747SOL     OW27979   3.821   8.666   2.800 -0.0501 -0.5884  0.0993
 8747SOL    HW127980   3.805   8.641   2.892 -3.2001  0.9442  0.1182
 8747SOL    HW227981   3.805   8.585   2.751 -1.1659 -0.7998  0.7630
 8748SOL     OW27982   4.712   8.378   9.287  0.2179 -0.1917 -0.2102
 8748SOL    HW127983   4.629   8.331   9.292 -1.1302  2.0823  0.2129
 8748SOL    HW227984   4.695   8.450   9.226  2.0040  0.1355 -0.3770
 8749SOL     OW27985   0.235   5.349   7.069  0.3197  0.0071  0.3648
 8749SOL    HW127986   0.321   5.355   7.112  0.1531 -1.0119  0.8783
 8749SOL    HW227987   0.255   5.325   6.979  0.7492  3.3814 -0.5855
 8750SOL     OW27988   8.735   3.187   0.857 -0.1805 -0.2768 -0.4740
 8750SOL    HW127989   8.828   3.204   0.875  0.0843 -1.1523 -0.9524
 8750SOL    HW227990   8.706   3.130   0.928 -0.8774  1.4996  0.7290
 8751SOL     OW27991   3.072   2.408   4.250 -0.1638  0.1660  0.1285
 8751SOL    HW127992   3.157   2.383   4.287 -0.0177 -0.3872 -0.5414
 8751SOL    HW227993   3.027   2.324   4.237 -1.2218  0.5054  1.3925
 8752SOL     OW27994   1.976   2.070   9.309 -0.3089  0.0360 -0.0496
 8752SOL    HW127995   2.031   1.993   9.327  0.0670  0.2635 -0.2208
 8752SOL    HW227996   1.962   2.110   9.395 -1.4952 -0.8811  0.2051
 8753SOL     OW27997   0.397   3.398   6.522  0.0476  0.3303 -0.4464
 8753SOL    HW127998   0.362   3.314   6.490 -3.0251  0.8765  1.1668
 8753SOL    HW227999   0.460   3.373   6.589  0.5188 -0.6777 -1.2241
 8754SOL     OW28000   1.756   6.687   1.426 -0.0227 -0.4985  0.3623
 8754SOL    HW128001   1.774   6.610   1.480 -0.3361 -1.4200 -0.8011
 8754SOL    HW228002   1.698   6.741   1.479  0.7528 -0.7176  1.4678
 8755SOL     OW28003   2.408   5.257   1.257  0.0612  1.0649  0.4413
 8755SOL    HW128004   2.417   5.191   1.326 -1.9370 -0.9245 -1.0937
 8755SOL    HW228005   2.349   5.322   1.294 -0.5899  0.2785  0.8097
 8756SOL     OW28006   9.296   1.028   4.968  0.4641  0.1333 -0.1039
 8756SOL    HW128007   9.290   1.024   4.872 -3.6298 -0.7459  0.0124
 8756SOL    HW228008   9.284   1.120   4.990 -0.8555  0.0559 -0.4295
 8757SOL     OW28009   9.462   6.092   2.773 -0.5185 -0.1388 -0.5307
 8757SOL    HW128010   9.375   6.132   2.770  0.3438  1.7925 -2.5889
 8757SOL    HW228011   9.500   6.123   2.856 -1.8937 -1.4336  0.6557
 8758SOL     OW28012   7.257   7.220   5.345  0.7072 -0.2781  0.5488
 8758SOL    HW128013   7.293   7.305   5.371  2.7210 -0.0795 -2.3773
 8758SOL    HW228014   7.334   7.168   5.319 -0.7795 -1.1331 -2.6401
 8759SOL     OW28015   9.319   9.362   8.191 -0.9313 -0.2626  0.2808
 8759SOL    HW128016   9.277   9.293   8.242  2.9132 -3.1208  0.0238
 8759SOL    HW228017   9.269   9.365   8.109 -1.1252 -2.9998  0.2121
 8760SOL     OW28018   7.312   8.675   8.340 -0.4223  0.1737  0.4597
 8760SOL    HW128019   7.377   8.687   8.272  0.9422 -0.0920  1.6717
 8760SOL    HW228020   7.250   8.612   8.304  0.4647 -0.2255 -0.3901
 8761SOL     OW28021   5.464   6.607   3.388  0.0846  0.0124  0.6194
 8761SOL    HW128022   5.491   6.539   3.326 -0.5207 -0.3743  0.7638
 8761SOL    HW228023   5.424   6.558   3.460  2.6774  0.2969  2.3609
 8762SOL     OW28024   9.433   3.775   0.532  0.0351  0.0280 -0.2192
 8762SOL    HW128025   9.467   3.750   0.618  0.8116  2.1109  0.1269
 8762SOL    HW228026   9.509   3.809   0.485 -0.5531 -0.2974 -1.4428
 8763SOL     OW28027   3.489   7.263   6.983 -0.6997 -0.4833 -0.3949
 8763SOL    HW128028   3.488   7.343   7.035  0.0752  0.2593 -1.4703
 8763SOL    HW228029   3.551   7.282   6.912 -2.0875 -1.2525 -1.8649
 8764SOL     OW28030   2.997   5.635   4.000  0.1730  0.0066  0.4413
 8764SOL    HW128031   3.063   5.577   4.038  1.5656  0.7089 -0.7830
 8764SOL    HW228032   3.043   5.719   3.988 -1.1735  0.7430  0.2302
 8765SOL     OW28033   2.287   2.446   9.117 -0.1944 -0.0006 -0.2845
 8765SOL    HW128034   2.259   2.355   9.124  0.4272 -0.1558  0.2469
 8765SOL    HW228035   2.360   2.443   9.054  0.6980 -0.0790  0.7291
 8766SOL     OW28036   7.112   6.960   1.865 -0.8726 -0.1544 -0.6703
 8766SOL    HW128037   7.174   7.034   1.865 -2.3563  1.1331 -0.1771
 8766SOL    HW228038   7.167   6.884   1.845  0.8026  0.9890 -0.6907
 8767SOL     OW28039   7.151   7.151   8.605 -0.1665 -0.2911  0.1777
 8767SOL    HW128040   7.073   7.186   8.648 -1.1076 -0.6731 -1.1450
 8767SOL    HW228041   7.142   7.056   8.613 -0.6290 -0.3911 -1.2596
 8768SOL     OW28042   6.928   5.591   5.816  0.5843  0.1295 -0.6216
 8768SOL    HW128043   6.881   5.656   5.868  0.5317 -1.2852  1.2138
 8768SOL    HW228044   6.859   5.531   5.786  0.9367 -0.8890  0.4942
 8769SOL     OW28045   8.994   6.072   3.664 -0.0349 -0.1207 -0.2731
 8769SOL    HW128046   9.042   6.151   3.688 -0.0847  0.8639 -3.0415
 8769SOL    HW228047   8.913   6.104   3.625 -1.4971 -1.6705  1.3705
 8770SOL     OW28048   5.013   1.987   5.499 -0.1603 -0.0547 -0.1367
 8770SOL    HW128049   5.010   2.014   5.407  0.3161  0.5371  0.0170
 8770SOL    HW228050   4.924   2.001   5.531 -0.6660 -1.4785 -0.8351
 8771SOL     OW28051   0.792   0.707   8.119 -0.1740  0.1473 -0.8312
 8771SOL    HW128052   0.808   0.634   8.179 -0.2877 -0.1444 -1.1519
 8771SOL    HW228053   0.880   0.737   8.095 -0.0840  1.6278  1.0866
 8772SOL     OW28054   3.948   0.577   2.816  0.2224 -0.1720  0.1401
 8772SOL    HW128055   3.992   0.642   2.870 -1.6943  0.3843  1.1079
 8772SOL    HW228056   3.880   0.626   2.769  0.4421 -1.0339 -1.1485
 8773SOL     OW28057   4.129   0.651   0.790  0.0624  0.0355 -0.0412
 8773SOL    HW128058   4.202   0.603   0.751  0.1529  0.9896 -1.0873
 8773SOL    HW228059   4.128   0.623   0.881 -0.1389 -2.2599 -0.6879
 8774SOL     OW28060   3.298   5.031   3.639  0.4963 -0.1805 -0.4038
 8774SOL    HW128061   3.361   5.103   3.650 -0.5413  0.6896  0.0015
 8774SOL    HW228062   3.289   5.022   3.544  2.6768 -1.6603 -0.5685
 8775SOL     OW28063   2.992   3.516   4.656  0.0674 -0.1748 -0.1863
 8775SOL    HW128064   2.935   3.478   4.723  1.7149 -0.0507  1.3841
 8775SOL    HW228065   3.038   3.587   4.701  0.5096  0.5711 -1.7504
 8776SOL     OW28066   9.116   2.509   1.270 -0.3412 -0.2539  0.2485
 8776SOL    HW128067   9.045   2.446   1.254  0.6317 -1.5515  0.8001
 8776SOL    HW228068   9.185   2.483   1.209  0.8594 -1.0833  1.8694
 8777SOL     OW28069   5.700   6.431   6.397  0.3177  0.2056 -0.2038
 8777SOL    HW128070   5.727   6.402   6.484  0.9788 -0.4399 -0.6099
 8777SOL    HW228071   5.659   6.354   6.357 -0.7289  0.7316 -0.1739
 8778SOL     OW28072   3.191   2.115   1.802  0.4830 -0.5589 -0.3808
 8778SOL    HW128073   3.255   2.169   1.849 -0.4056 -2.5624  3.5605
 8778SOL    HW228074   3.167   2.167   1.725  2.6821  2.7173  0.9303
 8779SOL     OW28075   6.459   4.373   9.279  0.2042  0.1643 -0.6154
 8779SOL    HW128076   6.530   4.316   9.310  0.1831  0.5447  0.1543
 8779SOL    HW228077   6.394   4.370   9.348  0.9302  2.4114  0.2437
 8780SOL     OW28078   1.500   0.644   4.259 -0.6029 -0.0709  0.2284
 8780SOL    HW128079   1.569   0.634   4.324 -0.4331 -1.1306 -0.1032
 8780SOL    HW228080   1.530   0.715   4.202  0.3207 -0.6567 -0.0360
 8781SOL     OW28081   2.272   7.561   4.688  0.3330 -0.7047  0.5644
 8781SOL    HW128082   2.243   7.484   4.738  1.2854 -1.4325  0.0336
 8781SOL    HW228083   2.363   7.573   4.714  0.5922 -0.5809 -0.3630
 8782SOL     OW28084   1.773   6.275   2.927  0.1447 -0.5677  0.4452
 8782SOL    HW128085   1.697   6.301   2.875 -1.4280 -0.9260  2.4443
 8782SOL    HW228086   1.778   6.342   2.996  1.0669 -1.0960  0.9069
 8783SOL     OW28087   7.991   9.493   0.085 -0.0604  0.2979 -0.1906
 8783SOL    HW128088   7.995   9.398   0.080 -0.5826  0.2695 -0.1763
 8783SOL    HW228089   7.974   9.520  -0.006  2.5777  0.5431 -0.6848
 8784SOL     OW28090   6.469   5.459   6.278 -0.6369 -0.3923 -0.0572
 8784SOL    HW128091   6.390   5.487   6.231  0.4442  1.9744 -0.6308
 8784SOL    HW228092   6.505   5.389   6.224 -2.4363 -1.7198  0.3693
 8785SOL     OW28093   2.219   7.271   6.757  0.0753 -0.5605 -0.2982
 8785SOL    HW128094   2.254   7.253   6.844 -1.1377 -2.1932 -0.1112
 8785SOL    HW228095   2.265   7.210   6.700  0.2574 -0.0749 -0.6760
 8786SOL     OW28096   9.016   7.558   3.918 -0.2814  0.1234 -0.0485
 8786SOL    HW128097   8.967   7.481   3.945 -0.6888  0.0360 -0.9996
 8786SOL    HW228098   9.025   7.549   3.823  0.0027  1.0483 -0.1195
 8787SOL     OW28099   8.774   8.923   0.598  0.2068  0.4275 -0.3928
 8787SOL    HW128100   8.796   8.887   0.684 -2.5861 -0.8296 -0.1346
 8787SOL    HW228101   8.783   8.850   0.537 -1.1613  0.4058 -0.5925
 8788SOL     OW28102   0.083   6.772   4.428  0.2065 -0.1591 -0.1451
 8788SOL    HW128103   0.158   6.763   4.486  0.5864 -1.1103 -0.7608
 8788SOL    HW228104   0.119   6.759   4.340 -0.7105 -0.9268 -0.4308
 8789SOL     OW28105   1.273   1.851   6.408 -0.4157  0.3511  0.7810
 8789SOL    HW128106   1.237   1.936   6.382  2.3573  1.7051  1.0162
 8789SOL    HW228107   1.196   1.795   6.420 -2.2492  1.5793 -3.3599
 8790SOL     OW28108   5.383   0.521   2.451  0.1258  0.2668 -0.2301
 8790SOL    HW128109   5.300   0.479   2.474  1.4612 -2.5086 -0.0541
 8790SOL    HW228110   5.372   0.547   2.360 -0.7377 -0.6250 -0.3997
 8791SOL     OW28111   4.797   7.292   1.463 -0.4644 -0.6553  0.1855
 8791SOL    HW128112   4.878   7.271   1.510 -0.2291  1.4567  0.7893
 8791SOL    HW228113   4.758   7.364   1.512 -1.4518  0.0246 -1.5187
 8792SOL     OW28114   9.143   5.734   9.266  0.4762 -0.1354 -0.3020
 8792SOL    HW128115   9.171   5.807   9.321  1.3504 -1.7779  1.6155
 8792SOL    HW228116   9.062   5.703   9.306  0.1129 -0.2115 -1.0829
 8793SOL     OW28117   8.370   9.020   5.002  0.5178 -0.8461  0.0933
 8793SOL    HW128118   8.331   8.942   4.963  1.2106 -1.1474 -0.0229
 8793SOL    HW228119   8.312   9.092   4.977  1.0816 -0.9855 -1.7704
 8794SOL     OW28120   1.520   4.054   8.995  0.0930 -0.3051 -0.3823
 8794SOL    HW128121   1.507   4.117   9.066 -1.2189  1.2170 -1.8836
 8794SOL    HW228122   1.611   4.027   9.002 -0.3956 -1.6115  2.9410
 8795SOL     OW28123   7.572   7.150   5.666  0.2168  0.2981  0.2827
 8795SOL    HW128124   7.575   7.213   5.738 -1.6767  0.1890  0.5041
 8795SOL    HW228125   7.479   7.132   5.654  0.5920 -0.8020 -1.2361
 8796SOL     OW28126   6.663   7.921   5.189 -0.5346 -0.5426 -0.1154
 8796SOL    HW128127   6.601   7.959   5.251 -1.6569 -0.5344 -1.2200
 8796SOL    HW228128   6.673   7.830   5.218 -0.3560 -0.3098  0.5878
 8797SOL     OW28129   8.156   1.970   1.758  0.1755  0.7359  0.0842
 8797SOL    HW128130   8.170   1.981   1.664 -2.0514  1.2904 -0.2438
 8797SOL    HW228131   8.088   1.902   1.765 -1.1501  2.0914  1.1485
 8798SOL     OW28132   1.415   3.105   8.296 -0.0475  0.0938 -0.0255
 8798SOL    HW128133   1.421   3.062   8.381 -0.4235  1.2627  0.6267
 8798SOL    HW228134   1.446   3.040   8.234 -1.0677 -1.2908  0.8395
 8799SOL     OW28135   9.572   4.887   3.959  0.1264  0.6061 -0.3433
 8799SOL    HW128136   9.636   4.899   4.030  0.7418 -0.1867 -0.7392
 8799SOL    HW228137   9.581   4.795   3.935  0.4376  1.0295 -1.9242
 8800SOL     OW28138   5.688   4.250   3.551 -0.2652  0.0337 -0.1600
 8800SOL    HW128139   5.766   4.199   3.527 -0.7846 -1.4383  1.1050
 8800SOL    HW228140   5.668   4.302   3.473 -1.3329 -3.7243 -2.6326
 8801SOL     OW28141   1.360   6.107   4.039 -0.0860 -0.3310 -0.1281
 8801SOL    HW128142   1.433   6.051   4.063  2.5436  2.3418 -1.2342
 8801SOL    HW228143   1.323   6.066   3.960  0.8581 -1.2113 -0.1342
 8802SOL     OW28144   3.066   7.557   7.152 -0.9344 -0.0365  0.7909
 8802SOL    HW128145   3.085   7.588   7.240  2.5908  3.3549 -0.8666
 8802SOL    HW228146   3.107   7.470   7.148  0.7169  0.6402  1.9754
 8803SOL     OW28147   5.668   7.060   5.591  0.1697  0.1438 -0.8089
 8803SOL    HW128148   5.750   7.111   5.587  1.0196 -1.1534 -0.6332
 8803SOL    HW228149   5.634   7.063   5.502  1.5894 -1.0908 -1.4471
 8804SOL     OW28150   7.861   2.611   5.187  0.4140  0.1449 -0.0744
 8804SOL    HW128151   7.840   2.693   5.233 -0.6918 -1.3576  2.3087
 8804SOL    HW228152   7.891   2.639   5.101 -0.8330  3.0156  0.3043
 8805SOL     OW28153   0.310   7.483   4.436 -0.6476  0.4493 -0.4508
 8805SOL    HW128154   0.364   7.561   4.436  0.2717 -0.1648 -1.5600
 8805SOL    HW228155   0.345   7.428   4.366 -1.0792 -1.0908  0.4804
 8806SOL     OW28156   1.429   9.384   5.651 -0.3742  0.5473 -0.1012
 8806SOL    HW128157   1.508   9.387   5.598 -0.3514 -2.6532 -0.3920
 8806SOL    HW228158   1.359   9.414   5.592 -0.0100 -0.8300 -1.2723
 8807SOL     OW28159   6.549   0.552   7.922 -0.4446  0.6800  0.3520
 8807SOL    HW128160   6.465   0.571   7.881  0.0781  1.1783 -0.5188
 8807SOL    HW228161   6.565   0.460   7.900  0.0373  1.0602 -0.9809
 8808SOL     OW28162   3.974   0.375   1.247 -0.0514  0.3775  0.5678
 8808SOL    HW128163   3.923   0.431   1.307  0.9679  0.5518  1.3143
 8808SOL    HW228164   3.930   0.291   1.249  0.1229  0.2914  1.8343
 8809SOL     OW28165   0.103   7.859   0.707  0.2293 -0.2866  0.0937
 8809SOL    HW128166   0.009   7.839   0.704  0.4132 -1.1301 -1.7076
 8809SOL    HW228167   0.108   7.951   0.681 -0.0957 -0.2310  0.2208
 8810SOL     OW28168   1.321   4.194   8.203  0.9953 -0.2483  0.6914
 8810SOL    HW128169   1.255   4.231   8.262 -1.1512 -0.8552 -1.2106
 8810SOL    HW228170   1.345   4.111   8.244  0.8528  0.1526  1.6071
 8811SOL     OW28171   5.407   6.989   8.728  0.5941 -0.4139 -0.7986
 8811SOL    HW128172   5.502   6.977   8.720  0.7117 -0.6628  0.7628
 8811SOL    HW228173   5.370   6.911   8.687  1.0242 -0.1377 -1.7638
 8812SOL     OW28174   9.006   0.238   4.539  0.2757 -0.0730  0.1774
 8812SOL    HW128175   9.044   0.189   4.466  0.1935  1.8064 -1.1960
 8812SOL    HW228176   8.924   0.273   4.504  0.9485  2.0846  0.6538
 8813SOL     OW28177   5.983   8.182   0.020  0.0958  0.4892 -0.1492
 8813SOL    HW128178   5.929   8.175   0.098  0.3282 -2.6705 -0.1650
 8813SOL    HW228179   5.944   8.121  -0.042  1.4738  0.9578 -1.5448
 8814SOL     OW28180   8.343   4.447   8.866 -0.4729  0.8602 -0.2813
 8814SOL    HW128181   8.405   4.472   8.798 -0.2899 -1.0844 -0.8978
 8814SOL    HW228182   8.289   4.379   8.826  1.5256 -2.5952  2.2261
 8815SOL     OW28183   1.055   1.412   6.953  0.1896  0.3503  0.0817
 8815SOL    HW128184   1.100   1.352   6.894  0.9989 -0.6259  1.6104
 8815SOL    HW228185   0.963   1.389   6.946  0.6944 -3.7124  3.1994
 8816SOL     OW28186   8.969   5.908   6.407  0.3087  0.4194 -0.0467
 8816SOL    HW128187   8.970   5.934   6.315  2.1560  0.7414  0.0325
 8816SOL    HW228188   8.969   5.812   6.405  1.7479  0.4094 -0.4162
 8817SOL     OW28189   5.151   7.953   6.769 -0.0731 -0.0345 -0.0841
 8817SOL    HW128190   5.090   7.951   6.843 -0.4967 -0.6431 -0.4360
 8817SOL    HW228191   5.234   7.922   6.805 -0.1455  0.1624  0.2508
 8818SOL     OW28192   5.424   4.834   0.662  0.1587 -0.3120 -0.1399
 8818SOL    HW128193   5.329   4.826   0.670  0.1316 -0.4727 -0.5924
 8818SOL    HW228194   5.444   4.919   0.702 -0.3369  0.3429 -1.2100
 8819SOL     OW28195   4.243   9.463   6.889 -0.1769  0.1700 -0.1658
 8819SOL    HW128196   4.308   9.530   6.868 -0.9401  0.6939 -0.9382
 8819SOL    HW228197   4.208   9.489   6.974 -0.7664  1.0110 -0.6500
 8820SOL     OW28198   4.373   2.490   1.409  0.0650  0.1909  0.4535
 8820SOL    HW128199   4.294   2.523   1.452  0.0706  1.4816 -0.4843
 8820SOL    HW228200   4.405   2.421   1.467 -2.1885 -0.9198  0.4733
 8821SOL     OW28201   7.960   2.772   2.676  0.7292 -0.0290 -0.3967
 8821SOL    HW128202   8.049   2.736   2.687  1.3128  1.4507 -0.0738
 8821SOL    HW228203   7.958   2.804   2.586  0.5796  0.0957 -0.3485
 8822SOL     OW28204   6.565   8.719   4.051 -0.3047 -0.7054 -0.1750
 8822SOL    HW128205   6.494   8.677   4.004  0.8335 -0.5837 -2.1532
 8822SOL    HW228206   6.612   8.648   4.094 -1.9379 -0.7167  1.7083
 8823SOL     OW28207   1.287   5.736   6.768 -0.4040 -0.2703  0.3618
 8823SOL    HW128208   1.245   5.792   6.703  0.2589  0.8331  0.8688
 8823SOL    HW228209   1.308   5.656   6.720 -4.5980 -1.6759  0.4575
 8824SOL     OW28210   5.660   4.671   3.841  0.0365  0.2432 -0.2335
 8824SOL    HW128211   5.632   4.613   3.771 -1.6549 -0.3687  0.8866
 8824SOL    HW228212   5.579   4.696   3.886  0.9706  1.3732  0.9230
 8825SOL     OW28213   2.708   6.150   2.367  0.5494  0.0107  0.3574
 8825SOL    HW128214   2.740   6.228   2.414 -0.7373  1.1394 -0.5632
 8825SOL    HW228215   2.651   6.107   2.430  1.8090 -0.6117  1.1185
 8826SOL     OW28216   1.701   5.038   1.778  0.4350 -0.4044 -0.3435
 8826SOL    HW128217   1.793   5.022   1.756  0.3432 -1.3372 -0.0950
 8826SOL    HW228218   1.651   4.982   1.719  0.0790 -0.7935  0.3100
 8827SOL     OW28219   1.851   7.113   3.286  0.0763 -0.5860 -0.6431
 8827SOL    HW128220   1.849   7.160   3.370  2.4722 -1.8636  0.2581
 8827SOL    HW228221   1.766   7.070   3.280 -0.1120 -0.5848  1.2575
 8828SOL     OW28222   8.716   0.688   8.271  0.6458  0.2897  0.2391
 8828SOL    HW128223   8.693   0.753   8.338  0.4203 -0.4840  0.9378
 8828SOL    HW228224   8.809   0.670   8.285  0.2871 -0.9131  1.3136
 8829SOL     OW28225   2.284   3.628   1.562  0.3778  0.2694 -0.0391
 8829SOL    HW128226   2.231   3.687   1.616 -1.3435 -1.1730 -0.0462
 8829SOL    HW228227   2.288   3.670   1.477 -0.8865  0.3748 -0.0675
 8830SOL     OW28228   7.696   0.713   6.196  0.1906  0.1894  0.3410
 8830SOL    HW128229   7.638   0.714   6.120  1.1460 -1.6959 -0.4795
 8830SOL    HW228230   7.746   0.795   6.189 -1.2378  1.0885  0.2079
 8831SOL     OW28231   0.978   2.272   8.493 -0.3891 -0.0913 -0.3007
 8831SOL    HW128232   0.915   2.294   8.561 -0.0462 -0.3573  0.1164
 8831SOL    HW228233   1.062   2.304   8.527 -0.5181  1.6849 -1.5484
 8832SOL     OW28234   2.006   5.183   4.805  0.2687  0.5881  0.5819
 8832SOL    HW128235   1.939   5.245   4.775  1.2993  1.0044 -0.9986
 8832SOL    HW228236   1.961   5.098   4.804  0.2406  0.4880 -2.6481
 8833SOL     OW28237   3.570   6.487   8.955  0.1827  0.0653 -0.1889
 8833SOL    HW128238   3.525   6.416   8.909 -0.4605 -0.0654  0.6212
 8833SOL    HW228239   3.500   6.544   8.986  0.5379 -0.2944  1.3470
 8834SOL     OW28240   0.027   7.228   3.075  0.3216  0.2327  0.7923
 8834SOL    HW128241   0.046   7.321   3.093  0.4060  0.6818 -1.3057
 8834SOL    HW228242   0.047   7.218   2.982 -0.5857 -1.6911  0.7688
 8835SOL     OW28243   4.665   0.238   1.242 -0.2864  0.0540 -0.6394
 8835SOL    HW128244   4.572   0.259   1.235 -0.7471 -2.2502 -2.7226
 8835SOL    HW228245   4.670   0.176   1.314  0.1321  2.1082  1.2270
 8836SOL     OW28246   2.635   8.664   6.099 -0.0931 -0.3515 -0.2459
 8836SOL    HW128247   2.614   8.728   6.031 -0.4592  0.6882  0.8004
 8836SOL    HW228248   2.717   8.695   6.138  2.6410 -3.3057 -2.9819
 8837SOL     OW28249   1.113   8.042   4.558 -0.5222 -0.3508 -0.3564
 8837SOL    HW128250   1.029   8.000   4.578  0.2437 -1.5976  0.3855
 8837SOL    HW228251   1.165   7.973   4.517  0.1300  0.4288 -0.8779
 8838SOL     OW28252   4.264   2.751   2.922  0.5793  0.3723 -0.2066
 8838SOL    HW128253   4.285   2.799   3.003  0.4584 -0.0083  0.0545
 8838SOL    HW228254   4.230   2.817   2.863 -1.5069  0.3150  0.8222
 8839SOL     OW28255   7.851   7.355   7.163 -0.4788  0.9669  0.2744
 8839SOL    HW128256   7.756   7.348   7.157 -0.3467 -0.7617 -0.6744
 8839SOL    HW228257   7.884   7.299   7.091  1.2441  1.9528  0.2348
 8840SOL     OW28258   2.080   6.132   0.395  0.4132 -0.7782 -0.0705
 8840SOL    HW128259   2.038   6.074   0.331 -0.9821  0.9962 -0.8397
 8840SOL    HW228260   2.022   6.130   0.471 -1.0881  1.4944 -1.0475
 8841SOL     OW28261   0.918   5.627   3.332  0.6112 -0.4699  0.1959
 8841SOL    HW128262   0.961   5.623   3.247 -0.7000 -2.6211 -0.4393
 8841SOL    HW228263   0.856   5.700   3.324 -0.8696 -1.8116 -1.4726
 8842SOL     OW28264   7.197   0.577   9.350  0.1815  0.6398 -0.1462
 8842SOL    HW128265   7.240   0.623   9.278 -2.6124  2.4303 -0.8544
 8842SOL    HW228266   7.158   0.500   9.310  2.9286 -1.2891  0.5997
 8843SOL     OW28267   8.611   6.148   3.920 -0.0826 -0.0679 -0.1882
 8843SOL    HW128268   8.623   6.233   3.963  0.2834  0.4712 -1.3198
 8843SOL    HW228269   8.529   6.155   3.873  1.1715  0.6254 -2.3983
 8844SOL     OW28270   0.860   5.746   1.283 -0.3649  0.6271 -0.3004
 8844SOL    HW128271   0.939   5.698   1.259  0.2603  0.6270  1.5941
 8844SOL    HW228272   0.890   5.810   1.347 -1.8683  0.7882  0.2653
 8845SOL     OW28273   5.765   0.823   1.067 -0.2096  1.1311  0.2052
 8845SOL    HW128274   5.697   0.888   1.083 -1.0479  0.3915 -0.2342
 8845SOL    HW228275   5.799   0.845   0.980 -2.4909 -0.6416 -1.2788
 8846SOL     OW28276   0.727   4.210   0.922 -0.2648 -0.5741 -0.1180
 8846SOL    HW128277   0.681   4.282   0.879 -0.6630  0.1334  1.4454
 8846SOL    HW228278   0.820   4.229   0.907 -0.3404  0.6367  0.8199
 8847SOL     OW28279   3.612   3.584   1.163  0.6076  0.4132 -0.3394
 8847SOL    HW128280   3.610   3.522   1.090 -1.4355  1.7640 -1.5358
 8847SOL    HW228281   3.634   3.668   1.123  1.9854  0.7651  1.0444
 8848SOL     OW28282   0.171   6.307   4.183  0.1914 -0.2493 -0.1883
 8848SOL    HW128283   0.171   6.225   4.233  2.4016 -0.2871 -0.1867
 8848SOL    HW228284   0.127   6.370   4.240 -1.7834 -1.4413 -0.2969
 8849SOL     OW28285   7.648   1.389   3.285 -0.0089  0.1825  0.7158
 8849SOL    HW128286   7.719   1.451   3.270 -0.8216  0.5738 -2.0802
 8849SOL    HW228287   7.615   1.368   3.197 -1.2484 -2.4788  1.6932
 8850SOL     OW28288   8.829   9.213   2.972  0.4808  0.3942  0.2154
 8850SOL    HW128289   8.867   9.233   3.057  2.3213 -4.1040  0.6896
 8850SOL    HW228290   8.904   9.210   2.912  0.4553 -3.7343  0.1351
 8851SOL     OW28291   4.795   3.801   0.380  0.2256  0.6953  0.0625
 8851SOL    HW128292   4.769   3.790   0.471  0.1216 -1.6847 -0.2130
 8851SOL    HW228293   4.885   3.770   0.376  0.7650  2.2233 -0.3903
 8852SOL     OW28294   9.305   4.603   8.153 -0.1389  0.5137  0.3995
 8852SOL    HW128295   9.260   4.523   8.178 -1.3300  0.2301 -2.3232
 8852SOL    HW228296   9.247   4.673   8.181 -2.2446  0.1632 -2.6399
 8853SOL     OW28297   8.730   5.604   5.234 -0.3928  0.4615 -0.1209
 8853SOL    HW128298   8.805   5.546   5.249 -0.5497 -0.2122 -1.7248
 8853SOL    HW228299   8.727   5.660   5.312  0.2346 -1.1554  1.1223
 8854SOL     OW28300   1.511   3.463   0.973  0.7697 -0.4943 -0.0452
 8854SOL    HW128301   1.593   3.467   1.022  1.4642 -1.2532 -1.1000
 8854SOL    HW228302   1.538   3.451   0.882 -0.4904  0.6142 -0.5892
 8855SOL     OW28303   4.125   8.976   9.091 -0.2035 -0.2440  0.0595
 8855SOL    HW128304   4.144   8.992   9.184 -1.9656  0.5434  0.3181
 8855SOL    HW228305   4.047   8.921   9.092 -0.2757 -0.1730 -0.9796
 8856SOL     OW28306   0.919   6.296   0.317  0.0181  0.3206  0.0361
 8856SOL    HW128307   0.941   6.389   0.319  3.5248 -0.2800 -1.8970
 8856SOL    HW228308   0.939   6.265   0.405  0.6843  1.0601  0.1597
 8857SOL     OW28309   6.467   1.747   7.593  0.4939  0.2753 -0.1955
 8857SOL    HW128310   6.377   1.717   7.581  0.6871 -0.7540  0.7711
 8857SOL    HW228311   6.460   1.842   7.602 -0.6371  0.0967  1.0407
 8858SOL     OW28312   2.213   9.095   0.210 -0.2729  0.0114 -0.0439
 8858SOL    HW128313   2.225   9.142   0.292 -0.0291  0.0742 -0.1150
 8858SOL    HW228314   2.261   9.148   0.145 -0.5659  0.0295 -0.2476
 8859SOL     OW28315   5.939   5.673   4.600  0.4506 -0.5771 -0.1443
 8859SOL    HW128316   5.961   5.735   4.530 -1.2356  1.5353  1.0816
 8859SOL    HW228317   5.981   5.710   4.678 -0.8670 -0.7527  0.6807
 8860SOL     OW28318   7.936   6.134   1.059  0.8266 -0.3355  0.1373
 8860SOL    HW128319   7.889   6.158   0.979  1.5574 -1.2540 -0.5842
 8860SOL    HW228320   7.917   6.042   1.072 -0.3099  0.0818  1.7573
 8861SOL     OW28321   2.719   2.082   1.234  0.2410  0.0716 -0.6047
 8861SOL    HW128322   2.779   2.140   1.188  0.8381  0.2585  0.3706
 8861SOL    HW228323   2.756   2.074   1.322 -0.3670 -1.0032 -0.4260
 8862SOL     OW28324   1.364   3.784   0.354 -0.1020  0.1960  0.5604
 8862SOL    HW128325   1.452   3.821   0.343 -0.4459  0.3714 -2.3164
 8862SOL    HW228326   1.305   3.856   0.332 -0.9178 -0.4998  0.4126
 8863SOL     OW28327   5.389   6.043   5.254 -0.2806 -0.6841 -0.8076
 8863SOL    HW128328   5.480   6.034   5.227 -0.5953 -0.6717 -1.9375
 8863SOL    HW228329   5.343   5.973   5.206 -0.5604 -2.1378  1.4250
 8864SOL     OW28330   2.225   9.293   8.236 -0.0487  0.0411  0.6961
 8864SOL    HW128331   2.131   9.276   8.244 -0.0044 -1.3701 -1.0400
 8864SOL    HW228332   2.252   9.239   8.161  1.6476  2.3884 -0.4911
 8865SOL     OW28333   3.834   1.943   0.191  0.3522  0.8339  0.0076
 8865SOL    HW128334   3.869   2.001   0.259 -0.1890  0.8406  0.2889
 8865SOL    HW228335   3.742   1.968   0.184 -0.0069 -0.3153  0.4711
 8866SOL     OW28336   8.808   0.536   6.020 -0.4426 -0.4660  0.1899
 8866SOL    HW128337   8.899   0.542   6.048  0.1439 -1.9562 -1.2046
 8866SOL    HW228338   8.786   0.623   5.989  1.0104 -0.4317 -0.8151
 8867SOL     OW28339   4.638   4.997   3.560 -0.3143  0.2223  0.1137
 8867SOL    HW128340   4.600   5.035   3.480 -1.2135 -0.2453  0.3099
 8867SOL    HW228341   4.640   5.070   3.622 -3.1291 -0.2284  0.8739
 8868SOL     OW28342   6.029   1.005   6.431  0.1451 -0.2467  0.4953
 8868SOL    HW128343   6.026   0.929   6.489  2.8386 -1.9872 -1.3831
 8868SOL    HW228344   6.113   1.046   6.449  0.0499  0.4896 -0.6235
 8869SOL     OW28345   2.937   0.939   5.994  0.2090 -0.0635  0.3201
 8869SOL    HW128346   3.028   0.957   5.971  0.6330  0.3744  2.1659
 8869SOL    HW228347   2.904   1.022   6.028 -0.4190 -0.5836  1.0296
 8870SOL     OW28348   2.319   6.796   8.981  0.0628 -0.2475 -0.5400
 8870SOL    HW128349   2.243   6.744   9.009 -0.5902 -0.4500 -2.5290
 8870SOL    HW228350   2.290   6.887   8.989  0.5775 -0.1907  1.2049
 8871SOL     OW28351   7.323   8.656   2.264 -0.0155  0.3065 -0.0189
 8871SOL    HW128352   7.347   8.744   2.236 -1.5851 -0.0860 -2.9827
 8871SOL    HW228353   7.379   8.599   2.210 -0.4937 -0.5161  0.3465
 8872SOL     OW28354   6.596   7.851   4.912  0.2399  0.0988 -0.8222
 8872SOL    HW128355   6.615   7.943   4.894  1.2383  0.1088  0.1961
 8872SOL    HW228356   6.610   7.841   5.006 -0.9528 -0.8493 -0.7229
 8873SOL     OW28357   7.462   3.940   3.254  0.5677  0.2760 -0.2702
 8873SOL    HW128358   7.382   3.991   3.269 -0.1318 -1.0463  0.7718
 8873SOL    HW228359   7.513   3.993   3.192 -0.8263  1.4476 -0.4870
 8874SOL     OW28360   0.049   8.717   5.432 -0.0166 -0.0677  0.3754
 8874SOL    HW128361   0.020   8.725   5.342 -0.1413 -1.3183  0.2886
 8874SOL    HW228362   0.145   8.711   5.426 -0.0738 -0.9725  0.2469
 8875SOL     OW28363   2.324   7.823   9.039  0.2618  0.3407  0.0405
 8875SOL    HW128364   2.353   7.820   9.131  0.9504 -1.9225 -0.1839
 8875SOL    HW228365   2.393   7.872   8.994  1.1284 -0.5404  0.3786
 8876SOL     OW28366   3.578   3.231   7.422 -0.1602  0.5015  0.1347
 8876SOL    HW128367   3.590   3.296   7.352 -0.1664  1.4246  0.9714
 8876SOL    HW228368   3.515   3.271   7.482 -0.8107 -0.6446  0.2399
 8877SOL     OW28369   2.980   3.404   1.696  0.0990 -0.0617 -0.1509
 8877SOL    HW128370   3.033   3.344   1.748 -1.6919  0.4465  2.4349
 8877SOL    HW228371   2.896   3.360   1.686 -0.4421  0.9830 -0.3198
 8878SOL     OW28372   9.424   1.707   8.290 -0.3468 -0.3716  0.5050
 8878SOL    HW128373   9.432   1.787   8.238  1.6343 -0.4081  0.6652
 8878SOL    HW228374   9.380   1.645   8.232 -1.8769  0.7969  0.3601
 8879SOL     OW28375   2.052   1.831   2.405  0.0095 -0.7941 -0.9583
 8879SOL    HW128376   2.091   1.868   2.325  2.2610 -1.3628 -0.1911
 8879SOL    HW228377   1.960   1.855   2.399  0.5406  1.1726 -2.6103
 8880SOL     OW28378   0.971   7.796   2.572  0.3440 -0.2012 -0.2319
 8880SOL    HW128379   0.900   7.831   2.518  1.4759  1.2609 -0.8422
 8880SOL    HW228380   1.051   7.814   2.521  1.3082 -0.1655  1.2396
 8881SOL     OW28381   3.914   0.209   4.952 -0.1843  0.1238  0.3296
 8881SOL    HW128382   3.999   0.229   4.991 -0.4120 -0.4923  1.1830
 8881SOL    HW228383   3.885   0.292   4.913  0.0161  0.8247  1.5837
 8882SOL     OW28384   7.025   1.484   8.837  0.6594 -0.1956 -0.2572
 8882SOL    HW128385   7.043   1.396   8.805 -1.1587  0.0220 -2.0895
 8882SOL    HW228386   6.935   1.480   8.870 -0.4396  1.4696 -2.7350
 8883SOL     OW28387   4.666   5.703   1.930  0.0297 -0.1985 -0.0533
 8883SOL    HW128388   4.734   5.678   1.991  2.3160  2.2420 -1.4110
 8883SOL    HW228389   4.669   5.636   1.862  1.4042  0.0722 -0.2875
 8884SOL     OW28390   0.766   0.228   4.275 -0.1517 -0.0810  0.5020
 8884SOL    HW128391   0.680   0.265   4.295  0.6410  0.4082  3.5512
 8884SOL    HW228392   0.825   0.303   4.277  0.7604 -0.7970  1.5688
 8885SOL     OW28393   3.572   8.247   6.949 -0.7600 -0.2143  0.4073
 8885SOL    HW128394   3.552   8.163   6.907 -0.6049 -0.1516  0.2088
 8885SOL    HW228395   3.636   8.288   6.892 -0.0976 -0.3841  1.0127
 8886SOL     OW28396   5.485   9.378   6.139 -0.2481 -0.4196  0.3898
 8886SOL    HW128397   5.413   9.318   6.157 -1.4640  1.4702  2.1734
 8886SOL    HW228398   5.534   9.383   6.221  0.4800  0.1679 -0.0671
 8887SOL     OW28399   1.360   3.130   2.362 -0.2506  0.3729  0.1498
 8887SOL    HW128400   1.360   3.044   2.319 -1.0565  1.5181 -2.3608
 8887SOL    HW228401   1.308   3.116   2.441 -1.6997 -1.1489 -0.9772
 8888SOL     OW28402   9.050   6.302   3.801 -0.6265 -0.2826 -0.0499
 8888SOL    HW128403   9.123   6.352   3.838 -1.0019  1.3717 -1.4417
 8888SOL    HW228404   8.986   6.297   3.872 -0.4281  0.9399  0.2411
 8889SOL     OW28405   0.232   8.081   1.122 -0.6026  0.0711  0.0635
 8889SOL    HW128406   0.284   8.006   1.091 -3.0714 -1.8388  0.2858
 8889SOL    HW228407   0.144   8.064   1.090 -1.7461  1.6760  2.1238
 8890SOL     OW28408   0.359   9.170   6.520  0.4785  0.2069 -0.5438
 8890SOL    HW128409   0.274   9.146   6.484  0.5103  0.6876 -0.9531
 8890SOL    HW228410   0.420   9.105   6.485  0.3666  0.1816 -0.6928
 8891SOL     OW28411   5.294   1.819   2.000  0.0448  0.6261  0.6518
 8891SOL    HW128412   5.261   1.832   2.089 -1.0107 -0.4916  0.4506
 8891SOL    HW228413   5.256   1.891   1.950  0.6958  1.2987  1.1000
 8892SOL     OW28414   3.393   6.896   5.451  0.6533  0.0967  0.4534
 8892SOL    HW128415   3.426   6.914   5.539  0.3130 -0.3428  0.6723
 8892SOL    HW228416   3.309   6.943   5.447  0.1201 -0.8138  0.7672
 8893SOL     OW28417   1.776   5.011   4.774  0.2735  0.0672 -0.2193
 8893SOL    HW128418   1.703   4.964   4.814  0.4457  0.6698  0.8322
 8893SOL    HW228419   1.741   5.040   4.689 -0.3986 -0.4572 -0.1354
 8894SOL     OW28420   0.433   0.246   7.797 -0.3958 -0.5804 -0.3905
 8894SOL    HW128421   0.386   0.227   7.879  0.4749 -1.3034 -0.0412
 8894SOL    HW228422   0.517   0.282   7.825 -0.2775 -0.3858 -0.9825
 8895SOL     OW28423   4.268   0.759   9.290  0.3363  0.4339  0.1654
 8895SOL    HW128424   4.317   0.711   9.357 -0.6979 -1.6994 -0.5109
 8895SOL    HW228425   4.176   0.748   9.315  0.0284  1.1409 -0.6216
 8896SOL     OW28426   0.366   1.468   2.022  0.4784  0.0977  0.0683
 8896SOL    HW128427   0.315   1.416   2.084  0.4527  0.2548  0.1800
 8896SOL    HW228428   0.446   1.490   2.070 -0.7505  2.6870  1.1437
 8897SOL     OW28429   7.728   2.298   7.340 -0.5095  0.3101  0.4393
 8897SOL    HW128430   7.686   2.383   7.326 -1.8024 -0.3862 -0.0560
 8897SOL    HW228431   7.695   2.243   7.269 -0.2409 -0.8083  1.1533
 8898SOL     OW28432   0.009   2.899   3.469 -0.0228  0.3838 -0.3031
 8898SOL    HW128433   0.042   2.861   3.387 -1.1161  2.4360 -1.7845
 8898SOL    HW228434   0.068   2.972   3.486  0.0960  0.0722  0.7013
 8899SOL     OW28435   6.629   9.067   2.786  0.4439 -0.5614 -0.4968
 8899SOL    HW128436   6.567   9.114   2.841  0.6358  0.6145 -1.2555
 8899SOL    HW228437   6.696   9.037   2.847 -0.0580 -0.4819  0.1050
 8900SOL     OW28438   5.806   0.292   8.059 -0.6257 -0.4254 -0.2594
 8900SOL    HW128439   5.742   0.240   8.108  0.8721  0.0472  2.3536
 8900SOL    HW228440   5.781   0.383   8.078  0.6282 -0.2411  0.5908
 8901SOL     OW28441   1.157   0.193   1.243  0.2619 -0.3558 -0.0372
 8901SOL    HW128442   1.157   0.132   1.317 -0.4711 -0.4434 -0.1086
 8901SOL    HW228443   1.115   0.272   1.276  0.7860 -0.0477 -0.0865
 8902SOL     OW28444   1.816   1.355   0.511  0.1281  0.2059  0.5423
 8902SOL    HW128445   1.800   1.406   0.590 -2.1171  0.1134  0.2142
 8902SOL    HW228446   1.750   1.286   0.514 -0.4474  0.5807 -1.7039
 8903SOL     OW28447   0.805   0.500   8.447  0.2801 -0.4753  0.1344
 8903SOL    HW128448   0.711   0.494   8.431  0.4112 -4.0332 -0.3537
 8903SOL    HW228449   0.843   0.441   8.381  2.5956 -1.0102  1.8144
 8904SOL     OW28450   7.267   8.889   5.295  0.1259 -0.2041 -0.0599
 8904SOL    HW128451   7.356   8.914   5.267  0.8474 -1.4319  1.0454
 8904SOL    HW228452   7.253   8.803   5.255  0.7091 -1.4519  2.2529
 8905SOL     OW28453   1.111   3.541   1.659 -0.2725  0.4604  0.7070
 8905SOL    HW128454   1.083   3.469   1.715  0.7711  0.0648  0.7504
 8905SOL    HW228455   1.059   3.532   1.580  0.7884 -1.1901  0.1452
 8906SOL     OW28456   7.740   8.345   8.584 -0.4218  0.7836  0.5382
 8906SOL    HW128457   7.673   8.405   8.617 -0.0799  2.0575 -0.9249
 8906SOL    HW228458   7.823   8.391   8.598 -0.0844  0.3399  0.0470
 8907SOL     OW28459   0.473   4.296   0.486  0.1359 -0.2405 -0.3260
 8907SOL    HW128460   0.508   4.354   0.554 -0.9323 -0.7817  0.7273
 8907SOL    HW228461   0.515   4.325   0.406  1.6863  0.2264  0.6032
 8908SOL     OW28462   4.887   6.649   2.119 -0.0404  0.0635 -0.4274
 8908SOL    HW128463   4.878   6.659   2.024  1.7587  0.3352 -0.6196
 8908SOL    HW228464   4.812   6.696   2.155 -0.0357  1.1351 -1.7069
 8909SOL     OW28465   1.822   2.535   8.502  0.0688 -0.1069  0.6750
 8909SOL    HW128466   1.840   2.509   8.592  2.5688  0.1510  0.3080
 8909SOL    HW228467   1.907   2.532   8.458 -0.9180  0.7377 -1.4370
 8910SOL     OW28468   7.453   7.330   9.236 -0.0280 -0.3773 -0.3773
 8910SOL    HW128469   7.437   7.243   9.200 -1.0259 -0.6768  0.7452
 8910SOL    HW228470   7.405   7.389   9.178 -0.1704 -0.6675 -0.5570
 8911SOL     OW28471   9.348   0.418   0.033  0.1240  0.3419 -0.0300
 8911SOL    HW128472   9.279   0.371  -0.013 -0.5802  1.1714  0.1434
 8911SOL    HW228473   9.429   0.373   0.009 -0.2591  0.5086 -1.7743
 8912SOL     OW28474   9.154   0.768   3.894  0.2581 -0.3545  0.2541
 8912SOL    HW128475   9.155   0.691   3.950  1.7743  0.0641  0.8516
 8912SOL    HW228476   9.061   0.784   3.876 -0.1451 -1.5340  1.1926
 8913SOL     OW28477   6.438   3.853   9.532  0.7514 -0.2510 -0.6710
 8913SOL    HW128478   6.529   3.827   9.520  1.6441  1.5836  1.4159
 8913SOL    HW228479   6.431   3.938   9.488  0.7517  0.6864  1.0172
 8914SOL     OW28480   7.908   6.914   4.390 -0.0050  0.0286 -0.2233
 8914SOL    HW128481   7.876   6.981   4.450  0.0992  1.3445 -1.5916
 8914SOL    HW228482   7.850   6.840   4.404  0.6338 -0.1117  2.2248
 8915SOL     OW28483   3.622   0.026   6.896 -0.0631  0.3272 -0.6957
 8915SOL    HW128484   3.655  -0.064   6.900  0.3671  0.4972 -0.3499
 8915SOL    HW228485   3.629   0.058   6.986 -0.7804  0.5116 -0.6978
 8916SOL     OW28486   2.058   0.431   2.741  0.0287  0.1592  0.2842
 8916SOL    HW128487   1.967   0.418   2.714 -0.1974 -0.6971  1.3749
 8916SOL    HW228488   2.108   0.372   2.683 -0.0797  0.7224 -0.3995
 8917SOL     OW28489   9.337   6.519   3.586  0.6548  0.3428 -0.2060
 8917SOL    HW128490   9.421   6.551   3.621  1.1735 -0.3504 -0.7962
 8917SOL    HW228491   9.273   6.584   3.616  1.3672  0.7793  0.4221
 8918SOL     OW28492   5.059   8.298   5.408 -0.5202 -0.2637  0.7974
 8918SOL    HW128493   5.138   8.258   5.445 -0.2810 -1.4476 -0.9291
 8918SOL    HW228494   5.014   8.227   5.363 -0.7624  1.1012 -1.2301
 8919SOL     OW28495   0.389   5.464   6.626 -0.1334 -0.1442 -0.1714
 8919SOL    HW128496   0.333   5.521   6.679 -0.3317  0.5472 -1.1052
 8919SOL    HW228497   0.447   5.523   6.579 -1.1210 -0.5989 -2.0560
 8920SOL     OW28498   3.530   2.003   8.979 -0.6381 -0.2024  0.3825
 8920SOL    HW128499   3.543   1.981   9.071  0.8656 -0.4459  0.1320
 8920SOL    HW228500   3.506   1.920   8.938  0.7475 -0.5513  0.2134
 8921SOL     OW28501   3.740   7.884   0.984 -0.4065 -0.3267 -0.2454
 8921SOL    HW128502   3.703   7.807   1.028 -1.4564 -0.1009 -0.6945
 8921SOL    HW228503   3.667   7.946   0.981  0.0099  0.1219 -1.2100
 8922SOL     OW28504   8.552   3.581   9.371 -0.1134 -0.1670 -0.3544
 8922SOL    HW128505   8.615   3.581   9.299 -0.4064 -1.4365 -0.6242
 8922SOL    HW228506   8.580   3.654   9.426  0.2041  0.7492 -1.6605
 8923SOL     OW28507   2.488   9.522   1.306  0.3617 -0.2426 -0.2028
 8923SOL    HW128508   2.423   9.457   1.330  0.7864 -0.7338 -0.3526
 8923SOL    HW228509   2.439   9.589   1.258 -0.6823  1.2573  2.7414
 8924SOL     OW28510   5.705   5.376   0.566 -0.5554  0.3595 -0.6537
 8924SOL    HW128511   5.751   5.357   0.484 -0.2297  0.4017 -0.4855
 8924SOL    HW228512   5.619   5.407   0.539 -0.0899  1.3797 -1.0224
 8925SOL     OW28513   5.339   0.164   3.869  0.1481 -0.0262 -0.6829
 8925SOL    HW128514   5.379   0.138   3.786  0.4577  2.1414 -1.2737
 8925SOL    HW228515   5.413   0.186   3.925 -0.1132  1.2615 -0.8192
 8926SOL     OW28516   0.369   5.052   4.821  0.0614 -0.2596  0.0333
 8926SOL    HW128517   0.415   4.972   4.846 -1.8437 -1.8339 -1.2156
 8926SOL    HW228518   0.323   5.029   4.740 -1.0225  1.9339 -0.0443
 8927SOL     OW28519   8.891   2.856   4.959 -0.2953 -0.3806  0.8580
 8927SOL    HW128520   8.835   2.894   4.891 -0.0611 -0.3773  0.6630
 8927SOL    HW228521   8.934   2.783   4.915  0.3568  0.0262  0.8093
 8928SOL     OW28522   7.890   5.025   1.885  0.4799 -0.2995 -0.6856
 8928SOL    HW128523   7.948   5.024   1.808 -0.5367  1.0777 -1.5118
 8928SOL    HW228524   7.948   5.004   1.958  1.7353 -0.3767 -1.6583
 8929SOL     OW28525   9.184   4.379   3.105  0.0028 -0.8718 -0.0759
 8929SOL    HW128526   9.253   4.320   3.135  0.3549 -0.5175 -0.1739
 8929SOL    HW228527   9.220   4.422   3.028 -1.4095 -2.7702 -1.8927
 8930SOL     OW28528   4.518   1.489   0.048  0.2218 -0.1512 -0.0806
 8930SOL    HW128529   4.579   1.468  -0.024  0.0669  0.9429 -0.5555
 8930SOL    HW228530   4.437   1.513   0.004 -0.6213 -1.7026  0.5565
 8931SOL     OW28531   3.413   5.877   2.496 -0.1343  0.4764  0.2137
 8931SOL    HW128532   3.429   5.827   2.417 -0.7669 -0.9931  0.9830
 8931SOL    HW228533   3.322   5.906   2.489 -0.0122  0.8396  0.1315
 8932SOL     OW28534   3.944   6.961   9.574  0.0564 -0.2337  0.0568
 8932SOL    HW128535   3.898   6.893   9.624 -1.8374  1.5249  0.8806
 8932SOL    HW228536   4.001   7.003   9.638 -1.1404  0.9464  0.4002
 8933SOL     OW28537   7.668   6.312   7.483  0.0071  0.2085  0.2232
 8933SOL    HW128538   7.578   6.297   7.512  0.0482 -0.7269 -0.0803
 8933SOL    HW228539   7.660   6.373   7.410 -0.3267  0.5923  0.5771
 8934SOL     OW28540   8.348   0.790   6.550  0.2305  0.3487 -0.1473
 8934SOL    HW128541   8.313   0.857   6.491  0.0697  0.1009 -0.3319
 8934SOL    HW228542   8.440   0.814   6.561 -0.0456  1.1278  0.5189
 8935SOL     OW28543   7.135   8.251   2.519  0.0377  0.7709  0.4058
 8935SOL    HW128544   7.156   8.344   2.520  0.1485  0.7440  0.6387
 8935SOL    HW228545   7.062   8.244   2.458  1.4599  0.7000 -1.3804
 8936SOL     OW28546   9.461   0.749   8.652  0.3305  0.0582 -0.3116
 8936SOL    HW128547   9.441   0.839   8.675  1.0969 -0.2529  1.8484
 8936SOL    HW228548   9.534   0.725   8.710  0.7182 -1.6769 -1.4219
 8937SOL     OW28549   8.684   8.305   9.113 -0.1467 -0.3265 -0.0981
 8937SOL    HW128550   8.674   8.315   9.208  1.1591 -1.9377  0.2663
 8937SOL    HW228551   8.652   8.217   9.094 -0.1048 -0.1360 -1.1137
 8938SOL     OW28552   0.849   5.409   1.460  0.1616  0.4993  0.0247
 8938SOL    HW128553   0.875   5.375   1.374 -1.3542 -1.1254  0.1586
 8938SOL    HW228554   0.755   5.427   1.451 -0.6551 -2.1827  1.9996
 8939SOL     OW28555   8.486   5.535   5.873 -0.1102  0.1966 -0.0812
 8939SOL    HW128556   8.487   5.450   5.916 -1.8488  0.2335  0.0739
 8939SOL    HW228557   8.484   5.599   5.944  0.7595  0.3758 -0.2023
 8940SOL     OW28558   1.848   3.528   4.115  0.0037  0.2356  0.1468
 8940SOL    HW128559   1.784   3.465   4.081 -1.5378  0.7226  1.9713
 8940SOL    HW228560   1.892   3.480   4.186 -0.4402  0.8348  0.8434
 8941SOL     OW28561   3.500   5.520   8.777  0.6872  0.0939 -0.2844
 8941SOL    HW128562   3.443   5.487   8.708  1.2942 -0.4825 -0.5330
 8941SOL    HW228563   3.577   5.462   8.773  0.8341  0.2084  0.7120
 8942SOL     OW28564   9.599   2.095   1.326  0.1811 -0.3370  0.1338
 8942SOL    HW128565   9.587   2.189   1.308 -0.7848 -0.7185 -1.4779
 8942SOL    HW228566   9.677   2.072   1.276 -2.4449 -1.3764 -4.0139
 8943SOL     OW28567   6.584   1.256   8.740 -0.7650  0.3695 -0.3355
 8943SOL    HW128568   6.527   1.181   8.728 -1.8067  0.9449  0.8051
 8943SOL    HW228569   6.539   1.328   8.696 -0.2072  0.5342 -0.6574
 8944SOL     OW28570   1.847   8.311   3.563 -0.1798 -0.4248  0.3150
 8944SOL    HW128571   1.844   8.226   3.520 -1.5413 -0.0742 -0.3252
 8944SOL    HW228572   1.770   8.312   3.620 -0.5950  0.6504 -0.2384
 8945SOL     OW28573   0.472   1.322   6.177 -0.1020  0.1823 -0.6642
 8945SOL    HW128574   0.498   1.353   6.263  2.5317 -1.2975 -0.8084
 8945SOL    HW228575   0.516   1.237   6.168 -0.2252  0.3249 -3.4670
 8946SOL     OW28576   0.658   1.150   1.010 -0.0500  0.1969  0.3687
 8946SOL    HW128577   0.665   1.101   0.928 -0.1454 -0.2557  0.6255
 8946SOL    HW228578   0.621   1.234   0.984  1.1133  0.5554 -0.2327
 8947SOL     OW28579   5.556   7.655   1.387  0.2682  0.4992 -0.0597
 8947SOL    HW128580   5.465   7.676   1.409  0.1445  0.5856 -0.6528
 8947SOL    HW228581   5.562   7.669   1.293  0.8557  0.3334 -0.0495
 8948SOL     OW28582   5.466   1.049   9.292 -0.6205 -0.0867  0.0865
 8948SOL    HW128583   5.377   1.064   9.325 -0.9703 -0.3627 -0.7155
 8948SOL    HW228584   5.473   0.954   9.286 -0.7396 -0.0351 -1.0832
 8949SOL     OW28585   1.139   3.689   1.225 -0.2934 -0.0257 -0.3606
 8949SOL    HW128586   1.222   3.693   1.177  0.7009 -3.1034  0.8665
 8949SOL    HW228587   1.128   3.778   1.260  2.6382  0.4352 -0.3546
 8950SOL     OW28588   6.350   6.545   2.952  0.5007 -0.0914  0.5962
 8950SOL    HW128589   6.283   6.502   3.005  0.1089  0.6367  0.7000
 8950SOL    HW228590   6.413   6.578   3.016  1.2436 -1.2168  0.4742
 8951SOL     OW28591   0.337   3.194   5.579 -0.6295  0.0771  0.7705
 8951SOL    HW128592   0.253   3.216   5.619 -2.1773 -4.2513  0.4364
 8951SOL    HW228593   0.316   3.176   5.487  0.0519 -3.0776  1.0954
 8952SOL     OW28594   3.505   3.609   3.349 -0.6518  0.0523  0.0207
 8952SOL    HW128595   3.555   3.676   3.301  0.6094 -1.4227 -0.8107
 8952SOL    HW228596   3.562   3.584   3.422 -2.0631  1.4157  1.6973
 8953SOL     OW28597   2.088   3.327   9.443 -0.3438 -0.2758  0.3985
 8953SOL    HW128598   2.097   3.417   9.474  0.4023 -0.3451  0.4041
 8953SOL    HW228599   1.995   3.307   9.454 -0.7665  0.9131 -0.7736
 8954SOL     OW28600   0.821   2.258   0.502 -0.2777  0.3560 -0.1430
 8954SOL    HW128601   0.853   2.170   0.483 -1.8408 -0.7429  1.8152
 8954SOL    HW228602   0.775   2.285   0.423 -0.5331 -0.9761 -0.4699
 8955SOL     OW28603   1.111   1.945   1.941  0.1152 -0.3389 -0.2846
 8955SOL    HW128604   1.082   1.854   1.937 -1.4933  0.1562 -2.4551
 8955SOL    HW228605   1.154   1.954   2.025  1.3476 -3.3831 -0.4882
 8956SOL     OW28606   0.962   2.610   4.860  0.1057 -0.1893  0.2440
 8956SOL    HW128607   0.931   2.698   4.878 -0.4646 -0.4738  0.6879
 8956SOL    HW228608   1.053   2.609   4.889  0.7145  0.7937 -1.4814
 8957SOL     OW28609   7.460   2.929   5.766  0.5844  0.1844  0.7382
 8957SOL    HW128610   7.379   2.887   5.736  0.5045  0.8626 -0.0326
 8957SOL    HW228611   7.434   2.978   5.844  0.8444 -1.8122  2.1421
 8958SOL     OW28612   4.975   8.001   5.319 -0.5202  0.6004  0.2185
 8958SOL    HW128613   4.956   7.945   5.243 -0.3234  0.0158  0.5955
 8958SOL    HW228614   4.956   7.947   5.395 -0.4451  1.0904  0.5932
 8959SOL     OW28615   2.406   3.259   2.176  0.2054  0.0227 -0.0001
 8959SOL    HW128616   2.398   3.163   2.180  1.4472 -0.1261 -0.6456
 8959SOL    HW228617   2.370   3.289   2.259 -0.7490 -0.9535 -0.0244
 8960SOL     OW28618   6.740   2.877   3.710 -0.5489  0.4320 -0.8953
 8960SOL    HW128619   6.679   2.951   3.718 -1.9712 -0.7907  0.1825
 8960SOL    HW228620   6.814   2.913   3.662 -0.7257  2.8490  0.4517
 8961SOL     OW28621   5.025   7.179   2.640 -1.0909 -0.2336 -0.6107
 8961SOL    HW128622   5.090   7.207   2.704 -0.8089 -1.9522 -0.1074
 8961SOL    HW228623   5.017   7.253   2.580 -0.4358  0.9289  0.6732
 8962SOL     OW28624   6.557   9.474   5.137 -0.1602  0.1935  0.5131
 8962SOL    HW128625   6.607   9.510   5.064  1.2062 -0.2562  1.1949
 8962SOL    HW228626   6.484   9.428   5.095  1.5783 -1.6289 -0.7306
 8963SOL     OW28627   1.710   2.763   9.577 -0.2662  0.5507 -0.2294
 8963SOL    HW128628   1.746   2.802   9.657  2.3890 -0.9565 -0.5654
 8963SOL    HW228629   1.660   2.687   9.607  1.2227 -0.3631  0.0294
 8964SOL     OW28630   9.213   6.925   6.532  0.1431  0.0547  0.2431
 8964SOL    HW128631   9.263   6.900   6.610  3.7709  1.2514 -1.4923
 8964SOL    HW228632   9.199   6.843   6.484 -0.5118 -0.4215  1.2135
 8965SOL     OW28633   5.915   6.064   1.111  0.1004 -0.2273  0.2276
 8965SOL    HW128634   5.857   5.987   1.107 -1.3711  0.8677 -0.6290
 8965SOL    HW228635   6.003   6.028   1.100 -0.5093 -1.8269  0.2182
 8966SOL     OW28636   7.501   2.595   1.110 -0.1351  0.0423 -0.0436
 8966SOL    HW128637   7.494   2.651   1.187  1.0134  0.6179 -0.3394
 8966SOL    HW228638   7.569   2.532   1.133 -1.7433 -1.5843  0.4738
 8967SOL     OW28639   7.781   0.975   4.603  0.2008 -0.0534 -0.2819
 8967SOL    HW128640   7.694   1.010   4.621  0.1452 -0.2250 -0.2162
 8967SOL    HW228641   7.811   0.941   4.688  0.3859  0.1274 -0.2743
 8968SOL     OW28642   5.139   0.446   5.453 -0.2806  0.0376  0.8743
 8968SOL    HW128643   5.087   0.507   5.505  0.0257  0.3679  0.7958
 8968SOL    HW228644   5.229   0.474   5.466 -0.2485  0.7815 -0.6463
 8969SOL     OW28645   5.343   1.583   6.853 -0.2992 -0.1709  0.0375
 8969SOL    HW128646   5.369   1.593   6.761 -0.1319  0.8814  0.1815
 8969SOL    HW228647   5.424   1.597   6.902 -0.9993  3.0587  0.4926
 8970SOL     OW28648   2.561   6.214   1.048 -0.0926 -0.2308  0.1624
 8970SOL    HW128649   2.542   6.285   1.110  2.6045  0.7610 -0.0232
 8970SOL    HW228650   2.529   6.246   0.964  0.1606  0.3186  0.2728
 8971SOL     OW28651   0.534   6.544   2.213  0.3045  0.8194  0.0696
 8971SOL    HW128652   0.465   6.527   2.148  0.7141  1.8258 -0.6682
 8971SOL    HW228653   0.587   6.465   2.213  1.4436  1.4860 -2.3288
 8972SOL     OW28654   4.299   1.300   2.451  0.6649 -0.6836  0.3189
 8972SOL    HW128655   4.374   1.359   2.440  1.5358 -1.7148  0.5618
 8972SOL    HW228656   4.335   1.222   2.494 -0.6386 -1.0216  0.8636
 8973SOL     OW28657   1.993   1.410   2.033  0.4031  0.1422  0.4212
 8973SOL    HW128658   1.933   1.358   1.980  0.4288 -0.3956  0.9107
 8973SOL    HW228659   2.002   1.493   1.985 -0.1940 -0.0296  0.0010
 8974SOL     OW28660   2.761   0.562   7.623  0.1802 -0.2159  0.6568
 8974SOL    HW128661   2.837   0.505   7.630 -1.2974 -2.3720  0.2454
 8974SOL    HW228662   2.748   0.575   7.529  0.1910  0.3913  0.7297
 8975SOL     OW28663   4.695   9.345   7.938 -0.4084 -0.0536  0.4486
 8975SOL    HW128664   4.676   9.406   7.866 -1.1863 -1.5406 -0.6782
 8975SOL    HW228665   4.788   9.355   7.955 -0.3331  0.7519 -0.3870
 8976SOL     OW28666   6.695   6.634   5.842  0.0548  0.3857  0.0916
 8976SOL    HW128667   6.670   6.546   5.869  2.1730 -0.5415 -0.7811
 8976SOL    HW228668   6.630   6.659   5.776  0.1298 -1.0337 -0.5439
 8977SOL     OW28669   5.449   7.778   4.827  0.0149 -0.0018  0.4047
 8977SOL    HW128670   5.367   7.820   4.852 -1.2330 -0.0667 -2.9803
 8977SOL    HW228671   5.510   7.851   4.812  0.0677  0.1486  1.3347
 8978SOL     OW28672   9.227   4.632   6.763  0.8783  0.0577  0.4942
 8978SOL    HW128673   9.314   4.659   6.733  0.5951  0.8846  0.4123
 8978SOL    HW228674   9.242   4.547   6.805  1.6289 -0.0873 -0.0421
 8979SOL     OW28675   4.574   5.434   0.939 -0.1793 -0.2272  0.2320
 8979SOL    HW128676   4.545   5.522   0.962  0.3634  0.0100  0.0329
 8979SOL    HW228677   4.668   5.435   0.955 -0.0238 -0.4944 -0.6148
 8980SOL     OW28678   5.243   0.790   0.057 -0.3380 -0.9028 -0.1391
 8980SOL    HW128679   5.323   0.841   0.047 -0.1534 -0.8265  1.4770
 8980SOL    HW228680   5.273   0.699   0.054 -0.1463 -0.8730  0.6920
 8981SOL     OW28681   5.050   0.241   6.545 -0.0769  0.0628 -0.4380
 8981SOL    HW128682   5.093   0.207   6.467  0.4367 -0.0471 -0.1128
 8981SOL    HW228683   5.122   0.262   6.605 -0.4977 -0.8737  0.4307
 8982SOL     OW28684   1.594   8.201   0.873  0.2218 -0.1954  0.3526
 8982SOL    HW128685   1.639   8.120   0.848  0.9628  0.6747 -1.3166
 8982SOL    HW228686   1.636   8.227   0.955  1.2249 -0.5816 -0.0157
 8983SOL     OW28687   8.862   4.171   3.290  0.2488  0.0534 -0.2688
 8983SOL    HW128688   8.861   4.262   3.263 -2.1401  0.6501  1.4846
 8983SOL    HW228689   8.953   4.143   3.279  0.6920  2.0833 -2.4760
 8984SOL     OW28690   0.114   4.392   2.577  0.0204  0.3920  0.3200
 8984SOL    HW128691   0.117   4.415   2.484  2.9189 -0.1595  0.1744
 8984SOL    HW228692   0.160   4.464   2.621  0.2196 -0.2099  1.1147
 8985SOL     OW28693   3.878   7.653   3.406  0.4159 -0.1716  0.3856
 8985SOL    HW128694   3.832   7.576   3.372  1.0696 -0.0821 -0.7730
 8985SOL    HW228695   3.810   7.705   3.447 -0.5353 -0.1041 -1.1741
 8986SOL     OW28696   3.179   1.777   0.548 -0.0889  0.0474 -0.1746
 8986SOL    HW128697   3.127   1.735   0.617 -2.4290  1.9661 -0.6626
 8986SOL    HW228698   3.173   1.716   0.474  0.0995 -0.6954  0.3985
 8987SOL     OW28699   9.388   9.540   1.790  0.5699  0.2917 -0.2640
 8987SOL    HW128700   9.332   9.604   1.745 -0.3905 -0.3227  0.0258
 8987SOL    HW228701   9.421   9.483   1.720  0.2770  0.2375 -0.3579
 8988SOL     OW28702   6.510   1.163   2.324  0.3413 -0.4907 -0.3801
 8988SOL    HW128703   6.595   1.204   2.338 -0.3486  0.5518  1.0736
 8988SOL    HW228704   6.481   1.197   2.239  0.2918  1.1877  0.2681
 8989SOL     OW28705   3.498   1.189   3.784 -0.2209 -0.0526 -0.1359
 8989SOL    HW128706   3.446   1.175   3.705 -1.3957  0.0741  0.5920
 8989SOL    HW228707   3.442   1.243   3.841 -0.0994 -1.5377  1.4778
 8990SOL     OW28708   5.216   6.769   3.878 -0.3772  0.1615  0.2132
 8990SOL    HW128709   5.191   6.760   3.970  0.9742  2.5554  0.8946
 8990SOL    HW228710   5.279   6.698   3.864 -1.0151 -0.5773  0.9492
 8991SOL     OW28711   0.108   5.164   8.463  0.1740  0.2231 -0.2102
 8991SOL    HW128712   0.071   5.116   8.389  0.2265  2.3336 -1.7257
 8991SOL    HW228713   0.160   5.100   8.511 -5.3542 -3.1141  2.2636
 8992SOL     OW28714   9.067   6.061   4.656 -0.2951  0.0798 -0.2695
 8992SOL    HW128715   9.103   6.033   4.572 -0.5953 -0.3207 -0.2628
 8992SOL    HW228716   8.983   6.016   4.663  0.2442 -0.7906  0.7724
 8993SOL     OW28717   1.500   2.527   2.016 -0.1135  0.0228  0.4552
 8993SOL    HW128718   1.575   2.575   2.051 -0.6001  0.5876  0.7180
 8993SOL    HW228719   1.506   2.441   2.058  0.8009 -0.2006 -0.0796
 8994SOL     OW28720   0.787   2.415   0.974  0.3149 -0.1171 -0.3414
 8994SOL    HW128721   0.785   2.352   0.902  1.1924  0.9224 -1.3117
 8994SOL    HW228722   0.798   2.500   0.931  0.0035  0.6141  0.9803
 8995SOL     OW28723   5.347   5.563   9.424 -0.3880  0.0032 -0.7392
 8995SOL    HW128724   5.347   5.637   9.363  0.1816 -0.0544 -0.8123
 8995SOL    HW228725   5.257   5.530   9.421 -0.5112  0.3609 -1.1089
 8996SOL     OW28726   4.985   0.788   1.688  0.3991  0.2218 -0.9124
 8996SOL    HW128727   4.948   0.786   1.599  2.1629  2.6393 -1.8248
 8996SOL    HW228728   5.058   0.727   1.684  0.4042  0.2379 -1.1167
 8997SOL     OW28729   4.212   5.594   2.204 -0.0845  0.4791 -0.3275
 8997SOL    HW128730   4.299   5.631   2.220 -0.4385  0.5384  1.8001
 8997SOL    HW228731   4.182   5.637   2.124  0.9520  2.1533  0.1258
 8998SOL     OW28732   4.624   6.325   5.273  0.4912  0.1619  0.4110
 8998SOL    HW128733   4.633   6.326   5.178  1.5381  1.0775  0.4999
 8998SOL    HW228734   4.611   6.232   5.294 -0.1502 -0.0073 -0.6403
 8999SOL     OW28735   2.669   7.108   4.723 -0.1055 -0.0873 -0.1426
 8999SOL    HW128736   2.656   7.044   4.794  1.6897  0.0099  0.3044
 8999SOL    HW228737   2.666   7.055   4.644  0.2526 -0.5736  0.1597
 9000SOL     OW28738   5.763   8.557   6.818  0.0058 -0.0313  0.1909
 9000SOL    HW128739   5.782   8.471   6.781  1.0125 -0.2391  1.1296
 9000SOL    HW228740   5.760   8.615   6.742 -0.9967 -0.9327 -0.4791
 9001SOL     OW28741   9.318   7.486   5.343 -0.2444  0.3669 -0.5076
 9001SOL    HW128742   9.395   7.436   5.368  0.5491  0.8493 -1.8936
 9001SOL    HW228743   9.269   7.427   5.285 -0.7659  0.1680  0.1333
 9002SOL     OW28744   1.168   3.877   8.840  0.2843  0.3152 -0.1601
 9002SOL    HW128745   1.080   3.869   8.877 -0.6420 -1.1590 -2.4336
 9002SOL    HW228746   1.226   3.843   8.908 -1.2474 -1.6572  0.2534
 9003SOL     OW28747   5.763   2.569   6.003  0.9733 -0.7129 -0.6244
 9003SOL    HW128748   5.839   2.622   6.028 -0.8197  1.0499  1.5577
 9003SOL    HW228749   5.710   2.565   6.083 -1.3830 -1.5542 -2.1417
 9004SOL     OW28750   2.415   0.095   7.766 -0.1340 -0.3941 -0.2991
 9004SOL    HW128751   2.336   0.052   7.732 -0.0789  1.0412 -2.4189
 9004SOL    HW228752   2.384   0.178   7.801  0.1997 -0.6926  0.7446
 9005SOL     OW28753   8.572   3.628   3.869 -0.1663 -0.0949  0.4990
 9005SOL    HW128754   8.493   3.680   3.883 -0.9531 -1.4435  1.3062
 9005SOL    HW228755   8.594   3.641   3.777 -1.6027 -0.0749  0.1395
 9006SOL     OW28756   5.610   1.835   6.204 -0.4891  0.7418  0.1743
 9006SOL    HW128757   5.705   1.823   6.216 -0.6318  0.7259  1.4665
 9006SOL    HW228758   5.578   1.861   6.290 -1.5209  1.7913 -0.4894
 9007SOL     OW28759   0.159   8.015   2.971 -0.2677  0.1926 -0.3923
 9007SOL    HW128760   0.108   7.978   2.899  0.0225  0.8360 -0.9512
 9007SOL    HW228761   0.096   8.027   3.042 -0.6310 -0.1508 -0.6557
 9008SOL     OW28762   5.271   5.591   5.744 -0.4725 -0.0296  0.4573
 9008SOL    HW128763   5.301   5.648   5.673  0.9869  1.3314  2.0517
 9008SOL    HW228764   5.230   5.651   5.807 -0.1432 -0.9040  1.5412
 9009SOL     OW28765   0.694   1.677   4.754  0.0174  0.1539 -0.4612
 9009SOL    HW128766   0.650   1.717   4.829 -0.4610  0.0812 -0.7060
 9009SOL    HW228767   0.631   1.682   4.683  0.0292 -0.8334 -0.5576
 9010SOL     OW28768   9.186   3.549   0.839 -0.6363  0.4618  0.7004
 9010SOL    HW128769   9.131   3.602   0.898 -0.0502  0.2619  1.4473
 9010SOL    HW228770   9.142   3.553   0.755 -1.1722  1.2698  1.0058
 9011SOL     OW28771   4.375   7.637   3.448 -0.2120  0.3654  0.4722
 9011SOL    HW128772   4.286   7.669   3.433 -0.1908 -0.1154 -0.7964
 9011SOL    HW228773   4.366   7.542   3.454  0.2335  0.2987  0.1510
 9012SOL     OW28774   1.357   7.817   3.659  0.0995 -0.1385 -0.0963
 9012SOL    HW128775   1.331   7.879   3.728 -0.8160  1.1784 -1.5521
 9012SOL    HW228776   1.444   7.846   3.633  1.3449 -1.8908  1.8189
 9013SOL     OW28777   7.972   3.870   3.995 -0.5157 -0.0316 -0.1636
 9013SOL    HW128778   8.018   3.945   4.033  0.8236 -0.7925 -0.2347
 9013SOL    HW228779   8.025   3.845   3.920 -1.2565 -0.7111 -0.4688
 9014SOL     OW28780   7.132   7.969   5.754 -0.1818  0.6197 -0.0250
 9014SOL    HW128781   7.147   8.000   5.665  0.9269 -0.4296 -0.2298
 9014SOL    HW228782   7.220   7.945   5.786 -0.8410 -1.2194  0.5076
 9015SOL     OW28783   2.666   1.572   6.336  0.1502 -0.8875 -0.2920
 9015SOL    HW128784   2.647   1.508   6.404  0.1859  0.2328  0.8153
 9015SOL    HW228785   2.641   1.656   6.375  2.9184  0.1417 -0.5115
 9016SOL     OW28786   7.191   5.334   2.993  0.0958 -0.1981  0.2166
 9016SOL    HW128787   7.227   5.279   2.923 -0.8933 -0.8030  0.1654
 9016SOL    HW228788   7.265   5.350   3.051  0.8965  0.1826 -0.8715
 9017SOL     OW28789   5.753   6.154   0.377 -0.1649  0.0457 -0.3522
 9017SOL    HW128790   5.667   6.187   0.351 -0.0261 -0.2615 -1.2273
 9017SOL    HW228791   5.814   6.226   0.358 -0.3639  0.7225  1.3959
 9018SOL     OW28792   3.404   8.899   5.407  0.3493  0.1124 -0.2319
 9018SOL    HW128793   3.335   8.845   5.445 -0.0658  1.0477  0.3833
 9018SOL    HW228794   3.373   8.989   5.419  0.5834  0.4699 -2.0844
 9019SOL     OW28795   2.046   9.292   6.523  0.6132 -0.2689  0.3234
 9019SOL    HW128796   2.068   9.382   6.497 -0.7431 -0.0663 -0.1961
 9019SOL    HW228797   1.977   9.302   6.589  0.6965 -0.9213  0.5167
 9020SOL     OW28798   2.158   7.347   4.818  0.1596  0.1637 -0.3779
 9020SOL    HW128799   2.075   7.304   4.840 -0.3987  0.4341 -1.8354
 9020SOL    HW228800   2.224   7.278   4.829 -0.1658  0.0888  1.2994
 9021SOL     OW28801   4.619   3.021   3.940  0.1495 -0.4370 -0.0251
 9021SOL    HW128802   4.651   3.111   3.933 -1.9934  0.4131  0.1853
 9021SOL    HW228803   4.632   2.997   4.032 -0.5829  0.2342  0.2681
 9022SOL     OW28804   3.493   3.485   9.166 -0.4721 -0.3835 -0.0666
 9022SOL    HW128805   3.405   3.492   9.201 -0.8047  0.4903 -1.0215
 9022SOL    HW228806   3.550   3.513   9.238 -0.7638 -2.9771  1.2896
 9023SOL     OW28807   6.377   3.550   3.081  0.4064  0.0728  0.2197
 9023SOL    HW128808   6.300   3.585   3.126 -0.2857 -1.3938  0.1996
 9023SOL    HW228809   6.357   3.556   2.988  0.4113 -0.1077  0.2068
 9024SOL     OW28810   1.527   8.363   7.352 -0.4065  0.0884 -0.2917
 9024SOL    HW128811   1.441   8.369   7.393 -0.6376  0.4072 -0.8119
 9024SOL    HW228812   1.556   8.454   7.343 -0.2705  0.0107 -0.6532
 9025SOL     OW28813   2.790   0.922   9.221  0.0455 -0.3833  0.4201
 9025SOL    HW128814   2.835   0.883   9.296 -2.0090 -3.2787  0.2979
 9025SOL    HW228815   2.857   0.926   9.153  0.8957 -1.7562  1.1370
 9026SOL     OW28816   6.202   7.888   7.588  0.1967 -0.2244 -0.0902
 9026SOL    HW128817   6.278   7.931   7.626  0.7804 -0.3956 -1.0315
 9026SOL    HW228818   6.178   7.942   7.512  0.4654 -1.1123 -0.8281
 9027SOL     OW28819   0.167   0.630   0.481  0.0675  0.4905 -0.0346
 9027SOL    HW128820   0.156   0.709   0.427  1.1733 -0.2014 -1.3440
 9027SOL    HW228821   0.234   0.654   0.545 -0.5471  1.0204  0.4145
 9028SOL     OW28822   2.871   4.591   4.032  0.2470 -0.0482 -0.0424
 9028SOL    HW128823   2.843   4.500   4.034  0.4174 -0.0968  1.2139
 9028SOL    HW228824   2.963   4.588   4.007  0.4197 -0.2851  0.5963
 9029SOL     OW28825   1.320   2.285   1.080  0.3815  0.3718 -0.0615
 9029SOL    HW128826   1.239   2.294   1.131 -0.0392 -1.6286 -0.2994
 9029SOL    HW228827   1.322   2.364   1.026  0.0349  1.7820  1.8838
 9030SOL     OW28828   7.619   9.300   8.759  0.0268 -0.0734  0.5176
 9030SOL    HW128829   7.539   9.282   8.807  0.1909  0.0593  0.8455
 9030SOL    HW228830   7.599   9.379   8.709 -0.1089 -0.1488  0.4545
 9031SOL     OW28831   0.421   1.712   3.601 -0.1414  0.6731  0.0335
 9031SOL    HW128832   0.475   1.650   3.650  0.0640 -0.4488 -1.5540
 9031SOL    HW228833   0.342   1.722   3.656  0.9088  1.0381  1.5485
 9032SOL     OW28834   5.771   3.741   6.783  0.3949  0.3738  0.0517
 9032SOL    HW128835   5.795   3.649   6.780 -2.4759 -0.4612 -1.4504
 9032SOL    HW228836   5.715   3.749   6.860 -0.5355  0.4791 -0.6161
 9033SOL     OW28837   6.891   2.693   2.931 -0.4019 -0.0927  0.0783
 9033SOL    HW128838   6.897   2.728   2.842  3.3206  0.5457  0.4137
 9033SOL    HW228839   6.865   2.767   2.985  1.7478  0.7893  0.0102
 9034SOL     OW28840   3.233   5.025   9.070  0.0327 -0.4926 -0.1207
 9034SOL    HW128841   3.186   5.036   8.987 -0.6043 -0.7655  0.1907
 9034SOL    HW228842   3.216   4.934   9.094 -0.1949 -0.2819  0.5460
 9035SOL     OW28843   1.992   0.124   0.006  0.1541 -0.0841  0.4214
 9035SOL    HW128844   2.038   0.045   0.035  1.3733  0.8587  1.2056
 9035SOL    HW228845   1.945   0.098  -0.073  0.5038 -1.5899  0.6860
 9036SOL     OW28846   3.138   5.936   3.775 -0.3359 -0.0337 -0.5938
 9036SOL    HW128847   3.207   5.871   3.780 -0.2974 -0.0418 -1.1777
 9036SOL    HW228848   3.149   5.989   3.854 -0.3069 -0.6689 -0.1715
 9037SOL     OW28849   7.089   9.415   3.466  0.0065 -0.1154  0.5371
 9037SOL    HW128850   6.993   9.409   3.469 -0.1326  0.6055 -1.2483
 9037SOL    HW228851   7.107   9.507   3.448  1.0180 -0.3162  0.4452
 9038SOL     OW28852   0.929   1.956   5.966 -0.1418  0.1743 -0.0330
 9038SOL    HW128853   0.844   1.914   5.948  0.2035  0.1218 -1.7989
 9038SOL    HW228854   0.973   1.956   5.881  0.1101  3.6026 -0.0273
 9039SOL     OW28855   8.367   6.054   8.490 -0.6565 -0.9886  0.2376
 9039SOL    HW128856   8.388   6.005   8.410  0.5023  1.0294 -0.7856
 9039SOL    HW228857   8.350   6.143   8.459  0.4948  0.0029  2.2854
 9040SOL     OW28858   1.391   2.551   2.881 -0.3319 -0.1257  0.1261
 9040SOL    HW128859   1.473   2.503   2.893 -0.7701 -1.0894 -0.6367
 9040SOL    HW228860   1.389   2.573   2.788 -0.4219  0.8558  0.3565
 9041SOL     OW28861   5.619   2.551   6.233 -0.2154  0.0042  0.0456
 9041SOL    HW128862   5.656   2.469   6.265 -0.3185  0.1442  0.5363
 9041SOL    HW228863   5.529   2.530   6.208  0.4163 -0.5124 -1.8890
 9042SOL     OW28864   4.004   3.711   0.002  0.0997  0.5776 -0.3341
 9042SOL    HW128865   4.067   3.760  -0.052  1.5348  0.2629  0.9832
 9042SOL    HW228866   3.999   3.625  -0.039 -3.3813  1.9630 -3.4177
 9043SOL     OW28867   7.091   3.496   3.502 -0.1684  0.2492  0.1170
 9043SOL    HW128868   7.063   3.578   3.463  1.7868  1.5768  1.3457
 9043SOL    HW228869   7.040   3.490   3.583 -0.9938 -0.2700 -0.4202
 9044SOL     OW28870   3.248   2.001   3.728  0.2641  0.0023 -0.3698
 9044SOL    HW128871   3.183   2.053   3.775 -1.5389 -0.6947 -1.9956
 9044SOL    HW228872   3.328   2.013   3.779 -0.8613  1.6908  1.1494
 9045SOL     OW28873   3.370   9.043   5.991 -0.2883 -0.6516  0.5600
 9045SOL    HW128874   3.457   9.003   6.001 -0.2880 -1.1272 -1.1230
 9045SOL    HW228875   3.312   8.987   6.043  0.0218 -1.8041 -0.2884
 9046SOL     OW28876   4.633   2.337   3.583  0.5666  0.1231  0.5100
 9046SOL    HW128877   4.636   2.251   3.625  0.2595 -0.2855 -0.2785
 9046SOL    HW228878   4.692   2.329   3.508  0.2719  0.4942  0.2384
 9047SOL     OW28879   3.670   0.818   8.690 -0.9765 -0.5493 -0.1847
 9047SOL    HW128880   3.671   0.802   8.784  1.4427  0.5991  0.0581
 9047SOL    HW228881   3.644   0.910   8.681  1.2618  0.1192 -0.4013
 9048SOL     OW28882   7.100   9.483   4.024  0.1589 -0.2311 -0.0971
 9048SOL    HW128883   7.193   9.499   4.011  0.3416 -1.3447 -0.2105
 9048SOL    HW228884   7.095   9.394   4.058 -0.7534  0.3521  1.4057
 9049SOL     OW28885   9.278   5.735   2.380 -0.7384 -0.1195  0.0400
 9049SOL    HW128886   9.290   5.646   2.413 -2.7996 -0.0288  1.2010
 9049SOL    HW228887   9.340   5.788   2.430  0.9175 -0.9499 -1.0701
 9050SOL     OW28888   3.754   0.969   5.750  0.3627  0.3458 -0.0612
 9050SOL    HW128889   3.800   0.922   5.681 -0.0628  1.1946 -0.9497
 9050SOL    HW228890   3.817   1.034   5.782  1.3192 -1.4106  1.8854
 9051SOL     OW28891   1.155   8.093   0.947 -0.0650 -0.8189  0.1304
 9051SOL    HW128892   1.185   8.144   1.022 -0.8375 -1.8644  1.1732
 9051SOL    HW228893   1.086   8.148   0.908  2.1835  1.0297 -1.5650
 9052SOL     OW28894   1.878   1.945   3.025  0.5142  0.0144 -0.2014
 9052SOL    HW128895   1.957   1.895   3.045  1.2247  1.0656 -0.3211
 9052SOL    HW228896   1.863   1.929   2.932 -1.0302 -2.3884  0.3543
 9053SOL     OW28897   1.745   8.316   5.014  0.2866 -0.5313  0.1196
 9053SOL    HW128898   1.815   8.261   4.978 -0.9248 -1.2915 -1.2170
 9053SOL    HW228899   1.688   8.333   4.939  0.0885  1.7655  0.7137
 9054SOL     OW28900   2.465   6.048   0.159  0.0250 -0.0429 -0.0001
 9054SOL    HW128901   2.396   5.995   0.199  0.3145  0.1242  0.7493
 9054SOL    HW228902   2.541   5.990   0.154 -0.5116 -0.6505 -2.0699
 9055SOL     OW28903   3.322   8.142   7.645 -0.0714 -0.5954  0.0620
 9055SOL    HW128904   3.317   8.206   7.715  2.9287  0.3354 -0.4239
 9055SOL    HW228905   3.332   8.194   7.565 -1.0416 -1.6634 -0.7873
 9056SOL     OW28906   6.698   8.939   5.334  0.4090  0.5608  0.0280
 9056SOL    HW128907   6.762   8.870   5.314 -0.8446 -0.9331  0.8698
 9056SOL    HW228908   6.648   8.949   5.253 -0.8386 -1.2014  0.5107
 9057SOL     OW28909   8.311   6.070   1.449 -0.2969 -0.4522  0.0242
 9057SOL    HW128910   8.303   5.994   1.508 -1.4221 -0.0204  0.4592
 9057SOL    HW228911   8.283   6.036   1.364  0.2070 -0.7799 -0.0181
 9058SOL     OW28912   5.276   8.189   2.657 -0.0843  0.0659 -0.6189
 9058SOL    HW128913   5.372   8.184   2.659 -0.1498 -2.4645 -0.9609
 9058SOL    HW228914   5.247   8.100   2.676 -2.4244  1.0124  0.7101
 9059SOL     OW28915   1.178   7.315   7.904  0.0553 -0.0748  0.1393
 9059SOL    HW128916   1.173   7.231   7.949 -0.4900  0.2086  0.6199
 9059SOL    HW228917   1.098   7.318   7.851  0.1468  0.0751  0.0100
 9060SOL     OW28918   8.375   6.071   5.110 -0.1036 -0.2433 -0.5104
 9060SOL    HW128919   8.325   6.126   5.170 -1.7738  0.6018 -2.5293
 9060SOL    HW228920   8.445   6.127   5.079 -1.1960  0.4744 -1.7837
 9061SOL     OW28921   6.935   4.849   0.775 -0.5848 -0.3525 -0.3217
 9061SOL    HW128922   7.009   4.908   0.789 -0.5479 -0.4587 -0.0455
 9061SOL    HW228923   6.858   4.900   0.801 -0.4330 -0.8468  1.1949
 9062SOL     OW28924   4.718   4.565   0.703 -0.3047  0.3249 -0.2769
 9062SOL    HW128925   4.669   4.494   0.744  0.0219  1.1302  1.5966
 9062SOL    HW228926   4.797   4.573   0.755  1.5201 -0.3707 -2.7213
 9063SOL     OW28927   6.139   4.551   0.651 -0.0326  0.5917  0.0815
 9063SOL    HW128928   6.100   4.620   0.597 -1.3049 -1.1887 -1.3553
 9063SOL    HW228929   6.111   4.469   0.611  0.5606 -0.8211  2.3594
 9064SOL     OW28930   2.778   5.151   7.979  0.5134 -0.7318  0.1973
 9064SOL    HW128931   2.739   5.098   8.049 -0.9810 -0.9191 -0.7355
 9064SOL    HW228932   2.703   5.182   7.928  1.0635  3.7943  1.6494
 9065SOL     OW28933   7.738   9.485   2.771 -0.2360 -0.2368 -0.2406
 9065SOL    HW128934   7.786   9.413   2.730 -0.4048 -1.0976  1.0104
 9065SOL    HW228935   7.646   9.458   2.765 -0.3534  0.1910 -0.3562
 9066SOL     OW28936   4.111   4.182   9.381  0.3227  0.6755  0.3290
 9066SOL    HW128937   4.185   4.142   9.425  0.4399 -1.0801 -1.3407
 9066SOL    HW228938   4.034   4.135   9.415  0.4302 -0.8396 -1.3455
 9067SOL     OW28939   4.344   0.500   4.545  0.3024  0.1611 -0.1471
 9067SOL    HW128940   4.423   0.468   4.589 -0.9199  0.3522  2.3475
 9067SOL    HW228941   4.295   0.420   4.524  0.2487  0.1298  0.0994
 9068SOL     OW28942   2.921   0.886   1.706 -0.3532  0.1905  0.0564
 9068SOL    HW128943   2.841   0.832   1.707  0.4917 -1.1151  0.6776
 9068SOL    HW228944   2.959   0.874   1.793  0.7071  0.4738 -0.3500
 9069SOL     OW28945   4.592   3.409   2.866 -0.0906 -0.3394  0.6310
 9069SOL    HW128946   4.681   3.402   2.902 -0.7020  0.0930  2.3299
 9069SOL    HW228947   4.536   3.372   2.934 -1.1136 -2.4196 -1.1979
 9070SOL     OW28948   9.513   0.244   2.823  0.8457  0.1922 -0.1626
 9070SOL    HW128949   9.572   0.200   2.763 -1.5881 -0.7224 -2.0577
 9070SOL    HW228950   9.567   0.265   2.899  3.1238 -2.2505 -0.9594
 9071SOL     OW28951   1.212   8.971   7.663  0.6792  0.0852 -0.0517
 9071SOL    HW128952   1.164   9.001   7.741  0.4442  0.2960 -0.2772
 9071SOL    HW228953   1.178   9.024   7.592  0.4191 -0.5594 -0.4164
 9072SOL     OW28954   5.885   6.714   8.737 -0.0310  0.8250  0.2170
 9072SOL    HW128955   5.869   6.626   8.704 -1.5500  1.1860 -0.1056
 9072SOL    HW228956   5.953   6.704   8.803  0.6939 -0.3999 -0.6740
 9073SOL     OW28957   7.001   1.289   4.956  0.1784 -0.2542  0.2792
 9073SOL    HW128958   7.043   1.311   4.873  0.8197 -1.2883  0.3059
 9073SOL    HW228959   6.980   1.196   4.949 -1.1954 -0.0048  0.6796
 9074SOL     OW28960   7.559   8.459   8.926 -0.1248 -0.3940  0.0140
 9074SOL    HW128961   7.633   8.400   8.934  2.2611  2.1033 -1.7848
 9074SOL    HW228962   7.556   8.505   9.010  0.8027 -0.0906 -0.1089
 9075SOL     OW28963   7.336   7.603   1.617  0.1919 -0.2518 -0.6028
 9075SOL    HW128964   7.401   7.673   1.613  0.8376 -0.8499 -0.7302
 9075SOL    HW228965   7.283   7.624   1.694  1.7581 -0.7963  0.6825
 9076SOL     OW28966   0.693   7.076   6.690 -0.2948  0.4026 -0.6621
 9076SOL    HW128967   0.718   6.992   6.729 -0.6542  0.0924 -1.1032
 9076SOL    HW228968   0.604   7.092   6.722  0.4287  1.5171  0.9221
 9077SOL     OW28969   7.465   5.715   2.381 -0.2697  0.1220  0.6697
 9077SOL    HW128970   7.433   5.626   2.391 -0.5483  0.1056 -0.3060
 9077SOL    HW228971   7.460   5.752   2.469 -1.4290 -0.4014  0.8375
 9078SOL     OW28972   5.343   9.185   1.867 -0.4343 -0.1625 -0.7217
 9078SOL    HW128973   5.367   9.198   1.775 -1.2171 -0.5424 -0.9849
 9078SOL    HW228974   5.331   9.274   1.900  0.5442  0.0121 -0.7804
 9079SOL     OW28975   2.910   9.591   0.153 -0.5006  0.4523 -0.4304
 9079SOL    HW128976   2.814   9.592   0.151 -0.5707 -0.4797  1.0524
 9079SOL    HW228977   2.932   9.524   0.217  1.2007 -0.5926 -2.0263
 9080SOL     OW28978   2.678   9.234   0.088  0.2626  0.1132  0.0249
 9080SOL    HW128979   2.736   9.251   0.014  1.1604 -1.4162  0.3357
 9080SOL    HW228980   2.716   9.284   0.160 -0.4481  1.3700 -0.4416
 9081SOL     OW28981   7.074   2.358   3.940  0.2237  0.2962 -0.6268
 9081SOL    HW128982   7.053   2.360   4.033 -0.0929 -2.4394 -0.5492
 9081SOL    HW228983   7.170   2.360   3.936  0.2880 -0.8450 -0.1188
 9082SOL     OW28984   3.829   0.868   6.288 -0.2269 -0.5616  0.6887
 9082SOL    HW128985   3.898   0.929   6.261 -1.1184 -0.1374 -0.6958
 9082SOL    HW228986   3.849   0.787   6.242 -0.9514 -0.2692 -0.1569
 9083SOL     OW28987   7.203   4.075   3.522 -0.0615 -0.0702  0.0797
 9083SOL    HW128988   7.186   4.063   3.615  0.6268 -0.3446  0.1749
 9083SOL    HW228989   7.275   4.137   3.518  0.4917 -0.7128 -0.2373
 9084SOL     OW28990   7.031   2.771   8.356  0.9259  0.2910 -0.0422
 9084SOL    HW128991   7.100   2.832   8.383  0.4552  0.5946  0.4923
 9084SOL    HW228992   7.069   2.724   8.282  2.4109 -0.9015  1.4154
 9085SOL     OW28993   0.596   9.392   5.225 -0.2955  0.0345 -0.2115
 9085SOL    HW128994   0.508   9.368   5.196 -2.2821  4.1826  1.6817
 9085SOL    HW228995   0.610   9.481   5.191  1.5450  0.9807  2.6835
 9086SOL     OW28996   7.527   5.637   4.225 -0.1446 -0.4981 -0.3509
 9086SOL    HW128997   7.463   5.581   4.269 -2.6005  1.2511 -1.4700
 9086SOL    HW228998   7.597   5.577   4.198 -1.1704 -2.4685  1.1197
 9087SOL     OW28999   9.565   5.068   5.987  0.0636  0.2195 -0.6542
 9087SOL    HW129000   9.520   5.136   6.037  0.0397 -0.1108 -0.2320
 9087SOL    HW229001   9.642   5.046   6.039 -0.6383 -1.0482 -0.1140
 9088SOL     OW29002   3.777   7.479   3.192 -0.2024 -0.0657  0.2019
 9088SOL    HW129003   3.741   7.538   3.126  0.0580 -1.1835 -0.9759
 9088SOL    HW229004   3.868   7.468   3.167 -0.3561 -1.2962  0.1451
 9089SOL     OW29005   3.915   2.429   7.706  0.5021  0.1397 -0.5212
 9089SOL    HW129006   3.997   2.469   7.678  0.9854  0.5040  1.3388
 9089SOL    HW229007   3.939   2.376   7.782 -1.0188  0.4801  0.2248
 9090SOL     OW29008   0.414   6.377   2.414 -0.1098 -0.4799  0.8280
 9090SOL    HW129009   0.485   6.439   2.430 -0.7789  0.2459  1.0706
 9090SOL    HW229010   0.335   6.431   2.410 -0.4576 -1.0686 -1.1598
 9091SOL     OW29011   4.244   0.145   9.565  1.2384  0.5721 -0.1194
 9091SOL    HW129012   4.322   0.132   9.619  0.1619  0.3413  1.4288
 9091SOL    HW229013   4.255   0.233   9.529  1.8932  0.8157  0.6392
 9092SOL     OW29014   6.669   8.797   3.059 -0.2359 -0.3698  0.5338
 9092SOL    HW129015   6.646   8.758   2.974  2.4676  0.7395 -0.8204
 9092SOL    HW229016   6.750   8.753   3.084 -0.3028  0.2505  1.9132
 9093SOL     OW29017   4.149   3.140   9.320 -0.2007  0.2228 -0.0358
 9093SOL    HW129018   4.124   3.214   9.266 -0.2828 -0.4791 -0.9969
 9093SOL    HW229019   4.067   3.093   9.337 -0.0522 -0.0540 -0.0659
 9094SOL     OW29020   7.062   3.676   2.920  0.0297 -0.3655 -0.5288
 9094SOL    HW129021   7.096   3.620   2.990  2.3241  2.3748  0.7959
 9094SOL    HW229022   7.126   3.667   2.849 -1.7099 -2.3039 -1.9538
 9095SOL     OW29023   8.529   5.673   2.598 -0.1635 -0.3086 -0.3821
 9095SOL    HW129024   8.558   5.682   2.689 -4.6387 -0.1708  1.2765
 9095SOL    HW229025   8.500   5.760   2.573 -1.6042 -0.8783 -0.8245
 9096SOL     OW29026   2.147   4.672   0.703 -0.1173  0.1496  0.0511
 9096SOL    HW129027   2.118   4.762   0.689  0.4238  0.1262 -1.5249
 9096SOL    HW229028   2.066   4.622   0.712 -0.5423  0.4826 -1.4842
 9097SOL     OW29029   1.660   5.403   5.207  0.0684 -0.0635  0.1643
 9097SOL    HW129030   1.719   5.348   5.258  0.4108  0.0466 -0.1087
 9097SOL    HW229031   1.585   5.347   5.188 -0.3881  0.1056  1.3803
 9098SOL     OW29032   3.760   5.780   1.786  0.0002  0.2160  0.2487
 9098SOL    HW129033   3.710   5.739   1.716  0.3069  1.2668 -0.6210
 9098SOL    HW229034   3.762   5.715   1.856 -0.4227 -0.8117 -0.6683
 9099SOL     OW29035   6.110   0.974   0.821 -0.1954 -0.1360 -0.0835
 9099SOL    HW129036   6.205   0.985   0.812 -0.2558  0.8871  0.3891
 9099SOL    HW229037   6.075   1.062   0.812 -1.0678 -0.4440  0.2246
 9100SOL     OW29038   9.592   7.391   3.987 -0.0187  0.2919  0.5079
 9100SOL    HW129039   9.600   7.300   3.959 -1.7961  0.4779 -0.8188
 9100SOL    HW229040   9.498   7.409   3.984  0.3000  2.2090  0.5696
 9101SOL     OW29041   0.076   8.334   2.447  0.4463 -0.3159  0.4260
 9101SOL    HW129042   0.132   8.399   2.489  0.9490  0.7416 -1.7879
 9101SOL    HW229043   0.094   8.253   2.496  2.3189  0.4560  1.1175
 9102SOL     OW29044   7.409   5.167   4.855  0.2322 -0.5740 -0.0200
 9102SOL    HW129045   7.491   5.194   4.813 -0.3019  2.6737  0.8167
 9102SOL    HW229046   7.406   5.072   4.841  2.8550 -0.4592 -2.2859
 9103SOL     OW29047   1.458   8.774   2.911  0.2154  0.9068 -0.3108
 9103SOL    HW129048   1.539   8.736   2.945 -1.2049 -1.4114  0.7704
 9103SOL    HW229049   1.425   8.708   2.850 -1.0460  1.6307 -0.4387
 9104SOL     OW29050   5.618   7.723   9.022  0.2342  0.3327  0.3108
 9104SOL    HW129051   5.578   7.798   8.979  1.2423  0.9530  0.4383
 9104SOL    HW229052   5.712   7.743   9.024  0.3289 -0.1387  1.8771
 9105SOL     OW29053   7.090   1.656   1.273 -0.1025 -0.1956 -0.1593
 9105SOL    HW129054   7.165   1.670   1.214 -0.0119  1.6301  0.3268
 9105SOL    HW229055   7.083   1.738   1.323 -1.2587 -1.0482  1.1486
 9106SOL     OW29056   8.585   4.714   8.339 -0.1229 -0.5769 -0.4502
 9106SOL    HW129057   8.576   4.806   8.363  1.4581 -0.6460  0.5278
 9106SOL    HW229058   8.575   4.713   8.244  2.7107  1.0629 -0.8728
 9107SOL     OW29059   1.138   5.036   7.523 -0.1981  0.1007 -0.5011
 9107SOL    HW129060   1.150   5.031   7.617 -0.8222  0.2902 -0.4065
 9107SOL    HW229061   1.152   5.128   7.501 -1.6784  0.3779 -0.3489
 9108SOL     OW29062   4.671   9.018   8.730  0.4237  0.1808 -0.2033
 9108SOL    HW129063   4.700   8.929   8.751  2.0875  1.0596  1.5305
 9108SOL    HW229064   4.576   9.015   8.737  0.4155 -1.5836 -0.7222
 9109SOL     OW29065   2.971   0.519   8.913  0.4573  0.7206  0.2953
 9109SOL    HW129066   2.895   0.500   8.857  0.3242  0.0785  0.6835
 9109SOL    HW229067   3.013   0.594   8.872  0.2341  0.3957 -0.5455
 9110SOL     OW29068   0.263   6.246   6.152  0.0035  0.2827  0.2180
 9110SOL    HW129069   0.357   6.227   6.148  0.3110  1.5022  1.1022
 9110SOL    HW229070   0.238   6.263   6.061  1.0518  1.7105  0.1529
 9111SOL     OW29071   5.925   6.149   6.514 -0.6784  0.2328 -0.0503
 9111SOL    HW129072   5.900   6.189   6.431  0.3647  1.3396  0.1520
 9111SOL    HW229073   6.000   6.200   6.544 -1.6316  0.5127  2.0667
 9112SOL     OW29074   3.514   9.383   5.690  0.3921  0.4382 -0.1485
 9112SOL    HW129075   3.503   9.463   5.638  1.4376 -0.2366 -1.4787
 9112SOL    HW229076   3.457   9.319   5.648  1.6818 -0.2774 -0.8841
 9113SOL     OW29077   8.061   1.437   7.819  0.3327  0.1090  0.7345
 9113SOL    HW129078   7.976   1.463   7.783  0.5307 -0.7051 -0.3838
 9113SOL    HW229079   8.039   1.371   7.885  0.1374 -0.9894 -0.3941
 9114SOL     OW29080   9.349   8.899   0.430 -0.2833  0.2230  0.4241
 9114SOL    HW129081   9.272   8.848   0.404  0.0831 -0.0612 -0.1100
 9114SOL    HW229082   9.348   8.896   0.526 -2.2338  2.1415  0.5598
 9115SOL     OW29083   2.655   0.463   6.344  0.1829  0.1685  0.9993
 9115SOL    HW129084   2.725   0.486   6.404  1.5329  0.1331 -0.4878
 9115SOL    HW229085   2.700   0.435   6.264 -1.4777 -2.0249  0.7293
 9116SOL     OW29086   9.558   7.291   5.382  0.0714 -0.7122  0.4742
 9116SOL    HW129087   9.616   7.344   5.327  0.2904 -1.1944  0.2414
 9116SOL    HW229088   9.607   7.278   5.463  0.8653 -2.2788 -0.2374
 9117SOL     OW29089   6.599   9.125   7.435  0.3528 -0.1664  0.1381
 9117SOL    HW129090   6.608   9.075   7.353  0.0832  0.0500 -0.0248
 9117SOL    HW229091   6.601   9.217   7.408 -3.4925  0.0188 -0.1385
 9118SOL     OW29092   8.617   7.929   2.742 -0.2279 -0.1609 -0.2560
 9118SOL    HW129093   8.659   8.005   2.784  2.3556 -1.1070 -0.9235
 9118SOL    HW229094   8.629   7.945   2.648 -1.6521 -0.3643 -0.4867
 9119SOL     OW29095   7.182   6.804   3.118  0.0730  0.6236  0.0849
 9119SOL    HW129096   7.106   6.777   3.065 -0.4492 -0.5459  1.3570
 9119SOL    HW229097   7.198   6.895   3.092 -0.0200  0.0447 -2.2029
 9120SOL     OW29098   2.001   0.856   1.714 -0.2944  0.7454  0.1957
 9120SOL    HW129099   1.958   0.771   1.724  1.5904 -0.5084 -1.5465
 9120SOL    HW229100   2.039   0.874   1.800 -1.5213  0.3017  0.8511
 9121SOL     OW29101   6.586   0.560   6.399 -0.6827 -0.4882 -0.2886
 9121SOL    HW129102   6.569   0.501   6.326 -0.6716  1.5393 -2.0585
 9121SOL    HW229103   6.546   0.643   6.371  1.5497  1.0648  0.8607
 9122SOL     OW29104   8.420   1.573   4.953  0.4405 -0.6365  0.0342
 9122SOL    HW129105   8.395   1.637   5.020  3.0405 -0.7698  1.2806
 9122SOL    HW229106   8.339   1.555   4.906 -0.9187  1.6474  1.2745
 9123SOL     OW29107   3.376   3.085   1.291 -0.3580 -0.1970 -0.4255
 9123SOL    HW129108   3.362   3.179   1.300 -1.9824 -0.4258 -0.3412
 9123SOL    HW229109   3.338   3.063   1.206 -2.1358 -1.1230  0.5394
 9124SOL     OW29110   8.886   1.642   5.387 -0.1270  0.2338  0.2177
 9124SOL    HW129111   8.965   1.692   5.410 -0.2488 -0.4841  2.3436
 9124SOL    HW229112   8.849   1.690   5.312  0.1375  2.9581  1.6952
 9125SOL     OW29113   7.365   0.544   5.752  0.2252  0.0985  0.1330
 9125SOL    HW129114   7.281   0.501   5.737  0.4885 -0.0859 -0.8424
 9125SOL    HW229115   7.371   0.609   5.683  1.0383 -0.1200 -0.0052
 9126SOL     OW29116   3.336   7.736   9.028 -0.4102 -0.0570 -0.1701
 9126SOL    HW129117   3.246   7.734   8.996 -0.6552 -3.5275  0.3567
 9126SOL    HW229118   3.388   7.760   8.951 -1.5984 -0.8322 -1.2500
 9127SOL     OW29119   8.496   6.193   0.102 -0.4569  0.4526 -0.0356
 9127SOL    HW129120   8.545   6.167   0.180 -1.6867 -0.6072  0.4121
 9127SOL    HW229121   8.548   6.161   0.029 -0.6367 -1.0020  0.4429
 9128SOL     OW29122   9.500   2.209   5.564  0.3788 -0.3714 -0.0439
 9128SOL    HW129123   9.447   2.231   5.641 -0.1389 -1.5733 -0.0394
 9128SOL    HW229124   9.439   2.163   5.506  1.3518 -1.5222 -0.1676
 9129SOL     OW29125   9.245   2.551   7.069  0.2637  0.0103 -0.1684
 9129SOL    HW129126   9.228   2.468   7.025 -0.7094 -0.1854  0.5359
 9129SOL    HW229127   9.335   2.574   7.045  0.6002 -1.3275 -0.2323
 9130SOL     OW29128   7.826   1.544   3.707 -0.7487  0.6828 -0.2566
 9130SOL    HW129129   7.741   1.582   3.685 -0.8719  0.5016 -0.1029
 9130SOL    HW229130   7.822   1.530   3.802 -0.8601 -0.0758 -0.3654
 9131SOL     OW29131   4.445   5.111   8.029  0.1768  0.2232  0.4784
 9131SOL    HW129132   4.401   5.026   8.030  1.0228 -0.2283  0.0692
 9131SOL    HW229133   4.511   5.106   8.098  2.1331 -0.5173 -1.3416
 9132SOL     OW29134   3.621   3.242   2.316  0.0196 -0.3869 -0.5893
 9132SOL    HW129135   3.658   3.154   2.319  1.0924  0.0575 -0.1554
 9132SOL    HW229136   3.604   3.258   2.223 -0.2760 -1.0793 -0.6599
 9133SOL     OW29137   3.992   8.279   0.576  0.1168  0.2355  0.3802
 9133SOL    HW129138   3.973   8.266   0.669 -0.0782  0.6590  0.4028
 9133SOL    HW229139   3.962   8.368   0.558 -1.0055 -0.2621 -0.3737
 9134SOL     OW29140   5.477   2.808   1.368 -0.7960  0.3216  0.2754
 9134SOL    HW129141   5.501   2.900   1.353  2.1171 -0.3227  0.3571
 9134SOL    HW229142   5.536   2.779   1.437 -1.1736 -1.8027 -0.2212
 9135SOL     OW29143   1.628   1.155   5.806 -0.5685  0.1906 -0.3753
 9135SOL    HW129144   1.705   1.140   5.860 -0.0079  1.7009 -0.6872
 9135SOL    HW229145   1.615   1.250   5.809 -2.0505  0.0319 -0.8395
 9136SOL     OW29146   5.184   0.140   6.052 -0.7098  0.5002 -0.9674
 9136SOL    HW129147   5.249   0.075   6.028 -1.4853 -0.2791 -1.0209
 9136SOL    HW229148   5.213   0.174   6.137 -1.8193 -2.1015  0.5886
 9137SOL     OW29149   7.338   6.313   5.399  0.5420  0.6670  0.0973
 9137SOL    HW129150   7.369   6.292   5.311  1.1852  1.5201  0.1069
 9137SOL    HW229151   7.400   6.270   5.458  1.1087  1.4989  0.1203
 9138SOL     OW29152   2.258   6.218   0.021  0.2692 -0.5971  0.4020
 9138SOL    HW129153   2.330   6.180  -0.030  1.0012 -0.9398  1.6570
 9138SOL    HW229154   2.288   6.213   0.112  0.2142  2.5302  0.6899
 9139SOL     OW29155   1.938   8.951   0.475 -0.0207 -0.5250 -0.1263
 9139SOL    HW129156   1.879   9.024   0.458  0.0271 -0.1111  1.3858
 9139SOL    HW229157   1.881   8.875   0.483 -0.1470 -0.5068 -0.7419
 9140SOL     OW29158   7.774   4.537   4.236  0.2022  0.3018  0.4163
 9140SOL    HW129159   7.702   4.474   4.234  0.2453  0.2669 -0.5456
 9140SOL    HW229160   7.748   4.602   4.301  0.3052 -0.8752  1.6690
 9141SOL     OW29161   0.802   3.398   6.339 -0.3999  0.3625 -0.3799
 9141SOL    HW129162   0.812   3.403   6.434 -2.0187 -0.7571 -0.1192
 9141SOL    HW229163   0.829   3.485   6.308  0.3657  0.6718  1.0618
 9142SOL     OW29164   2.319   8.022   8.558 -0.0590 -0.0956 -0.1608
 9142SOL    HW129165   2.305   8.057   8.469  0.6302  0.7347  0.0471
 9142SOL    HW229166   2.296   7.929   8.550 -1.4944  0.2824 -0.8401
 9143SOL     OW29167   8.523   1.030   5.911 -0.8780 -0.4501  0.4839
 9143SOL    HW129168   8.494   1.117   5.939 -1.0038 -0.8558  1.7030
 9143SOL    HW229169   8.604   1.014   5.960 -0.2897 -0.6079 -0.5136
 9144SOL     OW29170   1.445   1.982   5.789 -0.0267 -0.2094 -0.2694
 9144SOL    HW129171   1.469   1.962   5.879  0.4950  0.8132 -0.1745
 9144SOL    HW229172   1.498   1.921   5.736 -0.7023 -1.1534  0.1124
 9145SOL     OW29173   5.435   2.884   8.802 -0.1834 -0.4958  0.7458
 9145SOL    HW129174   5.356   2.831   8.816 -0.1058 -0.7478  0.2693
 9145SOL    HW229175   5.497   2.823   8.761  1.1512 -0.9965  3.3335
 9146SOL     OW29176   5.683   3.912   4.190 -0.3687  0.3323 -0.0846
 9146SOL    HW129177   5.717   3.837   4.238 -1.8211 -0.3983 -0.1417
 9146SOL    HW229178   5.666   3.978   4.257 -0.5409  0.0307  0.1757
 9147SOL     OW29179   8.372   9.159   8.559  0.3056 -0.6567  0.0700
 9147SOL    HW129180   8.446   9.115   8.519 -0.8813 -3.3899  0.6280
 9147SOL    HW229181   8.306   9.090   8.570 -1.9582  1.4224  0.4872
 9148SOL     OW29182   3.050   9.139   8.211 -0.4104  0.3894 -0.1249
 9148SOL    HW129183   3.005   9.223   8.202  2.5682  2.1551 -0.2640
 9148SOL    HW229184   3.070   9.133   8.305 -1.5510 -0.7401  0.0597
 9149SOL     OW29185   5.038   8.093   0.806  0.1884  0.7164  0.6651
 9149SOL    HW129186   4.974   8.143   0.856  0.0029  0.5101  0.6343
 9149SOL    HW229187   4.993   8.012   0.784  0.2268  0.8540  0.0637
 9150SOL     OW29188   0.129   9.109   0.282 -0.0056  0.0576  0.5571
 9150SOL    HW129189   0.138   9.016   0.302  1.7861  0.2069  0.5465
 9150SOL    HW229190   0.045   9.134   0.322  0.4541 -1.0863  2.3332
 9151SOL     OW29191   0.025   6.834   1.633 -0.2070 -0.5112 -0.0720
 9151SOL    HW129192   0.060   6.803   1.550  0.3204  0.3388 -0.1855
 9151SOL    HW229193  -0.068   6.847   1.616 -0.2424 -1.0391 -0.3111
 9152SOL     OW29194   4.980   1.838   6.574  0.3705  0.4030 -0.2975
 9152SOL    HW129195   4.933   1.810   6.496  0.3049  2.5293 -1.1017
 9152SOL    HW229196   4.931   1.801   6.647 -1.0216  0.4191 -1.1965
 9153SOL     OW29197   3.158   4.119   3.378  0.1984 -0.2099 -0.0428
 9153SOL    HW129198   3.177   4.200   3.425  1.4902 -0.4440 -0.1010
 9153SOL    HW229199   3.231   4.061   3.401 -0.7088 -1.3608  0.0036
 9154SOL     OW29200   5.650   5.679   4.419  0.7611 -0.0765  0.5679
 9154SOL    HW129201   5.713   5.653   4.351  0.6003 -1.7431  0.9977
 9154SOL    HW229202   5.591   5.740   4.375  0.3149 -1.5337 -1.0032
 9155SOL     OW29203   8.081   3.549   0.616 -0.2175  0.3446  0.0553
 9155SOL    HW129204   8.075   3.479   0.551  0.9764  0.9704 -0.7584
 9155SOL    HW229205   8.103   3.627   0.565  3.0531  0.4441  1.3814
 9156SOL     OW29206   5.930   2.629   7.457  0.0033  0.0998  0.2042
 9156SOL    HW129207   5.839   2.657   7.451  0.1028  0.2881 -0.4971
 9156SOL    HW229208   5.936   2.554   7.398 -0.1278 -1.1068  1.6356
 9157SOL     OW29209   9.107   8.187   1.594 -0.7019  0.1120  0.2127
 9157SOL    HW129210   9.167   8.148   1.658 -0.6183  0.0140  0.0752
 9157SOL    HW229211   9.038   8.122   1.584 -1.0727  0.4227  0.7166
 9158SOL     OW29212   5.565   5.981   3.616  0.2383  0.1899  0.4842
 9158SOL    HW129213   5.653   5.947   3.632 -0.7129 -1.8791  1.6166
 9158SOL    HW229214   5.539   5.943   3.532 -0.8032 -2.0339  1.7240
 9159SOL     OW29215   9.097   2.875   4.545  0.2409 -0.1219 -0.0413
 9159SOL    HW129216   9.059   2.795   4.580 -0.5252  0.1971 -0.1161
 9159SOL    HW229217   9.059   2.945   4.598  2.4460  0.0923  1.3964
 9160SOL     OW29218   4.888   7.736   2.835  0.4470  0.1009 -0.6866
 9160SOL    HW129219   4.895   7.831   2.840 -0.9413  0.1534  1.2678
 9160SOL    HW229220   4.945   7.704   2.905 -0.8181 -0.3755  0.1549
 9161SOL     OW29221   0.493   9.313   2.566  0.4485  0.6835  0.5942
 9161SOL    HW129222   0.452   9.394   2.536 -0.1356  0.8796  1.8489
 9161SOL    HW229223   0.586   9.335   2.575  0.4185  0.9867  0.1735
 9162SOL     OW29224   3.153   1.622   1.195  0.2930 -0.1591  0.3450
 9162SOL    HW129225   3.204   1.617   1.276 -0.1899  4.7012  1.2364
 9162SOL    HW229226   3.202   1.684   1.140 -1.1284 -0.7720 -1.7012
 9163SOL     OW29227   5.952   0.364   8.677 -0.2030 -0.0497 -0.1781
 9163SOL    HW129228   5.958   0.445   8.625  1.1533  0.2503  0.4013
 9163SOL    HW229229   5.952   0.294   8.612 -2.7026  0.3809 -0.7711
 9164SOL     OW29230   7.024   5.497   3.348 -0.3309  0.4212  0.2719
 9164SOL    HW129231   6.939   5.495   3.304 -0.4295  0.7582  0.4544
 9164SOL    HW229232   7.052   5.588   3.344  0.2297  0.2386 -0.1884
 9165SOL     OW29233   4.542   2.727   6.088 -0.2984  0.1975 -0.0883
 9165SOL    HW129234   4.635   2.742   6.108 -1.1788  2.6260  3.0107
 9165SOL    HW229235   4.527   2.636   6.112  1.4489 -0.5899 -1.7195
 9166SOL     OW29236   3.616   8.705   0.391 -0.0413  0.1259  0.2611
 9166SOL    HW129237   3.696   8.735   0.348  0.0184 -0.7976 -0.2864
 9166SOL    HW229238   3.551   8.701   0.321 -1.4211  3.5534  1.1090
 9167SOL     OW29239   5.156   2.178   6.249  0.0464  0.8040  0.5198
 9167SOL    HW129240   5.148   2.115   6.176 -0.2641 -0.0329  1.2586
 9167SOL    HW229241   5.119   2.132   6.324  1.3706  1.2303  1.4620
 9168SOL     OW29242   8.702   4.482   3.009 -0.0404  0.0311  0.5943
 9168SOL    HW129243   8.775   4.468   3.070  0.3096 -0.4228  0.0774
 9168SOL    HW229244   8.709   4.574   2.984  0.5768 -0.1041  0.2651
 9169SOL     OW29245   0.387   2.561   0.990  0.5760 -0.3168 -0.2868
 9169SOL    HW129246   0.435   2.516   1.058  1.0167 -0.5085 -0.7188
 9169SOL    HW229247   0.445   2.561   0.914 -0.1991 -0.7996 -0.9049
 9170SOL     OW29248   7.195   5.754   8.510 -0.8460 -0.3509  0.0571
 9170SOL    HW129249   7.223   5.833   8.464 -2.1480  0.3869  0.4803
 9170SOL    HW229250   7.245   5.683   8.470 -0.0330  0.6208 -0.6804
 9171SOL     OW29251   6.553   7.752   0.977  0.3345 -0.1252  0.2471
 9171SOL    HW129252   6.601   7.746   0.894 -0.5447  1.1204 -0.3753
 9171SOL    HW229253   6.478   7.807   0.957 -0.2976 -0.4276  1.7044
 9172SOL     OW29254   1.920   1.019   3.051 -0.2132  0.2085 -0.3541
 9172SOL    HW129255   1.923   1.061   3.137  1.3591  1.5575 -1.0189
 9172SOL    HW229256   1.930   0.926   3.071  0.9468  0.5537  0.9121
 9173SOL     OW29257   5.685   6.947   2.668  0.1118  0.2623  0.2454
 9173SOL    HW129258   5.713   6.865   2.628  0.7007 -0.0001  1.1460
 9173SOL    HW229259   5.684   6.928   2.762  2.2406  1.8375  0.6570
 9174SOL     OW29260   6.389   7.947   6.340  0.3661 -0.6735 -0.1311
 9174SOL    HW129261   6.307   7.940   6.292  0.7039 -0.6234 -0.7255
 9174SOL    HW229262   6.456   7.956   6.272  0.7860  0.1015  0.3728
 9175SOL     OW29263   4.096   6.751   2.740  0.2863 -0.0058  0.6660
 9175SOL    HW129264   4.181   6.733   2.699  0.5666  0.0211  1.2221
 9175SOL    HW229265   4.108   6.836   2.781 -0.6587  0.9614 -0.9494
 9176SOL     OW29266   5.473   5.889   5.648 -0.8690 -0.0712 -0.2185
 9176SOL    HW129267   5.389   5.935   5.645 -1.3761 -1.0153 -1.5719
 9176SOL    HW229268   5.505   5.903   5.737 -1.8219  1.4136 -0.0783
 9177SOL     OW29269   4.701   7.575   4.809  0.2062  0.2388 -0.1096
 9177SOL    HW129270   4.734   7.634   4.741  0.9829  0.1956  0.2214
 9177SOL    HW229271   4.690   7.631   4.886 -2.1706  0.6332 -0.6553
 9178SOL     OW29272   7.716   1.667   1.080  0.3684 -0.2856  0.1844
 9178SOL    HW129273   7.766   1.687   1.001 -0.8997 -0.7013 -0.7608
 9178SOL    HW229274   7.690   1.575   1.069 -0.6512 -0.0591  0.5924
 9179SOL     OW29275   9.073   2.954   6.091 -0.0501  0.3894  0.0630
 9179SOL    HW129276   9.009   3.015   6.054  0.6670 -0.0189 -1.9815
 9179SOL    HW229277   9.020   2.889   6.138 -1.1194  0.3794 -1.1053
 9180SOL     OW29278   5.780   2.192   8.806 -0.1701 -0.0038  0.1583
 9180SOL    HW129279   5.717   2.126   8.777 -0.2062 -0.1419  0.5506
 9180SOL    HW229280   5.830   2.149   8.875 -0.0067  0.2837  0.2201
 9181SOL     OW29281   6.098   7.687   4.685 -0.1621  0.0465  0.2935
 9181SOL    HW129282   6.056   7.729   4.760 -0.1984  2.4851 -1.0050
 9181SOL    HW229283   6.172   7.743   4.664 -1.1382  0.4595 -2.5036
 9182SOL     OW29284   6.526   2.386   9.009  0.0768  0.5861 -0.0765
 9182SOL    HW129285   6.451   2.327   9.007 -0.5395  1.3249  0.6580
 9182SOL    HW229286   6.492   2.470   8.978  0.8520  0.6639 -0.7440
 9183SOL     OW29287   7.152   6.641   4.648 -0.3568  0.1347  0.2441
 9183SOL    HW129288   7.211   6.658   4.574  0.0576  1.2098  0.8082
 9183SOL    HW229289   7.151   6.545   4.655 -0.9387 -0.0368 -1.5779
 9184SOL     OW29290   5.873   5.144   7.888 -0.2401 -0.3949  0.0221
 9184SOL    HW129291   5.956   5.108   7.858  0.9765  1.8239  0.5184
 9184SOL    HW229292   5.884   5.156   7.982 -0.2442  1.9200 -0.2174
 9185SOL     OW29293   7.918   0.959   2.677  0.0779 -0.2083  0.4008
 9185SOL    HW129294   7.909   0.872   2.640  2.7105 -0.3233 -0.1506
 9185SOL    HW229295   7.833   1.001   2.661 -0.3157 -1.7101 -1.8835
 9186SOL     OW29296   4.837   8.815   0.911 -0.0503  0.0562 -0.0492
 9186SOL    HW129297   4.914   8.806   0.854 -0.6028  0.7492 -0.9334
 9186SOL    HW229298   4.868   8.791   0.998  1.0646 -0.0638 -0.4689
 9187SOL     OW29299   3.909   1.003   1.543 -0.1165 -0.0948  0.9149
 9187SOL    HW129300   3.965   1.060   1.594 -2.6260  2.0666  1.4597
 9187SOL    HW229301   3.874   1.059   1.474 -2.3123 -1.0149  1.1888
 9188SOL     OW29302   0.609   4.827   5.867  0.4379  0.3277  0.2005
 9188SOL    HW129303   0.561   4.757   5.912  0.9679 -0.0558  0.1799
 9188SOL    HW229304   0.590   4.814   5.774  0.8336 -0.0270  0.1636
 9189SOL     OW29305   2.551   8.589   6.399 -0.0664 -0.1851  0.0228
 9189SOL    HW129306   2.566   8.670   6.448 -2.4071 -0.0966  0.7288
 9189SOL    HW229307   2.556   8.615   6.307 -0.3191  0.6626  0.2400
 9190SOL     OW29308   2.622   2.775   8.051  0.4793  0.5014 -0.0248
 9190SOL    HW129309   2.666   2.822   7.981  0.6429  2.5216  1.3225
 9190SOL    HW229310   2.576   2.844   8.100 -3.4167 -1.3256 -0.7568
 9191SOL     OW29311   0.448   9.101   0.278  0.2829  0.6095  0.0851
 9191SOL    HW129312   0.384   9.135   0.216  0.2773  0.6202  0.0967
 9191SOL    HW229313   0.533   9.110   0.234  0.1899 -0.2413 -0.3002
 9192SOL     OW29314   2.459   7.306   2.593 -0.3246 -0.1630  0.1581
 9192SOL    HW129315   2.410   7.314   2.675 -0.0410 -2.0941  0.5724
 9192SOL    HW229316   2.551   7.319   2.618 -0.1324 -1.7546  0.3685
 9193SOL     OW29317   9.191   3.248   6.363  0.1030 -0.3686  0.0910
 9193SOL    HW129318   9.156   3.304   6.433 -0.1575  1.5451 -1.4699
 9193SOL    HW229319   9.114   3.209   6.322  0.0388  0.5081 -0.6707
 9194SOL     OW29320   8.645   7.036   3.669  0.4821 -0.0140 -0.5236
 9194SOL    HW129321   8.641   6.944   3.643 -0.2528 -0.4605  1.0701
 9194SOL    HW229322   8.721   7.041   3.728  2.0044  0.9383 -2.4228
 9195SOL     OW29323   1.290   4.928   7.216 -0.0122  0.5385  0.2220
 9195SOL    HW129324   1.216   4.911   7.274 -0.5761  1.7715 -0.1060
 9195SOL    HW229325   1.357   4.864   7.242 -0.6751  0.3254  1.4504
 9196SOL     OW29326   2.975   7.613   7.624  0.8515 -0.2900  0.7148
 9196SOL    HW129327   2.972   7.517   7.622 -0.2814 -0.2712  0.6449
 9196SOL    HW229328   3.010   7.638   7.539 -0.9022 -0.6156 -0.1600
 9197SOL     OW29329   5.261   4.946   7.209 -0.5366  0.7744  0.4540
 9197SOL    HW129330   5.291   5.001   7.282  1.5208  1.3507 -0.7283
 9197SOL    HW229331   5.189   4.995   7.170  0.7471  2.3413 -0.0985
 9198SOL     OW29332   0.362   4.453   1.380  0.2421  0.3052  0.5342
 9198SOL    HW129333   0.380   4.379   1.438  0.0994 -1.1280 -1.1601
 9198SOL    HW229334   0.269   4.473   1.396  0.9249  1.9391  2.9204
 9199SOL     OW29335   1.524   4.736   0.277 -0.2599 -0.0372 -0.4526
 9199SOL    HW129336   1.439   4.775   0.295 -1.2981 -1.2393 -2.4050
 9199SOL    HW229337   1.582   4.772   0.344 -2.7850 -0.9561  2.4691
 9200SOL     OW29338   1.452   2.154   7.794 -0.2523 -0.2518 -0.7840
 9200SOL    HW129339   1.362   2.130   7.816 -0.5759  0.0816 -1.6898
 9200SOL    HW229340   1.443   2.232   7.739  0.5953 -0.2484 -0.9292
 9201SOL     OW29341   9.527   6.338   7.473 -0.5234  0.2875 -0.2709
 9201SOL    HW129342   9.464   6.266   7.466 -1.6058  1.2237 -0.5520
 9201SOL    HW229343   9.600   6.312   7.418 -1.2102 -0.2883 -0.9343
 9202SOL     OW29344   0.488   7.168   1.692 -0.1194  0.1268 -0.2260
 9202SOL    HW129345   0.526   7.143   1.608 -1.2421  0.2602 -0.7914
 9202SOL    HW229346   0.395   7.149   1.683 -0.5873  2.0132  0.2764
 9203SOL     OW29347   7.120   1.361   9.235 -0.4494  0.3459  0.2051
 9203SOL    HW129348   7.052   1.337   9.298 -0.3214  0.4607  0.3887
 9203SOL    HW229349   7.132   1.455   9.247  1.4116 -0.0162  1.8873
 9204SOL     OW29350   8.649   6.371   2.011 -0.1796  0.4240  0.5623
 9204SOL    HW129351   8.606   6.341   2.091 -0.3743  0.1258  0.3471
 9204SOL    HW229352   8.714   6.303   1.992 -0.4086  0.2931  0.2442
 9205SOL     OW29353   3.932   8.003   6.685 -0.5223 -0.2045 -0.1244
 9205SOL    HW129354   3.906   7.924   6.732 -1.7009  0.1638 -0.1252
 9205SOL    HW229355   3.967   8.061   6.753 -3.1582  0.7316  0.5639
 9206SOL     OW29356   5.538   5.047   1.111 -0.0012  0.3595  0.3543
 9206SOL    HW129357   5.570   5.119   1.166 -1.8088  1.4118  0.1037
 9206SOL    HW229358   5.453   5.077   1.078 -0.9713 -1.9954  0.4544
 9207SOL     OW29359   3.138   7.706   8.131  0.4268 -0.2176 -0.8069
 9207SOL    HW129360   3.228   7.697   8.101  0.5226 -3.0047  0.0360
 9207SOL    HW229361   3.105   7.616   8.136 -1.9017  0.6141  0.4443
 9208SOL     OW29362   4.199   5.285   4.753 -0.4087  0.0116  0.4793
 9208SOL    HW129363   4.245   5.265   4.834 -0.3790 -2.9985 -0.1382
 9208SOL    HW229364   4.267   5.293   4.687 -0.5408 -1.2132  0.1552
 9209SOL     OW29365   5.268   2.844   2.337  0.2496  0.0437 -0.2073
 9209SOL    HW129366   5.234   2.915   2.284 -0.9028 -1.4290 -1.5614
 9209SOL    HW229367   5.269   2.768   2.278 -0.7199 -1.5826  1.7197
 9210SOL     OW29368   5.778   3.354   2.057 -0.0860 -0.0101 -0.2323
 9210SOL    HW129369   5.766   3.442   2.019  0.8876 -0.4538 -1.6483
 9210SOL    HW229370   5.873   3.342   2.061 -0.2000 -1.3741 -0.9908
 9211SOL     OW29371   6.486   7.219   2.649  0.4389 -0.1769 -0.4503
 9211SOL    HW129372   6.456   7.132   2.625 -0.3569  0.1044 -0.5041
 9211SOL    HW229373   6.429   7.245   2.722  0.6688  0.2950 -0.4352
 9212SOL     OW29374   1.810   1.702   9.204 -0.3653  0.3103  0.2561
 9212SOL    HW129375   1.764   1.620   9.222 -2.6598  1.2330 -0.9693
 9212SOL    HW229376   1.799   1.754   9.284 -1.5151  0.5123 -0.0138
 9213SOL     OW29377   0.744   6.286   5.953 -0.3380  0.1646  0.5679
 9213SOL    HW129378   0.770   6.197   5.974  0.0725 -0.2221 -1.3489
 9213SOL    HW229379   0.680   6.309   6.020 -0.7837 -1.7258  0.8573
 9214SOL     OW29380   1.291   6.506   8.773 -0.2765  0.0299 -1.0224
 9214SOL    HW129381   1.276   6.455   8.854 -1.8543  0.3918 -1.0563
 9214SOL    HW229382   1.214   6.563   8.767 -0.6910 -0.6818 -3.3000
 9215SOL     OW29383   5.323   5.904   0.128  0.3217 -0.4444 -0.4483
 9215SOL    HW129384   5.326   5.869   0.216 -0.2923  2.0758  0.6701
 9215SOL    HW229385   5.250   5.858   0.086 -2.0414  1.0705  1.7331
 9216SOL     OW29386   0.748   3.148   2.617 -0.3737  0.3750 -0.1202
 9216SOL    HW129387   0.802   3.084   2.665 -0.0864  0.9517  0.3381
 9216SOL    HW229388   0.782   3.233   2.644 -1.9573  0.7860  0.7432
 9217SOL     OW29389   0.792   2.195   8.971  0.2160 -0.2761 -0.6196
 9217SOL    HW129390   0.861   2.260   8.975  0.9168 -1.0577  0.4952
 9217SOL    HW229391   0.728   2.223   9.037  1.3161 -1.5437  1.0796
 9218SOL     OW29392   9.237   4.503   4.677  0.1904 -0.0869 -0.2281
 9218SOL    HW129393   9.223   4.462   4.592 -0.4229 -0.3356 -0.0136
 9218SOL    HW229394   9.200   4.591   4.668  0.4624  0.0174 -0.3324
 9219SOL     OW29395   0.447   0.983   8.143  0.0846 -0.5600  0.3020
 9219SOL    HW129396   0.426   0.915   8.079 -0.6240 -1.2679  1.2688
 9219SOL    HW229397   0.363   1.004   8.184  0.1380  1.4740 -0.5126
 9220SOL     OW29398   2.705   3.110   9.276 -0.3379 -0.0191 -0.4740
 9220SOL    HW129399   2.773   3.054   9.237 -0.0778 -0.3545  0.4274
 9220SOL    HW229400   2.623   3.072   9.245 -0.1325  0.1802 -1.2974
 9221SOL     OW29401   7.612   3.890   9.174 -0.0551 -0.2429  0.8653
 9221SOL    HW129402   7.546   3.960   9.175 -0.7245 -0.8669  1.0001
 9221SOL    HW229403   7.563   3.810   9.193  0.7847 -0.6897  1.2228
 9222SOL     OW29404   5.802   1.175   9.101 -0.2299 -0.4322  0.4834
 9222SOL    HW129405   5.807   1.086   9.134 -0.2402 -0.0434  1.5460
 9222SOL    HW229406   5.764   1.166   9.013 -0.6331 -1.4228  0.7547
 9223SOL     OW29407   6.564   1.151   1.980  0.4031  0.2402  0.6864
 9223SOL    HW129408   6.478   1.193   1.974  0.4929  0.6663  1.9506
 9223SOL    HW229409   6.544   1.057   1.986  0.0409  0.3065  0.5623
 9224SOL     OW29410   2.913   7.184   3.278 -0.3669 -0.1976 -0.3725
 9224SOL    HW129411   2.872   7.099   3.259 -1.0460  0.1722 -0.5864
 9224SOL    HW229412   2.868   7.245   3.220 -0.3511  0.4246  0.2628
 9225SOL     OW29413   6.236   0.327   3.986 -0.2515 -0.0175  0.3966
 9225SOL    HW129414   6.169   0.383   4.024  0.0037 -0.7840  2.0397
 9225SOL    HW229415   6.227   0.243   4.031  1.6658 -0.2047  0.5339
 9226SOL     OW29416   5.102   4.497   8.986  0.9838  0.1163  0.2897
 9226SOL    HW129417   5.008   4.514   8.979  0.8782 -0.8355 -0.9239
 9226SOL    HW229418   5.109   4.422   9.046  0.7720 -1.1510 -1.1920
 9227SOL     OW29419   0.740   4.874   3.082 -0.1984  0.1172 -0.0053
 9227SOL    HW129420   0.696   4.816   3.020  2.2306 -1.2626 -0.5678
 9227SOL    HW229421   0.804   4.922   3.030 -1.4271  2.6435  0.6399
 9228SOL     OW29422   3.387   6.822   2.546 -0.1602  0.1140  0.3541
 9228SOL    HW129423   3.360   6.881   2.476  0.1680  0.5793  0.6150
 9228SOL    HW229424   3.464   6.777   2.511 -1.2295 -1.2225 -0.3953
 9229SOL     OW29425   1.861   2.182   7.660 -0.3074 -0.0642  0.0644
 9229SOL    HW129426   1.801   2.241   7.706  1.1961  0.3923  1.5484
 9229SOL    HW229427   1.865   2.104   7.714  2.4444  0.9636  1.5444
 9230SOL     OW29428   9.391   5.575   9.232  0.3283  0.1491  0.6642
 9230SOL    HW129429   9.448   5.645   9.199 -1.0599 -0.2945 -3.1966
 9230SOL    HW229430   9.304   5.615   9.235 -0.3667 -1.1367 -0.9447
 9231SOL     OW29431   2.406   2.138   0.229 -0.2984 -0.3710 -0.1219
 9231SOL    HW129432   2.406   2.226   0.266  2.0787  0.1951 -1.2596
 9231SOL    HW229433   2.357   2.145   0.148 -1.3295 -0.4689  0.4738
 9232SOL     OW29434   1.921   0.894   8.360 -0.0601  0.5955  0.3983
 9232SOL    HW129435   2.002   0.849   8.337 -0.3440  0.2078  0.1470
 9232SOL    HW229436   1.947   0.985   8.372  0.4353  0.4510  0.4496
 9233SOL     OW29437   2.326   3.138   7.242  0.0416 -0.2048 -0.2587
 9233SOL    HW129438   2.380   3.072   7.200  1.3858  0.5650  0.2080
 9233SOL    HW229439   2.236   3.110   7.224  0.5759 -1.6725 -0.7915
 9234SOL     OW29440   1.732   1.295   6.996  0.1760  0.1159  0.7787
 9234SOL    HW129441   1.744   1.348   7.074 -0.2876  2.1158 -0.4466
 9234SOL    HW229442   1.665   1.341   6.945  0.8479 -0.8294 -1.0695
 9235SOL     OW29443   1.392   7.775   8.442  0.6987  0.3081  0.6248
 9235SOL    HW129444   1.429   7.796   8.527  1.1239 -0.6199  0.6834
 9235SOL    HW229445   1.322   7.840   8.429 -0.8246 -0.8136  2.6275
 9236SOL     OW29446   1.512   4.646   2.161 -0.3211 -0.4044  0.0525
 9236SOL    HW129447   1.533   4.729   2.118  1.2531 -0.5028  0.5604
 9236SOL    HW229448   1.596   4.599   2.166 -1.3010 -2.4228 -1.0169
 9237SOL     OW29449   3.100   4.606   0.069  0.2227 -0.2369 -0.3859
 9237SOL    HW129450   3.013   4.644   0.062  0.1886 -0.4848 -1.5417
 9237SOL    HW229451   3.103   4.540   0.000  0.9925 -0.9091  0.2694
 9238SOL     OW29452   6.356   6.750   7.260  0.2948 -0.1335 -0.0633
 9238SOL    HW129453   6.406   6.756   7.178  2.8565  0.9661  1.4765
 9238SOL    HW229454   6.326   6.839   7.276  1.2835  0.0359  1.0009
 9239SOL     OW29455   4.045   4.293   0.938  0.0624 -0.0462 -0.4792
 9239SOL    HW129456   3.964   4.267   0.894  0.3492  0.1335 -1.1317
 9239SOL    HW229457   4.101   4.215   0.934 -1.2640 -1.3764  3.0195
 9240SOL     OW29458   6.290   4.877   6.018 -0.1192  0.3242 -0.0345
 9240SOL    HW129459   6.202   4.867   5.981 -0.4701  1.8334  0.2890
 9240SOL    HW229460   6.275   4.914   6.105  0.8463  2.2046 -0.6053
 9241SOL     OW29461   5.883   1.739   3.226  0.1082  0.3614  0.5508
 9241SOL    HW129462   5.857   1.831   3.224 -1.7245 -0.1087  1.3312
 9241SOL    HW229463   5.899   1.720   3.318 -1.7188 -0.6456  0.6984
 9242SOL     OW29464   6.470   3.016   0.584  0.0406  0.2027 -0.3379
 9242SOL    HW129465   6.514   2.938   0.549  0.0049  0.6298 -1.3803
 9242SOL    HW229466   6.410   3.043   0.514  0.1159  1.2060 -0.0289
 9243SOL     OW29467   6.332   0.827   0.248 -0.5230  0.4682  0.3324
 9243SOL    HW129468   6.248   0.785   0.269 -0.4063 -0.6140 -1.1794
 9243SOL    HW229469   6.362   0.865   0.331 -1.9184 -0.1742  1.1616
 9244SOL     OW29470   5.861   3.348   8.131 -0.0059 -0.5475 -0.0585
 9244SOL    HW129471   5.861   3.273   8.191 -2.3125 -0.2561  0.4158
 9244SOL    HW229472   5.866   3.309   8.044  1.4812 -1.0801  0.2475
 9245SOL     OW29473   0.605   2.776   9.089  0.9382  0.2413 -0.0699
 9245SOL    HW129474   0.517   2.738   9.079  0.5620  0.5458  1.6865
 9245SOL    HW229475   0.647   2.763   9.004 -0.3218 -1.1481 -0.5203
 9246SOL     OW29476   5.198   8.560   6.299 -0.1169 -0.4157 -0.1653
 9246SOL    HW129477   5.232   8.533   6.214  0.9820  0.7070 -0.1202
 9246SOL    HW229478   5.207   8.482   6.355  2.8726 -0.1383 -0.0463
 9247SOL     OW29479   5.680   3.179   1.222 -0.4521 -0.4158  0.2708
 9247SOL    HW129480   5.714   3.108   1.168 -0.4974 -0.9009  0.8722
 9247SOL    HW229481   5.745   3.189   1.292 -1.2985 -1.0561  1.1827
 9248SOL     OW29482   7.937   1.887   4.262  0.7792 -0.8402 -0.6693
 9248SOL    HW129483   7.872   1.820   4.240  0.3664 -0.8119  0.3903
 9248SOL    HW229484   8.020   1.839   4.268  0.4764 -1.2739  0.1410
 9249SOL     OW29485   9.555   0.906   1.590 -0.3354  0.1101 -0.2923
 9249SOL    HW129486   9.501   0.872   1.518 -1.9452  0.9190  0.4607
 9249SOL    HW229487   9.532   0.851   1.665  3.2585 -2.4415 -0.8566
 9250SOL     OW29488   6.017   2.503   8.080 -0.4955 -0.3252  0.2847
 9250SOL    HW129489   6.037   2.532   8.169 -2.1939  1.8722  0.0389
 9250SOL    HW229490   5.943   2.443   8.090 -2.0976  1.5550  0.2805
 9251SOL     OW29491   9.575   8.034   0.995  0.4866 -0.4184  0.0548
 9251SOL    HW129492   9.551   7.942   0.987  2.8636 -1.1307  0.2655
 9251SOL    HW229493   9.632   8.051   0.920 -1.1949  1.4129 -0.9248
 9252SOL     OW29494   0.149   3.817   3.834 -0.1989 -0.1879  0.0516
 9252SOL    HW129495   0.132   3.802   3.927  0.0329 -3.7624 -0.3381
 9252SOL    HW229496   0.242   3.794   3.822  0.0978  1.3355 -0.9240
 9253SOL     OW29497   6.794   8.743   2.048  0.4127 -0.2496  0.2908
 9253SOL    HW129498   6.795   8.833   2.081 -1.4595 -0.7097  1.7981
 9253SOL    HW229499   6.881   8.709   2.069  1.2745  1.2790 -0.6263
 9254SOL     OW29500   5.470   3.013   5.824  0.1164  0.2495  0.2077
 9254SOL    HW129501   5.483   3.100   5.787 -1.6376  0.4162 -0.1452
 9254SOL    HW229502   5.431   3.029   5.910 -0.2608 -0.1789  0.1236
 9255SOL     OW29503   3.217   1.397   8.741  0.6787  0.5982  0.0871
 9255SOL    HW129504   3.165   1.345   8.680  0.0249 -1.5974  2.3192
 9255SOL    HW229505   3.157   1.462   8.775  1.0006  1.7171 -1.4178
 9256SOL     OW29506   6.333   7.440   1.572  0.2288 -0.0003  0.2124
 9256SOL    HW129507   6.405   7.401   1.622  0.1265  0.3535  0.6429
 9256SOL    HW229508   6.375   7.504   1.515  0.1442  1.1021  1.3526
 9257SOL     OW29509   9.289   9.024   2.950  0.5214  0.3378  0.1446
 9257SOL    HW129510   9.373   8.985   2.925  0.2762 -0.6393  0.7932
 9257SOL    HW229511   9.311   9.114   2.974  1.4208  0.0310  0.5205
 9258SOL     OW29512   4.111   3.421   1.581  1.0928 -0.7186  0.3514
 9258SOL    HW129513   4.080   3.509   1.557  1.2254 -1.0455 -1.1481
 9258SOL    HW229514   4.123   3.377   1.497  0.5302 -2.3513  1.0834
 9259SOL     OW29515   4.777   1.011   5.621 -0.2181 -0.5824  0.3511
 9259SOL    HW129516   4.867   1.039   5.604 -0.7317  1.5539  0.8392
 9259SOL    HW229517   4.753   0.961   5.543  0.6874  0.6577 -0.7844
 9260SOL     OW29518   0.378   6.347   8.837  0.1063  0.1121 -0.0165
 9260SOL    HW129519   0.412   6.257   8.834  0.8049  0.3508  0.5623
 9260SOL    HW229520   0.341   6.356   8.925  2.9112  1.3748  1.1745
 9261SOL     OW29521   8.212   6.497   5.121  0.7690  0.3453  0.0459
 9261SOL    HW129522   8.287   6.477   5.065  0.3244  0.9121 -0.7802
 9261SOL    HW229523   8.242   6.571   5.174 -0.1539  2.6705 -2.4534
 9262SOL     OW29524   2.519   0.782   1.346 -0.2804 -0.2928  0.8008
 9262SOL    HW129525   2.519   0.810   1.438  0.7796  0.2730  0.6459
 9262SOL    HW229526   2.596   0.825   1.308 -0.8744 -0.2839 -0.4306
 9263SOL     OW29527   8.993   5.210   8.846 -0.1321  0.3723  0.1718
 9263SOL    HW129528   8.976   5.242   8.758  1.7932  2.6147  0.5078
 9263SOL    HW229529   9.019   5.288   8.896  1.8911 -1.2459  1.8742
 9264SOL     OW29530   0.952   4.520   7.349 -0.0105  0.2386 -0.1683
 9264SOL    HW129531   0.943   4.584   7.420  0.7284  0.1036  0.0472
 9264SOL    HW229532   0.970   4.573   7.271 -4.1125  0.7288 -1.0320
 9265SOL     OW29533   8.074   0.911   8.809  0.0128  0.3866  0.2726
 9265SOL    HW129534   7.990   0.867   8.819 -0.4992  1.3146  0.2210
 9265SOL    HW229535   8.080   0.932   8.716  0.0981  0.6930  0.3432
 9266SOL     OW29536   9.499   3.414   6.055 -0.1667  0.2432 -0.7616
 9266SOL    HW129537   9.575   3.380   6.008 -1.0828 -1.0501 -1.3654
 9266SOL    HW229538   9.424   3.393   5.999 -1.1859 -0.3936  0.7628
 9267SOL     OW29539   1.588   6.669   2.309  0.4950 -0.4142  0.2990
 9267SOL    HW129540   1.587   6.736   2.240 -0.8406  0.7062  1.3447
 9267SOL    HW229541   1.602   6.719   2.390  2.4051 -1.7397  0.8571
 9268SOL     OW29542   0.044   2.952   3.947 -0.6064 -0.2850 -0.3581
 9268SOL    HW129543  -0.044   2.916   3.941 -1.0253  0.8387 -1.2541
 9268SOL    HW229544   0.100   2.884   3.910 -1.3507 -0.2090 -1.7163
 9269SOL     OW29545   6.676   6.193   0.567  0.3193  0.2042 -0.3183
 9269SOL    HW129546   6.666   6.284   0.597  1.3386  0.3975 -0.5340
 9269SOL    HW229547   6.684   6.200   0.472  1.1777 -0.0364 -0.2674
 9270SOL     OW29548   7.270   3.365   2.907 -0.5337  0.6071  0.2132
 9270SOL    HW129549   7.235   3.319   2.830 -0.9157 -1.0909  1.3353
 9270SOL    HW229550   7.338   3.422   2.872  1.2045 -2.0881 -1.1726
 9271SOL     OW29551   0.793   1.437   4.818  0.6547 -0.2912  0.4928
 9271SOL    HW129552   0.771   1.527   4.795  0.0335 -0.2123  1.3530
 9271SOL    HW229553   0.747   1.421   4.900  1.7633 -0.9901  1.0012
 9272SOL     OW29554   8.177   2.706   3.232  0.2153 -0.2902  0.1869
 9272SOL    HW129555   8.168   2.796   3.201  5.1962 -0.3223 -2.3963
 9272SOL    HW229556   8.171   2.653   3.152  4.0502 -1.3570  0.4022
 9273SOL     OW29557   9.519   6.209   7.730 -0.3014  0.3726 -0.2463
 9273SOL    HW129558   9.476   6.196   7.645 -0.7567  0.6304 -0.0588
 9273SOL    HW229559   9.608   6.235   7.708 -0.8452  1.9623 -0.6697
 9274SOL     OW29560   5.251   6.309   1.391 -0.1134  0.4325 -0.0222
 9274SOL    HW129561   5.194   6.263   1.329 -0.7973  1.3946 -0.1252
 9274SOL    HW229562   5.191   6.362   1.444  0.6277  0.9585  0.3045
 9275SOL     OW29563   9.430   9.194   0.046 -0.3980 -0.0822  0.5727
 9275SOL    HW129564   9.343   9.215   0.013 -0.4244 -0.7796  0.1639
 9275SOL    HW229565   9.418   9.114   0.098 -0.1482  0.3196  1.2671
 9276SOL     OW29566   1.658   5.089   6.455 -0.2623 -0.6594 -0.0263
 9276SOL    HW129567   1.720   5.016   6.463 -0.0459 -0.7672 -2.1167
 9276SOL    HW229568   1.669   5.139   6.536  3.0901 -0.2676 -0.5703
 9277SOL     OW29569   0.597   6.802   1.503 -0.7324 -0.1508 -0.4196
 9277SOL    HW129570   0.609   6.774   1.594 -0.7377  1.5656  0.1481
 9277SOL    HW229571   0.686   6.825   1.473 -0.8182 -0.0649 -0.6124
 9278SOL     OW29572   2.212   4.700   6.545 -0.3475 -0.5424 -0.5998
 9278SOL    HW129573   2.135   4.659   6.586  0.4354 -0.9241  0.5439
 9278SOL    HW229574   2.268   4.723   6.619 -0.3526  1.8176 -1.2586
 9279SOL     OW29575   1.705   9.554   2.012 -0.1736  0.2224 -0.0761
 9279SOL    HW129576   1.771   9.485   2.015 -0.1284  0.2916  0.6442
 9279SOL    HW229577   1.694   9.572   1.918 -0.7673 -1.2930 -0.3204
 9280SOL     OW29578   4.022   3.320   0.083  0.0823 -0.3117  0.3215
 9280SOL    HW129579   3.970   3.380   0.029 -0.6967 -1.5195 -0.3201
 9280SOL    HW229580   3.958   3.271   0.134  0.6351 -1.2512  0.1414
 9281SOL     OW29581   0.153   7.478   6.331 -0.3004  0.2972 -0.1064
 9281SOL    HW129582   0.059   7.469   6.313 -0.7428 -0.6959  2.3138
 9281SOL    HW229583   0.189   7.518   6.251 -2.5113 -0.6277 -1.6736
 9282SOL     OW29584   6.170   7.871   1.208  0.6059 -0.1928 -0.3656
 9282SOL    HW129585   6.224   7.922   1.268 -1.9506  0.8866  1.2059
 9282SOL    HW229586   6.089   7.854   1.257 -0.9287 -0.7387 -2.9053
 9283SOL     OW29587   5.248   8.098   5.764 -0.0154  0.4211  0.3874
 9283SOL    HW129588   5.228   8.189   5.785 -0.6004  0.6918 -1.2184
 9283SOL    HW229589   5.275   8.099   5.672  0.0124 -1.0226  0.3462
 9284SOL     OW29590   0.776   5.723   9.292 -0.0856  0.2383 -0.3211
 9284SOL    HW129591   0.724   5.718   9.212  0.7315 -0.5250 -0.8213
 9284SOL    HW229592   0.763   5.638   9.334  1.7067 -0.4739 -1.0857
 9285SOL     OW29593   3.644   1.718   5.086 -0.0832  0.4393 -0.5653
 9285SOL    HW129594   3.630   1.714   5.180 -0.5735 -0.6251 -0.6622
 9285SOL    HW229595   3.562   1.753   5.050 -1.1931 -2.1898 -0.8221
 9286SOL     OW29596   4.808   0.133   4.586 -0.2218 -0.0962 -0.0887
 9286SOL    HW129597   4.877   0.091   4.535 -0.0955  0.7562 -0.6326
 9286SOL    HW229598   4.854   0.193   4.644 -0.4059 -0.6540  0.6549
 9287SOL     OW29599   8.426   1.366   3.510 -0.1249  0.1470  0.1499
 9287SOL    HW129600   8.490   1.420   3.555 -1.7381  1.1442  1.3737
 9287SOL    HW229601   8.374   1.428   3.458  0.7059 -0.7953 -1.9085
 9288SOL     OW29602   2.998   0.407   6.909 -0.0491  0.0173  0.7433
 9288SOL    HW129603   2.977   0.479   6.850 -0.6995 -0.8244 -0.0751
 9288SOL    HW229604   3.088   0.383   6.886 -0.9054 -1.5442 -1.2902
 9289SOL     OW29605   6.807   8.981   3.596 -0.0150  1.0685  0.4432
 9289SOL    HW129606   6.795   8.896   3.555 -1.5610  1.2726  0.4312
 9289SOL    HW229607   6.882   9.019   3.550 -0.2673  0.3464 -0.5945
 9290SOL     OW29608   5.764   4.425   5.326 -0.0508 -0.9355  0.0203
 9290SOL    HW129609   5.771   4.520   5.336 -1.5536 -0.8336  0.3294
 9290SOL    HW229610   5.840   4.400   5.272  1.3872  0.1757  1.4334
 9291SOL     OW29611   1.847   4.531   2.221 -0.0121 -0.5048 -0.4509
 9291SOL    HW129612   1.924   4.504   2.272  1.2592  1.2894 -1.3353
 9291SOL    HW229613   1.876   4.608   2.173 -1.7614 -0.9928 -2.4032
 9292SOL     OW29614   8.600   0.348   6.123 -0.1679  0.4111  0.8616
 9292SOL    HW129615   8.564   0.402   6.194 -0.8902  2.8754 -1.2627
 9292SOL    HW229616   8.670   0.401   6.085 -0.6344 -0.2671 -1.0532
 9293SOL     OW29617   5.140   7.250   5.107  0.5621 -0.2179 -0.1773
 9293SOL    HW129618   5.120   7.339   5.137  0.2369 -0.0476 -0.8858
 9293SOL    HW229619   5.057   7.203   5.111  0.4430 -0.1089 -1.0752
 9294SOL     OW29620   2.449   4.375   5.316 -0.3965  0.3544 -0.8904
 9294SOL    HW129621   2.478   4.447   5.260  0.8348  0.6785  0.1253
 9294SOL    HW229622   2.529   4.327   5.339 -0.7392  0.6055  1.0717
 9295SOL     OW29623   1.929   1.767   2.763  0.1538  0.1496 -0.8229
 9295SOL    HW129624   2.018   1.739   2.745  1.1630  2.8305 -0.4125
 9295SOL    HW229625   1.925   1.858   2.732 -1.5421  1.0737  1.7613
 9296SOL     OW29626   3.002   4.683   5.090  0.2081  0.0106  0.0041
 9296SOL    HW129627   2.991   4.747   5.160 -0.6307 -2.0586  1.9005
 9296SOL    HW229628   2.934   4.705   5.026  1.4361  2.3645 -0.5933
 9297SOL     OW29629   4.974   7.523   8.442  0.1638 -0.3131 -0.4202
 9297SOL    HW129630   5.046   7.463   8.460  0.8817  0.5302 -0.4073
 9297SOL    HW229631   5.014   7.592   8.388  0.0559  1.6178  1.8253
 9298SOL     OW29632   5.687   0.716   4.114  0.8837 -0.0650 -0.1253
 9298SOL    HW129633   5.663   0.677   4.030  1.1466  1.4865 -0.9537
 9298SOL    HW229634   5.783   0.723   4.110  0.8168  0.9334 -0.1258
 9299SOL     OW29635   4.946   9.402   4.039  0.1955 -0.7308  0.5956
 9299SOL    HW129636   4.890   9.345   3.985  0.0817 -0.2573  0.1995
 9299SOL    HW229637   5.034   9.386   4.006  0.2068 -0.9226  0.7134
 9300SOL     OW29638   9.262   2.056   8.685 -0.0979  0.1449 -0.0239
 9300SOL    HW129639   9.183   2.071   8.738 -0.5440  0.5377 -0.7792
 9300SOL    HW229640   9.284   2.142   8.650 -0.2113 -0.2139 -1.0176
 9301SOL     OW29641   1.509   2.091   5.367 -0.1089  0.6488 -0.1498
 9301SOL    HW129642   1.481   2.069   5.278  1.0876  2.2784 -0.9903
 9301SOL    HW229643   1.601   2.065   5.370  0.0233  1.1551  0.3898
 9302SOL     OW29644   1.163   7.506   2.108 -0.0802 -0.1620  0.3670
 9302SOL    HW129645   1.218   7.567   2.156  0.2898 -1.3641  1.5431
 9302SOL    HW229646   1.090   7.486   2.167 -0.1087 -0.9604  0.0857
 9303SOL     OW29647   0.838   9.429   0.544 -0.0911  0.0802  0.6624
 9303SOL    HW129648   0.821   9.357   0.605  0.6179 -0.2732  0.4521
 9303SOL    HW229649   0.753   9.445   0.503 -0.4387 -0.0914  1.2953
 9304SOL     OW29650   5.002   8.072   4.128 -0.1090  0.4704 -0.7127
 9304SOL    HW129651   5.086   8.057   4.085  0.1142 -1.0908  0.2152
 9304SOL    HW229652   4.938   8.071   4.057  0.3686 -0.9946 -1.1547
 9305SOL     OW29653   7.544   4.912   1.992 -0.0528  0.6059  0.3942
 9305SOL    HW129654   7.548   4.990   1.935 -0.9182 -1.4857 -2.8254
 9305SOL    HW229655   7.629   4.870   1.982 -0.2622  0.1417  0.5222
 9306SOL     OW29656   3.658   8.398   9.117  0.2463 -0.1139 -0.3175
 9306SOL    HW129657   3.621   8.474   9.073  0.4374 -0.7787 -1.7057
 9306SOL    HW229658   3.723   8.365   9.055  0.7688 -0.9139  0.6286
 9307SOL     OW29659   8.319   3.179   1.348 -0.0383 -0.6712 -0.3996
 9307SOL    HW129660   8.346   3.089   1.362  0.7930 -0.4495 -0.5135
 9307SOL    HW229661   8.398   3.231   1.365 -0.4994  0.0318 -0.3430
 9308SOL     OW29662   6.339   6.776   2.051  0.6503 -0.3945  0.1100
 9308SOL    HW129663   6.248   6.776   2.082  0.4811  2.4042 -0.1076
 9308SOL    HW229664   6.390   6.803   2.128  1.3625 -2.1350  0.2806
 9309SOL     OW29665   4.401   7.456   4.647  0.0342  0.1043  0.2083
 9309SOL    HW129666   4.381   7.424   4.559 -0.6621  1.4279 -0.1490
 9309SOL    HW229667   4.421   7.549   4.635 -1.8039  0.7473  1.6319
 9310SOL     OW29668   1.317   0.641   9.264  0.3120 -0.1489  0.1284
 9310SOL    HW129669   1.399   0.683   9.238  0.1978 -1.4741 -2.7621
 9310SOL    HW229670   1.249   0.692   9.220 -0.1764 -0.8101  0.0999
 9311SOL     OW29671   0.476   3.147   4.595 -0.2020  0.4358  0.4626
 9311SOL    HW129672   0.425   3.095   4.533 -0.1718 -0.6439  1.3076
 9311SOL    HW229673   0.513   3.218   4.543  0.4390 -0.8484 -0.9061
 9312SOL     OW29674   6.900   0.546   2.353  0.0898 -0.1855  0.1430
 9312SOL    HW129675   6.906   0.632   2.312  2.5781 -0.8549 -1.0764
 9312SOL    HW229676   6.891   0.484   2.280  0.7595 -1.1217  0.8229
 9313SOL     OW29677   8.970   2.337   5.924  0.3149 -0.3340  0.0436
 9313SOL    HW129678   8.962   2.423   5.883 -1.5446 -0.7972 -0.6647
 9313SOL    HW229679   9.029   2.288   5.867 -0.1644 -0.1318 -0.6345
 9314SOL     OW29680   5.447   0.900   1.545  0.7474 -0.0244 -0.0496
 9314SOL    HW129681   5.429   0.975   1.601  0.8946 -0.0145 -0.0170
 9314SOL    HW229682   5.522   0.857   1.585 -1.4596 -2.2694  2.0608
 9315SOL     OW29683   2.658   8.654   7.817 -0.0603  0.3369 -0.4356
 9315SOL    HW129684   2.649   8.602   7.897  1.6517  0.5236 -0.0886
 9315SOL    HW229685   2.590   8.721   7.825 -0.6629 -0.3385  0.3088
 9316SOL     OW29686   5.652   0.117   2.570 -0.0653 -0.1416 -0.1923
 9316SOL    HW129687   5.715   0.070   2.625  0.0483  1.4420  1.0900
 9316SOL    HW229688   5.575   0.060   2.568  0.1927 -0.5599  1.0079
 9317SOL     OW29689   0.507   7.589   3.247  0.3936 -0.3404  0.2260
 9317SOL    HW129690   0.462   7.631   3.321  1.8065  0.1335  0.8515
 9317SOL    HW229691   0.478   7.639   3.170  0.4606  0.4661  0.7121
 9318SOL     OW29692   2.167   7.982   0.451 -0.2287  0.0090 -0.1185
 9318SOL    HW129693   2.173   7.893   0.418 -0.5679 -0.3508  0.7495
 9318SOL    HW229694   2.187   8.038   0.376  0.5105 -0.8090 -0.5433
 9319SOL     OW29695   5.347   4.429   2.673  0.1770 -0.0336 -0.1854
 9319SOL    HW129696   5.393   4.346   2.659  0.2869 -0.2260  1.1749
 9319SOL    HW229697   5.387   4.489   2.610  1.7156 -0.4096  0.3904
 9320SOL     OW29698   8.888   5.942   1.801 -0.0514  0.4354 -0.6418
 9320SOL    HW129699   8.834   5.962   1.725 -0.4140  2.6808  0.1319
 9320SOL    HW229700   8.976   5.970   1.776  0.1168 -0.1280 -0.7062
 9321SOL     OW29701   6.571   3.622   8.155  0.3092 -0.3872  0.4078
 9321SOL    HW129702   6.618   3.575   8.086  1.4948 -0.1017  0.9766
 9321SOL    HW229703   6.528   3.553   8.206  0.7686 -0.7380  0.3299
 9322SOL     OW29704   4.599   4.314   4.307 -0.0333  0.0910  0.3774
 9322SOL    HW129705   4.677   4.356   4.271  0.0036  0.2400  0.6300
 9322SOL    HW229706   4.619   4.300   4.399  0.0982 -0.8289  0.2156
 9323SOL     OW29707   4.643   6.899   7.690  0.3106  0.0589  0.1608
 9323SOL    HW129708   4.611   6.867   7.774 -0.8765 -1.4272 -0.7992
 9323SOL    HW229709   4.621   6.830   7.628 -1.2327  2.1756 -1.8360
 9324SOL     OW29710   2.242   3.737   6.959 -0.1448  0.4521 -0.4798
 9324SOL    HW129711   2.148   3.749   6.973 -0.5099 -1.8498 -0.4616
 9324SOL    HW229712   2.266   3.804   6.896 -1.6064  1.6486  0.1739
 9325SOL     OW29713   4.439   7.338   3.922 -0.0547  0.0818 -0.4602
 9325SOL    HW129714   4.434   7.313   3.830 -0.2011 -1.2015 -0.1347
 9325SOL    HW229715   4.524   7.305   3.952 -0.9407 -1.5860  0.3890
 9326SOL     OW29716   6.222   9.087   6.996 -0.4088  0.7125 -0.1813
 9326SOL    HW129717   6.163   9.052   6.929 -1.3929  0.5013  0.7619
 9326SOL    HW229718   6.170   9.154   7.041  0.5931  1.5983 -0.3039
 9327SOL     OW29719   4.167   0.831   7.544  0.3257  0.3753 -0.1536
 9327SOL    HW129720   4.159   0.770   7.617  0.7384  0.1486 -0.2950
 9327SOL    HW229721   4.237   0.891   7.570 -1.8629  2.5201  1.2002
 9328SOL     OW29722   2.796   6.691   4.969  0.0033  0.2935  0.0116
 9328SOL    HW129723   2.861   6.635   4.925  0.4811  0.5004  0.4372
 9328SOL    HW229724   2.729   6.630   5.001 -0.7697  0.2138 -1.6774
 9329SOL     OW29725   4.662   1.882   7.672  0.6710 -0.3486  0.5752
 9329SOL    HW129726   4.680   1.821   7.600 -0.5233 -1.7696  1.4275
 9329SOL    HW229727   4.570   1.906   7.660  0.5455 -0.3643  1.4309
 9330SOL     OW29728   8.020   5.529   7.435 -0.0298  0.0490 -0.2499
 9330SOL    HW129729   8.035   5.612   7.390  1.4209  1.0624  1.9392
 9330SOL    HW229730   7.930   5.506   7.414 -0.4621  2.1737 -0.9247
 9331SOL     OW29731   1.371   4.671   7.316  0.1548  0.1973  0.0773
 9331SOL    HW129732   1.465   4.685   7.304  0.7355 -1.9516  1.5519
 9331SOL    HW229733   1.363   4.634   7.404 -2.0341 -0.1530 -0.2083
 9332SOL     OW29734   4.223   5.863   0.458  0.3736  0.4974  0.3253
 9332SOL    HW129735   4.236   5.771   0.480 -0.2080  0.0108 -1.2604
 9332SOL    HW229736   4.152   5.863   0.394  1.6080  1.8599 -1.1404
 9333SOL     OW29737   5.165   3.230   8.041  0.2600  0.0550 -0.4580
 9333SOL    HW129738   5.161   3.135   8.029  0.8379  0.0307 -0.4984
 9333SOL    HW229739   5.096   3.249   8.104  1.9357 -0.7757  1.7916
 9334SOL     OW29740   4.737   3.099   8.324 -0.4146 -0.1151 -0.2708
 9334SOL    HW129741   4.698   3.148   8.396  0.6993  0.2774  0.0966
 9334SOL    HW229742   4.713   3.148   8.245  0.8859  1.2002  0.1087
 9335SOL     OW29743   4.679   3.356   7.153 -0.6387 -0.3938  0.2177
 9335SOL    HW129744   4.607   3.401   7.196 -1.5772 -1.3110 -0.3557
 9335SOL    HW229745   4.737   3.425   7.122 -1.5264  0.3699  0.2430
 9336SOL     OW29746   1.341   8.671   1.636 -0.5046  0.6079  0.8264
 9336SOL    HW129747   1.360   8.580   1.613 -0.3252  0.3317  1.9694
 9336SOL    HW229748   1.322   8.714   1.553 -2.1208 -0.8239  0.4042
 9337SOL     OW29749   5.496   9.476   0.643  0.2695  0.6478  0.5566
 9337SOL    HW129750   5.562   9.437   0.700  0.0885  0.0428  0.3600
 9337SOL    HW229751   5.520   9.568   0.639  1.2343  0.4052  0.3129
 9338SOL     OW29752   8.410   1.811   5.776  0.5469 -0.2262  0.2450
 9338SOL    HW129753   8.465   1.769   5.710  1.1253 -1.6586  1.5829
 9338SOL    HW229754   8.456   1.891   5.798  0.8412 -0.2157 -0.3762
 9339SOL     OW29755   8.961   1.179   4.707 -0.1326  0.1109 -0.4256
 9339SOL    HW129756   8.871   1.205   4.688 -0.6387 -1.0496  0.2629
 9339SOL    HW229757   8.954   1.118   4.780  1.2227  0.0117 -0.3406
 9340SOL     OW29758   4.237   4.804   6.889 -0.0241 -0.4172 -0.3513
 9340SOL    HW129759   4.228   4.714   6.857 -2.1703 -0.4655  0.2824
 9340SOL    HW229760   4.250   4.856   6.810 -1.0197 -1.0353 -0.9449
 9341SOL     OW29761   0.051   5.825   5.959  0.0695 -0.5326  0.1797
 9341SOL    HW129762   0.131   5.845   6.006 -0.6665  0.7644  0.9447
 9341SOL    HW229763   0.032   5.734   5.981 -0.3354  0.0733  2.5700
 9342SOL     OW29764   3.675   4.851   6.230 -0.1048  0.3112 -0.0296
 9342SOL    HW129765   3.748   4.909   6.253 -0.5539  0.7515  0.3001
 9342SOL    HW229766   3.608   4.910   6.197 -0.0087 -0.1671 -1.1519
 9343SOL     OW29767   7.479   4.662   4.719 -0.6937 -0.4734 -0.3102
 9343SOL    HW129768   7.573   4.645   4.724 -0.7972 -0.7439  2.7667
 9343SOL    HW229769   7.442   4.580   4.686  0.0250 -0.9135 -0.0456
 9344SOL     OW29770   0.495   6.087   8.815  0.0933  0.2175 -0.1299
 9344SOL    HW129771   0.554   6.048   8.879 -1.2286  0.0369  1.0422
 9344SOL    HW229772   0.545   6.089   8.734  1.3526 -0.8100  0.5842
 9345SOL     OW29773   3.904   2.599   5.443  0.1146 -0.1320  0.4683
 9345SOL    HW129774   3.952   2.651   5.379 -0.2102  0.6335  0.8414
 9345SOL    HW229775   3.972   2.566   5.503  0.0899  2.2643  1.9549
 9346SOL     OW29776   4.792   8.040   8.800  0.5246  0.5115 -0.3942
 9346SOL    HW129777   4.834   8.126   8.793  1.2873  0.1116 -0.9623
 9346SOL    HW229778   4.817   7.995   8.719  1.5224 -0.8405  0.6195
 9347SOL     OW29779   0.948   1.885   9.501  0.0043  0.0769  0.3928
 9347SOL    HW129780   0.999   1.871   9.581  1.5867  0.0558 -0.5999
 9347SOL    HW229781   0.928   1.978   9.501  2.5534  0.7101 -0.6099
 9348SOL     OW29782   0.255   8.622   4.920  0.4480  0.1230  0.0828
 9348SOL    HW129783   0.172   8.620   4.872  0.3107  1.5839  0.2154
 9348SOL    HW229784   0.280   8.530   4.929 -1.7143 -0.4351  1.0031
 9349SOL     OW29785   5.337   1.184   4.207  0.2531 -0.5764  0.4510
 9349SOL    HW129786   5.284   1.116   4.164  3.3159 -2.3104 -0.9200
 9349SOL    HW229787   5.356   1.247   4.137  1.1843 -0.7699  0.5217
 9350SOL     OW29788   9.460   5.133   3.509 -0.0610  0.8916  0.2647
 9350SOL    HW129789   9.524   5.094   3.569  0.3983  1.5879  0.2315
 9350SOL    HW229790   9.466   5.080   3.430  1.5153  1.8180 -0.2648
 9351SOL     OW29791   6.147   0.005   2.334 -0.0760  0.1903 -0.1950
 9351SOL    HW129792   6.072   0.007   2.274 -0.3277  1.1862  0.1403
 9351SOL    HW229793   6.109   0.017   2.421  0.3806 -0.3569  0.0912
 9352SOL     OW29794   3.325   7.798   8.734  0.1092  0.1544 -0.0940
 9352SOL    HW129795   3.398   7.776   8.677  0.5036  2.4046 -0.5604
 9352SOL    HW229796   3.263   7.726   8.722  1.3349 -0.7685 -1.2758
 9353SOL     OW29797   3.861   5.842   4.574 -0.0940 -0.0183  0.8038
 9353SOL    HW129798   3.894   5.900   4.505 -0.9533 -1.1216 -0.5946
 9353SOL    HW229799   3.772   5.873   4.589  0.3939  0.8032  2.1208
 9354SOL     OW29800   8.385   0.129   8.815  0.3607 -0.1919 -0.0406
 9354SOL    HW129801   8.324   0.147   8.887 -0.8556  2.0293 -1.5052
 9354SOL    HW229802   8.470   0.160   8.847  0.1655 -0.6214  0.9553
 9355SOL     OW29803   1.695   4.047   8.531 -0.1355  0.2069 -0.5990
 9355SOL    HW129804   1.687   4.142   8.539 -1.8795 -0.0099  1.0160
 9355SOL    HW229805   1.782   4.027   8.565 -0.4241  1.1046  0.7299
 9356SOL     OW29806   2.226   3.885   8.867  0.2143  0.3046  0.5875
 9356SOL    HW129807   2.255   3.968   8.829  1.3628  0.0441  0.8460
 9356SOL    HW229808   2.234   3.822   8.796  1.7304 -0.0511  1.0223
 9357SOL     OW29809   4.338   8.814   5.237 -0.1957  0.3678  0.5646
 9357SOL    HW129810   4.404   8.757   5.197 -0.2015 -0.1205  1.2306
 9357SOL    HW229811   4.257   8.763   5.233 -0.8044  1.3961 -1.2516
 9358SOL     OW29812   6.193   3.020   6.291  0.4101  0.4902  0.0616
 9358SOL    HW129813   6.113   2.977   6.320 -0.1069  0.2619 -1.6312
 9358SOL    HW229814   6.243   3.034   6.372 -0.4818 -1.0642  0.9323
 9359SOL     OW29815   3.307   5.231   7.511  0.1527  0.5589  0.0191
 9359SOL    HW129816   3.277   5.320   7.530  0.6888  0.8485 -0.4513
 9359SOL    HW229817   3.238   5.193   7.458  1.7121  2.1713 -3.5151
 9360SOL     OW29818   0.736   8.507   7.622 -0.0283  0.3146  0.5003
 9360SOL    HW129819   0.751   8.602   7.615  1.2673  0.0410 -0.8656
 9360SOL    HW229820   0.670   8.488   7.556  0.4477  0.1141  0.0818
 9361SOL     OW29821   1.357   8.915   1.037 -0.5857 -0.0619  0.3753
 9361SOL    HW129822   1.405   8.923   1.120 -3.0545 -0.4721  1.9602
 9361SOL    HW229823   1.313   8.830   1.044 -2.1542  0.6402 -0.6012
 9362SOL     OW29824   8.110   9.182   2.416 -0.1368  0.1571 -0.5188
 9362SOL    HW129825   8.133   9.201   2.325  1.2289 -1.1875 -0.4855
 9362SOL    HW229826   8.076   9.093   2.414  1.5863 -0.5671  0.5112
 9363SOL     OW29827   7.187   8.387   5.579 -0.3041  0.1920  0.0915
 9363SOL    HW129828   7.243   8.354   5.650  1.3432 -2.2936 -2.1444
 9363SOL    HW229829   7.099   8.358   5.603  0.0407  0.2727  1.5603
 9364SOL     OW29830   9.162   0.322   7.122 -0.1436 -0.2070  0.0334
 9364SOL    HW129831   9.135   0.319   7.031  0.8080  0.1848 -0.2799
 9364SOL    HW229832   9.108   0.390   7.161  1.2984  1.5626 -0.9162
 9365SOL     OW29833   2.694   7.593   0.771  0.5475 -0.2403  0.2285
 9365SOL    HW129834   2.708   7.643   0.852  1.6825 -0.7270  0.3472
 9365SOL    HW229835   2.600   7.602   0.754  0.5278  1.0061  0.8490
 9366SOL     OW29836   1.062   8.109   3.113  0.4119  0.3669 -0.1699
 9366SOL    HW129837   1.107   8.115   3.198  0.2837 -1.7891  0.1075
 9366SOL    HW229838   0.980   8.156   3.127  0.2406 -0.2337  1.0426
 9367SOL     OW29839   1.214   3.416   5.069  0.4143 -0.2334  0.5570
 9367SOL    HW129840   1.302   3.379   5.063  0.2729 -0.5939  0.6669
 9367SOL    HW229841   1.211   3.482   4.999  1.0357  0.3464  1.0563
 9368SOL     OW29842   7.175   1.470   5.188  0.1938  0.0419 -0.0794
 9368SOL    HW129843   7.126   1.392   5.163  1.8518 -0.8176 -0.7944
 9368SOL    HW229844   7.203   1.509   5.106  0.0657  0.9565  0.2970
 9369SOL     OW29845   5.460   9.522   2.551  0.0781  0.2987 -0.1370
 9369SOL    HW129846   5.364   9.526   2.540 -0.1773 -0.1147  1.6613
 9369SOL    HW229847   5.473   9.458   2.620  1.7707 -0.6512 -1.2755
 9370SOL     OW29848   2.304   2.156   0.952 -0.1014 -0.2819  0.1825
 9370SOL    HW129849   2.273   2.216   1.020  0.0867 -0.0158  0.0327
 9370SOL    HW229850   2.362   2.095   0.998 -1.6902 -1.4910  0.6966
 9371SOL     OW29851   5.025   6.545   0.554  0.2371 -0.1724 -0.0806
 9371SOL    HW129852   4.933   6.572   0.563  0.2071 -0.6772  1.4205
 9371SOL    HW229853   5.022   6.449   0.557  0.8134 -0.1976 -0.1714
 9372SOL     OW29854   1.390   4.131   1.081 -0.2726  0.0257  0.1633
 9372SOL    HW129855   1.366   4.220   1.055  0.4137  0.3157  0.5055
 9372SOL    HW229856   1.351   4.122   1.169  0.1917  0.2193  0.3932
 9373SOL     OW29857   5.037   0.183   9.334  0.0742 -0.4564 -0.4110
 9373SOL    HW129858   5.055   0.265   9.380 -0.5391 -0.0770 -0.8267
 9373SOL    HW229859   5.050   0.204   9.242 -2.3922 -0.1266 -0.7638
 9374SOL     OW29860   7.423   3.811   5.359  0.5071  0.3275  0.2667
 9374SOL    HW129861   7.453   3.830   5.270  0.5792  0.6605  0.3625
 9374SOL    HW229862   7.486   3.746   5.392 -0.9553 -1.7701 -0.8178
 9375SOL     OW29863   2.693   9.095   6.078 -0.0222 -0.3206  0.0585
 9375SOL    HW129864   2.696   9.145   5.996  0.3608 -1.2876 -0.5321
 9375SOL    HW229865   2.780   9.056   6.086 -0.3794 -1.0673  0.3978
 9376SOL     OW29866   2.180   4.030   7.910 -0.2206 -0.4854  0.0064
 9376SOL    HW129867   2.095   4.069   7.934  0.7674  0.8362  1.5755
 9376SOL    HW229868   2.218   4.003   7.994  0.5030 -2.0175 -0.7717
 9377SOL     OW29869   5.342   5.683   6.429 -0.4110 -0.8564  0.3818
 9377SOL    HW129870   5.398   5.731   6.491  0.0608 -1.2406  0.2550
 9377SOL    HW229871   5.283   5.750   6.394  0.0848 -0.4093  0.3847
 9378SOL     OW29872   5.328   9.227   4.616  0.1099 -0.3874 -0.0753
 9378SOL    HW129873   5.322   9.169   4.540  0.6176 -0.8007  0.1954
 9378SOL    HW229874   5.350   9.169   4.689 -1.4206 -0.1691  0.6103
 9379SOL     OW29875   1.383   8.451   2.582 -0.4521 -0.6126 -0.6217
 9379SOL    HW129876   1.371   8.388   2.510  1.8435  1.0565 -2.6317
 9379SOL    HW229877   1.359   8.535   2.544  0.3495  0.2558  0.7364
 9380SOL     OW29878   9.396   9.504   9.088 -0.1197  0.1177 -0.5755
 9380SOL    HW129879   9.465   9.521   9.024 -0.3635  2.0931 -0.3719
 9380SOL    HW229880   9.417   9.561   9.162 -1.0044 -0.5700  0.2422
 9381SOL     OW29881   7.810   2.305   4.489  0.3376  0.2460  0.1490
 9381SOL    HW129882   7.768   2.278   4.570  3.6760 -0.8747  1.6682
 9381SOL    HW229883   7.824   2.224   4.441  0.4730  0.6323 -0.4800
 9382SOL     OW29884   6.452   7.066   5.455 -1.0889 -0.1795  0.2575
 9382SOL    HW129885   6.512   7.021   5.396 -0.1593  1.5578 -0.1945
 9382SOL    HW229886   6.431   7.001   5.522  1.0448 -0.9683  0.2519
 9383SOL     OW29887   9.135   3.089   8.164  0.3117 -0.0938 -0.4614
 9383SOL    HW129888   9.080   3.167   8.169  0.9201  0.3558 -0.6886
 9383SOL    HW229889   9.224   3.123   8.155  0.6094 -0.8145 -0.2612
 9384SOL     OW29890   6.569   0.687   5.515  0.1334  0.1618 -0.4935
 9384SOL    HW129891   6.565   0.758   5.579  1.6989 -1.0728  1.0860
 9384SOL    HW229892   6.490   0.635   5.531  0.1991  0.2141  0.0149
 9385SOL     OW29893   3.517   6.773   0.034  0.2098 -0.3793  0.9359
 9385SOL    HW129894   3.428   6.759   0.066  0.6208 -0.5351  2.0388
 9385SOL    HW229895   3.510   6.853  -0.018  0.0591  1.7302  3.9076
 9386SOL     OW29896   8.771   5.219   3.273  0.0673  0.0345  0.2185
 9386SOL    HW129897   8.866   5.214   3.279  0.1434  1.3754  0.5515
 9386SOL    HW229898   8.745   5.264   3.353 -0.4938  2.9455 -1.4534
 9387SOL     OW29899   0.225   3.586   2.179 -0.2250 -0.6004  0.2136
 9387SOL    HW129900   0.137   3.587   2.142 -0.0895  0.4248 -0.1044
 9387SOL    HW229901   0.283   3.578   2.104 -0.0180 -0.4228  0.3506
 9388SOL     OW29902   6.737   5.995   5.612 -0.0461 -0.5569  0.1025
 9388SOL    HW129903   6.739   6.034   5.699  0.7397  1.0100 -0.5772
 9388SOL    HW229904   6.822   5.950   5.604 -0.1348 -0.7352  0.1510
 9389SOL     OW29905   4.927   9.016   4.510 -0.3386 -0.1052  0.1433
 9389SOL    HW129906   4.843   8.970   4.520 -0.5558  0.4028  0.6939
 9389SOL    HW229907   4.963   8.982   4.427 -1.1446 -0.2298 -0.1662
 9390SOL     OW29908   0.699   2.728   7.938  0.4602 -0.1313  0.0934
 9390SOL    HW129909   0.620   2.693   7.896  0.5771  1.1857 -1.3126
 9390SOL    HW229910   0.674   2.742   8.029  0.4528 -3.9189  0.8251
 9391SOL     OW29911   3.841   5.728   6.709 -0.4342  0.3225 -0.4973
 9391SOL    HW129912   3.892   5.663   6.660 -1.0515 -0.3190 -0.3208
 9391SOL    HW229913   3.814   5.792   6.643  1.1169  1.0344 -0.4779
 9392SOL     OW29914   7.527   3.317   6.736 -0.0164 -0.2264 -0.1041
 9392SOL    HW129915   7.438   3.351   6.745 -0.6937 -1.8838 -0.1417
 9392SOL    HW229916   7.564   3.324   6.825 -0.2663  0.1971 -0.0285
 9393SOL     OW29917   8.166   7.312   7.804 -0.2772  0.4269 -0.3364
 9393SOL    HW129918   8.110   7.383   7.834  0.3040  0.5476  0.4993
 9393SOL    HW229919   8.111   7.260   7.745 -0.8078  1.3707 -0.6901
 9394SOL     OW29920   2.634   6.930   9.360 -0.0895 -0.4500  0.0712
 9394SOL    HW129921   2.650   7.024   9.366  0.9661 -0.7166  2.3312
 9394SOL    HW229922   2.624   6.913   9.266 -1.8255  2.1122 -0.2903
 9395SOL     OW29923   0.494   7.590   1.362  0.0915  0.0407  0.0470
 9395SOL    HW129924   0.522   7.585   1.453 -0.9228  0.1508  0.3808
 9395SOL    HW229925   0.508   7.502   1.328  1.5438  0.2806 -0.0376
 9396SOL     OW29926   5.854   5.450   2.885 -0.6167 -0.3752 -0.2957
 9396SOL    HW129927   5.797   5.377   2.860 -0.3192 -0.8313  0.3546
 9396SOL    HW229928   5.867   5.498   2.803  2.4972 -3.2830 -1.7749
 9397SOL     OW29929   4.938   2.643   6.406 -0.4046 -0.7957  0.1500
 9397SOL    HW129930   4.939   2.682   6.493  0.7784  0.9896 -0.5832
 9397SOL    HW229931   5.011   2.582   6.406  0.9926  0.7893 -0.1803
 9398SOL     OW29932   4.166   6.310   9.574 -0.1648  0.2083  0.3108
 9398SOL    HW129933   4.109   6.314   9.498 -0.6192 -0.8093  0.5790
 9398SOL    HW229934   4.106   6.301   9.648  0.3315 -0.7746  0.6052
 9399SOL     OW29935   5.991   8.314   4.615  0.1311  0.3288  0.1879
 9399SOL    HW129936   6.050   8.240   4.618 -0.9407 -0.5335  0.8101
 9399SOL    HW229937   6.031   8.374   4.552  0.7906 -0.9703 -0.6802
 9400SOL     OW29938   8.934   7.456   2.111 -0.2362  0.1807 -0.2257
 9400SOL    HW129939   8.842   7.429   2.111  0.3722 -2.3564  2.3941
 9400SOL    HW229940   8.950   7.485   2.201  1.1233  2.4254 -1.1196
 9401SOL     OW29941   2.499   0.139   6.607 -0.0694  0.1542  0.4919
 9401SOL    HW129942   2.544   0.055   6.618 -0.1725  0.0735  0.3080
 9401SOL    HW229943   2.561   0.204   6.639  0.1759  0.0417  0.2505
 9402SOL     OW29944   2.048   0.952   1.287  0.0738 -0.1763 -0.0688
 9402SOL    HW129945   2.140   0.976   1.281  0.1318  0.3521  2.0352
 9402SOL    HW229946   2.045   0.858   1.268  1.4158 -0.7354  2.2046
 9403SOL     OW29947   9.284   4.176   6.515 -0.1604 -0.4079  0.2480
 9403SOL    HW129948   9.335   4.096   6.531 -1.3106 -1.4081 -0.8123
 9403SOL    HW229949   9.208   4.145   6.466 -0.2637  1.4634 -0.8339
 9404SOL     OW29950   7.410   4.539   8.154  0.1307 -0.3255  0.1125
 9404SOL    HW129951   7.488   4.488   8.133  1.5888  1.7955  0.0391
 9404SOL    HW229952   7.346   4.474   8.184  1.2628 -2.3486 -1.5745
 9405SOL     OW29953   9.349   7.343   1.619  0.2205  0.3063 -0.3099
 9405SOL    HW129954   9.303   7.418   1.583  1.2344  0.6394 -0.9551
 9405SOL    HW229955   9.395   7.376   1.696 -0.5466 -0.0114  0.2978
 9406SOL     OW29956   4.070   2.126   0.423  0.4174 -0.1204 -0.2590
 9406SOL    HW129957   3.986   2.165   0.448 -0.2215 -1.6100  0.0212
 9406SOL    HW229958   4.122   2.129   0.504 -0.6652 -2.4071  0.6097
 9407SOL     OW29959   1.148   6.379   1.997  0.4386  0.5562 -0.5603
 9407SOL    HW129960   1.195   6.361   2.078  0.5781  0.0916 -0.7445
 9407SOL    HW229961   1.211   6.361   1.927  0.0753  0.2011 -0.7997
 9408SOL     OW29962   0.281   1.458   4.052  0.1972  0.0905  0.2948
 9408SOL    HW129963   0.347   1.528   4.052  1.1549 -0.7888  0.7923
 9408SOL    HW229964   0.233   1.470   3.970  1.6077  0.1691 -0.5534
 9409SOL     OW29965   7.935   6.598   4.662  0.1496 -0.7554 -0.2562
 9409SOL    HW129966   7.897   6.684   4.680  0.4051 -0.4682 -1.0289
 9409SOL    HW229967   7.987   6.578   4.740 -0.2167 -0.3776  0.0882
 9410SOL     OW29968   9.407   0.772   4.535  0.0697 -0.0481  0.0133
 9410SOL    HW129969   9.343   0.746   4.469 -0.3063  1.2251 -0.1631
 9410SOL    HW229970   9.385   0.719   4.611  1.2970 -2.4711 -1.1982
 9411SOL     OW29971   3.908   0.420   6.956 -0.2382 -0.8071 -0.3443
 9411SOL    HW129972   3.812   0.414   6.958 -0.2538 -0.3626  0.7399
 9411SOL    HW229973   3.926   0.505   6.916 -0.3150 -0.5883  0.0803
 9412SOL     OW29974   1.767   0.480   4.111 -0.0741  0.1364 -0.2859
 9412SOL    HW129975   1.680   0.472   4.072 -0.1802  0.4426 -0.1064
 9412SOL    HW229976   1.826   0.442   4.045 -0.5139 -1.7093  0.3162
 9413SOL     OW29977   8.124   7.969   2.774  0.2936  0.1203  0.1526
 9413SOL    HW129978   8.179   8.018   2.835  0.2710 -0.3518  0.5617
 9413SOL    HW229979   8.167   7.884   2.767  0.2222  0.1229 -0.3947
 9414SOL     OW29980   9.361   3.592   7.125 -0.2469 -0.7023 -0.0134
 9414SOL    HW129981   9.311   3.580   7.206 -1.1151  4.1339  0.4990
 9414SOL    HW229982   9.298   3.576   7.055 -1.6062  1.7395  0.5527
 9415SOL     OW29983   2.948   0.854   6.997  0.1400  0.2261 -0.2184
 9415SOL    HW129984   2.951   0.775   7.050 -0.1337  0.9380  0.8814
 9415SOL    HW229985   2.986   0.828   6.913  1.5585 -0.6652  0.6540
 9416SOL     OW29986   2.620   4.819   2.053 -0.3815 -0.0223 -0.1001
 9416SOL    HW129987   2.647   4.750   2.114 -1.3879 -0.6433 -0.3219
 9416SOL    HW229988   2.525   4.820   2.059 -0.3563  3.1547  1.8208
 9417SOL     OW29989   8.209   1.786   2.412  0.5828  0.2336  0.4572
 9417SOL    HW129990   8.267   1.723   2.454 -1.2274 -1.4844  0.4788
 9417SOL    HW229991   8.233   1.783   2.320 -0.9920 -2.2718  0.0622
 9418SOL     OW29992   4.072   3.293   6.336  0.5834 -0.1745  0.3326
 9418SOL    HW129993   4.080   3.247   6.252 -0.5556  0.1298  0.0385
 9418SOL    HW229994   3.990   3.262   6.373 -0.7743  2.3054 -0.3402
 9419SOL     OW29995   0.518   1.267   2.429  0.2740 -0.5239 -0.0115
 9419SOL    HW129996   0.578   1.213   2.481  0.3609  1.1563  1.7753
 9419SOL    HW229997   0.569   1.346   2.409 -0.4303 -0.2989 -0.9634
 9420SOL     OW29998   1.408   5.751   6.301  0.2560  0.4763  0.0835
 9420SOL    HW129999   1.473   5.813   6.332 -1.0342  0.8098  2.3635
 9420SOL    HW230000   1.360   5.798   6.233  1.6443  0.5981 -0.8536
 9421SOL     OW30001   5.803   4.964   5.834 -1.3091  0.2811  0.1622
 9421SOL    HW130002   5.806   5.053   5.798 -1.8576  0.8031  1.3214
 9421SOL    HW230003   5.711   4.938   5.824 -1.0338 -0.3810 -0.6729
 9422SOL     OW30004   8.107   1.195   3.690  0.4791  0.1875  0.0136
 9422SOL    HW130005   8.138   1.115   3.734  1.0671  0.2405 -0.2981
 9422SOL    HW230006   8.113   1.174   3.597 -1.1982 -0.0869 -0.0494
 9423SOL     OW30007   9.205   6.513   2.701  0.0193 -0.1458  0.1218
 9423SOL    HW130008   9.117   6.494   2.736 -0.4001 -0.6269 -1.1226
 9423SOL    HW230009   9.265   6.480   2.768 -0.7534 -1.2610  0.3060
 9424SOL     OW30010   2.145   2.873   1.230  0.6510 -0.4888  0.3777
 9424SOL    HW130011   2.189   2.946   1.186 -0.3074  1.2045  2.1113
 9424SOL    HW230012   2.097   2.913   1.303 -0.0827 -2.8316  1.2851
 9425SOL     OW30013   3.433   0.825   2.957 -0.1326  0.2667 -0.1502
 9425SOL    HW130014   3.404   0.788   3.040  0.4314  1.6437  0.6836
 9425SOL    HW230015   3.526   0.841   2.969  0.3606 -1.0940 -1.6710
 9426SOL     OW30016   1.742   2.014   1.906  0.2151 -0.0496  0.0477
 9426SOL    HW130017   1.659   2.013   1.859  1.7223  0.8152 -2.8835
 9426SOL    HW230018   1.734   1.944   1.971 -2.0536 -1.3457 -1.5130
 9427SOL     OW30019   8.056   8.566   8.211  0.0135  0.3885  0.4341
 9427SOL    HW130020   7.994   8.541   8.280  1.3781 -0.4218  1.4077
 9427SOL    HW230021   8.118   8.493   8.207  0.4155  0.7835 -1.1324
 9428SOL     OW30022   4.147   5.336   2.689  0.2918 -0.2665  0.0001
 9428SOL    HW130023   4.125   5.244   2.676  0.8162 -0.4018  0.0167
 9428SOL    HW230024   4.080   5.369   2.748 -0.3772 -0.4227 -0.6609
 9429SOL     OW30025   4.346   8.291   2.579 -0.1384  0.1646  0.3991
 9429SOL    HW130026   4.432   8.304   2.539 -0.0432 -0.8760  0.2429
 9429SOL    HW230027   4.341   8.198   2.597 -1.6723 -0.0043 -0.6229
 9430SOL     OW30028   6.549   5.899   3.823  0.5101 -0.2646  0.3214
 9430SOL    HW130029   6.633   5.895   3.777 -0.3434  0.4869 -1.4161
 9430SOL    HW230030   6.513   5.985   3.801 -1.8824 -1.5267 -1.2815
 9431SOL     OW30031   1.570   4.136   9.328  0.5605  0.1737 -0.1201
 9431SOL    HW130032   1.608   4.187   9.257 -0.5032  0.2416 -0.6686
 9431SOL    HW230033   1.502   4.193   9.365  0.4918 -0.2099  0.3589
 9432SOL     OW30034   0.045   5.601   8.074 -0.4340 -0.1123  0.0280
 9432SOL    HW130035  -0.044   5.635   8.086 -1.2688 -2.8130  2.5435
 9432SOL    HW230036   0.033   5.519   8.026  0.5617 -1.0004  1.2545
 9433SOL     OW30037   6.093   8.010   0.436  0.0182 -0.2955  0.6720
 9433SOL    HW130038   6.112   8.061   0.515 -0.3203  2.3769 -0.8787
 9433SOL    HW230039   6.179   7.999   0.394 -0.0314 -0.2880  0.5702
 9434SOL     OW30040   6.791   5.026   3.917 -0.0667 -0.1964 -0.6275
 9434SOL    HW130041   6.762   5.036   3.826 -0.6036  0.6582 -0.3697
 9434SOL    HW230042   6.887   5.035   3.913 -0.1201  0.1833 -1.0611
 9435SOL     OW30043   3.033   7.502   4.804 -0.2345 -0.1002 -0.4003
 9435SOL    HW130044   2.951   7.464   4.770  0.0654 -1.6912  0.5401
 9435SOL    HW230045   3.087   7.515   4.726 -0.7446 -0.6515 -0.8621
 9436SOL     OW30046   8.165   2.374   7.848  0.6687  0.2855  0.6958
 9436SOL    HW130047   8.090   2.418   7.888  0.3162  1.2262 -0.9162
 9436SOL    HW230048   8.183   2.300   7.905 -1.6456 -0.1103  0.9817
 9437SOL     OW30049   8.076   9.493   4.368  0.1895  0.5894  0.8123
 9437SOL    HW130050   8.170   9.509   4.358  0.0823  0.8006  0.0635
 9437SOL    HW230051   8.035   9.578   4.351 -0.1873  0.2833  0.1128
 9438SOL     OW30052   7.057   1.251   6.124 -0.0055 -0.3032  0.2733
 9438SOL    HW130053   7.027   1.241   6.034  0.4112  1.0005 -0.0320
 9438SOL    HW230054   7.016   1.179   6.171 -3.0811  0.9514 -0.2660
 9439SOL     OW30055   7.178   4.405   1.267  0.6276  0.2348 -0.1635
 9439SOL    HW130056   7.107   4.343   1.252 -0.8265  1.6363  0.7407
 9439SOL    HW230057   7.229   4.366   1.338  0.8677 -0.8271 -0.8846
 9440SOL     OW30058   3.689   7.623   6.732 -0.2327  0.5580 -0.0078
 9440SOL    HW130059   3.710   7.628   6.639  1.2505 -1.5967  0.1289
 9440SOL    HW230060   3.697   7.530   6.753 -0.7541  0.9641  2.2286
 9441SOL     OW30061   4.579   6.372   4.859 -0.1488  0.9619  0.1092
 9441SOL    HW130062   4.521   6.356   4.933  0.6735 -0.5585  0.4674
 9441SOL    HW230063   4.647   6.429   4.894  0.0662  0.5022  0.4602
 9442SOL     OW30064   0.669   7.417   7.715  0.6152  0.1998  0.1081
 9442SOL    HW130065   0.747   7.410   7.771  0.9970  0.5715 -0.3695
 9442SOL    HW230066   0.662   7.331   7.674 -0.3690 -0.4823  1.6212
 9443SOL     OW30067   1.342   5.748   2.395  0.1899 -0.1595  0.2708
 9443SOL    HW130068   1.367   5.674   2.339 -1.2404 -2.4584  2.4373
 9443SOL    HW230069   1.406   5.746   2.466  0.7066  1.3516 -0.1187
 9444SOL     OW30070   4.303   2.982   6.796 -0.0188  0.1305 -0.3422
 9444SOL    HW130071   4.395   2.957   6.807 -0.2017 -0.4063 -0.0392
 9444SOL    HW230072   4.293   3.060   6.851 -0.1464 -0.7445  0.9070
 9445SOL     OW30073   4.953   2.411   8.718  0.2327 -0.1450  0.0718
 9445SOL    HW130074   4.897   2.477   8.758  0.2789 -0.5261  0.7885
 9445SOL    HW230075   5.040   2.451   8.718  0.0429  0.2873 -0.6726
 9446SOL     OW30076   7.085   6.482   9.145  0.4534  0.3509  0.1240
 9446SOL    HW130077   7.164   6.430   9.155  0.5691  0.5253  0.1381
 9446SOL    HW230078   7.016   6.431   9.188 -0.2882 -1.6552 -3.1117
 9447SOL     OW30079   6.561   4.809   0.083  0.2207 -0.2709 -0.4373
 9447SOL    HW130080   6.649   4.772   0.090  0.7214  0.3541 -2.6474
 9447SOL    HW230081   6.549   4.826  -0.010 -0.9309  2.8358  0.1660
 9448SOL     OW30082   1.506   5.265   5.662  0.2542  0.0038  0.6778
 9448SOL    HW130083   1.528   5.289   5.752  0.7780 -0.7101  0.7392
 9448SOL    HW230084   1.565   5.318   5.608 -1.9214  2.5994  0.5951
 9449SOL     OW30085   8.650   6.547   0.976 -0.6007  0.5472  0.1949
 9449SOL    HW130086   8.619   6.628   0.935  1.0217  1.5274  0.8477
 9449SOL    HW230087   8.631   6.558   1.069  0.0320  0.3680  0.3475
 9450SOL     OW30088   5.476   4.662   6.968  0.3915  0.0080  0.4302
 9450SOL    HW130089   5.436   4.684   6.884  1.2495 -0.7845 -0.2007
 9450SOL    HW230090   5.433   4.581   6.995  1.1474 -0.5427  0.0212
 9451SOL     OW30091   0.011   1.304   1.972  0.1464  0.4004 -0.6326
 9451SOL    HW130092   0.029   1.233   1.910 -0.4230  0.2946 -0.6757
 9451SOL    HW230093   0.001   1.382   1.918  0.6188  0.4883 -0.5968
 9452SOL     OW30094   7.929   2.348   8.244  0.4112 -0.3997 -0.0760
 9452SOL    HW130095   7.999   2.283   8.238  1.8126  1.0715 -0.0095
 9452SOL    HW230096   7.972   2.429   8.267 -1.4082  0.4309  0.6041
 9453SOL     OW30097   5.592   6.554   2.311  0.2645  0.2258 -0.1869
 9453SOL    HW130098   5.664   6.525   2.367 -0.1389 -0.4450 -0.0126
 9453SOL    HW230099   5.517   6.561   2.369 -0.4336 -1.5394 -0.8024
 9454SOL     OW30100   5.566   0.823   6.947  0.0513  0.0231 -0.0207
 9454SOL    HW130101   5.524   0.873   6.877 -1.0228 -0.7915  0.0039
 9454SOL    HW230102   5.572   0.734   6.912  3.2737  0.3656 -0.6533
 9455SOL     OW30103   9.473   3.042   5.254  0.1089 -0.6510  0.1863
 9455SOL    HW130104   9.543   2.978   5.240  0.3493 -0.4668  0.5380
 9455SOL    HW230105   9.508   3.124   5.220 -0.2147 -0.7119 -0.2983
 9456SOL     OW30106   0.676   5.693   0.004 -0.0838 -0.0847  0.2510
 9456SOL    HW130107   0.714   5.613  -0.032 -0.0735 -0.2637  0.6539
 9456SOL    HW230108   0.581   5.678   0.003 -0.0165 -0.7695  1.8399
 9457SOL     OW30109   2.679   3.610   6.563  0.8869 -0.7236  0.0398
 9457SOL    HW130110   2.651   3.682   6.619  0.1172  0.5453 -1.8352
 9457SOL    HW230111   2.691   3.536   6.622 -3.8008 -0.6716  1.5137
 9458SOL     OW30112   8.720   7.231   4.251 -0.3025 -0.4153  0.1875
 9458SOL    HW130113   8.722   7.149   4.201  0.4596 -0.1220 -0.2834
 9458SOL    HW230114   8.780   7.216   4.324 -0.6547 -0.4965  0.4622
 9459SOL     OW30115   1.550   5.511   9.249  0.7016 -0.7670  0.1204
 9459SOL    HW130116   1.592   5.441   9.199 -1.3200 -2.3477  0.5203
 9459SOL    HW230117   1.549   5.478   9.339 -0.2254 -0.1930  0.3249
 9460SOL     OW30118   0.075   6.572   0.593 -0.3586 -0.4138 -0.2978
 9460SOL    HW130119   0.000   6.542   0.644 -1.1840  0.6937 -0.8034
 9460SOL    HW230120   0.118   6.637   0.648 -0.1158 -0.6111 -0.2511
 9461SOL     OW30121   8.271   8.381   3.820  0.4455 -0.2101 -0.2197
 9461SOL    HW130122   8.298   8.464   3.859  0.0308  0.9471 -2.2538
 9461SOL    HW230123   8.198   8.352   3.874 -0.4978  1.6319 -0.4038
 9462SOL     OW30124   6.249   3.897   8.499 -0.5631 -0.4251 -0.4220
 9462SOL    HW130125   6.168   3.850   8.519 -0.8739 -0.2523 -1.2093
 9462SOL    HW230126   6.283   3.925   8.584 -0.2505 -2.2469  0.0963
 9463SOL     OW30127   7.647   1.038   2.578  0.0954  0.4956  0.6236
 9463SOL    HW130128   7.622   1.083   2.497 -2.3130  0.0436  1.0308
 9463SOL    HW230129   7.578   0.973   2.591  1.9166 -1.3608  1.5963
 9464SOL     OW30130   4.684   8.737   0.511 -0.2942 -0.1698 -0.2082
 9464SOL    HW130131   4.649   8.706   0.594 -0.0204  1.0808  0.3959
 9464SOL    HW230132   4.764   8.686   0.498 -0.1085 -0.0765  0.5153
 9465SOL     OW30133   0.719   8.698   2.345  0.5799 -0.1526  0.0502
 9465SOL    HW130134   0.755   8.672   2.430 -0.3806 -0.0336  0.5089
 9465SOL    HW230135   0.774   8.654   2.281  2.6293  1.3862  0.6561
 9466SOL     OW30136   8.933   0.180   1.572 -0.0510  0.4381  0.3833
 9466SOL    HW130137   8.904   0.219   1.655  1.0236  0.6758  0.6696
 9466SOL    HW230138   9.013   0.228   1.550  0.8252 -1.0084  0.2817
 9467SOL     OW30139   1.454   9.083   1.299  0.2206 -0.2730  0.1159
 9467SOL    HW130140   1.532   9.132   1.271 -1.4466  3.5015  1.4102
 9467SOL    HW230141   1.380   9.131   1.261 -1.6438 -1.6482  1.7591
 9468SOL     OW30142   5.495   7.585   4.378  0.1791  0.0849 -0.1107
 9468SOL    HW130143   5.488   7.585   4.473 -1.1803  1.1948 -0.1886
 9468SOL    HW230144   5.529   7.498   4.357  0.4116 -0.2061  1.3731
 9469SOL     OW30145   2.286   3.611   7.784  0.3615 -0.3402  0.2905
 9469SOL    HW130146   2.266   3.524   7.750  0.0577 -0.2213  0.1579
 9469SOL    HW230147   2.221   3.668   7.743 -1.5253 -0.5203  2.8370
 9470SOL     OW30148   2.392   2.865   8.568 -0.3946  0.7987 -0.2114
 9470SOL    HW130149   2.358   2.789   8.521 -0.4774  0.3775  0.5208
 9470SOL    HW230150   2.353   2.860   8.655  0.3847  1.1124  0.1732
 9471SOL     OW30151   5.556   6.095   7.458 -0.5602 -0.2780  0.6771
 9471SOL    HW130152   5.605   6.046   7.393 -1.3822  1.3713 -1.2911
 9471SOL    HW230153   5.583   6.058   7.542  1.6456 -1.4932 -0.4993
 9472SOL     OW30154   4.932   4.900   4.860  0.0056 -0.4408  0.3719
 9472SOL    HW130155   4.938   4.995   4.873  0.0602 -0.6183  1.7977
 9472SOL    HW230156   4.896   4.891   4.772 -1.2172  0.9320  0.6742
 9473SOL     OW30157   5.967   7.481   2.514 -0.0828  0.1239 -0.0993
 9473SOL    HW130158   5.960   7.390   2.545 -1.4201  0.0679 -0.5065
 9473SOL    HW230159   5.898   7.528   2.561 -2.3760 -0.0126 -3.0538
 9474SOL     OW30160   8.185   0.187   8.997  0.1673 -0.3974  0.0116
 9474SOL    HW130161   8.151   0.101   8.975  1.6104 -1.1150  0.4822
 9474SOL    HW230162   8.108   0.244   8.996 -0.7587 -1.6170 -0.6074
 9475SOL     OW30163   5.189   2.383   3.361 -0.1373  0.0004 -0.0752
 9475SOL    HW130164   5.214   2.362   3.271 -0.8413  1.8765 -0.7650
 9475SOL    HW230165   5.269   2.415   3.402  0.2684 -1.2045  0.1063
 9476SOL     OW30166   0.872   2.429   6.252  0.4438  0.9820 -0.0777
 9476SOL    HW130167   0.967   2.440   6.247  0.5026  0.9301  0.8496
 9476SOL    HW230168   0.842   2.503   6.304  0.1642  0.1403  0.9819
 9477SOL     OW30169   3.272   9.179   2.588  0.0956  0.3194  0.0533
 9477SOL    HW130170   3.325   9.125   2.647  0.0225  0.3472  0.1442
 9477SOL    HW230171   3.205   9.119   2.555 -0.3521  0.4960  0.6162
 9478SOL     OW30172   3.633   3.996   2.332 -0.1521  0.1103 -0.2981
 9478SOL    HW130173   3.630   3.990   2.428  1.0503 -0.0390 -0.2551
 9478SOL    HW230174   3.650   4.088   2.314  0.3886  0.0058 -0.3367
 9479SOL     OW30175   5.145   0.292   7.678  0.1680  0.6915 -0.5289
 9479SOL    HW130176   5.152   0.386   7.664 -0.1149  1.1210  1.8846
 9479SOL    HW230177   5.105   0.259   7.597 -0.1079  2.6744 -1.2617
 9480SOL     OW30178   2.063   4.320   7.970 -0.1665 -0.6395 -0.3757
 9480SOL    HW130179   2.078   4.409   8.002 -0.9535 -0.1837 -1.2305
 9480SOL    HW230180   1.985   4.290   8.018 -0.8947 -0.2360 -1.2761
 9481SOL     OW30181   5.269   5.137   7.448  0.1172  0.1392 -0.1380
 9481SOL    HW130182   5.326   5.166   7.519  1.0150 -1.7822 -0.0316
 9481SOL    HW230183   5.186   5.117   7.491 -0.4891  2.2432 -0.1909
 9482SOL     OW30184   3.803   8.312   0.087  0.0405 -0.3719  0.0024
 9482SOL    HW130185   3.821   8.324   0.180  1.9188  1.4787 -0.5112
 9482SOL    HW230186   3.864   8.244   0.059 -0.5949 -1.0014  0.1203
 9483SOL     OW30187   0.768   7.987   0.638  0.7375 -0.1808 -0.1030
 9483SOL    HW130188   0.680   8.018   0.617  1.0243 -0.1058 -1.2764
 9483SOL    HW230189   0.755   7.898   0.671  0.0147  0.7259  2.2282
 9484SOL     OW30190   7.178   9.201   9.407  0.5985 -0.4516 -0.4683
 9484SOL    HW130191   7.124   9.169   9.335  0.3459  0.9295 -0.9119
 9484SOL    HW230192   7.154   9.145   9.481 -0.5644 -0.6313 -0.9588
 9485SOL     OW30193   1.515   9.557   0.450  0.1313 -0.6678  0.1856
 9485SOL    HW130194   1.591   9.547   0.393 -0.8314  0.3139 -1.3358
 9485SOL    HW230195   1.447   9.504   0.408 -1.2747  1.8574 -0.9398
 9486SOL     OW30196   3.011   2.199   7.515  0.0433  0.0065  0.4627
 9486SOL    HW130197   3.081   2.169   7.574 -1.0428 -2.3892  0.6424
 9486SOL    HW230198   3.053   2.204   7.429  0.7040 -0.4100  0.7477
 9487SOL     OW30199   3.738   3.512   7.809  0.3788  0.1509  0.5033
 9487SOL    HW130200   3.675   3.561   7.757  1.5614  1.3676  0.1518
 9487SOL    HW230201   3.724   3.421   7.785 -0.1586  0.5525 -0.7600
 9488SOL     OW30202   2.940   1.125   1.023 -0.5329 -0.9330  0.5613
 9488SOL    HW130203   2.914   1.118   0.931  0.1620 -0.2319  0.3043
 9488SOL    HW230204   2.976   1.038   1.044  0.7154 -0.6511 -0.2875
 9489SOL     OW30205   2.050   2.298   4.042  0.2098 -0.2724 -0.2343
 9489SOL    HW130206   2.096   2.288   3.959 -0.4488 -2.4035 -0.3949
 9489SOL    HW230207   2.108   2.259   4.108 -0.5988 -1.4879 -0.2007
 9490SOL     OW30208   2.655   5.210   4.723 -0.6537 -0.0511  0.0580
 9490SOL    HW130209   2.722   5.171   4.779  0.5990 -0.1886 -1.4484
 9490SOL    HW230210   2.703   5.269   4.665 -1.7407 -0.5344 -1.4152
 9491SOL     OW30211   8.555   5.106   5.903  0.2626  0.0483 -0.4808
 9491SOL    HW130212   8.534   5.024   5.857  0.8807  0.3778 -1.3855
 9491SOL    HW230213   8.470   5.141   5.929 -0.0532 -0.5379 -0.6918
 9492SOL     OW30214   2.309   0.820   0.550 -0.9789  0.4161  0.3997
 9492SOL    HW130215   2.260   0.767   0.613  0.2913  0.9467  1.8999
 9492SOL    HW230216   2.268   0.907   0.555 -0.9586  0.4259  0.3955
 9493SOL     OW30217   1.202   1.198   6.264  0.3862  0.1799 -0.2693
 9493SOL    HW130218   1.262   1.245   6.206 -0.5144  1.6653 -0.0269
 9493SOL    HW230219   1.118   1.241   6.253 -0.1569 -0.4995  0.9846
 9494SOL     OW30220   4.578   5.036   7.644 -0.3355 -0.3777  0.1855
 9494SOL    HW130221   4.497   5.051   7.597  0.2251  0.6587 -0.4802
 9494SOL    HW230222   4.593   5.117   7.692  0.8096 -0.1707 -0.4893
 9495SOL     OW30223   3.342   2.242   0.256  0.4535 -0.1048  0.5549
 9495SOL    HW130224   3.431   2.269   0.236  0.2658  1.1162  1.2835
 9495SOL    HW230225   3.335   2.249   0.351 -0.9472  1.5936  0.3721
 9496SOL     OW30226   4.098   6.427   6.931  0.1397  0.3329 -0.0150
 9496SOL    HW130227   4.040   6.503   6.936  1.0819  1.0193  1.1108
 9496SOL    HW230228   4.163   6.451   6.865 -0.4043 -0.1268 -0.7333
 9497SOL     OW30229   2.850   8.800   5.855 -0.5416 -0.3378  0.0394
 9497SOL    HW130230   2.871   8.837   5.940 -1.0246  0.2075 -0.0746
 9497SOL    HW230231   2.777   8.853   5.823  0.0420 -0.1162 -0.9851
 9498SOL     OW30232   1.097   7.556   4.917 -0.0535  0.4068 -0.1110
 9498SOL    HW130233   1.179   7.508   4.921 -0.2469  0.1447  0.7551
 9498SOL    HW230234   1.033   7.492   4.887 -0.0755  0.4445 -0.1449
 9499SOL     OW30235   6.840   1.123   7.166 -0.3368  0.5470 -0.0097
 9499SOL    HW130236   6.782   1.135   7.242 -0.6716 -1.4063  0.0765
 9499SOL    HW230237   6.784   1.087   7.098  0.9134 -2.4628  0.4245
 9500SOL     OW30238   7.453   5.523   0.864 -0.3308  0.8484 -0.8106
 9500SOL    HW130239   7.452   5.619   0.862  0.4249  0.8507 -1.7453
 9500SOL    HW230240   7.382   5.497   0.804  0.4834  0.8389 -1.7908
 9501SOL     OW30241   9.408   3.902   5.241 -0.0933  0.4240 -0.0169
 9501SOL    HW130242   9.453   3.837   5.187 -0.9617 -0.1186 -0.0999
 9501SOL    HW230243   9.315   3.883   5.230 -0.3106  0.6394  1.2502
 9502SOL     OW30244   5.451   6.979   2.453  0.0238 -0.2949  0.7999
 9502SOL    HW130245   5.449   6.920   2.377  0.6539 -0.3288  0.8000
 9502SOL    HW230246   5.359   6.995   2.474 -0.2110  0.8656 -0.8670
 9503SOL     OW30247   6.656   0.727   2.678 -0.0895  0.0459 -0.4133
 9503SOL    HW130248   6.672   0.698   2.768  0.1484 -0.4036 -0.5942
 9503SOL    HW230249   6.586   0.669   2.647  0.9346 -0.8859 -1.0381
 9504SOL     OW30250   4.255   9.503   8.460  0.2020 -0.2882 -0.4324
 9504SOL    HW130251   4.324   9.530   8.520 -1.2906  2.1317  0.3114
 9504SOL    HW230252   4.212   9.584   8.434 -2.4700 -1.6715 -0.7142
 9505SOL     OW30253   0.146   1.303   1.014 -0.7524  0.0458 -0.4377
 9505SOL    HW130254   0.214   1.256   0.965  0.5218  0.9324  0.4322
 9505SOL    HW230255   0.111   1.237   1.074 -0.0041 -0.1800 -0.2402
 9506SOL     OW30256   0.081   2.026   6.562 -0.1204 -0.2932 -0.2604
 9506SOL    HW130257   0.090   2.027   6.467 -0.1355  1.5954 -0.2804
 9506SOL    HW230258   0.155   2.078   6.594 -1.0078  0.4771  0.6321
 9507SOL     OW30259   5.935   8.295   0.787  0.3340 -0.4282  0.5054
 9507SOL    HW130260   5.917   8.294   0.881 -1.2888 -1.2976  0.2273
 9507SOL    HW230261   5.919   8.385   0.760  0.4352 -0.2619  0.9913
 9508SOL     OW30262   3.329   1.916   7.159  0.4427 -0.1501 -0.1955
 9508SOL    HW130263   3.244   1.882   7.189 -0.1804  1.2086 -0.3633
 9508SOL    HW230264   3.342   1.875   7.074 -1.3109  1.5326 -1.3715
 9509SOL     OW30265   1.667   3.074   7.136  0.7910 -0.2699  0.6256
 9509SOL    HW130266   1.722   3.129   7.192 -0.0494 -0.2726  1.4929
 9509SOL    HW230267   1.728   3.012   7.096  1.7800  1.3130 -0.4468
 9510SOL     OW30268   9.266   7.320   0.819 -0.0324  0.4337  0.6676
 9510SOL    HW130269   9.174   7.348   0.816 -0.5773 -1.3488 -0.7069
 9510SOL    HW230270   9.288   7.300   0.728  1.1962 -0.7911  1.2013
 9511SOL     OW30271   4.699   2.324   1.603  0.0692 -0.1076 -0.1667
 9511SOL    HW130272   4.620   2.280   1.572 -1.3455 -0.3584  3.3143
 9511SOL    HW230273   4.696   2.410   1.561 -0.5010 -1.0656 -2.2291
 9512SOL     OW30274   8.060   9.446   1.262 -0.1711 -0.0192 -0.5864
 9512SOL    HW130275   8.059   9.539   1.286 -0.1391 -0.2427  0.3436
 9512SOL    HW230276   8.027   9.443   1.173 -2.7824  0.6374  0.2786
 9513SOL     OW30277   6.905   0.605   5.465 -0.0539 -0.0963  0.7578
 9513SOL    HW130278   6.918   0.671   5.397 -1.4312 -0.6625 -0.1015
 9513SOL    HW230279   6.853   0.649   5.532 -3.0424 -0.8480 -0.8847
 9514SOL     OW30280   5.564   4.664   8.587  0.6270 -0.5860 -0.2701
 9514SOL    HW130281   5.515   4.744   8.603 -0.5789 -1.5382  1.0911
 9514SOL    HW230282   5.498   4.601   8.557  1.7195 -0.8149 -2.4242
 9515SOL     OW30283   0.888   3.534   1.957  0.5314  0.1705 -0.0814
 9515SOL    HW130284   0.927   3.475   1.893  2.0910  2.8069 -1.7346
 9515SOL    HW230285   0.802   3.497   1.974  1.0355 -1.9955 -1.7689
 9516SOL     OW30286   0.481   7.326   3.355 -0.3917  0.8980  0.1044
 9516SOL    HW130287   0.496   7.418   3.332  1.9304  0.2852 -1.1220
 9516SOL    HW230288   0.503   7.278   3.276  1.3191 -0.9022  1.5688
 9517SOL     OW30289   3.717   0.336   2.122 -0.0720  0.0900  0.0625
 9517SOL    HW130290   3.762   0.420   2.124 -1.2976  0.8595 -1.7757
 9517SOL    HW230291   3.785   0.272   2.103  0.6644  0.8617  0.0646
 9518SOL     OW30292   5.390   4.029   8.021  0.4622  0.2274 -0.5372
 9518SOL    HW130293   5.428   4.035   8.109 -0.4201  1.5823 -0.2170
 9518SOL    HW230294   5.440   3.959   7.978  2.1388  0.7583  0.4386
 9519SOL     OW30295   5.654   0.806   5.560  0.6977 -0.4203  0.0549
 9519SOL    HW130296   5.697   0.825   5.644  0.2875 -1.8524  0.6186
 9519SOL    HW230297   5.597   0.882   5.545  0.5884 -0.2517  1.1978
 9520SOL     OW30298   1.485   8.046   1.242 -0.0948  0.4820 -0.2334
 9520SOL    HW130299   1.543   8.082   1.175  0.0635  1.0817  0.2146
 9520SOL    HW230300   1.403   8.094   1.230  0.3156  1.5008  0.7803
 9521SOL     OW30301   6.878   7.702   8.306  0.5353  0.4425  0.5325
 9521SOL    HW130302   6.934   7.653   8.366  0.1212 -3.1873 -1.7276
 9521SOL    HW230303   6.799   7.648   8.297  0.5545  0.7573 -3.1265
 9522SOL     OW30304   6.217   8.389   5.537 -0.0643  0.5402 -0.5484
 9522SOL    HW130305   6.158   8.416   5.607 -0.7392  0.8390 -1.2227
 9522SOL    HW230306   6.302   8.426   5.561 -0.3077  0.7222  0.0525
 9523SOL     OW30307   6.618   1.107   9.182 -0.0620  0.1967  0.2488
 9523SOL    HW130308   6.646   1.197   9.204 -0.6527  0.1432  1.2848
 9523SOL    HW230309   6.554   1.085   9.249 -2.1548  0.0670 -1.6964
 9524SOL     OW30310   2.011   7.253   1.058 -0.3139  0.3905 -0.0995
 9524SOL    HW130311   1.986   7.277   1.147 -0.9703 -0.5654 -0.0111
 9524SOL    HW230312   2.004   7.334   1.008  1.0515  1.1740  0.9129
 9525SOL     OW30313   4.721   4.468   7.678 -0.9156 -0.0055 -0.8074
 9525SOL    HW130314   4.735   4.552   7.635 -0.1882  0.3080 -0.0006
 9525SOL    HW230315   4.673   4.416   7.614 -1.0737  0.9027 -1.4533
 9526SOL     OW30316   3.909   2.679   0.519 -0.0857 -0.6181 -0.2975
 9526SOL    HW130317   3.948   2.608   0.569  2.2439 -0.1664 -1.3450
 9526SOL    HW230318   3.893   2.749   0.583  1.4160 -0.6108  0.1090
 9527SOL     OW30319   4.013   8.880   5.171  0.3620 -0.0349  0.1824
 9527SOL    HW130320   3.966   8.812   5.123 -0.0092 -0.1079  0.6360
 9527SOL    HW230321   4.032   8.839   5.256  2.7558 -0.6373 -0.5624
 9528SOL     OW30322   6.765   6.224   6.364  0.5457 -0.1583 -0.5427
 9528SOL    HW130323   6.737   6.150   6.418  0.1861  2.1589  2.7276
 9528SOL    HW230324   6.861   6.217   6.362  0.4632 -1.2753 -1.1875
 9529SOL     OW30325   4.900   1.894   1.819 -0.0247 -0.4748  0.0299
 9529SOL    HW130326   4.863   1.906   1.907 -0.4118 -0.7180 -0.0949
 9529SOL    HW230327   4.848   1.823   1.781  0.2660 -0.5010 -0.3272
 9530SOL     OW30328   7.608   5.441   8.517 -0.2417  0.3533  0.7001
 9530SOL    HW130329   7.597   5.384   8.441 -0.5936  0.3839  0.7228
 9530SOL    HW230330   7.678   5.401   8.568 -0.1595  0.2085  0.4740
 9531SOL     OW30331   9.228   3.471   9.577  0.4546  0.0944  0.3641
 9531SOL    HW130332   9.268   3.469   9.663 -0.1551 -0.0704  0.6508
 9531SOL    HW230333   9.275   3.403   9.527 -0.4212 -1.1151  1.1353
 9532SOL     OW30334   0.112   0.833   0.297 -0.4607 -0.3147 -0.0525
 9532SOL    HW130335   0.021   0.808   0.281 -0.1252 -1.6311 -0.0187
 9532SOL    HW230336   0.120   0.921   0.259 -1.2888 -0.8787 -1.6548
 9533SOL     OW30337   8.342   8.997   6.236 -0.0968  0.3232  0.0545
 9533SOL    HW130338   8.348   8.903   6.251 -0.8849  0.2829  0.1403
 9533SOL    HW230339   8.422   9.033   6.276  0.2157 -0.3017  0.0043
 9534SOL     OW30340   5.415   1.981   2.726 -0.0847 -0.6638  0.1899
 9534SOL    HW130341   5.360   1.907   2.701 -0.2428 -0.6380  0.4592
 9534SOL    HW230342   5.505   1.951   2.711 -0.1955 -0.2978 -1.3966
 9535SOL     OW30343   7.533   5.159   0.884 -0.8266  0.2375 -0.1279
 9535SOL    HW130344   7.528   5.253   0.866 -2.2206  0.2608  0.2311
 9535SOL    HW230345   7.568   5.121   0.803  0.2193  1.0959 -0.1029
 9536SOL     OW30346   5.686   9.027   9.209  0.4085  0.1293 -0.5491
 9536SOL    HW130347   5.730   9.111   9.224  0.1043  0.0518  0.9227
 9536SOL    HW230348   5.593   9.047   9.220  0.4816 -0.9453  2.9882
 9537SOL     OW30349   2.298   2.731   5.344  0.5562  0.1329  0.4516
 9537SOL    HW130350   2.280   2.651   5.294 -0.0607  1.6931 -2.0263
 9537SOL    HW230351   2.258   2.716   5.429  0.0566 -2.0043 -0.0934
 9538SOL     OW30352   0.325   4.427   7.563 -0.6944  0.4956 -0.6019
 9538SOL    HW130353   0.364   4.376   7.492 -0.7037  1.5506 -1.3764
 9538SOL    HW230354   0.319   4.365   7.636 -1.5133 -0.8656 -1.7697
 9539SOL     OW30355   8.244   6.569   3.619 -0.0092 -0.5092 -0.0129
 9539SOL    HW130356   8.250   6.618   3.537 -1.5741 -1.5073 -0.7831
 9539SOL    HW230357   8.154   6.583   3.648 -0.7102 -3.2894 -0.5542
 9540SOL     OW30358   6.069   7.981   5.727  0.2703 -0.0675 -0.1020
 9540SOL    HW130359   6.016   8.044   5.777 -2.1047 -0.4892 -1.8615
 9540SOL    HW230360   6.085   8.025   5.643 -0.0292 -1.1433 -0.7504
 9541SOL     OW30361   2.301   6.685   5.390  0.0143  0.4915 -0.5036
 9541SOL    HW130362   2.357   6.690   5.468  1.2836 -1.5649 -1.1855
 9541SOL    HW230363   2.324   6.601   5.350 -2.8521  0.0497 -1.4293
 9542SOL     OW30364   1.520   2.995   5.538 -0.4846  0.1954 -0.1468
 9542SOL    HW130365   1.549   3.071   5.589 -0.1515  0.9814 -1.4431
 9542SOL    HW230366   1.448   3.028   5.484 -0.4154 -0.4241 -0.6375
 9543SOL     OW30367   3.034   5.109   7.904  0.4990  0.2597 -0.9184
 9543SOL    HW130368   2.944   5.100   7.933  0.7963  1.0488  0.3279
 9543SOL    HW230369   3.030   5.095   7.809 -0.8237 -0.3199 -0.8007
 9544SOL     OW30370   1.651   2.232   9.213  0.4764  0.2392 -0.0597
 9544SOL    HW130371   1.558   2.216   9.195  0.4128  1.1151 -0.5680
 9544SOL    HW230372   1.684   2.148   9.245 -0.3788 -0.2178 -0.3486
 9545SOL     OW30373   5.434   2.872   8.127  0.4928 -0.2340 -0.0816
 9545SOL    HW130374   5.448   2.842   8.217  1.3005 -0.6326 -0.3252
 9545SOL    HW230375   5.437   2.791   8.075  0.3137  0.0234 -0.4936
 9546SOL     OW30376   2.898   6.909   8.437 -0.1973  0.3089 -0.0793
 9546SOL    HW130377   2.943   6.824   8.437  0.5559  0.6419 -2.1189
 9546SOL    HW230378   2.967   6.972   8.459 -0.2772  0.5777 -0.5966
 9547SOL     OW30379   2.638   7.382   2.860 -0.1294  0.1564 -0.5364
 9547SOL    HW130380   2.683   7.348   2.938  1.8761 -0.4671 -1.8695
 9547SOL    HW230381   2.545   7.366   2.877  0.0950  1.3297  2.2966
 9548SOL     OW30382   8.384   0.663   8.850  0.2131  0.4637 -0.2686
 9548SOL    HW130383   8.328   0.639   8.776 -1.8295  1.5751  0.7979
 9548SOL    HW230384   8.455   0.600   8.849 -0.8860 -0.8298 -1.9309
 9549SOL     OW30385   9.475   2.938   1.406  0.2548 -0.7380  0.3543
 9549SOL    HW130386   9.475   2.909   1.497  1.6362  0.4455  0.7576
 9549SOL    HW230387   9.541   3.007   1.402 -1.0467  0.5207 -1.1390
 9550SOL     OW30388   4.436   6.954   2.950 -0.1772 -0.0976  0.0627
 9550SOL    HW130389   4.345   6.940   2.926 -0.4303 -0.1902  1.0598
 9550SOL    HW230390   4.474   6.866   2.952 -0.3403 -0.1517  0.7304
 9551SOL     OW30391   3.819   2.259   7.509 -0.2064 -0.6811  0.5235
 9551SOL    HW130392   3.747   2.215   7.554 -0.7949  0.8784  1.1709
 9551SOL    HW230393   3.852   2.323   7.572  1.5530 -1.1333  0.1240
 9552SOL     OW30394   1.310   6.669   6.538 -0.0808 -0.1402 -0.5248
 9552SOL    HW130395   1.226   6.714   6.541 -0.3280 -0.6350  0.0626
 9552SOL    HW230396   1.363   6.711   6.605  0.1970  0.2632 -0.9861
 9553SOL     OW30397   5.814   7.222   0.887 -0.0125  0.3255  0.3677
 9553SOL    HW130398   5.902   7.182   0.887  1.2817  2.9442  1.1150
 9553SOL    HW230399   5.759   7.160   0.934  0.9593 -2.2104 -1.5578
 9554SOL     OW30400   6.501   6.106   2.709 -0.0906 -0.1778 -0.5161
 9554SOL    HW130401   6.525   6.191   2.672 -0.6171  0.4085  0.4335
 9554SOL    HW230402   6.462   6.058   2.636  0.2022  0.4026 -1.0634
 9555SOL     OW30403   6.596   8.314   5.525  0.5668  0.4208  0.1307
 9555SOL    HW130404   6.641   8.329   5.442 -0.1806  2.2647  0.0020
 9555SOL    HW230405   6.538   8.390   5.534  0.3988  0.0889  2.1940
 9556SOL     OW30406   0.055   7.490   6.909 -0.2723  0.0752  0.5908
 9556SOL    HW130407   0.010   7.474   6.826  0.8575 -2.8789  0.4061
 9556SOL    HW230408  -0.013   7.479   6.976 -1.1921  2.4813  0.1536
 9557SOL     OW30409   0.547   0.263   0.392 -0.0711 -0.3489 -0.2613
 9557SOL    HW130410   0.590   0.193   0.441 -0.5979 -0.6595 -0.2458
 9557SOL    HW230411   0.514   0.323   0.459 -0.5141 -0.6110 -0.2441
 9558SOL     OW30412   8.898   0.695   1.994 -0.2017 -0.6514 -0.6964
 9558SOL    HW130413   8.862   0.780   1.970  1.6895 -0.0570 -1.6288
 9558SOL    HW230414   8.829   0.633   1.971 -1.7441  0.6279  0.2978
 9559SOL     OW30415   7.204   3.476   4.745 -0.1911  0.0602  0.2617
 9559SOL    HW130416   7.278   3.470   4.806 -0.4381 -1.6331  0.4464
 9559SOL    HW230417   7.214   3.562   4.704  2.4462 -0.4458 -0.3932
 9560SOL     OW30418   1.096   8.555   3.643  0.0822 -0.0840 -0.2014
 9560SOL    HW130419   1.074   8.548   3.550  0.4216  1.7046 -0.4574
 9560SOL    HW230420   1.056   8.478   3.683 -3.1405  0.8770 -1.2497
 9561SOL     OW30421   5.306   0.408   0.567 -0.0135 -0.7007  0.5918
 9561SOL    HW130422   5.371   0.463   0.524  0.2807 -0.8138  0.8895
 9561SOL    HW230423   5.353   0.367   0.640 -0.1311 -1.6307  0.1566
 9562SOL     OW30424   2.928   4.439   7.194 -0.1878 -0.1021 -0.1416
 9562SOL    HW130425   3.005   4.399   7.154  0.1113  0.8704 -0.5674
 9562SOL    HW230426   2.883   4.366   7.237  0.8213 -0.7333 -0.1081
 9563SOL     OW30427   1.408   9.018   3.028 -0.1485  0.0748  0.3765
 9563SOL    HW130428   1.361   8.996   3.108  0.9359 -0.0029  1.0136
 9563SOL    HW230429   1.422   8.934   2.985  0.1294  0.0036  0.6025
 9564SOL     OW30430   0.563   1.739   3.224 -0.4897  0.2846  0.1225
 9564SOL    HW130431   0.536   1.678   3.156  0.6016 -0.8258  0.6584
 9564SOL    HW230432   0.595   1.684   3.295  2.8237  1.4628 -0.3001
 9565SOL     OW30433   6.970   3.866   3.674 -0.5686  0.4151  0.0751
 9565SOL    HW130434   6.949   3.802   3.606  1.8037 -3.3862  2.5217
 9565SOL    HW230435   6.913   3.843   3.747  0.2422  1.1887  0.9806
 9566SOL     OW30436   2.786   3.999   2.650  0.0478 -0.0338 -0.2866
 9566SOL    HW130437   2.869   4.018   2.693 -1.2880  0.0382  2.5081
 9566SOL    HW230438   2.749   4.085   2.630 -0.4404  0.0328  0.8242
 9567SOL     OW30439   2.558   0.550   8.223  0.0201 -0.1942 -0.2663
 9567SOL    HW130440   2.533   0.468   8.181  0.9737 -1.5234  1.6198
 9567SOL    HW230441   2.503   0.616   8.182 -0.8693 -1.7895 -1.7466
 9568SOL     OW30442   4.118   2.042   8.732 -0.3374  0.5995  0.2370
 9568SOL    HW130443   4.213   2.028   8.735 -0.4005  0.3057  1.6627
 9568SOL    HW230444   4.082   1.954   8.723 -0.4932  0.6080  0.7442
 9569SOL     OW30445   6.923   0.770   7.542  0.2005  0.7042 -0.3223
 9569SOL    HW130446   6.887   0.852   7.576  1.3934  1.0758  0.1013
 9569SOL    HW230447   6.872   0.702   7.586  1.0370  1.1897  1.4989
 9570SOL     OW30448   7.643   3.147   5.045  0.2351  0.4634  0.0535
 9570SOL    HW130449   7.607   3.137   5.133 -2.9854 -0.8563 -1.2581
 9570SOL    HW230450   7.701   3.071   5.035 -0.2007  0.0315  0.6897
 9571SOL     OW30451   1.258   4.667   5.355  0.9311  0.3949 -0.0262
 9571SOL    HW130452   1.284   4.697   5.268  1.0567 -0.7497 -0.4016
 9571SOL    HW230453   1.320   4.710   5.414  0.9767  1.0178 -0.5119
 9572SOL     OW30454   3.852   0.492   9.431  0.1023  0.2066  0.5251
 9572SOL    HW130455   3.772   0.507   9.482  0.4420 -0.1631  1.1846
 9572SOL    HW230456   3.860   0.397   9.427 -0.0799  0.2204 -0.4955
 9573SOL     OW30457   3.334   3.463   6.339  0.4979  0.1127  0.7644
 9573SOL    HW130458   3.334   3.416   6.423 -0.0091  0.1143  0.7682
 9573SOL    HW230459   3.309   3.553   6.362  1.6402  0.4310  0.7810
 9574SOL     OW30460   0.623   6.030   1.508  0.1060  0.4114  0.2005
 9574SOL    HW130461   0.629   5.934   1.515  2.7906  0.4678 -0.2136
 9574SOL    HW230462   0.529   6.048   1.505 -0.4997 -2.1336  1.1612
 9575SOL     OW30463   6.769   5.382   2.298 -0.2007 -0.1354 -0.2333
 9575SOL    HW130464   6.847   5.437   2.283  1.9054 -2.8245  0.1529
 9575SOL    HW230465   6.708   5.440   2.344  1.6600  2.0154 -0.2579
 9576SOL     OW30466   1.841   2.117   6.716 -0.4496  0.6045 -0.6194
 9576SOL    HW130467   1.818   2.190   6.658  1.1524  1.2612 -0.4715
 9576SOL    HW230468   1.909   2.069   6.668  0.8098  1.0829  0.6212
 9577SOL     OW30469   3.031   7.413   8.505 -0.7324 -0.2656  0.1200
 9577SOL    HW130470   3.042   7.420   8.410 -2.4305 -0.9424 -0.1723
 9577SOL    HW230471   2.975   7.336   8.517 -1.5050  0.4795  1.5834
 9578SOL     OW30472   8.439   1.708   6.940  0.1160 -0.1412 -0.5030
 9578SOL    HW130473   8.469   1.647   6.873 -0.4506  1.0263 -1.8573
 9578SOL    HW230474   8.347   1.725   6.918 -0.3321 -0.3667  1.0677
 9579SOL     OW30475   0.857   6.319   8.498  0.6083 -0.3094  0.4849
 9579SOL    HW130476   0.818   6.395   8.455  1.3831  0.5031  1.1770
 9579SOL    HW230477   0.929   6.355   8.550  0.7182 -1.4665  1.1752
 9580SOL     OW30478   4.717   7.213   0.546  0.4863  0.0850 -0.5686
 9580SOL    HW130479   4.733   7.239   0.636 -1.4809 -0.0008 -0.1661
 9580SOL    HW230480   4.699   7.119   0.550 -1.5556  0.4269 -0.7351
 9581SOL     OW30481   3.317   4.070   1.546  0.3449  0.4371 -0.0319
 9581SOL    HW130482   3.354   3.983   1.528 -1.3699  0.0059 -1.8321
 9581SOL    HW230483   3.238   4.052   1.597  0.4021  1.0149  0.2613
 9582SOL     OW30484   9.206   7.109   1.522  0.4253  0.5109 -0.2190
 9582SOL    HW130485   9.158   7.141   1.598  0.1060  1.0525 -0.6357
 9582SOL    HW230486   9.289   7.157   1.525 -0.4564  2.2190 -1.4101
 9583SOL     OW30487   5.776   8.632   4.067  0.1374 -0.8196 -0.1937
 9583SOL    HW130488   5.848   8.603   4.011 -0.0859 -0.0737 -0.8796
 9583SOL    HW230489   5.792   8.725   4.083 -0.0619 -0.9093  0.5966
 9584SOL     OW30490   5.610   5.656   5.439  0.3353 -0.4421  0.7196
 9584SOL    HW130491   5.699   5.665   5.472  0.6269  0.3186 -0.2455
 9584SOL    HW230492   5.556   5.699   5.506  0.8342  0.2911  0.6695
 9585SOL     OW30493   5.529   1.071   0.645  0.3763 -0.2125 -0.3835
 9585SOL    HW130494   5.625   1.077   0.650  0.3246 -0.2068  0.7038
 9585SOL    HW230495   5.510   0.980   0.668  0.0177  0.2556  1.2774
 9586SOL     OW30496   3.953   3.650   5.999  0.2935  0.1238  0.2083
 9586SOL    HW130497   3.858   3.643   6.002  0.0717  2.2337 -0.3591
 9586SOL    HW230498   3.973   3.672   5.909  1.6047 -2.7100 -0.3172
 9587SOL     OW30499   5.093   1.758   8.645 -0.3971 -0.3015  0.1343
 9587SOL    HW130500   5.004   1.746   8.678 -0.7122 -0.1446 -0.6266
 9587SOL    HW230501   5.116   1.674   8.606 -0.1968 -0.3517  0.3591
 9588SOL     OW30502   1.931   5.088   2.303 -0.1475  0.4645 -0.0986
 9588SOL    HW130503   2.000   5.025   2.323 -0.3638 -0.1146 -1.1001
 9588SOL    HW230504   1.928   5.090   2.208 -2.1216 -0.2182 -0.0944
 9589SOL     OW30505   6.261   4.909   4.251  0.4235 -0.3991 -0.6362
 9589SOL    HW130506   6.258   4.983   4.190 -0.1561 -0.7151 -0.9918
 9589SOL    HW230507   6.243   4.833   4.197  0.7381 -0.7743 -0.2145
 9590SOL     OW30508   0.830   1.035   4.498  0.1071  0.4740 -0.4376
 9590SOL    HW130509   0.898   0.968   4.508 -0.5592 -0.0945  0.5063
 9590SOL    HW230510   0.823   1.048   4.404  1.0499  0.0552 -0.5787
 9591SOL     OW30511   5.254   5.277   6.290 -0.3113 -0.3039  0.0241
 9591SOL    HW130512   5.282   5.221   6.218 -0.9383 -0.4861 -0.0881
 9591SOL    HW230513   5.324   5.341   6.300  1.0032 -1.7883  0.9190
 9592SOL     OW30514   6.539   7.975   1.329 -0.5606 -0.2018 -0.3487
 9592SOL    HW130515   6.593   8.003   1.255 -1.1532  0.0882 -0.6813
 9592SOL    HW230516   6.600   7.968   1.403  0.0696 -0.6680 -0.9009
 9593SOL     OW30517   3.220   7.655   6.336 -0.4833 -0.1690 -0.1084
 9593SOL    HW130518   3.207   7.567   6.370  3.9249 -0.8731  0.3820
 9593SOL    HW230519   3.252   7.643   6.247 -1.1330  1.0323 -0.5304
 9594SOL     OW30520   4.424   5.143   2.151 -0.5612  0.2539 -0.2955
 9594SOL    HW130521   4.414   5.158   2.245  0.2079 -0.8941 -0.0167
 9594SOL    HW230522   4.355   5.196   2.111 -0.4821  1.2770  0.8651
 9595SOL     OW30523   5.837   4.832   3.977  0.6550 -0.0520 -0.1179
 9595SOL    HW130524   5.819   4.920   3.944  2.0239  1.0093  1.7360
 9595SOL    HW230525   5.780   4.775   3.926 -1.0548  2.0098 -0.6591
 9596SOL     OW30526   2.952   1.461   5.813  0.0268 -0.1294  0.1759
 9596SOL    HW130527   2.912   1.547   5.802  0.6139 -0.0778 -2.1332
 9596SOL    HW230528   3.041   1.471   5.779  0.3173 -1.5001  0.4514
 9597SOL     OW30529   7.393   8.939   9.031  0.3535 -0.3424  0.0492
 9597SOL    HW130530   7.334   8.902   9.098  1.1703 -0.3709  0.7769
 9597SOL    HW230531   7.339   9.002   8.984 -1.2045 -2.6193 -1.4390
 9598SOL     OW30532   2.386   6.535   4.910  0.2135  0.4122 -0.0896
 9598SOL    HW130533   2.439   6.524   4.832  0.5613 -1.6015  0.3730
 9598SOL    HW230534   2.448   6.558   4.979 -0.2558  3.7081 -0.5969
 9599SOL     OW30535   4.685   8.519   3.619 -0.0486  0.1464  0.1051
 9599SOL    HW130536   4.706   8.524   3.525  0.1561 -1.1203  0.0586
 9599SOL    HW230537   4.649   8.605   3.640  0.2269  0.5734 -1.0571
 9600SOL     OW30538   1.879   3.964   5.215  0.2269 -0.0471  0.2604
 9600SOL    HW130539   1.822   4.039   5.235  0.0210 -0.2934  0.6109
 9600SOL    HW230540   1.841   3.891   5.264 -0.1228 -0.6060 -0.8096
 9601SOL     OW30541   1.871   0.968   1.504  0.0689  0.3671  0.3841
 9601SOL    HW130542   1.926   0.950   1.580  0.2583  2.1342  0.7274
 9601SOL    HW230543   1.930   0.962   1.429 -0.1780 -1.6600  0.2993
 9602SOL     OW30544   4.157   1.184   8.666 -0.2624 -0.4088 -0.0669
 9602SOL    HW130545   4.216   1.119   8.704 -0.9466 -0.9686  0.0679
 9602SOL    HW230546   4.215   1.255   8.636  0.3395 -0.1929  1.5094
 9603SOL     OW30547   5.929   4.446   7.769  0.0055  0.1544  0.3034
 9603SOL    HW130548   5.961   4.533   7.745  0.2893  0.6296  2.2423
 9603SOL    HW230549   5.913   4.451   7.863 -1.7678 -1.3507  0.1410
 9604SOL     OW30550   0.506   2.094   6.882 -0.5966  0.2281  0.2768
 9604SOL    HW130551   0.416   2.126   6.891 -1.1823 -1.7863  2.3235
 9604SOL    HW230552   0.554   2.140   6.951  0.2679  2.0111 -1.3923
 9605SOL     OW30553   5.556   6.427   9.179 -0.4363 -0.2322 -0.4266
 9605SOL    HW130554   5.497   6.358   9.209 -1.6035  0.8653 -0.1155
 9605SOL    HW230555   5.517   6.508   9.212 -0.3008  0.7965 -2.6013
 9606SOL     OW30556   2.058   9.383   9.413 -0.5730 -0.1530 -0.1260
 9606SOL    HW130557   2.013   9.325   9.474 -0.6434 -0.5619 -0.5570
 9606SOL    HW230558   2.123   9.328   9.371 -2.8818 -0.9415 -3.0679
 9607SOL     OW30559   7.378   7.199   2.084  0.5385 -0.3146 -0.0214
 9607SOL    HW130560   7.354   7.160   2.000  0.3404 -0.5281  0.1324
 9607SOL    HW230561   7.372   7.294   2.069  0.6062 -0.3520 -0.2769
 9608SOL     OW30562   5.466   9.478   1.824  0.5989  0.4246 -0.0195
 9608SOL    HW130563   5.448   9.570   1.838  0.4317  0.4802 -0.5878
 9608SOL    HW230564   5.444   9.462   1.732 -2.6646 -0.9710  0.8700
 9609SOL     OW30565   2.278   1.075   8.369 -0.0630  0.0251 -0.0738
 9609SOL    HW130566   2.190   1.102   8.394 -0.4795 -1.1090 -0.2621
 9609SOL    HW230567   2.323   1.063   8.453 -0.4734 -0.6107  0.0613
 9610SOL     OW30568   0.186   9.081   8.124  0.4635 -0.7893  0.2486
 9610SOL    HW130569   0.275   9.092   8.091  0.5336 -0.0893  0.6600
 9610SOL    HW230570   0.139   9.041   8.051  0.4878  1.2340 -0.9696
 9611SOL     OW30571   0.479   5.305   6.893  0.0287 -0.1289  0.9453
 9611SOL    HW130572   0.510   5.235   6.836 -1.9874  1.1726 -2.0127
 9611SOL    HW230573   0.503   5.386   6.847 -0.1862  1.0524  2.8184
 9612SOL     OW30574   0.428   2.473   8.102 -0.2677 -0.1507 -0.3215
 9612SOL    HW130575   0.403   2.398   8.156  0.0690 -0.6158 -0.8008
 9612SOL    HW230576   0.515   2.497   8.133 -0.3000 -0.0708 -0.2921
 9613SOL     OW30577   0.689   5.629   6.476 -0.0565 -0.0936  0.2189
 9613SOL    HW130578   0.705   5.685   6.552  0.3471  1.1192 -0.7520
 9613SOL    HW230579   0.748   5.555   6.488  0.5781  0.4800  0.6801
 9614SOL     OW30580   7.580   4.644   5.068  0.3138 -0.7785 -0.2392
 9614SOL    HW130581   7.599   4.724   5.118 -0.0950 -1.4523  1.0282
 9614SOL    HW230582   7.559   4.675   4.980 -0.9419  0.6235  0.5068
 9615SOL     OW30583   0.761   7.921   1.001  0.0250 -0.1938  0.1603
 9615SOL    HW130584   0.681   7.969   0.979 -2.1536 -2.2557  2.8353
 9615SOL    HW230585   0.772   7.858   0.930 -1.0343 -0.1961 -0.0153
 9616SOL     OW30586   2.725   4.788   7.956 -0.5691 -0.0532 -0.1796
 9616SOL    HW130587   2.642   4.757   7.993  0.0095 -1.5721 -0.0679
 9616SOL    HW230588   2.699   4.854   7.891 -1.7854  0.2841  0.6134
 9617SOL     OW30589   4.484   4.120   2.004 -0.6971 -0.3827  0.8580
 9617SOL    HW130590   4.444   4.195   2.046 -2.9877 -0.6090 -0.7454
 9617SOL    HW230591   4.444   4.116   1.917 -0.4509 -3.2567  0.7610
 9618SOL     OW30592   2.590   9.189   3.640 -0.0815 -0.0214  0.2364
 9618SOL    HW130593   2.594   9.134   3.718 -1.5561  0.4724  0.6889
 9618SOL    HW230594   2.538   9.265   3.666  0.9805  1.0640 -0.7027
 9619SOL     OW30595   1.197   0.209   4.092  0.4983  0.2620  0.0284
 9619SOL    HW130596   1.191   0.131   4.149 -1.2802  0.2472 -0.1160
 9619SOL    HW230597   1.281   0.248   4.115  0.6537 -0.7467  1.3690
 9620SOL     OW30598   5.480   2.195   3.496 -0.0803 -0.4260 -0.3131
 9620SOL    HW130599   5.451   2.106   3.477  2.9435 -1.6723  0.2117
 9620SOL    HW230600   5.559   2.206   3.442  1.2956  0.7936  1.8237
 9621SOL     OW30601   8.796   5.315   2.015 -0.1886  0.1990  0.0580
 9621SOL    HW130602   8.723   5.321   1.954 -0.5955 -0.8527  0.4201
 9621SOL    HW230603   8.791   5.395   2.067 -0.9281  0.2600 -0.0973
 9622SOL     OW30604   3.105   3.640   9.057 -0.5016  0.4550  0.6922
 9622SOL    HW130605   3.133   3.567   9.001 -1.0025  0.4329  0.4623
 9622SOL    HW230606   3.051   3.599   9.124  0.1284  0.4788  1.2188
 9623SOL     OW30607   1.909   2.434   7.143 -0.1062 -0.0831 -0.5887
 9623SOL    HW130608   1.849   2.469   7.209  1.8725  2.1552  0.1540
 9623SOL    HW230609   1.860   2.363   7.102 -1.7543 -1.1002  2.7374
 9624SOL     OW30610   7.864   1.788   3.856 -0.6172  0.1558 -0.0713
 9624SOL    HW130611   7.770   1.780   3.838 -0.5897 -0.1804 -0.0713
 9624SOL    HW230612   7.888   1.704   3.893 -0.4962  0.5382  0.7415
 9625SOL     OW30613   6.042   2.292   3.881  0.8326  0.1201 -0.0236
 9625SOL    HW130614   6.104   2.330   3.819  1.3429 -1.7247 -0.6878
 9625SOL    HW230615   6.087   2.217   3.918 -0.4715 -0.4132  0.5603
 9626SOL     OW30616   5.753   6.774   5.716 -0.2098  0.5685  0.5457
 9626SOL    HW130617   5.788   6.798   5.802  0.0214  0.5883  0.4467
 9626SOL    HW230618   5.714   6.855   5.683  0.9760  0.9442  0.0146
 9627SOL     OW30619   7.333   2.094   3.634 -0.3512 -0.1661 -0.7874
 9627SOL    HW130620   7.364   2.019   3.684 -1.7420  0.5235  1.2169
 9627SOL    HW230621   7.353   2.170   3.688 -2.3861  0.5605 -0.9605
 9628SOL     OW30622   4.904   6.258   2.338  0.0092  0.1900  0.5908
 9628SOL    HW130623   4.909   6.167   2.310 -0.8620  0.3964 -0.2721
 9628SOL    HW230624   4.842   6.258   2.411 -0.4868  0.1872  0.1690
 9629SOL     OW30625   3.960   4.430   3.813 -0.3897 -0.2316 -0.4236
 9629SOL    HW130626   3.990   4.519   3.828 -0.5171  0.4641 -3.5373
 9629SOL    HW230627   4.027   4.391   3.756 -1.2221 -1.5226 -0.5670
 9630SOL     OW30628   6.115   3.498   4.933  0.1852 -0.2003  0.3209
 9630SOL    HW130629   6.046   3.558   4.906  1.4552  1.0178 -0.3519
 9630SOL    HW230630   6.124   3.438   4.858  1.1870  0.8814 -0.4535
 9631SOL     OW30631   2.608   8.375   9.067 -0.8048 -0.4066 -0.3122
 9631SOL    HW130632   2.666   8.400   9.139 -0.2906 -1.5679 -0.3152
 9631SOL    HW230633   2.580   8.459   9.030  1.7758  0.2183 -1.0429
 9632SOL     OW30634   2.838   6.834   3.054  0.1416 -0.3167  0.5765
 9632SOL    HW130635   2.748   6.860   3.070  0.2029 -0.9785  2.1929
 9632SOL    HW230636   2.880   6.913   3.020 -1.1701 -0.1847 -0.8107
 9633SOL     OW30637   8.125   3.247   1.869  0.3953 -0.2801 -0.0026
 9633SOL    HW130638   8.193   3.244   1.802  0.9772 -1.2300  0.6011
 9633SOL    HW230639   8.158   3.309   1.934 -0.0949  0.5207 -0.5097
 9634SOL     OW30640   2.916   8.233   3.631 -0.0997  0.0952 -0.1668
 9634SOL    HW130641   2.854   8.179   3.679 -0.5459  1.1828  0.5153
 9634SOL    HW230642   2.972   8.170   3.585 -1.4377 -0.9154 -0.4775
 9635SOL     OW30643   2.594   7.693   7.320  0.1895 -0.0102  0.7360
 9635SOL    HW130644   2.504   7.664   7.333 -0.2125 -0.5654 -2.3346
 9635SOL    HW230645   2.646   7.635   7.376 -1.2208 -1.0863  1.0017
 9636SOL     OW30646   7.688   7.916   1.964  0.0931 -0.0000  0.4166
 9636SOL    HW130647   7.610   7.970   1.967  1.1853  1.7617 -0.8499
 9636SOL    HW230648   7.742   7.955   1.895  2.4063 -0.6811  1.7141
 9637SOL     OW30649   8.627   1.697   0.867  0.3060  0.0282 -0.0954
 9637SOL    HW130650   8.656   1.788   0.876 -0.7083  0.6382 -2.3239
 9637SOL    HW230651   8.579   1.695   0.784 -0.3778 -2.3812  0.2800
 9638SOL     OW30652   8.611   2.131   1.766  0.6350 -0.2693  0.3058
 9638SOL    HW130653   8.601   2.074   1.842  0.2572 -2.6281 -1.3948
 9638SOL    HW230654   8.669   2.083   1.708  0.2340  1.0672 -1.2853
 9639SOL     OW30655   8.089   5.038   5.519  0.3638 -0.6770 -0.2471
 9639SOL    HW130656   8.129   5.083   5.444 -0.3884  0.9206  0.2604
 9639SOL    HW230657   8.019   4.985   5.481  2.2944 -2.8340 -1.0459
 9640SOL     OW30658   7.064   0.670   4.800  0.4303  0.5942  0.1421
 9640SOL    HW130659   7.108   0.605   4.854  1.4209  0.0481 -1.2489
 9640SOL    HW230660   7.040   0.623   4.720  0.2285  1.6668 -0.4537
 9641SOL     OW30661   5.311   2.398   6.590 -0.1131  0.5213  0.0497
 9641SOL    HW130662   5.241   2.419   6.528  0.7662  3.8339  0.0210
 9641SOL    HW230663   5.266   2.386   6.673 -0.8212  2.0669 -0.0723
 9642SOL     OW30664   8.136   4.710   0.906 -0.5043  0.0731  0.2113
 9642SOL    HW130665   8.141   4.644   0.837  0.0127  0.0051  0.3085
 9642SOL    HW230666   8.215   4.697   0.958 -0.2651  0.9380  0.0807
 9643SOL     OW30667   1.152   5.406   8.610  0.2353 -0.2781  0.2670
 9643SOL    HW130668   1.118   5.389   8.522 -0.2714 -2.1042  0.7675
 9643SOL    HW230669   1.211   5.480   8.599 -0.8336  0.4055 -1.3649
 9644SOL     OW30670   7.046   3.332   7.148 -0.2464 -0.2172  0.3052
 9644SOL    HW130671   6.973   3.271   7.137  1.0572 -1.8258  0.2151
 9644SOL    HW230672   7.062   3.333   7.242 -0.7370  0.5989  0.3903
 9645SOL     OW30673   7.400   9.118   2.367  0.3700  0.0360  0.0231
 9645SOL    HW130674   7.448   9.091   2.445  1.9109  0.7065 -0.6589
 9645SOL    HW230675   7.460   9.176   2.320 -1.2591  1.2303 -0.6735
 9646SOL     OW30676   4.797   1.020   1.443 -0.0175  0.0997  0.2546
 9646SOL    HW130677   4.817   0.933   1.476 -2.9574 -0.3799  1.0317
 9646SOL    HW230678   4.772   1.007   1.351  0.6116  0.2924  0.0535
 9647SOL     OW30679   5.862   5.937   3.645  0.3743 -0.3393  0.0052
 9647SOL    HW130680   5.894   5.942   3.735 -0.4515  0.0788  0.2838
 9647SOL    HW230681   5.911   6.005   3.599 -1.6577  1.8996  0.9385
 9648SOL     OW30682   4.388   0.042   7.625  0.1240 -0.4374  0.1001
 9648SOL    HW130683   4.323  -0.003   7.571  0.4880 -1.1732  0.2703
 9648SOL    HW230684   4.348   0.044   7.712  0.4535 -1.1697  0.2752
 9649SOL     OW30685   3.711   3.954   8.247 -0.1967  0.0121 -0.0056
 9649SOL    HW130686   3.630   3.965   8.197 -1.0885  0.6066  1.5058
 9649SOL    HW230687   3.708   4.023   8.313  1.7238  0.2619 -0.1028
 9650SOL     OW30688   5.228   6.619   8.817  0.0827  0.6267 -0.0045
 9650SOL    HW130689   5.301   6.582   8.767  0.3010  1.1222 -0.0611
 9650SOL    HW230690   5.205   6.699   8.770 -0.3977  0.5571  0.1036
 9651SOL     OW30691   2.251   6.173   5.851 -0.1172 -0.5129  0.0624
 9651SOL    HW130692   2.235   6.196   5.943 -1.0082  0.7918 -0.4004
 9651SOL    HW230693   2.300   6.248   5.816 -0.4567 -0.6564 -0.7320
 9652SOL     OW30694   1.845   4.657   3.734  0.1481 -0.1986 -0.4520
 9652SOL    HW130695   1.838   4.750   3.753 -0.9714 -0.8269  2.6781
 9652SOL    HW230696   1.768   4.637   3.681 -0.0752  0.4634 -0.3734
 9653SOL     OW30697   7.432   5.564   3.863 -0.2375 -0.3316  0.1577
 9653SOL    HW130698   7.496   5.548   3.794 -0.3457 -3.0458  0.5837
 9653SOL    HW230699   7.358   5.606   3.819 -0.4982 -2.4127 -1.5569
 9654SOL     OW30700   7.438   0.547   3.266 -0.3017 -0.0307 -0.0132
 9654SOL    HW130701   7.524   0.523   3.301 -0.4300 -1.4333 -0.6258
 9654SOL    HW230702   7.401   0.605   3.332  0.5036 -0.5973  0.9557
 9655SOL     OW30703   7.020   1.209   4.145  0.2997 -0.7703 -0.6044
 9655SOL    HW130704   6.961   1.149   4.191 -0.2736 -0.2339 -0.6370
 9655SOL    HW230705   7.106   1.165   4.149 -0.1684 -1.7456 -0.9144
 9656SOL     OW30706   9.014   8.765   6.645 -0.0126 -0.3275 -0.3992
 9656SOL    HW130707   9.039   8.834   6.584  1.2273 -2.2746 -2.2323
 9656SOL    HW230708   9.098   8.731   6.678 -0.6242 -0.2428  1.3893
 9657SOL     OW30709   6.095   1.271   4.779  0.0371  0.0051 -0.1843
 9657SOL    HW130710   6.130   1.218   4.708 -0.6425 -0.0663 -0.4754
 9657SOL    HW230711   6.008   1.234   4.796  0.3791 -0.3070  1.0275
 9658SOL     OW30712   4.631   2.421   1.250 -0.4133 -0.1947 -0.4984
 9658SOL    HW130713   4.663   2.336   1.281 -0.9394 -0.5337 -0.8612
 9658SOL    HW230714   4.559   2.442   1.309  0.9818  0.9908  0.8759
 9659SOL     OW30715   6.060   8.694   2.163 -0.0432  0.4340  0.7264
 9659SOL    HW130716   6.090   8.604   2.154 -0.5266  0.0892  2.2505
 9659SOL    HW230717   6.137   8.741   2.196 -0.0156  0.4166  0.6879
 9660SOL     OW30718   8.265   5.721   8.594  0.5393  0.2626  0.0547
 9660SOL    HW130719   8.301   5.659   8.658  0.4727  0.4547  0.2811
 9660SOL    HW230720   8.252   5.669   8.514 -1.8623 -0.6746  0.9444
 9661SOL     OW30721   6.120   3.238   9.306 -0.1360  0.1367  1.3675
 9661SOL    HW130722   6.160   3.202   9.227 -1.2339  1.2099  0.2904
 9661SOL    HW230723   6.113   3.163   9.365  0.1575 -0.8180  0.2304
 9662SOL     OW30724   7.133   8.532   2.425 -0.2570  0.0524  0.0988
 9662SOL    HW130725   7.092   8.473   2.362 -0.4610  0.3356 -0.0369
 9662SOL    HW230726   7.211   8.565   2.381  0.8212 -1.4329  0.8060
 9663SOL     OW30727   6.977   9.500   8.869 -0.2315 -0.3079 -0.2283
 9663SOL    HW130728   6.964   9.464   8.957 -2.2063 -0.7797 -0.6545
 9663SOL    HW230729   6.890   9.530   8.843  0.1286 -0.9618 -2.3446
 9664SOL     OW30730   5.586   2.098   9.142  0.1301 -0.0218  0.0594
 9664SOL    HW130731   5.586   2.132   9.053  0.1809  0.6179  0.2943
 9664SOL    HW230732   5.672   2.123   9.177 -0.3237  0.7708  0.6562
 9665SOL     OW30733   9.262   5.279   7.091 -0.0278  0.3458 -0.1583
 9665SOL    HW130734   9.297   5.203   7.138 -1.8810 -0.1878  0.4610
 9665SOL    HW230735   9.202   5.320   7.153  0.6776  2.1429 -0.6104
 9666SOL     OW30736   4.718   9.542   9.021  0.1686 -0.0974  0.3465
 9666SOL    HW130737   4.703   9.620   8.968 -0.4892 -1.2959 -1.3243
 9666SOL    HW230738   4.640   9.488   9.006 -0.7875  0.0987  3.7540
 9667SOL     OW30739   4.873   0.042   6.577  0.4703  0.6095 -0.3852
 9667SOL    HW130740   4.898   0.004   6.661 -1.0855  0.4824  0.0476
 9667SOL    HW230741   4.937   0.112   6.562  1.0739  0.2989  0.6335
 9668SOL     OW30742   6.424   7.979   8.273  0.4456 -0.6011 -0.1071
 9668SOL    HW130743   6.509   8.004   8.308 -0.2300 -0.8548  1.8434
 9668SOL    HW230744   6.414   7.886   8.297 -0.5156 -0.4757  0.0461
 9669SOL     OW30745   8.608   4.402   7.559 -0.5850 -0.1375 -0.2402
 9669SOL    HW130746   8.677   4.350   7.518 -0.5099  0.3566 -0.7650
 9669SOL    HW230747   8.559   4.339   7.613  0.1580 -0.5231 -0.0062
 9670SOL     OW30748   2.837   0.181   7.594  0.6173 -0.0218  0.1522
 9670SOL    HW130749   2.892   0.259   7.601 -0.1091  0.4288  1.2992
 9670SOL    HW230750   2.851   0.134   7.676 -0.9611  0.3085  0.6461
 9671SOL     OW30751   1.130   8.740   3.122  0.5379  0.0323 -0.0057
 9671SOL    HW130752   1.173   8.655   3.118 -0.2265 -0.3838  0.3246
 9671SOL    HW230753   1.139   8.767   3.214  2.9261  1.4814 -0.5726
 9672SOL     OW30754   3.931   5.512   6.134 -0.1904 -0.1233 -0.0932
 9672SOL    HW130755   3.903   5.544   6.220 -0.5137 -1.2935  0.2606
 9672SOL    HW230756   4.014   5.555   6.118  0.8313 -1.3170  1.6895
 9673SOL     OW30757   8.216   5.340   2.073 -0.0724  0.2969 -0.3224
 9673SOL    HW130758   8.246   5.258   2.113 -0.5041  0.5182  0.4829
 9673SOL    HW230759   8.134   5.316   2.029 -1.8708  0.8402  2.4584
 9674SOL     OW30760   2.692   1.433   8.478 -0.0012  0.4807 -0.2422
 9674SOL    HW130761   2.769   1.485   8.498  1.1466 -0.2514 -2.4476
 9674SOL    HW230762   2.701   1.354   8.532 -0.0786  1.1137  0.7118
 9675SOL     OW30763   9.230   7.447   2.324 -0.2869 -0.7423  0.0030
 9675SOL    HW130764   9.163   7.379   2.311 -0.3973 -0.3884 -1.5412
 9675SOL    HW230765   9.298   7.404   2.376  0.1066 -2.3850 -1.7440
 9676SOL     OW30766   6.755   1.828   3.468  0.1300 -0.3081  0.2163
 9676SOL    HW130767   6.770   1.751   3.522  0.4380  0.1785  0.8309
 9676SOL    HW230768   6.660   1.841   3.472 -0.0322 -1.1430 -0.5804
 9677SOL     OW30769   0.545   8.063   4.502 -0.0189  0.5992  0.2269
 9677SOL    HW130770   0.504   7.997   4.447  1.4481  1.0409 -1.4523
 9677SOL    HW230771   0.480   8.134   4.506 -0.1032  0.6186 -1.0602
 9678SOL     OW30772   2.973   0.215   7.888 -0.8089 -0.9604 -0.3412
 9678SOL    HW130773   2.939   0.304   7.882 -0.0664 -0.5789  0.8719
 9678SOL    HW230774   3.055   0.217   7.838  0.0295 -0.5225  1.0122
 9679SOL     OW30775   4.533   6.586   6.879  0.3618  0.2297  0.2021
 9679SOL    HW130776   4.505   6.655   6.819  1.2279 -1.1004 -1.8256
 9679SOL    HW230777   4.535   6.506   6.825  1.2475 -1.0297  1.9894
 9680SOL     OW30778   1.448   6.185   5.529  0.2545  0.0678 -0.5913
 9680SOL    HW130779   1.389   6.241   5.580  0.1420 -1.9283  1.6520
 9680SOL    HW230780   1.397   6.163   5.451 -1.5160 -0.5435  0.6661
 9681SOL     OW30781   7.658   8.615   2.145  0.1647 -0.0388  0.1194
 9681SOL    HW130782   7.580   8.559   2.149 -1.2314  1.5624 -2.2903
 9681SOL    HW230783   7.723   8.563   2.098  0.2061 -1.0045  1.2233
 9682SOL     OW30784   0.765   2.542   3.600 -0.3467  0.0234  0.4695
 9682SOL    HW130785   0.728   2.558   3.513  0.2799 -0.7828  0.0417
 9682SOL    HW230786   0.821   2.617   3.617  1.2364 -0.8019 -0.7786
 9683SOL     OW30787   0.011   3.588   3.930  0.1426  0.2237  0.5209
 9683SOL    HW130788   0.059   3.659   3.888  0.2399 -0.0653  0.1342
 9683SOL    HW230789   0.034   3.510   3.879 -2.3721  0.3785 -1.0145
 9684SOL     OW30790   6.028   7.206   1.411 -0.4084 -0.2594 -0.0241
 9684SOL    HW130791   6.056   7.115   1.421 -0.4448 -0.2024  0.5957
 9684SOL    HW230792   6.046   7.246   1.496  1.0173  0.6904 -0.7272
 9685SOL     OW30793   4.081   1.431   2.598 -0.2623 -0.3806 -0.0014
 9685SOL    HW130794   4.028   1.474   2.531 -1.3840 -1.4611  0.1383
 9685SOL    HW230795   4.132   1.366   2.550 -0.2245 -0.3892  0.0506
 9686SOL     OW30796   6.503   0.890   2.017 -0.1445  0.3863 -0.1593
 9686SOL    HW130797   6.430   0.841   1.978  0.1567  0.1065 -0.3767
 9686SOL    HW230798   6.570   0.891   1.949 -0.5203  1.9990 -0.5502
 9687SOL     OW30799   1.468   9.505   4.113  0.3978  0.1238  0.0823
 9687SOL    HW130800   1.379   9.539   4.115  0.5898  0.6775 -0.5885
 9687SOL    HW230801   1.522   9.577   4.146  0.4493 -0.7375  1.9796
 9688SOL     OW30802   5.731   3.954   0.746  0.3513 -0.2492  0.0061
 9688SOL    HW130803   5.800   3.899   0.783  0.6984  0.9039  1.1571
 9688SOL    HW230804   5.673   3.973   0.820  0.6844  1.5589 -0.1556
 9689SOL     OW30805   5.660   5.743   6.784  0.1579  0.1291 -0.5092
 9689SOL    HW130806   5.728   5.793   6.740 -0.1751 -0.9842 -2.3896
 9689SOL    HW230807   5.701   5.659   6.803 -0.5299 -0.4019 -1.2792
 9690SOL     OW30808   6.336   6.723   4.828  0.1097 -0.2239  0.3956
 9690SOL    HW130809   6.428   6.742   4.811  0.2939 -0.6451  0.9112
 9690SOL    HW230810   6.293   6.808   4.826  0.0407 -0.2167 -2.5592
 9691SOL     OW30811   7.215   3.247   4.476 -0.6471  0.4186  0.4558
 9691SOL    HW130812   7.259   3.277   4.396  0.0948  1.6442  1.2827
 9691SOL    HW230813   7.224   3.152   4.474  0.3971  0.5111 -0.3382
 9692SOL     OW30814   3.649   9.082   2.473 -0.2292  0.1803 -0.2476
 9692SOL    HW130815   3.656   8.995   2.513 -0.6227  0.4027  0.3173
 9692SOL    HW230816   3.659   9.143   2.546  0.2616  0.6152 -0.6742
 9693SOL     OW30817   6.135   7.522   0.288 -0.0257 -0.5035  0.3189
 9693SOL    HW130818   6.092   7.458   0.344 -0.2912 -0.2551  0.4004
 9693SOL    HW230819   6.150   7.598   0.345  1.2109 -0.8573  0.5083
 9694SOL     OW30820   4.373   5.822   9.128  0.1527 -0.2243 -0.6770
 9694SOL    HW130821   4.412   5.884   9.066 -0.1234  0.5441 -0.0955
 9694SOL    HW230822   4.438   5.753   9.137  1.4509  1.0731  0.3565
 9695SOL     OW30823   9.480   9.406   4.270  0.2327  0.2449  0.1612
 9695SOL    HW130824   9.521   9.349   4.335 -0.4400 -1.4370 -0.8189
 9695SOL    HW230825   9.553   9.449   4.226  0.9744 -1.6872 -0.6570
 9696SOL     OW30826   8.276   3.049   3.083  0.0358  0.6170 -0.1789
 9696SOL    HW130827   8.260   3.032   2.990 -0.2820  0.2387 -0.0545
 9696SOL    HW230828   8.193   3.081   3.116 -0.5556 -1.4720  0.4950
 9697SOL     OW30829   9.220   6.491   2.408  0.1216  0.3845  0.5691
 9697SOL    HW130830   9.138   6.523   2.372 -0.6213 -0.7897  1.1611
 9697SOL    HW230831   9.210   6.500   2.503  0.0353 -1.1744  0.7335
 9698SOL     OW30832   5.331   4.829   6.451 -0.0279 -0.2788 -0.0317
 9698SOL    HW130833   5.290   4.794   6.372  0.8181 -0.9135 -0.2005
 9698SOL    HW230834   5.266   4.890   6.487 -1.3608 -1.6835  0.0224
 9699SOL     OW30835   8.508   2.685   5.610 -0.4606 -0.1929  0.6531
 9699SOL    HW130836   8.450   2.641   5.549  0.7461  1.5342 -1.9472
 9699SOL    HW230837   8.559   2.615   5.650  0.2875 -1.3861 -2.1084
 9700SOL     OW30838   1.709   9.576   3.237 -0.2085  0.1091  0.1906
 9700SOL    HW130839   1.676   9.623   3.160 -3.2152 -1.3518  0.4409
 9700SOL    HW230840   1.795   9.545   3.211 -0.8435  0.2448 -2.3388
 9701SOL     OW30841   7.168   0.355   3.966  0.2143 -0.6768  0.0225
 9701SOL    HW130842   7.091   0.356   4.023  0.3148 -1.3216  0.1740
 9701SOL    HW230843   7.214   0.274   3.989  1.3244  0.0498  0.4484
 9702SOL     OW30844   6.352   3.723   3.687  0.0469 -0.6224 -0.2001
 9702SOL    HW130845   6.358   3.783   3.612 -0.1309 -1.1883 -0.6776
 9702SOL    HW230846   6.289   3.656   3.659 -1.0464 -0.1222  0.9721
 9703SOL     OW30847   8.472   8.427   3.591 -0.0893 -0.0997  0.7413
 9703SOL    HW130848   8.414   8.353   3.574  0.9036 -0.6165 -0.6501
 9703SOL    HW230849   8.522   8.402   3.668  1.8826 -1.9986 -1.0389
 9704SOL     OW30850   9.578   6.770   1.004 -0.4872 -0.2598 -0.3632
 9704SOL    HW130851   9.525   6.719   1.065 -1.6481  1.9334  0.5614
 9704SOL    HW230852   9.667   6.737   1.017 -1.1909 -2.1496  0.0227
 9705SOL     OW30853   7.480   5.268   1.120 -0.2022 -0.3016  0.3443
 9705SOL    HW130854   7.530   5.227   1.050 -0.7380 -0.4629  0.0507
 9705SOL    HW230855   7.414   5.203   1.144 -0.1238 -0.1862  0.8897
 9706SOL     OW30856   5.107   5.110   0.171  0.2296 -0.2682 -0.7278
 9706SOL    HW130857   5.080   5.041   0.111 -0.4029 -0.8992  0.2597
 9706SOL    HW230858   5.049   5.184   0.152 -0.5004 -0.7396 -0.3666
 9707SOL     OW30859   6.838   3.890   0.800  0.7295  0.1407  0.2224
 9707SOL    HW130860   6.848   3.798   0.778  1.9686  0.0988  0.8743
 9707SOL    HW230861   6.747   3.898   0.830  0.3725 -0.6860 -0.6125
 9708SOL     OW30862   2.075   8.397   1.147 -0.1795 -0.3161  0.2491
 9708SOL    HW130863   2.042   8.434   1.066  3.2490 -0.5906 -1.4464
 9708SOL    HW230864   2.111   8.471   1.195 -0.0218 -0.4585  0.3542
 9709SOL     OW30865   3.595   5.231   8.636 -0.1081 -0.0171  0.1459
 9709SOL    HW130866   3.521   5.226   8.575  0.2726 -0.7017 -0.2755
 9709SOL    HW230867   3.576   5.164   8.702  0.9055 -1.3801 -0.8671
 9710SOL     OW30868   7.595   9.003   1.074 -0.0828  0.0796  0.1506
 9710SOL    HW130869   7.678   9.034   1.038 -1.0783  3.3039  0.3427
 9710SOL    HW230870   7.605   9.012   1.169 -0.3202 -0.4858  0.2342
 9711SOL     OW30871   7.950   4.012   7.305 -0.1882 -0.6565 -0.1860
 9711SOL    HW130872   8.015   3.953   7.344  0.1967  0.3603  0.7588
 9711SOL    HW230873   8.001   4.068   7.247 -0.0537  0.6716  1.1600
 9712SOL     OW30874   3.334   5.402   4.719  0.0387  0.2403  0.0646
 9712SOL    HW130875   3.393   5.377   4.647 -2.8262 -2.6143 -1.5746
 9712SOL    HW230876   3.300   5.318   4.751 -1.1250  1.6357  2.7260
 9713SOL     OW30877   1.100   2.132   1.767 -0.1313  1.2217 -0.8615
 9713SOL    HW130878   1.081   2.073   1.693 -0.1529  2.5034 -1.9177
 9713SOL    HW230879   1.094   2.076   1.844 -1.7045  0.1535 -1.6913
 9714SOL     OW30880   1.250   5.595   7.225  0.2800 -0.0949  0.6339
 9714SOL    HW130881   1.264   5.629   7.313 -1.8556  0.2765  0.8777
 9714SOL    HW230882   1.308   5.647   7.170  0.6639  0.5813  1.6359
 9715SOL     OW30883   6.416   2.231   3.612 -0.3428 -0.3669  0.3307
 9715SOL    HW130884   6.508   2.253   3.626 -0.6346  0.5047  1.0267
 9715SOL    HW230885   6.415   2.137   3.597  0.4506 -0.7625  2.4995
 9716SOL     OW30886   1.741   3.562   8.032  0.1722  0.2793  0.5075
 9716SOL    HW130887   1.655   3.542   8.069  0.6298  0.8252  1.9383
 9716SOL    HW230888   1.765   3.484   7.982 -0.9179 -0.0819  0.5366
 9717SOL     OW30889   4.846   5.048   9.518 -0.0936  0.1464 -0.2160
 9717SOL    HW130890   4.896   5.001   9.584 -0.4490 -0.0640 -0.0927
 9717SOL    HW230891   4.779   4.986   9.489  0.9600 -0.2913 -1.8563
 9718SOL     OW30892   6.447   2.908   1.356 -0.4650 -0.1956 -0.3954
 9718SOL    HW130893   6.480   2.891   1.444  1.7484 -1.2472 -1.3406
 9718SOL    HW230894   6.448   3.003   1.347  1.5538 -0.1400 -0.0237
 9719SOL     OW30895   8.146   4.532   3.057  0.1429 -0.8345  0.4431
 9719SOL    HW130896   8.216   4.586   3.019  0.2288 -1.3385 -0.1313
 9719SOL    HW230897   8.139   4.562   3.147 -0.9996  1.3692 -0.2954
 9720SOL     OW30898   3.973   0.516   9.036  0.3562  0.6102  0.3669
 9720SOL    HW130899   4.017   0.444   9.082 -0.3917  0.2306  0.5037
 9720SOL    HW230900   3.949   0.479   8.951 -1.9877 -0.0276  1.2482
 9721SOL     OW30901   1.078   5.706   6.004  0.1246  0.0613 -0.1296
 9721SOL    HW130902   1.097   5.772   6.071  1.1343 -0.6024  0.2643
 9721SOL    HW230903   1.130   5.630   6.029 -0.0706 -0.4703 -1.2464
 9722SOL     OW30904   7.068   7.036   5.439 -0.2688  0.1583  0.1990
 9722SOL    HW130905   7.071   6.995   5.525 -0.6909 -1.1938 -0.4063
 9722SOL    HW230906   7.144   7.094   5.437  1.0944 -1.5560  0.6304
 9723SOL     OW30907   5.392   0.737   6.448  0.4120 -0.3857  0.1019
 9723SOL    HW130908   5.343   0.709   6.526 -0.6501 -1.2588 -0.8380
 9723SOL    HW230909   5.346   0.816   6.419 -0.1940 -0.9557 -0.5270
 9724SOL     OW30910   9.590   1.280   0.025 -0.0794  0.2196  0.0887
 9724SOL    HW130911   9.585   1.357  -0.031 -1.5068  0.5958  0.7109
 9724SOL    HW230912   9.509   1.232   0.008 -1.2482  1.0642  2.8423
 9725SOL     OW30913   1.595   7.894   1.536  0.6230 -0.4480 -0.8957
 9725SOL    HW130914   1.589   7.831   1.607 -0.9940  0.4387 -0.1869
 9725SOL    HW230915   1.627   7.974   1.578  0.1253 -0.0592 -1.2454
 9726SOL     OW30916   3.657   8.499   0.528 -0.1022 -0.0057 -0.4838
 9726SOL    HW130917   3.735   8.540   0.564 -0.2406  0.1998 -0.4174
 9726SOL    HW230918   3.622   8.563   0.466 -0.4165  0.0533 -0.2482
 9727SOL     OW30919   2.066   8.238   5.003 -0.0939  0.0651  0.1982
 9727SOL    HW130920   2.063   8.158   5.055 -2.0174  0.2235  0.3743
 9727SOL    HW230921   2.113   8.301   5.058  1.8125 -0.9894 -0.1052
 9728SOL     OW30922   5.275   1.755   2.654 -0.1577  0.1169  0.6874
 9728SOL    HW130923   5.330   1.781   2.579  0.6188 -1.1301  0.7933
 9728SOL    HW230924   5.278   1.659   2.654 -1.7457  0.0380  1.1615
 9729SOL     OW30925   4.758   6.039   0.489  0.7752 -0.5502  0.3744
 9729SOL    HW130926   4.843   6.062   0.451  0.7728 -1.0748  0.0400
 9729SOL    HW230927   4.724   6.121   0.524  1.2500 -0.2641  0.1715
 9730SOL     OW30928   3.813   6.893   1.540 -0.0540 -0.5551  0.2459
 9730SOL    HW130929   3.893   6.923   1.584  0.1801 -1.6499  0.6287
 9730SOL    HW230930   3.765   6.845   1.608 -1.1709  0.3091  0.0850
 9731SOL     OW30931   7.849   2.021   2.646 -0.4485  0.3417 -0.0233
 9731SOL    HW130932   7.802   1.943   2.676  0.9069  0.2820  2.0691
 9731SOL    HW230933   7.926   1.987   2.600  1.4183  0.3127  2.9035
 9732SOL     OW30934   3.524   2.731   4.257 -0.5309  0.5694 -0.1274
 9732SOL    HW130935   3.616   2.753   4.274 -0.3834 -0.0380 -0.1179
 9732SOL    HW230936   3.487   2.811   4.219 -0.3008  1.2082  0.9488
 9733SOL     OW30937   5.771   5.062   5.496 -0.2467 -0.3292 -0.2613
 9733SOL    HW130938   5.813   5.137   5.454 -0.9704 -0.7815 -1.8867
 9733SOL    HW230939   5.678   5.085   5.495 -0.3162 -0.5649  0.6976
 9734SOL     OW30940   7.241   3.013   1.226  0.1471 -0.4219 -0.6545
 9734SOL    HW130941   7.305   3.009   1.297 -0.6301 -1.5927  0.0124
 9734SOL    HW230942   7.282   3.069   1.160  0.4146  1.6649  1.1628
 9735SOL     OW30943   8.787   0.522   9.242  0.3584 -0.3072  0.8171
 9735SOL    HW130944   8.816   0.473   9.166  0.3561  0.4294  0.3342
 9735SOL    HW230945   8.774   0.455   9.310 -2.0287 -1.3193 -0.4973
 9736SOL     OW30946   5.452   0.771   9.349 -0.3339 -0.5107  0.7155
 9736SOL    HW130947   5.434   0.684   9.383  0.1821 -1.7963 -2.0186
 9736SOL    HW230948   5.372   0.797   9.305  0.4626 -0.9993 -1.1126
 9737SOL     OW30949   9.498   6.206   5.122  0.0427 -0.1078 -0.0637
 9737SOL    HW130950   9.562   6.159   5.067 -0.8584 -0.0848 -1.1757
 9737SOL    HW230951   9.489   6.291   5.080 -0.3741  0.0532  0.3512
 9738SOL     OW30952   8.876   4.487   3.472 -0.5911  0.2376 -0.0764
 9738SOL    HW130953   8.890   4.534   3.390  3.0765  1.1061  0.8697
 9738SOL    HW230954   8.831   4.551   3.528  0.8584  1.2855 -0.0596
 9739SOL     OW30955   3.461   0.779   6.249  0.0048  0.4995  0.6759
 9739SOL    HW130956   3.534   0.819   6.202  0.6419 -0.2522  1.0111
 9739SOL    HW230957   3.493   0.693   6.276 -1.3271 -0.2371  0.0156
 9740SOL     OW30958   8.856   7.316   4.515  0.3214  0.3144  0.1635
 9740SOL    HW130959   8.884   7.281   4.599  0.8288  0.9092  0.2490
 9740SOL    HW230960   8.784   7.376   4.537 -0.4975 -0.5932  0.0248
 9741SOL     OW30961   1.248   4.562   3.377  0.2813 -0.3461 -0.3959
 9741SOL    HW130962   1.269   4.642   3.328  1.4268 -0.1112  0.4557
 9741SOL    HW230963   1.177   4.588   3.435  0.2868 -0.0908 -0.4992
 9742SOL     OW30964   5.449   9.217   1.482  0.2828  0.0049 -0.0961
 9742SOL    HW130965   5.515   9.158   1.517  0.5892  1.3420  1.7060
 9742SOL    HW230966   5.497   9.270   1.418  0.4498 -0.4018 -0.3130
 9743SOL     OW30967   0.788   2.471   3.891  0.2031 -0.3234 -0.1775
 9743SOL    HW130968   0.831   2.547   3.928 -1.6013  0.5737  0.2044
 9743SOL    HW230969   0.778   2.492   3.798 -0.0924 -0.1750 -0.1148
 9744SOL     OW30970   8.859   4.897   6.933  0.4433  0.2267  0.1491
 9744SOL    HW130971   8.779   4.894   6.985  0.1679  1.3907 -0.1724
 9744SOL    HW230972   8.882   4.990   6.929  1.6623 -0.0515 -0.0017
 9745SOL     OW30973   0.984   0.616   0.981  0.0665 -0.0479  0.0668
 9745SOL    HW130974   1.007   0.613   0.888  0.7208 -0.3294  0.2316
 9745SOL    HW230975   0.889   0.631   0.982  0.3757  2.3370 -0.6185
 9746SOL     OW30976   7.922   3.607   4.739 -0.7474 -0.6285 -0.0014
 9746SOL    HW130977   7.979   3.533   4.717 -1.1948 -1.1206  0.4730
 9746SOL    HW230978   7.853   3.569   4.794 -1.2062  0.0674 -0.0830
 9747SOL     OW30979   8.899   8.721   8.338 -0.0011  0.1569 -0.0616
 9747SOL    HW130980   8.916   8.752   8.249 -0.1459  0.7148  0.1046
 9747SOL    HW230981   8.948   8.639   8.343  0.6019  0.4826 -0.4187
 9748SOL     OW30982   2.573   3.976   6.333 -0.3574 -0.2691  0.2986
 9748SOL    HW130983   2.510   3.993   6.403 -1.3003 -1.8022 -0.1371
 9748SOL    HW230984   2.605   4.063   6.308  0.3424  0.2885  2.9108
 9749SOL     OW30985   0.732   1.127   6.223 -0.0520 -0.3195 -0.3326
 9749SOL    HW130986   0.774   1.212   6.231  0.2429 -0.4468 -0.5198
 9749SOL    HW230987   0.776   1.073   6.289  0.8469 -0.7579 -1.2669
 9750SOL     OW30988   5.943   8.923   8.512 -0.5695  0.3784 -0.4310
 9750SOL    HW130989   6.011   8.986   8.490  0.9898 -0.4095  1.8387
 9750SOL    HW230990   5.960   8.848   8.455 -1.0922  1.1029 -1.5860
 9751SOL     OW30991   5.135   8.430   3.101 -0.3631 -0.1809  0.6232
 9751SOL    HW130992   5.176   8.516   3.092 -0.4181 -0.2062  0.1160
 9751SOL    HW230993   5.106   8.408   3.013 -0.0723 -0.8582  0.6954
 9752SOL     OW30994   6.729   2.764   2.379  0.6287 -0.0609  0.2579
 9752SOL    HW130995   6.713   2.793   2.290  2.3985  1.1403  0.2843
 9752SOL    HW230996   6.816   2.722   2.376  2.0294  2.4501  1.8469
 9753SOL     OW30997   4.348   5.668   3.930  0.3952  0.2061 -0.7925
 9753SOL    HW130998   4.338   5.747   3.982  1.6372  0.2063 -0.5229
 9753SOL    HW230999   4.412   5.691   3.863 -0.5355 -0.0533 -1.8170
 9754SOL     OW31000   2.836   9.426   2.996  0.5690  0.1044  0.4096
 9754SOL    HW131001   2.797   9.367   3.061 -1.3450  0.7841 -0.0362
 9754SOL    HW231002   2.794   9.511   3.012  2.6965  1.2005  0.5521
 9755SOL     OW31003   4.176   4.807   6.031 -0.2548 -0.8026  0.1463
 9755SOL    HW131004   4.216   4.728   6.066  0.1249 -1.1903 -1.1084
 9755SOL    HW231005   4.136   4.780   5.948 -0.9023  0.1254  0.1310
 9756SOL     OW31006   8.476   0.580   4.903  0.3917 -0.3048  0.1184
 9756SOL    HW131007   8.480   0.588   4.808  0.5744  0.9167  0.2220
 9756SOL    HW231008   8.384   0.562   4.922  0.2661 -0.0664 -0.2584
 9757SOL     OW31009   2.448   9.014   5.595  0.0759  0.1197 -0.6342
 9757SOL    HW131010   2.436   9.064   5.676  1.2214 -0.7202  0.0953
 9757SOL    HW231011   2.466   9.081   5.529 -0.3881  0.7954 -0.0956
 9758SOL     OW31012   8.163   4.464   4.917  0.7026  0.1710 -0.2117
 9758SOL    HW131013   8.108   4.391   4.890  0.2939  0.4300 -0.1002
 9758SOL    HW231014   8.238   4.462   4.858  0.8890 -0.5679  0.0347
 9759SOL     OW31015   5.138   8.982   2.801 -0.2510 -0.4179 -0.0059
 9759SOL    HW131016   5.173   9.069   2.784 -0.3038 -0.7146 -1.8006
 9759SOL    HW231017   5.150   8.934   2.719 -1.4541 -1.6842  0.5112
 9760SOL     OW31018   8.581   1.066   4.898  0.4496 -0.7559 -0.0592
 9760SOL    HW131019   8.587   1.049   4.804  0.2678  1.7904 -0.5940
 9760SOL    HW231020   8.668   1.046   4.931  0.3579 -2.2420 -0.6295
 9761SOL     OW31021   3.146   1.619   1.975  0.1771  0.3165 -0.7666
 9761SOL    HW131022   3.215   1.559   1.947  0.8643  0.6263  0.1899
 9761SOL    HW231023   3.180   1.706   1.953 -1.3230  0.3578 -3.2459
 9762SOL     OW31024   4.878   0.733   1.434  0.5531 -0.4178 -0.2567
 9762SOL    HW131025   4.962   0.695   1.407  0.6878  0.8707 -1.8197
 9762SOL    HW231026   4.815   0.697   1.371 -0.2771 -2.0438  1.4191
 9763SOL     OW31027   6.223   7.453   4.573  0.0266 -0.2583  0.5058
 9763SOL    HW131028   6.295   7.426   4.630  1.5734  1.4776 -0.5387
 9763SOL    HW231029   6.191   7.534   4.611  1.5968  1.3590 -1.4141
 9764SOL     OW31030   4.944   0.236   1.914 -0.2201 -0.0728 -0.1442
 9764SOL    HW131031   4.958   0.196   1.829 -2.0288 -1.7499  0.2706
 9764SOL    HW231032   4.989   0.177   1.976  0.1737  0.5430  0.1684
 9765SOL     OW31033   3.240   9.045   8.456 -0.2753 -0.0307 -0.4278
 9765SOL    HW131034   3.194   9.100   8.519  0.8379 -0.3827  0.7186
 9765SOL    HW231035   3.190   8.964   8.454  0.6002 -0.6478  1.2833
 9766SOL     OW31036   8.300   3.732   0.547 -0.5669  0.0949 -0.3441
 9766SOL    HW131037   8.369   3.674   0.514  1.7061  1.2202  2.0271
 9766SOL    HW231038   8.305   3.722   0.642 -2.4234  1.6480 -0.0263
 9767SOL     OW31039   6.518   5.143   9.561  0.2340  0.2862  0.2504
 9767SOL    HW131040   6.510   5.175   9.651  0.3566 -0.6979  0.6201
 9767SOL    HW231041   6.611   5.125   9.550 -0.0566 -1.8343  0.7486
 9768SOL     OW31042   6.602   3.682   4.485  0.0747 -0.4966  0.5940
 9768SOL    HW131043   6.634   3.618   4.421  1.8157 -0.0090  0.9333
 9768SOL    HW231044   6.651   3.664   4.565  0.0247  0.7377  0.9312
 9769SOL     OW31045   0.428   2.617   7.872  0.0176  0.0270  0.0586
 9769SOL    HW131046   0.456   2.551   7.935 -0.1710  0.6841  0.8490
 9769SOL    HW231047   0.333   2.602   7.863 -0.1633  0.6366  0.8022
 9770SOL     OW31048   3.661   8.090   8.061  0.0762  0.5914  0.2206
 9770SOL    HW131049   3.670   8.130   8.147  2.6656  2.5153 -0.8128
 9770SOL    HW231050   3.743   8.042   8.048 -0.5078 -0.1389 -0.9505
 9771SOL     OW31051   4.714   1.378   8.563  0.2185 -0.6836 -0.1946
 9771SOL    HW131052   4.730   1.437   8.637  1.5694  0.4030 -1.3167
 9771SOL    HW231053   4.671   1.301   8.603  1.9113 -0.6230  1.9014
 9772SOL     OW31054   8.752   1.779   9.166 -0.2870  0.1380  0.3184
 9772SOL    HW131055   8.697   1.771   9.244  0.8940 -0.4910  1.1127
 9772SOL    HW231056   8.804   1.699   9.165  1.3049  1.1436  0.1449
 9773SOL     OW31057   3.777   0.065   7.161 -0.0268  0.4955  0.2216
 9773SOL    HW131058   3.870   0.069   7.142 -0.3402  3.1533 -1.1898
 9773SOL    HW231059   3.762   0.134   7.226 -1.0192  0.1462  0.3875
 9774SOL     OW31060   1.700   1.890   0.778 -0.1797 -0.2403 -0.0295
 9774SOL    HW131061   1.711   1.977   0.816  0.9110 -0.2770 -0.2362
 9774SOL    HW231062   1.632   1.901   0.711  0.4266  0.5982 -0.5187
 9775SOL     OW31063   1.966   2.444   7.570  0.3187  0.0549  0.0540
 9775SOL    HW131064   2.032   2.438   7.639 -0.1908 -0.7432  0.4749
 9775SOL    HW231065   1.898   2.382   7.595 -1.4063  1.9992  0.4896
 9776SOL     OW31066   2.042   1.708   1.967  0.2259  0.2204 -0.2967
 9776SOL    HW131067   1.957   1.703   2.011  0.7498 -1.4435  0.6476
 9776SOL    HW231068   2.060   1.801   1.959 -2.0815  0.6394 -1.3725
 9777SOL     OW31069   3.737   5.267   1.245 -0.0643 -0.6046  0.6998
 9777SOL    HW131070   3.817   5.284   1.196 -0.3688 -0.5629  0.2059
 9777SOL    HW231071   3.731   5.339   1.307  0.0753 -0.3974  0.4736
 9778SOL     OW31072   2.140   7.635   5.841  0.3575 -0.1549 -0.7558
 9778SOL    HW131073   2.140   7.544   5.811 -0.1274 -0.3127 -0.3024
 9778SOL    HW231074   2.066   7.640   5.903  2.6146 -0.4343  2.2083
 9779SOL     OW31075   8.340   3.993   4.401 -0.0086  0.3652  0.7772
 9779SOL    HW131076   8.335   4.073   4.453  1.7779  0.3922  0.9697
 9779SOL    HW231077   8.394   4.016   4.325  0.6927 -0.6966  0.9309
 9780SOL     OW31078   7.687   9.334   7.210 -0.3079 -0.1321  0.5405
 9780SOL    HW131079   7.721   9.245   7.201  0.5806  0.4169 -3.9961
 9780SOL    HW231080   7.611   9.336   7.152  0.4384  2.3167 -0.4598
 9781SOL     OW31081   2.394   6.900   1.322 -0.0672  0.3147  0.5843
 9781SOL    HW131082   2.386   6.875   1.230 -1.1426 -0.6769  0.9130
 9781SOL    HW231083   2.422   6.991   1.321 -2.6823  1.1862 -0.7557
 9782SOL     OW31084   9.490   5.523   4.208  0.2132 -0.1442  0.1591
 9782SOL    HW131085   9.549   5.448   4.200 -0.6643 -0.7628 -0.6576
 9782SOL    HW231086   9.546   5.594   4.241  0.9287 -1.2997  1.5322
 9783SOL     OW31087   2.945   2.126   1.574  0.0787  0.1655 -0.4078
 9783SOL    HW131088   2.985   2.199   1.621  0.3786 -1.2001  1.5920
 9783SOL    HW231089   3.015   2.061   1.567  0.0670  0.3261 -2.9154
 9784SOL     OW31090   3.714   2.537   8.049  1.0879  0.1516 -0.0446
 9784SOL    HW131091   3.664   2.568   7.973  0.6348  1.8178  0.8827
 9784SOL    HW231092   3.656   2.474   8.092 -0.2084  1.9224  0.9134
 9785SOL     OW31093   1.858   4.211   4.422 -0.1029 -0.2577  0.4856
 9785SOL    HW131094   1.846   4.134   4.366 -0.5251  1.5504 -2.0680
 9785SOL    HW231095   1.933   4.257   4.384  0.0096  0.7409  1.8418
 9786SOL     OW31096   9.473   3.416   4.313 -0.4529  0.1116  0.3852
 9786SOL    HW131097   9.382   3.430   4.287 -0.5461 -0.8151  0.1854
 9786SOL    HW231098   9.474   3.434   4.407 -0.6129  1.1259  0.2141
 9787SOL     OW31099   6.502   6.274   2.938 -0.4158  0.4577  0.2550
 9787SOL    HW131100   6.455   6.355   2.920  0.1262  0.9506  0.9607
 9787SOL    HW231101   6.513   6.233   2.853 -1.3373  0.7638 -0.0251
 9788SOL     OW31102   3.796   1.862   2.961 -0.5270  0.0715  0.1017
 9788SOL    HW131103   3.771   1.953   2.947 -0.3926 -0.1621 -1.9170
 9788SOL    HW231104   3.714   1.813   2.957 -0.4521 -0.0311 -0.2707
 9789SOL     OW31105   2.953   7.933   4.815 -0.0034 -0.8489  0.0136
 9789SOL    HW131106   3.029   7.929   4.873  0.6932 -2.8004 -0.9256
 9789SOL    HW231107   2.878   7.937   4.874  0.7483 -1.2187  1.0200
 9790SOL     OW31108   6.387   5.902   2.518  0.1199  0.2509  0.2801
 9790SOL    HW131109   6.354   5.874   2.433 -0.7435  2.5658 -0.2113
 9790SOL    HW231110   6.342   5.845   2.581  2.2714 -2.8869 -0.7652
 9791SOL     OW31111   4.006   7.124   9.072  0.8907 -0.1324  0.0655
 9791SOL    HW131112   3.948   7.070   9.019  0.8609 -0.9223  0.8734
 9791SOL    HW231113   3.956   7.205   9.087  1.0776  0.2821 -1.4477
 9792SOL     OW31114   0.025   0.019   0.325 -0.6355  0.4585  0.4107
 9792SOL    HW131115   0.006  -0.059   0.274 -2.8023  1.3308 -0.2457
 9792SOL    HW231116   0.023  -0.010   0.416  3.5543 -1.1762  0.1855
 9793SOL     OW31117   5.758   9.196   4.925  0.5067  0.0400 -0.6864
 9793SOL    HW131118   5.666   9.180   4.946  0.7445  0.5519  0.8383
 9793SOL    HW231119   5.756   9.268   4.861 -0.2116 -1.3315 -2.3027
 9794SOL     OW31120   6.699   6.302   1.169 -0.0955  0.0214 -0.0435
 9794SOL    HW131121   6.668   6.377   1.221 -2.3176 -0.9197  0.0811
 9794SOL    HW231122   6.713   6.232   1.233  1.9301  0.2308 -0.1664
 9795SOL     OW31123   1.459   1.847   0.664 -0.1907  0.2772 -0.3664
 9795SOL    HW131124   1.385   1.903   0.684  0.4120  0.9956 -0.1020
 9795SOL    HW231125   1.449   1.772   0.723  0.2777  1.2423  0.9853
 9796SOL     OW31126   6.680   6.076   1.326 -0.2823  0.8675 -0.5257
 9796SOL    HW131127   6.589   6.093   1.350 -0.7502 -0.9980 -0.8346
 9796SOL    HW231128   6.724   6.060   1.409 -1.1492 -2.1405 -0.5321
 9797SOL     OW31129   3.335   6.049   6.667  0.1940 -0.0349 -0.2210
 9797SOL    HW131130   3.380   6.128   6.698  0.7393 -0.4978  0.1723
 9797SOL    HW231131   3.322   5.996   6.745 -0.9793  0.0444 -0.3382
 9798SOL     OW31132   3.591   5.512   9.366 -1.0585 -0.3009 -0.4056
 9798SOL    HW131133   3.561   5.501   9.456 -1.5460  2.5521 -0.1228
 9798SOL    HW231134   3.616   5.424   9.338 -2.4256 -1.5362  1.9455
 9799SOL     OW31135   1.197   9.489   0.732  0.1630 -0.2418  0.0243
 9799SOL    HW131136   1.175   9.437   0.654 -0.4460  0.5010 -0.3114
 9799SOL    HW231137   1.114   9.529   0.758  0.2544 -0.8700  1.3681
 9800SOL     OW31138   7.210   7.922   1.175  0.2914 -0.5989 -0.6010
 9800SOL    HW131139   7.218   7.968   1.091  0.4528 -1.0597 -0.8426
 9800SOL    HW231140   7.253   7.838   1.160  0.6463 -0.5436  0.0530
 9801SOL     OW31141   0.928   3.255   8.193  0.0379 -0.1699 -0.0785
 9801SOL    HW131142   0.887   3.170   8.176 -0.4582 -0.1311  0.8736
 9801SOL    HW231143   1.022   3.235   8.199  0.0668 -0.4312 -1.1621
 9802SOL     OW31144   0.576   6.465   5.303 -0.6473 -0.2332 -0.1283
 9802SOL    HW131145   0.644   6.528   5.327 -0.0671 -0.4333 -1.1936
 9802SOL    HW231146   0.531   6.446   5.385  1.6301 -1.3350  0.9669
 9803SOL     OW31147   3.022   9.569   6.644  0.4755  0.1466  0.3929
 9803SOL    HW131148   2.991   9.574   6.735 -1.9978  0.0682 -0.3790
 9803SOL    HW231149   3.043   9.477   6.631 -2.7264 -0.6220 -0.1106
 9804SOL     OW31150   7.117   5.524   7.966 -0.1364 -0.7097  0.9218
 9804SOL    HW131151   7.116   5.483   8.052 -2.8430 -0.9983  0.8133
 9804SOL    HW231152   7.097   5.616   7.982 -0.2996 -0.6900  0.6172
 9805SOL     OW31153   0.565   4.246   2.039 -0.3048 -0.2297  0.1941
 9805SOL    HW131154   0.503   4.250   1.966  1.2049  1.2576 -1.0865
 9805SOL    HW231155   0.651   4.234   1.997  0.6304  0.8733  1.6887
 9806SOL     OW31156   6.216   0.004   0.134  0.3523  0.3322  0.8700
 9806SOL    HW131157   6.288   0.066   0.144  0.2772  0.3757  1.1616
 9806SOL    HW231158   6.237  -0.067   0.195  0.6087 -0.0931  0.2970
 9807SOL     OW31159   2.548   1.053   3.590 -0.0938  0.3365 -0.2117
 9807SOL    HW131160   2.506   1.086   3.669 -0.1925  0.4250 -0.3009
 9807SOL    HW231161   2.637   1.031   3.617  0.5269  2.3046 -0.5401
 9808SOL     OW31162   7.671   5.493   4.828 -0.2420  0.1615 -0.1233
 9808SOL    HW131163   7.700   5.515   4.739 -2.0670  0.5381 -0.6899
 9808SOL    HW231164   7.750   5.466   4.874  0.7784  0.0885 -1.8323
 9809SOL     OW31165   5.256   4.459   5.616  0.0201 -0.0143  0.1546
 9809SOL    HW131166   5.343   4.443   5.651 -0.9248 -0.7085  2.4148
 9809SOL    HW231167   5.230   4.543   5.653 -0.4906 -0.0999 -0.0011
 9810SOL     OW31168   5.815   1.528   4.276  0.2531  0.6113 -0.2020
 9810SOL    HW131169   5.794   1.445   4.234  1.3541 -0.3383  1.0207
 9810SOL    HW231170   5.853   1.503   4.360 -2.1053  2.4102  1.5445
 9811SOL     OW31171   6.367   5.748   4.690 -0.1817 -0.2929 -0.5011
 9811SOL    HW131172   6.403   5.766   4.604 -0.2339  0.2561 -0.4150
 9811SOL    HW231173   6.347   5.655   4.689 -0.2599 -0.2744 -1.1101
 9812SOL     OW31174   4.899   3.155   3.813 -0.0884 -0.2526  0.0806
 9812SOL    HW131175   4.887   3.088   3.746  2.1966  0.6339 -1.3612
 9812SOL    HW231176   4.892   3.238   3.764  2.5915  0.4045  0.6479
 9813SOL     OW31177   0.348   1.545   4.384  0.6043 -0.0712  0.4221
 9813SOL    HW131178   0.320   1.463   4.426 -1.0544  0.9869  1.4579
 9813SOL    HW231179   0.364   1.521   4.293 -2.1994 -1.1096  0.1210
 9814SOL     OW31180   7.832   7.433   2.583 -0.0044 -0.4189 -0.4511
 9814SOL    HW131181   7.777   7.480   2.646 -0.2196 -0.9248 -0.2583
 9814SOL    HW231182   7.769   7.390   2.524  0.1830 -1.0123 -0.2197
 9815SOL     OW31183   4.674   9.163   4.774  0.0664 -0.2941  0.9663
 9815SOL    HW131184   4.750   9.216   4.751  0.7263 -1.6737 -0.1971
 9815SOL    HW231185   4.641   9.203   4.855  2.5871 -0.2126  2.0584
 9816SOL     OW31186   1.769   1.078   7.288 -0.8047 -0.0966 -0.9042
 9816SOL    HW131187   1.831   1.147   7.315 -0.6877 -0.3972 -0.3953
 9816SOL    HW231188   1.797   1.001   7.337 -1.2826 -0.3636 -1.0530
 9817SOL     OW31189   3.754   5.383   5.301  0.5753 -0.8593  0.6485
 9817SOL    HW131190   3.726   5.463   5.346 -0.5477 -0.6152 -0.4325
 9817SOL    HW231191   3.829   5.411   5.248 -0.5075 -0.1998 -0.6151
 9818SOL     OW31192   4.112   5.672   4.369 -0.6817 -0.1525  0.4722
 9818SOL    HW131193   4.191   5.644   4.323  0.2977 -1.0129  2.5371
 9818SOL    HW231194   4.079   5.745   4.317  1.5565  0.3505 -0.3787
 9819SOL     OW31195   7.267   4.103   9.395  0.4347  0.0855 -0.1588
 9819SOL    HW131196   7.329   4.126   9.464  0.4715  1.4933 -0.6209
 9819SOL    HW231197   7.223   4.024   9.427  1.2830  0.0246  0.9203
 9820SOL     OW31198   3.852   7.021   6.684  0.1663  0.5960  0.2959
 9820SOL    HW131199   3.840   6.963   6.759 -1.1389  0.7467  0.2309
 9820SOL    HW231200   3.783   7.087   6.694 -0.6739  0.0553 -1.5530
 9821SOL     OW31201   7.396   1.102   0.810 -0.3521  0.4826  0.0246
 9821SOL    HW131202   7.317   1.157   0.806 -0.4021  0.4016 -0.1070
 9821SOL    HW231203   7.385   1.039   0.739  0.5774  1.4718 -1.0396
 9822SOL     OW31204   0.007   5.323   7.971  0.0584 -0.6258  0.3521
 9822SOL    HW131205  -0.083   5.291   7.961  0.0070 -0.0219 -1.3278
 9822SOL    HW231206   0.054   5.286   7.896  0.7019  0.7894  0.0284
 9823SOL     OW31207   1.939   0.263   8.741 -0.3971  0.0010  0.4726
 9823SOL    HW131208   1.988   0.259   8.823  0.0264  0.7135  0.2614
 9823SOL    HW231209   1.942   0.355   8.715 -0.6877 -0.1824 -0.2398
 9824SOL     OW31210   2.048   1.521   8.296  0.2281  0.1152  0.0042
 9824SOL    HW131211   2.079   1.593   8.241 -0.5690  0.7147  0.3269
 9824SOL    HW231212   2.114   1.515   8.366 -1.5155  3.0512  2.1347
 9825SOL     OW31213   8.532   2.036   9.409 -0.5902  0.0770  0.3069
 9825SOL    HW131214   8.519   2.024   9.315 -0.1620  0.1285  0.2399
 9825SOL    HW231215   8.458   1.990   9.449  0.0153 -1.2222 -0.0042
 9826SOL     OW31216   4.563   9.017   8.218 -0.2448 -0.0784 -0.1286
 9826SOL    HW131217   4.623   9.069   8.271 -0.0835  0.1473 -0.5264
 9826SOL    HW231218   4.621   8.965   8.161 -0.4209  0.0147 -0.3944
 9827SOL     OW31219   3.905   7.963   8.021  0.6766 -0.1929 -0.3066
 9827SOL    HW131220   3.898   7.894   8.087  1.5826  0.1468  0.1603
 9827SOL    HW231221   3.966   7.928   7.956  1.1364  0.1462 -0.0706
 9828SOL     OW31222   1.363   7.930   3.319  0.7398 -0.8720 -0.0934
 9828SOL    HW131223   1.287   7.986   3.302  1.1155 -1.3240 -4.0657
 9828SOL    HW231224   1.420   7.984   3.373 -1.1173  0.5686  0.5528
 9829SOL     OW31225   4.751   9.250   6.006  0.2903 -0.1021 -0.1994
 9829SOL    HW131226   4.773   9.298   6.085  0.2132 -0.2686 -0.0749
 9829SOL    HW231227   4.666   9.283   5.980  0.6669  0.5155 -0.6605
 9830SOL     OW31228   0.518   8.282   1.077 -0.5474  0.2685 -0.8484
 9830SOL    HW131229   0.475   8.367   1.067  1.6589  1.5779  0.2121
 9830SOL    HW231230   0.526   8.270   1.171  0.8131 -0.2325 -1.0159
 9831SOL     OW31231   6.730   3.351   5.204 -0.1011  0.2823 -0.1399
 9831SOL    HW131232   6.732   3.256   5.192  0.5063  0.1615  0.7524
 9831SOL    HW231233   6.804   3.384   5.153 -1.6835  0.5648 -2.3826
 9832SOL     OW31234   8.054   4.076   5.479  0.1229 -0.3902 -0.1321
 9832SOL    HW131235   8.017   4.141   5.419  1.1756 -0.2429 -0.6365
 9832SOL    HW231236   7.978   4.030   5.514 -0.5544  0.0916 -0.9362
 9833SOL     OW31237   4.571   1.454   2.117 -0.5751 -0.2214 -0.1174
 9833SOL    HW131238   4.484   1.433   2.152  0.0720 -0.2089  1.5844
 9833SOL    HW231239   4.629   1.449   2.192  0.5763  1.9703 -0.7704
 9834SOL     OW31240   1.319   0.386   2.802 -0.7224  0.4117  0.5208
 9834SOL    HW131241   1.286   0.449   2.866 -2.1175  0.4975 -0.2414
 9834SOL    HW231242   1.274   0.305   2.824 -0.9785  0.3678 -0.1600
 9835SOL     OW31243   0.866   0.323   0.665 -0.1983 -0.0113  0.3374
 9835SOL    HW131244   0.827   0.304   0.750 -1.7043 -0.1407 -0.3511
 9835SOL    HW231245   0.948   0.368   0.685  0.3195 -1.5733  1.8784
 9836SOL     OW31246   1.781   2.912   8.041  0.7746 -0.4756 -0.4817
 9836SOL    HW131247   1.707   2.861   8.007 -0.2636 -0.2138  1.2993
 9836SOL    HW231248   1.748   3.001   8.047  0.8978 -0.5258  1.2244
 9837SOL     OW31249   5.104   4.984   2.703  0.6580  0.5207 -0.1427
 9837SOL    HW131250   5.128   5.023   2.619  1.2480  0.3971 -0.0411
 9837SOL    HW231251   5.009   4.993   2.708  0.6610  0.8744 -0.6492
 9838SOL     OW31252   7.612   4.568   1.945 -0.1864  0.5270 -0.1006
 9838SOL    HW131253   7.650   4.656   1.945  0.3193  0.3255  1.1915
 9838SOL    HW231254   7.540   4.572   2.007 -1.3806  0.4957 -1.4233
 9839SOL     OW31255   1.016   9.609   7.173  0.0447 -0.2771  0.6168
 9839SOL    HW131256   1.073   9.541   7.138  1.0616  0.6453  0.4077
 9839SOL    HW231257   0.938   9.605   7.119  0.2656 -1.0056  0.3417
 9840SOL     OW31258   2.777   5.874   6.600  0.0970 -0.3192 -0.2436
 9840SOL    HW131259   2.852   5.930   6.617 -1.2789  1.0720  1.6911
 9840SOL    HW231260   2.801   5.789   6.638 -0.2985  0.9079  3.1100
 9841SOL     OW31261   9.004   5.055   8.016 -0.2168 -0.0116  0.1001
 9841SOL    HW131262   8.959   5.018   8.092  0.4142 -0.5738  0.2090
 9841SOL    HW231263   8.971   5.145   8.010 -1.6030 -0.5134 -0.0419
 9842SOL     OW31264   8.206   8.767   1.114  0.3686 -0.1789  0.4991
 9842SOL    HW131265   8.297   8.750   1.088  0.9167  0.7888  1.6632
 9842SOL    HW231266   8.161   8.684   1.099  1.1135 -0.3049 -1.3828
 9843SOL     OW31267   2.677   1.167   8.907  0.3462  0.2266 -0.2329
 9843SOL    HW131268   2.589   1.141   8.933  0.3384 -1.1379 -1.4993
 9843SOL    HW231269   2.688   1.254   8.945 -1.7046  0.6003 -0.3771
 9844SOL     OW31270   3.592   9.221   5.419  0.1012  0.0332  0.2512
 9844SOL    HW131271   3.517   9.197   5.473 -0.2046 -1.7521 -0.8777
 9844SOL    HW231272   3.556   9.230   5.331  0.7171  2.1635  0.1628
 9845SOL     OW31273   2.556   8.650   5.020 -0.1672 -0.1134  0.4119
 9845SOL    HW131274   2.646   8.665   5.049 -0.9450  1.0764  2.4764
 9845SOL    HW231275   2.503   8.694   5.087 -2.2273  1.3824 -2.0410
 9846SOL     OW31276   8.340   4.683   2.664 -0.0382 -0.0785  0.0684
 9846SOL    HW131277   8.301   4.770   2.676  0.9463  0.1326  2.2020
 9846SOL    HW231278   8.265   4.625   2.652 -0.7808  0.9028 -0.1734
 9847SOL     OW31279   7.292   4.862   4.334 -0.5124  0.2453  0.6597
 9847SOL    HW131280   7.364   4.808   4.300  1.6322  1.6994  2.5789
 9847SOL    HW231281   7.219   4.846   4.274  1.0620 -2.1315 -0.7775
 9848SOL     OW31282   0.765   5.330   0.151  0.7346 -0.5365 -0.4020
 9848SOL    HW131283   0.757   5.383   0.072 -0.1793 -0.1104 -0.0402
 9848SOL    HW231284   0.830   5.377   0.204  0.7964 -0.4152 -0.5846
 9849SOL     OW31285   0.577   2.017   8.874  0.3254 -0.0494 -0.2113
 9849SOL    HW131286   0.568   1.962   8.952  0.1403  1.0384  0.5554
 9849SOL    HW231287   0.626   2.093   8.904 -1.0162  1.0920 -0.7749
 9850SOL     OW31288   4.690   4.589   3.589  0.3827  0.8518 -0.1286
 9850SOL    HW131289   4.630   4.517   3.570  1.5538  0.3630 -2.3844
 9850SOL    HW231290   4.740   4.601   3.508  2.3076  2.2039  1.1497
 9851SOL     OW31291   2.401   4.903   2.844 -0.2232 -0.2840 -0.1608
 9851SOL    HW131292   2.370   4.907   2.934 -0.9438 -1.0575 -0.3608
 9851SOL    HW231293   2.338   4.956   2.794 -0.9776 -1.4496 -0.4900
 9852SOL     OW31294   3.152   5.946   2.556  0.0145 -0.2723  0.2492
 9852SOL    HW131295   3.108   5.862   2.569 -3.5704  1.5209  1.0506
 9852SOL    HW231296   3.153   5.986   2.643  1.0109  0.7790 -0.2217
 9853SOL     OW31297   8.572   6.736   3.670 -0.0314  0.2229 -0.1659
 9853SOL    HW131298   8.559   6.650   3.710  1.3039 -0.4253 -1.0417
 9853SOL    HW231299   8.514   6.736   3.594  1.7945 -0.9832 -1.6536
 9854SOL     OW31300   4.985   9.070   5.350 -0.0376 -0.2301  0.1795
 9854SOL    HW131301   4.990   8.975   5.364  0.9250 -0.0578  1.1860
 9854SOL    HW231302   4.910   9.098   5.403 -0.1387 -0.3854  0.1211
 9855SOL     OW31303   7.994   2.579   0.910  0.0118 -0.4773  0.5187
 9855SOL    HW131304   7.950   2.654   0.872 -0.3864 -0.7279  0.4737
 9855SOL    HW231305   8.051   2.546   0.841  2.3192  1.4256  1.4036
 9856SOL     OW31306   0.449   9.531   9.361 -0.2464  0.1386 -0.2327
 9856SOL    HW131307   0.462   9.457   9.419  0.5956  0.3953 -0.0837
 9856SOL    HW231308   0.461   9.496   9.273  1.1298  0.2838 -0.1200
 9857SOL     OW31309   2.962   5.639   7.789 -0.0319 -0.1312  0.3969
 9857SOL    HW131310   3.011   5.705   7.739 -0.6926  0.4234  0.4789
 9857SOL    HW231311   3.015   5.560   7.780 -1.2844 -0.7276 -3.2440
 9858SOL     OW31312   0.744   8.610   4.156 -0.2801 -0.1446 -0.2974
 9858SOL    HW131313   0.703   8.577   4.076 -0.5182 -1.7739  0.4490
 9858SOL    HW231314   0.756   8.704   4.140 -2.3737 -0.0056 -1.3613
 9859SOL     OW31315   7.100   7.544   6.907 -0.6947 -0.3730 -0.4722
 9859SOL    HW131316   7.154   7.489   6.851  1.6113  0.7853  0.4923
 9859SOL    HW231317   7.146   7.545   6.991 -2.4346  0.3775  0.5294
 9860SOL     OW31318   1.788   2.701   6.821 -0.1075 -0.0662 -0.6187
 9860SOL    HW131319   1.748   2.745   6.896  0.0346  0.7025 -0.9919
 9860SOL    HW231320   1.854   2.762   6.789  3.1783 -2.2190  1.4246
 9861SOL     OW31321   2.096   7.794   8.870  0.1844  0.1159  0.0987
 9861SOL    HW131322   2.165   7.851   8.905 -1.3706  1.9947  0.3103
 9861SOL    HW231323   2.074   7.735   8.942  2.5699 -1.5659 -0.4684
 9862SOL     OW31324   8.606   0.066   2.528 -0.1524  0.1386 -0.1073
 9862SOL    HW131325   8.530   0.047   2.583 -0.3968 -1.9937 -1.1023
 9862SOL    HW231326   8.617   0.161   2.535 -0.8896  0.0992  2.6403
 9863SOL     OW31327   9.218   6.430   7.973  0.1794  0.1438  0.1498
 9863SOL    HW131328   9.131   6.460   7.998  1.0835  0.8197  2.8082
 9863SOL    HW231329   9.271   6.509   7.968  0.7577 -0.2911 -1.1346
 9864SOL     OW31330   3.792   2.110   8.439 -0.9405 -0.6073 -0.1204
 9864SOL    HW131331   3.851   2.175   8.477  0.3960 -1.1474 -1.1958
 9864SOL    HW231332   3.850   2.042   8.404 -2.2164 -1.3629 -0.8470
 9865SOL     OW31333   5.827   1.144   4.166  0.2330  0.2923 -0.4197
 9865SOL    HW131334   5.919   1.150   4.139 -0.2807 -0.5258 -2.4633
 9865SOL    HW231335   5.781   1.204   4.108 -0.4320  1.6898  1.4236
 9866SOL     OW31336   4.784   8.580   6.705 -0.1403  0.3095 -0.1997
 9866SOL    HW131337   4.824   8.494   6.723 -0.5558  0.0783 -0.3657
 9866SOL    HW231338   4.805   8.597   6.613  1.1466  1.0410  0.2053
 9867SOL     OW31339   4.950   8.360   8.165  0.6892  0.3251 -0.5158
 9867SOL    HW131340   4.898   8.404   8.232 -0.7552 -0.3387 -1.1618
 9867SOL    HW231341   5.039   8.393   8.178  0.5103  0.0455  1.8640
 9868SOL     OW31342   2.795   2.277   6.880  0.6640 -0.1809  0.0211
 9868SOL    HW131343   2.813   2.271   6.786  1.6890  0.3447  0.1661
 9868SOL    HW231344   2.867   2.330   6.915 -0.4720  0.8530  0.8895
 9869SOL     OW31345   5.777   4.209   7.410  0.0916  0.0662  0.2906
 9869SOL    HW131346   5.700   4.239   7.363  0.3429  0.7391  0.3005
 9869SOL    HW231347   5.773   4.254   7.495  1.1101  1.0468 -0.1515
 9870SOL     OW31348   3.066   8.382   8.164 -0.1653  0.0890  0.1431
 9870SOL    HW131349   2.997   8.447   8.150 -1.4087 -0.7981  1.7921
 9870SOL    HW231350   3.048   8.313   8.100 -1.5470 -0.6695  1.2978
 9871SOL     OW31351   3.841   8.650   8.925  0.0229  0.1975  0.2209
 9871SOL    HW131352   3.748   8.626   8.923 -0.0473  0.2751  1.8829
 9871SOL    HW231353   3.865   8.655   8.832 -1.6283  0.1968 -0.2483
 9872SOL     OW31354   4.605   8.930   5.365  0.5053  0.3652  0.6534
 9872SOL    HW131355   4.612   8.835   5.354 -0.2096  0.3966 -0.1625
 9872SOL    HW231356   4.574   8.941   5.455 -1.4994 -0.2940  0.1020
 9873SOL     OW31357   7.632   3.240   1.184 -0.4506  0.1787 -0.0109
 9873SOL    HW131358   7.588   3.283   1.110 -1.0929 -1.1930 -0.4451
 9873SOL    HW231359   7.717   3.214   1.148 -0.0724  1.0221  0.2444
 9874SOL     OW31360   9.573   0.274   0.180 -0.0189  0.0453  0.3174
 9874SOL    HW131361   9.610   0.187   0.196  0.8087  0.3066 -0.1192
 9874SOL    HW231362   9.537   0.300   0.265  1.6611  0.1703  1.0390
 9875SOL     OW31363   6.794   6.160   2.373  0.2061  0.1154 -0.5363
 9875SOL    HW131364   6.737   6.183   2.300 -1.2807  0.5886  0.7222
 9875SOL    HW231365   6.751   6.087   2.416  1.1707 -0.2970 -0.2404
 9876SOL     OW31366   4.515   7.362   0.965  0.8913  0.2190  0.4260
 9876SOL    HW131367   4.610   7.360   0.970  1.0913  0.1072 -2.0529
 9876SOL    HW231368   4.487   7.273   0.984  1.5837 -0.5905 -2.0595
 9877SOL     OW31369   2.284   2.308   8.210 -0.1344 -0.1666 -0.4340
 9877SOL    HW131370   2.348   2.237   8.209  0.0152 -0.0510  0.4878
 9877SOL    HW231371   2.202   2.267   8.181  0.4038 -0.2418 -1.9531
 9878SOL     OW31372   0.133   2.713   7.232  0.1700  0.5356 -0.6293
 9878SOL    HW131373   0.149   2.803   7.205 -1.2955  0.8002 -0.7021
 9878SOL    HW231374   0.038   2.701   7.222  0.1958 -0.6986  0.3130
 9879SOL     OW31375   3.131   7.978   8.818  0.3750 -0.2869  0.0563
 9879SOL    HW131376   3.201   7.929   8.774  1.0975  0.6143  0.1705
 9879SOL    HW231377   3.059   7.916   8.824  1.1321 -1.2166 -0.1500
 9880SOL     OW31378   2.389   4.809   2.549  0.0456  0.1861  0.5220
 9880SOL    HW131379   2.410   4.840   2.637 -0.4698  1.1051  0.3335
 9880SOL    HW231380   2.448   4.858   2.492  0.8435 -0.8867  0.3889
 9881SOL     OW31381   6.070   8.234   2.329 -0.3710  0.0789 -0.1598
 9881SOL    HW131382   6.114   8.167   2.381 -0.6719  0.0506  0.0625
 9881SOL    HW231383   6.138   8.269   2.271 -0.5337 -1.4067 -1.2858
 9882SOL     OW31384   8.993   7.873   7.656  0.1508  0.2437  0.0966
 9882SOL    HW131385   8.961   7.917   7.734  0.5553  1.3153 -0.3305
 9882SOL    HW231386   9.053   7.806   7.688 -1.0497 -0.5280  0.7940
 9883SOL     OW31387   5.157   6.932   3.659  0.6922  0.1612 -0.0789
 9883SOL    HW131388   5.152   6.869   3.730 -0.1100  0.9829  0.6181
 9883SOL    HW231389   5.093   6.901   3.594  0.5027  0.1031  0.1346
 9884SOL     OW31390   3.790   3.362   8.516  0.3665 -0.3077 -0.8069
 9884SOL    HW131391   3.831   3.355   8.430 -0.1677  1.6048 -1.2592
 9884SOL    HW231392   3.854   3.409   8.569  0.0695 -0.1493 -0.5881
 9885SOL     OW31393   6.092   2.719   4.334  0.1835  0.4197  0.8034
 9885SOL    HW131394   6.137   2.666   4.268 -0.0362  0.1535  0.8683
 9885SOL    HW231395   6.138   2.699   4.416  0.2120  0.4596  0.7970
 9886SOL     OW31396   1.468   3.668   3.617  0.0227  0.2604  0.0068
 9886SOL    HW131397   1.385   3.650   3.660 -1.2213  0.2829 -2.2471
 9886SOL    HW231398   1.483   3.761   3.633 -1.2286  0.6401 -0.8869
 9887SOL     OW31399   0.352   5.017   9.040  0.2901  0.4047 -0.3496
 9887SOL    HW131400   0.264   5.047   9.060  0.5186 -0.0046  1.4219
 9887SOL    HW231401   0.339   4.943   8.980 -0.3894  2.1249 -2.4715
 9888SOL     OW31402   6.756   5.780   2.206  0.2769  0.5089 -0.4485
 9888SOL    HW131403   6.730   5.829   2.285  0.4159  0.9422 -0.6697
 9888SOL    HW231404   6.700   5.703   2.207  0.8004  0.1194  0.4954
 9889SOL     OW31405   0.435   6.969   7.064  0.5459  0.9097  0.7037
 9889SOL    HW131406   0.416   6.998   7.153  1.1434  0.2832  1.0445
 9889SOL    HW231407   0.530   6.959   7.062  0.4287 -0.2729  0.3765
 9890SOL     OW31408   7.915   6.700   2.868 -0.2361  0.0167  0.4544
 9890SOL    HW131409   7.998   6.747   2.866  0.7861 -1.6251  2.0582
 9890SOL    HW231410   7.935   6.614   2.833 -1.2120 -0.4790  1.0692
 9891SOL     OW31411   2.741   1.217   8.640 -0.1911  0.3137  0.0700
 9891SOL    HW131412   2.760   1.130   8.674  0.8863  0.5082  0.0194
 9891SOL    HW231413   2.690   1.259   8.709 -1.1753 -0.5159 -0.1243
 9892SOL     OW31414   1.076   6.232   8.159  0.3613 -0.3103 -0.2471
 9892SOL    HW131415   1.101   6.319   8.189  1.5514 -0.9784  0.8138
 9892SOL    HW231416   1.021   6.197   8.230 -1.2363  0.0466 -1.2626
 9893SOL     OW31417   8.150   1.464   2.387 -0.4051  0.5918 -0.8337
 9893SOL    HW131418   8.132   1.506   2.303  1.6398  0.5266 -1.3660
 9893SOL    HW231419   8.151   1.371   2.367 -1.3576  0.4768 -0.4042
 9894SOL     OW31420   7.007   0.837   7.078  0.1361  0.1034  0.1673
 9894SOL    HW131421   6.934   0.900   7.078  0.4998  0.5277 -0.2730
 9894SOL    HW231422   6.984   0.775   7.148 -2.5010 -1.9455 -2.2622
 9895SOL     OW31423   0.417   4.572   4.393 -0.1060  0.6053 -0.7141
 9895SOL    HW131424   0.452   4.575   4.304  1.4071  0.1689 -0.1715
 9895SOL    HW231425   0.342   4.512   4.387  0.9649 -0.7231 -1.3981
 9896SOL     OW31426   3.555   3.623   0.844  0.2569  0.1387 -0.5671
 9896SOL    HW131427   3.588   3.665   0.765  0.0376  1.3929 -0.0204
 9896SOL    HW231428   3.460   3.640   0.842  0.1102 -0.6236 -0.4877
 9897SOL     OW31429   6.722   2.941   2.866 -0.4970  0.9041  0.1531
 9897SOL    HW131430   6.643   2.992   2.854  0.0721  2.1307  1.3481
 9897SOL    HW231431   6.794   3.003   2.853  0.2310  0.2225  0.7631
 9898SOL     OW31432   2.046   6.361   8.130 -0.2320 -0.1034  0.2310
 9898SOL    HW131433   2.044   6.265   8.119 -1.1567 -0.0601 -0.0780
 9898SOL    HW231434   2.048   6.395   8.040 -1.4770  0.1764  0.2910
 9899SOL     OW31435   0.371   2.666   6.025  0.0151 -0.0028 -1.0240
 9899SOL    HW131436   0.370   2.667   5.929 -0.9516 -3.7805 -1.2227
 9899SOL    HW231437   0.419   2.587   6.048 -0.2005  0.5344  1.6268
 9900SOL     OW31438   6.023   2.628   0.039  0.1539 -0.3047 -0.3989
 9900SOL    HW131439   6.031   2.623  -0.056 -0.2474  0.9281 -0.5182
 9900SOL    HW231440   5.930   2.644   0.056  0.4933  1.4199  0.0645
 9901SOL     OW31441   9.529   6.785   6.045 -0.0382  0.2744  0.6240
 9901SOL    HW131442   9.536   6.782   6.140 -0.4853  0.5274  0.6682
 9901SOL    HW231443   9.443   6.747   6.026  0.6360 -1.1377  0.2188
 9902SOL     OW31444   5.602   6.303   0.741  0.1735 -0.1030  0.9027
 9902SOL    HW131445   5.514   6.273   0.764  0.0058 -0.0522  0.3440
 9902SOL    HW231446   5.654   6.223   0.734 -1.0671 -0.7877 -4.0985
 9903SOL     OW31447   7.562   4.089   2.256  0.4522 -0.0476  0.4600
 9903SOL    HW131448   7.524   4.166   2.215 -0.5609 -1.5981 -1.7334
 9903SOL    HW231449   7.488   4.044   2.296  0.9363 -0.1877  1.2270
 9904SOL     OW31450   7.757   7.053   7.171  0.4862 -1.0857  0.0192
 9904SOL    HW131451   7.795   6.997   7.239  1.6148 -0.5371 -0.1351
 9904SOL    HW231452   7.832   7.093   7.128 -0.2750  0.1038 -0.2603
 9905SOL     OW31453   5.193   4.630   4.117  0.1267  0.5971 -0.4692
 9905SOL    HW131454   5.140   4.699   4.077  1.2914  3.3652  2.3554
 9905SOL    HW231455   5.195   4.652   4.210  0.7706 -3.2357  0.5964
 9906SOL     OW31456   7.637   2.553   7.273 -0.0245  0.0281 -0.6455
 9906SOL    HW131457   7.545   2.559   7.244 -0.0310  2.5080 -0.3426
 9906SOL    HW231458   7.688   2.573   7.195  0.1747  0.7372 -0.3378
 9907SOL     OW31459   7.025   3.109   9.076  0.6092 -0.2343 -0.0336
 9907SOL    HW131460   6.958   3.159   9.123 -0.3506  0.8284 -2.3701
 9907SOL    HW231461   7.095   3.172   9.060  0.9100 -0.5802 -0.0804
 9908SOL     OW31462   8.294   7.932   0.925  0.0922 -0.5779  0.4549
 9908SOL    HW131463   8.245   7.980   0.858  2.3418  2.7870  0.9864
 9908SOL    HW231464   8.336   7.861   0.877  1.0606  1.3017 -1.6981
 9909SOL     OW31465   1.090   3.499   3.375  0.0315 -0.6983 -0.2059
 9909SOL    HW131466   1.067   3.451   3.455  0.2049  0.1285  0.3570
 9909SOL    HW231467   1.081   3.591   3.400  1.6365 -0.3857 -0.6657
 9910SOL     OW31468   2.219   6.503   7.212 -0.3193 -0.5476 -0.2461
 9910SOL    HW131469   2.300   6.520   7.163  0.1202 -0.5830  0.4533
 9910SOL    HW231470   2.228   6.555   7.292 -1.7437  0.7839 -0.9061
 9911SOL     OW31471   6.568   0.004   5.970  0.3442 -0.0729  0.3385
 9911SOL    HW131472   6.591  -0.076   5.922  2.7386  1.0171 -0.4860
 9911SOL    HW231473   6.473   0.002   5.975  0.1927 -1.7849 -1.7854
 9912SOL     OW31474   5.430   3.156   7.412 -0.5167  0.0406  0.2469
 9912SOL    HW131475   5.442   3.238   7.362  1.6076 -0.5521 -0.3054
 9912SOL    HW231476   5.336   3.140   7.407 -0.6580  1.0817 -1.8934
 9913SOL     OW31477   9.196   6.887   6.936 -0.3866  0.4057 -0.2894
 9913SOL    HW131478   9.164   6.882   7.027 -1.9541  2.6303 -0.6266
 9913SOL    HW231479   9.132   6.838   6.885  0.0871 -0.2100 -0.3070
 9914SOL     OW31480   2.352   8.906   6.251 -0.5963  0.0867  0.1601
 9914SOL    HW131481   2.310   8.829   6.212 -2.0883 -0.3162  2.3721
 9914SOL    HW231482   2.302   8.981   6.219  0.2882  0.1024 -1.2731
 9915SOL     OW31483   3.926   8.004   1.687 -0.2951 -0.2965  0.0759
 9915SOL    HW131484   3.897   8.023   1.598 -1.4720 -0.0207  0.4982
 9915SOL    HW231485   3.982   8.078   1.711 -0.3881 -0.1197 -0.2519
 9916SOL     OW31486   6.147   6.479   2.217 -0.4814  0.2385  0.2417
 9916SOL    HW131487   6.225   6.498   2.269 -1.1903  0.8795  1.1071
 9916SOL    HW231488   6.123   6.563   2.178 -0.2726 -0.1278 -0.7038
 9917SOL     OW31489   4.127   0.626   3.974  0.4325  0.0723 -0.3855
 9917SOL    HW131490   4.169   0.590   3.895  1.3800 -0.4296  0.3233
 9917SOL    HW231491   4.180   0.703   3.995  1.6747 -1.1198  1.0828
 9918SOL     OW31492   6.512   8.671   2.718 -0.3883 -0.3783  0.2577
 9918SOL    HW131493   6.520   8.657   2.624  1.3543  2.1962 -0.0888
 9918SOL    HW231494   6.583   8.619   2.756  0.5897  0.5937 -0.1650
 9919SOL     OW31495   2.755   3.361   9.171  0.0886 -0.0655  0.2219
 9919SOL    HW131496   2.682   3.421   9.155  0.2386  0.5876  1.7871
 9919SOL    HW231497   2.713   3.282   9.207  0.0755 -0.0907  0.1527
 9920SOL     OW31498   0.225   6.255   5.053 -0.3231  0.1474  0.6283
 9920SOL    HW131499   0.208   6.317   5.124  1.2368  0.8435  0.4486
 9920SOL    HW231500   0.292   6.298   5.000 -2.3142  0.2459 -2.0415
 9921SOL     OW31501   4.718   5.623   8.640 -0.1811  0.3158 -0.0943
 9921SOL    HW131502   4.788   5.656   8.584 -1.2750 -0.9359 -2.3625
 9921SOL    HW231503   4.715   5.529   8.622 -1.6274  0.1455  0.8634
 9922SOL     OW31504   0.325   0.395   2.403 -0.4288 -0.4469 -0.1601
 9922SOL    HW131505   0.281   0.418   2.485 -0.3297 -1.9823  0.3601
 9922SOL    HW231506   0.264   0.335   2.359  0.8904 -2.2852  0.3802
 9923SOL     OW31507   6.010   7.942   5.234 -0.0592 -0.1708 -0.0524
 9923SOL    HW131508   5.943   7.994   5.190 -0.3518  0.2549  0.8784
 9923SOL    HW231509   6.024   7.986   5.317  0.8278 -0.6960  0.0870
 9924SOL     OW31510   1.693   1.164   4.201 -0.3178 -0.0778 -0.2874
 9924SOL    HW131511   1.684   1.218   4.122  0.0972 -1.6380 -1.4559
 9924SOL    HW231512   1.738   1.086   4.171 -1.8150 -1.5517  1.1266
 9925SOL     OW31513   0.294   5.253   4.423 -0.1262 -0.0793 -0.3521
 9925SOL    HW131514   0.218   5.214   4.466 -0.2307 -0.6945 -1.0779
 9925SOL    HW231515   0.363   5.251   4.489 -0.3029 -0.9463 -0.1815
 9926SOL     OW31516   8.524   5.563   0.096  0.2597 -0.0252  0.4713
 9926SOL    HW131517   8.541   5.607   0.013  0.8668 -0.0218  0.5924
 9926SOL    HW231518   8.573   5.613   0.161  0.0804 -0.2383  0.7770
 9927SOL     OW31519   1.502   6.016   7.650  0.5236 -0.5189 -0.8617
 9927SOL    HW131520   1.529   6.073   7.578  1.5979  1.2022  0.8089
 9927SOL    HW231521   1.540   6.056   7.728 -1.4642 -1.6996  0.8241
 9928SOL     OW31522   8.623   1.297   0.773 -0.4189 -0.5704  0.2010
 9928SOL    HW131523   8.684   1.368   0.752  0.2204 -1.3163 -0.5501
 9928SOL    HW231524   8.549   1.340   0.815 -1.4967  1.0128 -3.0104
 9929SOL     OW31525   8.037   4.217   4.877  0.3503 -1.2604 -0.3379
 9929SOL    HW131526   8.038   4.126   4.847  0.0471 -0.7932 -1.8678
 9929SOL    HW231527   7.972   4.218   4.947  0.2195 -2.1944 -0.4243
 9930SOL     OW31528   8.231   6.282   8.375 -0.1500 -0.1795  0.7922
 9930SOL    HW131529   8.291   6.321   8.311  0.1919  0.4818  1.4964
 9930SOL    HW231530   8.177   6.221   8.324  1.2316 -0.9213  0.1683
 9931SOL     OW31531   1.453   3.229   7.161  0.4161  0.0606  0.3337
 9931SOL    HW131532   1.446   3.247   7.067  0.5468 -0.1349  0.2861
 9931SOL    HW231533   1.516   3.157   7.167 -1.2536 -1.4634  0.3981
 9932SOL     OW31534   0.008   1.746   6.162 -0.5907  0.2505  0.2630
 9932SOL    HW131535  -0.058   1.735   6.230  0.1122 -1.6950  0.6886
 9932SOL    HW231536   0.008   1.662   6.115 -0.3008  1.1643 -1.4529
 9933SOL     OW31537   2.148   2.584   4.693 -0.0345  0.4484 -0.3907
 9933SOL    HW131538   2.237   2.548   4.697  0.2397  1.1654  0.3451
 9933SOL    HW231539   2.118   2.565   4.604  0.2624 -1.1841 -0.1859
 9934SOL     OW31540   7.841   0.457   0.549  0.1230 -0.0166 -0.1981
 9934SOL    HW131541   7.816   0.549   0.560  0.0104  0.0150 -0.6983
 9934SOL    HW231542   7.929   0.460   0.512  1.0479 -0.1286  1.8626
 9935SOL     OW31543   3.685   4.893   7.927 -0.6059  0.2445  0.3929
 9935SOL    HW131544   3.645   4.971   7.965  1.0577 -0.3273  3.7574
 9935SOL    HW231545   3.698   4.834   8.002  2.4436 -1.3391 -1.1741
 9936SOL     OW31546   9.428   8.947   0.168 -0.6933  0.3326 -0.3213
 9936SOL    HW131547   9.364   8.913   0.105  0.0916  0.0689 -0.9813
 9936SOL    HW231548   9.400   8.910   0.252 -1.3533  0.1387 -0.6179
 9937SOL     OW31549   2.689   4.677   9.034 -0.1295 -0.1757  0.2614
 9937SOL    HW131550   2.682   4.772   9.026  0.4563 -0.0371  1.1639
 9937SOL    HW231551   2.630   4.642   8.968  0.4563  0.8073 -0.8187
 9938SOL     OW31552   2.991   5.940   1.159 -0.0915 -0.9040  0.1287
 9938SOL    HW131553   3.004   5.991   1.079 -0.9454 -1.0605 -0.1206
 9938SOL    HW231554   2.952   6.002   1.221  0.0226 -0.9355  0.2326
 9939SOL     OW31555   8.229   5.177   1.601  0.0776  0.3113  0.3938
 9939SOL    HW131556   8.279   5.114   1.653  1.3406 -1.4640 -2.6640
 9939SOL    HW231557   8.292   5.210   1.537 -1.5702  1.5913 -0.6540
 9940SOL     OW31558   1.184   6.030   0.337 -0.1014 -0.2985  0.1117
 9940SOL    HW131559   1.178   5.971   0.412 -1.0444 -0.2801  0.0562
 9940SOL    HW231560   1.199   6.116   0.375  1.8550 -0.6180  0.1750
 9941SOL     OW31561   6.871   9.484   1.362 -0.0802 -0.2491  0.0932
 9941SOL    HW131562   6.912   9.540   1.428 -0.0390 -0.3535  0.1569
 9941SOL    HW231563   6.938   9.419   1.341 -0.2742 -0.5288  0.3288
 9942SOL     OW31564   2.821   4.771   1.299 -0.5575  0.1519 -0.1512
 9942SOL    HW131565   2.745   4.764   1.242  1.0056 -2.5782 -2.1306
 9942SOL    HW231566   2.818   4.693   1.354  0.0754  0.7338  0.7318
 9943SOL     OW31567   4.716   9.175   7.502  0.1787  0.1941 -0.2223
 9943SOL    HW131568   4.723   9.136   7.590 -1.1290  0.5419  0.0514
 9943SOL    HW231569   4.777   9.249   7.504  0.0168  0.3168  0.4555
 9944SOL     OW31570   5.003   6.190   2.910  0.5373 -0.1495 -0.0311
 9944SOL    HW131571   4.968   6.108   2.875  1.1182 -1.2896  1.9366
 9944SOL    HW231572   4.925   6.238   2.939 -0.0308  1.1027 -3.2002
 9945SOL     OW31573   2.086   3.302   4.267 -0.1493  0.2022 -0.1209
 9945SOL    HW131574   2.095   3.282   4.361  0.8528  1.1416 -0.0047
 9945SOL    HW231575   2.022   3.238   4.236 -1.6558  0.8231  1.5045
 9946SOL     OW31576   2.569   3.062   3.314 -0.3186  0.2012 -0.6750
 9946SOL    HW131577   2.555   3.148   3.274 -1.4528 -0.1862 -1.1521
 9946SOL    HW231578   2.619   3.013   3.248 -0.4121  0.2207 -0.7604
 9947SOL     OW31579   5.144   0.789   8.483 -0.4589  0.2130 -0.4166
 9947SOL    HW131580   5.089   0.851   8.530 -0.9822  1.5008 -2.5918
 9947SOL    HW231581   5.092   0.765   8.406  0.0362 -2.3909 -0.0247
 9948SOL     OW31582   7.467   4.535   9.430  0.3454  0.5256  0.6239
 9948SOL    HW131583   7.494   4.546   9.339 -0.7838 -0.8656  0.0837
 9948SOL    HW231584   7.549   4.520   9.478  0.7749 -0.9882 -0.5380
 9949SOL     OW31585   1.988   5.805   2.756  0.5834 -0.2597  0.6318
 9949SOL    HW131586   1.970   5.895   2.782  2.3747  0.2214  0.3357
 9949SOL    HW231587   2.078   5.789   2.783  0.7954 -1.4727 -0.6430
 9950SOL     OW31588   3.464   3.907   5.619  0.1278 -0.1254  0.3089
 9950SOL    HW131589   3.514   3.964   5.561  0.7098 -0.6216  0.3102
 9950SOL    HW231590   3.421   3.845   5.561 -0.8816  0.5960  0.2738
 9951SOL     OW31591   0.404   3.373   0.397  0.4952 -0.2891 -0.4176
 9951SOL    HW131592   0.382   3.317   0.471  0.3069  0.1614 -0.1300
 9951SOL    HW231593   0.337   3.354   0.332  0.2134 -0.1297 -0.1764
 9952SOL     OW31594   5.176   2.664   4.957 -0.3052 -0.2338 -0.3743
 9952SOL    HW131595   5.170   2.640   5.049 -0.1327  1.2187  0.0409
 9952SOL    HW231596   5.093   2.634   4.919 -0.5429 -0.4924  0.3438
 9953SOL     OW31597   4.988   8.560   4.834 -0.3498  0.3358 -0.8088
 9953SOL    HW131598   5.048   8.634   4.829 -1.0356  0.8906 -0.9535
 9953SOL    HW231599   4.902   8.598   4.819 -0.8925 -0.2351  0.6773
 9954SOL     OW31600   0.311   3.703   7.703 -0.3501 -0.8921 -0.4839
 9954SOL    HW131601   0.380   3.638   7.699  1.3660  0.7822  0.1852
 9954SOL    HW231602   0.288   3.720   7.612  2.1488  0.4961 -0.9454
 9955SOL     OW31603   1.676   7.487   7.456 -0.6066  0.3662 -0.4120
 9955SOL    HW131604   1.652   7.574   7.489 -0.2203 -0.5837  2.6869
 9955SOL    HW231605   1.610   7.429   7.492 -0.7052 -0.7319 -2.2295
 9956SOL     OW31606   0.743   5.434   4.245 -0.4816  0.0442  0.7666
 9956SOL    HW131607   0.717   5.369   4.311 -0.4265 -0.1099  0.6384
 9956SOL    HW231608   0.666   5.489   4.233 -0.5461 -0.0296  0.8395
 9957SOL     OW31609   4.388   4.120   6.060 -0.8644 -0.0060  0.7185
 9957SOL    HW131610   4.432   4.191   6.107 -1.2522  0.7595 -0.0521
 9957SOL    HW231611   4.457   4.055   6.045 -0.5771  0.0458  1.7101
 9958SOL     OW31612   1.137   3.756   3.460 -0.2711  0.2275 -0.8727
 9958SOL    HW131613   1.139   3.815   3.385 -0.9707  0.7012 -0.5196
 9958SOL    HW231614   1.137   3.813   3.536 -0.7931 -0.2285 -0.5213
 9959SOL     OW31615   6.181   7.546   1.959 -0.2968  0.1198  0.2275
 9959SOL    HW131616   6.233   7.493   1.898  0.7739  1.3628  0.0274
 9959SOL    HW231617   6.112   7.584   1.905 -0.0233  0.3156  0.0140
 9960SOL     OW31618   0.912   3.208   2.386 -0.3670 -0.4881  0.5580
 9960SOL    HW131619   0.862   3.284   2.355 -2.0727 -1.4495  0.8488
 9960SOL    HW231620   0.859   3.172   2.458 -0.2978 -2.7343 -0.4374
 9961SOL     OW31621   2.713   2.396   3.750  0.4613  0.7462  0.0860
 9961SOL    HW131622   2.752   2.333   3.811 -0.3299 -1.0129 -1.1372
 9961SOL    HW231623   2.784   2.420   3.691  0.7423  0.9244  0.4899
 9962SOL     OW31624   7.443   0.618   8.903 -0.1663  0.5764  0.7725
 9962SOL    HW131625   7.448   0.525   8.880  2.3706  0.6880  0.6181
 9962SOL    HW231626   7.477   0.663   8.826 -2.8596  1.8297  0.1904
 9963SOL     OW31627   1.845   7.349   4.346  0.2840  0.2108 -0.6147
 9963SOL    HW131628   1.894   7.380   4.422 -0.1922 -1.3795  0.3837
 9963SOL    HW231629   1.790   7.278   4.379 -0.6209  0.0771 -2.2662
 9964SOL     OW31630   7.883   7.173   1.781 -0.5974  0.2972 -0.0506
 9964SOL    HW131631   7.826   7.225   1.838  0.1405 -0.8405  1.7969
 9964SOL    HW231632   7.963   7.160   1.831  0.3698 -0.1879 -1.6399
 9965SOL     OW31633   5.262   0.063   3.431 -0.3436 -0.0979 -0.0165
 9965SOL    HW131634   5.242   0.146   3.475 -0.0964 -0.7224  1.3285
 9965SOL    HW231635   5.299   0.089   3.347  2.4116  1.2585  1.4961
 9966SOL     OW31636   3.971   7.931   7.117 -0.2037  0.3460 -0.2385
 9966SOL    HW131637   3.942   8.001   7.059  0.6853 -0.6958 -2.0603
 9966SOL    HW231638   3.893   7.878   7.132 -1.0890  2.1006  1.8578
 9967SOL     OW31639   2.886   1.973   4.772  0.9847 -0.3927  0.1615
 9967SOL    HW131640   2.933   1.892   4.792  0.4372 -0.2010  2.5234
 9967SOL    HW231641   2.943   2.042   4.805  1.5523  0.2766 -2.0306
 9968SOL     OW31642   7.636   8.355   1.451 -0.4143 -0.1485 -0.6870
 9968SOL    HW131643   7.595   8.375   1.367  1.3847  1.4898 -1.2382
 9968SOL    HW231644   7.674   8.438   1.480 -0.1164 -0.9056  1.2755
 9969SOL     OW31645   9.313   0.719   2.813  0.0761  0.2035 -0.5307
 9969SOL    HW131646   9.226   0.721   2.853  0.1300  0.0404 -0.4040
 9969SOL    HW231647   9.305   0.654   2.743 -0.6655  2.0761 -2.2858
 9970SOL     OW31648   6.797   8.638   8.332 -0.5490  0.1793  0.5742
 9970SOL    HW131649   6.771   8.548   8.309  0.9758 -0.4334  1.0739
 9970SOL    HW231650   6.715   8.684   8.347 -1.6472  0.0577 -3.7359
 9971SOL     OW31651   1.636   5.879   5.175 -0.0869 -0.5305 -0.0499
 9971SOL    HW131652   1.725   5.867   5.209 -0.2985 -2.6847 -0.0967
 9971SOL    HW231653   1.646   5.881   5.080 -0.0090  0.2388 -0.0317
 9972SOL     OW31654   1.778   3.423   1.140  0.1414 -0.2344 -0.7847
 9972SOL    HW131655   1.726   3.344   1.128  1.7292 -1.2682 -1.1772
 9972SOL    HW231656   1.835   3.426   1.063  2.4996 -0.6289  0.8586
 9973SOL     OW31657   2.212   0.547   2.917  0.0662  0.8231 -0.0617
 9973SOL    HW131658   2.149   0.509   2.856  0.1081 -0.2297  0.5321
 9973SOL    HW231659   2.254   0.618   2.868 -0.8424  0.8593 -0.8028
 9974SOL     OW31660   8.118   6.802   1.910 -0.0023 -0.0743 -0.1599
 9974SOL    HW131661   8.076   6.758   1.984 -0.2509  0.6232  0.1141
 9974SOL    HW231662   8.200   6.754   1.897  1.7223  1.8190  2.7063
 9975SOL     OW31663   3.236   0.234   2.835  0.6966  0.2715 -0.0914
 9975SOL    HW131664   3.160   0.175   2.839  0.5232  0.4759 -0.3521
 9975SOL    HW231665   3.215   0.295   2.765  1.1739  0.2316 -0.2724
 9976SOL     OW31666   2.648   7.774   0.450  0.2010  0.2105 -0.1013
 9976SOL    HW131667   2.685   7.830   0.518 -1.3099  0.4933  0.5188
 9976SOL    HW231668   2.678   7.813   0.368 -0.9041  2.0336  0.3062
 9977SOL     OW31669   8.102   4.122   4.095 -0.5267  0.0841 -0.2592
 9977SOL    HW131670   8.054   4.205   4.093 -1.5152 -0.4658  0.1543
 9977SOL    HW231671   8.193   4.147   4.080 -0.4754  1.5181  2.0003
 9978SOL     OW31672   2.698   0.354   4.764  0.1403  0.2687 -0.4931
 9978SOL    HW131673   2.606   0.381   4.758 -0.0218 -0.2326 -0.2823
 9978SOL    HW231674   2.743   0.429   4.804 -0.5661 -0.3333  1.5382
 9979SOL     OW31675   1.160   2.891   4.762  0.1440 -0.4308 -0.0413
 9979SOL    HW131676   1.239   2.883   4.708 -0.0005 -2.3836 -0.0224
 9979SOL    HW231677   1.188   2.861   4.848 -0.3647 -0.1215  0.2321
 9980SOL     OW31678   9.435   4.436   6.496  0.2443  0.7408  0.1863
 9980SOL    HW131679   9.370   4.371   6.523 -0.1961  0.7695 -0.7827
 9980SOL    HW231680   9.496   4.387   6.441 -0.7864  1.3770 -1.5891
 9981SOL     OW31681   3.328   4.601   8.943  0.3873  0.4649  0.2213
 9981SOL    HW131682   3.246   4.579   8.899 -0.9467 -0.0888  2.7789
 9981SOL    HW231683   3.340   4.532   9.008  2.1770  1.2705  0.8239
 9982SOL     OW31684   5.357   6.563   1.556 -0.3738 -0.4758 -0.4921
 9982SOL    HW131685   5.414   6.637   1.537 -1.2361  0.2420 -0.3836
 9982SOL    HW231686   5.396   6.521   1.633 -0.2974  0.3350 -0.0804
 9983SOL     OW31687   6.274   6.189   8.732 -0.6922 -0.0389  0.2583
 9983SOL    HW131688   6.196   6.159   8.685 -0.0920 -1.0963 -0.1105
 9983SOL    HW231689   6.321   6.108   8.754 -0.0136  0.5439  1.0259
 9984SOL     OW31690   0.493   5.855   1.778 -0.2171  0.0679  0.3925
 9984SOL    HW131691   0.482   5.760   1.771 -0.5772  0.1968 -1.2842
 9984SOL    HW231692   0.588   5.867   1.779 -0.1608 -0.3291  1.3703
 9985SOL     OW31693   7.219   2.750   8.101  0.2591  0.2301  0.2857
 9985SOL    HW131694   7.272   2.675   8.126 -0.1114  0.1095  0.7309
 9985SOL    HW231695   7.282   2.821   8.089  0.4594  0.2895  1.5640
 9986SOL     OW31696   1.288   9.426   0.348 -0.1645 -0.1687 -0.2945
 9986SOL    HW131697   1.246   9.411   0.263 -1.1913  0.4775  0.0752
 9986SOL    HW231698   1.228   9.386   0.411  0.7462 -0.9149  0.1107
 9987SOL     OW31699   2.716   4.398   1.205  0.1567 -0.4433  0.5846
 9987SOL    HW131700   2.760   4.449   1.273  1.7128  1.8764 -1.9527
 9987SOL    HW231701   2.788   4.356   1.158 -0.7685 -0.8636 -0.4890
 9988SOL     OW31702   4.565   7.407   2.203  0.2082 -0.2876  0.4715
 9988SOL    HW131703   4.645   7.368   2.238  1.5052  0.3893 -1.5450
 9988SOL    HW231704   4.563   7.380   2.111 -3.1451 -2.1928  0.9353
 9989SOL     OW31705   6.346   6.247   8.996 -0.6903 -0.0232  0.4103
 9989SOL    HW131706   6.287   6.221   8.925 -1.8734 -1.1476  1.7562
 9989SOL    HW231707   6.354   6.170   9.051  1.4204  0.3643  0.7351
 9990SOL     OW31708   1.410   0.952   0.165 -0.0572  0.0565  0.1379
 9990SOL    HW131709   1.475   1.011   0.202 -0.9425  0.4757  1.0705
 9990SOL    HW231710   1.407   0.878   0.226  0.6857 -0.7514 -0.7573
 9991SOL     OW31711   7.733   3.703   2.566 -0.0455 -0.2068  0.4523
 9991SOL    HW131712   7.721   3.622   2.615  1.2892 -1.1134 -0.6460
 9991SOL    HW231713   7.778   3.762   2.627 -0.0342 -0.6762  0.9037
 9992SOL     OW31714   7.523   6.475   9.581 -0.1079 -0.3026 -0.2611
 9992SOL    HW131715   7.598   6.513   9.535  0.5427 -2.1983 -0.8815
 9992SOL    HW231716   7.558   6.448   9.666  0.3235 -2.4007 -1.0496
 9993SOL     OW31717   2.177   1.215   2.111  0.1461 -0.1896 -0.4187
 9993SOL    HW131718   2.107   1.264   2.068  0.1525 -0.1524 -0.3869
 9993SOL    HW231719   2.257   1.260   2.084  0.0904  0.4453  0.4185
 9994SOL     OW31720   7.953   9.315   3.770  0.2449  0.2270 -0.2950
 9994SOL    HW131721   8.022   9.249   3.757  0.2985  0.4958 -1.4957
 9994SOL    HW231722   7.976   9.385   3.709 -0.6731  0.6597 -0.1520
 9995SOL     OW31723   5.465   4.819   5.427 -0.2028  0.5528  0.3524
 9995SOL    HW131724   5.390   4.835   5.483  0.5206 -0.3969  1.6269
 9995SOL    HW231725   5.539   4.814   5.486  0.6433 -0.1185 -0.7245
 9996SOL     OW31726   4.300   0.842   0.218 -0.6115  0.1248  0.6319
 9996SOL    HW131727   4.337   0.778   0.279  1.2929  0.2683 -0.2874
 9996SOL    HW231728   4.207   0.846   0.240 -0.3352 -1.2441  2.2228
 9997SOL     OW31729   3.826   1.616   2.235  0.2737 -0.1771 -0.1233
 9997SOL    HW131730   3.842   1.526   2.209  1.2443 -0.5682  1.7563
 9997SOL    HW231731   3.761   1.610   2.305  0.4877  0.5671  0.1476
 9998SOL     OW31732   0.035   4.642   2.960 -0.6430 -0.1849  0.0789
 9998SOL    HW131733  -0.036   4.621   2.899  0.6667 -0.6078 -1.3750
 9998SOL    HW231734  -0.009   4.656   3.044 -2.3649 -1.1365 -0.5991
 9999SOL     OW31735   3.741   2.622   2.802  0.4398 -0.1650 -0.2975
 9999SOL    HW131736   3.729   2.660   2.889 -1.1615 -2.2712  0.4934
 9999SOL    HW231737   3.828   2.650   2.775  1.4862 -0.4071  2.5194
10000SOL     OW31738   3.395   0.056   7.549  0.3280  0.2964  0.1799
10000SOL    HW131739   3.454   0.065   7.623 -0.7402  3.9598  0.7707
10000SOL    HW231740   3.308   0.051   7.587 -0.0648 -0.6706 -0.7834
10001SOL     OW31741   2.624   8.686   9.504  0.4760  0.8176 -0.0930
10001SOL    HW131742   2.589   8.733   9.428 -0.2078  1.9226  0.8623
10001SOL    HW231743   2.590   8.735   9.579  0.9300 -0.3933  0.9279
10002SOL     OW31744   2.300   6.987   4.235  0.2091 -0.4757 -0.1544
10002SOL    HW131745   2.249   6.906   4.247 -0.6166 -0.1782 -1.3813
10002SOL    HW231746   2.355   6.993   4.312 -0.9734 -1.3078  0.7960
10003SOL     OW31747   2.654   3.566   9.430  0.0147 -0.2104  0.6069
10003SOL    HW131748   2.729   3.512   9.454  1.2994  0.2253 -2.0855
10003SOL    HW231749   2.644   3.555   9.335 -2.1972  1.1673  0.5854
10004SOL     OW31750   2.411   6.550   3.710  0.2327 -0.2906  0.0915
10004SOL    HW131751   2.365   6.632   3.729  0.6153 -0.2480  0.8890
10004SOL    HW231752   2.342   6.488   3.688 -0.0005  0.4982 -1.5667
10005SOL     OW31753   1.638   3.029   0.577  0.0718 -0.1694 -0.5118
10005SOL    HW131754   1.702   2.978   0.529 -0.2976 -0.4288 -0.7322
10005SOL    HW231755   1.563   2.970   0.589  0.6705 -0.5888  1.6018
10006SOL     OW31756   1.069   2.249   6.952 -0.4944 -0.0014  0.2005
10006SOL    HW131757   1.092   2.198   7.029  0.3178 -0.3992 -0.2929
10006SOL    HW231758   1.087   2.192   6.878 -0.2322  0.7520 -0.3363
10007SOL     OW31759   7.629   8.387   0.047  0.2295 -0.0328 -0.1304
10007SOL    HW131760   7.551   8.371   0.100  1.5753 -2.8865  1.1798
10007SOL    HW231761   7.670   8.463   0.088  0.2527 -1.0299  1.7969
10008SOL     OW31762   8.061   7.215   8.377 -0.5339  0.4152 -0.3862
10008SOL    HW131763   8.110   7.148   8.423  2.4011  2.7256  0.1401
10008SOL    HW231764   7.977   7.220   8.424 -0.0333 -1.4430  0.8002
10009SOL     OW31765   3.977   8.624   5.803  0.1520 -0.3171  0.1199
10009SOL    HW131766   4.030   8.549   5.774 -1.4578 -1.7126  0.6300
10009SOL    HW231767   3.900   8.585   5.843 -1.1237  1.6439 -0.2734
10010SOL     OW31768   9.446   4.387   9.191  0.2311  0.5895 -0.7383
10010SOL    HW131769   9.411   4.475   9.178  1.0064  0.9211 -0.6918
10010SOL    HW231770   9.475   4.360   9.104  1.4563  1.0475 -0.5004
10011SOL     OW31771   1.659   7.459   8.431  0.8520 -0.5925 -0.1259
10011SOL    HW131772   1.676   7.485   8.521  0.2483  0.7159 -0.3641
10011SOL    HW231773   1.720   7.511   8.379  1.0516 -1.1832 -0.4847
10012SOL     OW31774   2.865   8.258   4.904 -0.2940  0.5424 -0.2062
10012SOL    HW131775   2.881   8.244   4.810 -0.7963  1.0893 -0.3830
10012SOL    HW231776   2.848   8.170   4.939  0.7536  0.2336 -0.4558
10013SOL     OW31777   7.623   6.878   9.440  0.4320 -0.4650 -0.1910
10013SOL    HW131778   7.682   6.824   9.493 -0.2549 -1.0638 -0.0292
10013SOL    HW231779   7.605   6.825   9.362  0.4516 -0.1018 -0.4457
10014SOL     OW31780   1.036   4.762   2.553  0.0444  0.1208 -0.8029
10014SOL    HW131781   1.071   4.673   2.552 -1.2328 -0.4113 -2.3644
10014SOL    HW231782   0.952   4.754   2.599  1.1085  1.0799  1.4753
10015SOL     OW31783   7.252   6.568   8.383 -0.5874  0.8845 -0.2106
10015SOL    HW131784   7.270   6.654   8.421  0.3573  1.1495 -1.2059
10015SOL    HW231785   7.247   6.509   8.458  0.2790  1.5563  0.3950
10016SOL     OW31786   2.120   0.908   9.260 -0.2713 -0.8236 -0.2978
10016SOL    HW131787   2.152   0.885   9.173  1.1616  1.0168 -0.3146
10016SOL    HW231788   2.151   0.997   9.275 -3.1487  0.1237  0.8486
10017SOL     OW31789   3.818   0.980   6.921 -0.4467 -0.1407 -0.2380
10017SOL    HW131790   3.819   1.000   6.828 -2.6726  0.9759 -0.1088
10017SOL    HW231791   3.854   1.059   6.962  2.5091 -1.4051 -0.1382
10018SOL     OW31792   6.043   3.679   3.493  0.4907 -0.0961 -0.0564
10018SOL    HW131793   5.951   3.676   3.468  0.0231 -1.3388  1.6755
10018SOL    HW231794   6.050   3.755   3.552 -0.0959 -1.6052  2.0723
10019SOL     OW31795   6.410   4.106   4.111  0.1474 -0.0495 -0.0759
10019SOL    HW131796   6.410   4.131   4.203  1.2467  1.3465 -0.4164
10019SOL    HW231797   6.323   4.131   4.080  0.7710  2.3464 -0.0854
10020SOL     OW31798   5.171   8.982   8.877  0.2162  0.1742  0.3598
10020SOL    HW131799   5.078   8.963   8.888 -0.1324  0.6038 -1.4867
10020SOL    HW231800   5.210   8.900   8.847 -0.2819  0.8250 -2.3216
10021SOL     OW31801   3.198   7.092   5.767  0.0122  0.4099  0.1620
10021SOL    HW131802   3.291   7.071   5.755 -0.6013 -1.9528 -1.1025
10021SOL    HW231803   3.161   7.014   5.806 -1.6092  0.9985 -0.1371
10022SOL     OW31804   4.427   0.276   3.440  0.1158 -0.9485 -0.8858
10022SOL    HW131805   4.470   0.253   3.358  0.3150  0.0526 -1.0699
10022SOL    HW231806   4.460   0.363   3.462  1.8321 -2.0969  1.4743
10023SOL     OW31807   1.570   9.012   7.989  0.3750  0.3608 -0.0857
10023SOL    HW131808   1.503   8.973   7.932 -0.9201  0.4393  1.3194
10023SOL    HW231809   1.647   8.956   7.977 -1.2193 -2.3612  1.3718
10024SOL     OW31810   2.912   7.627   3.173  0.6824 -0.6587 -0.1350
10024SOL    HW131811   2.943   7.540   3.151 -0.9284 -1.2958 -0.0411
10024SOL    HW231812   2.893   7.668   3.089 -2.2270 -1.8633 -0.2095
10025SOL     OW31813   8.721   3.834   4.561 -0.4950 -0.2158 -0.0950
10025SOL    HW131814   8.699   3.753   4.607 -3.3988  0.4929 -0.0218
10025SOL    HW231815   8.787   3.876   4.616 -1.0991 -1.1775  1.4188
10026SOL     OW31816   8.707   0.120   9.373 -0.6167 -0.0100 -0.0029
10026SOL    HW131817   8.760   0.091   9.447  1.7747  1.4403 -1.0562
10026SOL    HW231818   8.733   0.210   9.358 -1.3435 -0.1199 -2.3684
10027SOL     OW31819   8.686   0.852   3.673 -0.1218 -0.7623 -0.1626
10027SOL    HW131820   8.616   0.915   3.655 -0.0620 -0.3478  0.9727
10027SOL    HW231821   8.678   0.833   3.766  2.2537  0.5504  0.4031
10028SOL     OW31822   7.684   8.093   9.313  0.2918 -0.1485  0.3958
10028SOL    HW131823   7.649   8.036   9.382  0.0055  1.4959  1.6780
10028SOL    HW231824   7.622   8.083   9.241  0.4806 -1.7450  0.4097
10029SOL     OW31825   8.216   1.039   9.045 -0.6418 -0.0031 -0.3930
10029SOL    HW131826   8.279   1.095   8.999  0.6806 -1.4040 -0.3839
10029SOL    HW231827   8.177   0.985   8.977  0.1164 -0.9430 -0.1105
10030SOL     OW31828   7.971   3.737   3.392  0.2594  0.6336 -0.7618
10030SOL    HW131829   8.006   3.711   3.478  1.0648  1.5543 -0.7935
10030SOL    HW231830   8.027   3.692   3.329 -1.1330 -1.0878 -0.8446
10031SOL     OW31831   4.791   1.129   8.833 -0.1371 -0.6370  0.0493
10031SOL    HW131832   4.745   1.183   8.897  1.1884  2.2199 -1.2104
10031SOL    HW231833   4.748   1.150   8.750  1.6136  0.0299 -0.7436
10032SOL     OW31834   8.110   8.368   7.194 -0.2887 -0.0925  0.4194
10032SOL    HW131835   8.020   8.401   7.201 -0.3100 -0.1505  0.4273
10032SOL    HW231836   8.165   8.444   7.208 -0.3388  0.0041  0.0993
10033SOL     OW31837   1.358   5.698   1.881 -0.1010  0.7743 -0.1033
10033SOL    HW131838   1.407   5.715   1.801  0.0985 -1.0133 -0.4044
10033SOL    HW231839   1.399   5.754   1.947 -0.3729  2.3911 -1.2551
10034SOL     OW31840   8.952   2.923   0.314 -0.1661  0.1991 -0.5667
10034SOL    HW131841   8.932   2.830   0.303  1.3514 -0.1888 -0.3006
10034SOL    HW231842   8.932   2.942   0.406  1.7728 -0.5074  0.0503
10035SOL     OW31843   1.243   5.594   1.618  0.0547 -0.0005  0.0211
10035SOL    HW131844   1.212   5.681   1.643 -2.2525 -1.4573  2.9007
10035SOL    HW231845   1.178   5.563   1.554 -0.1832 -0.2561  0.3812
10036SOL     OW31846   5.324   6.036   7.600  0.5081  0.0448  0.0778
10036SOL    HW131847   5.413   6.047   7.567  0.8620  0.3993  1.1001
10036SOL    HW231848   5.272   6.017   7.523  1.0490  2.2807 -0.9128
10037SOL     OW31849   3.422   6.727   5.238  0.1069  0.1329  0.1858
10037SOL    HW131850   3.414   6.786   5.313  0.0341 -1.6964  1.7077
10037SOL    HW231851   3.344   6.745   5.185  1.2893  3.0572 -0.7406
10038SOL     OW31852   3.096   9.348   9.585 -0.4927 -0.3153 -0.3898
10038SOL    HW131853   3.091   9.404   9.663  1.3479  1.7317 -1.6291
10038SOL    HW231854   3.186   9.316   9.583 -0.0497  0.8705 -2.3769
10039SOL     OW31855   3.943   7.345   5.784  0.2757 -0.0030  0.2173
10039SOL    HW131856   3.916   7.263   5.743 -0.6594  0.0739  0.6618
10039SOL    HW231857   4.016   7.375   5.730 -0.1651 -0.5032 -0.6801
10040SOL     OW31858   3.838   5.506   4.849 -0.2763 -0.2344 -0.7439
10040SOL    HW131859   3.861   5.414   4.859 -1.7427 -0.4044  1.7757
10040SOL    HW231860   3.743   5.506   4.835 -0.3289  0.9086 -0.4740
10041SOL     OW31861   0.026   0.649   8.822  0.3720 -0.1864 -0.2100
10041SOL    HW131862  -0.037   0.589   8.862  1.7667 -1.7118 -0.1862
10041SOL    HW231863   0.100   0.651   8.884 -0.3891  3.1801  0.8052
10042SOL     OW31864   4.911   6.933   4.376 -0.3087 -0.1086 -0.1012
10042SOL    HW131865   4.956   6.951   4.458 -2.1449  2.7420  0.3966
10042SOL    HW231866   4.953   6.990   4.312  0.3148 -1.4478 -0.9512
10043SOL     OW31867   0.332   3.485   1.425  0.1347 -0.1534 -0.2403
10043SOL    HW131868   0.290   3.410   1.466  0.6314  0.4651  1.4943
10043SOL    HW231869   0.259   3.537   1.389 -0.5526  0.2963  1.6657
10044SOL     OW31870   9.142   3.467   1.297 -0.0973 -0.0523 -0.3021
10044SOL    HW131871   9.215   3.499   1.245 -0.7720  0.4727 -0.9295
10044SOL    HW231872   9.183   3.410   1.363  0.8477  0.0632 -0.7804
10045SOL     OW31873   4.574   8.941   2.908  0.0056  0.0678 -0.1304
10045SOL    HW131874   4.663   8.952   2.873  0.0527  0.1689  0.0206
10045SOL    HW231875   4.587   8.902   2.994 -0.1044 -0.0409 -0.1627
10046SOL     OW31876   1.571   6.190   6.141 -0.1622  0.4746 -0.0084
10046SOL    HW131877   1.522   6.254   6.090  0.3513  0.7501 -0.1573
10046SOL    HW231878   1.564   6.109   6.090 -1.5740  0.1532  0.6198
10047SOL     OW31879   4.983   2.797   5.478  0.7656 -0.0300  0.1694
10047SOL    HW131880   5.043   2.845   5.536  0.3783 -0.3264  0.8213
10047SOL    HW231881   4.991   2.706   5.506 -0.5460  0.0189  0.7688
10048SOL     OW31882   7.149   6.799   7.084  0.2242  0.0411 -0.3034
10048SOL    HW131883   7.076   6.774   7.027  0.7460  1.5920 -1.7387
10048SOL    HW231884   7.195   6.717   7.102 -0.5592 -0.6288 -1.2574
10049SOL     OW31885   0.654   7.110   4.346  0.8774 -0.1688 -0.3068
10049SOL    HW131886   0.680   7.168   4.274 -2.5298 -0.2568 -1.8278
10049SOL    HW231887   0.670   7.161   4.425  0.4505  1.8459 -1.4326
10050SOL     OW31888   2.149   6.773   4.621 -0.1494 -0.3338  0.5635
10050SOL    HW131889   2.136   6.866   4.637  1.2952 -0.2619  1.4708
10050SOL    HW231890   2.241   6.765   4.597 -0.5743 -1.3695 -0.8817
10051SOL     OW31891   7.781   8.736   9.433 -0.2749  0.2997  1.1184
10051SOL    HW131892   7.853   8.672   9.429 -0.3626  0.1400  1.9243
10051SOL    HW231893   7.768   8.763   9.342  0.8079  0.3369  0.9613
10052SOL     OW31894   6.200   2.395   7.305 -0.2502  0.0649 -0.0432
10052SOL    HW131895   6.294   2.407   7.290 -0.2101 -0.1146  0.0667
10052SOL    HW231896   6.161   2.476   7.273 -0.0767  0.0635 -0.2662
10053SOL     OW31897   5.299   3.682   3.008  0.0624 -0.0527 -0.0009
10053SOL    HW131898   5.320   3.631   2.930 -1.9498 -0.3729 -0.4024
10053SOL    HW231899   5.375   3.671   3.065  1.2187 -0.5159 -1.5480
10054SOL     OW31900   0.070   2.334   3.730 -0.0386 -0.6049 -0.6755
10054SOL    HW131901   0.092   2.324   3.638 -1.0091  1.8877 -1.2737
10054SOL    HW231902   0.097   2.424   3.751 -3.5448  0.4191  0.2437
10055SOL     OW31903   1.216   9.420   7.092  0.1417  0.0169 -0.5319
10055SOL    HW131904   1.168   9.347   7.131  0.3600 -0.7096 -1.5534
10055SOL    HW231905   1.184   9.424   7.002  0.0767  1.2470 -0.4759
10056SOL     OW31906   5.152   2.263   1.838 -0.5905  0.3654  0.1803
10056SOL    HW131907   5.137   2.228   1.926 -0.8521  0.0288  0.0034
10056SOL    HW231908   5.073   2.240   1.790  0.0838 -0.5917 -0.5049
10057SOL     OW31909   4.003   9.059   8.665 -0.1676  0.0150  1.1307
10057SOL    HW131910   4.046   9.145   8.670  2.2628 -1.0375 -0.0804
10057SOL    HW231911   3.961   9.059   8.579  0.9750 -0.4561  0.5510
10058SOL     OW31912   0.655   1.404   2.114  0.7200  0.1820  0.0660
10058SOL    HW131913   0.666   1.440   2.202 -0.7768  0.0026  0.3443
10058SOL    HW231914   0.642   1.310   2.128 -1.7974  0.4373 -0.1129
10059SOL     OW31915   6.285   4.186   5.632  0.1382  0.2671  0.6584
10059SOL    HW131916   6.315   4.232   5.711 -0.7406 -1.4468  2.0511
10059SOL    HW231917   6.312   4.096   5.645 -1.0659 -0.2875 -0.4490
10060SOL     OW31918   7.071   3.994   3.307 -0.4967  0.4152 -0.3502
10060SOL    HW131919   7.074   4.086   3.278  1.8923  0.5448  0.0761
10060SOL    HW231920   7.114   3.995   3.393 -1.2494 -0.9896  0.0720
10061SOL     OW31921   0.315   2.925   5.304  0.0847  0.1097  0.0012
10061SOL    HW131922   0.297   3.017   5.324  2.0791  0.6063 -0.2346
10061SOL    HW231923   0.344   2.926   5.213 -2.4367 -1.1737 -0.8968
10062SOL     OW31924   1.456   4.754   5.146 -0.0529  0.0120  0.1640
10062SOL    HW131925   1.432   4.667   5.116 -1.6484  0.6022 -0.3668
10062SOL    HW231926   1.543   4.743   5.186 -1.2155 -2.3030  2.3227
10063SOL     OW31927   1.375   1.166   1.601 -0.2388  0.2883 -0.1117
10063SOL    HW131928   1.342   1.091   1.650 -1.7436  0.6876 -0.4826
10063SOL    HW231929   1.435   1.209   1.662  3.0617 -2.7715 -0.8240
10064SOL     OW31930   7.231   9.440   9.231  0.6086 -0.1488 -0.0028
10064SOL    HW131931   7.240   9.526   9.274 -0.6240  0.6278 -1.2211
10064SOL    HW231932   7.254   9.377   9.299  1.7257  1.1468  0.8767
10065SOL     OW31933   3.545   0.469   8.914  0.1518 -0.3028 -0.1586
10065SOL    HW131934   3.479   0.538   8.919  0.1317 -0.3743  0.6984
10065SOL    HW231935   3.547   0.431   9.002  0.1872 -1.3813 -0.6096
10066SOL     OW31936   2.616   3.860   7.811 -0.2483 -0.4921 -0.1698
10066SOL    HW131937   2.679   3.790   7.792 -1.5522 -1.9411  0.6897
10066SOL    HW231938   2.669   3.940   7.808  1.5322 -1.5984  0.0256
10067SOL     OW31939   8.598   7.841   0.664 -0.2176  0.1357  0.2972
10067SOL    HW131940   8.617   7.760   0.616  0.8166  0.0657  0.7975
10067SOL    HW231941   8.609   7.911   0.599  0.0459 -0.0422  0.1462
10068SOL     OW31942   0.965   5.797   6.661 -0.0375  0.4138 -0.0933
10068SOL    HW131943   0.977   5.892   6.667  0.7653  0.2458  1.5176
10068SOL    HW231944   1.019   5.771   6.587 -0.7104  1.2728 -0.9092
10069SOL     OW31945   2.945   4.534   0.772  0.2873 -0.4560  0.2920
10069SOL    HW131946   2.989   4.617   0.752 -0.3296 -0.0883  0.4250
10069SOL    HW231947   2.900   4.550   0.856 -1.9790 -0.0522 -0.9226
10070SOL     OW31948   4.022   1.589   7.710  0.0444 -0.0701  0.0590
10070SOL    HW131949   3.936   1.627   7.692 -1.1565 -1.3068  2.6106
10070SOL    HW231950   4.017   1.500   7.673  0.8346  0.3328 -1.0899
10071SOL     OW31951   9.233   2.222   7.330 -0.0158  0.0254 -0.3220
10071SOL    HW131952   9.238   2.210   7.424 -0.7005 -1.6560 -0.4647
10071SOL    HW231953   9.143   2.253   7.314  0.3595  1.1363 -0.3650
10072SOL     OW31954   8.755   5.794   0.650 -0.3615  0.2116 -0.6168
10072SOL    HW131955   8.774   5.841   0.731  0.5907  0.7417 -1.1306
10072SOL    HW231956   8.795   5.708   0.662 -1.3055 -0.1579 -0.0396
10073SOL     OW31957   6.302   4.674   9.570  0.0789 -0.6596 -0.4240
10073SOL    HW131958   6.292   4.580   9.584  0.3292 -0.5009  1.0201
10073SOL    HW231959   6.364   4.682   9.498  0.5751 -1.6101 -0.1134
10074SOL     OW31960   8.912   3.313   6.879  0.0019 -0.2832  0.6684
10074SOL    HW131961   8.817   3.298   6.879 -0.0062 -0.2439  0.4745
10074SOL    HW231962   8.924   3.385   6.817  0.0889  0.1816  1.2235
10075SOL     OW31963   5.476   7.304   5.176  0.6821 -0.5389  0.2223
10075SOL    HW131964   5.422   7.363   5.228  0.0975 -1.2884  0.4889
10075SOL    HW231965   5.467   7.336   5.086  0.1564 -0.3841  0.3282
10076SOL     OW31966   5.915   3.092   2.556 -0.8480 -0.0066 -0.0151
10076SOL    HW131967   5.824   3.120   2.562 -1.5105 -2.0778  0.4920
10076SOL    HW231968   5.929   3.039   2.635  1.0926  0.9955  0.3905
10077SOL     OW31969   5.856   7.843   0.581 -0.2605  0.2092 -0.0892
10077SOL    HW131970   5.923   7.909   0.565 -1.6050  1.6554  0.0031
10077SOL    HW231971   5.852   7.835   0.676 -0.8838  0.8820 -0.0456
10078SOL     OW31972   6.539   4.595   8.833  0.2834  0.0795  0.1243
10078SOL    HW131973   6.532   4.519   8.891 -0.2479  0.4832  0.5985
10078SOL    HW231974   6.518   4.560   8.746 -4.3598  0.3978  0.8585
10079SOL     OW31975   8.760   1.039   6.037  0.3849 -0.2000  0.2957
10079SOL    HW131976   8.742   1.020   6.129  0.9461 -1.8336  0.0977
10079SOL    HW231977   8.816   1.117   6.039 -1.5118  1.2141  1.1874
10080SOL     OW31978   3.082   5.586   3.691 -0.0408  0.0339 -0.0139
10080SOL    HW131979   3.156   5.631   3.732 -0.0270  0.4941 -0.5237
10080SOL    HW231980   3.063   5.512   3.749  0.0017  0.6428  0.7947
10081SOL     OW31981   9.403   6.926   7.814 -0.0807  0.5271 -0.2057
10081SOL    HW131982   9.465   6.894   7.749 -1.0672  0.1642 -0.9964
10081SOL    HW231983   9.450   6.995   7.861  1.4964 -0.8915  0.3768
10082SOL     OW31984   5.568   5.876   8.219 -0.0324  0.2822  0.0225
10082SOL    HW131985   5.589   5.911   8.306  0.3980 -2.0881  0.9605
10082SOL    HW231986   5.524   5.793   8.238 -2.3499  0.9366 -2.0316
10083SOL     OW31987   6.040   2.568   6.307 -0.0737 -0.4505 -0.1364
10083SOL    HW131988   6.129   2.551   6.276  0.3209 -0.4425  0.9562
10083SOL    HW231989   5.997   2.611   6.233  1.0597  0.2516 -0.4174
10084SOL     OW31990   9.561   4.150   0.687  0.4544 -0.1574 -0.1474
10084SOL    HW131991   9.615   4.224   0.657 -1.2482  0.9445 -0.6036
10084SOL    HW231992   9.496   4.190   0.745  0.3141 -1.5047  0.6487
10085SOL     OW31993   8.093   3.855   0.419 -0.1519 -0.3677  0.8690
10085SOL    HW131994   8.076   3.850   0.325  0.5536  0.7923  0.6644
10085SOL    HW231995   8.178   3.812   0.430 -0.7194 -1.4641  1.1504
10086SOL     OW31996   9.077   7.305   5.972  0.1342 -0.1893 -0.4671
10086SOL    HW131997   9.072   7.371   6.041 -0.7352 -0.7039 -0.0319
10086SOL    HW231998   9.080   7.221   6.018 -0.0808 -0.5242 -1.0420
10087SOL     OW31999   3.511   2.793   9.225  0.3019 -0.2886 -0.3347
10087SOL    HW132000   3.485   2.701   9.227  1.0094 -0.5050 -0.7021
10087SOL    HW232001   3.580   2.800   9.291  0.6811 -0.1596 -0.7421
10088SOL     OW32002   2.775   2.520   8.552  0.2339 -0.2308 -0.2093
10088SOL    HW132003   2.864   2.495   8.527  1.2678  0.8332  2.1236
10088SOL    HW232004   2.778   2.616   8.557 -0.2890 -0.2930  2.3336
10089SOL     OW32005   7.074   1.267   6.787  0.2875  0.1408 -0.1252
10089SOL    HW132006   7.133   1.333   6.824  0.4883  0.8185 -1.5684
10089SOL    HW232007   7.078   1.282   6.693 -1.2645 -0.6088 -0.3420
10090SOL     OW32008   2.461   5.908   2.023  0.5848 -0.3039 -0.0941
10090SOL    HW132009   2.504   5.837   1.976  0.3605 -1.0237  0.7644
10090SOL    HW232010   2.514   5.985   2.003 -0.0859 -0.3551 -2.3376
10091SOL     OW32011   6.915   7.745   2.350 -0.4408 -0.7343 -0.1444
10091SOL    HW132012   6.928   7.675   2.414  1.0140 -1.3934 -1.0916
10091SOL    HW232013   6.820   7.759   2.348 -0.5770 -1.1570  1.6333
10092SOL     OW32014   5.742   4.750   6.857 -0.3356  0.0272 -0.3366
10092SOL    HW132015   5.771   4.664   6.827 -2.4480 -1.1223  0.6895
10092SOL    HW232016   5.667   4.732   6.913 -1.1591  2.5998 -0.4690
10093SOL     OW32017   2.747   1.008   3.323  0.0882  0.9396  0.4073
10093SOL    HW132018   2.705   0.964   3.396  0.0680 -0.0382 -0.1808
10093SOL    HW232019   2.676   1.025   3.260  0.3487  0.3728 -0.0540
10094SOL     OW32020   2.863   7.129   5.080 -0.2160  0.4870 -0.0489
10094SOL    HW132021   2.838   7.221   5.081  0.2999  0.6402  1.5759
10094SOL    HW232022   2.780   7.082   5.076 -0.5123  1.0131 -0.2164
10095SOL     OW32023   2.247   4.603   7.882  0.0552 -0.2234  0.5601
10095SOL    HW132024   2.191   4.594   7.959 -0.6742  1.6712  0.3004
10095SOL    HW232025   2.202   4.666   7.827  0.7200 -1.3019 -1.3101
10096SOL     OW32026   8.975   5.706   7.673 -0.6385  0.2991  1.0208
10096SOL    HW132027   8.976   5.721   7.578 -0.6943  0.5549  1.0626
10096SOL    HW232028   8.984   5.793   7.712 -1.0893  0.2439  1.2558
10097SOL     OW32029   3.848   5.969   8.629  0.0802  0.1455 -0.5483
10097SOL    HW132030   3.795   5.897   8.664  1.8542 -1.4840 -1.0086
10097SOL    HW232031   3.936   5.952   8.663  0.4090  2.6112  0.0006
10098SOL     OW32032   4.761   1.683   6.781 -0.3105  0.0713 -0.1378
10098SOL    HW132033   4.685   1.701   6.726  0.5143  0.1947 -1.3043
10098SOL    HW232034   4.819   1.631   6.724 -0.8881 -2.8797  1.7729
10099SOL     OW32035   6.922   3.577   9.257 -0.0650 -0.4468  0.2983
10099SOL    HW132036   6.881   3.614   9.179 -1.1561  1.7851  1.8236
10099SOL    HW232037   6.879   3.492   9.269 -0.6447 -0.3449 -0.9174
10100SOL     OW32038   0.342   0.357   3.085 -0.4380  0.0075 -0.5533
10100SOL    HW132039   0.384   0.359   3.171 -1.1955 -0.5411 -0.1565
10100SOL    HW232040   0.399   0.302   3.031  0.2197  0.6355 -0.5106
10101SOL     OW32041   4.153   1.299   5.830  0.3322  0.0355 -0.2183
10101SOL    HW132042   4.195   1.382   5.851 -0.1575  0.1728  0.2513
10101SOL    HW232043   4.188   1.275   5.744  1.2239  0.2285  0.0796
10102SOL     OW32044   6.991   7.143   6.361  1.0485 -0.0439  0.6225
10102SOL    HW132045   6.986   7.099   6.445 -0.0800  0.6898  0.9567
10102SOL    HW232046   6.916   7.109   6.312 -0.5902  2.3383  1.3297
10103SOL     OW32047   4.669   1.696   3.469  0.5635  0.1738 -0.5838
10103SOL    HW132048   4.672   1.786   3.437 -0.2659  0.0605 -1.0047
10103SOL    HW232049   4.606   1.699   3.541  0.4657 -0.0873 -0.6587
10104SOL     OW32050   2.169   6.321   2.042 -0.5053  0.0882  0.2133
10104SOL    HW132051   2.145   6.250   2.102  1.9338 -0.9459  0.0465
10104SOL    HW232052   2.085   6.365   2.023 -1.5204 -0.1177  3.5780
10105SOL     OW32053   2.750   6.699   0.193  0.4518  0.1069  0.0899
10105SOL    HW132054   2.691   6.727   0.123  0.8373  0.4493 -0.0962
10105SOL    HW232055   2.837   6.703   0.154  0.7541  1.1006  0.8344
10106SOL     OW32056   6.514   5.861   5.667 -0.0534 -0.2697  0.3427
10106SOL    HW132057   6.538   5.772   5.642 -0.4049 -0.0724 -0.7766
10106SOL    HW232058   6.584   5.915   5.631 -0.6730  0.0429 -0.4247
10107SOL     OW32059   9.213   2.686   2.981  0.1027  0.5796 -0.4684
10107SOL    HW132060   9.227   2.695   3.076 -0.8545  0.1920 -0.2817
10107SOL    HW232061   9.301   2.679   2.945  0.4570 -2.0794  0.6633
10108SOL     OW32062   0.435   0.979   0.541  0.1445  0.4008  0.3834
10108SOL    HW132063   0.444   0.963   0.635 -0.4789 -1.7036  0.1242
10108SOL    HW232064   0.361   1.040   0.534  0.6070  1.0968  1.2585
10109SOL     OW32065   2.270   1.865   7.197 -0.7091 -0.2285  0.1072
10109SOL    HW132066   2.250   1.954   7.223  3.2214  1.4772 -1.8988
10109SOL    HW232067   2.196   1.840   7.140 -2.2408  1.3984  1.2764
10110SOL     OW32068   3.256   6.562   7.297 -0.8428  0.6477  0.2198
10110SOL    HW132069   3.306   6.616   7.359 -1.0377  1.7255 -0.5295
10110SOL    HW232070   3.211   6.498   7.351  2.2294 -1.1484  0.8669
10111SOL     OW32071   2.393   8.224   7.585 -0.4566  0.5768  0.6759
10111SOL    HW132072   2.419   8.151   7.642 -2.6727 -0.2506  0.7274
10111SOL    HW232073   2.370   8.294   7.646  0.3644  0.8604  0.6690
10112SOL     OW32074   3.832   1.951   6.876  0.4333  0.2842 -0.1164
10112SOL    HW132075   3.805   1.884   6.814  0.0416  0.4875 -0.1693
10112SOL    HW232076   3.752   1.975   6.923  0.7913 -0.1352  0.7356
10113SOL     OW32077   4.771   6.517   0.861 -0.1585 -0.1733  0.1510
10113SOL    HW132078   4.853   6.567   0.858  0.5706 -1.3574 -0.6366
10113SOL    HW232079   4.720   6.551   0.788  0.2064 -0.3456 -0.1902
10114SOL     OW32080   7.008   0.651   8.999  0.0908 -0.0763  0.1893
10114SOL    HW132081   6.985   0.683   9.087 -0.2942 -1.7467  0.7311
10114SOL    HW232082   7.096   0.684   8.984  0.8281 -1.1186  1.9229
10115SOL     OW32083   6.365   1.988   2.562  0.9348 -0.1436 -0.4946
10115SOL    HW132084   6.353   1.894   2.574  2.1440 -0.7234 -3.1565
10115SOL    HW232085   6.448   2.008   2.605  0.2816 -0.0558  0.7999
10116SOL     OW32086   7.531   4.530   8.778  0.3319  0.7553 -0.1586
10116SOL    HW132087   7.584   4.465   8.730  1.1281 -0.2978  1.9823
10116SOL    HW232088   7.582   4.611   8.772 -0.4423  1.1338 -2.4810
10117SOL     OW32089   3.397   3.660   2.954 -0.0944 -0.2845  0.4599
10117SOL    HW132090   3.484   3.640   2.989  0.0013 -0.3139  0.2082
10117SOL    HW232091   3.347   3.580   2.967 -0.3304 -0.0035  1.3560
10118SOL     OW32092   8.211   7.235   5.682 -0.3844  0.1186  0.4326
10118SOL    HW132093   8.187   7.150   5.720 -2.7517 -0.4629 -2.0543
10118SOL    HW232094   8.161   7.299   5.731  0.2672 -0.0457  1.3438
10119SOL     OW32095   0.468   8.549   2.472  0.3643  0.0324  0.5118
10119SOL    HW132096   0.538   8.524   2.532  0.6996 -1.1589 -0.3240
10119SOL    HW232097   0.461   8.644   2.481  2.2669  0.2271  0.4552
10120SOL     OW32098   4.759   0.301   0.995  0.3366  0.2451 -0.4812
10120SOL    HW132099   4.727   0.241   1.063 -1.7839 -0.7103 -2.1626
10120SOL    HW232100   4.845   0.267   0.971  1.0756  0.5528  1.6090
10121SOL     OW32101   4.887   5.150   3.076  0.6125  0.0992  0.0302
10121SOL    HW132102   4.861   5.235   3.038  0.4971  0.2780  0.5017
10121SOL    HW232103   4.847   5.085   3.018  2.1149  0.3332 -1.3420
10122SOL     OW32104   1.247   7.989   8.365 -0.1810 -0.0114 -0.0393
10122SOL    HW132105   1.277   8.078   8.380 -0.2523 -0.0709  0.4960
10122SOL    HW232106   1.232   7.984   8.271 -2.6679  1.3557  0.1855
10123SOL     OW32107   6.231   0.711   7.313 -0.0554  0.1923  0.2789
10123SOL    HW132108   6.256   0.638   7.255  0.4341 -0.9966  1.9135
10123SOL    HW232109   6.239   0.789   7.258  0.6221 -0.8614 -1.1863
10124SOL     OW32110   2.889   1.269   3.550  0.0305  0.1331 -0.0228
10124SOL    HW132111   2.806   1.314   3.532 -2.0170 -3.3759 -0.2519
10124SOL    HW232112   2.930   1.260   3.465 -0.2304  0.3681 -0.1755
10125SOL     OW32113   7.804   2.621   1.342 -0.3599 -0.0084  0.1621
10125SOL    HW132114   7.883   2.600   1.392  0.3650 -0.7498 -1.2358
10125SOL    HW232115   7.837   2.662   1.262 -1.2125 -1.9503 -1.2718
10126SOL     OW32116   6.427   4.598   2.508  0.0718 -0.4661 -0.3429
10126SOL    HW132117   6.437   4.686   2.543 -1.6965 -0.5932  0.5942
10126SOL    HW232118   6.484   4.544   2.564 -0.3466 -0.1960  0.3620
10127SOL     OW32119   4.945   8.480   2.245 -0.2664 -0.3294 -0.0500
10127SOL    HW132120   5.040   8.472   2.250 -0.2198  0.5508  1.1585
10127SOL    HW232121   4.924   8.469   2.153  1.0970  0.2962 -0.4614
10128SOL     OW32122   0.048   2.691   8.981 -0.4349 -0.0846 -0.0407
10128SOL    HW132123  -0.008   2.724   8.911  0.8340  0.5809 -0.7766
10128SOL    HW232124  -0.011   2.681   9.056 -1.5734  0.3676 -0.8419
10129SOL     OW32125   4.586   9.497   0.142 -0.1713  0.1100  0.1885
10129SOL    HW132126   4.540   9.487   0.226 -0.1649 -1.2082  0.0566
10129SOL    HW232127   4.574   9.589   0.119 -2.1030 -0.0247  0.5173
10130SOL     OW32128   2.419   2.070   5.157 -0.3998 -0.5648  0.3355
10130SOL    HW132129   2.485   2.027   5.101  0.4544 -1.1637  1.7531
10130SOL    HW232130   2.417   2.160   5.126  0.7572 -0.6476 -0.0333
10131SOL     OW32131   3.234   1.083   2.020  0.7942 -0.3423  0.1246
10131SOL    HW132132   3.329   1.086   2.024  0.8287 -0.9100 -0.2054
10131SOL    HW232133   3.213   0.992   2.001  0.2929  0.2429 -2.5695
10132SOL     OW32134   3.638   7.448   3.701 -0.0582 -0.3632 -0.4752
10132SOL    HW132135   3.712   7.468   3.643  2.7594 -0.6996  2.6718
10132SOL    HW232136   3.615   7.533   3.740  0.1013 -0.5371  0.0194
10133SOL     OW32137   8.950   0.506   7.190  0.2444  0.0216  0.2761
10133SOL    HW132138   8.979   0.575   7.249 -1.8274 -0.9895  2.6537
10133SOL    HW232139   8.868   0.539   7.152 -0.9003 -1.1126  1.6254
10134SOL     OW32140   4.928   5.977   0.095  0.2832  0.2689  0.0452
10134SOL    HW132141   4.994   6.011   0.035  1.2154 -1.8738 -0.2302
10134SOL    HW232142   4.943   6.025   0.177  1.3116  0.7532 -0.4072
10135SOL     OW32143   1.851   1.234   5.377 -0.1791  0.2039 -0.5884
10135SOL    HW132144   1.924   1.287   5.344 -0.6579  0.1067 -1.8432
10135SOL    HW232145   1.774   1.271   5.334 -0.7824 -0.1865  0.1415
10136SOL     OW32146   5.776   6.610   0.228 -0.1784  0.1625  0.7133
10136SOL    HW132147   5.705   6.554   0.256 -1.3858  1.1142 -0.3212
10136SOL    HW232148   5.777   6.683   0.290  0.1868 -0.0655  0.9798
10137SOL     OW32149   2.858   7.976   3.076  0.1115  0.2537  0.4286
10137SOL    HW132150   2.930   7.974   3.140  1.0759 -1.4057 -0.6332
10137SOL    HW232151   2.893   8.026   3.002 -0.6360  1.2738  0.7298
10138SOL     OW32152   3.122   0.232   5.677 -0.0245  0.4406  0.0185
10138SOL    HW132153   3.060   0.180   5.728  0.7602  0.0840  0.6255
10138SOL    HW232154   3.072   0.309   5.651 -0.4600  0.6114  1.2852
10139SOL     OW32155   5.235   4.838   4.644  0.5695 -0.2982  0.6875
10139SOL    HW132156   5.194   4.868   4.724 -0.4106 -0.9323  0.4398
10139SOL    HW232157   5.312   4.894   4.634  0.7756 -0.2816  2.1200
10140SOL     OW32158   3.916   5.149   3.955  0.2841 -0.0421 -0.5559
10140SOL    HW132159   4.000   5.115   3.922  0.8686  0.2767  0.5686
10140SOL    HW232160   3.891   5.088   4.024 -1.1046 -0.8904 -1.7535
10141SOL     OW32161   2.738   2.683   1.539  0.1813 -0.0837 -0.2088
10141SOL    HW132162   2.824   2.723   1.522  0.1306  0.0843 -0.0748
10141SOL    HW232163   2.698   2.675   1.452  0.0926  0.3862 -0.2150
10142SOL     OW32164   3.333   9.541   3.582  0.8007 -0.2000  0.0061
10142SOL    HW132165   3.394   9.574   3.517 -0.7999  1.0338 -0.9529
10142SOL    HW232166   3.316   9.615   3.640 -0.1712 -0.3509 -0.0682
10143SOL     OW32167   0.151   2.759   2.844 -0.2515  0.5467 -0.7494
10143SOL    HW132168   0.168   2.812   2.766 -1.4861  1.4603 -0.4459
10143SOL    HW232169   0.060   2.731   2.835 -0.3053  0.3718  0.1873
10144SOL     OW32170   3.413   1.307   0.428  0.0770 -0.0966  0.4024
10144SOL    HW132171   3.454   1.344   0.351 -0.1146 -0.9831 -0.1438
10144SOL    HW232172   3.486   1.288   0.488  0.1164  1.8534  1.0402
10145SOL     OW32173   2.885   0.560   3.480 -0.0046  0.8111 -0.1190
10145SOL    HW132174   2.863   0.497   3.412  0.4006 -0.3903  0.8297
10145SOL    HW232175   2.951   0.516   3.533 -0.2378  1.7562  0.9914
10146SOL     OW32176   7.475   5.362   6.593 -0.0020  0.0133 -0.3290
10146SOL    HW132177   7.394   5.313   6.600 -0.6077  0.9328 -0.6621
10146SOL    HW232178   7.540   5.298   6.565 -1.0588 -0.3316 -2.1019
10147SOL     OW32179   5.864   7.514   5.569  0.1430  0.2029 -0.2258
10147SOL    HW132180   5.929   7.459   5.526 -0.5653  0.2506 -1.3888
10147SOL    HW232181   5.859   7.593   5.515 -1.3342 -0.0725 -0.5485
10148SOL     OW32182   1.786   5.312   7.516 -0.0965 -0.6389 -0.0214
10148SOL    HW132183   1.824   5.392   7.482 -0.8009  0.5256  1.7361
10148SOL    HW232184   1.745   5.338   7.599 -2.6793 -2.2398 -0.6434
10149SOL     OW32185   5.251   0.287   3.583  0.0683  0.3245  0.0417
10149SOL    HW132186   5.209   0.312   3.665  1.3261  0.7408  0.5720
10149SOL    HW232187   5.288   0.368   3.549 -2.3141  0.6607 -2.1235
10150SOL     OW32188   9.470   7.086   0.211  0.3472  0.1530  0.3596
10150SOL    HW132189   9.431   7.001   0.192  2.5909 -0.8937  0.1391
10150SOL    HW232190   9.482   7.086   0.306 -0.7853  0.7871  0.5253
10151SOL     OW32191   7.566   1.368   8.524 -0.0442 -0.0369  0.0517
10151SOL    HW132192   7.563   1.336   8.433  0.8392 -0.8810  0.2974
10151SOL    HW232193   7.624   1.444   8.521 -0.6950  0.4589 -0.2254
10152SOL     OW32194   3.784   2.468   4.827 -0.1664  0.0524  0.4702
10152SOL    HW132195   3.708   2.515   4.859  0.2393 -1.0032  3.2676
10152SOL    HW232196   3.856   2.498   4.883  1.1012 -0.3516 -0.8753
10153SOL     OW32197   1.248   0.409   2.215  0.5379 -0.0252  0.0834
10153SOL    HW132198   1.247   0.384   2.123 -2.3198 -0.9962  0.2655
10153SOL    HW232199   1.192   0.487   2.219  0.7356  0.0790  0.9729
10154SOL     OW32200   1.131   6.212   1.615  0.0373 -1.0399  0.1985
10154SOL    HW132201   1.041   6.180   1.615 -0.7563  0.9863 -1.1028
10154SOL    HW232202   1.143   6.249   1.702 -1.3039  0.8678 -0.3537
10155SOL     OW32203   3.229   8.304   2.812 -0.2307  0.2476 -0.2243
10155SOL    HW132204   3.287   8.263   2.748  0.6542  1.9769 -0.5905
10155SOL    HW232205   3.287   8.355   2.868 -1.2813  1.0311  0.1846
10156SOL     OW32206   9.330   7.674   1.790  0.2557  0.8259 -0.7532
10156SOL    HW132207   9.414   7.712   1.765  0.6756 -0.1522 -0.8991
10156SOL    HW232208   9.354   7.599   1.845 -0.5792  1.5186  0.6129
10157SOL     OW32209   4.071   5.860   8.805 -0.2985  0.2154  0.0636
10157SOL    HW132210   4.067   5.775   8.760 -2.1241  0.4040 -0.2148
10157SOL    HW232211   4.137   5.909   8.757 -1.2676 -0.0484 -1.6444
10158SOL     OW32212   5.627   0.045   9.561  0.1037 -0.3909  0.2145
10158SOL    HW132213   5.649  -0.045   9.584  1.4118  0.3864  2.2650
10158SOL    HW232214   5.558   0.070   9.622  0.5218  0.3302  0.4052
10159SOL     OW32215   7.662   7.979   8.762 -0.5344  0.2432 -0.1268
10159SOL    HW132216   7.685   7.888   8.780 -0.6461  0.0754 -0.7849
10159SOL    HW232217   7.720   8.031   8.818 -1.8036 -0.2484  1.7668
10160SOL     OW32218   8.279   9.049   4.042  0.5350  0.5166  0.5987
10160SOL    HW132219   8.219   8.992   4.090  0.7471 -0.0476  0.2027
10160SOL    HW232220   8.335   9.087   4.110 -0.0824  0.8278  0.9432
10161SOL     OW32221   4.381   5.071   3.846 -0.3803  0.5284 -0.4373
10161SOL    HW132222   4.416   5.136   3.908 -1.5024  1.3004 -0.5743
10161SOL    HW232223   4.377   5.118   3.763  0.3497 -0.2502 -0.9190
10162SOL     OW32224   8.111   7.251   9.090  0.3918 -0.4154 -0.1089
10162SOL    HW132225   8.105   7.190   9.016 -1.5329 -0.7687  0.2645
10162SOL    HW232226   8.173   7.211   9.150  1.8861 -0.1885 -1.4524
10163SOL     OW32227   1.975   8.543   0.922 -0.1634  0.0046  0.3096
10163SOL    HW132228   1.887   8.567   0.893 -0.0055  0.1922 -0.0255
10163SOL    HW232229   2.007   8.484   0.854  0.6988  1.4612 -0.6064
10164SOL     OW32230   6.306   3.274   9.544 -0.0100  0.0590  0.1237
10164SOL    HW132231   6.229   3.327   9.561  0.5647  0.4524  1.6658
10164SOL    HW232232   6.274   3.204   9.487 -0.3947  2.9987 -3.6662
10165SOL     OW32233   3.698   6.561   0.659  0.1186 -0.2710 -0.1307
10165SOL    HW132234   3.633   6.628   0.679 -0.6236 -0.7312 -0.9279
10165SOL    HW232235   3.660   6.479   0.691  0.7230 -0.4153  0.2395
10166SOL     OW32236   8.188   6.558   6.560 -0.3482  0.7642 -0.5866
10166SOL    HW132237   8.137   6.477   6.573  0.7891 -0.0908 -1.2306
10166SOL    HW232238   8.130   6.628   6.590 -0.8220 -0.4112  1.4144
10167SOL     OW32239   3.612   2.122   2.664  0.2773 -0.1135 -0.4081
10167SOL    HW132240   3.618   2.197   2.604 -0.9008  2.0071  1.8916
10167SOL    HW232241   3.698   2.117   2.704  0.5226 -0.3650 -0.9526
10168SOL     OW32242   7.736   1.820   5.865  0.1737  0.0473 -0.1839
10168SOL    HW132243   7.806   1.813   5.929 -0.5594  0.2588  0.6586
10168SOL    HW232244   7.769   1.774   5.788  0.9873 -0.3795  0.4060
10169SOL     OW32245   7.939   0.561   6.928  0.3475 -0.3542 -0.6589
10169SOL    HW132246   7.854   0.596   6.955  1.4374  1.4945  0.6390
10169SOL    HW232247   8.003   0.614   6.976  2.2354 -1.9897 -1.2283
10170SOL     OW32248   4.341   4.312   2.801  0.1874 -0.0172  0.1294
10170SOL    HW132249   4.355   4.279   2.713  1.6040 -1.0948  0.7216
10170SOL    HW232250   4.417   4.280   2.851 -1.9396 -1.8522  2.4139
10171SOL     OW32251   7.462   4.664   7.546  0.2772 -0.5501  0.7818
10171SOL    HW132252   7.449   4.570   7.531  1.7576 -0.7456  0.6057
10171SOL    HW232253   7.485   4.699   7.460 -4.3888  0.8480 -0.2000
10172SOL     OW32254   3.349   6.356   4.890  0.2731 -0.0717  0.3805
10172SOL    HW132255   3.403   6.434   4.877  0.2221 -0.1973 -0.6896
10172SOL    HW232256   3.380   6.295   4.823 -0.6275 -0.4500  0.2978
10173SOL     OW32257   3.924   4.098   5.940  0.7175  0.3443 -0.3727
10173SOL    HW132258   3.881   4.055   5.866  0.7465  2.3412 -1.6329
10173SOL    HW232259   4.001   4.044   5.959  0.2933 -0.6095 -1.2725
10174SOL     OW32260   7.389   8.543   7.297 -0.4524 -0.6156  0.4371
10174SOL    HW132261   7.323   8.581   7.355 -0.5834  0.2262 -0.2589
10174SOL    HW232262   7.358   8.562   7.209  1.0041  0.2926  0.0966
10175SOL     OW32263   1.979   8.958   3.571 -0.6911 -0.9087  0.6800
10175SOL    HW132264   2.038   8.988   3.501  0.7918 -2.3691  1.2108
10175SOL    HW232265   1.971   9.033   3.629  1.5257 -0.9316  1.1164
10176SOL     OW32266   6.155   0.977   9.440  0.1050  1.1029  0.3025
10176SOL    HW132267   6.065   0.989   9.470  0.4877  1.7758  1.2420
10176SOL    HW232268   6.151   0.993   9.346 -1.3669 -2.3096 -0.3882
10177SOL     OW32269   4.308   0.396   7.062 -0.5818 -0.6875 -0.1178
10177SOL    HW132270   4.218   0.420   7.085 -0.1331  0.5944  0.4044
10177SOL    HW232271   4.300   0.346   6.981 -1.7121  0.0598 -0.4870
10178SOL     OW32272   4.087   6.730   5.135  0.1898  0.1053 -0.1137
10178SOL    HW132273   4.153   6.739   5.066 -0.1017  2.2283 -0.2102
10178SOL    HW232274   4.130   6.680   5.204  1.4058  0.2108 -0.7726
10179SOL     OW32275   0.843   6.201   8.984  0.2358  0.0465  0.4861
10179SOL    HW132276   0.857   6.247   8.901 -0.8267 -0.1627  0.1744
10179SOL    HW232277   0.795   6.122   8.960  0.8316 -0.5419  1.1861
10180SOL     OW32278   7.228   9.141   5.481 -0.4772  0.2800 -0.5055
10180SOL    HW132279   7.134   9.160   5.490 -0.6623 -0.4158 -0.8978
10180SOL    HW232280   7.231   9.063   5.426  0.2926 -0.2381  0.2492
10181SOL     OW32281   9.323   5.278   1.645 -0.2330  0.3302  0.3345
10181SOL    HW132282   9.319   5.247   1.736 -0.2609  0.5590  0.4111
10181SOL    HW232283   9.331   5.373   1.652 -1.3972  0.4609  0.0830
10182SOL     OW32284   4.888   4.095   3.776 -0.3088  0.9805 -0.4683
10182SOL    HW132285   4.966   4.126   3.731 -0.5707  0.9699 -0.9309
10182SOL    HW232286   4.821   4.091   3.709  0.4165 -3.5986 -1.2739
10183SOL     OW32287   9.130   0.655   1.849  0.3885 -0.6022 -0.3857
10183SOL    HW132288   9.191   0.693   1.912  1.7981 -1.6452 -1.0849
10183SOL    HW232289   9.047   0.651   1.897  1.5455 -1.9891  1.6760
10184SOL     OW32290   8.629   4.136   1.369  0.2660 -0.3530 -0.0943
10184SOL    HW132291   8.571   4.187   1.312  1.1919  1.4581  0.5224
10184SOL    HW232292   8.573   4.068   1.406 -0.7128 -0.6189 -1.9449
10185SOL     OW32293   1.897   4.674   8.430  0.1659 -0.9276  0.7187
10185SOL    HW132294   1.882   4.582   8.409  0.9360 -1.4976  2.4308
10185SOL    HW232295   1.989   4.678   8.456 -0.1131  0.1098  1.6410
10186SOL     OW32296   5.361   2.136   6.549 -0.3867  0.4062 -0.2127
10186SOL    HW132297   5.369   2.230   6.560 -1.6622  0.5584 -0.5157
10186SOL    HW232298   5.274   2.122   6.512 -0.1555 -0.8770 -0.3473
10187SOL     OW32299   7.127   0.495   1.795  0.2634 -0.0819 -0.7175
10187SOL    HW132300   7.177   0.576   1.806  0.2004 -0.3099  1.7199
10187SOL    HW232301   7.106   0.468   1.884 -0.2868 -2.4453 -1.5140
10188SOL     OW32302   2.527   1.964   8.414 -0.5143  0.0658  0.3211
10188SOL    HW132303   2.550   2.012   8.493 -0.7802  1.3263 -0.3379
10188SOL    HW232304   2.512   1.874   8.443  0.5622  0.2446  1.5007
10189SOL     OW32305   0.572   5.903   4.140  0.4119 -0.0550 -0.0173
10189SOL    HW132306   0.579   5.874   4.231 -0.6788 -1.0496 -0.2248
10189SOL    HW232307   0.485   5.943   4.135  1.0991  1.4680 -0.2459
10190SOL     OW32308   8.437   9.526   1.691 -0.4480 -0.0521 -0.2790
10190SOL    HW132309   8.367   9.548   1.630 -1.2165 -3.4138 -0.7736
10190SOL    HW232310   8.511   9.579   1.662 -1.4437  0.1287 -2.7158
10191SOL     OW32311   3.891   7.878   8.391  0.5589 -0.1702 -0.4268
10191SOL    HW132312   3.888   7.824   8.470 -0.4783  1.6141  0.8373
10191SOL    HW232313   3.947   7.952   8.415 -0.0194  0.5512 -1.2545
10192SOL     OW32314   3.725   2.382   1.508 -0.1675  0.0704  0.4560
10192SOL    HW132315   3.753   2.463   1.467 -0.0378 -0.5412 -0.7104
10192SOL    HW232316   3.792   2.363   1.573  1.3280 -0.5323 -1.1801
10193SOL     OW32317   3.428   1.229   8.329 -0.1988  0.3925  0.4042
10193SOL    HW132318   3.522   1.212   8.334 -0.3952 -0.6805  0.7209
10193SOL    HW232319   3.415   1.306   8.385  0.5755  0.9470 -0.1640
10194SOL     OW32320   7.916   3.733   6.963 -0.2074 -0.1117 -0.1759
10194SOL    HW132321   7.965   3.795   7.017 -2.7369  1.6377  0.2948
10194SOL    HW232322   7.954   3.742   6.875 -0.4551  2.1206 -0.1004
10195SOL     OW32323   4.053   6.456   8.709  0.3421 -0.5544 -0.1939
10195SOL    HW132324   3.983   6.459   8.644 -0.1835 -1.6245  0.2899
10195SOL    HW232325   4.052   6.365   8.740 -0.3659  0.2236  2.2925
10196SOL     OW32326   2.495   5.529   7.783  0.1612 -0.1199  0.1230
10196SOL    HW132327   2.589   5.522   7.765  0.4022  2.7594 -0.3495
10196SOL    HW232328   2.491   5.560   7.873 -0.2978  0.3025 -0.0402
10197SOL     OW32329   2.371   7.430   7.104  0.3653  0.7061 -0.1046
10197SOL    HW132330   2.461   7.415   7.134 -0.1885  1.0437  1.9145
10197SOL    HW232331   2.346   7.514   7.143 -0.3889  1.3089 -1.7921
10198SOL     OW32332   8.251   5.309   4.686  0.0333  0.4339  0.8197
10198SOL    HW132333   8.331   5.330   4.735  0.7204  1.1239 -0.5318
10198SOL    HW232334   8.250   5.213   4.681  2.3495  0.3982 -1.5053
10199SOL     OW32335   3.398   1.743   9.067 -0.0031  0.2700  0.0412
10199SOL    HW132336   3.341   1.666   9.062  0.4016 -0.1721  1.6947
10199SOL    HW232337   3.442   1.735   9.151  0.1570  2.2546  0.1978
10200SOL     OW32338   6.020   1.207   3.147 -0.0794 -0.1841 -0.3320
10200SOL    HW132339   6.103   1.254   3.159  0.5092 -0.8386 -1.6006
10200SOL    HW232340   5.954   1.268   3.180  0.9265  0.1557  1.1723
10201SOL     OW32341   1.701   3.869   4.914 -0.0365 -0.2732  0.2836
10201SOL    HW132342   1.682   3.846   5.005 -0.6114  0.0250  0.2419
10201SOL    HW232343   1.616   3.864   4.870  0.2183 -0.2828 -0.2071
10202SOL     OW32344   8.671   2.248   8.247 -0.3564  0.0825  0.0073
10202SOL    HW132345   8.765   2.264   8.260 -0.2536 -0.5742  0.1117
10202SOL    HW232346   8.652   2.283   8.160  0.3569 -1.2787 -0.7290
10203SOL     OW32347   4.979   6.565   3.041 -0.2411  0.0019  0.2521
10203SOL    HW132348   4.926   6.486   3.053  1.5719 -1.4172 -0.5142
10203SOL    HW232349   5.056   6.535   2.993  1.2370  1.9593  1.2369
10204SOL     OW32350   6.372   4.317   8.565 -1.0738  0.2558 -0.2778
10204SOL    HW132351   6.417   4.323   8.481 -3.7661 -1.3944 -1.9929
10204SOL    HW232352   6.379   4.224   8.590  1.8729  1.0966  2.7913
10205SOL     OW32353   5.099   1.210   5.328  0.6313 -0.4002 -0.0395
10205SOL    HW132354   5.044   1.269   5.276  0.8687  0.0159  0.1798
10205SOL    HW232355   5.091   1.242   5.417 -0.4626 -1.6309  0.3406
10206SOL     OW32356   1.318   1.065   5.108 -0.2249 -0.3913 -0.2331
10206SOL    HW132357   1.311   1.145   5.161 -1.2959  0.3484 -1.4174
10206SOL    HW232358   1.402   1.075   5.063 -0.2410 -0.0331 -0.1937
10207SOL     OW32359   5.169   4.678   7.262  0.4407  1.0148  0.1389
10207SOL    HW132360   5.193   4.770   7.267 -0.5697  1.3906 -1.4168
10207SOL    HW232361   5.115   4.671   7.183  0.5181 -0.9128  0.2133
10208SOL     OW32362   7.206   7.368   6.738 -0.1137 -0.3719  0.1416
10208SOL    HW132363   7.277   7.389   6.677  0.0346 -0.1130  0.4005
10208SOL    HW232364   7.161   7.294   6.697 -2.4198  2.1282 -2.2509
10209SOL     OW32365   6.496   4.302   8.273 -0.8752  0.3785 -0.7341
10209SOL    HW132366   6.499   4.230   8.210 -0.8082  0.6742 -1.0696
10209SOL    HW232367   6.421   4.355   8.245 -0.8723  0.4866 -0.5397
10210SOL     OW32368   6.738   9.579   4.684 -0.5004  0.2812 -0.1941
10210SOL    HW132369   6.676   9.510   4.658  0.6463 -0.1019 -2.0981
10210SOL    HW232370   6.713   9.655   4.631  0.9736 -0.0564 -1.4290
10211SOL     OW32371   8.107   0.074   0.528  0.5662 -0.0537  0.2187
10211SOL    HW132372   8.181   0.113   0.482  0.7484 -0.4364  0.1859
10211SOL    HW232373   8.124   0.092   0.621  0.1481  0.8080  0.1378
10212SOL     OW32374   1.747   7.185   8.537 -0.4024  0.3363 -0.6077
10212SOL    HW132375   1.664   7.150   8.505  0.2562 -0.2547 -1.7475
10212SOL    HW232376   1.737   7.189   8.632 -0.8180 -2.1988 -0.4815
10213SOL     OW32377   7.303   1.281   0.154  0.2735 -0.0585 -0.5867
10213SOL    HW132378   7.217   1.285   0.197  1.1624 -2.0035  1.5988
10213SOL    HW232379   7.301   1.198   0.106  0.8975 -0.0822 -0.5750
10214SOL     OW32380   6.964   7.342   5.330 -0.1890  0.5898 -0.3241
10214SOL    HW132381   7.022   7.272   5.299 -1.8670 -0.8399 -0.4280
10214SOL    HW232382   6.898   7.296   5.382 -2.7844  1.7282 -2.4228
10215SOL     OW32383   6.886   9.446   6.794 -0.0091 -0.3929  0.7169
10215SOL    HW132384   6.843   9.530   6.809 -0.0277 -0.7674  3.0054
10215SOL    HW232385   6.963   9.448   6.851  1.2697 -1.0375 -0.9168
10216SOL     OW32386   6.008   1.515   5.694  0.1980  0.4152 -0.2069
10216SOL    HW132387   5.987   1.518   5.601 -1.3085  0.4032  0.0988
10216SOL    HW232388   5.923   1.519   5.738  0.8560  0.1402  1.1643
10217SOL     OW32389   1.685   0.630   4.458  0.4192  0.6277 -0.0333
10217SOL    HW132390   1.766   0.668   4.422  0.7610  0.4942  0.5625
10217SOL    HW232391   1.633   0.706   4.483 -0.1095  0.7268 -1.4009
10218SOL     OW32392   3.902   6.068   4.404  0.3302 -0.8878 -0.0419
10218SOL    HW132393   3.820   6.090   4.448 -0.3516 -2.0219 -0.7012
10218SOL    HW232394   3.895   6.109   4.318  1.1970  0.4137  0.4746
10219SOL     OW32395   2.548   2.646   0.485  0.2400  0.0513  0.0377
10219SOL    HW132396   2.536   2.557   0.451  0.3567  0.0411  0.0199
10219SOL    HW232397   2.471   2.662   0.538  0.9538 -0.6823  1.3671
10220SOL     OW32398   4.232   0.942   8.424 -0.0184  0.2166 -0.2176
10220SOL    HW132399   4.170   1.000   8.469  2.4308  1.5966  1.6436
10220SOL    HW232400   4.275   0.998   8.359  0.3007 -0.3152 -0.4715
10221SOL     OW32401   4.903   0.267   0.701  0.1298 -0.0883 -0.3720
10221SOL    HW132402   4.872   0.192   0.751 -0.3000  0.4722  0.2206
10221SOL    HW232403   4.824   0.305   0.663  0.4267 -0.3609 -1.2747
10222SOL     OW32404   6.342   4.795   5.505  0.0682 -0.4472 -0.1984
10222SOL    HW132405   6.376   4.819   5.591  1.7739  2.9949 -1.6403
10222SOL    HW232406   6.248   4.815   5.509  0.2571  0.3062  0.7045
10223SOL     OW32407   1.218   1.918   4.669 -0.2049  0.2668  0.1096
10223SOL    HW132408   1.195   1.867   4.747  2.2887 -3.5562 -1.3479
10223SOL    HW232409   1.135   1.936   4.626 -1.5138  1.2416  2.8451
10224SOL     OW32410   5.947   5.076   9.611  0.5674  0.6606 -0.2357
10224SOL    HW132411   5.972   4.987   9.586  0.1735  0.8516 -1.3706
10224SOL    HW232412   6.024   5.129   9.588  0.5351  0.7195 -0.2073
10225SOL     OW32413   7.798   6.935   5.735  0.1832 -0.2752 -0.4271
10225SOL    HW132414   7.724   6.995   5.722  0.8767  0.2468 -2.3048
10225SOL    HW232415   7.757   6.850   5.752 -0.8312  0.2253 -0.2458
10226SOL     OW32416   9.527   5.853   9.446 -0.3900  0.3943  0.2045
10226SOL    HW132417   9.564   5.890   9.527 -1.3631  1.8403  0.0287
10226SOL    HW232418   9.433   5.853   9.460 -0.5825  0.7429 -0.9395
10227SOL     OW32419   3.120   0.775   2.526  0.0674 -0.5921 -0.1472
10227SOL    HW132420   3.143   0.755   2.617 -3.1766  0.0113  0.9438
10227SOL    HW232421   3.167   0.856   2.507  2.4427 -1.8115  0.1807
10228SOL     OW32422   9.395   3.223   8.558 -0.2844 -0.0353 -0.1896
10228SOL    HW132423   9.435   3.282   8.494  0.0566  0.6332  0.6243
10228SOL    HW232424   9.301   3.239   8.550 -0.3059 -0.5998 -1.1372
10229SOL     OW32425   0.955   7.443   9.551  0.3103  0.6294 -0.2064
10229SOL    HW132426   0.941   7.358   9.593  1.2480  1.2539  1.4419
10229SOL    HW232427   1.029   7.428   9.492  0.3759  0.2620 -0.0377
10230SOL     OW32428   0.803   4.442   3.830 -0.2888 -0.3103  0.4154
10230SOL    HW132429   0.866   4.462   3.760  0.6813  1.3049  1.6750
10230SOL    HW232430   0.844   4.371   3.880  1.0558  1.3575  1.7829
10231SOL     OW32431   1.716   2.819   5.471  0.6163 -1.2883  0.2656
10231SOL    HW132432   1.744   2.771   5.549  0.5028 -0.3675  0.8912
10231SOL    HW232433   1.638   2.867   5.499  1.7334  0.6772  0.2182
10232SOL     OW32434   2.964   5.254   0.300  0.3126 -0.3333  0.0260
10232SOL    HW132435   2.980   5.348   0.295  0.9209 -0.3349  1.3983
10232SOL    HW232436   2.951   5.237   0.393  0.8282 -1.7044 -0.1277
10233SOL     OW32437   4.507   6.624   5.675 -0.3680 -0.3123  0.0978
10233SOL    HW132438   4.539   6.560   5.612  0.9498  1.2933 -0.9528
10233SOL    HW232439   4.468   6.693   5.621 -0.4821  0.4386  1.1106
10234SOL     OW32440   5.137   6.718   4.361  0.2230 -0.2905  0.3579
10234SOL    HW132441   5.138   6.790   4.424  0.6891  0.3905 -0.4162
10234SOL    HW232442   5.227   6.685   4.361  0.5510  0.5464 -0.8732
10235SOL     OW32443   3.002   4.956   6.343 -0.4660 -0.1399  0.3730
10235SOL    HW132444   2.993   4.900   6.420  0.7860 -0.0714  0.6003
10235SOL    HW232445   3.015   4.896   6.270  0.5458 -0.1890  0.5681
10236SOL     OW32446   3.274   7.825   2.938  0.4379 -0.3173 -0.6241
10236SOL    HW132447   3.258   7.754   2.999  0.5808 -0.1742 -0.4190
10236SOL    HW232448   3.308   7.896   2.992  2.0640 -0.7077 -1.0824
10237SOL     OW32449   4.948   6.849   5.866  0.3482  0.0749 -0.4318
10237SOL    HW132450   4.910   6.761   5.870 -0.8906  0.5204 -1.8085
10237SOL    HW232451   4.886   6.900   5.813  1.3323  1.6360 -0.1390
10238SOL     OW32452   3.418   3.392   1.795 -0.6487  0.2358  0.1062
10238SOL    HW132453   3.353   3.329   1.764  1.2157 -2.6230  1.5373
10238SOL    HW232454   3.481   3.399   1.723 -0.8240  0.4234 -0.0296
10239SOL     OW32455   0.346   8.086   2.289  0.4324 -0.3436  0.5389
10239SOL    HW132456   0.363   7.995   2.264  0.5964 -0.1576 -0.0435
10239SOL    HW232457   0.251   8.090   2.302  0.3712 -0.5104  0.1788
10240SOL     OW32458   0.779   3.066   4.248  0.5428 -0.0738  0.0854
10240SOL    HW132459   0.806   3.145   4.297 -0.5904  0.0142  0.5987
10240SOL    HW232460   0.726   3.017   4.311  0.6861 -0.9218 -0.4539
10241SOL     OW32461   7.557   4.291   2.980  0.8568 -0.4241  0.5236
10241SOL    HW132462   7.651   4.307   2.982  0.4528  2.4761  0.6945
10241SOL    HW232463   7.538   4.265   2.890  1.3998  2.6647 -0.5843
10242SOL     OW32464   4.250   3.304   2.590  0.0101  0.3233  0.4162
10242SOL    HW132465   4.270   3.256   2.670 -0.7693 -0.0258  0.4155
10242SOL    HW232466   4.303   3.384   2.595 -1.0990  1.0087  1.9878
10243SOL     OW32467   0.924   2.069   0.970 -0.2744 -0.5234 -0.1171
10243SOL    HW132468   0.852   2.045   1.028 -0.7696  0.6200 -0.2394
10243SOL    HW232469   0.987   2.112   1.027 -0.8092  0.6996 -0.4208
10244SOL     OW32470   1.691   3.565   6.823  0.1334  0.2580 -0.8058
10244SOL    HW132471   1.743   3.593   6.748  0.6756 -0.4747 -0.7138
10244SOL    HW232472   1.652   3.646   6.856  1.3253  0.8584 -0.7906
10245SOL     OW32473   7.721   2.113   3.269  0.4226  0.3542  0.3518
10245SOL    HW132474   7.695   2.061   3.345 -4.8410  0.4586 -0.9571
10245SOL    HW232475   7.696   2.203   3.291 -2.1587  0.2435 -1.6297
10246SOL     OW32476   5.450   4.140   1.283  0.4281  0.7433 -0.0487
10246SOL    HW132477   5.509   4.069   1.309 -0.2203  0.0817 -0.3370
10246SOL    HW232478   5.500   4.220   1.300  1.1545  0.2251  0.3342
10247SOL     OW32479   5.768   0.475   2.062  0.2745  0.4492  0.3434
10247SOL    HW132480   5.794   0.561   2.095 -0.4196  1.0500 -0.6126
10247SOL    HW232481   5.684   0.491   2.018 -0.2241 -0.8599  0.7794
10248SOL     OW32482   1.671   1.151   8.373 -0.3669  0.5304  0.8558
10248SOL    HW132483   1.753   1.122   8.413 -0.0254 -0.1280 -0.2930
10248SOL    HW232484   1.650   1.232   8.419  0.4087  0.2054  1.8367
10249SOL     OW32485   8.707   2.937   6.273 -0.2903 -0.0465 -0.2411
10249SOL    HW132486   8.691   2.999   6.344  0.9698 -1.9238  1.8029
10249SOL    HW232487   8.624   2.891   6.262 -0.8062  0.9864 -0.7772
10250SOL     OW32488   2.558   8.276   0.562 -0.2211  0.1962 -0.3266
10250SOL    HW132489   2.537   8.193   0.520 -0.9508 -0.5026  1.3157
10250SOL    HW232490   2.558   8.340   0.491  0.8699 -1.2705 -1.7146
10251SOL     OW32491   6.197   8.032   4.149 -0.6414  0.1418  0.3532
10251SOL    HW132492   6.103   8.042   4.129 -0.5921 -0.8044 -0.4235
10251SOL    HW232493   6.231   8.122   4.145 -0.7992  0.1949 -3.2969
10252SOL     OW32494   2.155   8.815   7.844  0.4493 -0.4769 -0.3266
10252SOL    HW132495   2.104   8.749   7.798  1.4768 -0.2463 -1.8596
10252SOL    HW232496   2.090   8.870   7.888 -0.7243  0.4108 -2.9983
10253SOL     OW32497   7.207   5.357   9.397  0.1500 -0.0114  0.2435
10253SOL    HW132498   7.239   5.418   9.330 -0.8195  0.1466 -0.0854
10253SOL    HW232499   7.172   5.284   9.346 -1.9699  0.7789  0.5069
10254SOL     OW32500   0.755   1.140   0.719 -0.0663  0.0347 -0.0943
10254SOL    HW132501   0.743   1.158   0.626 -1.7374  0.8713  0.2437
10254SOL    HW232502   0.806   1.214   0.751 -1.3171  0.8876  0.0249
10255SOL     OW32503   0.002   0.873   3.633 -0.2647 -0.0431 -0.3422
10255SOL    HW132504  -0.019   0.932   3.561 -1.0360 -0.8309 -0.7801
10255SOL    HW232505   0.092   0.845   3.616 -0.1991  0.3197 -0.6057
10256SOL     OW32506   3.039   9.584   9.411  0.4359 -0.4065 -0.0790
10256SOL    HW132507   3.056   9.516   9.476 -0.3810  0.8065  1.5147
10256SOL    HW232508   3.062   9.666   9.456  0.0316  0.4738 -1.4076
10257SOL     OW32509   3.611   9.198   6.639 -0.0086 -0.0268  0.3921
10257SOL    HW132510   3.676   9.151   6.586 -0.5927  1.2157 -1.5444
10257SOL    HW232511   3.597   9.280   6.592 -2.5771 -0.0215  1.0324
10258SOL     OW32512   9.436   4.247   2.527 -0.1686 -0.3889 -0.6891
10258SOL    HW132513   9.523   4.242   2.567 -0.5495  0.8386  0.3802
10258SOL    HW232514   9.390   4.170   2.560  0.5072 -1.0623 -1.2847
10259SOL     OW32515   9.135   0.047   1.969 -0.6316  0.5218 -0.5136
10259SOL    HW132516   9.200  -0.012   1.929 -1.8779 -2.7060  1.8005
10259SOL    HW232517   9.058   0.039   1.913 -0.5004  0.7859 -0.7393
10260SOL     OW32518   5.674   8.474   6.104  0.0243 -0.3089  0.1044
10260SOL    HW132519   5.729   8.550   6.083 -0.6595 -0.0121 -0.6528
10260SOL    HW232520   5.737   8.406   6.129  0.7344  0.0762 -0.5898
10261SOL     OW32521   7.386   2.517   8.088 -0.0308 -0.8246 -0.3128
10261SOL    HW132522   7.367   2.465   8.166 -0.7278  1.4074  1.1009
10261SOL    HW232523   7.351   2.465   8.015 -3.5067 -1.0332  1.2981
10262SOL     OW32524   2.249   3.322   5.488 -0.1859 -0.9090 -0.2644
10262SOL    HW132525   2.267   3.405   5.443  1.2841 -1.9472 -1.7202
10262SOL    HW232526   2.199   3.271   5.424 -0.7582 -1.2906  0.4750
10263SOL     OW32527   7.557   0.804   7.243 -0.4173  0.2388 -0.6116
10263SOL    HW132528   7.538   0.781   7.152  1.8851 -2.1082 -0.6379
10263SOL    HW232529   7.487   0.761   7.293 -1.4620  1.1923 -1.2064
10264SOL     OW32530   7.494   2.150   5.888  0.7346 -0.3264  0.3660
10264SOL    HW132531   7.503   2.240   5.921  1.2795 -0.5687  0.8872
10264SOL    HW232532   7.576   2.132   5.843  0.8960 -0.8048  0.8526
10265SOL     OW32533   9.594   5.429   9.475 -0.0716  0.3319  0.5790
10265SOL    HW132534   9.642   5.489   9.418 -0.6439  0.3689  0.1394
10265SOL    HW232535   9.645   5.348   9.472  0.8754  0.8742  1.4174
10266SOL     OW32536   4.989   7.229   8.037 -0.1842 -0.3016 -0.1837
10266SOL    HW132537   4.924   7.162   8.015 -0.2593 -0.1421 -0.4623
10266SOL    HW232538   5.016   7.264   7.952  1.8806 -1.8548 -0.2286
10267SOL     OW32539   2.353   6.157   3.089  0.4022 -0.8466  0.4839
10267SOL    HW132540   2.304   6.113   3.159  0.2252 -0.3526  0.6711
10267SOL    HW232541   2.337   6.250   3.103 -0.5245 -0.7762 -0.8552
10268SOL     OW32542   7.941   3.863   5.660 -0.1088 -0.8565  0.4376
10268SOL    HW132543   8.019   3.810   5.674  0.3920 -0.3943 -0.5008
10268SOL    HW232544   7.877   3.829   5.723  1.2914 -0.2891  2.2313
10269SOL     OW32545   5.808   7.094   2.233 -0.6647 -0.8035  0.2489
10269SOL    HW132546   5.848   7.094   2.146  0.9405  0.3121  0.9503
10269SOL    HW232547   5.789   7.002   2.250  2.0514 -1.4906  0.0353
10270SOL     OW32548   4.671   6.804   4.369 -0.1437 -0.5131  0.2252
10270SOL    HW132549   4.760   6.839   4.366 -0.9689  1.6865 -0.4352
10270SOL    HW232550   4.617   6.872   4.328 -1.9817 -2.2852 -0.4845
10271SOL     OW32551   4.139   5.020   8.319 -0.1531 -0.1225  0.0579
10271SOL    HW132552   4.130   5.091   8.256 -3.4723 -0.2390  0.2396
10271SOL    HW232553   4.058   4.970   8.311  1.2518 -2.8467  1.2477
10272SOL     OW32554   2.563   4.165   9.544  0.0408  0.0349 -0.2559
10272SOL    HW132555   2.655   4.141   9.542  0.2986  0.7781  1.4626
10272SOL    HW232556   2.529   4.128   9.626 -2.0833 -3.1041 -2.2893
10273SOL     OW32557   1.394   3.557   0.562  0.1773  0.2323 -0.3098
10273SOL    HW132558   1.484   3.584   0.546  0.2819 -0.4554 -0.9400
10273SOL    HW232559   1.342   3.608   0.499  0.4433 -1.4341 -1.9765
10274SOL     OW32560   4.390   0.934   6.449 -0.0192  0.1880  0.1094
10274SOL    HW132561   4.323   0.867   6.458 -0.2843  0.2257 -1.3106
10274SOL    HW232562   4.360   1.007   6.504 -0.3198 -0.3994  0.7282
10275SOL     OW32563   9.387   0.230   5.412  0.1633  0.1009  0.3559
10275SOL    HW132564   9.480   0.230   5.434  0.1415 -0.5584  0.4898
10275SOL    HW232565   9.369   0.139   5.386 -0.2054  0.4605 -0.6824
10276SOL     OW32566   5.044   0.521   4.309 -0.3442  0.2036  0.1156
10276SOL    HW132567   5.120   0.571   4.339 -1.3947  1.8481  0.1857
10276SOL    HW232568   5.080   0.436   4.283  1.4956  0.8931  0.2238
10277SOL     OW32569   8.770   7.303   3.816  0.4116  0.1955  0.6621
10277SOL    HW132570   8.839   7.318   3.752  0.6255  0.3909  0.9340
10277SOL    HW232571   8.692   7.345   3.779  0.5292  0.2893  0.5232
10278SOL     OW32572   4.898   8.513   5.280 -0.3996 -0.9433  0.4231
10278SOL    HW132573   4.945   8.435   5.306  0.4812 -0.6036 -0.1258
10278SOL    HW232574   4.951   8.586   5.313  0.0731 -0.5313 -1.1743
10279SOL     OW32575   7.734   6.134   0.123  0.3675 -0.2320  0.1130
10279SOL    HW132576   7.668   6.085   0.173  0.4384 -1.4721 -0.9418
10279SOL    HW232577   7.807   6.073   0.114  1.1449  0.6792  0.1900
10280SOL     OW32578   2.215   0.639   1.823  0.2827 -0.0218 -0.3540
10280SOL    HW132579   2.310   0.635   1.827  0.2486 -1.3667 -0.5087
10280SOL    HW232580   2.191   0.703   1.891  1.2377 -0.4706  0.4312
10281SOL     OW32581   3.918   4.720   7.193 -0.0009 -0.0276 -0.1806
10281SOL    HW132582   3.890   4.723   7.101 -0.7018  0.4653  0.0460
10281SOL    HW232583   3.839   4.697   7.242  0.0404  1.0989  0.4369
10282SOL     OW32584   3.185   6.539   5.886  0.1812 -0.1394  0.0958
10282SOL    HW132585   3.229   6.480   5.947  1.8599  0.3515 -0.5749
10282SOL    HW232586   3.103   6.562   5.929  0.2610 -1.6293  1.1102
10283SOL     OW32587   5.948   8.666   7.941 -1.1910  0.3556  0.1797
10283SOL    HW132588   5.880   8.686   8.006 -0.7523 -0.1334  0.8081
10283SOL    HW232589   5.900   8.638   7.863 -1.7156  0.2062  0.5519
10284SOL     OW32590   8.407   2.011   2.480 -0.2269 -0.4325  0.3043
10284SOL    HW132591   8.325   2.020   2.433 -1.6649 -2.1407  2.3389
10284SOL    HW232592   8.453   1.939   2.437 -0.3529 -0.2977 -0.0532
10285SOL     OW32593   6.190   0.809   8.300  0.1919  0.1028  0.4815
10285SOL    HW132594   6.145   0.775   8.222  1.2492  1.3659 -0.7150
10285SOL    HW232595   6.126   0.797   8.371 -1.7503  1.1188 -1.0058
10286SOL     OW32596   3.376   9.204   7.072  0.7171 -0.2127  0.1331
10286SOL    HW132597   3.446   9.241   7.126  0.6621  1.6080 -0.9628
10286SOL    HW232598   3.420   9.170   6.994  0.5878 -1.0113  0.4005
10287SOL     OW32599   8.489   0.472   9.307  0.0809 -0.4058  0.0187
10287SOL    HW132600   8.412   0.433   9.266  0.7876 -0.1885 -1.5824
10287SOL    HW232601   8.529   0.525   9.238  2.2358 -1.3441  0.4617
10288SOL     OW32602   0.115   5.217   8.845  0.3558 -0.4892  0.8319
10288SOL    HW132603   0.146   5.307   8.829  1.2443 -0.7556  0.9939
10288SOL    HW232604   0.122   5.206   8.940 -0.0310 -0.6333  0.8441
10289SOL     OW32605   4.721   5.620   5.035  0.6984  0.0410 -0.0756
10289SOL    HW132606   4.626   5.617   5.020  1.0047 -0.3004 -2.4292
10289SOL    HW232607   4.736   5.701   5.083 -0.8060  0.0236  0.4576
10290SOL     OW32608   8.377   2.944   2.814 -0.0616 -0.7468 -0.3156
10290SOL    HW132609   8.313   2.969   2.747  0.2752  0.9482 -0.0318
10290SOL    HW232610   8.462   2.962   2.774  0.1425  0.3381  0.5680
10291SOL     OW32611   5.820   7.260   7.816 -0.5068  0.0875  0.1402
10291SOL    HW132612   5.856   7.307   7.891 -0.7439 -1.3977  1.2443
10291SOL    HW232613   5.826   7.167   7.840 -0.6835 -0.4423 -1.6431
10292SOL     OW32614   7.290   1.463   6.787 -0.2279  0.2210 -0.3504
10292SOL    HW132615   7.310   1.506   6.870  1.8602 -0.7347 -0.3000
10292SOL    HW232616   7.321   1.525   6.720 -1.8230  0.9490 -0.4496
10293SOL     OW32617   9.608   7.841   2.826  0.3005  0.3548  0.1382
10293SOL    HW132618   9.557   7.800   2.896 -0.1571  0.3644 -0.1861
10293SOL    HW232619   9.543   7.887   2.772  0.7483  1.1254  0.2325
10294SOL     OW32620   9.609   3.563   2.046 -0.5682  0.1212 -0.1554
10294SOL    HW132621   9.576   3.480   2.081 -0.6493  0.9473  1.8993
10294SOL    HW232622   9.540   3.593   1.987 -0.4330 -1.3567 -1.1173
10295SOL     OW32623   2.709   0.276   1.329  0.0461 -0.0770  0.7546
10295SOL    HW132624   2.794   0.267   1.284 -0.4510 -1.0722 -0.0320
10295SOL    HW232625   2.716   0.359   1.376  1.3810 -0.0342  0.5379
10296SOL     OW32626   3.349   7.443   9.012  0.5913  0.2274 -0.1390
10296SOL    HW132627   3.341   7.535   9.037  0.8425  0.1932  0.0687
10296SOL    HW232628   3.436   7.417   9.042  0.0682 -0.4073  0.8897
10297SOL     OW32629   8.844   2.194   5.645  0.1360 -0.4562 -0.0784
10297SOL    HW132630   8.840   2.133   5.719  0.8754 -2.5155 -1.6357
10297SOL    HW232631   8.752   2.212   5.624 -0.1047  0.9311  1.8516
10298SOL     OW32632   9.098   6.232   0.464 -0.0904  0.2795 -0.0805
10298SOL    HW132633   9.024   6.192   0.511  0.0302 -3.0326 -2.3544
10298SOL    HW232634   9.175   6.187   0.497  0.2637 -0.2381 -1.5312
10299SOL     OW32635   2.317   9.344   3.895  0.2126  0.0035 -0.3930
10299SOL    HW132636   2.353   9.365   3.809  1.3065  0.4588  0.1534
10299SOL    HW232637   2.222   9.340   3.882  0.3312  0.6143 -1.4948
10300SOL     OW32638   2.280   7.625   1.516  0.1130  0.0825 -0.2677
10300SOL    HW132639   2.191   7.589   1.510 -0.5669  1.4076  1.1637
10300SOL    HW232640   2.319   7.580   1.590  0.0107  0.7305  0.1873
10301SOL     OW32641   7.819   2.672   3.978 -0.6294 -0.0601  0.7776
10301SOL    HW132642   7.769   2.703   3.901 -0.8161  0.0648  0.9464
10301SOL    HW232643   7.830   2.579   3.963  1.5621  0.3695 -0.6601
10302SOL     OW32644   4.038   3.411   0.781  0.4378 -0.2392 -0.1528
10302SOL    HW132645   3.984   3.490   0.783  0.6280 -0.1196  0.8530
10302SOL    HW232646   4.101   3.424   0.851  0.1868 -1.4817  0.3286
10303SOL     OW32647   4.016   1.297   3.355 -0.1013 -0.0879 -0.4316
10303SOL    HW132648   4.087   1.275   3.295  0.3347  3.0366 -1.2463
10303SOL    HW232649   3.940   1.310   3.297 -0.7113 -0.8335  0.1682
10304SOL     OW32650   1.173   5.208   4.646 -0.1016  0.1906  0.3061
10304SOL    HW132651   1.106   5.263   4.606 -0.3069 -0.1370  0.2033
10304SOL    HW232652   1.206   5.260   4.720 -0.3535  0.4166  0.2589
10305SOL     OW32653   5.229   0.745   0.361  0.0760 -0.1169 -0.1270
10305SOL    HW132654   5.304   0.804   0.357 -0.8243  1.2552  1.5963
10305SOL    HW232655   5.235   0.703   0.447 -2.0160  1.3775  0.8413
10306SOL     OW32656   6.098   6.046   8.178 -0.2678  0.2338  0.4566
10306SOL    HW132657   6.062   6.108   8.113 -0.8503  0.0848  0.6267
10306SOL    HW232658   6.186   6.027   8.147  0.1912  1.7174  0.7876
10307SOL     OW32659   3.032   7.025   9.251 -0.0530 -0.4508  0.0446
10307SOL    HW132660   3.098   7.067   9.196 -1.1123  3.2572  1.3582
10307SOL    HW232661   2.949   7.048   9.210 -0.6950 -1.7478  0.5739
10308SOL     OW32662   5.755   4.835   2.686 -0.2786 -0.1223 -0.4427
10308SOL    HW132663   5.736   4.896   2.614 -0.0323 -0.1177 -0.5035
10308SOL    HW232664   5.784   4.892   2.758 -0.7508 -0.1061 -0.2612
10309SOL     OW32665   9.232   0.286   7.770 -0.1871  0.4847 -0.3680
10309SOL    HW132666   9.197   0.223   7.833 -0.7167 -0.1486 -1.2784
10309SOL    HW232667   9.326   0.266   7.766 -0.2463  0.1614 -0.1916
10310SOL     OW32668   7.158   9.103   7.451 -1.0321  0.3576  0.3304
10310SOL    HW132669   7.123   9.021   7.485 -0.6282  0.2258  0.4388
10310SOL    HW232670   7.226   9.077   7.389 -0.3912  0.6087  0.9089
10311SOL     OW32671   4.149   3.765   1.876 -0.1932  0.5499 -0.6793
10311SOL    HW132672   4.234   3.791   1.909 -1.5126  1.4636  2.3161
10311SOL    HW232673   4.093   3.842   1.891 -2.0562 -0.7800 -0.4819
10312SOL     OW32674   3.342   4.941   9.423  0.1615 -0.6139  0.1320
10312SOL    HW132675   3.315   4.938   9.332 -0.6200 -0.2631  0.3420
10312SOL    HW232676   3.344   4.849   9.451  2.1636 -0.8711 -0.7136
10313SOL     OW32677   6.740   0.821   8.947 -0.2255  0.2745 -0.3273
10313SOL    HW132678   6.778   0.796   9.031  1.4187 -0.4491 -1.2379
10313SOL    HW232679   6.783   0.903   8.924 -0.6768  0.4765 -0.4634
10314SOL     OW32680   2.111   8.995   2.323 -0.3091  0.3116  0.3042
10314SOL    HW132681   2.135   9.087   2.312 -0.3095  0.4157  1.0877
10314SOL    HW232682   2.094   8.986   2.417 -0.2774 -0.4964  0.2400
10315SOL     OW32683   4.063   4.210   8.567  0.2097 -0.3101 -0.6903
10315SOL    HW132684   4.042   4.209   8.474  0.0605 -1.0376 -0.6508
10315SOL    HW232685   4.004   4.146   8.606  1.9516 -1.8459 -0.4483
10316SOL     OW32686   5.602   7.635   1.641 -0.5999  0.0116 -0.0559
10316SOL    HW132687   5.588   7.647   1.547  0.2603 -1.4188 -0.3898
10316SOL    HW232688   5.671   7.698   1.663  0.9046 -1.2802 -0.9024
10317SOL     OW32689   5.596   0.062   6.169  0.1110  0.0411 -0.9599
10317SOL    HW132690   5.520   0.040   6.115  0.0501  0.1467 -0.9165
10317SOL    HW232691   5.596   0.157   6.174  0.5706  0.0662 -1.4253
10318SOL     OW32692   1.532   9.585   1.190  0.2738 -0.2164  0.0835
10318SOL    HW132693   1.467   9.574   1.120  3.0119 -0.6731 -2.6309
10318SOL    HW232694   1.525   9.676   1.216 -1.2144 -0.1813 -0.3422
10319SOL     OW32695   8.885   9.495   8.045  0.1474  0.2175 -0.1778
10319SOL    HW132696   8.934   9.576   8.029 -2.9026  2.7210  1.9562
10319SOL    HW232697   8.909   9.470   8.134  0.5977 -0.9418 -0.6058
10320SOL     OW32698   2.733   2.048   3.530 -0.0318 -0.7494 -0.0755
10320SOL    HW132699   2.788   2.070   3.455  1.2206 -2.3211  0.3208
10320SOL    HW232700   2.690   2.130   3.554  1.6610  0.4041 -0.8082
10321SOL     OW32701   0.735   8.351   9.144 -0.0341  0.0564 -0.5817
10321SOL    HW132702   0.696   8.298   9.215 -0.8335  1.4639  0.0775
10321SOL    HW232703   0.768   8.287   9.082  1.4212 -1.2593  1.4392
10322SOL     OW32704   5.803   6.240   1.875  0.0487 -0.3725  0.1014
10322SOL    HW132705   5.830   6.268   1.788  0.9842 -0.2937  0.4102
10322SOL    HW232706   5.884   6.230   1.924 -0.5015  0.8870  1.3645
10323SOL     OW32707   8.628   2.520   3.666  0.2416  0.4695 -0.0724
10323SOL    HW132708   8.604   2.588   3.729  1.7372  1.6088 -0.6673
10323SOL    HW232709   8.547   2.498   3.621 -0.7001  0.2096  1.6689
10324SOL     OW32710   8.475   6.277   6.292 -0.5334  0.3374  0.3713
10324SOL    HW132711   8.524   6.315   6.220 -1.6528  0.8715 -0.1336
10324SOL    HW232712   8.505   6.325   6.370 -0.0757  0.4734  0.1124
10325SOL     OW32713   6.144   2.512   1.844  0.4272  0.5014 -0.1331
10325SOL    HW132714   6.102   2.428   1.860 -2.2379  1.8603  0.5461
10325SOL    HW232715   6.229   2.506   1.889 -1.0349 -0.7363  2.7079
10326SOL     OW32716   2.843   5.062   0.667 -0.6653  0.5520  0.2381
10326SOL    HW132717   2.922   5.107   0.637 -0.1028  1.0421  2.2679
10326SOL    HW232718   2.782   5.067   0.593  0.4236  2.1015 -0.6004
10327SOL     OW32719   1.598   0.097   4.266 -0.1806  0.0151  0.4086
10327SOL    HW132720   1.670   0.159   4.273  0.4407 -0.2908 -2.1089
10327SOL    HW232721   1.522   0.144   4.301  0.7718  1.2037  0.9502
10328SOL     OW32722   0.239   9.295   4.607 -0.5150  0.0646  0.2427
10328SOL    HW132723   0.309   9.233   4.623  1.3133  1.4091 -1.8660
10328SOL    HW232724   0.251   9.363   4.674  1.2762  1.0696 -1.0132
10329SOL     OW32725   3.696   3.775   0.614  0.1183 -0.3029  0.4381
10329SOL    HW132726   3.697   3.863   0.577  0.1682  0.0682  1.2844
10329SOL    HW232727   3.665   3.719   0.543 -2.2740  0.7206  0.5759
10330SOL     OW32728   0.438   3.436   4.382 -0.6242 -0.4539  0.5425
10330SOL    HW132729   0.414   3.347   4.407  2.5065 -2.0526 -1.4360
10330SOL    HW232730   0.453   3.431   4.288  1.1424  1.7386  0.6386
10331SOL     OW32731   4.455   6.485   8.220 -0.3053  0.0529 -0.0117
10331SOL    HW132732   4.520   6.546   8.254 -0.0737  1.0039 -2.0293
10331SOL    HW232733   4.466   6.406   8.273 -0.6386  1.7246  2.6919
10332SOL     OW32734   9.021   7.706   8.664 -0.0857 -0.0804  0.7901
10332SOL    HW132735   8.950   7.749   8.711 -1.2051 -1.6618  0.6099
10332SOL    HW232736   8.977   7.650   8.600  1.3110 -1.3293  0.8680
10333SOL     OW32737   0.635   7.364   0.977  0.5620  0.0920  0.2249
10333SOL    HW132738   0.560   7.348   0.920 -0.0417  2.9949  0.0554
10333SOL    HW232739   0.599   7.364   1.066  1.2686 -3.0861  0.6206
10334SOL     OW32740   7.756   9.305   8.402  0.1075  0.2517 -0.1332
10334SOL    HW132741   7.718   9.244   8.465 -2.8027  2.2365  0.1915
10334SOL    HW232742   7.768   9.387   8.451 -1.1119  1.4977 -1.8007
10335SOL     OW32743   6.655   1.523   4.599 -0.4162 -0.0345 -0.5839
10335SOL    HW132744   6.608   1.579   4.661 -1.4891  0.2411 -1.6039
10335SOL    HW232745   6.747   1.530   4.625 -0.6950  1.0795  0.1893
10336SOL     OW32746   8.902   2.560   4.556  0.2143 -0.0731 -0.2286
10336SOL    HW132747   8.930   2.601   4.474  0.5142 -0.2811 -0.2338
10336SOL    HW232748   8.825   2.508   4.532 -1.7062  2.3934  0.2474
10337SOL     OW32749   0.003   2.970   4.580 -0.3112  0.4134 -0.8290
10337SOL    HW132750  -0.008   3.000   4.490 -0.4612  0.2205 -0.8760
10337SOL    HW232751  -0.075   2.918   4.598 -0.3763  0.6145 -0.5195
10338SOL     OW32752   2.068   1.871   5.219  0.6036  0.2968 -0.2683
10338SOL    HW132753   2.102   1.807   5.156 -0.2304 -0.8773  0.4500
10338SOL    HW232754   2.031   1.941   5.165 -0.8858 -1.1028 -1.1346
10339SOL     OW32755   3.632   1.494   6.029  0.4437  0.3972 -0.1619
10339SOL    HW132756   3.550   1.529   6.065  0.1350  0.5931 -1.0291
10339SOL    HW232757   3.665   1.437   6.097 -2.3658 -2.7414 -1.1461
10340SOL     OW32758   7.442   6.539   6.330  0.7451 -0.0265 -0.3760
10340SOL    HW132759   7.430   6.469   6.266 -0.5929 -0.4523  0.2896
10340SOL    HW232760   7.369   6.599   6.313 -0.6456 -0.9923  1.7507
10341SOL     OW32761   1.277   6.273   8.985 -0.3177 -0.0563 -0.6749
10341SOL    HW132762   1.341   6.315   9.042  0.6232 -0.9885 -1.0178
10341SOL    HW232763   1.302   6.181   8.985 -2.3976 -0.6908  0.1519
10342SOL     OW32764   4.206   0.138   3.540 -0.4271  0.3058  0.0516
10342SOL    HW132765   4.190   0.055   3.495  0.0714  0.2382 -0.0061
10342SOL    HW232766   4.277   0.179   3.492 -0.4643  0.6264  0.2649
10343SOL     OW32767   7.663   7.238   6.419 -0.6382 -0.3431  1.2047
10343SOL    HW132768   7.738   7.290   6.390 -1.6280  1.4588  1.7616
10343SOL    HW232769   7.701   7.155   6.447  1.0032  0.0836  0.3362
10344SOL     OW32770   9.007   4.698   8.328  0.3162  0.0199  0.0252
10344SOL    HW132771   9.009   4.614   8.373 -1.4192  0.2389  0.5903
10344SOL    HW232772   9.061   4.756   8.382 -2.2339  0.4522  2.3362
10345SOL     OW32773   9.365   8.906   0.716 -0.7081  0.0019  0.0289
10345SOL    HW132774   9.354   8.997   0.742 -0.4524  0.1612 -0.4110
10345SOL    HW232775   9.389   8.860   0.797  0.0212  0.4779  0.0888
10346SOL     OW32776   2.880   0.545   0.273  0.2405 -0.2181  0.1005
10346SOL    HW132777   2.960   0.533   0.322  0.8774  0.0671 -0.8333
10346SOL    HW232778   2.854   0.457   0.246 -0.3135 -0.4129  1.2295
10347SOL     OW32779   1.469   4.449   4.046 -0.1714  0.2084  0.1794
10347SOL    HW132780   1.500   4.386   3.981  0.2096  0.0502  0.5081
10347SOL    HW232781   1.449   4.397   4.123 -0.1699  0.4496  0.3444
10348SOL     OW32782   8.054   6.130   9.586  0.0164  0.5498  0.5632
10348SOL    HW132783   8.128   6.184   9.613  1.2001 -1.3780  1.3921
10348SOL    HW232784   8.022   6.090   9.667  0.2058 -1.1720 -0.1611
10349SOL     OW32785   5.919   7.434   4.439 -0.4566  0.0959 -0.3480
10349SOL    HW132786   5.991   7.413   4.500  0.2062 -0.2750 -1.2335
10349SOL    HW232787   5.840   7.422   4.491  0.1446  1.8663  1.0740
10350SOL     OW32788   4.690   6.182   9.418  0.0340 -0.2656 -0.1041
10350SOL    HW132789   4.683   6.156   9.510 -0.9662 -0.3288 -0.1947
10350SOL    HW232790   4.611   6.148   9.377  0.7710 -0.7898 -1.1327
10351SOL     OW32791   4.233   8.171   0.912  0.0380 -0.5969  0.5958
10351SOL    HW132792   4.153   8.223   0.917  2.1215  3.3113 -1.6870
10351SOL    HW232793   4.219   8.112   0.839 -0.5352  0.6239 -0.3179
10352SOL     OW32794   3.278   7.971   1.973 -0.1241  0.2074  0.1042
10352SOL    HW132795   3.227   8.041   2.015  0.2063  2.9463 -3.5169
10352SOL    HW232796   3.215   7.900   1.959 -1.0641  0.6172  1.9191
10353SOL     OW32797   3.903   7.572   0.775 -0.4060  0.5920 -0.0867
10353SOL    HW132798   3.971   7.584   0.842  0.1567  1.2828 -0.7682
10353SOL    HW232799   3.855   7.494   0.804  0.4479  0.3009  0.5983
10354SOL     OW32800   1.286   4.773   1.974  0.2332 -0.1246  0.0436
10354SOL    HW132801   1.257   4.850   2.023 -1.3142 -0.5576 -0.1224
10354SOL    HW232802   1.230   4.702   2.006  1.2226 -1.0580 -0.2373
10355SOL     OW32803   9.139   0.199   4.915 -0.1674  0.3755  0.2819
10355SOL    HW132804   9.134   0.132   4.847 -1.0873  1.0042 -0.2927
10355SOL    HW232805   9.102   0.278   4.875  1.9774  1.5985  0.5248
10356SOL     OW32806   1.559   8.624   6.669  0.0638 -0.0393  0.3597
10356SOL    HW132807   1.591   8.710   6.643  0.0673  0.1828  1.0991
10356SOL    HW232808   1.637   8.574   6.692  0.0545 -0.2196  0.0175
10357SOL     OW32809   0.817   1.796   6.555 -0.3137  0.4379  0.1665
10357SOL    HW132810   0.787   1.813   6.644 -0.3895  2.3213 -0.1738
10357SOL    HW232811   0.790   1.874   6.506  2.2274  0.7347 -0.8762
10358SOL     OW32812   4.685   2.968   0.722 -0.0155  0.3942 -0.1086
10358SOL    HW132813   4.731   2.977   0.806  1.7004 -1.8662 -0.7020
10358SOL    HW232814   4.712   3.045   0.672 -0.2927  1.2755  1.0553
10359SOL     OW32815   2.725   0.517   2.693 -0.1980  0.1336 -0.6873
10359SOL    HW132816   2.647   0.493   2.642 -0.7325  1.6829 -0.6718
10359SOL    HW232817   2.798   0.498   2.635 -0.5543 -1.5755 -0.6109
10360SOL     OW32818   2.265   2.275   3.495 -0.7650  0.2487 -0.1061
10360SOL    HW132819   2.179   2.290   3.455  0.2761  2.8887 -1.6404
10360SOL    HW232820   2.318   2.236   3.426 -0.2733  0.1805  0.2968
10361SOL     OW32821   1.243   9.027   3.254  0.1681  0.5857 -0.5828
10361SOL    HW132822   1.156   9.046   3.220 -0.1534 -1.6727 -1.1318
10361SOL    HW232823   1.231   8.955   3.315  1.7525 -0.3753 -1.3338
10362SOL     OW32824   8.977   3.809   2.395  0.3244 -0.0021  0.5861
10362SOL    HW132825   8.918   3.772   2.461  0.8278 -0.8606  0.5744
10362SOL    HW232826   8.921   3.824   2.319 -0.2350  0.8811  1.1632
10363SOL     OW32827   6.763   5.952   6.915 -0.0041 -0.2266 -0.8307
10363SOL    HW132828   6.796   5.929   7.002  1.6081 -0.9395 -1.5965
10363SOL    HW232829   6.671   5.976   6.930  0.4736  0.5796  1.2011
10364SOL     OW32830   3.185   1.844   1.840 -0.6536  0.2868  0.2652
10364SOL    HW132831   3.172   1.924   1.788  0.6202  1.1045  1.1405
10364SOL    HW232832   3.162   1.870   1.930  1.2318  0.1439  0.8280
10365SOL     OW32833   3.740   6.622   5.963 -0.6281  0.6353 -0.0633
10365SOL    HW132834   3.715   6.622   5.870  0.8537 -0.8615 -0.5090
10365SOL    HW232835   3.819   6.675   5.967 -0.7600  0.8042  0.3790
10366SOL     OW32836   3.915   0.838   1.095 -0.4110  0.4214  0.2215
10366SOL    HW132837   3.983   0.825   1.162 -0.2061 -1.1533 -0.2383
10366SOL    HW232838   3.915   0.932   1.078  2.0141  0.4116 -0.1385
10367SOL     OW32839   0.483   3.182   2.759  0.3183  0.6335  0.3016
10367SOL    HW132840   0.461   3.090   2.771 -0.3075  0.6202 -0.8534
10367SOL    HW232841   0.559   3.182   2.700  0.0044  0.8686 -0.1076
10368SOL     OW32842   8.881   7.673   0.656 -0.0848  0.9512  0.0171
10368SOL    HW132843   8.927   7.744   0.610  1.1156 -0.0116 -0.3092
10368SOL    HW232844   8.880   7.700   0.748 -0.3541  1.7550 -0.2142
10369SOL     OW32845   0.594   8.171   0.354 -0.2524  0.3090  0.1944
10369SOL    HW132846   0.511   8.218   0.346  0.0771  1.1344  1.3243
10369SOL    HW232847   0.579   8.088   0.308 -2.3143 -0.3297  1.8482
10370SOL     OW32848   4.076   0.457   7.190 -0.2980  0.3678 -0.5654
10370SOL    HW132849   4.071   0.550   7.215 -0.6665  0.3431 -0.5418
10370SOL    HW232850   4.005   0.446   7.126 -1.5341 -0.3492  0.8541
10371SOL     OW32851   0.952   0.767   1.613 -0.4654 -0.2296  0.0471
10371SOL    HW132852   0.955   0.687   1.560  3.5950 -0.1280 -0.1920
10371SOL    HW232853   1.004   0.746   1.690 -1.4000  1.4897  1.2110
10372SOL     OW32854   8.794   7.251   0.458 -0.5466  0.4001 -0.2120
10372SOL    HW132855   8.784   7.246   0.553  1.3957 -0.5484 -0.0260
10372SOL    HW232856   8.769   7.164   0.427  2.0060 -0.4160 -0.1907
10373SOL     OW32857   1.577   3.225   1.501 -0.3817 -0.4698  0.1354
10373SOL    HW132858   1.531   3.245   1.419  0.3990 -0.8009 -0.4068
10373SOL    HW232859   1.554   3.134   1.520  1.4019 -1.2565 -1.1235
10374SOL     OW32860   7.342   1.216   9.320  0.7082 -0.0249  0.4769
10374SOL    HW132861   7.259   1.261   9.301  0.1349 -1.1440  0.2226
10374SOL    HW232862   7.315   1.133   9.360  1.6801 -0.6565 -0.1445
10375SOL     OW32863   4.267   7.353   5.398  0.2803  0.0680  0.3231
10375SOL    HW132864   4.225   7.355   5.312  1.4476 -0.2645 -0.2690
10375SOL    HW232865   4.357   7.328   5.381  0.2591 -1.1795  1.7683
10376SOL     OW32866   4.939   5.766   3.258 -0.3014  0.3504  0.0855
10376SOL    HW132867   4.924   5.697   3.323 -1.5566 -0.0654 -0.6282
10376SOL    HW232868   5.032   5.760   3.238 -0.4369 -1.3020 -0.1476
10377SOL     OW32869   3.496   2.288   9.255 -0.4478  0.3836  0.0896
10377SOL    HW132870   3.451   2.239   9.324 -0.8001 -0.2535 -0.5940
10377SOL    HW232871   3.577   2.239   9.239 -0.5184  0.3538 -0.1775
10378SOL     OW32872   7.596   0.775   4.442 -0.1498  0.5192 -0.1151
10378SOL    HW132873   7.546   0.849   4.477  0.8048  0.7285  0.8347
10378SOL    HW232874   7.652   0.813   4.375 -0.5183  0.4569 -0.4590
10379SOL     OW32875   4.842   8.864   1.477  0.2601  0.0720  0.2267
10379SOL    HW132876   4.931   8.885   1.449  0.1062 -0.3831 -0.6634
10379SOL    HW232877   4.801   8.826   1.399 -0.1853 -1.3284  1.1041
10380SOL     OW32878   3.332   2.300   4.364  0.5530  0.1947  0.2775
10380SOL    HW132879   3.403   2.339   4.315 -1.6143  1.0040 -2.4544
10380SOL    HW232880   3.359   2.209   4.378  2.7929  0.8923  0.9000
10381SOL     OW32881   1.819   0.393   5.185  0.0871 -0.2912 -0.3454
10381SOL    HW132882   1.825   0.298   5.195 -0.4645 -0.5038 -1.8474
10381SOL    HW232883   1.910   0.423   5.188  0.2946 -0.9105 -0.2380
10382SOL     OW32884   0.235   7.992   4.534 -0.0083  0.0987  0.3892
10382SOL    HW132885   0.169   7.932   4.499  0.4931  0.3166 -0.9797
10382SOL    HW232886   0.282   7.940   4.599  0.7086 -1.1823 -1.0800
10383SOL     OW32887   2.276   9.053   7.749 -0.3331 -0.1276 -0.4303
10383SOL    HW132888   2.197   9.092   7.786  0.2900 -0.7183  1.6581
10383SOL    HW232889   2.269   8.960   7.771  1.1586 -0.1037  0.2467
10384SOL     OW32890   4.325   3.314   0.401  0.0265 -0.1477  0.6002
10384SOL    HW132891   4.384   3.253   0.357 -0.5001 -0.6598  0.6095
10384SOL    HW232892   4.281   3.262   0.468 -2.2495 -0.3705 -0.9850
10385SOL     OW32893   7.466   6.440   6.735 -0.3899  0.5918  0.0257
10385SOL    HW132894   7.374   6.467   6.733 -0.1721  1.6578  2.1391
10385SOL    HW232895   7.472   6.381   6.811  0.1450 -1.7720 -1.7282
10386SOL     OW32896   9.393   4.901   0.528  0.1364 -0.5990 -0.3535
10386SOL    HW132897   9.447   4.938   0.597 -2.3650  0.8967  0.9320
10386SOL    HW232898   9.425   4.942   0.448  1.7590 -0.8303  0.1380
10387SOL     OW32899   3.278   7.743   7.812  0.6553  0.2484 -0.1927
10387SOL    HW132900   3.203   7.802   7.802  0.6092  0.0909 -0.7608
10387SOL    HW232901   3.243   7.656   7.794  0.5039 -0.0983  1.5481
10388SOL     OW32902   0.580   7.720   4.222  0.6460 -0.1923 -0.1183
10388SOL    HW132903   0.514   7.787   4.237  0.0950 -0.6936 -0.2214
10388SOL    HW232904   0.548   7.673   4.144  0.7651 -0.8670  0.2285
10389SOL     OW32905   9.229   6.912   5.007 -0.0856 -0.2786 -0.1287
10389SOL    HW132906   9.309   6.861   5.022  0.2832  0.2963 -0.1011
10389SOL    HW232907   9.226   6.923   4.912 -0.0380 -0.1601 -0.1172
10390SOL     OW32908   0.311   6.385   6.911 -0.3190  0.0525 -0.2081
10390SOL    HW132909   0.298   6.466   6.960  0.7019  0.2461 -0.2349
10390SOL    HW232910   0.228   6.338   6.919 -0.5306  0.5739  0.7873
10391SOL     OW32911   3.616   1.130   2.833 -0.2654 -0.9245 -0.8686
10391SOL    HW132912   3.657   1.104   2.750  3.2640  0.2383  0.3585
10391SOL    HW232913   3.639   1.062   2.895  1.2517  0.4868  0.2101
10392SOL     OW32914   5.974   9.257   3.428 -0.1843 -0.1050  0.2075
10392SOL    HW132915   5.900   9.204   3.399  0.7539 -1.4105  0.1194
10392SOL    HW232916   5.935   9.324   3.484 -1.4690 -0.4929 -0.1867
10393SOL     OW32917   7.023   1.912   5.063 -0.2253 -0.1534  0.1704
10393SOL    HW132918   7.058   1.856   5.132  0.3527  0.3797  0.3206
10393SOL    HW232919   7.016   1.999   5.104 -2.1539 -0.3192  0.2894
10394SOL     OW32920   4.491   7.410   6.738 -0.2045 -0.1983  0.2862
10394SOL    HW132921   4.423   7.390   6.673 -0.9103 -0.4858  1.1034
10394SOL    HW232922   4.568   7.363   6.706 -0.7458 -0.9409  0.0408
10395SOL     OW32923   2.315   0.256   9.522  0.6479 -0.1250 -0.1442
10395SOL    HW132924   2.379   0.301   9.466  1.8988 -2.6311 -0.9033
10395SOL    HW232925   2.356   0.253   9.608  1.5411 -1.4992 -0.5704
10396SOL     OW32926   2.388   5.961   6.447 -0.0816 -0.5395 -0.0508
10396SOL    HW132927   2.343   5.897   6.502 -0.4600 -1.3222 -1.2253
10396SOL    HW232928   2.340   6.043   6.462 -1.0986 -1.0716 -0.2924
10397SOL     OW32929   1.867   3.679   1.630  0.1669 -0.8064 -0.2027
10397SOL    HW132930   1.809   3.664   1.704 -1.1941 -0.5092 -1.1629
10397SOL    HW232931   1.879   3.593   1.590 -0.8377 -0.6627 -0.8517
10398SOL     OW32932   1.078   2.978   7.424  0.2790  0.1272 -0.1741
10398SOL    HW132933   1.116   3.056   7.466 -0.9223  0.4049  0.4685
10398SOL    HW232934   1.070   2.914   7.495 -0.0015 -0.0896 -0.3969
10399SOL     OW32935   7.428   2.027   2.022 -0.1265  0.2131 -0.1758
10399SOL    HW132936   7.397   2.116   2.004 -0.7856  0.7977  3.1143
10399SOL    HW232937   7.484   2.037   2.099 -1.3897 -2.3317  1.2040
10400SOL     OW32938   4.262   1.509   4.283 -0.5653  0.3597  0.8079
10400SOL    HW132939   4.173   1.482   4.307 -0.5717  0.4979  0.9426
10400SOL    HW232940   4.296   1.551   4.362  0.1444 -1.0104  1.2752
10401SOL     OW32941   9.002   6.363   6.416 -0.8409  0.1429  0.5567
10401SOL    HW132942   8.933   6.424   6.388 -0.8240 -0.3840 -0.7276
10401SOL    HW232943   9.038   6.329   6.334  0.6945  0.1103  1.2166
10402SOL     OW32944   4.929   6.079   7.355 -0.7101  0.1786  0.6905
10402SOL    HW132945   4.950   5.986   7.369  1.2958  0.4508 -0.1548
10402SOL    HW232946   4.969   6.100   7.271  0.4444  2.2375  1.6650
10403SOL     OW32947   7.573   0.537   4.616  0.3302 -0.4513 -0.0628
10403SOL    HW132948   7.577   0.517   4.522 -0.6567 -1.1062  0.0243
10403SOL    HW232949   7.499   0.596   4.625  1.5190  1.0829  0.0799
10404SOL     OW32950   5.746   8.007   5.743 -0.0019 -0.0783 -0.4769
10404SOL    HW132951   5.790   8.080   5.786  2.5340 -0.6025 -2.0008
10404SOL    HW232952   5.769   8.016   5.651 -0.6210 -2.1159 -0.8785
10405SOL     OW32953   1.068   5.015   1.762 -0.5952  0.1786 -0.0538
10405SOL    HW132954   1.006   4.996   1.832 -0.2225  0.4695  0.3685
10405SOL    HW232955   1.021   5.072   1.702 -0.2603  1.7414  1.0950
10406SOL     OW32956   5.308   1.271   0.974  0.3369  0.2123  0.5422
10406SOL    HW132957   5.339   1.224   0.896 -0.7576 -1.8535  1.2892
10406SOL    HW232958   5.388   1.304   1.015  1.0064  0.4526 -0.8839
10407SOL     OW32959   0.843   1.338   2.437 -0.4009  0.2665 -0.1058
10407SOL    HW132960   0.796   1.421   2.430  1.4434  1.3589 -0.3280
10407SOL    HW232961   0.874   1.336   2.528  0.4234  0.3360 -0.3787
10408SOL     OW32962   1.220   2.140   2.123 -0.1264  0.1884  0.2753
10408SOL    HW132963   1.186   2.209   2.065  0.2871  1.8241  1.8751
10408SOL    HW232964   1.151   2.125   2.187  0.1555 -0.1965  0.4964
10409SOL     OW32965   6.234   4.752   7.994 -0.6696  0.6667 -0.2729
10409SOL    HW132966   6.253   4.661   7.971 -0.2926  0.3686  1.0884
10409SOL    HW232967   6.246   4.801   7.913 -1.1933 -0.5300 -1.1095
10410SOL     OW32968   5.366   5.753   9.015 -0.5851  0.2397  0.3643
10410SOL    HW132969   5.305   5.808   8.967 -1.0961 -1.4729 -1.0428
10410SOL    HW232970   5.437   5.812   9.040 -1.5142  1.6952 -0.3166
10411SOL     OW32971   0.654   6.004   1.061 -0.4140  0.0341 -0.1205
10411SOL    HW132972   0.594   5.930   1.063  0.0037 -0.3117 -0.0747
10411SOL    HW232973   0.679   6.012   0.969  0.0727 -0.3263 -0.0244
10412SOL     OW32974   1.269   7.521   4.564  0.4994 -0.1389 -0.5435
10412SOL    HW132975   1.233   7.529   4.476  0.9958 -1.3991 -0.8847
10412SOL    HW232976   1.348   7.468   4.553  1.2111  0.6534  0.5059
10413SOL     OW32977   0.579   5.723   8.141 -0.7491 -0.2283 -0.1451
10413SOL    HW132978   0.588   5.802   8.087 -0.6212  0.4163  0.7891
10413SOL    HW232979   0.485   5.705   8.142 -0.7800 -0.0719 -0.3461
10414SOL     OW32980   0.375   3.665   6.817 -0.0820  0.3623 -0.2782
10414SOL    HW132981   0.440   3.695   6.880 -1.6471  0.9518  1.1351
10414SOL    HW232982   0.366   3.571   6.835  0.2806  0.3074 -0.3861
10415SOL     OW32983   6.661   0.677   0.281 -0.2951 -0.0657 -0.2111
10415SOL    HW132984   6.636   0.586   0.260  0.1987 -0.3449  0.3884
10415SOL    HW232985   6.735   0.696   0.223 -1.4095  0.5287 -1.5013
10416SOL     OW32986   2.318   8.415   2.069  0.0900  0.1029 -0.1432
10416SOL    HW132987   2.369   8.391   2.146  0.4420  1.5397  0.0954
10416SOL    HW232988   2.228   8.391   2.091 -0.0241  1.7335  1.2799
10417SOL     OW32989   1.877   8.541   0.248 -0.1859 -0.4165  0.3184
10417SOL    HW132990   1.970   8.523   0.261  0.0295 -0.7795 -1.5039
10417SOL    HW232991   1.849   8.581   0.331  1.5467 -0.4066  0.9440
10418SOL     OW32992   0.980   1.152   3.005  0.3327  0.3285  0.8913
10418SOL    HW132993   1.074   1.169   2.997  0.1208  0.9866 -0.5299
10418SOL    HW232994   0.938   1.230   2.967 -0.7878  0.0129  1.4293
10419SOL     OW32995   3.938   2.784   6.852  0.9289  0.1359 -0.0336
10419SOL    HW132996   3.936   2.844   6.926 -0.5190  2.2133 -1.6437
10419SOL    HW232997   3.934   2.697   6.892 -0.7742  1.1734  2.3298
10420SOL     OW32998   4.994   1.919   0.850  0.2878  0.2291 -0.2345
10420SOL    HW132999   4.919   1.913   0.909  1.0145  0.7694  0.7759
10420SOL    HW233000   5.025   1.828   0.842  0.3678  0.1828  0.4883
10421SOL     OW33001   3.098   2.064   5.165 -0.2026  0.4350 -0.0879
10421SOL    HW133002   3.081   2.122   5.239 -1.0021  0.1248 -0.0234
10421SOL    HW233003   3.014   2.055   5.121  0.0823 -0.0624 -0.5451
10422SOL     OW33004   8.086   1.166   9.542 -0.0747  0.0302 -0.0409
10422SOL    HW133005   8.126   1.249   9.568 -1.0916  0.6638 -0.4086
10422SOL    HW233006   8.145   1.129   9.476 -0.4923  1.3675 -1.2158
10423SOL     OW33007   4.787   2.225   2.004 -0.0598 -0.0062 -0.1470
10423SOL    HW133008   4.874   2.230   2.043 -0.1247 -0.2159  0.0215
10423SOL    HW233009   4.776   2.133   1.981 -1.1362 -0.4258  1.8799
10424SOL     OW33010   1.492   0.312   8.239 -0.0471 -0.2889 -0.0288
10424SOL    HW133011   1.500   0.296   8.333 -0.0881 -1.8885 -0.2692
10424SOL    HW233012   1.573   0.355   8.214 -0.6942  1.6712  0.9959
10425SOL     OW33013   6.188   5.308   5.394 -0.0993 -0.3545  0.1359
10425SOL    HW133014   6.198   5.318   5.299  0.3053 -0.0446  0.2087
10425SOL    HW233015   6.271   5.269   5.423 -0.2258 -0.4582  0.3620
10426SOL     OW33016   2.904   5.028   3.866 -0.2533  0.2971  0.6244
10426SOL    HW133017   2.861   4.979   3.796  0.6680 -0.6676  0.6939
10426SOL    HW233018   2.851   5.012   3.943 -1.7243  2.0110  0.0265
10427SOL     OW33019   9.214   5.195   5.298  0.2053  0.8173 -0.6312
10427SOL    HW133020   9.191   5.104   5.314 -0.6926  1.0416 -0.5378
10427SOL    HW233021   9.184   5.212   5.208  2.8796  0.2790 -1.7173
10428SOL     OW33022   4.314   6.683   8.038 -0.3307  0.5116  0.1461
10428SOL    HW133023   4.351   6.606   8.080 -1.9948  1.2950  3.4045
10428SOL    HW233024   4.390   6.734   8.010  0.8262 -1.1273  0.1475
10429SOL     OW33025   2.278   6.703   3.976 -0.2479 -0.1309 -0.1087
10429SOL    HW133026   2.305   6.760   4.048 -0.1010  0.7313 -0.8197
10429SOL    HW233027   2.295   6.755   3.897 -1.3765 -0.6375 -0.7183
10430SOL     OW33028   1.395   9.304   0.775 -0.1108 -0.2946 -0.3282
10430SOL    HW133029   1.399   9.291   0.680  1.0576 -1.0349 -0.1931
10430SOL    HW233030   1.332   9.375   0.786 -2.1963 -1.8606 -1.4800
10431SOL     OW33031   2.479   1.918   4.531 -0.3684  0.2160 -0.0838
10431SOL    HW133032   2.438   1.860   4.466 -1.4467 -0.6310  1.2999
10431SOL    HW233033   2.406   1.956   4.579  0.3794  1.7110 -0.0745
10432SOL     OW33034   1.823   0.923   6.349 -0.0166  0.3056  0.3880
10432SOL    HW133035   1.844   0.939   6.257 -0.7731  0.0890  0.1737
10432SOL    HW233036   1.873   0.990   6.397  0.4950  0.3271 -0.1623
10433SOL     OW33037   8.702   4.697   3.325 -0.3113 -0.1487  0.3516
10433SOL    HW133038   8.777   4.754   3.313 -0.5248  0.5663  2.0592
10433SOL    HW233039   8.643   4.718   3.253 -0.2559  1.6197  0.7873
10434SOL     OW33040   4.709   4.849   9.410  0.3119  0.5582  0.3084
10434SOL    HW133041   4.623   4.814   9.436 -0.0952  1.8992  0.9148
10434SOL    HW233042   4.754   4.775   9.370 -1.1074 -0.2068  0.0248
10435SOL     OW33043   0.533   2.799   2.178 -0.2193 -0.0082  0.3824
10435SOL    HW133044   0.480   2.785   2.257 -0.7872  2.1414  0.4209
10435SOL    HW233045   0.527   2.893   2.161  1.4422 -0.1349 -1.1509
10436SOL     OW33046   0.605   5.915   9.417 -0.3204 -0.3165 -0.0728
10436SOL    HW133047   0.557   5.942   9.338 -1.6300 -1.5324  0.2730
10436SOL    HW233048   0.667   5.849   9.385 -1.1833 -1.1662 -0.0419
10437SOL     OW33049   8.865   8.056   4.901 -0.0898  0.1490 -0.1786
10437SOL    HW133050   8.943   8.091   4.945 -0.3738  1.2917 -0.5392
10437SOL    HW233051   8.896   8.033   4.813 -0.2910  1.3413 -0.5909
10438SOL     OW33052   5.852   6.486   8.061 -0.4939 -0.1660 -0.4674
10438SOL    HW133053   5.827   6.540   7.986  0.3794 -0.1055 -0.7275
10438SOL    HW233054   5.859   6.548   8.134 -1.9067 -0.3079 -0.1823
10439SOL     OW33055   1.078   3.732   7.664 -0.2195  0.5931 -0.2223
10439SOL    HW133056   1.025   3.664   7.706 -0.7188  1.0461 -0.1056
10439SOL    HW233057   1.018   3.807   7.655  0.4886  1.2287  0.2177
10440SOL     OW33058   6.386   9.347   3.180  1.2548  0.3409 -0.3285
10440SOL    HW133059   6.449   9.340   3.108  1.1398 -0.1821 -0.3811
10440SOL    HW233060   6.403   9.270   3.234  2.4732  1.5847  1.1336
10441SOL     OW33061   8.314   2.223   5.332 -0.3769  0.2663 -0.1458
10441SOL    HW133062   8.384   2.264   5.383  0.3489 -1.6019  0.4268
10441SOL    HW233063   8.250   2.194   5.397 -1.6686  1.8108 -0.6533
10442SOL     OW33064   0.762   4.059   1.553  0.2442 -0.2937 -0.3524
10442SOL    HW133065   0.847   4.019   1.575 -0.4447 -1.8521 -0.3573
10442SOL    HW233066   0.701   4.022   1.617 -0.0266  2.8996  1.4371
10443SOL     OW33067   7.424   4.340   0.718  0.2583 -0.0924  0.4549
10443SOL    HW133068   7.399   4.301   0.634  2.5236  1.3004 -0.9775
10443SOL    HW233069   7.347   4.390   0.745 -0.8769 -1.4204 -0.2175
10444SOL     OW33070   4.888   5.045   2.563 -0.3176  0.0308 -0.2548
10444SOL    HW133071   4.816   4.992   2.528  0.1765 -1.2691  0.5865
10444SOL    HW233072   4.850   5.131   2.578 -0.9271  0.2310 -2.5440
10445SOL     OW33073   7.426   1.541   8.160 -0.8310  0.2040 -0.3678
10445SOL    HW133074   7.368   1.466   8.170 -0.4309 -0.0962 -0.2869
10445SOL    HW233075   7.381   1.612   8.205  0.4842 -0.8663  2.9453
10446SOL     OW33076   1.324   8.681   3.971  0.3131  0.1349 -0.3629
10446SOL    HW133077   1.329   8.763   4.021  1.4788 -0.3186  0.3038
10446SOL    HW233078   1.309   8.614   4.037 -0.0648 -0.2685 -0.8485
10447SOL     OW33079   3.704   2.056   0.484  0.2172 -0.4932  0.1196
10447SOL    HW133080   3.756   1.976   0.496 -0.3456 -1.2253 -1.8594
10447SOL    HW233081   3.621   2.025   0.449 -0.0258  0.9640 -0.6658
10448SOL     OW33082   8.613   5.254   1.782 -0.1586 -0.6074  0.2440
10448SOL    HW133083   8.671   5.309   1.729  0.9503  0.3122  2.3175
10448SOL    HW233084   8.528   5.259   1.737  0.5804  0.5799 -1.1157
10449SOL     OW33085   5.812   4.032   8.877  1.0387  0.5439 -0.1593
10449SOL    HW133086   5.746   3.985   8.828  1.7981  0.2601 -0.9309
10449SOL    HW233087   5.763   4.101   8.923  0.0002 -0.6343  0.5550
10450SOL     OW33088   9.405   3.128   0.146  0.1776  0.0578  0.2799
10450SOL    HW133089   9.311   3.112   0.143 -0.1050  1.7106 -0.8811
10450SOL    HW233090   9.440   3.077   0.073  0.2957 -0.9548  1.0079
10451SOL     OW33091   6.311   0.509   9.086 -0.1759 -0.5859 -0.2252
10451SOL    HW133092   6.293   0.597   9.053  1.1458 -0.4302 -0.5844
10451SOL    HW233093   6.249   0.453   9.039 -1.1795  0.1584  0.1662
10452SOL     OW33094   9.015   5.864   1.017  0.0125  0.0830 -0.0591
10452SOL    HW133095   9.088   5.816   0.976  0.7432  1.9999 -1.1455
10452SOL    HW233096   9.057   5.914   1.087 -0.9150 -1.6147  1.7958
10453SOL     OW33097   3.081   6.448   2.008 -0.5833 -0.4497 -0.0570
10453SOL    HW133098   3.037   6.372   1.971 -1.6590 -0.5179  1.2917
10453SOL    HW233099   3.086   6.430   2.102  4.2333 -1.4209 -0.2204
10454SOL     OW33100   7.541   7.518   6.799 -0.0288 -0.5977  0.2041
10454SOL    HW133101   7.617   7.541   6.853  0.0085  1.3770 -0.6066
10454SOL    HW233102   7.506   7.439   6.839  0.6152  0.2051  2.5106
10455SOL     OW33103   6.974   0.645   4.276 -0.1225  0.1225 -0.6163
10455SOL    HW133104   6.888   0.624   4.239 -0.5017 -1.0783  0.8318
10455SOL    HW233105   7.035   0.636   4.202 -1.0321 -0.6704 -1.2970
10456SOL     OW33106   1.791   1.474   0.783  0.1483 -0.4041 -0.0176
10456SOL    HW133107   1.741   1.451   0.861  1.8308  0.0256  1.2405
10456SOL    HW233108   1.843   1.549   0.810 -1.1975  1.5201 -2.3861
10457SOL     OW33109   0.596   0.523   8.057  0.2474  0.1274 -0.0335
10457SOL    HW133110   0.649   0.599   8.080  1.0445 -0.2628 -0.5264
10457SOL    HW233111   0.596   0.469   8.136 -0.0320  0.4735  0.2051
10458SOL     OW33112   7.835   5.995   5.965  0.1127 -0.8386 -0.1274
10458SOL    HW133113   7.821   5.936   6.039 -0.5063 -0.9175 -0.3076
10458SOL    HW233114   7.919   5.966   5.928 -0.0424 -1.4112 -0.0357
10459SOL     OW33115   3.163   3.341   5.314 -0.2704  0.1822 -0.3487
10459SOL    HW133116   3.249   3.368   5.344 -0.2201  0.8446 -1.0718
10459SOL    HW233117   3.160   3.366   5.221 -1.1673 -0.0000 -0.3808
10460SOL     OW33118   0.309   1.927   2.825 -0.8883  0.1227 -0.2013
10460SOL    HW133119   0.378   1.864   2.848 -1.1546  0.0809  0.5050
10460SOL    HW233120   0.355   2.010   2.814 -0.5590 -0.1516 -0.9446
10461SOL     OW33121   8.069   2.083   4.498  0.1492  0.1398 -0.5155
10461SOL    HW133122   8.148   2.054   4.544 -0.8506 -0.8914  0.6239
10461SOL    HW233123   8.100   2.152   4.439  1.6670  0.7437  0.8934
10462SOL     OW33124   4.201   5.396   8.841  0.6346  0.1070 -0.8590
10462SOL    HW133125   4.242   5.368   8.759  1.4005 -1.6174  0.0609
10462SOL    HW233126   4.274   5.408   8.902  0.0154  0.4344 -0.1643
10463SOL     OW33127   2.398   2.296   8.496 -0.1830  0.2752 -0.1482
10463SOL    HW133128   2.350   2.216   8.518  0.1546  0.2134  0.4005
10463SOL    HW233129   2.341   2.343   8.436 -0.1557 -0.6403 -0.9228
10464SOL     OW33130   1.528   5.816   1.715  0.1614 -0.5029  0.2440
10464SOL    HW133131   1.551   5.829   1.623 -1.2633 -0.1883 -0.0919
10464SOL    HW233132   1.607   5.779   1.755  1.0920  0.1854 -0.9008
10465SOL     OW33133   5.758   8.360   9.446 -0.5701  0.4516  0.5269
10465SOL    HW133134   5.734   8.303   9.373  1.6076  0.2001 -0.0728
10465SOL    HW233135   5.677   8.406   9.469 -1.2407  0.9200 -2.3914
10466SOL     OW33136   9.609   9.416   4.948  0.0332 -0.5561 -0.5670
10466SOL    HW133137   9.582   9.473   4.876 -1.8905 -0.4839  0.1676
10466SOL    HW233138   9.627   9.476   5.021 -1.7916 -0.8260  0.1430
10467SOL     OW33139   8.114   2.141   9.044  0.2810 -0.2167 -0.2920
10467SOL    HW133140   8.027   2.161   9.008  0.9042 -0.2273 -1.8877
10467SOL    HW233141   8.119   2.046   9.043 -0.4658 -0.3183  1.8076
10468SOL     OW33142   1.768   7.635   5.916 -0.0477 -0.4490  0.3801
10468SOL    HW133143   1.841   7.614   5.975  0.5915 -0.8421 -0.5221
10468SOL    HW233144   1.736   7.550   5.886 -0.5009 -0.2596  0.3133
10469SOL     OW33145   5.698   3.707   4.390  0.9054  0.0725 -0.2223
10469SOL    HW133146   5.727   3.725   4.479  0.1160 -3.7625  1.0171
10469SOL    HW233147   5.603   3.716   4.393  0.7509 -1.2715 -0.2415
10470SOL     OW33148   4.581   5.459   8.311 -0.4073 -0.2692  0.3861
10470SOL    HW133149   4.499   5.410   8.311 -1.1463  0.9339  0.9646
10470SOL    HW233150   4.566   5.531   8.372  0.8966  0.2851  0.0814
10471SOL     OW33151   3.642   3.265   3.379 -0.0542  0.1225 -0.0861
10471SOL    HW133152   3.717   3.322   3.397  0.5625  0.2629 -2.6693
10471SOL    HW233153   3.591   3.313   3.313 -2.7346  0.2210  1.8823
10472SOL     OW33154   6.995   7.186   3.669  0.4723 -0.3032 -0.4545
10472SOL    HW133155   7.001   7.163   3.762 -0.1258 -1.1108 -0.6067
10472SOL    HW233156   7.066   7.136   3.628  1.2048  0.6066 -0.3540
10473SOL     OW33157   2.703   6.144   8.506 -0.1862 -0.5946  0.3515
10473SOL    HW133158   2.762   6.095   8.563  0.8195 -2.2156 -1.9186
10473SOL    HW233159   2.696   6.091   8.427 -1.8160  1.3319 -0.9132
10474SOL     OW33160   1.900   4.202   3.699  0.5694 -0.2256  0.3297
10474SOL    HW133161   1.811   4.178   3.675  1.5220 -0.9478 -2.9020
10474SOL    HW233162   1.948   4.119   3.702  1.8872  0.4055 -1.7036
10475SOL     OW33163   3.615   6.438   2.870 -0.4893 -0.4059  0.4509
10475SOL    HW133164   3.615   6.387   2.950  1.2786  0.6562  1.1899
10475SOL    HW233165   3.589   6.376   2.802  0.2130 -1.9211  1.5108
10476SOL     OW33166   2.688   9.599   3.500 -0.3418  0.7942  0.1186
10476SOL    HW133167   2.690   9.687   3.538 -0.1420  1.3731 -1.1502
10476SOL    HW233168   2.595   9.575   3.502 -0.4012  1.0468  0.4738
10477SOL     OW33169   8.603   3.813   9.025 -0.6708 -0.0565 -0.3828
10477SOL    HW133170   8.586   3.795   8.932 -0.1719 -0.0931 -0.4693
10477SOL    HW233171   8.543   3.756   9.072  0.5654 -1.6508 -0.6503
10478SOL     OW33172   8.967   7.934   0.064 -0.7028 -0.0690 -0.3843
10478SOL    HW133173   8.964   7.887  -0.020  0.6606  0.1968 -0.6167
10478SOL    HW233174   9.014   7.874   0.123  0.1778  0.5692 -0.4116
10479SOL     OW33175   1.708   6.185   4.506  0.1672  0.0638  0.0416
10479SOL    HW133176   1.613   6.193   4.511  0.1638  0.6904 -0.7989
10479SOL    HW233177   1.726   6.174   4.413  0.9473  0.4616  0.1392
10480SOL     OW33178   9.488   3.569   3.215  0.1961  0.1606  0.0410
10480SOL    HW133179   9.487   3.506   3.143 -1.7569  0.4024 -0.1994
10480SOL    HW233180   9.423   3.536   3.277  1.3267  0.3502  1.3869
10481SOL     OW33181   3.376   2.317   7.522 -0.5436 -0.2936  0.5814
10481SOL    HW133182   3.348   2.409   7.519 -1.1517 -0.4738  0.6078
10481SOL    HW233183   3.424   2.305   7.440  0.2124  0.2535  0.9310
10482SOL     OW33184   1.141   7.009   8.263 -0.1633 -1.4854  0.0538
10482SOL    HW133185   1.159   7.071   8.334 -0.2144  0.5173 -1.5879
10482SOL    HW233186   1.092   6.938   8.305  1.6031 -1.4474  2.3929
10483SOL     OW33187   6.965   6.778   1.214  0.1088  0.3124 -0.0256
10483SOL    HW133188   6.994   6.864   1.245  0.1482  0.5289 -0.6440
10483SOL    HW233189   7.047   6.731   1.195  0.1179 -0.3338  1.5386
10484SOL     OW33190   6.046   0.545   5.292 -0.0279  0.0537 -0.3516
10484SOL    HW133191   6.100   0.571   5.217 -0.2269  1.2957 -0.0732
10484SOL    HW233192   6.030   0.626   5.340 -1.2526 -0.4656  0.1587
10485SOL     OW33193   1.562   3.344   0.171  0.0485  0.8315 -0.3824
10485SOL    HW133194   1.518   3.341   0.086 -1.4348  1.5746  0.3149
10485SOL    HW233195   1.507   3.402   0.224 -0.4219 -1.4120  1.8033
10486SOL     OW33196   1.869   8.545   9.261 -0.0601 -0.0102 -0.6375
10486SOL    HW133197   1.834   8.542   9.172 -0.0611 -0.2021 -0.6333
10486SOL    HW233198   1.808   8.491   9.311 -0.9919  1.4107 -0.1773
10487SOL     OW33199   0.614   3.641   3.873  0.4481  0.3052 -0.2156
10487SOL    HW133200   0.627   3.576   3.805 -0.4934  0.1533 -0.2617
10487SOL    HW233201   0.690   3.631   3.931  2.0082  1.4048 -1.9734
10488SOL     OW33202   6.176   1.037   2.686  0.0741  0.4758 -0.2710
10488SOL    HW133203   6.262   0.997   2.701  0.9496  1.4033 -2.4533
10488SOL    HW233204   6.128   1.021   2.768  2.0210 -0.7683  0.7100
10489SOL     OW33205   5.085   4.061   5.143  0.1774  0.1511  0.3126
10489SOL    HW133206   5.067   4.137   5.199  2.5124  0.6280  0.5079
10489SOL    HW233207   5.170   4.080   5.104 -0.4759 -1.0909 -1.8888
10490SOL     OW33208   1.490   6.711   5.590  0.0265 -0.5505 -0.1437
10490SOL    HW133209   1.546   6.765   5.645  1.4945 -1.0664 -1.0750
10490SOL    HW233210   1.516   6.621   5.610 -0.2258 -0.7877 -0.8435
10491SOL     OW33211   6.929   7.309   8.843 -0.0710  0.0625 -0.0485
10491SOL    HW133212   6.960   7.330   8.931  0.9650  0.3317 -0.4642
10491SOL    HW233213   6.993   7.349   8.785 -1.8383  1.7118 -0.9950
10492SOL     OW33214   6.368   4.152   6.112  0.3910  0.5691  0.8086
10492SOL    HW133215   6.315   4.083   6.071  0.2995  0.9034  0.3470
10492SOL    HW233216   6.426   4.105   6.172  0.2389  0.1022  0.6015
10493SOL     OW33217   4.520   7.685   1.007 -0.0273 -0.0643 -0.3574
10493SOL    HW133218   4.521   7.589   1.003  1.2767 -0.1804  1.5026
10493SOL    HW233219   4.466   7.705   1.082  2.2241  0.4793  1.2173
10494SOL     OW33220   4.502   7.052   6.654  0.0999 -0.1449  0.1791
10494SOL    HW133221   4.566   7.039   6.724 -0.5077  0.3698  0.8407
10494SOL    HW233222   4.553   7.088   6.581  0.7678 -0.8416  0.2895
10495SOL     OW33223   0.509   2.914   6.034  0.3668  0.3465  0.2946
10495SOL    HW133224   0.553   2.919   6.118 -0.5780  1.4843  0.7485
10495SOL    HW233225   0.444   2.845   6.045  1.3029 -0.6216 -0.0477
10496SOL     OW33226   4.129   6.557   5.732 -0.1955 -1.2372  0.4414
10496SOL    HW133227   4.054   6.614   5.718  0.8399  0.4651  1.4585
10496SOL    HW233228   4.101   6.471   5.700 -1.5269  0.0061 -1.9197
10497SOL     OW33229   1.910   2.476   0.684  0.0195 -0.4972  0.1281
10497SOL    HW133230   1.858   2.490   0.763 -1.2844  0.2153 -0.8253
10497SOL    HW233231   1.965   2.401   0.705  0.3744  0.2419  2.0397
10498SOL     OW33232   1.623   2.053   3.459 -0.2273 -0.1984 -0.0334
10498SOL    HW133233   1.660   1.968   3.436 -1.3560 -0.8185  0.3678
10498SOL    HW233234   1.548   2.032   3.515  0.8400  1.1583  2.0077
10499SOL     OW33235   3.007   2.810   0.765  0.7416  0.4622 -0.2787
10499SOL    HW133236   2.961   2.807   0.849 -1.3903 -3.0498 -1.3139
10499SOL    HW233237   3.075   2.743   0.772 -0.1779 -0.6729 -1.6070
10500SOL     OW33238   6.448   1.535   1.822  0.8500 -0.5012  0.6073
10500SOL    HW133239   6.398   1.454   1.814 -0.2844  0.0237  1.8614
10500SOL    HW233240   6.477   1.555   1.733  1.6606 -2.5670  0.3494
10501SOL     OW33241   7.720   7.615   1.941 -0.1178 -0.0059 -0.4682
10501SOL    HW133242   7.812   7.642   1.937  0.2579 -1.2912 -2.4829
10501SOL    HW233243   7.670   7.696   1.937  0.9503  0.6552 -0.7464
10502SOL     OW33244   1.399   7.505   6.463 -0.4594 -0.1184  0.0920
10502SOL    HW133245   1.389   7.507   6.558 -0.6737  0.2137  0.0655
10502SOL    HW233246   1.313   7.532   6.430 -0.2935  0.0686 -0.1882
10503SOL     OW33247   1.047   5.691   2.778  0.2923 -0.0312 -0.3039
10503SOL    HW133248   1.137   5.725   2.777  0.2305  0.1367 -0.2364
10503SOL    HW233249   1.006   5.734   2.702  0.0659  0.4526  0.0886
10504SOL     OW33250   6.663   0.928   0.713  0.1396  0.9945  0.3879
10504SOL    HW133251   6.686   0.841   0.744  0.6884  1.6168  1.8200
10504SOL    HW233252   6.661   0.920   0.618 -1.1563 -0.8913  0.5130
10505SOL     OW33253   5.320   1.020   6.434 -0.0670  0.5121  0.6344
10505SOL    HW133254   5.294   1.042   6.524 -1.2695  1.6840  0.0221
10505SOL    HW233255   5.241   1.033   6.382  0.6526 -0.0141 -0.6375
10506SOL     OW33256   0.479   3.644   0.858 -0.3597  0.1827  0.1507
10506SOL    HW133257   0.560   3.623   0.905 -0.5442 -0.5793  0.1445
10506SOL    HW233258   0.476   3.739   0.857  0.7632  0.2332 -0.2302
10507SOL     OW33259   2.697   7.135   3.469 -0.8393  0.1187 -0.0206
10507SOL    HW133260   2.776   7.167   3.425 -0.8306 -0.8242 -0.7204
10507SOL    HW233261   2.678   7.052   3.426 -2.4432  0.5139 -0.1249
10508SOL     OW33262   0.484   4.595   3.734 -0.4141 -0.2242  0.4776
10508SOL    HW133263   0.550   4.593   3.803  2.0263  0.1124 -1.6776
10508SOL    HW233264   0.468   4.503   3.713 -0.1373 -0.3016  0.5990
10509SOL     OW33265   4.465   2.800   6.425 -0.1827 -0.6293  0.3021
10509SOL    HW133266   4.384   2.758   6.395 -0.6773  0.8522 -0.5395
10509SOL    HW233267   4.531   2.731   6.419 -0.9465 -1.2764 -1.0644
10510SOL     OW33268   7.153   8.653   7.362  0.0435  0.1664 -0.0767
10510SOL    HW133269   7.113   8.732   7.325 -0.4797  0.7592  1.6677
10510SOL    HW233270   7.078   8.598   7.388  0.4013 -0.6303 -0.6808
10511SOL     OW33271   7.180   8.338   2.962 -0.1077  0.2118 -0.0476
10511SOL    HW133272   7.137   8.339   3.048 -0.2019 -1.9434 -0.0200
10511SOL    HW233273   7.143   8.414   2.916 -0.5237  1.0320  1.5802
10512SOL     OW33274   3.407   5.996   4.694 -0.0345 -0.0649  0.1749
10512SOL    HW133275   3.502   6.007   4.689 -0.1467  0.9875  0.1299
10512SOL    HW233276   3.395   5.903   4.711  1.1256  0.1688  2.7948
10513SOL     OW33277   9.317   6.162   2.065 -0.1530 -0.0182 -0.3033
10513SOL    HW133278   9.351   6.152   1.976  2.0666  0.7684  0.3944
10513SOL    HW233279   9.366   6.098   2.117 -1.5153 -0.5536  0.3624
10514SOL     OW33280   5.929   1.575   9.172  0.1465  0.0446 -0.0588
10514SOL    HW133281   5.915   1.666   9.195  3.6312  0.2413  1.9303
10514SOL    HW233282   5.893   1.567   9.084 -1.5854  2.9163  0.2766
10515SOL     OW33283   7.858   6.503   3.996 -0.2627  0.2391 -0.6028
10515SOL    HW133284   7.821   6.591   3.997 -1.4942 -0.2495 -0.8968
10515SOL    HW233285   7.950   6.515   4.017 -0.7845  1.4183  1.1852
10516SOL     OW33286   4.070   0.099   6.166  0.1725 -0.1937  0.5412
10516SOL    HW133287   4.071   0.039   6.091 -1.0281 -1.1305  1.2325
10516SOL    HW233288   4.161   0.123   6.179  0.4561 -0.4083 -0.9066
10517SOL     OW33289   6.336   3.216   5.844 -0.3553  0.7183 -0.0175
10517SOL    HW133290   6.274   3.154   5.884 -0.5105  1.6856  1.3100
10517SOL    HW233291   6.366   3.172   5.765 -1.1035 -0.6964  0.4480
10518SOL     OW33292   2.989   1.149   3.320  0.2772  0.2787 -0.2219
10518SOL    HW133293   2.915   1.094   3.294  1.5308 -0.7754 -1.7494
10518SOL    HW233294   3.034   1.099   3.388  0.6977 -0.0473 -0.7231
10519SOL     OW33295   5.813   1.181   4.758 -0.8456  0.1772 -0.5544
10519SOL    HW133296   5.742   1.244   4.749 -1.4753 -0.6679 -1.8034
10519SOL    HW233297   5.812   1.131   4.676  0.0210 -1.0381  0.1328
10520SOL     OW33298   0.679   2.270   3.640  0.3024 -0.2029 -1.1657
10520SOL    HW133299   0.702   2.362   3.630  0.6804 -0.2639 -0.8882
10520SOL    HW233300   0.634   2.265   3.724  1.7839 -0.5316 -0.3501
10521SOL     OW33301   2.724   8.214   2.065  0.3090  0.4847 -0.1467
10521SOL    HW133302   2.653   8.193   2.127  0.1543 -0.0238 -0.4867
10521SOL    HW233303   2.712   8.151   1.994  0.2703  1.3087 -0.8736
10522SOL     OW33304   0.366   2.647   9.042 -0.0139  0.1102  0.2296
10522SOL    HW133305   0.326   2.661   9.127 -0.0282  0.4381  0.1717
10522SOL    HW233306   0.338   2.559   9.016 -2.3824  1.0328 -0.6964
10523SOL     OW33307   0.253   7.951   3.685 -0.1948 -0.3436 -0.4161
10523SOL    HW133308   0.298   7.866   3.687  0.3772 -0.0385  0.1764
10523SOL    HW233309   0.318   8.010   3.647  0.3668  0.3511  1.5208
10524SOL     OW33310   5.559   8.946   5.351  0.4707  0.3284  0.2426
10524SOL    HW133311   5.644   8.914   5.320  0.3752  1.2346 -1.0409
10524SOL    HW233312   5.571   9.040   5.361 -0.7771  0.7232 -1.4829
10525SOL     OW33313   0.341   3.180   7.368  0.0244  0.1759  0.3480
10525SOL    HW133314   0.387   3.145   7.292  1.5242 -1.1779  1.7951
10525SOL    HW233315   0.262   3.125   7.376  0.6094 -0.6529  0.5871
10526SOL     OW33316   0.793   9.035   8.778 -0.4622  0.3370 -0.4347
10526SOL    HW133317   0.809   8.961   8.721 -1.7739 -0.1667 -0.1982
10526SOL    HW233318   0.867   9.094   8.764  1.0213 -1.3557 -0.0417
10527SOL     OW33319   2.585   5.169   2.936  0.3153  0.3513 -0.3517
10527SOL    HW133320   2.648   5.103   2.908 -0.3601  0.4488 -2.2219
10527SOL    HW233321   2.618   5.251   2.899 -0.4861  0.5340 -0.6749
10528SOL     OW33322   1.208   5.305   8.865  0.5220  0.5654  0.0616
10528SOL    HW133323   1.121   5.325   8.900  0.2273  0.4407 -0.5760
10528SOL    HW233324   1.199   5.318   8.771  1.4793  1.5526  0.0879
10529SOL     OW33325   5.426   5.396   7.984 -0.6813 -0.5421  0.3119
10529SOL    HW133326   5.378   5.318   8.010 -0.4201 -0.5145  0.8781
10529SOL    HW233327   5.477   5.368   7.908  0.0454 -1.1518  1.0063
10530SOL     OW33328   4.668   8.156   7.656 -0.4835 -0.2411 -0.5133
10530SOL    HW133329   4.593   8.104   7.688 -0.0791 -0.8496 -0.5278
10530SOL    HW233330   4.638   8.191   7.572 -0.8479 -0.2528 -0.3939
10531SOL     OW33331   0.275   9.176   5.420  0.2602  0.0117 -0.7625
10531SOL    HW133332   0.346   9.157   5.482 -0.6309  0.0808  0.3050
10531SOL    HW233333   0.239   9.260   5.450 -0.4644 -0.1698 -1.1058
10532SOL     OW33334   5.810   0.312   0.124 -0.8743 -0.0792  0.1770
10532SOL    HW133335   5.855   0.253   0.185 -0.1649  1.3759  1.1249
10532SOL    HW233336   5.846   0.399   0.144 -1.6619  0.6391 -1.3802
10533SOL     OW33337   7.858   8.015   2.187 -0.1168  0.1559 -0.6519
10533SOL    HW133338   7.782   8.004   2.130 -0.2247  1.7221 -0.8495
10533SOL    HW233339   7.827   8.071   2.258  0.5112 -0.2760 -0.0223
10534SOL     OW33340   5.154   4.832   3.260  0.0108  0.0812 -0.8346
10534SOL    HW133341   5.113   4.805   3.342 -1.8543 -1.5098 -2.1865
10534SOL    HW233342   5.248   4.825   3.277 -0.3307 -1.8333  0.6959
10535SOL     OW33343   0.955   4.909   0.123 -0.1021 -0.0400  0.1684
10535SOL    HW133344   0.879   4.929   0.176  1.1273  0.0662  1.9778
10535SOL    HW233345   1.024   4.967   0.155  0.6973  0.0547 -1.5852
10536SOL     OW33346   5.023   7.764   4.535  0.4678 -0.2935  0.1649
10536SOL    HW133347   5.116   7.759   4.511  0.5447 -0.5070  0.4935
10536SOL    HW233348   4.993   7.847   4.499  0.8206 -0.1617  0.1698
10537SOL     OW33349   0.623   0.333   6.553  0.2795  0.1954 -0.2548
10537SOL    HW133350   0.675   0.290   6.621  0.2640 -1.3153 -1.1496
10537SOL    HW233351   0.580   0.261   6.506  0.1711  1.1828 -1.7538
10538SOL     OW33352   0.617   2.535   8.562 -0.3094  1.3867 -0.3958
10538SOL    HW133353   0.525   2.537   8.591  0.2864  2.6834  1.6055
10538SOL    HW233354   0.657   2.467   8.615 -0.1540  0.5842 -1.5128
10539SOL     OW33355   7.265   7.646   6.492  0.6894  0.0824  0.0500
10539SOL    HW133356   7.299   7.561   6.465 -0.8491 -0.2814 -0.8598
10539SOL    HW233357   7.192   7.626   6.550  1.0148  0.8230  0.7411
10540SOL     OW33358   1.904   7.769   0.655 -0.0285 -0.3279 -0.0115
10540SOL    HW133359   1.945   7.741   0.737 -0.3868 -1.3530 -0.1687
10540SOL    HW233360   1.969   7.750   0.587 -0.8867 -2.4303 -0.3230
10541SOL     OW33361   4.580   9.459   6.603  0.5834 -0.3757 -0.3475
10541SOL    HW133362   4.551   9.371   6.627  1.2014 -0.3088  0.7254
10541SOL    HW233363   4.675   9.452   6.599  0.8482  0.8128  2.3322
10542SOL     OW33364   2.158   2.445   5.881  0.9677 -0.4570  0.2823
10542SOL    HW133365   2.162   2.363   5.831  1.9499 -0.9926  1.2160
10542SOL    HW233366   2.239   2.490   5.860  0.0656  0.7044 -0.8830
10543SOL     OW33367   4.188   6.409   9.257 -0.3410 -0.0430 -0.3156
10543SOL    HW133368   4.167   6.316   9.269  1.0048 -1.2036 -4.9331
10543SOL    HW233369   4.272   6.420   9.303  0.8318 -1.9473 -1.8062
10544SOL     OW33370   4.104   7.586   8.295  0.0659  0.4112 -0.3030
10544SOL    HW133371   4.155   7.513   8.328  0.4086  0.7881  0.0011
10544SOL    HW233372   4.167   7.656   8.282 -0.2215  0.5842 -0.8171
10545SOL     OW33373   7.325   1.184   5.091 -0.0913  0.0558  0.0118
10545SOL    HW133374   7.292   1.267   5.057  2.6377  1.2868  0.0860
10545SOL    HW233375   7.358   1.204   5.178 -0.5367 -1.4252  0.5601
10546SOL     OW33376   4.778   5.827   4.549 -0.5126 -0.0735  1.1001
10546SOL    HW133377   4.862   5.849   4.589 -1.4044  3.4662  1.3365
10546SOL    HW233378   4.748   5.749   4.596  2.1774 -0.8731  1.6166
10547SOL     OW33379   9.492   8.630   8.460  0.3167 -0.1439  0.5546
10547SOL    HW133380   9.440   8.708   8.444  0.2799 -0.3987 -0.6294
10547SOL    HW233381   9.478   8.611   8.553 -1.4843 -0.0490  0.3362
10548SOL     OW33382   6.134   8.717   8.131 -0.3630 -0.8204 -0.1753
10548SOL    HW133383   6.208   8.754   8.084  0.4575 -1.0020  0.9489
10548SOL    HW233384   6.082   8.675   8.062 -1.0258  1.7971 -1.4084
10549SOL     OW33385   9.175   6.498   7.431  0.4540 -0.0281 -0.0152
10549SOL    HW133386   9.213   6.561   7.491  0.2326 -0.2594  0.3694
10549SOL    HW233387   9.125   6.550   7.369 -0.3007  0.1295  0.7108
10550SOL     OW33388   1.791   5.697   3.946 -0.2127  0.1486 -0.7053
10550SOL    HW133389   1.885   5.699   3.926 -0.2473  2.5295 -0.9538
10550SOL    HW233390   1.779   5.768   4.009 -1.5322 -1.5432  1.0306
10551SOL     OW33391   0.113   6.168   0.494 -0.3576 -0.2964 -0.1460
10551SOL    HW133392   0.124   6.113   0.571 -0.4789  1.6889  1.3874
10551SOL    HW233393   0.188   6.228   0.496 -1.6459  1.4175 -0.0767
10552SOL     OW33394   3.929   3.424   1.106 -0.0866  0.0049  0.0835
10552SOL    HW133395   3.903   3.342   1.064  1.2475  0.0102 -0.7923
10552SOL    HW233396   3.873   3.490   1.065 -0.3531 -0.3034 -0.0545
10553SOL     OW33397   6.132   1.953   7.901 -0.4890 -0.6769 -0.2552
10553SOL    HW133398   6.082   1.976   7.980  2.3437  1.1028  1.2118
10553SOL    HW233399   6.215   1.919   7.935  1.2959  1.2403 -2.3887
10554SOL     OW33400   7.163   6.305   6.044 -0.1613 -0.0542 -0.3374
10554SOL    HW133401   7.156   6.344   5.957 -0.2516  2.7490  0.8063
10554SOL    HW233402   7.256   6.315   6.068 -0.3273  0.1485  0.2549
10555SOL     OW33403   2.504   5.718   5.885  0.3533  0.3378 -0.2574
10555SOL    HW133404   2.501   5.810   5.860 -0.4063  0.9482  1.8776
10555SOL    HW233405   2.419   5.701   5.925  1.0119 -0.9103  0.6850
10556SOL     OW33406   7.873   5.118   2.677  0.9445  0.1057 -0.4027
10556SOL    HW133407   7.899   5.026   2.674 -0.3858 -0.3600  1.0431
10556SOL    HW233408   7.918   5.158   2.603  1.6782 -1.6705 -0.9669
10557SOL     OW33409   4.358   3.178   8.080 -1.1248  0.0652 -0.0663
10557SOL    HW133410   4.309   3.252   8.117  0.5546  0.0399  2.4890
10557SOL    HW233411   4.324   3.168   7.992 -4.3139  1.2424  0.9131
10558SOL     OW33412   7.655   5.537   7.633 -0.0540  0.3495 -0.0667
10558SOL    HW133413   7.726   5.501   7.687  0.8785  0.8566 -0.9264
10558SOL    HW233414   7.680   5.516   7.543 -1.6081 -0.5158 -0.3359
10559SOL     OW33415   2.701   6.456   1.954 -0.2865  0.3675  0.1657
10559SOL    HW133416   2.672   6.444   1.863 -0.1399 -0.0613  0.1744
10559SOL    HW233417   2.787   6.415   1.957 -0.7997 -0.6912  0.7931
10560SOL     OW33418   7.969   2.238   3.001 -0.2117 -0.0385 -0.4677
10560SOL    HW133419   7.892   2.262   2.951  1.7340  4.0602 -1.9496
10560SOL    HW233420   8.042   2.245   2.939  1.7832  0.2010  1.7512
10561SOL     OW33421   3.718   9.019   4.007 -0.5976 -0.2327  0.1597
10561SOL    HW133422   3.750   8.957   4.073 -1.1791  0.1770  0.8348
10561SOL    HW233423   3.731   9.105   4.046  0.7591  0.1215 -1.0203
10562SOL     OW33424   0.662   6.642   7.046  0.0817  0.4774 -0.3064
10562SOL    HW133425   0.701   6.711   7.100  1.8000  0.2648 -1.2018
10562SOL    HW233426   0.714   6.564   7.066 -1.6814 -0.5507  0.5229
10563SOL     OW33427   8.581   1.833   0.631 -0.0354 -0.2477  0.5096
10563SOL    HW133428   8.674   1.854   0.638 -0.4828  1.4486  2.1564
10563SOL    HW233429   8.579   1.749   0.585  2.2979 -0.3877  0.5382
10564SOL     OW33430   7.996   2.670   5.569 -0.0092 -0.2026  0.0730
10564SOL    HW133431   7.967   2.676   5.660  0.9631 -0.9116  0.4488
10564SOL    HW233432   8.065   2.735   5.562 -0.3559  0.1347 -0.2813
10565SOL     OW33433   6.157   8.115   3.014  0.0045 -0.3257  0.4704
10565SOL    HW133434   6.185   8.085   2.927  2.3267  0.9088  0.6988
10565SOL    HW233435   6.062   8.118   3.009  0.0233 -1.1247 -1.7330
10566SOL     OW33436   1.193   8.686   9.614  0.0221 -0.2806 -0.3354
10566SOL    HW133437   1.105   8.718   9.596 -0.1994 -0.4325  0.4622
10566SOL    HW233438   1.251   8.745   9.565 -0.4724  0.2651 -0.2671
10567SOL     OW33439   0.595   5.198   0.514  0.0594 -0.2247  0.6249
10567SOL    HW133440   0.584   5.230   0.425  0.6046  0.1713  0.6932
10567SOL    HW233441   0.528   5.131   0.524 -1.3597  1.1388  0.5861
10568SOL     OW33442   1.965   4.744   2.143 -0.6533 -0.3429  0.4236
10568SOL    HW133443   2.044   4.768   2.191  0.7052 -0.3486 -1.7011
10568SOL    HW233444   1.935   4.825   2.103 -1.6093 -0.3888  1.0160
10569SOL     OW33445   5.091   0.782   2.689 -0.4494 -0.4290  0.1086
10569SOL    HW133446   5.055   0.766   2.776 -0.3794 -0.6277  0.1013
10569SOL    HW233447   5.186   0.776   2.700 -0.3563  1.0885  0.3312
10570SOL     OW33448   3.941   8.310   1.118  0.1203  0.5358  0.6764
10570SOL    HW133449   3.912   8.380   1.176  1.3953  0.7642  1.0794
10570SOL    HW233450   3.869   8.246   1.119 -0.4206  1.1455  1.4844
10571SOL     OW33451   5.504   4.474   7.486 -0.0135 -0.1285 -0.0237
10571SOL    HW133452   5.532   4.443   7.399 -1.5602  0.9361 -0.9522
10571SOL    HW233453   5.571   4.441   7.546  2.0239  0.4818 -1.8322
10572SOL     OW33454   8.062   2.523   5.337 -0.6002 -0.0434 -0.1674
10572SOL    HW133455   8.058   2.571   5.420  0.2286 -1.2215  0.5896
10572SOL    HW233456   8.003   2.570   5.279  1.2422  2.7651  0.0525
10573SOL     OW33457   7.168   5.537   1.357  0.2578 -0.3917 -0.0695
10573SOL    HW133458   7.245   5.519   1.411  0.3782  1.4783  0.4475
10573SOL    HW233459   7.192   5.504   1.270  1.5722 -0.0726  0.1409
10574SOL     OW33460   1.448   7.279   3.817  0.5990 -0.0447 -0.2647
10574SOL    HW133461   1.531   7.250   3.855  1.3534  0.1090 -1.7225
10574SOL    HW233462   1.471   7.357   3.765 -0.0913 -1.0337 -2.1662
10575SOL     OW33463   3.575   4.361   4.071 -0.0354  0.1472  1.1031
10575SOL    HW133464   3.491   4.326   4.044 -0.8473  2.3492  0.6088
10575SOL    HW233465   3.578   4.346   4.166 -1.5951  1.1936  1.3539
10576SOL     OW33466   2.449   8.713   2.699  0.3455 -0.0265  0.2756
10576SOL    HW133467   2.521   8.650   2.707 -0.2979 -0.7920  0.1072
10576SOL    HW233468   2.384   8.683   2.763 -0.1566  0.2027 -0.1222
10577SOL     OW33469   3.795   6.166   8.872 -0.2357 -0.5782 -0.6850
10577SOL    HW133470   3.736   6.100   8.836 -1.6675  0.2370  0.0809
10577SOL    HW233471   3.862   6.178   8.804 -1.2438 -1.1388 -1.8141
10578SOL     OW33472   5.930   5.331   1.039  0.8305 -0.2076  0.2421
10578SOL    HW133473   5.861   5.304   0.977  0.8044 -0.0662  0.2090
10578SOL    HW233474   5.904   5.419   1.066  1.8343  0.4994 -0.9880
10579SOL     OW33475   3.084   4.281   3.664  0.1847  0.0866  0.1766
10579SOL    HW133476   3.140   4.320   3.597  1.5806  0.3943  1.4726
10579SOL    HW233477   3.011   4.341   3.673  0.5185  0.5733 -0.3382
10580SOL     OW33478   9.173   1.238   2.397  0.5031  0.2389 -0.2041
10580SOL    HW133479   9.206   1.215   2.310  0.2335  0.6614 -0.4236
10580SOL    HW233480   9.095   1.183   2.408 -1.1099  2.1416 -1.4189
10581SOL     OW33481   9.128   5.927   3.476 -0.0692 -0.2960  0.6691
10581SOL    HW133482   9.176   5.995   3.428 -0.2184  0.1502  1.1377
10581SOL    HW233483   9.082   5.975   3.545 -0.3981 -0.8444  0.8350
10582SOL     OW33484   6.824   5.787   0.638 -0.1173  0.3284 -0.5346
10582SOL    HW133485   6.834   5.868   0.688 -0.2181  0.4296 -0.6768
10582SOL    HW233486   6.913   5.755   0.626  0.0474  1.1190 -1.6203
10583SOL     OW33487   2.837   8.333   8.843 -0.3688 -0.0707  0.3729
10583SOL    HW133488   2.822   8.306   8.752  1.0501  1.1218 -0.2479
10583SOL    HW233489   2.773   8.283   8.893 -1.1274 -0.8244 -1.2679
10584SOL     OW33490   5.295   2.294   5.280  0.2366 -0.2029 -0.1744
10584SOL    HW133491   5.263   2.384   5.279 -0.1835 -0.3066  1.1014
10584SOL    HW233492   5.252   2.254   5.356  0.4181 -1.4819 -0.7084
10585SOL     OW33493   3.354   2.005   4.138 -0.4182  0.3271  0.4789
10585SOL    HW133494   3.368   1.918   4.175 -0.8346  0.6376  1.3953
10585SOL    HW233495   3.388   1.998   4.049 -2.0604 -1.3012 -0.0827
10586SOL     OW33496   3.271   4.423   0.871 -0.2201 -0.3339  0.2368
10586SOL    HW133497   3.248   4.440   0.779  0.4784  0.5004  0.1999
10586SOL    HW233498   3.342   4.485   0.889 -2.4029  1.8313  2.2718
10587SOL     OW33499   6.979   2.009   1.710 -0.1372  0.0896 -0.2042
10587SOL    HW133500   7.044   1.990   1.641  1.2286  0.9101  0.8092
10587SOL    HW233501   6.954   1.922   1.742 -0.8811 -0.3218 -1.7644
10588SOL     OW33502   6.157   8.759   0.965 -0.8378 -0.1206  0.1980
10588SOL    HW133503   6.136   8.826   0.901  0.8360  0.5063  0.2662
10588SOL    HW233504   6.073   8.737   1.005 -1.5076  1.5399 -0.2138
10589SOL     OW33505   3.996   5.130   3.291 -0.2694  0.1482 -0.0658
10589SOL    HW133506   4.000   5.144   3.196  1.5406  1.9554  0.1974
10589SOL    HW233507   3.907   5.157   3.315 -0.8394 -0.5866 -1.2622
10590SOL     OW33508   7.155   6.088   0.355  0.2105  0.3415  0.2749
10590SOL    HW133509   7.240   6.130   0.338  0.7695 -1.1942 -0.9959
10590SOL    HW233510   7.176   5.995   0.359 -0.9397  0.1156  3.2644
10591SOL     OW33511   4.005   3.853   4.476  0.7061  0.0283 -0.7099
10591SOL    HW133512   4.002   3.912   4.400  0.4655 -0.2507 -0.9173
10591SOL    HW233513   4.040   3.908   4.547 -2.2535  1.3162 -0.1001
10592SOL     OW33514   7.748   5.278   1.685  0.3546 -0.1456 -0.3410
10592SOL    HW133515   7.843   5.287   1.696  0.5382  0.4100 -2.1235
10592SOL    HW233516   7.714   5.367   1.691 -0.2401 -0.4455  1.4298
10593SOL     OW33517   8.074   2.243   6.774 -1.0011  0.3018 -0.0582
10593SOL    HW133518   8.080   2.225   6.867 -0.3387 -1.8922 -0.4658
10593SOL    HW233519   8.165   2.252   6.745 -1.0992 -0.6244 -0.7242
10594SOL     OW33520   4.702   1.439   9.486  0.1508 -0.1408  0.9355
10594SOL    HW133521   4.783   1.390   9.473  0.1536  0.1314 -0.1631
10594SOL    HW233522   4.714   1.519   9.436 -0.9790 -0.3091  0.3696
10595SOL     OW33523   0.849   5.075   3.787 -0.0674 -0.2604 -0.5993
10595SOL    HW133524   0.928   5.022   3.792 -1.3635 -2.1961  1.0447
10595SOL    HW233525   0.840   5.114   3.874 -0.9944 -0.1680 -0.7273
10596SOL     OW33526   7.546   4.244   8.430  0.5621 -0.4250 -0.2385
10596SOL    HW133527   7.528   4.207   8.343 -0.5724 -0.2195 -0.1031
10596SOL    HW233528   7.573   4.169   8.482  1.9101 -0.4473 -0.9259
10597SOL     OW33529   6.451   7.633   8.025  0.2540  0.1448  0.3312
10597SOL    HW133530   6.512   7.577   7.977 -0.0054 -0.9865  1.2719
10597SOL    HW233531   6.458   7.718   7.982  1.5205 -0.3026 -0.4104
10598SOL     OW33532   8.446   0.524   2.459 -0.1573  0.4210  0.3235
10598SOL    HW133533   8.428   0.617   2.448 -0.6898  0.2750 -0.0972
10598SOL    HW233534   8.360   0.482   2.452  0.3778 -0.4336 -3.0373
10599SOL     OW33535   5.178   0.169   7.043 -0.2580 -0.0241 -0.4430
10599SOL    HW133536   5.168   0.077   7.023  0.3104 -0.1763 -0.0730
10599SOL    HW233537   5.265   0.175   7.085  1.0231  1.0989 -3.0351
10600SOL     OW33538   5.276   4.118   8.352  0.0694 -0.3978 -0.0814
10600SOL    HW133539   5.361   4.075   8.345 -1.2323 -2.9063 -2.2076
10600SOL    HW233540   5.242   4.089   8.438  1.1508  0.3147  0.6071
10601SOL     OW33541   2.304   3.233   9.283 -0.5978 -0.5517 -0.0502
10601SOL    HW133542   2.372   3.280   9.332  0.9384 -1.9390 -0.7748
10601SOL    HW233543   2.222   3.269   9.317  0.4680  1.7025  0.3465
10602SOL     OW33544   1.022   4.066   5.048 -0.3759  0.4917  0.1882
10602SOL    HW133545   1.090   4.119   5.090 -0.3162  0.6476 -0.1074
10602SOL    HW233546   1.049   3.975   5.064  0.1052  0.5537 -0.2606
10603SOL     OW33547   8.155   4.436   2.305  0.0130 -0.1133 -0.2919
10603SOL    HW133548   8.208   4.511   2.334  0.6974  0.3186 -2.4850
10603SOL    HW233549   8.168   4.433   2.210 -3.2253 -0.5306 -0.8364
10604SOL     OW33550   0.541   5.809   7.820 -1.0130  0.8914  0.9729
10604SOL    HW133551   0.611   5.844   7.766 -0.8697 -1.6985 -0.6852
10604SOL    HW233552   0.461   5.843   7.780 -0.8436  0.3382  0.1454
10605SOL     OW33553   7.197   4.980   0.339 -0.0450 -0.0073 -0.7508
10605SOL    HW133554   7.148   4.909   0.378  0.5502  1.0008  2.0509
10605SOL    HW233555   7.211   4.953   0.248 -1.5102 -2.5114 -0.3087
10606SOL     OW33556   2.873   4.187   7.288 -0.3184 -0.1935  0.0858
10606SOL    HW133557   2.923   4.114   7.251  1.0645  0.6712  0.1602
10606SOL    HW233558   2.783   4.170   7.263  0.1262 -1.3707 -0.8008
10607SOL     OW33559   5.158   5.290   2.566 -0.3204 -0.3098 -0.8587
10607SOL    HW133560   5.106   5.307   2.488 -2.1229  1.6823  0.6569
10607SOL    HW233561   5.106   5.326   2.638  1.2860 -2.0022  1.2782
10608SOL     OW33562   7.858   8.232   5.732  0.0099 -0.1916  1.0105
10608SOL    HW133563   7.837   8.148   5.693  1.3139  0.2744 -0.8263
10608SOL    HW233564   7.927   8.213   5.795  0.6936 -0.4406  0.1993
10609SOL     OW33565   5.774   3.929   9.324 -0.2903 -0.3158 -0.6112
10609SOL    HW133566   5.735   3.886   9.248 -0.6786 -1.5544  0.2539
10609SOL    HW233567   5.703   3.982   9.360  0.0462  0.6931 -1.3973
10610SOL     OW33568   2.440   6.617   4.295 -0.1939 -0.5183 -0.1498
10610SOL    HW133569   2.506   6.631   4.363 -0.4886  1.1302 -0.1694
10610SOL    HW233570   2.451   6.691   4.235 -1.9799 -0.2710 -0.2129
10611SOL     OW33571   4.176   4.006   5.941  0.1210  0.1118  0.3256
10611SOL    HW133572   4.228   4.051   6.008  0.6213 -0.8304  0.6001
10611SOL    HW233573   4.232   4.005   5.864  0.0574  0.1011  0.2801
10612SOL     OW33574   3.258   5.669   9.476  0.3829 -0.1449 -0.1438
10612SOL    HW133575   3.199   5.743   9.458 -0.0534  0.5399  3.4036
10612SOL    HW233576   3.239   5.606   9.406 -1.8871  1.5782 -1.2210
10613SOL     OW33577   4.390   2.541   2.777  0.3732 -0.0331 -0.2549
10613SOL    HW133578   4.367   2.615   2.833 -0.6172 -0.0788 -0.5884
10613SOL    HW233579   4.410   2.581   2.692  1.5132 -0.0003  0.0062
10614SOL     OW33580   4.087   6.417   0.413  0.1265  0.6718  0.2202
10614SOL    HW133581   4.048   6.392   0.329  0.6653 -1.6840  0.5973
10614SOL    HW233582   4.155   6.352   0.429  0.1787  1.1613  2.4089
10615SOL     OW33583   3.455   1.186   5.972  0.2651  0.1427 -0.4187
10615SOL    HW133584   3.430   1.150   6.057  0.4297  0.2090 -0.3418
10615SOL    HW233585   3.408   1.269   5.966  1.8841  1.2026  0.5481
10616SOL     OW33586   8.823   8.811   0.822 -0.1890  0.0890  0.0823
10616SOL    HW133587   8.813   8.722   0.856 -1.2088 -0.4187 -1.4357
10616SOL    HW233588   8.916   8.818   0.800 -0.4512 -1.3972 -1.7639
10617SOL     OW33589   2.343   4.839   4.257  0.4299 -0.2474 -0.4874
10617SOL    HW133590   2.295   4.921   4.248  1.4193  0.5247  0.8110
10617SOL    HW233591   2.428   4.855   4.216  0.7402 -0.5029  0.0351
10618SOL     OW33592   3.903   6.656   7.779 -0.3011 -0.6176 -0.4034
10618SOL    HW133593   3.846   6.724   7.745 -0.6673 -0.4151  0.5798
10618SOL    HW233594   3.949   6.698   7.852 -0.7392 -1.5055  0.3935
10619SOL     OW33595   7.812   2.376   7.755 -0.5988 -0.4255  0.2900
10619SOL    HW133596   7.874   2.448   7.754 -1.7340  0.6200  1.7195
10619SOL    HW233597   7.744   2.403   7.817 -2.6208 -1.4030 -1.3814
10620SOL     OW33598   9.353   0.485   2.692 -0.0233 -0.2689  0.2878
10620SOL    HW133599   9.288   0.418   2.671  0.4100 -0.6559  0.1453
10620SOL    HW233600   9.414   0.441   2.752 -0.2182  0.2665  0.8903
10621SOL     OW33601   7.567   6.356   9.276 -0.8262 -0.0184  0.1046
10621SOL    HW133602   7.566   6.294   9.203  2.1151 -0.5746  0.4319
10621SOL    HW233603   7.581   6.302   9.354  1.0115  0.9172  0.4838
10622SOL     OW33604   2.458   2.975   0.327 -0.0144 -0.3845  0.3500
10622SOL    HW133605   2.475   3.049   0.269 -0.8843  0.4284  1.1084
10622SOL    HW233606   2.544   2.935   0.339  0.2212 -0.4654 -1.3181
10623SOL     OW33607   7.734   7.610   3.647 -0.8456  0.1966 -0.1061
10623SOL    HW133608   7.647   7.600   3.686 -0.1285 -2.4255  1.0334
10623SOL    HW233609   7.793   7.614   3.722  0.1337  0.8329 -0.8924
10624SOL     OW33610   9.531   5.558   0.526  0.6107  0.2163  0.7824
10624SOL    HW133611   9.470   5.560   0.453  1.0072 -0.1139  0.4376
10624SOL    HW233612   9.553   5.465   0.536  1.8523  0.4317  0.2223
10625SOL     OW33613   5.881   4.548   2.596 -0.0697 -0.1050  0.3722
10625SOL    HW133614   5.926   4.620   2.641 -0.3988 -0.3909  1.1815
10625SOL    HW233615   5.857   4.584   2.511  1.1094  0.2586  0.1781
10626SOL     OW33616   5.108   9.556   7.814 -0.5577  0.5961 -0.8006
10626SOL    HW133617   5.019   9.584   7.834 -1.1714 -1.9829  0.3896
10626SOL    HW233618   5.158   9.576   7.894 -0.0258  1.9410 -1.4268
10627SOL     OW33619   9.459   1.380   4.906  0.1313  0.3114  0.2517
10627SOL    HW133620   9.515   1.432   4.964  1.3663 -0.5885 -0.0848
10627SOL    HW233621   9.518   1.314   4.869 -0.9264  0.0094 -0.9732
10628SOL     OW33622   2.127   4.865   7.050  0.2068  0.2884 -0.6012
10628SOL    HW133623   2.144   4.877   7.143  1.0931 -0.7870 -0.6014
10628SOL    HW233624   2.037   4.895   7.038  0.9265  2.9990  0.0642
10629SOL     OW33625   0.670   8.624   9.553  0.9750 -0.0610 -0.1594
10629SOL    HW133626   0.599   8.659   9.606 -0.2939 -1.4105 -0.8876
10629SOL    HW233627   0.643   8.639   9.462  1.7262 -0.3952 -0.4523
10630SOL     OW33628   0.025   7.497   3.090 -0.3921  0.5593 -0.2699
10630SOL    HW133629   0.095   7.544   3.136 -0.0691  0.2062 -0.3941
10630SOL    HW233630  -0.043   7.562   3.078 -0.0511  0.9325 -0.2137
10631SOL     OW33631   2.038   7.725   3.810  0.0348 -0.1884  0.3214
10631SOL    HW133632   2.000   7.658   3.866 -0.8545 -0.3246 -0.4255
10631SOL    HW233633   2.076   7.789   3.870 -0.5689 -0.5247  1.0669
10632SOL     OW33634   4.969   8.453   0.786 -0.1831 -0.0106  0.0718
10632SOL    HW133635   5.040   8.425   0.729  0.8153  0.7661  0.8869
10632SOL    HW233636   4.984   8.407   0.868 -3.1844 -3.3334 -0.9554
10633SOL     OW33637   0.735   2.359   2.650  0.0525 -0.6121  0.2788
10633SOL    HW133638   0.708   2.280   2.602 -1.6770  0.1226 -0.0479
10633SOL    HW233639   0.666   2.370   2.716 -0.5659  1.4271 -0.6405
10634SOL     OW33640   3.281   3.076   6.687 -0.7584  0.2203 -0.5290
10634SOL    HW133641   3.260   2.984   6.705  0.6360 -0.1327 -0.6095
10634SOL    HW233642   3.320   3.075   6.599  1.3029  0.5272  0.3153
10635SOL     OW33643   4.200   7.390   2.570 -0.2698 -0.0495 -0.1201
10635SOL    HW133644   4.274   7.430   2.616 -0.0753  0.2052 -0.6378
10635SOL    HW233645   4.233   7.377   2.480 -0.5799 -0.6904 -0.1447
10636SOL     OW33646   7.755   7.718   6.007  0.2207 -0.9373 -0.2147
10636SOL    HW133647   7.701   7.781   6.056 -0.3262  0.1808 -2.1785
10636SOL    HW233648   7.699   7.691   5.934  2.0500 -0.2845 -1.9225
10637SOL     OW33649   1.799   4.051   8.860  0.6283  0.4982 -0.1176
10637SOL    HW133650   1.876   4.035   8.805 -0.5580  0.1482 -1.7248
10637SOL    HW233651   1.736   4.095   8.803  0.1017  2.0447  1.5482
10638SOL     OW33652   9.036   7.255   2.335 -0.6570  0.1005 -0.2449
10638SOL    HW133653   9.009   7.249   2.243 -0.6371 -1.0916 -0.1920
10638SOL    HW233654   9.075   7.170   2.353  0.4404  0.7515  0.5340
10639SOL     OW33655   7.189   6.608   5.838  0.0135 -0.5332 -0.2551
10639SOL    HW133656   7.223   6.524   5.805 -0.5260 -0.3081 -1.4433
10639SOL    HW233657   7.098   6.610   5.809  0.4354  1.1447 -1.6452
10640SOL     OW33658   7.237   0.732   9.582  0.1097 -0.2664  0.0734
10640SOL    HW133659   7.207   0.701   9.496  0.7729 -0.6673 -0.0251
10640SOL    HW233660   7.319   0.685   9.597  0.4477  0.4437  0.5381
10641SOL     OW33661   1.260   8.174   7.090  0.0472 -0.1513 -0.4993
10641SOL    HW133662   1.236   8.180   6.998 -1.8018  0.1392 -0.0377
10641SOL    HW233663   1.186   8.212   7.137  2.0585  2.2238  1.0156
10642SOL     OW33664   3.335   6.760   6.143 -0.0430 -0.1686  0.1296
10642SOL    HW133665   3.246   6.778   6.112  0.0551 -0.9580 -0.6370
10642SOL    HW233666   3.391   6.780   6.068  0.3559 -0.4236  0.3560
10643SOL     OW33667   5.452   7.476   3.535  0.4718 -0.1916 -0.4049
10643SOL    HW133668   5.464   7.443   3.624  0.0715 -0.8324 -0.5823
10643SOL    HW233669   5.528   7.442   3.486  0.2215 -0.5923 -0.5157
10644SOL     OW33670   0.215   3.539   8.823 -0.2579  0.0819  0.1893
10644SOL    HW133671   0.148   3.491   8.773  0.6094 -0.9471 -0.0147
10644SOL    HW233672   0.202   3.511   8.914 -0.0465 -0.1941  0.1354
10645SOL     OW33673   3.045   4.550   5.737 -0.4811 -0.1561 -0.6046
10645SOL    HW133674   3.129   4.578   5.700 -0.1557 -0.2979  0.0020
10645SOL    HW233675   3.067   4.519   5.825 -1.5149  1.9512  0.4488
10646SOL     OW33676   4.591   8.151   8.258  0.2378  0.2457 -0.4504
10646SOL    HW133677   4.553   8.147   8.170 -1.5085  0.1186  0.2719
10646SOL    HW233678   4.561   8.071   8.301 -0.7622  1.3237  0.9458
10647SOL     OW33679   7.234   7.715   1.841 -0.0504  0.2984 -0.5170
10647SOL    HW133680   7.146   7.747   1.864  0.4067 -0.1899  2.2000
10647SOL    HW233681   7.292   7.787   1.862  0.3795  0.0207 -0.7411
10648SOL     OW33682   9.137   0.730   4.966  0.7376 -0.1359 -0.7718
10648SOL    HW133683   9.232   0.718   4.961  1.6030  2.2930  3.8710
10648SOL    HW233684   9.107   0.657   5.019  0.8721  1.2836  1.3844
10649SOL     OW33685   8.353   8.653   1.882 -0.2769 -0.1262  0.3267
10649SOL    HW133686   8.355   8.730   1.825  2.2066  0.8835  1.5944
10649SOL    HW233687   8.306   8.587   1.832 -0.9382  1.6594 -1.5556
10650SOL     OW33688   6.372   4.726   3.817 -0.1085 -0.6559 -0.4624
10650SOL    HW133689   6.369   4.709   3.723  0.5131 -0.4580 -0.5235
10650SOL    HW233690   6.317   4.803   3.829 -1.4186 -1.5652 -0.4424
10651SOL     OW33691   6.823   0.797   5.738 -0.6791 -0.6549  0.2733
10651SOL    HW133692   6.814   0.876   5.792 -0.3509  1.0721 -2.0577
10651SOL    HW233693   6.915   0.771   5.750 -0.0267  0.9361 -0.9737
10652SOL     OW33694   5.974   9.239   7.450  0.1622  0.3206  0.7114
10652SOL    HW133695   6.060   9.198   7.460 -0.0226  0.0108  1.0110
10652SOL    HW233696   5.927   9.183   7.389  0.4081  0.8601  0.0087
10653SOL     OW33697   9.320   7.852   9.475 -0.4366 -0.5257  0.0297
10653SOL    HW133698   9.289   7.839   9.565  2.3322  2.6050  1.6367
10653SOL    HW233699   9.258   7.914   9.437 -0.5553 -0.3990  0.4290
10654SOL     OW33700   8.743   7.943   1.116  0.1215 -0.7712  0.3513
10654SOL    HW133701   8.733   7.855   1.152  1.4180 -1.1877 -0.2418
10654SOL    HW233702   8.836   7.949   1.094 -0.0708  0.5324 -0.1631
10655SOL     OW33703   6.007   7.809   8.772  0.8512 -0.0493 -0.3449
10655SOL    HW133704   6.101   7.797   8.756  0.9254 -2.0530  1.1218
10655SOL    HW233705   5.990   7.757   8.851 -1.6327 -0.3317 -0.9907
10656SOL     OW33706   3.208   6.763   3.295 -0.1541 -0.8902  0.2480
10656SOL    HW133707   3.218   6.792   3.386 -0.1655  1.8985 -0.5456
10656SOL    HW233708   3.257   6.681   3.290 -0.1288 -1.0851  2.7496
10657SOL     OW33709   6.822   2.538   5.876 -0.0008  0.1595 -0.5063
10657SOL    HW133710   6.792   2.599   5.808  0.0215  1.5116  0.6439
10657SOL    HW233711   6.916   2.553   5.881  0.4942 -1.9704 -2.0743
10658SOL     OW33712   6.414   0.974   0.465  0.1026 -0.2510  0.0467
10658SOL    HW133713   6.494   0.959   0.414 -0.8161 -0.5169 -1.3677
10658SOL    HW233714   6.408   1.069   0.473 -0.2865 -0.1447 -1.2868
10659SOL     OW33715   9.274   1.354   0.708  0.2320 -0.3368  0.3894
10659SOL    HW133716   9.279   1.445   0.738 -0.5600 -0.0696 -0.2679
10659SOL    HW233717   9.269   1.303   0.788  0.8227  0.1877  0.7699
10660SOL     OW33718   5.444   6.451   8.706 -0.3917 -0.0374 -0.2841
10660SOL    HW133719   5.517   6.487   8.758  0.5560  0.6761 -2.0394
10660SOL    HW233720   5.472   6.460   8.615 -1.7699 -1.7855 -0.9370
10661SOL     OW33721   0.690   1.489   0.706 -0.2500  0.0111  0.3301
10661SOL    HW133722   0.645   1.573   0.709 -0.1360  0.0749  0.2427
10661SOL    HW233723   0.659   1.447   0.626  1.6249  1.0546 -1.0274
10662SOL     OW33724   4.581   5.843   0.707  0.5040 -0.0562 -0.3035
10662SOL    HW133725   4.613   5.789   0.635  2.7378 -0.9550  1.2748
10662SOL    HW233726   4.643   5.916   0.712 -0.7081  1.0294 -0.4315
10663SOL     OW33727   8.397   4.280   3.827 -0.5441 -0.4187  0.4256
10663SOL    HW133728   8.472   4.326   3.788 -1.5567  0.1136 -0.9453
10663SOL    HW233729   8.414   4.188   3.808 -0.9379 -0.1852 -1.1964
10664SOL     OW33730   8.421   2.035   4.191 -0.1322  0.3361 -0.3762
10664SOL    HW133731   8.504   1.995   4.165 -0.3927  0.2137 -1.0590
10664SOL    HW233732   8.441   2.128   4.198  0.2297  0.2184  0.1769
10665SOL     OW33733   2.253   1.264   2.778 -0.0476  0.1130 -0.0621
10665SOL    HW133734   2.195   1.336   2.755 -1.2464 -0.5453  0.7796
10665SOL    HW233735   2.219   1.231   2.861  2.5943  0.7860  1.3762
10666SOL     OW33736   1.228   2.723   5.656 -0.1913  0.0465  0.0715
10666SOL    HW133737   1.304   2.741   5.710 -0.2152  2.8778 -0.6667
10666SOL    HW233738   1.155   2.717   5.718  0.3057 -0.5289  0.6071
10667SOL     OW33739   5.775   2.499   6.788  0.6772  0.1795 -0.2770
10667SOL    HW133740   5.718   2.456   6.851  1.0135  2.3213  1.6446
10667SOL    HW233741   5.718   2.521   6.714 -1.3924  3.0398  1.9414
10668SOL     OW33742   8.675   9.434   7.679  0.6811 -0.5687 -0.0644
10668SOL    HW133743   8.747   9.416   7.739  0.5172 -0.7992  0.0674
10668SOL    HW233744   8.602   9.457   7.736  0.6310 -0.4082 -0.1937
10669SOL     OW33745   1.904   6.365   9.608  0.3245 -0.2399 -0.2049
10669SOL    HW133746   1.840   6.415   9.659 -1.0090 -0.4982 -1.5587
10669SOL    HW233747   1.984   6.418   9.612 -0.4094  0.8843  0.2669
10670SOL     OW33748   2.427   6.698   6.139 -0.1798 -0.2877  0.3418
10670SOL    HW133749   2.351   6.748   6.168 -1.8703 -1.9428 -0.9767
10670SOL    HW233750   2.438   6.630   6.205  1.9088  1.4602  1.9538
10671SOL     OW33751   9.199   6.574   1.742  0.7241  0.4182 -0.4644
10671SOL    HW133752   9.125   6.556   1.800 -0.5684  1.5050 -1.7027
10671SOL    HW233753   9.221   6.489   1.704 -0.8283  0.2812 -1.1172
10672SOL     OW33754   6.501   5.979   6.932  0.2691 -0.3758 -0.5105
10672SOL    HW133755   6.437   5.912   6.954  0.0719  0.1805  0.7111
10672SOL    HW233756   6.476   6.054   6.986  2.0354 -0.1928  0.1235
10673SOL     OW33757   6.951   1.015   1.627 -0.3615 -0.5287 -0.8419
10673SOL    HW133758   6.933   1.007   1.721 -0.8630 -1.8995 -1.0421
10673SOL    HW233759   7.042   0.989   1.618  0.2090  1.2007 -0.5501
10674SOL     OW33760   4.175   8.257   7.700  0.4221  0.3567  0.5816
10674SOL    HW133761   4.246   8.304   7.656 -0.7372  1.2927 -0.3719
10674SOL    HW233762   4.134   8.204   7.632 -1.1125  1.4670  0.5816
10675SOL     OW33763   9.137   3.883   9.337 -0.0639  0.5141  0.0847
10675SOL    HW133764   9.219   3.844   9.306 -1.5497 -0.5063 -2.9544
10675SOL    HW233765   9.112   3.828   9.411  0.2064 -1.5276 -1.2467
10676SOL     OW33766   5.485   5.469   5.858 -0.0126 -0.1872 -0.0642
10676SOL    HW133767   5.461   5.469   5.951 -0.0852 -1.4115 -0.0615
10676SOL    HW233768   5.424   5.531   5.817  0.0203  0.3553  0.6943
10677SOL     OW33769   2.825   4.791   3.646  0.0579 -0.4987 -0.1595
10677SOL    HW133770   2.915   4.771   3.672 -0.4357 -0.3488  1.8310
10677SOL    HW233771   2.824   4.776   3.551  1.9414 -1.3715 -0.1001
10678SOL     OW33772   0.831   4.106   2.616  0.3186  0.7561  0.4143
10678SOL    HW133773   0.817   4.048   2.541  1.9668  0.3805  0.3587
10678SOL    HW233774   0.743   4.125   2.649 -0.3683  0.0152 -0.9153
10679SOL     OW33775   5.514   6.286   0.388 -0.9830 -0.0904 -0.0615
10679SOL    HW133776   5.528   6.357   0.325  0.0604  0.3368  0.6264
10679SOL    HW233777   5.428   6.304   0.426 -0.9245  0.5416 -0.2211
10680SOL     OW33778   1.276   4.851   1.708 -0.3153  0.0061 -0.0769
10680SOL    HW133779   1.199   4.909   1.713  0.5882  1.1748  2.5631
10680SOL    HW233780   1.271   4.798   1.788  0.1692 -1.9118 -1.2672
10681SOL     OW33781   0.585   3.633   7.275  0.6144 -0.1800  0.7829
10681SOL    HW133782   0.652   3.701   7.287  0.3850  0.1829  0.0834
10681SOL    HW233783   0.629   3.566   7.222 -0.0007  0.7805 -1.0556
10682SOL     OW33784   6.351   4.513   4.691 -0.0625 -0.3386  0.1121
10682SOL    HW133785   6.410   4.518   4.766 -3.0165  0.5647  2.5757
10682SOL    HW233786   6.381   4.582   4.632  1.5371 -0.1632  1.0567
10683SOL     OW33787   2.779   7.152   9.195  0.1398  0.4655  0.3302
10683SOL    HW133788   2.769   7.239   9.234 -0.6703  1.8255 -2.5916
10683SOL    HW233789   2.689   7.125   9.174  0.5238 -0.2765 -0.3928
10684SOL     OW33790   4.139   3.740   0.816 -0.2984 -0.4085  0.1250
10684SOL    HW133791   4.207   3.713   0.753  2.0402  0.7974  1.9463
10684SOL    HW233792   4.132   3.666   0.877  2.9462  1.0616  2.6030
10685SOL     OW33793   7.449   3.279   5.737  0.4017 -0.2656  0.1126
10685SOL    HW133794   7.389   3.214   5.775 -0.2236 -1.1710 -2.2285
10685SOL    HW233795   7.440   3.355   5.793  0.7929 -2.0017  2.7003
10686SOL     OW33796   8.640   5.719   6.104 -0.0485  0.3294 -0.0131
10686SOL    HW133797   8.733   5.702   6.090 -0.2305 -0.7698  0.0373
10686SOL    HW233798   8.632   5.814   6.098  1.0410  0.4204 -0.2268
10687SOL     OW33799   9.347   4.218   6.107  0.0100  0.1766  0.7053
10687SOL    HW133800   9.361   4.247   6.197  0.9868  1.0840  0.2681
10687SOL    HW233801   9.377   4.290   6.052  0.8862 -0.9645 -0.3813
10688SOL     OW33802   7.174   5.751   2.255  0.2555  0.5816  0.6665
10688SOL    HW133803   7.255   5.798   2.274  0.8163  0.5239 -1.3994
10688SOL    HW233804   7.170   5.683   2.322  1.6213  0.9087  1.1243
10689SOL     OW33805   4.967   2.184   3.450  0.3086 -0.0119 -0.0802
10689SOL    HW133806   5.035   2.249   3.435 -0.0116  0.0504 -1.3250
10689SOL    HW233807   4.885   2.227   3.425  0.1198 -0.9656 -1.1911
10690SOL     OW33808   2.952   4.609   2.778  0.0364 -0.4327  0.2236
10690SOL    HW133809   3.030   4.616   2.723  0.2689 -1.2650  0.4311
10690SOL    HW233810   2.986   4.608   2.868 -0.2425 -0.3893  0.3306
10691SOL     OW33811   9.400   4.341   7.248 -0.3099  0.4552 -0.0085
10691SOL    HW133812   9.414   4.248   7.263  1.1973  0.6218 -0.2770
10691SOL    HW233813   9.466   4.385   7.301 -0.3642  1.3428 -0.6419
10692SOL     OW33814   0.833   3.806   5.075  0.1856  0.2847 -0.4756
10692SOL    HW133815   0.863   3.715   5.084 -2.9785 -0.9051 -0.6514
10692SOL    HW233816   0.831   3.840   5.164  1.4312  0.2203 -0.4113
10693SOL     OW33817   0.354   9.204   1.077  0.5117 -0.1855 -0.3848
10693SOL    HW133818   0.405   9.277   1.043  1.0867 -0.7866 -0.8499
10693SOL    HW233819   0.402   9.174   1.154  1.9876 -1.9676 -1.8964
10694SOL     OW33820   8.731   6.758   2.585 -0.1571 -0.3737 -0.8068
10694SOL    HW133821   8.682   6.839   2.601  0.1734 -0.4197  0.6351
10694SOL    HW233822   8.676   6.689   2.624  0.6192 -0.5338  0.0401
10695SOL     OW33823   8.325   3.076   6.006 -0.1828 -0.3018 -0.7134
10695SOL    HW133824   8.416   3.062   5.978  0.5432  0.2749  1.1532
10695SOL    HW233825   8.278   3.096   5.926  1.4952  0.0550 -1.6644
10696SOL     OW33826   5.887   9.046   4.600 -0.0047  0.2941 -0.0550
10696SOL    HW133827   5.885   9.123   4.544 -2.1105  1.0389  0.9374
10696SOL    HW233828   5.795   9.021   4.610  0.4156 -0.7107  1.8312
10697SOL     OW33829   2.962   8.881   8.063 -0.3441  0.5219 -0.4291
10697SOL    HW133830   2.915   8.836   8.133 -0.2915 -0.0349 -0.7483
10697SOL    HW233831   2.977   8.969   8.097 -1.3459  0.6152 -0.1952
10698SOL     OW33832   2.697   9.138   8.526  0.7346 -0.4547  0.6125
10698SOL    HW133833   2.655   9.056   8.501  1.9262 -0.7982 -0.3749
10698SOL    HW233834   2.723   9.179   8.443  0.7548  0.6096  1.1170
10699SOL     OW33835   5.076   5.821   2.043  0.1825 -0.3576 -0.1333
10699SOL    HW133836   5.023   5.827   1.963  1.6087  0.7592 -1.0600
10699SOL    HW233837   5.109   5.910   2.056 -1.4679 -0.0433  2.8001
10700SOL     OW33838   6.644   9.448   2.770  0.6665 -0.1253  0.1610
10700SOL    HW133839   6.693   9.524   2.801 -1.1989  0.7876  1.0207
10700SOL    HW233840   6.571   9.484   2.721  0.9136 -1.4569 -1.2719
10701SOL     OW33841   6.580   2.968   6.350  0.0009  0.8556 -0.2646
10701SOL    HW133842   6.569   2.876   6.329  1.1299 -0.8937  5.1040
10701SOL    HW233843   6.494   2.996   6.382 -0.0060  1.2365 -0.6183
10702SOL     OW33844   6.007   6.973   5.428 -0.4036  0.7677  0.2220
10702SOL    HW133845   5.946   7.036   5.467  0.4217  2.1963 -0.7015
10702SOL    HW233846   6.081   7.026   5.398  0.1201 -0.5874 -1.0260
10703SOL     OW33847   8.189   6.952   2.594  0.2705  0.6682 -0.0180
10703SOL    HW133848   8.191   7.017   2.524 -0.2149  1.1268  0.3821
10703SOL    HW233849   8.096   6.932   2.605  0.3770  0.3205  0.2379
10704SOL     OW33850   7.157   8.060   5.490 -0.0611 -0.2305 -0.5733
10704SOL    HW133851   7.081   8.024   5.444  0.3162  0.4993 -1.7982
10704SOL    HW233852   7.172   8.145   5.450  0.3494  0.4039  0.8533
10705SOL     OW33853   1.969   8.823   4.125  0.3505  0.4134 -0.0578
10705SOL    HW133854   1.974   8.877   4.204  0.6213 -2.9563  2.4622
10705SOL    HW233855   1.876   8.805   4.114  0.4575 -0.9006  0.9217
10706SOL     OW33856   1.607   2.753   6.545 -0.5180  0.1259  0.1032
10706SOL    HW133857   1.702   2.741   6.550 -0.2247  0.8191 -2.4341
10706SOL    HW233858   1.583   2.787   6.631  1.5592  0.1307  0.7488
10707SOL     OW33859   4.661   8.512   5.621  0.1916  0.7245 -0.0243
10707SOL    HW133860   4.708   8.590   5.591  1.4462 -0.6240 -1.7370
10707SOL    HW233861   4.728   8.444   5.626 -1.1187 -0.6130  0.0391
10708SOL     OW33862   8.780   9.307   0.088 -0.3660 -0.0198 -0.1433
10708SOL    HW133863   8.731   9.246   0.143  2.0869 -0.5425  1.6524
10708SOL    HW233864   8.785   9.264   0.002 -2.6313 -0.0905 -0.2997
10709SOL     OW33865   5.004   5.157   4.949 -0.4642  0.7711 -0.5164
10709SOL    HW133866   5.029   5.212   4.875 -1.0154  0.3837 -0.9985
10709SOL    HW233867   4.974   5.218   5.016 -0.0538  1.1174 -0.6383
10710SOL     OW33868   8.518   1.155   4.437 -0.9323  0.0690 -0.0113
10710SOL    HW133869   8.516   1.120   4.526 -1.3399  0.6530  0.2184
10710SOL    HW233870   8.573   1.093   4.388 -1.7307 -0.9432  0.3409
10711SOL     OW33871   2.665   6.053   8.039  0.1009 -0.4696  0.2460
10711SOL    HW133872   2.692   5.964   8.014  0.8011 -0.2823  0.3224
10711SOL    HW233873   2.738   6.086   8.091 -0.0102  0.2818 -0.0744
10712SOL     OW33874   2.885   2.692   6.655  0.3346 -0.0968 -0.3433
10712SOL    HW133875   2.885   2.655   6.743  0.6024  2.9141  1.0299
10712SOL    HW233876   2.949   2.638   6.607  0.2264 -1.7718  1.2587
10713SOL     OW33877   3.594   2.968   5.664 -0.2927  0.1312 -0.2408
10713SOL    HW133878   3.584   2.964   5.759 -0.1965 -0.4935 -0.2505
10713SOL    HW233879   3.600   3.061   5.644 -0.5776  0.2791  0.3380
10714SOL     OW33880   7.543   1.140   0.271  0.1366  0.2136 -0.1130
10714SOL    HW133881   7.476   1.093   0.221 -0.2840  0.0018  0.6265
10714SOL    HW233882   7.495   1.176   0.346  1.1060 -1.2459  1.2765
10715SOL     OW33883   7.867   6.632   1.746  0.0377 -0.0805 -0.3175
10715SOL    HW133884   7.883   6.725   1.729 -0.0618  0.3731  1.8067
10715SOL    HW233885   7.952   6.590   1.732  0.4860  0.6040  0.2426
10716SOL     OW33886   2.424   0.492   2.256  0.4880 -0.2853 -0.4785
10716SOL    HW133887   2.457   0.449   2.177  1.8000  0.1056 -0.1660
10716SOL    HW233888   2.374   0.567   2.224 -0.4822 -1.1277 -0.9758
10717SOL     OW33889   2.872   4.691   1.007 -0.0421  0.2850  0.0607
10717SOL    HW133890   2.860   4.732   0.922 -0.5218  2.3227  1.0496
10717SOL    HW233891   2.929   4.752   1.055  0.5699 -1.0258  1.0654
10718SOL     OW33892   3.566   3.284   8.993 -0.0370  0.1598  0.0790
10718SOL    HW133893   3.576   3.322   8.906  1.0360  0.2237  0.2255
10718SOL    HW233894   3.525   3.353   9.045  2.1574  1.2867  0.4230
10719SOL     OW33895   5.819   8.559   7.291  0.4059  0.0171 -0.3990
10719SOL    HW133896   5.738   8.516   7.320  0.2788 -0.5275 -1.5044
10719SOL    HW233897   5.862   8.587   7.372 -0.3426 -0.6905  0.2600
10720SOL     OW33898   2.244   3.356   0.356  0.6519  0.1635  0.6502
10720SOL    HW133899   2.243   3.302   0.435  2.5439 -3.2655 -1.4168
10720SOL    HW233900   2.165   3.331   0.309  0.5942  0.6053  0.5119
10721SOL     OW33901   0.701   8.503   0.604 -0.4052  0.4690  0.2677
10721SOL    HW133902   0.768   8.453   0.557  1.2262  1.8053  1.0713
10721SOL    HW233903   0.641   8.532   0.536  0.4448  0.1731 -0.6327
10722SOL     OW33904   0.730   8.054   5.302  0.2334 -0.2179  0.3477
10722SOL    HW133905   0.651   8.108   5.294 -0.0781 -0.6877  0.1901
10722SOL    HW233906   0.702   7.967   5.272  0.6361 -0.5511  0.9226
10723SOL     OW33907   8.483   4.228   4.122  0.1597 -0.6188  0.2028
10723SOL    HW133908   8.516   4.138   4.121  0.4526 -0.5490 -2.0697
10723SOL    HW233909   8.445   4.241   4.034 -2.2341  0.6557  1.3158
10724SOL     OW33910   4.815   8.560   4.512 -0.0362 -0.2679  0.4596
10724SOL    HW133911   4.774   8.548   4.598  0.1791 -0.9701  0.4651
10724SOL    HW233912   4.781   8.489   4.459 -1.3038  0.9916 -0.4804
10725SOL     OW33913   4.915   5.072   6.392 -0.8791  0.1143  0.3769
10725SOL    HW133914   4.844   5.100   6.450 -1.5143 -0.5684 -0.0535
10725SOL    HW233915   4.870   5.027   6.320 -0.0069 -0.3135  0.0940
10726SOL     OW33916   5.558   1.020   2.625  0.4463  0.5246  0.4581
10726SOL    HW133917   5.649   1.032   2.599  0.2601 -0.0121 -0.4843
10726SOL    HW233918   5.535   0.933   2.593 -0.1984  0.3781  1.2877
10727SOL     OW33919   6.007   7.562   7.778 -0.0188  0.8013  0.4957
10727SOL    HW133920   5.920   7.576   7.815  0.3319  0.5031  1.4620
10727SOL    HW233921   6.038   7.482   7.821 -0.1939 -0.4570 -1.5557
10728SOL     OW33922   3.186   2.617   0.453  0.7882  0.1221 -0.2452
10728SOL    HW133923   3.244   2.630   0.529  0.9995 -1.0777 -0.1801
10728SOL    HW233924   3.186   2.522   0.439 -2.4477 -0.1550  0.7670
10729SOL     OW33925   1.264   0.013   4.534 -0.5456  0.0065 -0.0104
10729SOL    HW133926   1.238  -0.078   4.517 -0.2673  0.0432 -0.6706
10729SOL    HW233927   1.244   0.027   4.627 -1.1016 -0.5548 -0.0418
10730SOL     OW33928   7.853   2.343   4.951 -0.1804  0.6064  0.3905
10730SOL    HW133929   7.922   2.361   4.887  0.3202  0.9208  0.9962
10730SOL    HW233930   7.868   2.408   5.020 -0.8436  0.4153  0.7180
10731SOL     OW33931   1.624   5.508   0.931 -0.1217  0.2238 -0.1524
10731SOL    HW133932   1.573   5.571   0.981  2.1510 -0.3591  3.2614
10731SOL    HW233933   1.597   5.422   0.964  1.1350 -0.2280 -0.2177
10732SOL     OW33934   1.940   0.355   3.943 -0.0234  0.4459  0.0837
10732SOL    HW133935   1.972   0.390   3.860  0.5153  0.3800  0.2531
10732SOL    HW233936   1.958   0.261   3.937  0.3039  0.4858  0.3958
10733SOL     OW33937   5.856   1.154   0.632 -0.3562  0.5134 -0.0781
10733SOL    HW133938   5.866   1.121   0.543  0.7877  2.4336 -0.7273
10733SOL    HW233939   5.945   1.173   0.661 -0.8288  1.4689  0.8276
10734SOL     OW33940   6.307   7.410   9.508  0.1846 -0.2127 -0.0378
10734SOL    HW133941   6.264   7.445   9.586  0.3296  2.1202 -0.9148
10734SOL    HW233942   6.400   7.431   9.521 -0.0123  1.8994 -1.5906
10735SOL     OW33943   7.810   7.742   0.187  0.3787  0.7081  0.1527
10735SOL    HW133944   7.847   7.664   0.229  0.6076  0.9237  0.3627
10735SOL    HW233945   7.786   7.714   0.099  0.6029  0.4403  0.1767
10736SOL     OW33946   9.540   2.654   2.456 -0.5949 -0.0444 -0.0958
10736SOL    HW133947   9.539   2.594   2.382  1.7351 -2.0690  1.3896
10736SOL    HW233948   9.532   2.598   2.533  0.2366  1.6645  1.3028
10737SOL     OW33949   5.500   6.876   1.285 -0.1584  0.8829  0.1381
10737SOL    HW133950   5.417   6.915   1.258 -0.1677  1.1799  0.5780
10737SOL    HW233951   5.507   6.795   1.235  0.2595  1.8626 -1.4579
10738SOL     OW33952   6.630   6.934   0.809  0.3775  0.1849 -0.0436
10738SOL    HW133953   6.653   7.020   0.773 -0.7767  0.3269 -0.4714
10738SOL    HW233954   6.702   6.877   0.780  0.3088  0.6542 -1.1937
10739SOL     OW33955   5.574   7.949   5.943 -0.1931 -0.2875  0.2577
10739SOL    HW133956   5.554   8.029   5.993  0.4933  0.1100 -0.0859
10739SOL    HW233957   5.636   7.978   5.877 -1.6174 -0.6461 -1.2975
10740SOL     OW33958   2.203   3.411   6.486  0.1108  0.3785  0.1196
10740SOL    HW133959   2.267   3.454   6.543 -0.4423 -0.3187  1.3022
10740SOL    HW233960   2.120   3.416   6.533 -0.5361  0.4691 -0.9894
10741SOL     OW33961   0.648   0.051   2.378  0.1765 -0.0544 -0.2591
10741SOL    HW133962   0.738   0.067   2.409  1.2049 -1.1783 -2.4581
10741SOL    HW233963   0.606   0.136   2.383  1.3553  0.5037  0.8078
10742SOL     OW33964   1.624   5.461   6.815 -0.1295 -0.0585 -0.1179
10742SOL    HW133965   1.606   5.426   6.902  1.1015 -1.2363 -0.3051
10742SOL    HW233966   1.538   5.469   6.774 -0.5968 -1.1570  0.6026
10743SOL     OW33967   5.639   7.056   1.754 -0.1255 -0.4142 -0.2033
10743SOL    HW133968   5.703   7.104   1.703  0.5868  1.1132  1.9561
10743SOL    HW233969   5.592   7.002   1.691  0.6588  1.3628 -2.4172
10744SOL     OW33970   0.305   5.415   5.216  0.1800 -0.2080  0.1529
10744SOL    HW133971   0.324   5.508   5.217  2.0467 -0.4948 -1.2837
10744SOL    HW233972   0.353   5.382   5.140  1.3212 -2.6813  1.8156
10745SOL     OW33973   8.900   3.477   0.161 -0.1177  0.1592  0.2930
10745SOL    HW133974   8.879   3.570   0.169 -0.1784  0.1873 -0.1848
10745SOL    HW233975   8.855   3.449   0.082  0.4368 -0.1237  0.0758
10746SOL     OW33976   7.150   8.059   3.183  0.2687 -1.0681 -0.3927
10746SOL    HW133977   7.230   8.080   3.231  0.2139 -0.9559 -0.3508
10746SOL    HW233978   7.180   8.009   3.107  0.4803 -0.1762 -0.9186
10747SOL     OW33979   9.212   8.102   7.110  0.5447 -0.7818  0.4878
10747SOL    HW133980   9.184   8.194   7.108  0.7904 -0.6597  1.8009
10747SOL    HW233981   9.190   8.072   7.198  0.3674 -2.0272  0.0351
10748SOL     OW33982   3.109   2.200   0.136  0.1754 -0.0821  0.0950
10748SOL    HW133983   3.109   2.112   0.100  0.5143  0.5150 -1.4654
10748SOL    HW233984   3.190   2.207   0.186 -0.7950 -1.2664  1.9305
10749SOL     OW33985   0.469   3.252   1.754 -0.1323 -0.3446  0.1933
10749SOL    HW133986   0.483   3.159   1.776 -0.6836 -1.0562 -2.2314
10749SOL    HW233987   0.555   3.283   1.726 -0.0041 -0.1657  0.7627
10750SOL     OW33988   1.786   4.122   5.972  0.3686  0.5319 -0.1693
10750SOL    HW133989   1.698   4.143   5.940  0.2195  1.2231  0.6709
10750SOL    HW233990   1.775   4.038   6.016 -0.0998  1.0781  0.7958
10751SOL     OW33991   1.151   2.312   7.337 -0.1332 -0.1801  0.4666
10751SOL    HW133992   1.103   2.263   7.271  0.0618 -0.2091  0.3461
10751SOL    HW233993   1.201   2.378   7.288 -0.4499  0.1900  0.6322
10752SOL     OW33994   4.133   5.168   7.753  0.5228  0.3170  0.0349
10752SOL    HW133995   4.140   5.225   7.676  2.3926 -0.1118 -0.1569
10752SOL    HW233996   4.188   5.211   7.819  1.7946 -1.0919 -0.0412
10753SOL     OW33997   9.304   6.569   8.942  0.1048 -0.0914  0.3411
10753SOL    HW133998   9.297   6.476   8.923  1.0513  0.0617 -0.8773
10753SOL    HW233999   9.240   6.611   8.885  0.7997  0.1268 -0.2882
10754SOL     OW34000   6.701   2.613   1.327 -0.1141 -0.6282 -0.2135
10754SOL    HW134001   6.772   2.677   1.316 -0.3450 -0.4263 -0.5438
10754SOL    HW234002   6.646   2.651   1.395 -1.4713  0.6494 -1.9236
10755SOL     OW34003   4.912   7.010   9.289  0.2263  0.1351  0.2387
10755SOL    HW134004   4.924   7.002   9.195 -0.2743  0.5750  0.1311
10755SOL    HW234005   4.950   6.930   9.326  0.0969 -0.2062 -0.3639
10756SOL     OW34006   8.693   5.511   4.410 -0.1370  0.2975  0.0514
10756SOL    HW134007   8.761   5.497   4.345 -1.3751 -0.3797 -1.1370
10756SOL    HW234008   8.644   5.429   4.413 -0.6641  0.6240  1.1948
10757SOL     OW34009   7.123   7.841   9.262  0.4940  0.0493  0.5629
10757SOL    HW134010   7.120   7.914   9.323  3.0585  1.5567 -0.9125
10757SOL    HW234011   7.072   7.871   9.186  0.4981 -0.2344  0.4446
10758SOL     OW34012   2.543   5.319   2.564 -0.2425  0.0699 -0.3228
10758SOL    HW134013   2.495   5.401   2.576 -0.5425  0.0795 -1.4745
10758SOL    HW234014   2.476   5.251   2.572 -0.2959  0.0345 -1.0130
10759SOL     OW34015   9.134   2.081   5.875 -0.0031  0.1796  0.1077
10759SOL    HW134016   9.188   2.110   5.801 -0.8456  1.3859 -0.0616
10759SOL    HW234017   9.183   2.109   5.953  0.0393  0.4809 -0.0257
10760SOL     OW34018   5.704   2.797   3.511  0.1754 -0.2359  0.1848
10760SOL    HW134019   5.726   2.743   3.586  0.4774 -0.3598  0.0081
10760SOL    HW234020   5.732   2.745   3.435  0.0242 -0.0415 -0.0059
10761SOL     OW34021   4.975   0.596   4.943  0.6406  0.2544  0.4318
10761SOL    HW134022   5.017   0.569   4.861  0.1764  0.1752  0.2190
10761SOL    HW234023   4.970   0.516   4.995 -1.4266 -0.2718 -0.5004
10762SOL     OW34024   6.781   7.025   6.242 -0.3206 -0.0849 -0.5988
10762SOL    HW134025   6.729   7.078   6.181 -1.2872 -0.7798 -0.4071
10762SOL    HW234026   6.773   6.936   6.209  2.3406 -0.0013 -1.6539
10763SOL     OW34027   3.766   3.642   7.504  0.3826 -0.7279 -0.1746
10763SOL    HW134028   3.688   3.637   7.559  1.0556 -1.8014  0.7247
10763SOL    HW234029   3.734   3.676   7.420 -0.4399  2.4762  1.2708
10764SOL     OW34030   1.408   2.909   9.111 -0.1183  0.2297 -0.6716
10764SOL    HW134031   1.487   2.952   9.145  1.0422 -0.6871 -2.0919
10764SOL    HW234032   1.387   2.842   9.176  0.4170  0.3091 -0.4091
10765SOL     OW34033   1.273   4.907   6.133  0.3727 -0.0916 -0.0687
10765SOL    HW134034   1.345   4.962   6.162  0.0825  0.5152 -0.4520
10765SOL    HW234035   1.215   4.967   6.085 -1.9033  0.1195  2.6784
10766SOL     OW34036   5.166   2.240   5.524 -0.1593 -0.1762  0.2778
10766SOL    HW134037   5.243   2.197   5.560 -0.4045 -2.3715 -1.6075
10766SOL    HW234038   5.092   2.189   5.557 -0.5605 -0.3480 -0.8496
10767SOL     OW34039   5.693   3.640   0.750 -0.2428  0.0682  0.3824
10767SOL    HW134040   5.647   3.724   0.750 -1.1720 -0.4226  0.1776
10767SOL    HW234041   5.645   3.586   0.812 -0.7598 -0.8742 -0.7966
10768SOL     OW34042   1.631   1.723   7.844  0.5099  0.2936  0.1972
10768SOL    HW134043   1.700   1.665   7.877 -1.1486 -1.0934  1.3814
10768SOL    HW234044   1.565   1.723   7.913 -1.4592  0.1951 -1.6103
10769SOL     OW34045   1.791   7.300   5.796  0.4765 -0.3821 -0.0672
10769SOL    HW134046   1.864   7.241   5.778 -0.0629 -1.6635  1.7326
10769SOL    HW234047   1.724   7.244   5.836 -0.4728  1.2468  0.7134
10770SOL     OW34048   3.678   5.705   0.299  0.1152  0.2254 -0.1172
10770SOL    HW134049   3.719   5.634   0.250  0.1017  0.3590 -0.3250
10770SOL    HW234050   3.749   5.741   0.353 -0.1727 -0.7615  0.9436
10771SOL     OW34051   8.488   5.528   0.755 -0.2190 -0.1080 -1.1047
10771SOL    HW134052   8.574   5.514   0.796 -0.8139 -2.6077 -0.5642
10771SOL    HW234053   8.429   5.546   0.828 -0.4377  0.1093 -1.3314
10772SOL     OW34054   8.740   8.631   8.556 -0.4153  0.8165 -0.5380
10772SOL    HW134055   8.774   8.693   8.492  1.5901 -0.7455 -1.0923
10772SOL    HW234056   8.803   8.634   8.629 -0.3508 -0.4107 -0.5128
10773SOL     OW34057   0.001   7.888   8.310 -0.1323 -0.0615  0.3053
10773SOL    HW134058   0.076   7.902   8.368  0.0626  0.5356 -0.0828
10773SOL    HW234059  -0.020   7.975   8.276  0.8738 -0.5969 -1.8719
10774SOL     OW34060   1.615   4.830   5.659 -0.1509  0.3485  0.1130
10774SOL    HW134061   1.571   4.748   5.637 -0.3219  0.6019 -0.5491
10774SOL    HW234062   1.569   4.895   5.605 -1.0986  1.1555  1.8208
10775SOL     OW34063   1.096   9.344   2.895 -0.4423  0.0417 -0.0915
10775SOL    HW134064   1.070   9.317   2.807 -0.7555 -2.1179  0.6226
10775SOL    HW234065   1.190   9.327   2.899 -0.5955 -0.7410  0.2822
10776SOL     OW34066   6.874   6.179   5.198 -0.1956 -0.0292 -0.0433
10776SOL    HW134067   6.925   6.127   5.261  0.4126 -0.0224 -0.5201
10776SOL    HW234068   6.896   6.270   5.219 -0.1155 -0.0216 -0.1560
10777SOL     OW34069   6.562   4.799   9.400 -0.1959  0.1603  0.4457
10777SOL    HW134070   6.550   4.877   9.346  0.4999  0.0990  0.2021
10777SOL    HW234071   6.607   4.736   9.343  0.4288  0.0509  1.0472
10778SOL     OW34072   0.878   4.737   3.334 -0.1728  0.5357  0.6255
10778SOL    HW134073   0.881   4.642   3.343 -2.5985  0.2239 -0.8240
10778SOL    HW234074   0.928   4.754   3.254 -0.2315  0.3979  0.5580
10779SOL     OW34075   4.255   6.894   6.878  0.5919  0.4859  0.1045
10779SOL    HW134076   4.279   6.848   6.797  0.9732  0.4069  0.2578
10779SOL    HW234077   4.266   6.986   6.856  1.7158  0.4332  0.3653
10780SOL     OW34078   6.691   8.461   3.984  0.6082  0.2869 -0.4293
10780SOL    HW134079   6.725   8.371   3.986  1.2591  0.5142 -0.9626
10780SOL    HW234080   6.706   8.490   3.894 -1.3376  0.2823 -0.8025
10781SOL     OW34081   2.114   2.156   2.505 -0.0795  0.3788  0.2553
10781SOL    HW134082   2.201   2.171   2.467 -0.1389  0.7050  0.2426
10781SOL    HW234083   2.071   2.097   2.444  0.5214 -0.6745  0.8119
10782SOL     OW34084   2.584   8.647   0.640  0.4733 -0.1308  0.7296
10782SOL    HW134085   2.574   8.708   0.567 -1.3813 -0.6659  0.4801
10782SOL    HW234086   2.519   8.676   0.704  1.0281 -0.5843  1.5020
10783SOL     OW34087   7.550   1.122   9.119 -0.3266 -0.7481  0.1638
10783SOL    HW134088   7.477   1.177   9.148  1.0730  2.7077 -2.1959
10783SOL    HW234089   7.623   1.150   9.173  0.4835  0.0980 -1.2985
10784SOL     OW34090   4.250   9.102   7.922 -0.3455  0.2897  0.8417
10784SOL    HW134091   4.314   9.038   7.891 -0.6019  0.0555  0.7883
10784SOL    HW234092   4.251   9.092   8.017 -0.3655  0.2213  0.8352
10785SOL     OW34093   9.244   5.336   4.375  0.4676 -0.2751 -0.5423
10785SOL    HW134094   9.329   5.361   4.338  1.1817 -1.6327  0.0875
10785SOL    HW234095   9.185   5.407   4.350  1.9084  0.9931 -0.5232
10786SOL     OW34096   0.481   2.331   1.850 -0.3739 -0.3701  0.6289
10786SOL    HW134097   0.430   2.310   1.772  0.4267 -0.4585  0.1178
10786SOL    HW234098   0.572   2.327   1.821 -0.1016  0.8094  1.2650
10787SOL     OW34099   2.184   6.259   8.395 -0.1899  0.1010  0.0836
10787SOL    HW134100   2.268   6.301   8.378  0.2093 -0.2800  1.0541
10787SOL    HW234101   2.119   6.325   8.373  0.3975  0.7449  0.2592
10788SOL     OW34102   1.343   5.405   7.763 -0.3672  0.5481  0.0785
10788SOL    HW134103   1.254   5.420   7.794 -1.0697 -2.3277 -0.2499
10788SOL    HW234104   1.364   5.317   7.793  2.1037  0.8851 -0.4816
10789SOL     OW34105   6.894   6.857   7.375 -0.5075  0.0824  0.3276
10789SOL    HW134106   6.863   6.837   7.464  1.0774 -1.2060  0.6273
10789SOL    HW234107   6.894   6.773   7.330  0.7372  0.3623 -0.2170
10790SOL     OW34108   7.405   5.324   3.142  0.4964  0.1074  0.2311
10790SOL    HW134109   7.431   5.387   3.209 -0.0645 -1.0262  1.5710
10790SOL    HW234110   7.486   5.301   3.096  1.1114 -0.0588  1.3842
10791SOL     OW34111   6.238   8.980   7.273  0.5895  0.7345  0.5210
10791SOL    HW134112   6.273   8.974   7.185  1.5757  1.5102  0.8387
10791SOL    HW234113   6.146   9.003   7.261  0.4283 -0.2981 -0.3103
10792SOL     OW34114   4.243   0.461   8.463  0.1842  0.0111 -0.1095
10792SOL    HW134115   4.241   0.471   8.368 -0.1781 -1.1463 -0.2391
10792SOL    HW234116   4.278   0.373   8.478 -0.2802 -0.0396  0.8090
10793SOL     OW34117   6.341   4.500   3.244  0.4078  0.4985  0.4707
10793SOL    HW134118   6.375   4.411   3.244 -0.0724  0.2960  1.4824
10793SOL    HW234119   6.282   4.503   3.168  2.5751  0.8563 -1.3018
10794SOL     OW34120   4.517   6.418   3.273 -0.0305  0.1286 -0.7965
10794SOL    HW134121   4.535   6.496   3.221  2.4600  0.0055 -0.2310
10794SOL    HW234122   4.538   6.444   3.363 -0.7725 -0.7204 -0.3646
10795SOL     OW34123   9.026   7.991   8.134 -0.0100 -0.2642  0.6614
10795SOL    HW134124   8.982   8.006   8.217  1.3022  0.2756  1.2783
10795SOL    HW234125   9.082   7.915   8.149 -1.4169 -1.5895 -0.4165
10796SOL     OW34126   2.405   2.776   9.318 -0.7714 -0.6205  0.2451
10796SOL    HW134127   2.359   2.729   9.249 -0.5850 -1.7941  0.8952
10796SOL    HW234128   2.462   2.710   9.358  1.2918  0.6959 -0.3485
10797SOL     OW34129   8.160   3.904   6.460  0.0691  0.2029  0.0072
10797SOL    HW134130   8.096   3.854   6.409  1.2275 -0.5263 -0.7624
10797SOL    HW234131   8.245   3.874   6.428  0.8181  0.5995  1.5488
10798SOL     OW34132   5.528   4.870   2.851 -0.4081  0.4271 -0.1750
10798SOL    HW134133   5.614   4.846   2.817  1.4322  2.2357  2.7871
10798SOL    HW234134   5.510   4.956   2.812 -0.9051  0.0790 -0.7428
10799SOL     OW34135   3.925   5.945   8.352 -0.2845  0.3706  0.1198
10799SOL    HW134136   3.907   5.851   8.365 -2.2091  0.8149  1.0383
10799SOL    HW234137   3.902   5.985   8.435  0.1613  1.7332 -0.3888
10800SOL     OW34138   1.011   5.118   4.193  0.5096 -0.1905  0.5586
10800SOL    HW134139   1.010   5.210   4.221 -1.1128  0.5932 -1.7882
10800SOL    HW234140   0.919   5.095   4.182  0.9347 -1.7661 -0.0191
10801SOL     OW34141   3.080   7.437   8.206 -0.1901 -0.5114  0.5182
10801SOL    HW134142   3.153   7.376   8.213  0.2277 -0.1370 -0.4021
10801SOL    HW234143   3.003   7.381   8.190  0.0972 -0.8345  0.2612
10802SOL     OW34144   2.096   5.250   7.616 -0.1968  0.2577 -0.1670
10802SOL    HW134145   2.066   5.307   7.686 -0.5718 -1.0073  0.7191
10802SOL    HW234146   2.020   5.198   7.592  0.6626 -1.4001  0.5517
10803SOL     OW34147   3.531   4.319   6.337  0.0843 -0.2057  0.3113
10803SOL    HW134148   3.518   4.384   6.269 -0.4536  0.2334  0.8264
10803SOL    HW234149   3.624   4.326   6.360  0.1943 -0.1413 -0.1557
10804SOL     OW34150   4.801   5.835   2.511 -0.6852  0.0581  0.0583
10804SOL    HW134151   4.725   5.890   2.531  0.3798  1.5356  0.1898
10804SOL    HW234152   4.812   5.780   2.588  0.5895  2.4722  1.7451
10805SOL     OW34153   2.295   0.752   7.172 -0.7691 -0.4055 -0.0942
10805SOL    HW134154   2.369   0.717   7.123 -1.9621 -1.2310 -1.3880
10805SOL    HW234155   2.252   0.811   7.110 -1.6444 -0.5563  0.3563
10806SOL     OW34156   4.027   2.873   7.660 -0.0195 -0.0587 -0.6834
10806SOL    HW134157   4.122   2.868   7.655  0.0149 -0.3481  0.1191
10806SOL    HW234158   4.008   2.963   7.683  0.1607 -0.4097  0.9344
10807SOL     OW34159   1.512   4.461   3.309  0.1065  0.0129  0.1360
10807SOL    HW134160   1.433   4.481   3.361 -0.1308 -0.4524 -0.0385
10807SOL    HW234161   1.478   4.440   3.222  0.5994  2.2817 -0.6784
10808SOL     OW34162   7.083   2.360   5.122 -0.0773  0.2975  0.1993
10808SOL    HW134163   7.058   2.415   5.196 -1.4405 -0.1168  0.0774
10808SOL    HW234164   7.076   2.271   5.156 -0.3691  0.1198 -0.3262
10809SOL     OW34165   4.072   1.233   5.325  0.1974  0.7008 -0.6858
10809SOL    HW134166   4.068   1.213   5.231 -0.0110  1.0553 -0.7585
10809SOL    HW234167   4.148   1.290   5.334  0.0606  0.8859 -0.6861
10810SOL     OW34168   3.159   3.705   6.024 -0.4681  0.4164  0.1143
10810SOL    HW134169   3.199   3.750   5.950  0.6775 -1.2414 -0.3420
10810SOL    HW234170   3.231   3.691   6.086 -0.9007 -0.3273  0.4612
10811SOL     OW34171   6.095   7.547   3.196  0.7426  0.1106  0.3286
10811SOL    HW134172   6.010   7.552   3.151 -0.2127 -0.9442  1.9229
10811SOL    HW234173   6.154   7.596   3.140 -0.7842  0.3575 -1.1561
10812SOL     OW34174   4.198   9.145   4.080 -0.1403 -0.4437  0.0480
10812SOL    HW134175   4.121   9.193   4.048 -0.0562 -0.6143 -0.4202
10812SOL    HW234176   4.218   9.185   4.165 -2.0864 -1.8502  1.2470
10813SOL     OW34177   5.036   6.270   6.315  0.3189  0.1181 -0.1539
10813SOL    HW134178   4.993   6.347   6.352  1.4258  0.9204 -0.4803
10813SOL    HW234179   5.127   6.278   6.342  0.8667 -0.0048 -1.8599
10814SOL     OW34180   6.456   5.180   1.765 -0.8808  0.2632 -0.2691
10814SOL    HW134181   6.549   5.197   1.777 -0.9312  0.6492 -0.3865
10814SOL    HW234182   6.451   5.123   1.688 -0.7506  0.4075 -0.3856
10815SOL     OW34183   0.431   7.102   6.791  0.1984 -0.3517  0.3136
10815SOL    HW134184   0.377   7.176   6.817  2.1750  0.9421  0.9720
10815SOL    HW234185   0.402   7.030   6.847 -1.5187 -0.0242 -0.1009
10816SOL     OW34186   0.457   0.747   5.186 -0.4182 -0.3713  0.0272
10816SOL    HW134187   0.414   0.696   5.117 -1.4572 -0.5389  0.7602
10816SOL    HW234188   0.548   0.753   5.159 -0.5083 -1.6571 -0.6406
10817SOL     OW34189   2.018   9.521   0.957 -0.3105 -0.0391 -0.7044
10817SOL    HW134190   1.942   9.463   0.955  1.0742 -1.9340 -0.6243
10817SOL    HW234191   1.990   9.598   0.907 -1.7612 -1.3510 -2.0163
10818SOL     OW34192   8.721   2.845   9.306 -0.1019  0.1986 -0.3427
10818SOL    HW134193   8.682   2.843   9.219 -1.6159  1.1001  0.2892
10818SOL    HW234194   8.755   2.933   9.316 -0.1585  0.1771  0.0694
10819SOL     OW34195   7.852   0.457   4.256 -0.3182  0.4531 -0.0180
10819SOL    HW134196   7.794   0.457   4.180  2.2862  1.7523 -2.1694
10819SOL    HW234197   7.934   0.420   4.224  0.8934  1.0418  2.1628
10820SOL     OW34198   7.300   1.051   6.446 -0.3656  0.0106  0.1484
10820SOL    HW134199   7.240   1.115   6.485 -1.3335 -0.1102 -1.0777
10820SOL    HW234200   7.243   0.984   6.409  0.6004 -0.8988  0.2701
10821SOL     OW34201   1.932   9.271   2.682  0.4909  0.2630 -0.1644
10821SOL    HW134202   1.869   9.283   2.753  0.9911 -0.6389  0.4643
10821SOL    HW234203   1.890   9.309   2.605 -0.0652  1.2628  0.6165
10822SOL     OW34204   4.544   6.515   6.581 -0.1575 -0.0489 -0.0631
10822SOL    HW134205   4.481   6.446   6.564 -5.6160  3.6943  2.2140
10822SOL    HW234206   4.543   6.568   6.501 -1.2068  0.7984  0.4843
10823SOL     OW34207   3.797   2.322   7.241 -0.7132 -0.5104  0.2508
10823SOL    HW134208   3.743   2.400   7.230  0.9338  0.6485 -0.0582
10823SOL    HW234209   3.796   2.305   7.335 -0.0146  0.7351  0.5070
10824SOL     OW34210   7.113   6.156   2.642 -0.0646 -0.3862 -0.4199
10824SOL    HW134211   7.181   6.218   2.617  0.6226 -0.7423  0.5150
10824SOL    HW234212   7.060   6.203   2.705  1.2912 -1.1555  1.3814
10825SOL     OW34213   9.479   1.473   6.841 -0.7117 -0.6870  0.0267
10825SOL    HW134214   9.491   1.461   6.747 -1.1543 -0.4721 -0.0591
10825SOL    HW234215   9.556   1.432   6.881  0.2550  0.5720 -0.4919
10826SOL     OW34216   9.563   5.942   5.492  0.4833  0.4965 -0.2663
10826SOL    HW134217   9.575   5.942   5.587  1.6379  0.2170 -0.3989
10826SOL    HW234218   9.645   5.977   5.458  1.0545 -1.6843 -1.2713
10827SOL     OW34219   7.285   5.764   0.116 -0.7640 -0.0100  0.6751
10827SOL    HW134220   7.316   5.720   0.195  0.1645 -4.3756 -1.8104
10827SOL    HW234221   7.197   5.730   0.101  0.2398 -1.8905 -1.6959
10828SOL     OW34222   7.374   3.096   7.963 -0.6972 -0.1044  0.1038
10828SOL    HW134223   7.290   3.130   7.995 -1.4786 -1.8633  0.0205
10828SOL    HW234224   7.361   3.083   7.869  0.3246  1.3836 -0.2783
10829SOL     OW34225   0.603   7.000   9.184 -0.5191 -0.3159 -0.2743
10829SOL    HW134226   0.652   7.022   9.264 -0.4119  0.6851 -0.6038
10829SOL    HW234227   0.646   6.922   9.150  0.4122  0.1463 -0.1812
10830SOL     OW34228   5.113   4.614   9.545 -0.4731 -0.2236  0.4360
10830SOL    HW134229   5.079   4.630   9.457 -0.3361 -0.9642  0.2402
10830SOL    HW234230   5.144   4.523   9.542  1.0843  0.2585  0.7320
10831SOL     OW34231   4.470   2.766   6.867 -0.3616 -0.1096  0.0743
10831SOL    HW134232   4.553   2.736   6.830 -0.5299 -1.5280  0.7721
10831SOL    HW234233   4.403   2.719   6.817 -0.7668  1.1684 -0.6097
10832SOL     OW34234   4.280   7.473   2.959 -0.0901  0.2855  0.8910
10832SOL    HW134235   4.347   7.529   2.998  2.4789 -1.0579 -1.2682
10832SOL    HW234236   4.319   7.386   2.956 -1.7262 -0.4769 -0.9522
10833SOL     OW34237   5.847   1.700   6.235 -0.2211  0.3191  0.0583
10833SOL    HW134238   5.815   1.636   6.171 -1.1728 -0.3746  1.1817
10833SOL    HW234239   5.838   1.656   6.319  1.3761  1.0672  0.6621
10834SOL     OW34240   8.920   4.351   2.424 -0.3115  0.1799 -0.0819
10834SOL    HW134241   8.961   4.277   2.469 -0.9137  0.7374  1.4774
10834SOL    HW234242   8.840   4.367   2.473 -0.5818  1.3781 -0.8626
10835SOL     OW34243   8.743   3.624   7.138 -0.5524  0.1238 -0.4041
10835SOL    HW134244   8.688   3.559   7.094  0.4459 -0.7317 -0.4251
10835SOL    HW234245   8.813   3.642   7.075 -1.2479  1.8374 -0.7203
10836SOL     OW34246   1.371   3.122   3.465  0.0755 -0.1416 -0.4772
10836SOL    HW134247   1.368   3.075   3.381  0.5870 -0.8083 -0.1306
10836SOL    HW234248   1.281   3.149   3.481  0.1806  1.2452 -1.9415
10837SOL     OW34249   3.770   5.442   6.538  0.6549 -0.5731 -0.3482
10837SOL    HW134250   3.769   5.364   6.483 -0.4281 -1.4358  0.8327
10837SOL    HW234251   3.738   5.412   6.624  2.0833  0.7651  0.7051
10838SOL     OW34252   4.537   3.121   7.326 -0.8398  0.3627 -0.3229
10838SOL    HW134253   4.468   3.176   7.289  0.0087 -0.3584 -3.2708
10838SOL    HW234254   4.619   3.162   7.297 -0.1054 -0.2872  0.7828
10839SOL     OW34255   5.514   8.642   3.988  0.2852 -0.2874  0.1236
10839SOL    HW134256   5.524   8.723   3.938  1.4894 -0.6024 -0.1895
10839SOL    HW234257   5.604   8.612   4.002 -0.1245 -1.2510  0.7632
10840SOL     OW34258   8.026   1.718   1.185  0.2117  0.0648 -0.3812
10840SOL    HW134259   7.953   1.759   1.140 -0.7247  1.5223  2.2018
10840SOL    HW234260   8.096   1.783   1.180 -0.2164  0.6811  0.9527
10841SOL     OW34261   2.103   1.814   9.488 -0.1598 -0.2785 -0.2522
10841SOL    HW134262   2.150   1.783   9.411  0.0261 -0.8152  0.0730
10841SOL    HW234263   2.167   1.808   9.559 -0.0702  1.0036 -0.2090
10842SOL     OW34264   6.181   3.226   8.887 -0.0647 -0.3689 -0.1749
10842SOL    HW134265   6.226   3.167   8.948  0.6217 -1.0710 -1.3267
10842SOL    HW234266   6.094   3.189   8.877  0.0519 -0.6516 -0.1541
10843SOL     OW34267   3.264   8.898   2.915 -0.0383 -0.1476 -0.4803
10843SOL    HW134268   3.287   8.954   2.989 -0.1995 -1.1512  0.3361
10843SOL    HW234269   3.336   8.910   2.853  0.1148  0.6713 -0.1590
10844SOL     OW34270   5.063   0.844   4.962 -0.1265  0.3601  0.2708
10844SOL    HW134271   5.134   0.810   4.908 -0.3715  0.4656 -0.1222
10844SOL    HW234272   5.033   0.769   5.013 -1.2424 -0.2562 -1.2202
10845SOL     OW34273   6.004   1.148   5.136  0.4039 -0.1383  0.2299
10845SOL    HW134274   5.968   1.092   5.067 -0.7434 -0.3622  0.9926
10845SOL    HW234275   5.989   1.100   5.217  0.0928  0.9179  0.8256
10846SOL     OW34276   2.292   2.130   4.269 -0.0505  0.4492 -0.2263
10846SOL    HW134277   2.362   2.190   4.245  2.4949 -2.6186 -1.1559
10846SOL    HW234278   2.289   2.066   4.198 -2.9193 -0.3770  0.4777
10847SOL     OW34279   7.700   7.718   3.385 -0.3277  0.1967  0.2548
10847SOL    HW134280   7.715   7.683   3.474 -0.5078 -1.2951 -0.2719
10847SOL    HW234281   7.774   7.685   3.334  0.5116  2.1785  0.1165
10848SOL     OW34282   3.362   0.466   3.002  0.2351 -0.4208  0.6332
10848SOL    HW134283   3.314   0.484   3.083  0.3836 -2.7014  1.2927
10848SOL    HW234284   3.337   0.377   2.978  0.1913  0.2034 -1.8795
10849SOL     OW34285   7.679   2.329   8.278 -0.2673 -0.6670  0.2739
10849SOL    HW134286   7.773   2.335   8.260 -0.3199  0.6887  0.3343
10849SOL    HW234287   7.672   2.270   8.353  0.7463  0.8754  1.6558
10850SOL     OW34288   7.121   4.487   6.669 -0.2928 -0.2333  0.3366
10850SOL    HW134289   7.185   4.437   6.720 -0.6281 -0.9834  0.0184
10850SOL    HW234290   7.175   4.548   6.618  0.3495 -2.1794 -1.4253
10851SOL     OW34291   1.240   0.592   3.951  0.1541 -0.1439 -0.0857
10851SOL    HW134292   1.160   0.602   4.002  0.2735 -1.3125  0.3644
10851SOL    HW234293   1.245   0.671   3.898 -0.9574  0.2368  0.3528
10852SOL     OW34294   4.422   0.570   3.517 -0.2121  1.0487 -0.0709
10852SOL    HW134295   4.463   0.656   3.526  0.0448  1.0695 -1.2897
10852SOL    HW234296   4.357   0.581   3.447 -2.1030  0.9205  1.5676
10853SOL     OW34297   6.523   2.627   4.870 -0.1201  0.0218  0.2216
10853SOL    HW134298   6.603   2.664   4.833 -0.4145 -0.8455 -1.3633
10853SOL    HW234299   6.452   2.672   4.824 -0.4992 -1.0138 -0.2291
10854SOL     OW34300   5.080   0.231   2.931  0.5185 -0.3123 -0.0731
10854SOL    HW134301   5.077   0.248   2.837  3.0270 -0.4085 -0.2425
10854SOL    HW234302   5.092   0.317   2.971  0.1651 -0.3484  0.1169
10855SOL     OW34303   4.970   8.005   5.940  0.0956  0.7233  0.1960
10855SOL    HW134304   4.964   7.934   5.877 -2.2636  0.3255  0.7466
10855SOL    HW234305   5.056   7.994   5.981  0.0077 -1.5165 -0.0850
10856SOL     OW34306   7.504   4.800   7.312 -0.3579  0.4426 -0.7365
10856SOL    HW134307   7.504   4.723   7.256  0.4144  1.5155 -2.2903
10856SOL    HW234308   7.442   4.860   7.269  0.1537  1.2345 -0.3973
10857SOL     OW34309   4.790   7.003   5.701  0.7096  0.1316 -0.1717
10857SOL    HW134310   4.698   6.991   5.681  0.6137  1.6391 -0.7977
10857SOL    HW234311   4.833   7.006   5.615  0.7794  3.1818 -0.1450
10858SOL     OW34312   8.651   0.751   3.904  0.3840 -1.0297 -0.5543
10858SOL    HW134313   8.557   0.741   3.916  0.1893  1.8354  1.1361
10858SOL    HW234314   8.690   0.712   3.982  0.6250 -1.9591 -1.1196
10859SOL     OW34315   7.726   9.107   2.754  0.4433 -0.1650 -0.6601
10859SOL    HW134316   7.803   9.053   2.773  0.4477 -0.5139 -1.6407
10859SOL    HW234317   7.715   9.101   2.660  0.2296  1.2743 -0.7464
10860SOL     OW34318   6.584   1.747   5.025  0.0458 -0.1169  0.1232
10860SOL    HW134319   6.636   1.820   5.060 -0.8908 -0.0221  1.3525
10860SOL    HW234320   6.514   1.733   5.089 -0.1627 -1.7009 -0.3937
10861SOL     OW34321   3.174   4.276   8.932 -0.2529 -0.0849 -0.0900
10861SOL    HW134322   3.109   4.207   8.941  0.3502 -0.3915  3.2707
10861SOL    HW234323   3.129   4.356   8.959  0.0427  0.2118 -0.4528
10862SOL     OW34324   4.338   9.400   2.193 -0.3047 -0.5970  0.1311
10862SOL    HW134325   4.423   9.441   2.177 -0.2670 -1.3560 -1.9300
10862SOL    HW234326   4.360   9.312   2.224 -0.3080 -0.9447 -0.8230
10863SOL     OW34327   0.550   1.155   4.340 -0.0787  0.3051 -0.3352
10863SOL    HW134328   0.597   1.198   4.411 -0.9932 -1.3852  1.3872
10863SOL    HW234329   0.619   1.119   4.285  0.6650  0.1968  0.6427
10864SOL     OW34330   8.224   0.579   6.418 -0.2827  0.0518 -0.1859
10864SOL    HW134331   8.271   0.643   6.472 -0.8529 -1.1971  1.8806
10864SOL    HW234332   8.207   0.625   6.336  2.2219  1.4261 -0.0393
10865SOL     OW34333   1.853   8.425   6.119 -0.3057 -0.0832 -0.6133
10865SOL    HW134334   1.903   8.376   6.053 -0.6834  0.4964 -1.3465
10865SOL    HW234335   1.844   8.364   6.192 -1.2320 -1.3123 -1.7051
10866SOL     OW34336   2.302   0.344   2.431  0.1048  0.3406 -0.6494
10866SOL    HW134337   2.337   0.409   2.370  1.0489  0.5143  0.0568
10866SOL    HW234338   2.367   0.274   2.430 -0.8152 -0.5250 -1.2700
10867SOL     OW34339   5.164   2.562   5.214  0.0400 -0.0142  0.7899
10867SOL    HW134340   5.144   2.644   5.260 -0.9497  2.1319 -3.0486
10867SOL    HW234341   5.079   2.531   5.182  0.8604  0.1384 -1.7845
10868SOL     OW34342   0.090   2.209   9.381  0.1758  0.0413 -0.5029
10868SOL    HW134343   0.083   2.225   9.475 -0.6549  3.0320 -0.9726
10868SOL    HW234344   0.010   2.161   9.358  0.1153 -0.2090  0.2132
10869SOL     OW34345   6.810   5.232   0.130  0.0852  0.0884  0.2154
10869SOL    HW134346   6.865   5.155   0.119  0.8206  0.4406  1.2949
10869SOL    HW234347   6.793   5.262   0.041 -2.6589 -2.9536 -0.5093
10870SOL     OW34348   6.781   6.784   7.606 -0.4102 -0.2888  0.2646
10870SOL    HW134349   6.691   6.774   7.575 -0.3881  0.8992 -0.2631
10870SOL    HW234350   6.789   6.721   7.677 -1.9074  0.1206  0.8444
10871SOL     OW34351   9.319   6.087   0.613 -0.3156 -0.3113 -0.5978
10871SOL    HW134352   9.287   6.025   0.548 -0.0488 -0.3122 -0.7325
10871SOL    HW234353   9.410   6.060   0.629 -0.4077 -0.3625 -0.1642
10872SOL     OW34354   3.965   8.609   7.399  0.8561  0.0466 -0.1106
10872SOL    HW134355   4.057   8.586   7.392  0.9704  0.5374 -0.2652
10872SOL    HW234356   3.939   8.580   7.486  1.1830  0.0078 -0.0266
10873SOL     OW34357   8.494   0.469   1.707  0.6577  0.2454 -0.3456
10873SOL    HW134358   8.499   0.381   1.746 -0.3013 -0.3389 -1.4693
10873SOL    HW234359   8.480   0.453   1.614  0.7477  1.6054 -0.6139
10874SOL     OW34360   4.510   5.871   3.429  0.1269 -0.2565  1.1571
10874SOL    HW134361   4.512   5.965   3.408 -0.7877 -0.1705  1.4290
10874SOL    HW234362   4.585   5.858   3.487  0.2156  0.3188  1.1802
10875SOL     OW34363   3.818   2.292   0.423 -0.7190 -0.4603  0.1518
10875SOL    HW134364   3.764   2.214   0.434 -1.5792  0.2820  1.5226
10875SOL    HW234365   3.756   2.361   0.398 -0.2950  0.2257  0.9248
10876SOL     OW34366   7.503   9.214   3.541 -0.7588  0.1071  0.4622
10876SOL    HW134367   7.487   9.181   3.453 -1.1462 -0.0528  0.5872
10876SOL    HW234368   7.440   9.286   3.551  1.5182  2.3850 -0.5975
10877SOL     OW34369   3.010   7.823   0.043 -0.1266  0.0112 -0.1438
10877SOL    HW134370   3.004   7.797  -0.049 -1.4254  0.4255 -0.1976
10877SOL    HW234371   3.056   7.907   0.041  1.0745 -0.6308 -0.2723
10878SOL     OW34372   9.607   2.029   1.582  0.0626 -0.6747 -0.0838
10878SOL    HW134373   9.597   2.041   1.487  1.4122 -0.7601 -0.2527
10878SOL    HW234374   9.681   1.969   1.591 -0.7675 -1.5703  1.0065
10879SOL     OW34375   9.489   1.075   0.399 -0.4244  0.2039 -0.2139
10879SOL    HW134376   9.424   1.131   0.355  0.3722  0.2964 -1.3180
10879SOL    HW234377   9.560   1.135   0.422  0.4688 -0.3440 -1.4708
10880SOL     OW34378   9.160   1.675   6.194  0.1839  0.2658  0.1815
10880SOL    HW134379   9.216   1.601   6.217  1.5891  1.1563 -0.2186
10880SOL    HW234380   9.185   1.696   6.104  2.3876  3.3519  1.3314
10881SOL     OW34381   0.046   1.922   0.772 -0.0927 -0.1169  0.2894
10881SOL    HW134382  -0.029   1.977   0.749 -0.2457 -0.0912  0.8358
10881SOL    HW234383   0.008   1.850   0.823  0.2136 -0.2767  0.2948
10882SOL     OW34384   1.408   6.971   5.065 -0.3416 -0.0126 -0.0884
10882SOL    HW134385   1.394   6.877   5.081  0.4861 -0.1448 -0.1155
10882SOL    HW234386   1.475   6.974   4.997 -0.1230  0.6061  0.1500
10883SOL     OW34387   1.459   6.861   1.899 -0.3670 -0.0060 -0.3555
10883SOL    HW134388   1.445   6.919   1.825 -0.2894 -0.1251 -0.4657
10883SOL    HW234389   1.396   6.790   1.887  1.6412 -1.6464 -2.0073
10884SOL     OW34390   4.590   6.539   7.909  0.7666  0.3553  0.0410
10884SOL    HW134391   4.598   6.633   7.924  0.0135  0.7938 -1.9451
10884SOL    HW234392   4.678   6.504   7.919  0.8920  1.0974  1.7185
10885SOL     OW34393   6.034   1.722   0.156  0.2995 -0.2809  0.4844
10885SOL    HW134394   6.030   1.634   0.120  1.3972 -0.8385  1.6831
10885SOL    HW234395   6.055   1.711   0.248 -0.5202  1.2007  0.8888
10886SOL     OW34396   5.175   1.138   8.989 -0.0172 -0.8155 -0.2452
10886SOL    HW134397   5.221   1.056   9.008  0.1889 -0.8861 -1.0260
10886SOL    HW234398   5.146   1.129   8.899  0.7142  0.3064 -0.6137
10887SOL     OW34399   1.848   8.248   8.371 -0.0800 -0.1739  0.1355
10887SOL    HW134400   1.890   8.179   8.321  0.5440  0.5627 -0.3819
10887SOL    HW234401   1.776   8.277   8.316  0.8549  0.9189 -0.5638
10888SOL     OW34402   7.652   2.601   2.861 -0.0647  0.0285  0.2096
10888SOL    HW134403   7.607   2.685   2.847 -0.0272  0.0091 -0.0348
10888SOL    HW234404   7.615   2.567   2.942 -0.4086  0.0661  0.0664
10889SOL     OW34405   4.283   7.415   1.061  0.2196 -0.2771  0.2422
10889SOL    HW134406   4.293   7.427   1.156 -0.5770  3.2997  0.0078
10889SOL    HW234407   4.371   7.393   1.030  0.6855 -0.5757  1.6836
10890SOL     OW34408   0.354   0.618   4.957 -0.0975 -0.8251  0.2406
10890SOL    HW134409   0.381   0.664   4.877  2.9794 -3.0570 -0.1519
10890SOL    HW234410   0.268   0.581   4.936  0.1669 -0.4546 -1.6183
10891SOL     OW34411   5.950   9.411   1.322  0.1206 -0.4700  0.1573
10891SOL    HW134412   6.026   9.469   1.311 -0.0187 -0.3617 -0.2534
10891SOL    HW234413   5.987   9.323   1.323  0.3467 -0.3755  0.9016
10892SOL     OW34414   4.066   6.533   6.214  0.3665 -0.5601  0.0304
10892SOL    HW134415   4.118   6.587   6.156  0.7023  0.3462  1.1331
10892SOL    HW234416   4.029   6.465   6.158 -0.1742  0.8775 -1.4165
10893SOL     OW34417   6.927   9.581   9.464 -0.4324 -0.0731  0.2077
10893SOL    HW134418   6.914   9.676   9.459 -0.3841 -0.0849 -0.2049
10893SOL    HW234419   6.863   9.551   9.528 -0.8911  0.1550 -0.1434
10894SOL     OW34420   1.036   7.767   9.128 -0.1002 -0.8519 -0.1254
10894SOL    HW134421   1.035   7.861   9.145 -1.8311 -1.0191  0.9860
10894SOL    HW234422   1.078   7.758   9.043  3.1587  0.6139  1.1462
10895SOL     OW34423   1.200   2.991   7.853  0.2229 -0.3897 -0.5032
10895SOL    HW134424   1.234   3.074   7.821 -0.5724  0.0554 -0.2249
10895SOL    HW234425   1.158   2.951   7.777 -0.3030 -0.0515 -0.3943
10896SOL     OW34426   6.453   0.972   1.666 -0.5627  0.2037 -0.2680
10896SOL    HW134427   6.462   1.032   1.592 -0.4435  0.3033 -0.1706
10896SOL    HW234428   6.531   0.917   1.662 -0.2799  0.5782  0.1233
10897SOL     OW34429   3.329   8.158   0.716 -0.0576 -0.1189  0.1464
10897SOL    HW134430   3.347   8.233   0.772 -0.5525 -0.3391  0.6236
10897SOL    HW234431   3.386   8.168   0.641  0.6336  0.1825  0.7037
10898SOL     OW34432   2.454   5.644   4.765 -0.3957  0.6022  0.0078
10898SOL    HW134433   2.515   5.715   4.748  0.8689 -0.7388 -1.4142
10898SOL    HW234434   2.375   5.687   4.799 -0.1080  2.8077 -1.8805
10899SOL     OW34435   5.390   1.707   0.769 -0.8188  0.7391 -0.0035
10899SOL    HW134436   5.416   1.691   0.678 -3.7629  0.4374 -0.8969
10899SOL    HW234437   5.393   1.621   0.811  0.6204  0.8913  0.2746
10900SOL     OW34438   8.230   3.546   5.322 -0.0804 -0.5295  0.2128
10900SOL    HW134439   8.162   3.612   5.310  0.6220  0.2314  0.3299
10900SOL    HW234440   8.270   3.568   5.406  1.3931  0.0452 -0.6152
10901SOL     OW34441   6.268   2.958   3.185 -0.8886  0.5347  0.5771
10901SOL    HW134442   6.249   2.867   3.163 -1.5242  1.3086 -2.5118
10901SOL    HW234443   6.198   2.984   3.245 -0.5995 -1.0036  1.6460
10902SOL     OW34444   8.415   0.174   7.902 -0.1802  0.0208 -0.2316
10902SOL    HW134445   8.437   0.188   7.994 -0.9176  1.1480 -0.2007
10902SOL    HW234446   8.395   0.262   7.869 -0.4826 -0.4384 -1.3186
10903SOL     OW34447   4.456   2.634   8.100 -0.1317  0.0848 -0.3353
10903SOL    HW134448   4.505   2.613   8.180 -0.7598  0.4568  0.1589
10903SOL    HW234449   4.523   2.660   8.037  0.5142 -1.6120 -0.4089
10904SOL     OW34450   8.400   4.214   2.314 -0.3927  0.2417 -1.0327
10904SOL    HW134451   8.347   4.134   2.326 -0.5210  0.6158  1.5241
10904SOL    HW234452   8.344   4.272   2.263 -1.7785 -0.0377  0.0968
10905SOL     OW34453   0.748   2.477   4.955  0.7286  0.3749 -0.2898
10905SOL    HW134454   0.697   2.436   4.885  0.4656 -0.1958  0.2341
10905SOL    HW234455   0.811   2.533   4.909  1.5931 -1.1737 -1.0578
10906SOL     OW34456   8.921   1.723   4.120  0.0979  0.2791 -0.1591
10906SOL    HW134457   8.840   1.672   4.117 -0.5224  1.2069  0.5020
10906SOL    HW234458   8.961   1.710   4.034 -1.0673  0.3225 -0.7210
10907SOL     OW34459   5.323   0.372   9.183  0.5073 -0.8999 -0.4861
10907SOL    HW134460   5.379   0.307   9.225  0.3787 -0.2582  0.7284
10907SOL    HW234461   5.326   0.350   9.090  0.9034 -2.2981 -0.1660
10908SOL     OW34462   7.184   5.816   5.232  0.0526  0.6522 -0.6275
10908SOL    HW134463   7.271   5.857   5.232  0.8058 -0.8734 -1.6485
10908SOL    HW234464   7.166   5.797   5.140  0.0631 -1.9156 -0.1650
10909SOL     OW34465   8.936   8.349   1.374 -0.8604 -0.3252  0.2466
10909SOL    HW134466   9.027   8.318   1.372 -0.3360  1.0627 -2.3831
10909SOL    HW234467   8.885   8.274   1.345 -0.3572 -0.6109  0.0865
10910SOL     OW34468   4.899   5.984   5.646 -0.1737 -0.4267  0.6948
10910SOL    HW134469   4.850   5.903   5.661  0.1638 -1.3401 -2.3900
10910SOL    HW234470   4.853   6.027   5.574  0.7723  1.1969  1.0041
10911SOL     OW34471   6.896   9.503   0.275  0.3129 -0.3422  0.2515
10911SOL    HW134472   6.827   9.483   0.211 -0.3115  1.0005  0.4525
10911SOL    HW234473   6.873   9.451   0.352 -0.3029 -0.1704  0.1954
10912SOL     OW34474   2.434   4.123   6.078 -0.2533 -0.2547  0.0351
10912SOL    HW134475   2.401   4.034   6.092 -0.6681 -0.1231 -0.0959
10912SOL    HW234476   2.500   4.135   6.146  1.2387 -1.3756 -1.1516
10913SOL     OW34477   8.977   6.513   1.396  0.6183 -0.0996  0.4649
10913SOL    HW134478   9.062   6.473   1.412  0.2364 -0.9633  0.4144
10913SOL    HW234479   8.914   6.446   1.424 -0.0402  0.4123  0.2257
10914SOL     OW34480   2.320   4.370   0.550  0.0675  0.0609  0.2498
10914SOL    HW134481   2.357   4.318   0.479  0.9028  0.9024  0.0553
10914SOL    HW234482   2.392   4.380   0.613 -0.2238  0.5763  0.5095
10915SOL     OW34483   5.188   7.328   7.858  0.4133  0.5875 -0.4807
10915SOL    HW134484   5.214   7.237   7.842 -0.1307  0.3183  0.1423
10915SOL    HW234485   5.138   7.352   7.779 -0.7419 -0.1604 -0.0167
10916SOL     OW34486   2.140   3.750   2.004 -0.6064 -0.2521  0.0195
10916SOL    HW134487   2.151   3.673   2.059 -2.0550  0.8975  2.0435
10916SOL    HW234488   2.047   3.771   2.009 -0.2250  1.7277 -0.3109
10917SOL     OW34489   2.328   9.509   5.426  0.2274 -0.0249  0.4152
10917SOL    HW134490   2.400   9.551   5.379 -0.2596  1.0623  0.6237
10917SOL    HW234491   2.338   9.538   5.517 -1.2751  1.2960  0.1974
10918SOL     OW34492   4.916   2.397   8.172 -0.1815 -0.0568 -0.2010
10918SOL    HW134493   4.848   2.340   8.136 -1.1696  0.9127  0.0722
10918SOL    HW234494   4.911   2.385   8.266 -1.1783  1.2866 -0.0507
10919SOL     OW34495   3.535   8.847   6.103  0.3835 -0.1478  0.1608
10919SOL    HW134496   3.524   8.788   6.029  1.0943 -1.1456  0.8221
10919SOL    HW234497   3.601   8.804   6.158  0.5861  1.0454  0.8864
10920SOL     OW34498   5.209   8.401   5.178 -0.0002 -0.4278  0.3617
10920SOL    HW134499   5.168   8.406   5.264 -0.1490 -1.1479  0.3352
10920SOL    HW234500   5.291   8.449   5.188 -0.5347  0.4816  0.5899
10921SOL     OW34501   7.895   8.420   1.729 -0.0113  0.3158 -0.1105
10921SOL    HW134502   7.980   8.457   1.750  0.1111 -0.5984  1.0933
10921SOL    HW234503   7.914   8.334   1.693 -0.4105  0.2697 -0.2200
10922SOL     OW34504   5.227   3.837   7.576 -0.5085  0.2759  0.4881
10922SOL    HW134505   5.315   3.863   7.548  0.5771 -1.2326  2.2729
10922SOL    HW234506   5.173   3.847   7.498  1.7454 -1.0420 -1.3733
10923SOL     OW34507   6.490   2.358   5.479 -0.7640  0.6542  0.0103
10923SOL    HW134508   6.497   2.265   5.501 -0.7223  0.8428  0.8291
10923SOL    HW234509   6.575   2.380   5.442 -0.9184  0.2666 -0.5736
10924SOL     OW34510   8.647   8.100   0.119  0.2140  0.1198 -0.0041
10924SOL    HW134511   8.733   8.140   0.110  0.2049 -0.0021 -0.6430
10924SOL    HW234512   8.647   8.027   0.058 -0.0295 -0.4216  0.6265
10925SOL     OW34513   1.672   1.131   9.368  0.2018 -0.1680  0.2777
10925SOL    HW134514   1.721   1.185   9.429 -0.0833  0.2279  0.1586
10925SOL    HW234515   1.713   1.148   9.283 -1.0324  1.2817 -0.0728
10926SOL     OW34516   1.114   9.463   5.504 -0.5383 -0.0770 -0.0944
10926SOL    HW134517   1.114   9.464   5.408 -0.2363 -1.0633 -0.1163
10926SOL    HW234518   1.140   9.552   5.529  0.2851 -0.0645 -0.9409
10927SOL     OW34519   7.510   8.441   5.560 -0.0124  0.3353 -0.2633
10927SOL    HW134520   7.468   8.367   5.603 -2.0980  1.8427  0.4768
10927SOL    HW234521   7.512   8.417   5.467  1.8272 -1.7119  0.2310
10928SOL     OW34522   1.806   3.012   8.920 -0.2456 -0.6065  0.3072
10928SOL    HW134523   1.805   3.108   8.927  0.4917 -0.3063 -2.4946
10928SOL    HW234524   1.851   2.983   8.999  0.8913  1.4717  0.4934
10929SOL     OW34525   1.639   9.329   1.220  1.1419 -0.6162  0.4460
10929SOL    HW134526   1.618   9.421   1.235 -0.7453 -1.3005  2.5716
10929SOL    HW234527   1.595   9.306   1.138  2.5619  0.5890 -0.7087
10930SOL     OW34528   3.996   7.404   6.632  0.1966  0.3196 -0.0026
10930SOL    HW134529   3.925   7.406   6.696  0.4344 -1.8283  0.3920
10930SOL    HW234530   3.962   7.350   6.561  1.3604 -0.5942  0.1141
10931SOL     OW34531   6.215   2.851   8.675 -0.2917 -0.2687  0.0068
10931SOL    HW134532   6.280   2.835   8.606 -0.9467  0.5337 -0.8291
10931SOL    HW234533   6.219   2.774   8.731 -0.4098 -1.3979 -1.4741
10932SOL     OW34534   2.466   4.689   4.975 -0.2314  0.0853  0.3339
10932SOL    HW134535   2.549   4.654   4.945 -0.9247 -1.1917 -0.1799
10932SOL    HW234536   2.483   4.782   4.992  1.0402  0.0492 -0.6527
10933SOL     OW34537   5.935   8.001   0.869 -0.5885 -0.6193  0.1837
10933SOL    HW134538   6.005   7.948   0.831 -0.6491 -1.0662  0.6918
10933SOL    HW234539   5.981   8.070   0.917 -0.5037 -0.4873 -0.0882
10934SOL     OW34540   6.737   3.750   7.345  0.3165 -0.1705  0.2195
10934SOL    HW134541   6.777   3.674   7.386  1.5289 -0.2474 -1.0405
10934SOL    HW234542   6.664   3.773   7.402  2.2988  0.1453  2.7838
10935SOL     OW34543   2.624   0.638   0.331  0.2560 -0.3626 -0.0828
10935SOL    HW134544   2.625   0.695   0.408  1.2189 -1.3227  0.6526
10935SOL    HW234545   2.716   0.631   0.306  0.0589 -0.9244 -0.6633
10936SOL     OW34546   1.073   3.837   9.171  0.3011  0.1318 -0.3156
10936SOL    HW134547   1.061   3.774   9.242 -0.2095  0.7285  0.1487
10936SOL    HW234548   1.155   3.881   9.192 -0.0543  0.5914  0.1458
10937SOL     OW34549   5.741   4.720   8.816  0.2224 -0.1007 -0.3504
10937SOL    HW134550   5.822   4.700   8.770  0.7588  2.0564 -0.4265
10937SOL    HW234551   5.673   4.713   8.749  0.2940 -1.9432 -0.2789
10938SOL     OW34552   7.096   3.882   2.408  0.2018 -0.1620  0.5966
10938SOL    HW134553   7.031   3.928   2.355  1.0053  0.1033 -0.1822
10938SOL    HW234554   7.045   3.842   2.479 -0.9123 -0.6036 -0.4180
10939SOL     OW34555   4.564   5.414   2.127  0.0176 -0.6787 -0.4406
10939SOL    HW134556   4.511   5.341   2.094  1.4767 -1.7038 -0.5917
10939SOL    HW234557   4.499   5.477   2.159 -1.2699 -2.3412  0.3834
10940SOL     OW34558   1.561   7.919   4.215 -0.1985  0.0450  0.0482
10940SOL    HW134559   1.599   7.961   4.139 -1.0808 -0.5221 -0.7248
10940SOL    HW234560   1.636   7.894   4.269  0.3856  1.4468 -0.0805
10941SOL     OW34561   4.327   7.797   4.934  0.1411  0.3126  0.3393
10941SOL    HW134562   4.344   7.862   4.866  0.2297 -0.0456  0.0176
10941SOL    HW234563   4.400   7.736   4.928 -0.2167 -0.1141  0.2871
10942SOL     OW34564   8.825   2.944   3.441 -0.2051 -0.3190  0.1092
10942SOL    HW134565   8.832   2.958   3.347 -1.1465 -0.8173 -0.0437
10942SOL    HW234566   8.906   2.981   3.477  0.9801 -1.6237 -1.0575
10943SOL     OW34567   8.815   4.170   3.664 -0.2711  0.4358  0.4373
10943SOL    HW134568   8.875   4.104   3.699 -0.1945 -0.1337 -0.7131
10943SOL    HW234569   8.765   4.199   3.740 -1.9117 -2.6158  0.6907
10944SOL     OW34570   2.546   0.917   4.098  0.0385 -0.5371 -0.5279
10944SOL    HW134571   2.605   0.950   4.030  0.3768 -0.4842 -0.2083
10944SOL    HW234572   2.603   0.897   4.172 -0.3190 -0.6768 -0.2887
10945SOL     OW34573   9.262   2.485   5.368  0.0973 -0.0332 -0.2828
10945SOL    HW134574   9.270   2.526   5.454  1.8555  0.6573 -0.7314
10945SOL    HW234575   9.258   2.559   5.307  0.5322 -0.5146 -0.9102
10946SOL     OW34576   1.803   6.166   5.901  0.0187 -0.0083 -0.5072
10946SOL    HW134577   1.799   6.173   5.806 -1.7818 -0.0414 -0.4707
10946SOL    HW234578   1.732   6.106   5.924  0.9803 -0.7057  0.8076
10947SOL     OW34579   0.734   5.059   4.246 -0.0760  0.2317  0.0272
10947SOL    HW134580   0.696   5.124   4.306 -0.3679 -0.1213  0.2298
10947SOL    HW234581   0.680   4.981   4.258  1.2071 -0.5535  0.9089
10948SOL     OW34582   5.025   0.942   6.116 -0.2233 -0.0875 -0.3829
10948SOL    HW134583   5.033   0.865   6.172 -0.2079 -0.4271 -0.8474
10948SOL    HW234584   5.075   0.920   6.037  1.0973  1.0147  0.1098
10949SOL     OW34585   3.665   9.006   3.029  0.1093  0.5409  0.4815
10949SOL    HW134586   3.607   9.057   3.086  0.3134  2.1036 -0.6269
10949SOL    HW234587   3.639   9.032   2.940  1.4411  0.0491 -0.0721
10950SOL     OW34588   8.731   0.800   1.720 -0.0934  0.1923 -0.0349
10950SOL    HW134589   8.718   0.713   1.759 -1.4993  0.8903  1.1608
10950SOL    HW234590   8.732   0.784   1.626  0.7260 -1.2331  0.1807
10951SOL     OW34591   1.915   0.137   8.129  0.1465  0.0392 -0.0977
10951SOL    HW134592   1.977   0.177   8.190 -0.3093 -0.8177  0.9804
10951SOL    HW234593   1.890   0.055   8.172 -0.5206 -0.3833 -1.2574
10952SOL     OW34594   1.364   8.333   0.774 -0.2262  0.3922  0.2002
10952SOL    HW134595   1.446   8.297   0.807 -0.6960 -0.5534  0.3824
10952SOL    HW234596   1.342   8.277   0.699 -0.3754  1.0570 -0.2681
10953SOL     OW34597   8.066   9.226   0.488 -0.4280 -0.6475 -0.3478
10953SOL    HW134598   8.144   9.280   0.476 -1.7465  1.9019  1.5315
10953SOL    HW234599   8.097   9.149   0.536  0.9412  0.3647  0.4667
10954SOL     OW34600   3.433   5.086   0.212  0.0831 -0.3468  0.2837
10954SOL    HW134601   3.380   5.092   0.292  0.9653 -0.8815  0.9340
10954SOL    HW234602   3.428   4.994   0.187  1.5279 -0.6518  0.9690
10955SOL     OW34603   5.769   2.213   3.426  0.1114 -0.2097 -0.8860
10955SOL    HW134604   5.812   2.286   3.471 -0.3877  0.6079 -1.6923
10955SOL    HW234605   5.832   2.141   3.431  0.1984 -0.0581  0.8191
10956SOL     OW34606   8.680   3.128   2.144  0.0098 -0.0037  0.2590
10956SOL    HW134607   8.645   3.201   2.093  0.8567 -0.9612 -1.7902
10956SOL    HW234608   8.722   3.071   2.080  2.0090 -0.8128  2.1343
10957SOL     OW34609   3.860   5.282   8.625  0.8458  0.2184 -0.1192
10957SOL    HW134610   3.770   5.278   8.592  0.2451 -1.0656  1.5194
10957SOL    HW234611   3.851   5.311   8.716  2.0010 -0.7877  0.3410
10958SOL     OW34612   7.713   4.822   4.036 -0.2511 -0.3468  0.5570
10958SOL    HW134613   7.723   4.734   4.000  1.6128  0.3117 -0.6884
10958SOL    HW234614   7.788   4.833   4.093  0.1564  0.7946 -0.1579
10959SOL     OW34615   8.523   5.962   2.015 -0.4781 -0.1419  0.1890
10959SOL    HW134616   8.536   5.981   1.923  2.1537  1.8828  0.8584
10959SOL    HW234617   8.429   5.977   2.030 -1.1208 -1.2845 -2.2253
10960SOL     OW34618   6.972   6.071   4.290  0.5021 -0.0302  0.3761
10960SOL    HW134619   6.947   6.052   4.200 -1.0639 -1.0678  0.9827
10960SOL    HW234620   7.067   6.056   4.292  0.6960  0.7099 -1.2354
10961SOL     OW34621   7.566   3.380   8.048  0.6429  0.1719  0.2926
10961SOL    HW134622   7.497   3.373   7.982  1.3714  0.6197 -0.5400
10961SOL    HW234623   7.599   3.291   8.059 -0.8510 -0.2672  1.5948
10962SOL     OW34624   8.585   3.536   2.046 -0.4056  0.3379 -0.4377
10962SOL    HW134625   8.679   3.521   2.049 -0.5289 -0.3656  0.2050
10962SOL    HW234626   8.576   3.626   2.014  0.5020  0.6277  0.0841
10963SOL     OW34627   4.854   0.507   5.533 -0.3655 -0.0627  0.6163
10963SOL    HW134628   4.765   0.483   5.560 -0.0194 -2.5112 -0.1917
10963SOL    HW234629   4.856   0.490   5.439  0.9829 -0.0993  0.6285
10964SOL     OW34630   3.431   4.129   9.205  0.0914 -0.8951  0.0484
10964SOL    HW134631   3.444   4.151   9.113  0.6565  1.9840  0.7211
10964SOL    HW234632   3.337   4.138   9.219  0.1924  0.1640  0.0764
10965SOL     OW34633   0.920   7.104   4.874  0.6862 -0.5992  0.1365
10965SOL    HW134634   0.861   7.041   4.915  1.9229 -1.4777  0.6027
10965SOL    HW234635   1.007   7.067   4.885  1.3103  0.5043 -0.8539
10966SOL     OW34636   2.064   4.029   1.589  0.2188  0.3297  0.2146
10966SOL    HW134637   2.088   3.937   1.601  0.4623  0.4041  0.3107
10966SOL    HW234638   1.992   4.043   1.650 -0.2793  0.0231 -0.2932
10967SOL     OW34639   6.760   0.831   8.144 -0.6276  0.0289 -0.1735
10967SOL    HW134640   6.846   0.868   8.129 -1.2252  1.2907 -0.6211
10967SOL    HW234641   6.723   0.821   8.056 -1.5261  0.9828  0.0754
10968SOL     OW34642   4.622   2.045   4.125  0.2993 -0.2513 -0.1990
10968SOL    HW134643   4.686   2.074   4.059 -1.2566 -0.5048 -1.9218
10968SOL    HW234644   4.624   1.950   4.119 -0.2662 -0.2581 -0.3214
10969SOL     OW34645   7.988   7.359   0.253  0.4308  0.1970  0.3966
10969SOL    HW134646   8.065   7.311   0.283  1.1316  0.9912 -0.0882
10969SOL    HW234647   7.944   7.299   0.193  1.2966  0.1488 -0.2013
10970SOL     OW34648   8.990   4.760   3.058  0.3824  0.2224 -0.6678
10970SOL    HW134649   9.039   4.723   3.132  0.8762  1.2758 -0.4482
10970SOL    HW234650   8.938   4.830   3.096  3.5564  3.4957 -1.7512
10971SOL     OW34651   0.494   0.936   2.738  0.2263  0.1421  0.0357
10971SOL    HW134652   0.431   0.940   2.809 -0.7580  1.3306 -0.8624
10971SOL    HW234653   0.487   0.846   2.704  1.0865 -0.6112  1.7063
10972SOL     OW34654   4.919   8.923   9.005  0.0957 -0.2978  0.1342
10972SOL    HW134655   4.895   8.882   9.088 -1.1059  4.1794  2.3218
10972SOL    HW234656   4.854   8.890   8.943 -1.1565 -1.2008  1.8348
10973SOL     OW34657   5.938   2.141   5.461  0.1462  0.2298  0.6991
10973SOL    HW134658   5.952   2.130   5.556  0.5423  0.1997  0.6403
10973SOL    HW234659   6.009   2.199   5.434 -1.3496  2.2420  0.8448
10974SOL     OW34660   1.817   5.088   1.473 -0.2091  0.4795 -0.6917
10974SOL    HW134661   1.874   5.056   1.543  0.5868  1.2327 -0.9738
10974SOL    HW234662   1.806   5.181   1.492 -1.9235  0.2326 -0.2687
10975SOL     OW34663   8.926   8.147   3.788 -0.0352  0.1263 -0.2227
10975SOL    HW134664   8.871   8.184   3.719  0.1636  0.6512 -0.1041
10975SOL    HW234665   8.864   8.118   3.855 -0.1831  0.4584 -0.2132
10976SOL     OW34666   5.756   7.092   0.334 -0.2425 -0.0981  0.3891
10976SOL    HW134667   5.797   7.167   0.291 -0.0419 -0.8206 -0.7061
10976SOL    HW234668   5.775   7.105   0.427 -1.5921  2.0497  0.4217
10977SOL     OW34669   6.376   8.829   1.865 -0.0590 -0.0990 -1.0430
10977SOL    HW134670   6.456   8.826   1.918 -0.3447 -2.8864 -0.6629
10977SOL    HW234671   6.305   8.841   1.928 -0.2775 -2.0920 -0.8456
10978SOL     OW34672   4.610   8.357   7.877 -0.1117  0.2882 -0.1034
10978SOL    HW134673   4.611   8.275   7.828  0.2371 -1.8001  3.1187
10978SOL    HW234674   4.703   8.377   7.892 -0.1036 -1.4406  3.0347
10979SOL     OW34675   4.855   5.987   2.800  0.0084 -0.2397 -0.1639
10979SOL    HW134676   4.868   5.894   2.781 -0.6343 -0.1294 -1.2253
10979SOL    HW234677   4.765   5.994   2.830 -0.7291  0.3214 -2.3127
10980SOL     OW34678   2.051   1.257   8.195 -0.0220  0.0322  0.0357
10980SOL    HW134679   2.014   1.221   8.275  1.8076 -0.1500  0.8522
10980SOL    HW234680   2.043   1.352   8.205  0.0882  0.0067  0.3929
10981SOL     OW34681   8.171   9.136   3.787  0.2396 -0.1546 -0.0689
10981SOL    HW134682   8.161   9.044   3.760  3.8727 -0.4250 -0.9858
10981SOL    HW234683   8.220   9.131   3.869  0.3569  0.9836 -0.0643
10982SOL     OW34684   9.397   2.866   3.613  0.2065 -0.2734  0.1250
10982SOL    HW134685   9.448   2.917   3.551  1.9826 -1.6390  0.4111
10982SOL    HW234686   9.351   2.801   3.560  0.3298 -0.3128  0.0680
10983SOL     OW34687   1.828   3.409   5.971  0.5226  0.0697 -0.0763
10983SOL    HW134688   1.803   3.480   6.030  3.2863  0.7704  0.3922
10983SOL    HW234689   1.907   3.371   6.010  0.9235 -1.1915 -1.9472
10984SOL     OW34690   7.594   0.525   5.168  0.1626 -0.1910 -0.0542
10984SOL    HW134691   7.572   0.618   5.154 -2.0648 -0.4169  1.4156
10984SOL    HW234692   7.652   0.525   5.244  0.3062  0.0019 -0.1617
10985SOL     OW34693   8.451   6.067   5.466 -0.3394  0.2210 -1.0220
10985SOL    HW134694   8.445   5.982   5.509  1.1452  0.5867 -0.0075
10985SOL    HW234695   8.461   6.129   5.538 -0.0827  1.1124 -1.8108
10986SOL     OW34696   2.455   6.257   8.346 -0.0102 -0.3655  0.0916
10986SOL    HW134697   2.525   6.312   8.381 -0.4954  1.0311 -1.0289
10986SOL    HW234698   2.479   6.243   8.254 -0.2751 -1.4331  0.1650
10987SOL     OW34699   3.360   4.649   4.448  0.3437 -0.0987 -0.1277
10987SOL    HW134700   3.314   4.577   4.405 -0.2839  1.5574 -2.4586
10987SOL    HW234701   3.325   4.728   4.406  2.3959  1.4636  0.9003
10988SOL     OW34702   4.490   6.993   5.661 -0.1910  0.3545 -0.2861
10988SOL    HW134703   4.444   6.976   5.578  0.1831 -0.6116 -0.3172
10988SOL    HW234704   4.428   6.964   5.728 -0.0341  0.0249 -0.2829
10989SOL     OW34705   7.243   9.013   4.892  0.2690 -0.5099  0.0345
10989SOL    HW134706   7.214   9.061   4.814 -1.3264 -0.4069  0.6564
10989SOL    HW234707   7.337   9.000   4.879  0.2103  0.3685 -1.4363
10990SOL     OW34708   8.754   1.945   4.591  0.7995 -0.6187 -0.0367
10990SOL    HW134709   8.730   1.951   4.684  2.6015  0.1392  0.4106
10990SOL    HW234710   8.678   1.902   4.550 -1.3670  1.7290  1.2313
10991SOL     OW34711   2.918   6.316   8.261  0.0846 -0.1053 -0.0068
10991SOL    HW134712   3.006   6.308   8.299 -0.5747 -1.3523  1.3872
10991SOL    HW234713   2.918   6.255   8.187  0.3679 -0.1719  0.0466
10992SOL     OW34714   3.142   2.500   6.285 -0.2871  0.3827 -0.1955
10992SOL    HW134715   3.191   2.432   6.238  0.3471  0.4151  0.3941
10992SOL    HW234716   3.053   2.495   6.250  0.2311  0.6269 -1.6347
10993SOL     OW34717   1.882   8.008   8.222 -0.1729 -0.1443 -0.1381
10993SOL    HW134718   1.937   7.944   8.268 -0.0305  0.3594  0.3980
10993SOL    HW234719   1.798   7.964   8.210 -0.6013  0.1326  1.6578
10994SOL     OW34720   4.720   5.003   5.477  0.1606  0.0176 -0.0563
10994SOL    HW134721   4.645   4.954   5.510  0.1867 -0.3247 -0.4883
10994SOL    HW234722   4.721   4.985   5.383  2.0517 -1.7953  0.2200
10995SOL     OW34723   7.774   0.361   2.425  0.0393 -0.3981  0.0816
10995SOL    HW134724   7.857   0.384   2.384 -0.0735  0.9347  0.5583
10995SOL    HW234725   7.708   0.375   2.358  0.3778 -4.4446 -1.3683
10996SOL     OW34726   2.065   6.172   2.704  0.1809 -0.1568  0.5533
10996SOL    HW134727   2.104   6.259   2.718  3.2448 -1.1385 -0.8952
10996SOL    HW234728   1.991   6.188   2.645  0.9644  1.4534 -0.0578
10997SOL     OW34729   4.105   7.037   7.376  0.5800  0.3430 -0.5134
10997SOL    HW134730   4.097   7.076   7.464  0.8873  0.7723 -0.6746
10997SOL    HW234731   4.015   7.035   7.343  0.1731 -1.6462  0.5784
10998SOL     OW34732   8.643   8.970   3.699 -0.2405 -0.2949  0.0028
10998SOL    HW134733   8.601   9.043   3.746  0.3743 -0.3857  0.7207
10998SOL    HW234734   8.709   8.938   3.760 -1.3848 -2.3342  0.2329
10999SOL     OW34735   1.980   4.736   0.159 -0.0876  0.4244  0.3823
10999SOL    HW134736   2.006   4.694   0.241  0.3703  2.9854  1.6708
10999SOL    HW234737   2.005   4.828   0.170 -2.0966  1.3461 -1.7291
11000SOL     OW34738   6.243   6.732   8.198 -0.4169 -0.1984  0.0720
11000SOL    HW134739   6.217   6.640   8.199  2.9079 -1.2823  0.6622
11000SOL    HW234740   6.303   6.739   8.123  2.3366  0.4126  2.1629
11001SOL     OW34741   4.176   9.587   7.154 -0.1194 -0.1399  0.6205
11001SOL    HW134742   4.098   9.531   7.163 -0.3369 -0.0298 -0.4298
11001SOL    HW234743   4.142   9.668   7.114  0.1157  0.9448  2.4703
11002SOL     OW34744   3.330   9.320   7.782 -0.4518 -0.0713  0.2997
11002SOL    HW134745   3.286   9.325   7.867  0.3577  0.4396  0.7004
11002SOL    HW234746   3.263   9.345   7.718 -1.0905 -0.5446  0.7672
11003SOL     OW34747   3.572   7.484   1.350  0.3227 -0.2241 -0.4944
11003SOL    HW134748   3.508   7.428   1.394  0.3143  0.2779  0.1458
11003SOL    HW234749   3.529   7.568   1.341  0.5828 -0.1260 -0.8385
11004SOL     OW34750   8.175   5.978   4.023 -0.0721  0.4024 -0.6068
11004SOL    HW134751   8.192   5.962   3.931 -0.9066  0.5590 -0.7905
11004SOL    HW234752   8.257   5.955   4.067  0.7911  1.6116 -1.5210
11005SOL     OW34753   8.870   7.085   2.122 -0.3173  0.2604  0.5642
11005SOL    HW134754   8.847   7.140   2.047  0.1557  0.6183  0.6698
11005SOL    HW234755   8.943   7.032   2.090 -1.0421 -0.6190  0.3339
11006SOL     OW34756   2.862   7.719   9.134  0.4256  0.1896 -0.2517
11006SOL    HW134757   2.870   7.772   9.054 -1.6920  1.4557  0.2968
11006SOL    HW234758   2.834   7.633   9.103 -0.3071  0.6497 -0.9100
11007SOL     OW34759   2.824   0.439   8.168  0.2657  0.0208  0.2359
11007SOL    HW134760   2.770   0.360   8.165  0.9356 -0.4545 -2.8614
11007SOL    HW234761   2.761   0.511   8.161 -0.1585 -0.4264 -0.8161
11008SOL     OW34762   1.223   3.620   5.860 -0.4026 -0.8459  0.3689
11008SOL    HW134763   1.299   3.565   5.839  0.7192  1.3318 -1.6557
11008SOL    HW234764   1.260   3.702   5.892 -1.8650  0.2770 -0.6706
11009SOL     OW34765   3.784   1.788   2.543  0.3979  0.2847 -0.0629
11009SOL    HW134766   3.869   1.773   2.584  0.1491 -1.0557  0.0295
11009SOL    HW234767   3.763   1.704   2.501  0.0644  1.2276 -1.8641
11010SOL     OW34768   7.150   9.068   2.460 -0.4916  0.4051  0.2095
11010SOL    HW134769   7.243   9.082   2.445 -0.2554  0.3657  1.4562
11010SOL    HW234770   7.143   8.975   2.482 -1.0621  0.0482 -1.3923
11011SOL     OW34771   4.105   6.946   4.535  0.3990  0.4161  0.2845
11011SOL    HW134772   4.184   6.893   4.535  0.5170  0.5352 -1.1922
11011SOL    HW234773   4.062   6.925   4.452 -0.6724  0.9898  0.6745
11012SOL     OW34774   2.963   9.020   4.057 -0.1926  0.2151  0.4240
11012SOL    HW134775   2.899   9.023   4.129 -1.3062  0.8614 -0.5711
11012SOL    HW234776   3.000   9.108   4.053  0.4864 -0.0471  0.7299
11013SOL     OW34777   5.277   7.367   1.965  0.0999  0.0338 -0.7903
11013SOL    HW134778   5.366   7.350   1.995  0.0773 -1.8954 -1.7160
11013SOL    HW234779   5.242   7.281   1.943 -2.0079  0.7493 -0.4515
11014SOL     OW34780   0.047   7.954   4.228 -0.2750  0.0435  0.1431
11014SOL    HW134781   0.046   7.962   4.133 -0.0701 -0.3165  0.1092
11014SOL    HW234782  -0.041   7.978   4.255  0.0244  1.4195 -0.0275
11015SOL     OW34783   2.148   0.391   0.464 -0.0339  0.2871 -0.3542
11015SOL    HW134784   2.202   0.441   0.402 -0.1013  0.5089 -0.2345
11015SOL    HW234785   2.070   0.444   0.477  0.4507  0.7688  0.7464
11016SOL     OW34786   6.041   5.424   0.673 -0.2446 -0.5863  0.3042
11016SOL    HW134787   5.990   5.376   0.609 -2.1595  0.4294  0.9881
11016SOL    HW234788   6.132   5.396   0.658 -0.6230 -0.4425 -2.7409
11017SOL     OW34789   9.080   4.557   1.282  0.3008  0.5709 -0.2075
11017SOL    HW134790   9.046   4.544   1.194 -2.2320 -2.3928  0.9927
11017SOL    HW234791   9.154   4.497   1.289 -0.5946 -0.5279  0.1400
11018SOL     OW34792   2.472   7.544   2.436  0.1063  0.7436 -0.0100
11018SOL    HW134793   2.458   7.450   2.424 -1.6560  1.2554 -2.8429
11018SOL    HW234794   2.509   7.552   2.523  2.0684 -2.7310 -0.3673
11019SOL     OW34795   1.587   6.907   4.839  0.1339  0.2689 -0.0370
11019SOL    HW134796   1.568   6.906   4.745 -1.8406 -0.2756  0.3214
11019SOL    HW234797   1.617   6.818   4.858 -1.7261 -0.3657  0.2015
11020SOL     OW34798   2.403   6.563   2.739 -0.1860  0.0914 -0.0227
11020SOL    HW134799   2.458   6.526   2.670 -0.0263 -0.1457  0.2322
11020SOL    HW234800   2.449   6.544   2.820  0.1280  1.2496  0.0942
11021SOL     OW34801   1.727   4.793   4.158  0.3779  0.1808 -0.6344
11021SOL    HW134802   1.658   4.747   4.112 -1.0495  1.8160 -0.2351
11021SOL    HW234803   1.758   4.732   4.225 -0.2787 -0.7664 -1.1878
11022SOL     OW34804   5.854   2.956   4.444  0.2273 -0.7272  0.8965
11022SOL    HW134805   5.794   2.882   4.441  2.8869 -3.0734  1.1138
11022SOL    HW234806   5.927   2.930   4.388  0.8294  2.2168  0.1672
11023SOL     OW34807   2.556   5.307   6.868 -0.0373 -0.3465  0.0518
11023SOL    HW134808   2.509   5.386   6.895  0.4391  0.2372 -0.7972
11023SOL    HW234809   2.570   5.259   6.950  1.8131  1.6268  0.9937
11024SOL     OW34810   9.446   3.920   2.080 -0.1151  0.2219 -0.3926
11024SOL    HW134811   9.476   3.854   2.142  0.8451  0.3458 -0.6992
11024SOL    HW234812   9.465   4.003   2.123 -2.5721  0.3668  0.5893
11025SOL     OW34813   8.680   4.314   4.745 -0.3208 -0.1809  0.4463
11025SOL    HW134814   8.676   4.305   4.650  0.2743  0.0024  0.3998
11025SOL    HW234815   8.773   4.321   4.765 -0.4686  0.3931  0.9872
11026SOL     OW34816   0.154   7.562   4.722  0.4938 -0.4648 -0.4483
11026SOL    HW134817   0.114   7.485   4.762 -1.2596 -0.0563 -1.3152
11026SOL    HW234818   0.247   7.542   4.720  0.0200 -2.9977 -1.5049
11027SOL     OW34819   2.243   3.209   1.301  0.5101 -0.0193 -0.3873
11027SOL    HW134820   2.242   3.160   1.219  0.8924 -1.6171  0.5336
11027SOL    HW234821   2.177   3.166   1.355  2.3803 -0.9866  1.2362
11028SOL     OW34822   8.082   0.042   5.518 -0.2750 -0.4104  0.2974
11028SOL    HW134823   8.092  -0.052   5.506  2.4894 -0.0700 -0.8379
11028SOL    HW234824   8.160   0.080   5.478 -2.7447  2.6322 -2.2322
11029SOL     OW34825   0.273   4.813   8.179 -0.7158  0.7536  0.3530
11029SOL    HW134826   0.197   4.847   8.132 -0.4076 -0.2084 -0.9139
11029SOL    HW234827   0.315   4.753   8.117  1.6830  2.0159  0.6005
11030SOL     OW34828   2.150   8.462   6.236 -0.4602  0.0185 -0.0684
11030SOL    HW134829   2.118   8.379   6.202 -1.4808  0.2413  0.3192
11030SOL    HW234830   2.214   8.438   6.303 -0.3176 -0.4337 -0.3598
11031SOL     OW34831   3.154   5.973   5.671 -0.4448  0.7554 -0.3532
11031SOL    HW134832   3.176   6.019   5.590 -0.1102  0.3636 -0.4851
11031SOL    HW234833   3.238   5.953   5.711 -0.5712 -0.3486 -0.6284
11032SOL     OW34834   1.483   9.273   2.569 -0.0391 -0.0090 -0.1415
11032SOL    HW134835   1.520   9.358   2.542 -0.2747  0.1722  0.1003
11032SOL    HW234836   1.401   9.266   2.522 -0.9010  0.7284  1.1843
11033SOL     OW34837   3.332   2.240   7.894 -0.3185 -0.2919  0.0696
11033SOL    HW134838   3.333   2.334   7.912 -0.4516 -0.3284  0.2761
11033SOL    HW234839   3.424   2.214   7.897 -0.1262  0.1054 -1.5019
11034SOL     OW34840   6.212   7.286   8.172 -0.2649 -0.0364 -0.2332
11034SOL    HW134841   6.207   7.374   8.136  1.6305  0.2279  0.0463
11034SOL    HW234842   6.215   7.299   8.267 -0.8765 -0.4600 -0.1513
11035SOL     OW34843   4.825   0.938   9.469 -0.1173  0.0118  0.2324
11035SOL    HW134844   4.876   0.880   9.526  0.6371  0.5600  0.1240
11035SOL    HW234845   4.790   1.004   9.528 -0.0559  0.0863  0.1847
11036SOL     OW34846   5.795   2.197   5.251  0.1303  0.3441 -0.0793
11036SOL    HW134847   5.826   2.142   5.179  0.4489  1.4159 -0.7711
11036SOL    HW234848   5.847   2.168   5.327 -0.3100 -0.8855 -0.2288
11037SOL     OW34849   5.568   8.638   3.163 -0.0913  0.1351  0.4728
11037SOL    HW134850   5.566   8.554   3.209 -0.2791 -0.2029 -0.1325
11037SOL    HW234851   5.660   8.648   3.138 -0.1889 -0.2356 -0.0571
11038SOL     OW34852   7.856   7.825   1.701  0.0111 -0.4161  0.4410
11038SOL    HW134853   7.764   7.807   1.717 -0.6851  1.3293 -1.3096
11038SOL    HW234854   7.900   7.799   1.783 -1.7112 -3.1361  0.6036
11039SOL     OW34855   9.209   6.873   2.259 -0.1969  0.0123  0.3269
11039SOL    HW134856   9.166   6.922   2.330 -0.0937 -0.2380  0.5628
11039SOL    HW234857   9.297   6.909   2.255 -0.0238 -0.3592  0.7047
11040SOL     OW34858   2.549   5.415   1.968  0.0753  0.0509  0.4536
11040SOL    HW134859   2.555   5.510   1.971  1.5953 -0.0023 -0.1599
11040SOL    HW234860   2.640   5.385   1.969 -0.3646 -1.3784 -0.0374
11041SOL     OW34861   6.106   5.828   4.731  0.0783 -0.5820  0.1153
11041SOL    HW134862   6.137   5.865   4.814 -0.3699  0.6727 -0.2561
11041SOL    HW234863   6.184   5.788   4.693  0.3987 -0.7409  0.9062
11042SOL     OW34864   7.402   2.240   1.613 -0.1204  0.1388  0.4274
11042SOL    HW134865   7.318   2.203   1.584 -0.5337  1.6797 -0.4965
11042SOL    HW234866   7.451   2.254   1.531  0.8803 -0.3694  0.9285
11043SOL     OW34867   1.944   6.976   1.477  0.0667 -0.5603  0.5083
11043SOL    HW134868   1.966   6.917   1.405 -1.4248 -0.4409 -0.0972
11043SOL    HW234869   1.925   6.917   1.551  2.3204 -0.6624  1.0897
11044SOL     OW34870   0.292   5.995   1.255  0.0831 -0.2517  0.3886
11044SOL    HW134871   0.311   6.034   1.341 -0.1683 -0.9309  0.7570
11044SOL    HW234872   0.377   5.989   1.212 -0.0042  1.8540 -0.1839
11045SOL     OW34873   4.436   7.358   1.684  0.4375  0.3495 -0.7279
11045SOL    HW134874   4.344   7.367   1.658  0.5842  0.2169 -1.3154
11045SOL    HW234875   4.444   7.266   1.710  0.3152  0.4567 -0.3027
11046SOL     OW34876   8.306   2.649   5.978 -0.3636 -0.2958 -0.2712
11046SOL    HW134877   8.291   2.714   5.909  0.3598  0.4436  0.2395
11046SOL    HW234878   8.243   2.671   6.046 -0.2712 -0.2687 -0.1937
11047SOL     OW34879   4.206   1.240   3.172  0.5866 -0.4625  0.0638
11047SOL    HW134880   4.199   1.196   3.088 -2.0043 -2.1993  1.0507
11047SOL    HW234881   4.240   1.172   3.231 -0.0257 -0.0651  0.8909
11048SOL     OW34882   5.357   8.644   9.101  0.0146 -0.8903  0.2392
11048SOL    HW134883   5.369   8.594   9.182  0.6645  1.3030  1.6022
11048SOL    HW234884   5.377   8.734   9.126 -2.4280  0.3034 -1.7430
11049SOL     OW34885   6.706   5.613   1.888 -0.0924  0.5119 -0.0443
11049SOL    HW134886   6.787   5.659   1.867  0.7881 -1.2879 -0.7073
11049SOL    HW234887   6.711   5.597   1.982 -0.9001  2.6152  0.4136
11050SOL     OW34888   3.902   4.719   7.563 -0.4145  0.8776  0.3655
11050SOL    HW134889   3.932   4.696   7.651  0.6592  0.2210 -0.1622
11050SOL    HW234890   3.928   4.811   7.552 -0.8748  1.0698  0.8638
11051SOL     OW34891   1.233   4.620   7.075  0.1293  0.3475 -0.6651
11051SOL    HW134892   1.140   4.644   7.080 -0.3543 -1.4555  0.0744
11051SOL    HW234893   1.272   4.657   7.154 -0.0375  0.8107 -0.7981
11052SOL     OW34894   0.693   5.632   2.454  0.6445 -0.1524 -0.5546
11052SOL    HW134895   0.635   5.561   2.481 -0.2363  0.7455  0.0178
11052SOL    HW234896   0.743   5.654   2.532  1.5267 -0.6883 -0.9547
11053SOL     OW34897   8.313   6.621   2.079 -0.3258  0.3053  0.1153
11053SOL    HW134898   8.328   6.692   2.143  1.5723  0.7946 -0.7803
11053SOL    HW234899   8.224   6.591   2.096 -0.0392  0.6943  2.7093
11054SOL     OW34900   5.882   1.775   4.210  0.0928  0.3110 -0.0829
11054SOL    HW134901   5.973   1.790   4.236  0.4101  0.4922 -1.2416
11054SOL    HW234902   5.862   1.687   4.243  0.2666  0.7542  1.2683
11055SOL     OW34903   1.967   5.019   8.179 -0.0109  0.2082 -0.4118
11055SOL    HW134904   1.983   5.050   8.090  0.0950  1.0846 -0.1052
11055SOL    HW234905   1.871   5.016   8.186 -0.0303  0.8389 -0.3358
11056SOL     OW34906   5.678   8.833   8.534 -0.8225  1.3364  0.1121
11056SOL    HW134907   5.633   8.915   8.513 -1.2234  0.4743 -2.9709
11056SOL    HW234908   5.769   8.859   8.552 -0.7956  2.4638 -1.4202
11057SOL     OW34909   7.313   0.277   4.822  0.1189 -0.1330  0.2174
11057SOL    HW134910   7.328   0.183   4.833  0.4453 -0.0574  0.4199
11057SOL    HW234911   7.368   0.301   4.747 -1.2481 -0.4288 -0.9254
11058SOL     OW34912   0.790   1.996   3.568  0.3361 -0.9577  0.3662
11058SOL    HW134913   0.708   1.968   3.526  1.2417 -0.4864 -1.8395
11058SOL    HW234914   0.765   2.071   3.621 -0.5416 -0.2805 -0.9629
11059SOL     OW34915   4.299   4.897   2.218  0.0711 -0.8667  0.0670
11059SOL    HW134916   4.321   4.981   2.178 -0.8337 -0.9255 -0.5822
11059SOL    HW234917   4.318   4.832   2.150 -2.5986 -0.8686 -0.7689
11060SOL     OW34918   7.652   5.032   6.907 -0.0639 -1.0358  0.3813
11060SOL    HW134919   7.649   4.950   6.956  2.4232 -0.3931  1.7611
11060SOL    HW234920   7.614   5.097   6.966  0.6025 -0.7083  0.4585
11061SOL     OW34921   5.607   1.432   5.218  0.2343 -0.7534  0.1926
11061SOL    HW134922   5.695   1.400   5.196 -0.4502 -1.7670 -1.1565
11061SOL    HW234923   5.595   1.509   5.163 -0.5133 -1.8460 -1.2279
11062SOL     OW34924   2.177   1.182   9.241 -0.4479  0.0853  0.2227
11062SOL    HW134925   2.147   1.155   9.154 -0.1443 -2.0106  0.7234
11062SOL    HW234926   2.114   1.250   9.267 -0.5561  0.7399 -1.5962
11063SOL     OW34927   0.399   1.067   8.544 -0.0075  0.5287 -0.0035
11063SOL    HW134928   0.374   1.143   8.596  1.3931  1.6767 -0.9537
11063SOL    HW234929   0.331   1.061   8.476 -0.1797  0.8732  0.1369
11064SOL     OW34930   0.471   4.036   7.278  0.5017  0.3953 -0.2130
11064SOL    HW134931   0.537   4.042   7.209 -0.3690  0.1748 -1.0830
11064SOL    HW234932   0.465   4.124   7.314  1.1882  0.4379 -0.1900
11065SOL     OW34933   1.381   3.699   4.041  0.4177  0.3387  0.2963
11065SOL    HW134934   1.440   3.710   3.967  0.2149 -1.8995 -0.2779
11065SOL    HW234935   1.439   3.692   4.117  0.8643 -0.9694 -0.1502
11066SOL     OW34936   5.912   6.969   3.216 -0.3610  0.7659 -0.2405
11066SOL    HW134937   5.998   7.009   3.233  0.5577 -0.4683 -1.6656
11066SOL    HW234938   5.912   6.951   3.122 -0.7749 -2.2815  0.2361
11067SOL     OW34939   1.477   6.408   1.608  0.5344 -0.7199 -0.7415
11067SOL    HW134940   1.411   6.476   1.616 -0.2257 -1.5263  0.0612
11067SOL    HW234941   1.560   6.455   1.607  0.0231  0.2163 -0.1701
11068SOL     OW34942   4.097   0.786   2.964  0.2043  0.2249  0.2505
11068SOL    HW134943   4.181   0.832   2.952 -0.5593  1.3243 -1.1776
11068SOL    HW234944   4.052   0.836   3.032  1.5548 -1.7254  2.7946
11069SOL     OW34945   2.022   6.971   2.293 -0.0441  0.3448  0.2643
11069SOL    HW134946   1.982   6.987   2.379 -1.8615  0.1322 -0.4940
11069SOL    HW234947   2.107   6.931   2.313 -1.5766 -2.3899  2.0036
11070SOL     OW34948   0.580   3.023   6.594 -0.2743  0.0156  0.0011
11070SOL    HW134949   0.593   2.955   6.661  1.0519 -0.2284 -0.4764
11070SOL    HW234950   0.522   3.086   6.636 -0.0132 -0.4724  1.1445
11071SOL     OW34951   4.129   3.397   1.295 -0.2629 -0.7804  0.2519
11071SOL    HW134952   4.158   3.306   1.289  2.4447  0.0888 -1.5614
11071SOL    HW234953   4.072   3.409   1.220  0.9755 -0.5046 -0.6686
11072SOL     OW34954   5.296   7.071   7.778  0.0947 -0.1868  0.3459
11072SOL    HW134955   5.364   7.050   7.842 -1.0850 -1.3006  1.2894
11072SOL    HW234956   5.254   6.988   7.760 -0.3513  0.3150 -1.0255
11073SOL     OW34957   8.803   6.307   8.102 -0.2915  0.3421 -0.8067
11073SOL    HW134958   8.713   6.313   8.070  0.0684  0.9423 -1.7501
11073SOL    HW234959   8.827   6.216   8.085 -1.4441 -0.4784  1.5456
11074SOL     OW34960   2.700   0.107   2.980  0.4179  0.2250 -0.4351
11074SOL    HW134961   2.731   0.086   2.892  2.2225 -0.0910  0.2333
11074SOL    HW234962   2.648   0.186   2.969  0.0600 -0.1793 -1.8715
11075SOL     OW34963   8.829   5.336   5.003  0.2630  0.3021  0.0098
11075SOL    HW134964   8.816   5.431   4.992  0.1000  0.2010 -0.7538
11075SOL    HW234965   8.769   5.312   5.074  0.0375  0.7146 -0.0371
11076SOL     OW34966   2.819   1.686   8.772  0.1038  0.8834  0.3679
11076SOL    HW134967   2.851   1.769   8.734 -0.0030  0.2931 -1.0802
11076SOL    HW234968   2.895   1.628   8.770 -0.4651  0.1340 -1.1288
11077SOL     OW34969   6.083   8.659   2.949 -0.3110  0.1793 -0.0609
11077SOL    HW134970   6.053   8.572   2.924 -2.4257  1.1064 -1.0487
11077SOL    HW234971   6.140   8.687   2.878 -1.5826  0.5015 -0.9985
11078SOL     OW34972   6.696   4.850   6.959 -0.1416 -0.6232 -0.9430
11078SOL    HW134973   6.642   4.839   6.881 -0.7750  1.4557 -0.8365
11078SOL    HW234974   6.783   4.819   6.932 -0.5931 -0.8837 -2.1524
11079SOL     OW34975   4.125   7.472   9.577  0.5343  0.1847 -0.4683
11079SOL    HW134976   4.082   7.428   9.503  0.1695 -0.3563  0.0544
11079SOL    HW234977   4.209   7.426   9.586 -0.0622 -0.7818  0.4033
11080SOL     OW34978   6.146   1.674   6.578 -0.4124  0.4260 -0.1507
11080SOL    HW134979   6.240   1.657   6.587 -0.5630  0.4614  2.2567
11080SOL    HW234980   6.104   1.596   6.614 -1.2683  1.0763  0.2961
11081SOL     OW34981   1.568   2.606   8.850 -0.8173  0.4942  0.2503
11081SOL    HW134982   1.599   2.694   8.827 -0.2842  0.1063 -0.5605
11081SOL    HW234983   1.624   2.579   8.922  0.6142 -0.0987 -1.0314
11082SOL     OW34984   6.260   1.867   9.383 -0.1812 -0.0637  0.5744
11082SOL    HW134985   6.211   1.784   9.379  0.4969 -0.4181 -0.9839
11082SOL    HW234986   6.286   1.875   9.475 -1.3166 -0.9468  0.9958
11083SOL     OW34987   9.429   0.171   5.736 -0.4289  0.2115  0.0485
11083SOL    HW134988   9.490   0.146   5.666 -0.5218  0.6591 -0.2006
11083SOL    HW234989   9.451   0.262   5.754  0.7003 -0.3591  1.7676
11084SOL     OW34990   4.883   5.309   5.237 -0.6513 -0.5107  0.1601
11084SOL    HW134991   4.956   5.351   5.193  0.6771 -0.9531  1.8212
11084SOL    HW234992   4.866   5.364   5.313 -1.8221 -0.6150 -0.0059
11085SOL     OW34993   2.670   6.424   9.143 -0.4421  0.2680 -0.0586
11085SOL    HW134994   2.580   6.429   9.109 -0.0982  0.2813 -0.9965
11085SOL    HW234995   2.722   6.470   9.078  0.0180  1.9231  1.4083
11086SOL     OW34996   6.690   8.584   4.303 -0.0269 -0.2323  0.1594
11086SOL    HW134997   6.746   8.648   4.345 -1.4606 -0.2018  2.1862
11086SOL    HW234998   6.744   8.506   4.294  0.2556 -0.3922  2.5926
11087SOL     OW34999   7.953   7.477   7.708 -0.1714 -0.8651  0.1119
11087SOL    HW135000   7.935   7.519   7.624 -0.6467 -1.2531  0.0153
11087SOL    HW235001   7.890   7.517   7.769  0.0466 -0.7192  0.2426
11088SOL     OW35002   4.844   2.995   1.968  0.5284  0.2045 -0.4168
11088SOL    HW135003   4.927   3.010   1.923  0.7182 -0.3838 -0.2700
11088SOL    HW235004   4.785   2.964   1.899  1.1960 -2.0388 -0.0631
11089SOL     OW35005   3.297   5.554   8.591 -0.4756 -0.1612 -0.2214
11089SOL    HW135006   3.237   5.533   8.520  1.6792 -1.7866 -1.6580
11089SOL    HW235007   3.327   5.643   8.572  0.1109 -0.5913 -1.4292
11090SOL     OW35008   5.560   2.087   7.718 -0.3705  0.5431 -0.0540
11090SOL    HW135009   5.518   2.165   7.755 -0.6379 -0.3127  1.4800
11090SOL    HW235010   5.636   2.122   7.671  0.6960  1.6027  2.3050
11091SOL     OW35011   2.376   4.571   3.014  0.8403 -0.2414 -0.9382
11091SOL    HW135012   2.426   4.598   3.092  0.8412 -1.5693 -0.4595
11091SOL    HW235013   2.317   4.503   3.046  0.2829 -0.2456 -1.9572
11092SOL     OW35014   5.239   0.699   3.766 -0.3359 -0.0423  0.0378
11092SOL    HW135015   5.180   0.624   3.755 -1.3925  0.8487 -0.4647
11092SOL    HW235016   5.185   0.767   3.804  0.0555  1.1845 -1.5064
11093SOL     OW35017   1.084   0.863   1.949 -0.1883 -0.4975 -0.0874
11093SOL    HW135018   1.126   0.915   2.018 -1.2877 -2.3914  2.1562
11093SOL    HW235019   0.991   0.885   1.957 -0.4743 -1.6606 -0.1306
11094SOL     OW35020   2.550   7.656   3.962  0.4205 -0.1448  0.5415
11094SOL    HW135021   2.481   7.599   3.995  0.8021 -0.0208  1.5839
11094SOL    HW235022   2.614   7.660   4.033  0.0377  2.2196  0.8211
11095SOL     OW35023   4.689   9.202   1.481 -0.0236 -0.3472 -0.2136
11095SOL    HW135024   4.683   9.168   1.570 -0.0901 -0.5392 -0.2911
11095SOL    HW235025   4.756   9.149   1.439 -1.7744 -2.0222 -1.0596
11096SOL     OW35026   8.188   1.991   1.497 -0.5001 -0.1389  0.2315
11096SOL    HW135027   8.226   1.962   1.414 -0.7392 -0.4621  0.2368
11096SOL    HW235028   8.103   2.027   1.473 -0.4615  0.0061  0.3070
11097SOL     OW35029   2.107   4.621   6.855 -0.0469 -0.0646 -0.1449
11097SOL    HW135030   2.036   4.628   6.791 -1.6807 -1.7613  1.3254
11097SOL    HW235031   2.093   4.695   6.914  2.7298  2.7648 -2.7354
11098SOL     OW35032   4.206   2.156   3.731  0.5260 -0.4765 -0.4836
11098SOL    HW135033   4.295   2.144   3.764  0.7733 -1.3622 -1.4143
11098SOL    HW235034   4.197   2.089   3.663 -0.5527  0.1725 -0.9986
11099SOL     OW35035   5.091   4.965   2.378  0.9163 -0.0432 -0.5052
11099SOL    HW135036   5.073   5.022   2.303  1.0441  1.0151  0.2372
11099SOL    HW235037   5.042   5.005   2.450 -0.4076 -1.8558 -0.3148
11100SOL     OW35038   0.172   6.479   3.546  0.4884  0.0958  0.0526
11100SOL    HW135039   0.256   6.446   3.576  1.7655  1.8247 -1.3888
11100SOL    HW235040   0.175   6.469   3.451 -1.4381 -0.8477  0.0495
11101SOL     OW35041   8.021   0.753   7.233 -0.3707  0.1474 -0.2217
11101SOL    HW135042   7.945   0.703   7.264 -0.1571  0.4822  0.8859
11101SOL    HW235043   7.998   0.844   7.249  0.0918  0.2739 -0.2681
11102SOL     OW35044   2.152   4.741   1.941  0.0960 -0.5411 -0.3471
11102SOL    HW135045   2.068   4.734   1.987  0.3222  0.1425  0.1905
11102SOL    HW235046   2.185   4.652   1.937 -0.4688 -0.7624 -0.2034
11103SOL     OW35047   8.785   3.048   6.779  0.2310  0.3148 -0.2051
11103SOL    HW135048   8.720   3.020   6.844 -1.2779  1.5007 -1.1480
11103SOL    HW235049   8.862   2.995   6.799 -0.8840 -0.8862  1.1952
11104SOL     OW35050   7.911   1.383   9.223 -0.4172  0.0878 -0.1276
11104SOL    HW135051   7.997   1.343   9.222 -0.8570 -0.8993  0.2873
11104SOL    HW235052   7.889   1.397   9.131  0.2739  0.5588 -0.2256
11105SOL     OW35053   1.972   1.651   1.480 -0.3955 -0.0167 -0.1815
11105SOL    HW135054   1.903   1.712   1.455 -0.4448  0.5087  1.1357
11105SOL    HW235055   1.943   1.566   1.447 -0.5643  0.5763 -1.6067
11106SOL     OW35056   5.403   7.029   3.328 -0.3676 -0.2465 -1.0618
11106SOL    HW135057   5.497   7.043   3.324 -0.1660 -1.1350  0.1253
11106SOL    HW235058   5.366   7.104   3.281  0.8877  0.5852 -0.7797
11107SOL     OW35059   3.920   0.168   2.099  0.3771 -0.0492  0.4845
11107SOL    HW135060   3.937   0.152   2.006  0.8772 -0.0728  0.5755
11107SOL    HW235061   3.878   0.087   2.130 -1.5273  0.6555 -0.1287
11108SOL     OW35062   0.294   1.120   2.401 -0.4324  0.0818  0.1570
11108SOL    HW135063   0.303   1.059   2.475 -0.8043  0.3121  0.3923
11108SOL    HW235064   0.379   1.163   2.396 -0.0248 -0.7325 -0.2622
11109SOL     OW35065   2.563   8.389   3.737  0.8949  0.2230 -0.2151
11109SOL    HW135066   2.590   8.302   3.766 -1.6796 -0.7644 -0.5857
11109SOL    HW235067   2.520   8.375   3.653  0.7775  1.9323 -0.4872
11110SOL     OW35068   8.933   5.259   1.336  0.1137 -0.0331 -0.4281
11110SOL    HW135069   9.020   5.238   1.302 -0.2243  0.9218 -1.9841
11110SOL    HW235070   8.936   5.352   1.355 -1.0826  0.4251 -2.2567
11111SOL     OW35071   2.873   3.292   4.312  0.2044 -0.0787  0.3782
11111SOL    HW135072   2.846   3.369   4.362 -0.0668  0.5508 -0.6933
11111SOL    HW235073   2.944   3.254   4.362  1.0242  1.4644  0.4364
11112SOL     OW35074   4.623   7.992   6.446  0.0972  0.2380  0.1207
11112SOL    HW135075   4.564   7.923   6.477 -0.7062  1.4571  1.3794
11112SOL    HW235076   4.697   7.944   6.408 -1.4117 -1.3245 -0.9951
11113SOL     OW35077   1.180   0.428   8.747  0.6488  0.4683 -0.4233
11113SOL    HW135078   1.197   0.426   8.653  1.0153 -1.0124 -0.3491
11113SOL    HW235079   1.266   0.418   8.787  0.2339 -1.8957  0.0096
11114SOL     OW35080   7.928   4.701   6.466 -0.0988 -0.3954  0.0489
11114SOL    HW135081   7.925   4.795   6.482 -2.1861 -0.5141  0.6537
11114SOL    HW235082   8.006   4.671   6.512  0.7606  1.0612 -0.4032
11115SOL     OW35083   0.149   2.562   7.825  0.2140  0.3302 -0.3337
11115SOL    HW135084   0.072   2.522   7.866 -0.4856 -1.9326 -3.4443
11115SOL    HW235085   0.113   2.633   7.771  0.4136 -0.1584 -1.1153
11116SOL     OW35086   2.665   8.342   4.261 -0.2618  0.0995 -0.3647
11116SOL    HW135087   2.702   8.430   4.268  0.1790 -0.2349  2.3678
11116SOL    HW235088   2.570   8.355   4.262 -0.2473  0.6001 -1.9204
11117SOL     OW35089   4.702   4.034   2.388  0.1079  0.0475  0.4676
11117SOL    HW135090   4.626   3.978   2.369 -0.3251  0.4359  0.9933
11117SOL    HW235091   4.672   4.089   2.460  0.1097  1.7611 -0.7727
11118SOL     OW35092   9.223   6.642   9.206  0.1726  0.3608 -0.2878
11118SOL    HW135093   9.251   6.574   9.267 -2.5134 -0.7942 -0.2244
11118SOL    HW235094   9.219   6.598   9.121  0.0643  0.9025 -0.5694
11119SOL     OW35095   3.689   1.936   4.065 -0.1731  0.2809  0.2186
11119SOL    HW135096   3.710   2.025   4.096 -1.2244  0.0009  1.8784
11119SOL    HW235097   3.670   1.887   4.145 -1.1475 -1.0442 -0.7811
11120SOL     OW35098   2.662   4.671   1.594 -0.4791  1.0124  0.7031
11120SOL    HW135099   2.571   4.694   1.574 -0.3480  0.8095 -0.1702
11120SOL    HW235100   2.661   4.648   1.687 -1.5534 -0.0841  0.4443
11121SOL     OW35101   9.059   4.875   4.290  0.0909  0.3566  0.3191
11121SOL    HW135102   9.144   4.833   4.303  1.0018  1.4777 -1.5765
11121SOL    HW235103   9.070   4.964   4.324 -0.3464  0.4873  0.1348
11122SOL     OW35104   4.859   3.220   0.707 -0.3354 -0.0988  0.9689
11122SOL    HW135105   4.843   3.230   0.801  1.0309 -0.1426  1.2250
11122SOL    HW235106   4.855   3.309   0.673  1.2796  0.1923  1.4533
11123SOL     OW35107   8.809   3.461   4.128 -0.0680 -0.3509 -0.2604
11123SOL    HW135108   8.757   3.381   4.137 -0.5562  0.0794  1.0168
11123SOL    HW235109   8.892   3.441   4.172  0.0123 -0.3267 -0.3998
11124SOL     OW35110   1.169   1.069   4.225  0.2532 -0.4777 -0.0733
11124SOL    HW135111   1.141   0.977   4.228  0.0353 -0.3847  1.6265
11124SOL    HW235112   1.096   1.118   4.261  1.1903  0.1413  1.0573
11125SOL     OW35113   4.413   5.453   3.453 -0.2086 -0.2615  0.0019
11125SOL    HW135114   4.414   5.527   3.393 -0.0133 -1.8050 -1.9955
11125SOL    HW235115   4.321   5.438   3.472 -0.1886  1.2604  1.4801
11126SOL     OW35116   0.121   9.443   6.505 -0.3574  0.1259 -0.1878
11126SOL    HW135117   0.041   9.400   6.475 -0.3681 -0.4517  0.6365
11126SOL    HW235118   0.092   9.528   6.538 -0.1673  1.4640 -3.1164
11127SOL     OW35119   4.242   4.490   7.442 -0.0246  0.2740 -0.1249
11127SOL    HW135120   4.268   4.523   7.529  2.1497 -1.3019 -0.0851
11127SOL    HW235121   4.192   4.562   7.403  0.6321  1.8013  1.6714
11128SOL     OW35122   1.937   7.078   4.090 -0.1418 -0.0266 -0.3504
11128SOL    HW135123   1.938   7.006   4.026  1.0809 -0.5729  0.2641
11128SOL    HW235124   1.909   7.037   4.172  2.2881 -0.2399  0.4463
11129SOL     OW35125   5.686   4.626   0.796  0.1798 -0.0582 -0.2941
11129SOL    HW135126   5.733   4.708   0.811 -0.9452  0.3380  1.3661
11129SOL    HW235127   5.604   4.653   0.755  0.4197 -0.5200 -1.1038
11130SOL     OW35128   4.483   6.239   0.961  0.8274 -0.4050  0.4915
11130SOL    HW135129   4.449   6.180   1.028 -2.0741  1.2502  0.6336
11130SOL    HW235130   4.533   6.304   1.010  0.1532 -0.1634  0.8644
11131SOL     OW35131   9.162   3.492   1.724  1.0643 -0.4010 -0.0642
11131SOL    HW135132   9.205   3.572   1.692  0.3979 -0.5056 -1.2781
11131SOL    HW235133   9.174   3.428   1.653  0.7973 -1.0961  0.5085
11132SOL     OW35134   4.548   9.073   2.047 -0.3506  0.4422  0.1210
11132SOL    HW135135   4.502   9.096   1.967 -0.4007  0.6413  0.2069
11132SOL    HW235136   4.502   9.121   2.116  1.0931  2.0898 -0.0143
11133SOL     OW35137   5.288   7.760   4.417 -0.3381  0.6719 -0.1247
11133SOL    HW135138   5.251   7.768   4.329 -1.1353 -1.2390 -0.0185
11133SOL    HW235139   5.362   7.701   4.407 -0.8049 -0.0581  0.5530
11134SOL     OW35140   1.585   0.672   9.251  0.0418 -0.8106  0.3153
11134SOL    HW135141   1.609   0.625   9.171  0.1362  0.0544 -0.1755
11134SOL    HW235142   1.633   0.755   9.245  0.0382 -0.7274  1.2633
11135SOL     OW35143   3.256   0.674   9.445 -0.0172  0.4608  0.0353
11135SOL    HW135144   3.294   0.761   9.456 -1.8532  1.1893  1.2367
11135SOL    HW235145   3.240   0.643   9.535  0.3523 -1.0165 -0.3707
11136SOL     OW35146   4.037   9.535   5.962  0.3709 -0.1979  0.1533
11136SOL    HW135147   3.960   9.543   5.905  0.3286  0.7912  0.3289
11136SOL    HW235148   4.083   9.458   5.929  0.7738  0.7826 -1.7525
11137SOL     OW35149   6.387   5.607   2.619 -0.2731 -0.0513  1.2626
11137SOL    HW135150   6.473   5.567   2.604  0.2289  1.3658  0.2289
11137SOL    HW235151   6.402   5.672   2.687 -0.9249 -1.0242  2.3694
11138SOL     OW35152   7.870   1.954   2.048  0.0291  0.2375 -0.5051
11138SOL    HW135153   7.820   1.988   2.122 -0.1518 -2.5173  0.7663
11138SOL    HW235154   7.929   2.026   2.024 -0.5419  1.5478  1.7275
11139SOL     OW35155   5.567   0.452   1.869  0.1020  0.5552 -0.2137
11139SOL    HW135156   5.532   0.367   1.843 -0.8228  0.5833  0.8782
11139SOL    HW235157   5.557   0.507   1.791  0.6152 -0.2879 -0.8943
11140SOL     OW35158   2.831   5.813   3.040  0.0952  0.3709  0.2565
11140SOL    HW135159   2.799   5.865   3.113 -1.0462  0.8014 -0.5319
11140SOL    HW235160   2.899   5.757   3.078  1.5550  2.5994  1.0926
11141SOL     OW35161   5.767   9.058   9.539  0.2186  0.1489  0.2243
11141SOL    HW135162   5.745   9.148   9.514  1.7335  0.1772 -1.1090
11141SOL    HW235163   5.714   9.042   9.617 -0.2238  2.1257  0.3838
11142SOL     OW35164   8.369   6.369   8.641  0.0779  0.5174  0.2385
11142SOL    HW135165   8.453   6.330   8.667  1.1121  2.8125  0.6287
11142SOL    HW235166   8.391   6.423   8.565 -1.1673  0.7973  0.0642
11143SOL     OW35167   1.769   2.927   4.531  0.0140 -0.0936  0.1231
11143SOL    HW135168   1.765   3.010   4.484  0.8488  1.2125  2.2280
11143SOL    HW235169   1.715   2.941   4.609 -2.3303 -2.5835 -0.8607
11144SOL     OW35170   1.720   8.517   4.038 -0.1103 -0.3386 -0.3981
11144SOL    HW135171   1.815   8.529   4.027 -0.0173 -1.0482 -0.3862
11144SOL    HW235172   1.696   8.581   4.106  0.3979 -0.3059 -0.2441
11145SOL     OW35173   9.384   0.622   9.221  0.1789  0.4788  0.0961
11145SOL    HW135174   9.324   0.696   9.213  0.4258  0.6609 -0.0951
11145SOL    HW235175   9.404   0.599   9.130  1.0110  0.9184  0.1663
11146SOL     OW35176   6.070   8.151   5.468  0.6071 -0.2685  0.0360
11146SOL    HW135177   6.098   8.232   5.510  2.3622  0.3529 -2.1824
11146SOL    HW235178   5.974   8.154   5.473  0.6389  1.7676  0.2871
11147SOL     OW35179   3.053   3.134   4.102  0.1519 -0.1229  0.0720
11147SOL    HW135180   3.093   3.208   4.148  1.5011 -1.4826  1.1913
11147SOL    HW235181   2.965   3.128   4.138  0.9264 -0.6791  1.9931
11148SOL     OW35182   2.582   8.864   5.932 -0.2747 -0.2310 -0.3228
11148SOL    HW135183   2.624   8.947   5.955 -0.1578  0.3818 -2.5434
11148SOL    HW235184   2.489   8.880   5.943 -0.1869 -0.3195  0.7065
11149SOL     OW35185   0.160   0.612   3.371 -0.1450 -0.6185 -0.7009
11149SOL    HW135186   0.183   0.520   3.383 -2.4211 -1.2369 -0.6185
11149SOL    HW235187   0.078   0.623   3.419 -1.6468  0.5968 -3.3003
11150SOL     OW35188   5.518   7.291   2.958 -0.3117  0.0078 -0.1110
11150SOL    HW135189   5.441   7.271   3.011 -2.4736  1.1469 -2.5550
11150SOL    HW235190   5.500   7.379   2.923  2.4025  0.5492 -0.3248
11151SOL     OW35191   3.922   0.218   3.953  0.0267  0.5535 -0.2392
11151SOL    HW135192   3.966   0.248   3.873 -0.3792  2.4744  0.1993
11151SOL    HW235193   3.933   0.291   4.015 -2.7641  0.6536  0.2577
11152SOL     OW35194   8.429   5.082   5.396  0.3097 -0.2271 -0.3354
11152SOL    HW135195   8.490   5.154   5.381 -0.4852  0.0330 -2.8546
11152SOL    HW235196   8.349   5.108   5.350 -1.0315 -1.4434  1.1875
11153SOL     OW35197   7.468   6.186   8.469 -0.2470  0.0846  0.0574
11153SOL    HW135198   7.453   6.099   8.432  0.2456 -0.4030  0.9695
11153SOL    HW235199   7.381   6.219   8.490 -0.5250  0.2948 -1.3228
11154SOL     OW35200   0.027   8.787   2.320 -0.2324  0.4865 -0.0538
11154SOL    HW135201   0.016   8.696   2.294  0.1730  0.2564  0.5665
11154SOL    HW235202  -0.034   8.835   2.264  0.9411  0.0883 -1.7635
11155SOL     OW35203   1.073   5.596   9.021 -0.1375 -0.0888 -0.1178
11155SOL    HW135204   1.021   5.539   8.963  0.8174  0.3631 -1.4830
11155SOL    HW235205   1.107   5.537   9.089 -1.4987 -0.5879  0.1510
11156SOL     OW35206   8.929   2.649   3.931  0.7338  0.9390 -0.2781
11156SOL    HW135207   8.971   2.732   3.909 -0.1878  1.1997 -1.1190
11156SOL    HW235208   8.879   2.626   3.853 -0.0586  0.2484  0.4142
11157SOL     OW35209   2.421   8.784   8.171  0.2866 -0.1161  0.1739
11157SOL    HW135210   2.486   8.722   8.138  0.9351 -0.3299  1.7298
11157SOL    HW235211   2.467   8.867   8.175  0.8104 -0.4386  2.0934
11158SOL     OW35212   5.861   9.264   1.709  0.3418 -0.8329  0.3474
11158SOL    HW135213   5.948   9.303   1.722  0.4607 -1.1235  0.4282
11158SOL    HW235214   5.810   9.294   1.785  0.0249  0.2868 -0.2879
11159SOL     OW35215   3.291   1.661   4.674 -0.2062  0.0152  0.7228
11159SOL    HW135216   3.326   1.573   4.691 -0.1876 -0.2759 -0.6422
11159SOL    HW235217   3.366   1.710   4.639 -0.5773  0.0823 -0.0087
11160SOL     OW35218   6.521   0.044   0.590 -0.0840 -0.5753  0.5880
11160SOL    HW135219   6.431   0.012   0.598 -0.3657  0.3405  1.1912
11160SOL    HW235220   6.573  -0.019   0.640 -0.2712 -1.5297 -0.3802
11161SOL     OW35221   6.468   2.048   3.183  0.1183 -0.9530  0.3883
11161SOL    HW135222   6.473   1.969   3.128  0.2303 -1.4059  1.0399
11161SOL    HW235223   6.530   2.032   3.254 -1.3440 -1.1859  1.6584
11162SOL     OW35224   3.807   7.136   4.620  0.0833  0.2976 -0.3467
11162SOL    HW135225   3.765   7.197   4.680  0.8048  0.9720 -0.5088
11162SOL    HW235226   3.837   7.064   4.676  0.7284  0.9095  0.1133
11163SOL     OW35227   3.351   1.949   1.370  0.7227  0.5891  0.3800
11163SOL    HW135228   3.389   2.014   1.311 -1.4597  0.1681 -1.6534
11163SOL    HW235229   3.406   1.871   1.359  1.8105  1.2623  0.8603
11164SOL     OW35230   8.645   6.368   3.023 -0.1952 -0.1906  0.2301
11164SOL    HW135231   8.717   6.321   2.982  0.8783  0.8780  0.8401
11164SOL    HW235232   8.594   6.300   3.067  0.7396 -0.8973  0.2486
11165SOL     OW35233   5.477   0.133   6.683 -0.7699  0.4112  0.7229
11165SOL    HW135234   5.530   0.134   6.603 -1.6267  1.0836  0.1422
11165SOL    HW235235   5.524   0.190   6.743 -0.8602  1.0580  0.1882
11166SOL     OW35236   8.050   7.215   8.114 -0.2732 -0.2913  0.6257
11166SOL    HW135237   8.071   7.235   8.205  0.0757  0.2493  0.4332
11166SOL    HW235238   8.133   7.183   8.077 -0.5344 -0.9926  0.6196
11167SOL     OW35239   6.222   2.746   3.531 -0.4466  0.4686  0.9969
11167SOL    HW135240   6.288   2.712   3.592  0.7754 -0.5626 -0.8042
11167SOL    HW235241   6.249   2.713   3.446 -4.5560 -1.9966  0.3894
11168SOL     OW35242   2.212   6.791   2.986 -0.1375 -0.1950 -0.1402
11168SOL    HW135243   2.121   6.775   3.012 -0.1747 -0.5870 -0.5005
11168SOL    HW235244   2.256   6.706   2.997  0.1512 -0.0412 -0.0983
11169SOL     OW35245   0.141   4.477   0.952  0.2563  0.3169 -0.0383
11169SOL    HW135246   0.137   4.399   1.007 -0.1190  0.5294  0.2371
11169SOL    HW235247   0.088   4.456   0.876  0.1410  0.3110  0.0438
11170SOL     OW35248   1.932   2.192   0.505  0.3884  0.3904 -0.2935
11170SOL    HW135249   1.839   2.208   0.521  0.3306 -0.0987 -0.1403
11170SOL    HW235250   1.972   2.193   0.592 -0.2542 -4.4611  0.2864
11171SOL     OW35251   7.935   8.956   2.349 -0.1986 -0.1955 -0.1587
11171SOL    HW135252   7.877   9.008   2.294 -0.5364 -1.0089 -0.5937
11171SOL    HW235253   7.881   8.882   2.377  1.7216 -3.6657 -4.3968
11172SOL     OW35254   6.805   9.547   1.837  0.1773  0.0443  0.0899
11172SOL    HW135255   6.779   9.588   1.755 -0.3880 -0.0733  0.2011
11172SOL    HW235256   6.816   9.454   1.816  0.4759  0.0916  0.0471
11173SOL     OW35257   9.046   7.953   1.012  0.1219 -0.3100 -0.3398
11173SOL    HW135258   9.123   7.918   1.058 -0.7090  2.4771  3.7815
11173SOL    HW235259   9.075   8.038   0.978 -0.3044 -0.7159 -1.7607
11174SOL     OW35260   4.481   0.752   1.592  0.4328  0.2302  0.3113
11174SOL    HW135261   4.493   0.725   1.501  0.4704 -1.2481  0.7311
11174SOL    HW235262   4.570   0.762   1.626  0.4340 -0.6838  0.5908
11175SOL     OW35263   0.770   5.950   0.565 -0.4889 -0.6628 -0.4548
11175SOL    HW135264   0.825   6.016   0.522  0.6472  0.5259  2.5342
11175SOL    HW235265   0.799   5.867   0.528  2.1155  0.0743 -0.2584
11176SOL     OW35266   7.023   1.939   8.273 -0.3564 -0.1873 -0.0851
11176SOL    HW135267   6.960   1.875   8.239 -1.3034  0.6529  0.0426
11176SOL    HW235268   6.971   1.995   8.331  0.8566 -0.4861  1.3441
11177SOL     OW35269   7.375   6.550   3.506 -0.7681 -0.0988  0.4597
11177SOL    HW135270   7.438   6.618   3.530 -1.1071 -0.1732  1.6450
11177SOL    HW235271   7.398   6.475   3.561 -2.6325  0.2841  1.8636
11178SOL     OW35272   1.155   0.593   1.941  0.1901  0.1426  0.6096
11178SOL    HW135273   1.109   0.668   1.978 -0.1412  0.7451 -0.9852
11178SOL    HW235274   1.174   0.618   1.851  2.5833 -0.5678  0.8455
11179SOL     OW35275   1.932   0.297   3.360  0.3039  0.3689  0.0427
11179SOL    HW135276   1.901   0.338   3.441 -0.0532  0.3489 -0.0824
11179SOL    HW235277   1.884   0.342   3.290 -1.4365 -1.4375 -0.0095
11180SOL     OW35278   4.888   4.719   1.686  0.1344 -0.3353 -0.7137
11180SOL    HW135279   4.874   4.813   1.686 -0.7443 -0.4637 -0.6694
11180SOL    HW235280   4.978   4.708   1.655  1.4462  0.6807  2.3193
11181SOL     OW35281   0.346   2.123   7.212 -0.2150 -0.4205  0.1283
11181SOL    HW135282   0.277   2.138   7.277  0.0357 -0.3451  0.3776
11181SOL    HW235283   0.299   2.098   7.133 -0.6068  0.9117 -0.0874
11182SOL     OW35284   0.340   8.771   5.122  0.2339 -0.2937 -0.4777
11182SOL    HW135285   0.306   8.722   5.047  1.0930 -1.4881 -0.1286
11182SOL    HW235286   0.385   8.846   5.083 -0.3607 -0.2411 -1.0798
11183SOL     OW35287   5.975   9.015   7.249 -0.1574  0.0139 -0.1800
11183SOL    HW135288   5.910   8.945   7.237  0.1689 -0.0766 -1.6574
11183SOL    HW235289   5.951   9.081   7.183  0.6196  0.4659 -0.0247
11184SOL     OW35290   5.865   5.251   5.731  0.1582  0.4008  0.0014
11184SOL    HW135291   5.800   5.312   5.765  1.5753  2.3595 -0.6258
11184SOL    HW235292   5.883   5.282   5.642  1.1818 -0.7317 -0.2147
11185SOL     OW35293   5.531   5.984   2.022 -0.0777 -0.7020 -0.2145
11185SOL    HW135294   5.603   5.947   1.972 -1.0640 -2.6844 -0.2661
11185SOL    HW235295   5.458   5.922   2.009 -0.9870 -0.1825  1.9563
11186SOL     OW35296   3.374   8.422   0.776  0.1739  0.8736 -0.2380
11186SOL    HW135297   3.316   8.431   0.701 -2.1536  0.1070  1.3453
11186SOL    HW235298   3.325   8.460   0.849  2.0530  0.9718  1.0486
11187SOL     OW35299   6.873   8.822   5.870 -0.1304 -0.2962  0.6388
11187SOL    HW135300   6.827   8.744   5.900  0.6181 -0.6153  0.9920
11187SOL    HW235301   6.824   8.852   5.794 -0.6180 -0.9183  0.7044
11188SOL     OW35302   2.624   9.556   0.090 -0.0573 -0.5969  0.0034
11188SOL    HW135303   2.629   9.528  -0.001  1.1301  1.1582 -0.5266
11188SOL    HW235304   2.661   9.483   0.140  4.0653  0.2360 -1.4006
11189SOL     OW35305   4.445   7.788   1.656 -0.3406 -0.0587  0.7620
11189SOL    HW135306   4.349   7.795   1.647 -0.1353 -0.3129 -3.7449
11189SOL    HW235307   4.475   7.879   1.659 -0.6382  0.0235  1.7849
11190SOL     OW35308   7.165   3.880   8.671  0.6008  0.0550 -0.4114
11190SOL    HW135309   7.103   3.897   8.600  1.6448 -0.0819 -1.3870
11190SOL    HW235310   7.111   3.875   8.749 -0.7008 -0.8071 -1.3277
11191SOL     OW35311   2.759   3.038   3.092 -0.0287 -0.0210  0.2228
11191SOL    HW135312   2.744   3.132   3.083  0.5771 -0.0102 -0.7468
11191SOL    HW235313   2.854   3.028   3.095 -0.0891 -0.6028  0.3395
11192SOL     OW35314   8.287   5.856   1.646  0.4065 -0.1911 -0.3196
11192SOL    HW135315   8.213   5.819   1.600  0.7026 -0.3302 -0.6899
11192SOL    HW235316   8.329   5.781   1.689 -0.3057  0.0386  0.8206
11193SOL     OW35317   6.021   1.328   9.163 -0.0454  0.5050 -0.6628
11193SOL    HW135318   5.984   1.416   9.171 -0.0413  0.4067  0.5090
11193SOL    HW235319   5.953   1.278   9.117 -0.0172  1.1227 -1.3989
11194SOL     OW35320   3.151   2.907   7.799 -0.1204  0.4126  0.0793
11194SOL    HW135321   3.157   2.934   7.890  0.4459  0.1942  0.1135
11194SOL    HW235322   3.219   2.958   7.754 -0.7661  0.9254 -0.3199
11195SOL     OW35323   7.545   7.493   8.460  0.4810 -0.3256  0.1854
11195SOL    HW135324   7.507   7.568   8.506  0.4732 -0.6847  0.7683
11195SOL    HW235325   7.475   7.429   8.456  0.5955 -0.4394  0.0029
11196SOL     OW35326   4.087   7.445   1.332 -0.8791  0.0102  0.0421
11196SOL    HW135327   4.065   7.356   1.305 -1.1993  0.7910 -2.5478
11196SOL    HW235328   4.003   7.489   1.344 -0.8125  0.7760 -1.8673
11197SOL     OW35329   7.344   2.338   7.581 -0.0764  0.3847 -0.2496
11197SOL    HW135330   7.417   2.293   7.623  0.9197  1.7264 -0.4579
11197SOL    HW235331   7.291   2.370   7.654  0.4973  0.8791 -0.0378
11198SOL     OW35332   3.889   1.878   0.521  0.6205  0.2508  0.1354
11198SOL    HW135333   3.889   1.783   0.508 -0.4322  0.0369  1.5087
11198SOL    HW235334   3.982   1.902   0.521  0.8744 -0.6338 -1.0969
11199SOL     OW35335   8.069   7.277   2.618  0.3271  0.1033 -0.1517
11199SOL    HW135336   7.995   7.337   2.626  0.6305  0.4421  0.1398
11199SOL    HW235337   8.047   7.223   2.542 -1.6433 -1.7861  1.6223
11200SOL     OW35338   2.576   3.590   6.844 -0.1904 -0.3635 -0.4225
11200SOL    HW135339   2.660   3.576   6.889 -1.0915 -0.4833  1.3266
11200SOL    HW235340   2.545   3.674   6.878  0.1427  0.7504 -2.6578
11201SOL     OW35341   5.354   6.517   2.478 -0.5308  0.3509  0.2071
11201SOL    HW135342   5.309   6.440   2.444 -1.3513  0.4358  1.0574
11201SOL    HW235343   5.285   6.579   2.499  0.1641  1.6552 -1.1800
11202SOL     OW35344   8.185   5.780   2.481 -0.1910 -0.4070 -0.3712
11202SOL    HW135345   8.176   5.700   2.430 -1.5102 -0.8759  0.5262
11202SOL    HW235346   8.095   5.813   2.489  0.2586  0.8494 -0.2260
11203SOL     OW35347   4.762   5.353   4.989 -0.5692 -0.1244 -0.0993
11203SOL    HW135348   4.750   5.448   4.992  0.8088  0.0643  0.1745
11203SOL    HW235349   4.798   5.331   5.075 -1.8638 -1.0604  0.2236
11204SOL     OW35350   3.116   0.393   0.494 -0.3422  0.4889  0.3974
11204SOL    HW135351   3.024   0.383   0.519 -0.9900  0.8194 -1.6688
11204SOL    HW235352   3.135   0.486   0.510 -0.3600  0.4196  0.8285
11205SOL     OW35353   4.395   2.787   7.369  0.1919 -0.0539 -0.6189
11205SOL    HW135354   4.390   2.812   7.277  0.2783 -0.2998 -0.6907
11205SOL    HW235355   4.333   2.714   7.377  1.6442 -1.3674 -0.9236
11206SOL     OW35356   0.805   0.147   8.385  0.0527  0.0602 -0.9130
11206SOL    HW135357   0.728   0.176   8.337 -0.9035 -1.7991 -0.5808
11206SOL    HW235358   0.848   0.084   8.328  0.0038 -0.6803 -0.1557
11207SOL     OW35359   4.974   6.915   6.822 -0.0765  0.1907 -0.3242
11207SOL    HW135360   4.970   6.939   6.729  0.5245 -2.3640 -1.0939
11207SOL    HW235361   5.055   6.865   6.830 -0.9410 -1.0596  1.1832
11208SOL     OW35362   1.889   2.736   6.520  0.1252  0.8578 -0.6566
11208SOL    HW135363   1.963   2.725   6.579  0.2205  2.0647 -0.5152
11208SOL    HW235364   1.911   2.683   6.443  1.5673  1.8619 -0.9885
11209SOL     OW35365   7.761   8.758   1.171  0.4752  0.0722  0.1061
11209SOL    HW135366   7.694   8.777   1.238  0.7078 -1.3352  0.7629
11209SOL    HW235367   7.715   8.769   1.088 -0.0797  0.8949  0.5037
11210SOL     OW35368   3.700   9.202   5.007  0.3498 -0.1122 -0.0212
11210SOL    HW135369   3.753   9.185   4.930  1.6756  0.3431  0.7472
11210SOL    HW235370   3.745   9.156   5.078  0.9820  1.9956  1.0598
11211SOL     OW35371   0.547   1.149   8.918 -0.2232  0.5914  0.4782
11211SOL    HW135372   0.497   1.222   8.881  0.8472  1.8088  1.3390
11211SOL    HW235373   0.576   1.098   8.842 -1.4823  0.7064 -0.1000
11212SOL     OW35374   1.378   4.274   4.864 -0.3982  0.1697  0.6189
11212SOL    HW135375   1.296   4.286   4.817  0.1044 -1.9370 -0.9430
11212SOL    HW235376   1.352   4.248   4.952 -1.4163 -0.3594  0.1785
11213SOL     OW35377   8.939   4.511   1.040  0.6327  0.2189  0.5000
11213SOL    HW135378   8.992   4.579   0.998  0.1972 -0.3749 -1.1232
11213SOL    HW235379   8.863   4.501   0.982  0.1922 -0.9504  1.2333
11214SOL     OW35380   4.569   2.806   1.022  0.0265 -0.4635  0.3021
11214SOL    HW135381   4.618   2.886   1.001 -2.9060  1.5449  0.4651
11214SOL    HW235382   4.634   2.736   1.014  2.6189  1.8127 -0.5172
11215SOL     OW35383   8.702   7.598   4.476  0.1485 -0.0710  0.0988
11215SOL    HW135384   8.707   7.578   4.383 -0.3976  0.0811  0.0304
11215SOL    HW235385   8.636   7.537   4.510  0.4187 -0.1964  0.4079
11216SOL     OW35386   9.248   6.099   4.080 -0.1378  0.3258  0.1196
11216SOL    HW135387   9.260   6.004   4.076 -0.5155  0.2906 -0.2149
11216SOL    HW235388   9.181   6.113   4.146 -0.2222  0.3481  0.0286
11217SOL     OW35389   1.856   2.653   7.418 -0.3227  0.3884  0.1574
11217SOL    HW135390   1.893   2.579   7.467  0.1621 -0.4655 -1.4232
11217SOL    HW235391   1.794   2.612   7.357 -0.2635  1.3047 -0.5357
11218SOL     OW35392   6.954   8.773   4.113  0.1293  0.1244 -0.4593
11218SOL    HW135393   6.922   8.758   4.202  2.7338  1.1282  0.7502
11218SOL    HW235394   6.970   8.685   4.079  1.0802 -0.2578  0.8876
11219SOL     OW35395   2.669   7.956   4.897 -0.3460 -0.2880  0.5819
11219SOL    HW135396   2.625   8.039   4.878 -1.4174 -0.9976 -0.1340
11219SOL    HW235397   2.631   7.927   4.980  0.8471  0.4577  1.4241
11220SOL     OW35398   8.398   2.607   0.256 -0.3382 -0.6337 -0.0718
11220SOL    HW135399   8.491   2.585   0.248  0.0954  0.9909 -0.0299
11220SOL    HW235400   8.382   2.606   0.351  0.2874  1.3327  0.1031
11221SOL     OW35401   0.267   6.103   5.837  0.2878  0.1425 -0.6068
11221SOL    HW135402   0.270   6.054   5.755  1.2705 -0.0864 -0.4447
11221SOL    HW235403   0.253   6.036   5.904 -0.8948  0.3695 -0.6092
11222SOL     OW35404   0.427   3.572   5.187  0.1205 -0.3968  0.2357
11222SOL    HW135405   0.457   3.512   5.256 -1.5926 -0.4758  0.9522
11222SOL    HW235406   0.405   3.515   5.114  1.9882 -0.3095 -0.4623
11223SOL     OW35407   5.434   3.364   2.246  0.1844 -0.3660  0.0355
11223SOL    HW135408   5.428   3.273   2.273 -0.2365 -0.4338 -0.2701
11223SOL    HW235409   5.412   3.363   2.152  1.4928 -0.1245 -0.3009
11224SOL     OW35410   1.774   6.430   1.552  0.0449 -0.3370 -0.1006
11224SOL    HW135411   1.761   6.344   1.590  1.5057  0.5903  2.7579
11224SOL    HW235412   1.868   6.437   1.539 -0.1907  0.3124 -1.7283
11225SOL     OW35413   0.465   1.226   7.341 -0.4862  0.6033 -0.0962
11225SOL    HW135414   0.556   1.248   7.326 -0.3725  0.3991  0.2972
11225SOL    HW235415   0.417   1.272   7.271  0.0282 -0.2596 -1.0384
11226SOL     OW35416   8.165   1.551   2.086 -0.2477 -0.4129  0.2246
11226SOL    HW135417   8.207   1.636   2.098  3.0764 -1.3876 -2.6502
11226SOL    HW235418   8.082   1.571   2.042  0.1690  1.3768  0.1723
11227SOL     OW35419   6.346   2.610   3.762 -1.2150 -0.5251 -0.0624
11227SOL    HW135420   6.414   2.565   3.813 -0.1076  0.0270 -1.0218
11227SOL    HW235421   6.352   2.701   3.790  1.9153  0.6162 -3.5857
11228SOL     OW35422   4.629   4.386   5.087  0.3238 -0.1196  0.0306
11228SOL    HW135423   4.673   4.431   5.015  1.2244 -0.0946  0.5780
11228SOL    HW235424   4.615   4.455   5.153 -2.6320  0.4167 -0.9936
11229SOL     OW35425   0.321   0.960   4.324 -0.4694 -0.2728 -0.4160
11229SOL    HW135426   0.403   0.931   4.363 -1.5837  0.0843  2.4650
11229SOL    HW235427   0.344   1.037   4.272  1.0305 -0.2996  0.1807
11230SOL     OW35428   2.288   4.682   9.533 -0.0399  0.3773 -1.1640
11230SOL    HW135429   2.365   4.689   9.591 -0.9663 -0.1837  0.1903
11230SOL    HW235430   2.249   4.770   9.536 -0.7756  0.0357  0.1099
11231SOL     OW35431   6.659   6.264   3.645  0.3617  0.1212 -0.2352
11231SOL    HW135432   6.614   6.325   3.587  1.2477  0.8796 -0.1600
11231SOL    HW235433   6.590   6.209   3.681 -0.4300  0.8938 -0.5357
11232SOL     OW35434   2.238   7.841   1.669 -0.1450  0.1183 -0.3608
11232SOL    HW135435   2.261   7.775   1.604  1.3820  0.5936 -0.3579
11232SOL    HW235436   2.179   7.900   1.623 -1.8045 -1.3997 -0.2579
11233SOL     OW35437   9.525   4.951   1.718  0.3286 -0.2148  0.2031
11233SOL    HW135438   9.585   5.020   1.746  0.6107 -0.0679 -0.7270
11233SOL    HW235439   9.579   4.872   1.715  0.1143 -0.3917  0.8160
11234SOL     OW35440   2.849   5.459   2.245  0.2397 -0.1098  0.1673
11234SOL    HW135441   2.891   5.416   2.171  0.5224 -0.0113  0.2697
11234SOL    HW235442   2.808   5.387   2.295  0.4040 -0.2199  0.1436
11235SOL     OW35443   8.529   2.011   5.987 -0.1865 -0.1421 -0.2013
11235SOL    HW135444   8.600   1.975   6.040  0.8140  1.2647 -0.5376
11235SOL    HW235445   8.533   2.105   6.001 -2.4177 -0.0426  0.2613
11236SOL     OW35446   6.682   1.635   4.018  0.2290  0.3298 -0.0602
11236SOL    HW135447   6.603   1.602   4.060 -0.3320 -1.6669 -2.4821
11236SOL    HW235448   6.729   1.681   4.088 -2.2884  0.2525  1.8147
11237SOL     OW35449   8.152   0.358   2.455  0.3442  0.3274  0.1126
11237SOL    HW135450   8.120   0.437   2.412 -1.5868 -0.3014  0.2734
11237SOL    HW235451   8.090   0.343   2.526  1.1278 -0.8997  0.5745
11238SOL     OW35452   0.541   4.129   5.646 -0.2269  0.6653  0.3548
11238SOL    HW135453   0.508   4.185   5.576  0.8740  1.9942  0.8490
11238SOL    HW235454   0.583   4.190   5.707 -0.8227 -0.4964  1.9772
11239SOL     OW35455   5.197   3.837   2.280  0.0141  0.4637 -0.3020
11239SOL    HW135456   5.172   3.765   2.222  2.4305  1.1891 -2.4603
11239SOL    HW235457   5.169   3.916   2.235 -0.5416  1.0037  0.9299
11240SOL     OW35458   4.654   2.569   1.507  0.3452 -0.3531  0.3392
11240SOL    HW135459   4.620   2.617   1.432  1.5476 -0.4964 -0.3327
11240SOL    HW235460   4.606   2.603   1.582  0.6805  1.4089 -0.2075
11241SOL     OW35461   4.772   4.007   9.234  0.3495 -0.0814  0.3906
11241SOL    HW135462   4.819   3.928   9.260  1.7994  0.9908  1.2124
11241SOL    HW235463   4.746   4.047   9.317  2.5187  1.9316  0.2133
11242SOL     OW35464   4.354   1.427   2.931  0.3812  0.3997  0.1874
11242SOL    HW135465   4.261   1.402   2.931  0.4527  0.1075 -0.4501
11242SOL    HW235466   4.362   1.492   2.862  0.9330 -0.7301 -0.8582
11243SOL     OW35467   2.843   3.844   6.962  0.1404 -0.0248 -0.5462
11243SOL    HW135468   2.786   3.839   6.885 -0.9538  3.1539 -0.1105
11243SOL    HW235469   2.787   3.822   7.036  0.1431  0.6433 -0.3383
11244SOL     OW35470   0.737   8.191   6.962  0.0966 -0.2441  0.2035
11244SOL    HW135471   0.755   8.285   6.963  0.7437 -0.3520 -0.3917
11244SOL    HW235472   0.822   8.150   6.977 -0.0457 -0.7431 -0.3061
11245SOL     OW35473   4.031   0.929   6.119 -0.2504  0.3039  0.3493
11245SOL    HW135474   4.121   0.956   6.135  0.3446 -1.2213 -0.3002
11245SOL    HW235475   4.038   0.844   6.076 -1.9480  1.2460 -1.9938
11246SOL     OW35476   2.295   6.626   1.640 -0.0453 -0.1082 -0.1038
11246SOL    HW135477   2.319   6.705   1.592 -1.0882  0.3971  0.1655
11246SOL    HW235478   2.308   6.648   1.732 -0.9230 -0.0238  0.0103
11247SOL     OW35479   7.423   9.003   2.641 -0.1259  0.8311  0.1120
11247SOL    HW135480   7.365   8.937   2.679  0.6453  0.2843  0.3430
11247SOL    HW235481   7.511   8.967   2.650  0.1571  1.0841 -1.3748
11248SOL     OW35482   1.467   6.743   6.748 -0.2350  0.1345 -0.3439
11248SOL    HW135483   1.548   6.716   6.705 -2.1704 -4.3794 -1.7954
11248SOL    HW235484   1.484   6.732   6.841  1.3271  1.2664 -0.4461
11249SOL     OW35485   9.093   8.604   0.151  0.0801 -0.0623  0.2639
11249SOL    HW135486   9.077   8.649   0.068 -0.5642 -0.3630  0.2142
11249SOL    HW235487   9.017   8.547   0.162  0.0007  0.2024  1.2155
11250SOL     OW35488   8.788   7.359   6.862 -0.1130 -0.1637 -0.6641
11250SOL    HW135489   8.770   7.282   6.916  0.0131  1.9606  2.7438
11250SOL    HW235490   8.883   7.355   6.845 -0.2253 -1.0733 -1.1122
11251SOL     OW35491   4.155   5.654   5.138 -0.5272 -0.0890  0.2875
11251SOL    HW135492   4.201   5.584   5.091 -0.2174  0.5768 -0.4304
11251SOL    HW235493   4.210   5.672   5.214 -0.0804  0.0612 -0.0671
11252SOL     OW35494   3.933   5.558   7.091  0.3473  0.5588  0.2990
11252SOL    HW135495   3.843   5.541   7.065 -0.4485  1.4365  2.2663
11252SOL    HW235496   3.950   5.647   7.062  0.7524  0.2430 -0.4565
11253SOL     OW35497   3.651   8.953   1.392 -0.0589 -0.0378 -0.3713
11253SOL    HW135498   3.740   8.988   1.384 -0.0824  0.6138  1.5427
11253SOL    HW235499   3.594   9.030   1.389 -0.3759 -0.2245  0.5279
11254SOL     OW35500   1.638   4.300   9.098 -0.0275  0.0276 -0.3956
11254SOL    HW135501   1.670   4.384   9.130  2.9141 -1.6734  1.5634
11254SOL    HW235502   1.649   4.305   9.003  0.9232  1.5645 -0.2359
11255SOL     OW35503   4.436   4.522   0.732  0.0056 -0.1093 -0.5781
11255SOL    HW135504   4.393   4.446   0.692 -1.2203  0.6969 -0.8649
11255SOL    HW235505   4.392   4.597   0.693 -0.5489  0.7388  1.5203
11256SOL     OW35506   8.587   8.830   1.616  0.2010  0.0002 -0.0817
11256SOL    HW135507   8.650   8.888   1.659 -0.0158 -0.9098  1.5385
11256SOL    HW235508   8.586   8.751   1.670 -0.5727 -0.9526 -1.4292
11257SOL     OW35509   7.938   8.151   2.687  0.0649  0.8631 -0.0765
11257SOL    HW135510   8.009   8.096   2.723 -1.7157  0.2834  2.8652
11257SOL    HW235511   7.947   8.234   2.733 -1.2348  0.7083  0.5076
11258SOL     OW35512   5.814   0.717   2.185  0.4673 -0.2859  0.6383
11258SOL    HW135513   5.792   0.724   2.278  1.2033 -1.5356  0.9263
11258SOL    HW235514   5.826   0.807   2.156 -2.6902  0.3757  0.9979
11259SOL     OW35515   6.248   7.674   8.495 -0.9452 -0.0625 -0.2686
11259SOL    HW135516   6.180   7.735   8.464 -0.7445 -0.2793 -1.1784
11259SOL    HW235517   6.322   7.689   8.436 -1.3692 -2.1348 -1.4203
11260SOL     OW35518   2.754   5.396   0.754  0.1070 -0.0019 -0.1214
11260SOL    HW135519   2.696   5.472   0.744 -0.4783  0.0349  2.6768
11260SOL    HW235520   2.698   5.329   0.794  1.0405 -1.3582 -1.0217
11261SOL     OW35521   4.159   2.009   5.831  0.5422  0.3125 -0.2473
11261SOL    HW135522   4.130   2.099   5.844  1.7467  0.5393  1.1691
11261SOL    HW235523   4.172   1.974   5.920  2.3907 -0.4556 -0.7588
11262SOL     OW35524   2.434   5.121   3.839 -0.4749 -0.4091  0.8201
11262SOL    HW135525   2.483   5.146   3.918  0.6708 -0.9297  0.2915
11262SOL    HW235526   2.432   5.200   3.786  2.2894 -1.0807 -0.4112
11263SOL     OW35527   2.109   1.182   5.677 -0.7275 -0.0084  0.1040
11263SOL    HW135528   2.016   1.163   5.690 -0.5162 -1.5912 -0.4822
11263SOL    HW235529   2.115   1.211   5.585 -0.5876 -0.2807  0.0274
11264SOL     OW35530   7.725   4.965   7.243  0.2161  0.0192  0.0761
11264SOL    HW135531   7.663   4.895   7.266  0.5764 -1.1280 -2.1461
11264SOL    HW235532   7.671   5.030   7.198  0.5774 -1.1391 -2.1676
11265SOL     OW35533   6.463   2.831   5.175 -0.1938 -0.0260 -0.2089
11265SOL    HW135534   6.403   2.757   5.166  0.3812 -0.4685 -0.4334
11265SOL    HW235535   6.455   2.879   5.092 -1.0135  0.5187  0.1623
11266SOL     OW35536   1.382   0.628   1.481 -0.0858 -0.6210  0.1759
11266SOL    HW135537   1.440   0.554   1.497  0.0580 -0.9810 -1.8088
11266SOL    HW235538   1.440   0.697   1.447 -0.2883  0.2831  1.5763
11267SOL     OW35539   1.629   4.410   7.756 -0.0573 -0.4836  0.2513
11267SOL    HW135540   1.686   4.487   7.761 -0.0814 -0.1580 -2.5570
11267SOL    HW235541   1.602   4.394   7.846  0.7551  2.1883  1.0693
11268SOL     OW35542   1.451   1.807   0.389  0.4704 -0.1764  0.2270
11268SOL    HW135543   1.464   1.891   0.345  1.4222  0.2459  1.2822
11268SOL    HW235544   1.446   1.829   0.482 -2.5887 -0.9241  0.3592
11269SOL     OW35545   7.211   4.706   2.796 -0.3666  0.7646 -0.4132
11269SOL    HW135546   7.262   4.645   2.849 -0.9784  0.4427 -0.1839
11269SOL    HW235547   7.127   4.713   2.842 -0.7891  0.7283 -1.1685
11270SOL     OW35548   0.691   2.341   1.645  0.0298  0.1455  0.2700
11270SOL    HW135549   0.634   2.346   1.568  0.2149 -1.6457 -0.0324
11270SOL    HW235550   0.740   2.423   1.644 -0.6869  0.5951 -0.9353
11271SOL     OW35551   7.344   1.783   4.516 -0.2697 -0.1255  0.3936
11271SOL    HW135552   7.326   1.713   4.453 -0.0111  0.6594 -0.5662
11271SOL    HW235553   7.263   1.834   4.519  0.1168  0.5492 -0.2421
11272SOL     OW35554   8.138   0.289   3.393 -0.3538 -0.0428 -0.1270
11272SOL    HW135555   8.055   0.273   3.439  0.2911  0.7562  1.3978
11272SOL    HW235556   8.133   0.233   3.315 -1.7051 -1.1068  0.6619
11273SOL     OW35557   0.443   5.097   1.600 -0.4656  0.5916  0.2394
11273SOL    HW135558   0.515   5.038   1.577  1.3049  0.2623  5.4234
11273SOL    HW235559   0.375   5.040   1.637 -1.5898  1.3269 -0.5901
11274SOL     OW35560   0.876   1.066   9.105 -0.0227  0.2614 -0.0785
11274SOL    HW135561   0.953   1.089   9.158 -0.4130 -0.7971  1.0172
11274SOL    HW235562   0.805   1.117   9.144 -0.4107 -0.8924  0.7948
11275SOL     OW35563   3.342   6.695   1.810  0.0059 -0.2169 -0.1077
11275SOL    HW135564   3.256   6.691   1.850  0.2643  2.4543  0.9279
11275SOL    HW235565   3.401   6.718   1.882  1.3824 -0.6974 -1.0394
11276SOL     OW35566   9.333   4.307   8.100  0.1135  0.1345  0.7458
11276SOL    HW135567   9.426   4.324   8.112  0.4584 -1.0677 -0.0880
11276SOL    HW235568   9.329   4.229   8.044 -1.3889  0.5750  0.1734
11277SOL     OW35569   2.790   9.047   8.764 -0.1752  0.2737  0.3606
11277SOL    HW135570   2.768   9.102   8.689  1.6295 -0.9761 -1.1630
11277SOL    HW235571   2.748   8.963   8.746  2.4348 -0.8932 -0.6695
11278SOL     OW35572   2.448   2.624   7.917 -0.7864  0.2989 -0.7554
11278SOL    HW135573   2.516   2.673   7.965 -0.4707 -0.5680 -0.2896
11278SOL    HW235574   2.480   2.621   7.827 -0.8082  0.9440 -0.7885
11279SOL     OW35575   3.919   7.874   0.794  0.2755  0.4915  0.0573
11279SOL    HW135576   3.937   7.781   0.780  1.1591  0.8969 -1.8973
11279SOL    HW235577   3.870   7.877   0.876  1.2671 -1.5792  0.8108
11280SOL     OW35578   0.388   0.080   2.651  0.1063 -0.3913 -0.1244
11280SOL    HW135579   0.475   0.071   2.689  1.4590  0.1614 -2.8163
11280SOL    HW235580   0.385   0.013   2.582 -0.9483  0.6244 -1.1080
11281SOL     OW35581   0.336   7.805   2.207 -0.4157 -0.1944 -0.3201
11281SOL    HW135582   0.246   7.823   2.180 -0.3851  1.3657  0.4685
11281SOL    HW235583   0.329   7.735   2.271 -1.0978  0.0421 -0.1303
11282SOL     OW35584   4.944   1.956   7.468  0.1110  0.3636  0.2149
11282SOL    HW135585   5.030   1.972   7.428  0.8265 -0.3212  1.4075
11282SOL    HW235586   4.882   1.964   7.396  0.9986  2.3690 -0.4017
11283SOL     OW35587   3.203   0.609   5.081  0.1233 -0.3728  0.2924
11283SOL    HW135588   3.192   0.517   5.056  1.8850 -0.5997  0.2225
11283SOL    HW235589   3.280   0.638   5.031  0.8244  0.5403  1.8418
11284SOL     OW35590   2.954   4.485   6.740  0.4648  0.2902  0.5739
11284SOL    HW135591   2.960   4.438   6.823  0.5062 -1.5459 -0.4175
11284SOL    HW235592   2.866   4.521   6.738 -0.0428 -0.9146  0.7869
11285SOL     OW35593   1.990   4.540   0.933  0.2143 -0.3377  0.5302
11285SOL    HW135594   2.031   4.461   0.897 -1.0778 -0.6525 -0.3475
11285SOL    HW235595   1.907   4.547   0.885  0.4496  1.7554  0.3334
11286SOL     OW35596   0.115   7.422   5.212 -0.1222  0.3302 -0.4606
11286SOL    HW135597   0.134   7.377   5.129  0.5048  1.0274 -0.7119
11286SOL    HW235598   0.196   7.470   5.232 -0.1501 -0.0888  0.7353
11287SOL     OW35599   8.673   9.491   7.409 -0.2908 -0.0606  0.0133
11287SOL    HW135600   8.678   9.491   7.505  1.1350 -1.1441 -0.0234
11287SOL    HW235601   8.715   9.409   7.383  1.0495  1.0764 -1.6050
11288SOL     OW35602   5.891   4.881   8.432 -0.2406  0.1299  0.2361
11288SOL    HW135603   5.798   4.872   8.411 -0.3621  1.9485 -0.1495
11288SOL    HW235604   5.932   4.901   8.349  0.3735  0.1527  0.5420
11289SOL     OW35605   7.155   1.987   2.847 -0.6247  0.1748  0.3870
11289SOL    HW135606   7.166   2.064   2.903 -1.2303  0.1528  0.5415
11289SOL    HW235607   7.199   2.011   2.765  1.2417 -0.2112  1.2224
11290SOL     OW35608   7.876   0.996   0.014  0.2734 -0.1330 -0.2674
11290SOL    HW135609   7.915   1.071  -0.032 -0.2674  1.0834  1.1622
11290SOL    HW235610   7.938   0.925   0.001  1.3941  0.8800 -0.6943
11291SOL     OW35611   2.905   6.873   8.128 -0.3374 -0.0415  0.3717
11291SOL    HW135612   2.920   6.878   8.223  0.2636  2.4995  0.1983
11291SOL    HW235613   2.993   6.876   8.090 -0.3699 -3.6374 -0.3060
11292SOL     OW35614   3.989   2.830   7.301 -0.3686 -0.0436  0.0116
11292SOL    HW135615   3.906   2.862   7.337 -0.3265 -0.7089  0.7355
11292SOL    HW235616   4.000   2.878   7.219 -1.4821  0.0274 -0.1104
11293SOL     OW35617   6.116   5.613   4.347 -0.2546 -0.1173 -0.0133
11293SOL    HW135618   6.202   5.638   4.379  0.1823 -0.7009 -0.7003
11293SOL    HW235619   6.063   5.693   4.356  0.8597  0.8161 -1.3136
11294SOL     OW35620   9.509   0.910   7.296  0.0634  0.3777  0.4200
11294SOL    HW135621   9.448   0.865   7.238 -0.6994  0.6710  0.9787
11294SOL    HW235622   9.533   0.844   7.361  0.4944  0.2112  0.1023
11295SOL     OW35623   2.068   4.607   5.280  0.7329 -0.0522  0.2359
11295SOL    HW135624   2.159   4.633   5.264  0.6965 -0.5458 -0.8798
11295SOL    HW235625   2.061   4.520   5.242  0.3189 -0.9085  2.1505
11296SOL     OW35626   4.740   4.068   1.935  0.4210  0.3170 -0.0848
11296SOL    HW135627   4.645   4.081   1.941  0.2333 -0.7950 -0.4448
11296SOL    HW235628   4.757   3.993   1.993  1.0187  0.2350 -0.3618
11297SOL     OW35629   3.863   7.661   6.473 -0.0076 -0.1868  0.1638
11297SOL    HW135630   3.869   7.590   6.409  0.3645  0.1429 -0.1667
11297SOL    HW235631   3.953   7.692   6.483 -0.3778  1.3644 -0.9659
11298SOL     OW35632   3.324   1.093   1.660  0.4862  0.0306 -0.7008
11298SOL    HW135633   3.413   1.105   1.694  0.4325  0.3352 -0.6625
11298SOL    HW235634   3.276   1.171   1.689  0.3303  0.0949 -1.1135
11299SOL     OW35635   9.293   4.387   3.826  0.0818 -0.8445 -0.1652
11299SOL    HW135636   9.310   4.387   3.921  1.9447  0.3788 -0.4485
11299SOL    HW235637   9.226   4.455   3.814  0.8963  0.0368  0.1436
11300SOL     OW35638   8.248   1.337   8.896  0.3163  0.4208  0.1202
11300SOL    HW135639   8.293   1.293   8.824  0.8128 -0.3224  0.8646
11300SOL    HW235640   8.319   1.374   8.949 -0.0787  1.8360 -0.2971
11301SOL     OW35641   8.301   0.211   1.737 -0.0527  0.1276  0.2874
11301SOL    HW135642   8.263   0.243   1.655 -0.6929 -1.1136  0.0859
11301SOL    HW235643   8.244   0.247   1.805  0.1871  0.7396  0.1797
11302SOL     OW35644   2.477   1.507   9.287  0.4997 -0.1554 -0.2280
11302SOL    HW135645   2.435   1.491   9.372  3.8167  1.4740  1.9314
11302SOL    HW235646   2.495   1.601   9.287  0.7564 -0.1465 -2.7034
11303SOL     OW35647   6.935   2.145   6.503 -0.0490 -0.1358  0.1737
11303SOL    HW135648   6.871   2.195   6.452 -0.1349 -0.6116 -0.2024
11303SOL    HW235649   7.017   2.155   6.455 -0.0088 -0.1435  0.2410
11304SOL     OW35650   0.676   9.053   0.106  0.8696 -0.4262 -0.4776
11304SOL    HW135651   0.749   8.992   0.121  0.2649 -1.5438 -1.8788
11304SOL    HW235652   0.630   9.017   0.030 -0.5233  0.8531 -0.2763
11305SOL     OW35653   4.922   1.320   2.476 -0.1403 -0.4915 -0.3818
11305SOL    HW135654   4.966   1.387   2.529 -0.3932  0.1390 -0.9519
11305SOL    HW235655   4.990   1.254   2.459  0.5676  0.4065 -1.1508
11306SOL     OW35656   3.092   6.173   9.421 -0.2617  0.3645 -0.5648
11306SOL    HW135657   3.090   6.202   9.330 -1.4641  1.2496 -0.2744
11306SOL    HW235658   3.174   6.208   9.456 -0.3735  1.0419 -0.9784
11307SOL     OW35659   0.121   5.829   5.042  0.0345 -0.3542 -0.0664
11307SOL    HW135660   0.200   5.794   5.083  0.3580  0.1750 -0.2189
11307SOL    HW235661   0.049   5.778   5.080  0.4808 -1.1429 -0.2551
11308SOL     OW35662   4.171   1.840   7.750 -0.3598  0.1214  0.5585
11308SOL    HW135663   4.117   1.897   7.696 -0.8753 -0.0128  0.9300
11308SOL    HW235664   4.119   1.760   7.760  0.5624 -0.6369 -0.3806
11309SOL     OW35665   0.345   5.433   1.747 -0.2806 -0.3870 -0.1875
11309SOL    HW135666   0.334   5.351   1.795 -1.8937  0.2804  0.6593
11309SOL    HW235667   0.424   5.471   1.784  0.4378 -1.5013 -0.5223
11310SOL     OW35668   1.930   5.347   6.599  0.0602 -0.3887 -0.4808
11310SOL    HW135669   1.976   5.404   6.537 -0.2598  0.9483  0.4611
11310SOL    HW235670   1.995   5.280   6.623  1.6462  1.5215  0.9272
11311SOL     OW35671   7.497   2.435   6.944  0.2376  0.4972 -0.2784
11311SOL    HW135672   7.436   2.422   6.872 -0.1185 -0.2752  0.1401
11311SOL    HW235673   7.484   2.358   7.000  0.2911  1.2223  0.7633
11312SOL     OW35674   2.419   1.746   3.115  0.2493 -0.1818 -0.0968
11312SOL    HW135675   2.382   1.759   3.203 -0.0141 -0.3797 -0.1778
11312SOL    HW235676   2.514   1.750   3.129  0.2098 -0.1765  0.1919
11313SOL     OW35677   5.901   5.584   3.282  0.0997  0.2439  0.4343
11313SOL    HW135678   5.823   5.603   3.229 -0.0036 -0.6192  0.2532
11313SOL    HW235679   5.877   5.612   3.370 -0.2721  0.3545  0.2993
11314SOL     OW35680   1.995   8.596   2.204 -0.4856 -0.3272  0.2737
11314SOL    HW135681   1.932   8.665   2.224 -0.2326 -0.7079  2.7021
11314SOL    HW235682   2.049   8.632   2.134 -1.7679  1.0180 -0.0745
11315SOL     OW35683   6.102   7.748   0.990 -0.8043  0.4141 -0.2107
11315SOL    HW135684   6.083   7.813   1.057  2.5496  1.9184 -0.5643
11315SOL    HW235685   6.179   7.701   1.022 -1.9246 -2.1195 -0.9079
11316SOL     OW35686   6.408   0.192   0.145 -0.3817  0.0747 -0.6364
11316SOL    HW135687   6.364   0.274   0.166  0.7726  1.2026 -2.2926
11316SOL    HW235688   6.481   0.188   0.207 -0.2581  0.5030 -0.7438
11317SOL     OW35689   8.769   8.924   3.085  0.6072 -0.4106 -0.4541
11317SOL    HW135690   8.738   9.003   3.041  1.5373 -0.3537 -1.0318
11317SOL    HW235691   8.861   8.917   3.061  0.3044 -2.2477 -1.3098
11318SOL     OW35692   2.492   7.585   6.088  0.0585 -0.3356  0.2262
11318SOL    HW135693   2.478   7.634   6.007  2.0013  4.3518  2.3616
11318SOL    HW235694   2.567   7.529   6.069  0.4073  0.5811 -1.2893
11319SOL     OW35695   7.282   2.272   2.152 -0.6824  0.1542  0.2277
11319SOL    HW135696   7.320   2.224   2.225  0.1951  2.1405  1.1750
11319SOL    HW235697   7.194   2.235   2.142 -0.3267 -1.0888  1.3796
11320SOL     OW35698   1.746   6.938   8.146 -0.6114  0.4221  0.4276
11320SOL    HW135699   1.741   7.025   8.107 -3.4953 -0.4934 -1.6127
11320SOL    HW235700   1.681   6.941   8.217 -1.5976 -0.3465 -0.4169
11321SOL     OW35701   9.100   0.403   1.783 -0.0686 -0.9773  0.2034
11321SOL    HW135702   9.089   0.497   1.768  0.3757 -1.0559 -0.6829
11321SOL    HW235703   9.135   0.396   1.872  0.2601 -0.2789  0.1327
11322SOL     OW35704   5.068   2.447   6.109  0.6589  0.0924  0.0567
11322SOL    HW135705   4.980   2.439   6.146  0.3838  2.8457  0.2190
11322SOL    HW235706   5.054   2.487   6.023  1.6890 -0.6643 -0.4824
11323SOL     OW35707   6.742   0.742   6.818 -0.0498 -0.4383 -0.3081
11323SOL    HW135708   6.651   0.726   6.843 -0.6788  1.4016 -1.2118
11323SOL    HW235709   6.752   0.837   6.822  1.4505 -0.5042 -1.4689
11324SOL     OW35710   7.702   2.589   5.969  0.2145 -0.7247  0.4411
11324SOL    HW135711   7.666   2.583   5.880  0.7154  1.3629  0.0447
11324SOL    HW235712   7.796   2.600   5.955  0.2467  0.0378  1.1975
11325SOL     OW35713   4.360   3.208   4.085 -0.2646  0.6071 -0.3995
11325SOL    HW135714   4.325   3.119   4.079  3.0386 -0.8841  0.1904
11325SOL    HW235715   4.348   3.233   4.176  0.2705  0.0646 -0.1753
11326SOL     OW35716   5.238   4.831   6.906 -0.2686 -0.0813  0.5531
11326SOL    HW135717   5.189   4.750   6.894  1.4008 -1.3236  1.6442
11326SOL    HW235718   5.306   4.809   6.970  0.8976  1.8911  0.0954
11327SOL     OW35719   7.830   5.776   5.335 -0.5709  0.2980 -0.1452
11327SOL    HW135720   7.897   5.824   5.285  3.4765 -3.0380  1.5278
11327SOL    HW235721   7.779   5.730   5.268  0.5680  0.8296 -1.4441
11328SOL     OW35722   9.497   3.814   5.668  0.3925  0.3302  0.0319
11328SOL    HW135723   9.510   3.730   5.711 -2.9618 -0.6235 -0.5835
11328SOL    HW235724   9.407   3.812   5.636  0.6377  3.6024 -1.2937
11329SOL     OW35725   4.324   1.874   1.521  0.5945 -0.2950 -0.3267
11329SOL    HW135726   4.399   1.820   1.546  0.3549 -0.5058 -0.0423
11329SOL    HW235727   4.316   1.937   1.593 -0.6087 -1.4286  0.5984
11330SOL     OW35728   2.202   5.475   8.402 -0.0039  0.2051  0.1128
11330SOL    HW135729   2.218   5.384   8.376 -1.1977 -0.0042  0.0688
11330SOL    HW235730   2.207   5.475   8.497 -0.2121  0.0457  0.1245
11331SOL     OW35731   0.263   1.352   4.785  0.0874  0.5080 -0.5831
11331SOL    HW135732   0.242   1.312   4.869  1.4887  1.4686  0.2734
11331SOL    HW235733   0.326   1.422   4.806  0.3985  0.8470 -2.4100
11332SOL     OW35734   4.630   3.972   3.898  0.9318 -0.5086  0.1730
11332SOL    HW135735   4.615   3.879   3.884 -1.4492 -0.1336 -0.3603
11332SOL    HW235736   4.648   4.007   3.810  0.5434 -0.2953  0.1741
11333SOL     OW35737   9.592   2.373   1.136  0.5071 -0.0813  0.1115
11333SOL    HW135738   9.551   2.446   1.090 -0.4524 -1.1096 -0.7319
11333SOL    HW235739   9.566   2.385   1.228  1.5612  1.3976  0.2570
11334SOL     OW35740   3.164   2.538   0.073 -0.1069  0.0511 -0.1149
11334SOL    HW135741   3.226   2.610   0.062 -0.6099  0.4939 -0.0771
11334SOL    HW235742   3.202   2.466   0.023 -0.2334  0.7388 -1.2433
11335SOL     OW35743   5.020   3.080   4.574  0.0739 -0.6062  0.3886
11335SOL    HW135744   5.004   3.174   4.568 -0.7398 -0.6578  1.4796
11335SOL    HW235745   4.996   3.046   4.488 -1.5847 -0.0678  0.6013
11336SOL     OW35746   8.263   1.610   7.662 -0.2749 -0.6145 -0.3105
11336SOL    HW135747   8.192   1.674   7.657  0.4030  0.3917  1.6904
11336SOL    HW235748   8.231   1.543   7.723  0.0066 -0.8419 -0.4095
11337SOL     OW35749   6.257   0.025   8.026 -0.2535 -0.5036 -0.0533
11337SOL    HW135750   6.332   0.012   8.084  1.7036  0.3487 -2.2597
11337SOL    HW235751   6.224  -0.064   8.011 -0.0420 -0.8496  1.3072
11338SOL     OW35752   0.317   1.056   5.136  0.4642 -0.6206  0.3170
11338SOL    HW135753   0.252   1.018   5.077  1.3986 -0.4904 -0.8393
11338SOL    HW235754   0.391   0.996   5.133 -0.5129 -2.2305  3.7211
11339SOL     OW35755   8.547   5.379   6.553 -0.2543 -0.1418 -0.5852
11339SOL    HW135756   8.466   5.412   6.517 -0.4683 -1.4076 -1.3406
11339SOL    HW235757   8.520   5.306   6.609  0.2625  0.3286  0.3085
11340SOL     OW35758   3.663   6.622   5.315 -0.0802  0.1564  0.0078
11340SOL    HW135759   3.582   6.665   5.287 -0.2704  1.1385  1.9123
11340SOL    HW235760   3.733   6.682   5.288 -0.0855  0.0206 -0.3165
11341SOL     OW35761   1.031   9.080   0.765 -0.5446  0.1594  0.0469
11341SOL    HW135762   1.127   9.083   0.760 -0.5893 -0.1209 -2.7145
11341SOL    HW235763   1.012   9.063   0.857  2.0879 -0.5269  0.5452
11342SOL     OW35764   0.658   2.598   4.590  0.3125 -0.5934  0.2281
11342SOL    HW135765   0.617   2.526   4.637 -3.6958  1.4748  0.3519
11342SOL    HW235766   0.644   2.577   4.498 -3.0327  0.8345  0.2425
11343SOL     OW35767   5.627   1.812   1.704  0.3356 -0.2523  0.3459
11343SOL    HW135768   5.661   1.851   1.623 -0.5483 -2.1024 -0.9952
11343SOL    HW235769   5.647   1.876   1.772  1.2737  1.2930 -1.3037
11344SOL     OW35770   8.247   8.128   5.274 -0.0018 -0.5391 -0.0298
11344SOL    HW135771   8.238   8.097   5.184 -0.9639 -0.9817  0.2116
11344SOL    HW235772   8.327   8.086   5.306 -0.4658 -1.5583 -0.1966
11345SOL     OW35773   2.692   1.461   8.190  0.5738 -0.1815  0.4241
11345SOL    HW135774   2.622   1.403   8.160  1.0024 -0.8769  0.7558
11345SOL    HW235775   2.692   1.452   8.286  2.2116 -1.4936  0.3388
11346SOL     OW35776   3.089   5.138   4.151 -0.5541  0.1685  0.8014
11346SOL    HW135777   3.101   5.123   4.245 -0.0615 -1.0097  0.5602
11346SOL    HW235778   2.996   5.121   4.136 -0.9063  1.5277  1.2636
11347SOL     OW35779   3.244   1.884   8.037  0.1918 -0.4319  0.0709
11347SOL    HW135780   3.183   1.958   8.034  0.6749 -0.0434 -0.7452
11347SOL    HW235781   3.260   1.869   8.130  0.0547  0.4611  0.2433
11348SOL     OW35782   1.956   3.167   4.932  0.3085 -0.3770  0.1136
11348SOL    HW135783   2.005   3.099   4.885  1.5223 -0.7660  1.8114
11348SOL    HW235784   1.954   3.136   5.023 -0.6156  1.0436  0.6094
11349SOL     OW35785   1.935   3.741   2.672 -0.1898  0.1970 -0.0726
11349SOL    HW135786   1.887   3.678   2.725  0.8366 -0.7188 -0.2090
11349SOL    HW235787   1.963   3.691   2.595 -0.3672  1.1207 -0.7523
11350SOL     OW35788   8.996   3.653   8.258  0.2516 -0.1060  0.3210
11350SOL    HW135789   9.071   3.684   8.307 -0.1712  1.7631 -0.1266
11350SOL    HW235790   8.959   3.583   8.311  0.7011  0.8173  1.9131
11351SOL     OW35791   1.632   6.665   3.388  0.3929  0.2877  0.2997
11351SOL    HW135792   1.580   6.591   3.355 -0.5461  0.3607  1.5551
11351SOL    HW235793   1.588   6.742   3.351 -0.5354  0.3588  1.5086
11352SOL     OW35794   4.099   1.617   5.441 -0.6485  0.0675  0.1247
11352SOL    HW135795   4.150   1.644   5.517  0.2286 -0.1580 -0.3681
11352SOL    HW235796   4.053   1.696   5.414  0.3514  0.5938 -0.1181
11353SOL     OW35797   6.927   0.796   3.843 -0.2527  0.0173 -0.0280
11353SOL    HW135798   6.869   0.794   3.767  0.2024 -2.6868 -0.3995
11353SOL    HW235799   7.015   0.806   3.806 -0.0580 -1.0139  0.1274
11354SOL     OW35800   5.618   0.533   7.274  0.8172 -0.3446 -0.1192
11354SOL    HW135801   5.596   0.603   7.212 -0.2534 -1.0836 -0.6069
11354SOL    HW235802   5.590   0.567   7.359 -0.7473 -0.6003 -0.5061
11355SOL     OW35803   7.605   8.938   7.590 -0.2495 -0.1245  0.5949
11355SOL    HW135804   7.539   9.002   7.564  1.1721  0.4939 -1.7934
11355SOL    HW235805   7.602   8.871   7.521  1.0123 -0.5469  0.9259
11356SOL     OW35806   5.719   5.471   5.731  0.0146 -0.0104 -0.0235
11356SOL    HW135807   5.637   5.474   5.781 -0.4592 -0.4126 -0.7663
11356SOL    HW235808   5.706   5.533   5.659 -0.0270 -0.8201 -0.7228
11357SOL     OW35809   5.625   4.739   7.883 -0.1765 -0.2808  0.7000
11357SOL    HW135810   5.642   4.761   7.791 -1.3924  3.2610  1.1786
11357SOL    HW235811   5.706   4.763   7.928 -0.3402  0.1108  0.7952
11358SOL     OW35812   9.105   5.177   2.668 -0.0851 -0.6996 -0.2766
11358SOL    HW135813   9.064   5.092   2.684 -1.8085 -0.0566 -1.0651
11358SOL    HW235814   9.065   5.208   2.586  0.6568  0.7789 -0.1073
11359SOL     OW35815   2.774   3.050   4.207 -0.4856 -0.0901  0.0505
11359SOL    HW135816   2.741   2.968   4.243  1.4579 -0.2849  1.5187
11359SOL    HW235817   2.771   3.111   4.281  0.0572  0.5650 -0.4591
11360SOL     OW35818   7.322   6.593   0.601  0.1972 -0.9260  0.0583
11360SOL    HW135819   7.321   6.534   0.525  0.6289 -1.6987  0.6438
11360SOL    HW235820   7.256   6.659   0.580  0.3376 -1.0977 -1.0121
11361SOL     OW35821   4.556   4.109   8.099 -0.7588  0.5897  0.0617
11361SOL    HW135822   4.577   4.016   8.089 -1.1414  0.4787  0.2921
11361SOL    HW235823   4.629   4.154   8.055 -0.8339  0.1755 -0.4992
11362SOL     OW35824   5.066   0.514   7.010  0.0688 -0.1559  0.3560
11362SOL    HW135825   5.043   0.528   6.918  0.0207 -1.5882  0.1335
11362SOL    HW235826   5.136   0.448   7.008 -0.2928 -0.5893  1.3763
11363SOL     OW35827   3.685   9.210   2.689 -0.1557  0.7061  0.2470
11363SOL    HW135828   3.744   9.164   2.749 -1.4390  1.7825  2.5020
11363SOL    HW235829   3.656   9.287   2.739 -1.6304  1.4593 -1.6378
11364SOL     OW35830   0.331   8.039   9.400 -0.6259  0.3420  0.2660
11364SOL    HW135831   0.397   8.006   9.339  0.5897  0.7123  1.3226
11364SOL    HW235832   0.297   7.960   9.443  0.8264  0.2745  1.3566
11365SOL     OW35833   1.561   1.860   4.900  0.1530 -0.2266  0.3533
11365SOL    HW135834   1.515   1.844   4.817  1.2579 -3.0111  0.1489
11365SOL    HW235835   1.649   1.886   4.873 -0.2020  1.5257  0.7374
11366SOL     OW35836   0.394   4.058   4.874  0.0584 -0.0655 -0.8628
11366SOL    HW135837   0.414   4.043   4.966 -1.3333 -1.0193 -0.6893
11366SOL    HW235838   0.373   4.151   4.868  0.0117 -0.0310 -0.2007
11367SOL     OW35839   6.827   9.461   7.559 -0.5583  0.1566  0.4519
11367SOL    HW135840   6.864   9.449   7.647 -1.1703  0.9641  0.8304
11367SOL    HW235841   6.857   9.385   7.510  1.4998  0.6929  0.7851
11368SOL     OW35842   5.455   0.859   5.862  0.0752  0.3584  0.1401
11368SOL    HW135843   5.547   0.877   5.880  0.0695  0.2224  0.3147
11368SOL    HW235844   5.452   0.765   5.842 -0.0315  0.3533  0.1770
11369SOL     OW35845   4.701   0.498   6.839  0.5454 -0.1457 -0.8213
11369SOL    HW135846   4.712   0.415   6.791  0.9239  0.2787 -1.4908
11369SOL    HW235847   4.606   0.513   6.839  0.1670 -1.8664  1.5819
11370SOL     OW35848   7.497   0.333   7.223  0.7153 -1.3056  0.2096
11370SOL    HW135849   7.402   0.324   7.213  0.5548  0.4259 -0.1608
11370SOL    HW235850   7.514   0.305   7.312 -0.1014 -1.8851  0.2018
11371SOL     OW35851   1.592   1.988   2.540  0.0337  0.2647  0.6777
11371SOL    HW135852   1.509   2.015   2.580  0.3643  0.9337  0.9273
11371SOL    HW235853   1.628   2.069   2.503  0.3062 -0.1260  0.0717
11372SOL     OW35854   6.549   6.890   5.805  0.5441 -0.1010 -0.8164
11372SOL    HW135855   6.500   6.972   5.804 -1.6960 -1.3456 -0.0661
11372SOL    HW235856   6.527   6.849   5.720  1.6603  0.0657 -1.1953
11373SOL     OW35857   1.758   6.799   5.722  0.0158 -0.8066  0.0304
11373SOL    HW135858   1.809   6.808   5.642 -0.4708  0.0632 -0.1887
11373SOL    HW235859   1.766   6.884   5.766 -2.1842 -0.2297 -0.5833
11374SOL     OW35860   8.118   3.113   7.712  0.0616  0.5898  0.5150
11374SOL    HW135861   8.028   3.142   7.723  0.6948  2.2307  1.7885
11374SOL    HW235862   8.167   3.157   7.781  1.9263  0.0874 -0.3938
11375SOL     OW35863   4.607   6.526   2.810 -0.1306 -0.2818 -0.5094
11375SOL    HW135864   4.539   6.571   2.861  1.5118  0.3050  1.3146
11375SOL    HW235865   4.636   6.591   2.746 -0.2112  0.0449 -0.2223
11376SOL     OW35866   0.086   2.882   6.235  0.5419 -0.2650  0.3107
11376SOL    HW135867   0.032   2.918   6.305 -0.9433 -0.6939 -0.5683
11376SOL    HW235868   0.144   2.954   6.210 -0.9156  0.8499  0.0208
11377SOL     OW35869   6.025   7.906   6.787 -0.2969 -0.1596 -0.1085
11377SOL    HW135870   5.931   7.896   6.805 -0.6663  2.3680 -0.2141
11377SOL    HW235871   6.057   7.961   6.859  1.0255 -0.6770 -0.2887
11378SOL     OW35872   7.188   8.282   8.779  0.1191  0.0270  0.4810
11378SOL    HW135873   7.178   8.368   8.739 -0.7923 -0.7044 -0.9664
11378SOL    HW235874   7.253   8.237   8.725  1.0625 -0.0103  1.5978
11379SOL     OW35875   2.802   1.097   0.073  0.6904 -0.3068  0.1626
11379SOL    HW135876   2.817   1.186   0.104  1.9270  0.0604 -1.3504
11379SOL    HW235877   2.798   1.044   0.153  1.1273  0.9389  1.0352
11380SOL     OW35878   7.770   3.883   8.586 -0.7920 -0.0264  0.4984
11380SOL    HW135879   7.843   3.829   8.615 -0.6023  0.6490  1.3118
11380SOL    HW235880   7.794   3.972   8.612 -0.8041  0.5662 -1.3610
11381SOL     OW35881   3.725   1.488   3.760  0.0407 -0.1716  0.1324
11381SOL    HW135882   3.758   1.418   3.705 -1.3626 -1.2064  0.5464
11381SOL    HW235883   3.723   1.451   3.848  1.0707  1.0347  0.6953
11382SOL     OW35884   9.530   8.116   5.228 -0.1580  0.0692  0.2306
11382SOL    HW135885   9.625   8.114   5.217 -0.1273 -0.9146  0.5781
11382SOL    HW235886   9.496   8.131   5.140  0.3647  2.9493  0.4252
11383SOL     OW35887   6.092   7.524   7.264 -0.0681 -0.4333  0.4455
11383SOL    HW135888   6.004   7.535   7.300  0.0899 -0.3685  0.8232
11383SOL    HW235889   6.149   7.530   7.340  0.1696 -2.0587  0.4300
11384SOL     OW35890   6.578   7.767   7.103  0.2322  0.0845  0.3450
11384SOL    HW135891   6.549   7.717   7.027 -1.3104  0.3166  0.7373
11384SOL    HW235892   6.619   7.845   7.067 -0.6213  0.2696 -0.2638
11385SOL     OW35893   1.114   5.101   0.217  0.2345  0.2909  0.7705
11385SOL    HW135894   1.132   5.155   0.140 -2.8277  0.7727  0.2934
11385SOL    HW235895   1.142   5.155   0.291 -0.0161  1.2917  0.1508
11386SOL     OW35896   0.066   5.824   4.542 -0.4596 -0.1797  0.3849
11386SOL    HW135897   0.027   5.825   4.629  1.2846 -0.5473  1.2093
11386SOL    HW235898   0.002   5.869   4.486 -1.9672 -0.6331  1.6716
11387SOL     OW35899   4.261   1.799   3.363 -0.1424  0.2529 -0.3021
11387SOL    HW135900   4.295   1.831   3.279 -1.7891  0.5246 -0.9071
11387SOL    HW235901   4.247   1.706   3.349 -2.1892  0.6090 -1.0272
11388SOL     OW35902   2.174   4.849   2.308  0.4768 -0.2536  0.0524
11388SOL    HW135903   2.240   4.902   2.264  0.6269 -0.5484 -0.0769
11388SOL    HW235904   2.183   4.871   2.400 -0.5713  1.1932 -0.1667
11389SOL     OW35905   4.158   8.185   8.963  0.1204  0.0427 -0.0977
11389SOL    HW135906   4.126   8.114   8.908  0.0637 -1.7539  2.1503
11389SOL    HW235907   4.154   8.151   9.052  1.9166  2.1894  0.8963
11390SOL     OW35908   5.234   5.079   3.940 -0.4896 -0.2605  0.3761
11390SOL    HW135909   5.168   5.126   3.991  0.2110 -0.6284  1.6659
11390SOL    HW235910   5.184   5.017   3.888 -1.2301  0.0837  0.6664
11391SOL     OW35911   3.886   3.473   9.530 -0.0021  0.3739 -0.5243
11391SOL    HW135912   3.876   3.431   9.445 -1.0695 -0.2438 -0.1165
11391SOL    HW235913   3.819   3.542   9.531 -0.0421  0.3325 -0.1690
11392SOL     OW35914   8.357   7.950   0.476  0.1087 -0.4544 -0.0960
11392SOL    HW135915   8.403   8.031   0.496 -0.8227  0.3008 -0.9485
11392SOL    HW235916   8.412   7.906   0.411  0.0547  0.0356 -0.4783
11393SOL     OW35917   3.930   4.575   2.213 -0.1593  0.5401  0.5555
11393SOL    HW135918   3.924   4.484   2.243  2.6545 -0.6139 -1.9256
11393SOL    HW235919   3.839   4.602   2.202 -1.1071 -2.2178  0.7094
11394SOL     OW35920   9.225   4.340   4.444 -0.0505  0.6099 -0.3311
11394SOL    HW135921   9.313   4.378   4.451  1.6680 -3.0529  0.6351
11394SOL    HW235922   9.215   4.320   4.351 -0.6275  2.4792 -0.7105
11395SOL     OW35923   5.440   8.947   6.836 -0.2229  0.2849  0.4230
11395SOL    HW135924   5.514   8.943   6.775 -0.1644  0.7012  0.4660
11395SOL    HW235925   5.362   8.942   6.780 -0.1693 -1.0391  0.4361
11396SOL     OW35926   8.075   8.365   4.204  0.0873 -0.0865 -0.1722
11396SOL    HW135927   7.999   8.402   4.159 -0.9360 -0.2910  1.3211
11396SOL    HW235928   8.039   8.327   4.284  1.9976  1.3663  1.4718
11397SOL     OW35929   2.155   1.971   8.356  0.2626  0.1785  0.0061
11397SOL    HW135930   2.241   1.974   8.397  0.4560 -2.2096 -0.0817
11397SOL    HW235931   2.111   1.897   8.398 -0.3794 -0.9115 -2.3908
11398SOL     OW35932   6.656   8.711   5.023  0.2627  0.8017 -0.5775
11398SOL    HW135933   6.564   8.705   4.996 -0.1274  0.9931  0.6334
11398SOL    HW235934   6.672   8.805   5.031 -0.0386  0.7489  1.0639
11399SOL     OW35935   1.582   7.581   1.116 -0.1550  0.2957  0.4966
11399SOL    HW135936   1.550   7.638   1.186 -0.3444 -1.9013  2.2827
11399SOL    HW235937   1.580   7.637   1.038 -1.1367  2.4600  1.9589
11400SOL     OW35938   6.626   6.571   4.812  0.4093 -0.8042  0.1271
11400SOL    HW135939   6.717   6.582   4.785 -0.1031  2.9970 -0.6428
11400SOL    HW235940   6.588   6.512   4.747  2.0437 -1.5630 -0.1806
11401SOL     OW35941   4.346   9.101   8.953  0.4124 -0.0459  0.1208
11401SOL    HW135942   4.336   9.154   8.874 -0.0779 -0.6941 -0.2519
11401SOL    HW235943   4.259   9.064   8.968  0.4275  0.2971  1.1308
11402SOL     OW35944   6.051   6.145   4.258  0.3026  0.1015 -0.3151
11402SOL    HW135945   5.967   6.188   4.273  0.6628  0.6775  0.0867
11402SOL    HW235946   6.106   6.173   4.331  0.6542 -0.7760 -0.2321
11403SOL     OW35947   5.272   4.135   3.124 -0.8242  0.3285 -0.2112
11403SOL    HW135948   5.270   4.227   3.097 -0.7036 -0.0425 -1.5437
11403SOL    HW235949   5.185   4.102   3.104 -0.4708 -0.1711 -0.9584
11404SOL     OW35950   9.260   2.028   2.104  0.7303  0.0635  0.4221
11404SOL    HW135951   9.248   2.109   2.053 -0.8026 -0.4326 -0.0846
11404SOL    HW235952   9.354   2.023   2.121  1.2869  0.3913 -2.1706
11405SOL     OW35953   0.381   3.879   1.577  0.3070 -0.1262 -0.1505
11405SOL    HW135954   0.290   3.864   1.552  0.7143 -0.9968 -1.2014
11405SOL    HW235955   0.424   3.905   1.496  1.4490 -1.9800 -0.2037
11406SOL     OW35956   6.114   2.641   6.933  0.1915 -0.1817  0.1959
11406SOL    HW135957   6.105   2.697   6.856  0.5056 -1.1639 -0.5854
11406SOL    HW235958   6.092   2.553   6.901  0.7000 -0.6698  1.1397
11407SOL     OW35959   8.370   3.098   1.696  0.0716  0.1930  1.0550
11407SOL    HW135960   8.373   3.059   1.783  0.0030 -0.4815  0.7595
11407SOL    HW235961   8.354   3.191   1.711  2.5099  0.5543  1.8944
11408SOL     OW35962   2.754   0.514   7.358 -0.3202 -0.2993 -0.4058
11408SOL    HW135963   2.776   0.426   7.328  0.8615 -0.7742  1.6487
11408SOL    HW235964   2.700   0.551   7.288  0.0437 -2.2544 -1.7884
11409SOL     OW35965   9.381   1.928   9.189  0.7259  0.3900 -0.2177
11409SOL    HW135966   9.471   1.928   9.157  0.4705  1.3165 -1.0087
11409SOL    HW235967   9.371   1.844   9.233  1.9902  0.3007 -0.0566
11410SOL     OW35968   7.620   0.071   0.514  0.1079 -0.3762 -0.0193
11410SOL    HW135969   7.682   0.048   0.444  0.2035 -1.9745  0.5272
11410SOL    HW235970   7.536   0.037   0.483  0.0807 -0.7557  0.4568
11411SOL     OW35971   1.392   7.079   3.539 -0.1117 -0.3583 -0.6385
11411SOL    HW135972   1.324   7.036   3.486 -0.9040  0.3424 -0.2045
11411SOL    HW235973   1.397   7.168   3.504  2.2090 -0.9991 -2.1803
11412SOL     OW35974   6.959   2.319   4.227  0.6918  0.0212  0.0526
11412SOL    HW135975   6.918   2.338   4.311  0.2850  0.7878 -0.3126
11412SOL    HW235976   7.043   2.279   4.250  0.0718 -0.8912  0.8086
11413SOL     OW35977   7.932   3.395   6.872  0.4429 -0.3189  0.0820
11413SOL    HW135978   7.960   3.337   6.802  0.6246 -0.1015 -0.0280
11413SOL    HW235979   7.865   3.451   6.832  0.4638 -0.2703  0.1141
11414SOL     OW35980   5.335   4.997   8.255 -0.1842 -0.4521 -0.2007
11414SOL    HW135981   5.381   4.941   8.193 -0.1900 -1.0680  0.3309
11414SOL    HW235982   5.346   4.953   8.340  0.6134  0.8563  0.3977
11415SOL     OW35983   8.616   6.628   6.510 -0.5038  0.4130  0.2324
11415SOL    HW135984   8.564   6.689   6.563 -1.2482 -1.5876  1.9041
11415SOL    HW235985   8.657   6.570   6.573  0.6496 -0.4929 -1.2947
11416SOL     OW35986   5.716   8.063   7.107  0.1492 -0.2669  0.0470
11416SOL    HW135987   5.661   8.010   7.165  1.4180 -0.6273  0.9830
11416SOL    HW235988   5.696   8.153   7.131 -0.0811 -0.3927  0.3362
11417SOL     OW35989   0.835   7.159   8.660 -0.0445  0.0049 -0.1501
11417SOL    HW135990   0.823   7.100   8.734  0.2565 -0.2949 -0.3355
11417SOL    HW235991   0.842   7.101   8.584  0.4898  0.2673 -0.3047
11418SOL     OW35992   8.138   6.847   9.459 -0.0558 -0.1917  0.5185
11418SOL    HW135993   8.056   6.806   9.433  0.3651 -0.7209  0.0184
11418SOL    HW235994   8.201   6.822   9.392  0.0886  1.7404 -0.1422
11419SOL     OW35995   0.225   2.585   8.368  0.0810 -0.6514 -0.7477
11419SOL    HW135996   0.258   2.526   8.300  0.4198 -0.0110 -1.1421
11419SOL    HW235997   0.272   2.559   8.447 -0.9312 -1.9716 -0.5447
11420SOL     OW35998   4.136   1.911   6.536 -0.4193  0.2544  0.1272
11420SOL    HW135999   4.115   1.954   6.453  1.0297 -0.2726 -0.5430
11420SOL    HW236000   4.092   1.964   6.602 -2.7829 -0.0997 -1.0518
11421SOL     OW36001   1.915   5.457   8.447  0.1799  0.4687 -0.4543
11421SOL    HW136002   1.971   5.534   8.450  0.5171  0.2731 -1.4488
11421SOL    HW236003   1.933   5.417   8.362 -1.1214  0.1388 -0.6017
11422SOL     OW36004   1.278   2.641   9.022  0.0614 -0.2501  0.2771
11422SOL    HW136005   1.347   2.692   8.979  0.7988 -1.8149 -0.5171
11422SOL    HW236006   1.197   2.670   8.981  0.6081 -0.6529 -1.1478
11423SOL     OW36007   8.170   6.588   5.735 -0.3557  0.3662 -0.0287
11423SOL    HW136008   8.206   6.666   5.777  1.2113 -0.2415 -0.1954
11423SOL    HW236009   8.191   6.516   5.795  1.2906 -0.4173 -1.4574
11424SOL     OW36010   0.553   7.927   2.771  0.1863 -0.3232  0.0479
11424SOL    HW136011   0.608   8.004   2.758 -0.1708  0.0321  0.5787
11424SOL    HW236012   0.541   7.890   2.684  2.9126 -1.5943  0.1160
11425SOL     OW36013   7.959   5.308   4.722 -0.1401 -0.4925  0.1161
11425SOL    HW136014   7.941   5.395   4.686 -0.6691  0.1381  1.7967
11425SOL    HW236015   8.054   5.297   4.712  0.0454  0.5969  0.5038
11426SOL     OW36016   8.395   5.314   2.828 -0.1969  0.5435  0.5136
11426SOL    HW136017   8.334   5.246   2.857 -1.2704  0.9200 -0.7405
11426SOL    HW236018   8.386   5.384   2.893  1.3004 -0.6481  2.1096
11427SOL     OW36019   0.359   5.534   9.415 -0.4427 -0.5691 -0.1086
11427SOL    HW136020   0.414   5.604   9.449  1.0485 -1.6329 -0.2442
11427SOL    HW236021   0.274   5.576   9.399 -0.1683  0.7585  1.6025
11428SOL     OW36022   8.775   2.575   2.426 -0.1981 -0.2424  0.1843
11428SOL    HW136023   8.801   2.637   2.495 -1.9086  1.5277 -0.6631
11428SOL    HW236024   8.848   2.579   2.363 -0.7871  2.0037 -0.4816
11429SOL     OW36025   6.376   9.006   2.609  0.0208 -0.3151 -0.0537
11429SOL    HW136026   6.322   9.051   2.674 -0.0601  0.2518 -0.5060
11429SOL    HW236027   6.456   8.983   2.656  0.1665  0.5325  0.1140
11430SOL     OW36028   1.204   2.041   5.461 -0.5840  0.6030 -0.2774
11430SOL    HW136029   1.158   2.096   5.398  0.6560  1.1717 -0.7208
11430SOL    HW236030   1.270   2.099   5.499 -1.2438  0.2350  1.4870
11431SOL     OW36031   1.115   8.243   2.677  0.2283 -0.4687  0.5669
11431SOL    HW136032   1.205   8.257   2.648  0.2961  1.2251  1.4124
11431SOL    HW236033   1.124   8.212   2.767 -0.0182 -0.1906  0.6906
11432SOL     OW36034   1.309   1.079   0.781 -0.0170 -0.8785  0.2334
11432SOL    HW136035   1.299   1.057   0.873 -0.2043 -0.3572  0.3402
11432SOL    HW236036   1.289   1.173   0.776  0.9275 -0.6891 -0.1802
11433SOL     OW36037   6.287   5.801   1.290  0.0530 -0.1185 -0.1245
11433SOL    HW136038   6.320   5.888   1.270  0.7621 -0.4348 -0.3294
11433SOL    HW236039   6.220   5.817   1.357  1.0875  0.4614  0.8021
11434SOL     OW36040   0.882   7.224   5.909 -0.9761 -0.2802 -0.5074
11434SOL    HW136041   0.958   7.282   5.911 -2.3727  1.7128 -1.9241
11434SOL    HW236042   0.881   7.183   5.996 -0.2324  2.2752  0.8102
11435SOL     OW36043   6.221   3.273   3.799 -0.4159  0.3625  0.3413
11435SOL    HW136044   6.136   3.317   3.799 -0.8227 -0.3874  1.2952
11435SOL    HW236045   6.270   3.315   3.870 -0.5230 -0.1853  0.7439
11436SOL     OW36046   6.529   5.943   0.535  0.0496 -0.2179 -0.0086
11436SOL    HW136047   6.515   5.879   0.605 -0.9539  1.0677  1.0087
11436SOL    HW236048   6.624   5.953   0.531  0.1354 -0.5300  0.9609
11437SOL     OW36049   3.205   8.735   5.461 -0.3695 -0.5589  0.2187
11437SOL    HW136050   3.111   8.748   5.477 -0.6305  1.5775 -2.3677
11437SOL    HW236051   3.212   8.644   5.433 -1.5010 -1.0321  1.3967
11438SOL     OW36052   9.525   6.175   1.597  0.5555 -0.3593  0.1877
11438SOL    HW136053   9.583   6.100   1.583 -0.0196 -1.3229  2.4966
11438SOL    HW236054   9.584   6.245   1.625  0.9195 -0.4512 -0.3349
11439SOL     OW36055   8.908   6.650   3.247  0.6020  0.1858  0.0491
11439SOL    HW136056   8.917   6.690   3.333  1.4839  0.8337 -0.3243
11439SOL    HW236057   8.893   6.557   3.264  1.3725  0.2078  0.8781
11440SOL     OW36058   2.366   3.200   8.790 -0.6096  0.4839 -0.2393
11440SOL    HW136059   2.324   3.256   8.855  0.6647  1.9128 -0.5765
11440SOL    HW236060   2.384   3.118   8.836  2.0678  2.1200  1.9331
11441SOL     OW36061   2.796   8.144   6.815 -0.5399  0.0040  0.0048
11441SOL    HW136062   2.866   8.145   6.749 -0.6108  0.8950 -0.0775
11441SOL    HW236063   2.718   8.116   6.767 -0.9496  2.1538 -0.7260
11442SOL     OW36064   1.182   2.597   3.036 -0.4514 -0.4581  0.1454
11442SOL    HW136065   1.258   2.581   2.980 -1.2995 -0.2451 -1.0999
11442SOL    HW236066   1.107   2.591   2.977 -1.2720  1.5803  0.8855
11443SOL     OW36067   0.162   7.316   7.893  0.0666 -0.7637  0.0057
11443SOL    HW136068   0.081   7.327   7.843 -0.6969 -0.0484  1.3538
11443SOL    HW236069   0.224   7.279   7.830 -0.4229  1.4078 -1.8743
11444SOL     OW36070   2.858   2.204   7.887 -0.0004  0.0430  0.5969
11444SOL    HW136071   2.840   2.294   7.913  0.1662  0.1787  0.2582
11444SOL    HW236072   2.947   2.187   7.918  0.3695  0.3548 -0.2385
11445SOL     OW36073   4.599   8.952   7.141 -0.2820 -0.2110 -0.1296
11445SOL    HW136074   4.640   9.032   7.107  0.5349  0.1308  1.5860
11445SOL    HW236075   4.505   8.964   7.122  0.0199  0.3695 -1.3810
11446SOL     OW36076   7.924   8.469   6.928 -0.1150 -0.0491  0.0553
11446SOL    HW136077   7.858   8.515   6.980 -0.6645 -0.3059 -0.4135
11446SOL    HW236078   8.001   8.526   6.933 -0.4877  0.4445  0.2860
11447SOL     OW36079   8.302   6.635   3.340  0.6647 -0.0765 -0.1222
11447SOL    HW136080   8.330   6.726   3.354  0.9784 -0.0974 -0.5931
11447SOL    HW236081   8.357   6.604   3.268  1.0835 -0.8821  0.5357
11448SOL     OW36082   4.711   7.136   5.957  0.1665 -0.1650 -0.5536
11448SOL    HW136083   4.743   7.117   5.869  1.6962  0.3654 -0.1407
11448SOL    HW236084   4.644   7.203   5.943  0.8093  0.3527 -1.2792
11449SOL     OW36085   9.510   8.381   1.334 -0.0050  0.2221 -0.2978
11449SOL    HW136086   9.524   8.419   1.247  1.8823 -0.5199 -0.3592
11449SOL    HW236087   9.579   8.316   1.343 -2.7966 -2.9977 -0.0440
11450SOL     OW36088   5.831   3.794   7.828 -0.7165 -0.2252 -0.0064
11450SOL    HW136089   5.879   3.727   7.877 -0.3399 -0.5282 -0.7664
11450SOL    HW236090   5.833   3.763   7.738 -0.5167  0.8241 -0.3733
11451SOL     OW36091   2.054   6.452   1.538 -0.8874 -0.6602  0.7950
11451SOL    HW136092   2.100   6.523   1.583  1.9498 -1.2767 -0.8551
11451SOL    HW236093   2.072   6.375   1.592  1.2604 -1.1235 -0.4316
11452SOL     OW36094   3.217   5.542   6.870  0.2137  0.0335  0.2658
11452SOL    HW136095   3.212   5.530   6.965 -1.2526 -2.0199  0.0039
11452SOL    HW236096   3.189   5.458   6.834 -0.0655  1.0254 -1.9987
11453SOL     OW36097   8.296   1.320   3.183 -0.0764  0.3607 -0.1543
11453SOL    HW136098   8.288   1.400   3.234  1.5547  2.1334 -2.4983
11453SOL    HW236099   8.207   1.302   3.153 -0.3310  1.9228 -0.4280
11454SOL     OW36100   1.659   3.202   3.330  0.6810 -0.4897 -0.3045
11454SOL    HW136101   1.668   3.235   3.420  2.7198  0.8677 -0.9463
11454SOL    HW236102   1.748   3.203   3.295 -0.1229 -0.5443 -2.5024
11455SOL     OW36103   8.523   2.031   9.134 -0.1728  0.5872 -0.3627
11455SOL    HW136104   8.578   1.954   9.140  0.7312  1.3241  2.2586
11455SOL    HW236105   8.485   2.027   9.046 -1.0452 -3.3715  0.0342
11456SOL     OW36106   3.667   0.456   4.042  0.1441 -0.7005 -0.2302
11456SOL    HW136107   3.646   0.525   4.104  0.5417 -0.3300 -0.5054
11456SOL    HW236108   3.763   0.451   4.042  0.1377 -0.9249 -0.5656
11457SOL     OW36109   7.034   4.590   4.257 -0.2209 -0.1081 -0.8594
11457SOL    HW136110   7.068   4.523   4.316  2.8291  0.3282 -1.9584
11457SOL    HW236111   6.977   4.644   4.312 -0.8897 -2.1459  0.5910
11458SOL     OW36112   0.146   5.418   3.992 -0.7433  0.1659 -0.0521
11458SOL    HW136113   0.187   5.496   3.955 -0.3562  0.1580  0.3411
11458SOL    HW236114   0.072   5.399   3.935 -0.5722  0.5600 -0.4057
11459SOL     OW36115   6.954   4.598   4.838  0.7841  0.6270 -0.4046
11459SOL    HW136116   6.968   4.519   4.786 -1.1456  0.4993 -0.7824
11459SOL    HW236117   6.860   4.612   4.837  0.5729  0.4909  3.2505
11460SOL     OW36118   3.124   2.873   5.363  0.5063 -0.1794 -0.2741
11460SOL    HW136119   3.192   2.904   5.422  0.9525 -1.0686 -0.3122
11460SOL    HW236120   3.166   2.805   5.311 -0.0529  0.1744 -1.2062
11461SOL     OW36121   3.128   4.681   6.389  0.0819 -0.4545 -0.6479
11461SOL    HW136122   3.169   4.729   6.461 -1.6814  1.1548 -0.6582
11461SOL    HW236123   3.079   4.611   6.433  0.6588 -0.7468 -0.4539
11462SOL     OW36124   4.028   8.887   7.992 -0.0968 -0.3319 -0.1263
11462SOL    HW136125   4.115   8.926   8.004  0.3371 -1.2495 -0.2475
11462SOL    HW236126   4.034   8.840   7.909 -1.0343  0.4362 -0.6508
11463SOL     OW36127   5.079   6.534   9.260  0.3783 -0.6098 -0.7096
11463SOL    HW136128   4.986   6.552   9.272  0.0957 -0.3758 -2.8175
11463SOL    HW236129   5.089   6.526   9.165  2.1829 -2.4715 -0.4169
11464SOL     OW36130   3.990   8.374   3.150 -0.2042  0.2347  0.2248
11464SOL    HW136131   3.991   8.347   3.058 -1.0567  0.0527  0.2539
11464SOL    HW236132   4.063   8.327   3.190  0.1567  0.2964 -0.3490
11465SOL     OW36133   3.029   3.035   2.358  0.2685 -0.7773 -0.1000
11465SOL    HW136134   3.015   3.126   2.333  0.2801 -0.2975  1.5128
11465SOL    HW236135   2.941   2.997   2.357  0.3085 -0.8633 -1.1413
11466SOL     OW36136   8.665   2.064   3.386 -0.9779  0.2933 -0.6221
11466SOL    HW136137   8.735   2.095   3.328 -1.2539  1.2799 -0.4554
11466SOL    HW236138   8.585   2.099   3.346 -1.7209 -2.8382 -2.2120
11467SOL     OW36139   6.214   4.158   1.467  0.1776  0.5668 -0.2399
11467SOL    HW136140   6.244   4.245   1.494 -0.7171  0.7157  0.3323
11467SOL    HW236141   6.289   4.119   1.423  0.4967  1.7561 -0.7912
11468SOL     OW36142   5.784   4.153   1.228 -0.1836 -0.1355 -0.0362
11468SOL    HW136143   5.792   4.150   1.323 -2.7926  0.1581  0.2820
11468SOL    HW236144   5.728   4.228   1.211  1.5893  0.8449 -1.9839
11469SOL     OW36145   3.113   0.906   5.706 -0.8084  0.5641  0.0720
11469SOL    HW136146   3.146   0.822   5.674  0.6864  1.5013 -0.9814
11469SOL    HW236147   3.019   0.894   5.711 -0.5743 -1.3961  0.6282
11470SOL     OW36148   8.140   6.318   1.022 -1.1542 -0.3900  0.0020
11470SOL    HW136149   8.101   6.405   1.034 -0.2019  0.2136 -1.0256
11470SOL    HW236150   8.068   6.257   1.036 -1.7452  0.5307  1.2205
11471SOL     OW36151   0.624   6.374   1.335 -0.4410  0.3966 -0.4144
11471SOL    HW136152   0.676   6.294   1.325 -1.7052 -0.5661  0.4210
11471SOL    HW236153   0.683   6.444   1.307  1.6212 -0.5382  1.3078
11472SOL     OW36154   6.294   1.916   2.192 -0.6099  0.4292  0.0268
11472SOL    HW136155   6.236   1.851   2.232  0.0948 -0.7317 -0.7948
11472SOL    HW236156   6.342   1.868   2.125 -0.4015  1.9123 -0.9231
11473SOL     OW36157   3.971   7.725   1.863 -0.4821 -0.1705  0.4381
11473SOL    HW136158   4.023   7.651   1.893 -0.8361 -0.9779 -0.8493
11473SOL    HW236159   3.885   7.712   1.902 -0.6458 -0.6419 -0.0749
11474SOL     OW36160   3.056   2.205   4.903  0.4219  0.5839  0.3059
11474SOL    HW136161   3.048   2.260   4.981  0.6777  0.9668  0.0664
11474SOL    HW236162   3.151   2.199   4.888  0.3723  0.5242  0.0159
11475SOL     OW36163   2.138   6.770   4.284 -0.8234 -0.2045  0.1558
11475SOL    HW136164   2.093   6.686   4.283 -0.7376 -0.2856  1.3918
11475SOL    HW236165   2.072   6.832   4.318 -0.1583 -0.2629  1.6599
11476SOL     OW36166   8.477   4.754   0.403 -0.8533 -0.0109 -0.3983
11476SOL    HW136167   8.476   4.845   0.432 -0.3466 -0.2778  0.4948
11476SOL    HW236168   8.391   4.739   0.364 -1.6116  0.3341  1.0943
11477SOL     OW36169   2.156   1.408   0.946 -0.7107  0.2383  0.2002
11477SOL    HW136170   2.134   1.346   1.015 -0.0261  0.2067  0.3956
11477SOL    HW236171   2.112   1.489   0.972  1.3294  0.9027  1.8970
11478SOL     OW36172   1.487   5.711   1.038  0.3676  0.4104  0.5344
11478SOL    HW136173   1.447   5.714   1.124 -0.1409  0.7037  0.2882
11478SOL    HW236174   1.414   5.716   0.977  0.7742  0.9204  0.0824
11479SOL     OW36175   3.059   1.200   5.122 -0.1654 -0.8774 -0.8764
11479SOL    HW136176   3.114   1.209   5.044  0.9761  0.0737  0.0035
11479SOL    HW236177   3.121   1.197   5.195 -1.2468 -0.3554  0.0998
11480SOL     OW36178   5.517   3.444   0.863 -0.1503  0.0963 -0.1994
11480SOL    HW136179   5.429   3.441   0.825  0.5872 -0.7802 -1.9363
11480SOL    HW236180   5.554   3.357   0.847  0.5353 -0.0406  1.8264
11481SOL     OW36181   1.047   5.714   7.661 -0.6802  0.1086  0.1352
11481SOL    HW136182   1.068   5.804   7.634 -1.7808  0.6805  1.0852
11481SOL    HW236183   1.026   5.722   7.754 -3.4980 -0.6303 -0.3530
11482SOL     OW36184   4.441   3.467   5.465 -0.2345  0.0185  0.1993
11482SOL    HW136185   4.515   3.496   5.410 -1.2135  0.6747 -0.8274
11482SOL    HW236186   4.477   3.465   5.553  1.3186 -0.7652 -0.4041
11483SOL     OW36187   0.164   8.710   3.325  0.7877  0.0328  0.2164
11483SOL    HW136188   0.201   8.733   3.410 -0.5601 -0.3073  0.9323
11483SOL    HW236189   0.238   8.677   3.274  1.9166  1.6589  0.7084
11484SOL     OW36190   9.382   2.180   8.964  0.0444  0.1498 -0.2902
11484SOL    HW136191   9.329   2.100   8.961 -0.5925  0.5046  0.8670
11484SOL    HW236192   9.462   2.157   8.917 -0.4773 -0.9010 -0.7077
11485SOL     OW36193   2.195   3.121   6.498  0.9226 -0.0579 -0.0573
11485SOL    HW136194   2.238   3.203   6.522  1.4408 -0.0900 -0.8411
11485SOL    HW236195   2.121   3.146   6.445  0.5867 -0.0604  0.4031
11486SOL     OW36196   6.238   9.388   3.497 -0.4680 -0.0507  0.0925
11486SOL    HW136197   6.184   9.439   3.556 -0.4805  1.6909 -1.3443
11486SOL    HW236198   6.176   9.350   3.434 -0.2448 -0.0173 -0.1506
11487SOL     OW36199   1.593   3.275   3.582 -0.4558 -0.1905  0.9528
11487SOL    HW136200   1.533   3.334   3.629 -1.3502  0.2947 -0.7122
11487SOL    HW236201   1.536   3.209   3.543  0.2543 -0.5163  0.4494
11488SOL     OW36202   8.932   0.752   3.731  0.8895 -0.3555  0.1041
11488SOL    HW136203   8.972   0.745   3.645  2.4295  2.3479  0.4738
11488SOL    HW236204   8.845   0.789   3.715  0.4827 -1.4611 -0.3526
11489SOL     OW36205   7.853   9.447   5.474  0.1794  0.5256  0.1556
11489SOL    HW136206   7.769   9.438   5.519  0.8396  0.6381  1.4497
11489SOL    HW236207   7.860   9.541   5.454  0.3840  0.6608  0.8409
11490SOL     OW36208   8.302   5.734   3.680  0.2625 -0.2973  0.3612
11490SOL    HW136209   8.310   5.761   3.589 -1.8227  0.0346  0.2247
11490SOL    HW236210   8.378   5.773   3.723  0.6750  0.4992 -1.0232
11491SOL     OW36211   9.330   7.868   6.442 -0.0596 -0.2320  0.1283
11491SOL    HW136212   9.422   7.858   6.417  0.2475 -0.7068  1.3848
11491SOL    HW236213   9.315   7.799   6.507 -2.1529 -2.1980 -2.2043
11492SOL     OW36214   5.796   8.955   2.388 -0.1355 -0.0383  0.6944
11492SOL    HW136215   5.705   8.963   2.357  0.7451 -0.3145 -2.2654
11492SOL    HW236216   5.811   8.860   2.392  0.7469 -0.0496 -1.4737
11493SOL     OW36217   7.553   0.967   6.953  0.2509 -0.0542  0.3771
11493SOL    HW136218   7.485   1.034   6.957  0.4163  0.1254  0.2118
11493SOL    HW236219   7.524   0.908   6.882  0.5543  0.3450 -0.0862
11494SOL     OW36220   6.195   4.950   1.480 -0.3047  0.7778 -0.2895
11494SOL    HW136221   6.178   4.963   1.386  0.5306  1.1369 -0.3898
11494SOL    HW236222   6.213   4.856   1.487  0.9190  0.9670 -0.7010
11495SOL     OW36223   5.331   8.535   1.535 -0.3240 -0.5885  0.3524
11495SOL    HW136224   5.321   8.593   1.459 -0.5416  0.4879  1.1839
11495SOL    HW236225   5.244   8.527   1.572 -0.0778 -0.4048  0.9882
11496SOL     OW36226   7.633   9.590   7.259 -0.0130 -0.1791 -0.0676
11496SOL    HW136227   7.538   9.602   7.256  0.0269  0.4893  0.8328
11496SOL    HW236228   7.645   9.495   7.261 -0.6683 -0.2687 -0.1646
11497SOL     OW36229   2.052   8.006   5.959 -0.3814 -0.1675 -0.0647
11497SOL    HW136230   1.976   7.960   5.997 -0.4598  0.8310  1.0648
11497SOL    HW236231   2.072   7.957   5.879 -2.1245 -0.5533 -0.3190
11498SOL     OW36232   6.818   2.699   0.355  0.6017  0.2552  0.3727
11498SOL    HW136233   6.903   2.718   0.394  1.2914  0.0301 -0.9479
11498SOL    HW236234   6.828   2.724   0.263 -0.3768 -0.8498 -0.0617
11499SOL     OW36235   8.979   3.523   3.507 -0.0556  0.2725  0.5207
11499SOL    HW136236   9.038   3.492   3.439  2.1096 -0.7222  2.7037
11499SOL    HW236237   8.987   3.618   3.505  0.4460  0.2184 -0.2195
11500SOL     OW36238   2.377   3.991   9.346 -0.0599 -0.1969  0.3404
11500SOL    HW136239   2.433   3.929   9.392  1.0785  0.4229 -0.1510
11500SOL    HW236240   2.389   4.074   9.392 -0.1941  0.0555 -0.0626
11501SOL     OW36241   6.224   3.432   5.197 -0.9359 -0.1722  0.0218
11501SOL    HW136242   6.183   3.446   5.111  0.5807  0.0085 -0.7027
11501SOL    HW236243   6.314   3.462   5.186 -0.7598  0.0339  1.7519
11502SOL     OW36244   3.649   7.528   2.602 -0.1665 -0.0783 -0.4589
11502SOL    HW136245   3.567   7.568   2.631 -0.0233  0.2544 -0.5088
11502SOL    HW236246   3.635   7.434   2.611 -0.7554 -0.0490 -0.9897
11503SOL     OW36247   0.010   0.537   3.664 -0.1119 -0.1123 -0.2759
11503SOL    HW136248  -0.028   0.454   3.691 -0.6695 -0.5669 -2.3359
11503SOL    HW236249  -0.065   0.595   3.651  0.0912 -0.0869 -1.3788
11504SOL     OW36250   0.155   1.732   4.243  0.5104 -0.9379  0.6762
11504SOL    HW136251   0.184   1.788   4.315  1.2348 -0.5460  0.0859
11504SOL    HW236252   0.180   1.779   4.164 -2.5442 -0.1039  0.0681
11505SOL     OW36253   2.472   3.679   5.906 -0.0255  0.1200 -0.2247
11505SOL    HW136254   2.485   3.601   5.959  0.2566  0.6922  0.5677
11505SOL    HW236255   2.379   3.677   5.883 -0.1784 -0.0712  0.3970
11506SOL     OW36256   7.738   5.627   9.232  0.0922 -0.3446 -0.3518
11506SOL    HW136257   7.643   5.636   9.228  0.0994  0.4890  0.8802
11506SOL    HW236258   7.771   5.682   9.161 -0.3603 -1.5324 -1.5223
11507SOL     OW36259   5.543   7.593   1.910 -0.2040 -0.5196 -0.3721
11507SOL    HW136260   5.603   7.554   1.975  0.9789  0.0592 -1.0715
11507SOL    HW236261   5.574   7.560   1.826 -0.1125  0.7179 -0.8483
11508SOL     OW36262   2.658   5.802   7.020  0.5106 -0.0344  0.0568
11508SOL    HW136263   2.658   5.734   6.953 -1.2674  0.0199 -0.0503
11508SOL    HW236264   2.588   5.862   6.993  0.6949  0.7361  1.2201
11509SOL     OW36265   0.569   1.685   0.429 -0.0343  0.2796 -0.5562
11509SOL    HW136266   0.529   1.763   0.468  1.2838 -0.6810  3.1472
11509SOL    HW236267   0.495   1.628   0.408 -0.8623  0.5991  1.3115
11510SOL     OW36268   8.180   2.247   7.076 -0.0637  0.5041 -0.1810
11510SOL    HW136269   8.172   2.304   7.153  0.1489 -0.0525  0.2503
11510SOL    HW236270   8.245   2.291   7.021 -0.1643  0.8678 -0.0150
11511SOL     OW36271   0.614   8.602   8.215  0.2132  0.0079 -0.2047
11511SOL    HW136272   0.549   8.658   8.172  0.1392  0.3938  0.3896
11511SOL    HW236273   0.579   8.514   8.207 -1.3122  0.3832  1.6523
11512SOL     OW36274   1.836   5.685   3.536 -0.0141 -0.1858 -0.0356
11512SOL    HW136275   1.914   5.740   3.537  1.4114 -2.0115 -1.6677
11512SOL    HW236276   1.767   5.742   3.503  1.1253  0.9462 -0.5587
11513SOL     OW36277   6.385   2.835   7.605  0.3480  0.1799 -0.1913
11513SOL    HW136278   6.419   2.893   7.674 -0.3617  0.9289 -0.4510
11513SOL    HW236279   6.387   2.889   7.526  0.4840 -0.4435 -0.6172
11514SOL     OW36280   0.323   4.933   0.241  0.2520 -0.5191 -0.0533
11514SOL    HW136281   0.326   4.955   0.148  2.4621  3.7941  0.7623
11514SOL    HW236282   0.230   4.928   0.261 -0.3139  0.0624 -2.2348
11515SOL     OW36283   5.718   4.466   4.202 -0.4394 -0.4823 -0.0484
11515SOL    HW136284   5.635   4.421   4.210 -1.0190  0.2850 -1.3243
11515SOL    HW236285   5.702   4.553   4.238 -0.3537 -0.1629 -0.7576
11516SOL     OW36286   4.136   2.140   4.398  0.3878  0.6152  0.0931
11516SOL    HW136287   4.200   2.147   4.327  0.4040  1.0339  0.1411
11516SOL    HW236288   4.083   2.064   4.376  0.3946  0.7410 -0.3717
11517SOL     OW36289   7.850   6.492   6.307  0.3560  0.1436  0.6243
11517SOL    HW136290   7.937   6.482   6.269 -0.5534  0.0375 -1.5740
11517SOL    HW236291   7.820   6.402   6.322 -0.0119  0.0987 -0.2706
11518SOL     OW36292   8.305   7.404   5.469 -0.5060 -0.4203 -0.0976
11518SOL    HW136293   8.375   7.350   5.432 -1.5791 -1.5101 -0.6206
11518SOL    HW236294   8.279   7.358   5.548  0.5066  0.9070  1.0528
11519SOL     OW36295   5.442   1.333   5.878 -0.1077  0.2756 -0.1830
11519SOL    HW136296   5.355   1.348   5.914 -0.4582 -0.1906 -0.8179
11519SOL    HW236297   5.481   1.266   5.934 -0.4607 -0.0891 -0.3745
11520SOL     OW36298   0.953   6.606   8.145 -0.9336 -0.6594  0.2947
11520SOL    HW136299   0.884   6.634   8.085 -0.3218 -0.7101 -0.4477
11520SOL    HW236300   0.978   6.519   8.114  1.4814  0.4971 -1.3131
11521SOL     OW36301   8.992   7.345   3.682  0.1902  0.5681 -0.6633
11521SOL    HW136302   9.049   7.414   3.648  0.1358  1.1212  0.3311
11521SOL    HW236303   9.034   7.316   3.763 -0.3681  0.2160 -0.4907
11522SOL     OW36304   8.876   6.884   9.601  0.2027 -0.3729 -0.7262
11522SOL    HW136305   8.897   6.906   9.692 -2.1318 -0.5046 -0.0995
11522SOL    HW236306   8.919   6.799   9.587 -0.3501 -0.9233  0.6633
11523SOL     OW36307   4.143   1.419   1.067 -0.0758 -0.2041 -0.6688
11523SOL    HW136308   4.066   1.447   1.117 -0.7529 -0.4078 -1.5619
11523SOL    HW236309   4.130   1.325   1.055 -1.3976  0.2502 -3.5863
11524SOL     OW36310   3.902   0.565   6.595  0.2381 -0.2606  0.3167
11524SOL    HW136311   3.920   0.585   6.687  0.2536  0.4553  0.1675
11524SOL    HW236312   3.856   0.643   6.563  1.0963 -0.0863 -0.5279
11525SOL     OW36313   0.544   3.247   8.800  0.4437 -0.2179 -0.6872
11525SOL    HW136314   0.595   3.271   8.878  0.2087 -1.2623 -0.1838
11525SOL    HW236315   0.528   3.153   8.811 -1.4611  0.0482 -0.9019
11526SOL     OW36316   5.261   5.846   7.795  0.2782 -0.3878 -0.0605
11526SOL    HW136317   5.277   5.921   7.737 -0.7202 -0.3439 -0.2996
11526SOL    HW236318   5.206   5.787   7.743 -0.0579 -0.6665  0.6032
11527SOL     OW36319   1.427   8.896   4.662  0.2475  0.2120 -0.2432
11527SOL    HW136320   1.427   8.991   4.656 -0.4620  0.1463 -2.8610
11527SOL    HW236321   1.387   8.867   4.580 -2.1857 -2.3164  1.6574
11528SOL     OW36322   4.346   8.912   3.768  0.5836  0.2058 -0.0452
11528SOL    HW136323   4.261   8.894   3.808  1.1552 -0.8095  0.7933
11528SOL    HW236324   4.384   8.980   3.824  1.0976 -0.7246  0.7834
11529SOL     OW36325   3.276   6.494   1.462 -0.1372 -0.2085 -0.5313
11529SOL    HW136326   3.227   6.576   1.457  1.2590  0.7876  0.8096
11529SOL    HW236327   3.213   6.430   1.492 -0.8404  0.8249  0.2772
11530SOL     OW36328   6.294   7.957   9.036  0.0136 -0.5806  0.4339
11530SOL    HW136329   6.290   7.873   8.990 -0.2600 -0.7305  0.7315
11530SOL    HW236330   6.387   7.978   9.037  0.5637 -2.5186  3.2628
11531SOL     OW36331   1.971   4.617   3.234  0.8662  0.4576  0.1149
11531SOL    HW136332   1.970   4.708   3.262 -1.6347  0.2471  0.8961
11531SOL    HW236333   1.938   4.568   3.309 -1.2555 -0.6583 -1.4338
11532SOL     OW36334   5.355   3.561   4.396  0.1710  0.1118 -0.1560
11532SOL    HW136335   5.269   3.602   4.396  0.3838  0.5699 -0.6181
11532SOL    HW236336   5.392   3.581   4.310  0.3919 -0.8333 -0.3008
11533SOL     OW36337   1.757   3.970   2.734 -0.5133 -0.5136 -0.8489
11533SOL    HW136338   1.785   3.878   2.735  0.4834 -0.2281 -1.4092
11533SOL    HW236339   1.706   3.979   2.653 -1.4472 -0.7913 -0.3141
11534SOL     OW36340   0.326   2.507   3.543 -0.3622  0.0536 -0.1980
11534SOL    HW136341   0.341   2.428   3.595  0.0586 -0.1693 -0.6580
11534SOL    HW236342   0.355   2.484   3.455  0.3122  0.9003 -0.2098
11535SOL     OW36343   0.703   7.702   6.652 -0.1674 -0.0301  0.6950
11535SOL    HW136344   0.769   7.739   6.711  1.1995 -3.2721  1.4145
11535SOL    HW236345   0.649   7.646   6.709 -0.2535 -1.4408 -0.7151
11536SOL     OW36346   5.482   5.472   4.986  0.9158 -0.2029  0.5066
11536SOL    HW136347   5.427   5.506   4.916  0.8112 -2.3143 -0.5341
11536SOL    HW236348   5.421   5.438   5.051  1.0143  1.6642  1.6209
11537SOL     OW36349   8.822   7.492   3.500 -0.5394  0.7433 -0.2579
11537SOL    HW136350   8.894   7.546   3.468 -0.9845  1.5432  0.0418
11537SOL    HW236351   8.863   7.409   3.524  0.1820  0.9774 -0.6500
11538SOL     OW36352   2.242   8.920   4.048 -0.4538  0.3339 -0.0068
11538SOL    HW136353   2.253   8.881   3.961  1.7457  0.0344  0.3559
11538SOL    HW236354   2.156   8.890   4.077 -0.5357 -0.8922 -1.4047
11539SOL     OW36355   3.407   7.671   8.065 -0.3434  0.0237  0.5049
11539SOL    HW136356   3.498   7.691   8.043  0.4960 -3.0853  0.7333
11539SOL    HW236357   3.357   7.697   7.987  0.8696  0.7262 -0.0656
11540SOL     OW36358   0.893   9.596   4.349  0.5567 -0.3712 -0.1972
11540SOL    HW136359   0.823   9.559   4.402  0.7691 -0.5800 -0.0656
11540SOL    HW236360   0.855   9.677   4.314  0.0062 -0.8321 -0.6942
11541SOL     OW36361   4.792   5.647   1.328 -0.0467 -0.0597  0.3808
11541SOL    HW136362   4.748   5.732   1.327  0.8177  0.4112 -1.2683
11541SOL    HW236363   4.876   5.663   1.286 -0.4871 -2.0518 -1.4011
11542SOL     OW36364   3.041   1.420   4.935 -0.4410  0.0919 -0.0572
11542SOL    HW136365   3.021   1.336   4.893 -1.8820  0.2095  0.3423
11542SOL    HW236366   3.134   1.415   4.955 -0.6101 -1.6672  0.4741
11543SOL     OW36367   5.659   2.636   9.331 -0.1207 -0.0227  0.2646
11543SOL    HW136368   5.615   2.551   9.329 -1.3673  0.4836  2.7974
11543SOL    HW236369   5.593   2.697   9.364  1.4443  1.4866  0.7858
11544SOL     OW36370   7.609   4.866   5.191  0.6823  0.1968  0.2000
11544SOL    HW136371   7.697   4.853   5.226  2.1397  1.3194 -2.7175
11544SOL    HW236372   7.612   4.951   5.148 -2.0314  0.5116  0.4520
11545SOL     OW36373   8.413   6.959   1.643  0.0940  0.0302 -0.0723
11545SOL    HW136374   8.475   6.990   1.577 -0.2267 -0.0143 -0.4016
11545SOL    HW236375   8.370   6.884   1.601  0.0623 -0.1518  0.2845
11546SOL     OW36376   3.646   7.688   7.855 -0.0712  0.3271  0.0671
11546SOL    HW136377   3.619   7.763   7.803  0.4888 -0.5069 -1.4847
11546SOL    HW236378   3.724   7.655   7.811 -0.7996 -1.6901  0.1871
11547SOL     OW36379   0.971   0.380   4.103  0.4104  0.0361  0.1837
11547SOL    HW136380   0.972   0.394   4.198 -1.6444 -1.0392  0.4152
11547SOL    HW236381   1.026   0.303   4.091 -1.4132 -1.4513  0.8796
11548SOL     OW36382   1.975   0.952   0.401  0.1044  0.5254  0.3297
11548SOL    HW136383   2.013   0.879   0.450 -0.7455 -0.7974 -0.9384
11548SOL    HW236384   1.884   0.957   0.432 -0.1314  0.3862 -0.3459
11549SOL     OW36385   1.913   2.502   0.355  0.2402  0.6297 -0.0105
11549SOL    HW136386   1.838   2.554   0.381 -0.6471 -0.7857  0.3525
11549SOL    HW236387   1.967   2.497   0.434 -0.0357  0.4027  0.1667
11550SOL     OW36388   8.749   2.051   2.191  0.9604  0.0614  0.0227
11550SOL    HW136389   8.816   2.103   2.235  0.7088  0.3873  0.0249
11550SOL    HW236390   8.704   2.113   2.134  1.0110 -0.2707 -0.3805
11551SOL     OW36391   8.424   4.822   4.186 -0.5240  0.4548 -0.1930
11551SOL    HW136392   8.419   4.767   4.264 -2.0100 -1.7490 -1.7251
11551SOL    HW236393   8.517   4.826   4.165 -0.1326  0.8712  1.5122
11552SOL     OW36394   2.913   8.317   7.207 -0.2123 -0.2550 -0.0880
11552SOL    HW136395   2.860   8.371   7.149  0.7683  3.5508  2.2497
11552SOL    HW236396   2.988   8.291   7.153 -1.1660 -0.1222 -1.5335
11553SOL     OW36397   2.362   0.793   6.434 -0.0979 -0.2704  0.9496
11553SOL    HW136398   2.375   0.887   6.446 -0.5397  0.0986 -1.0839
11553SOL    HW236399   2.437   0.765   6.380 -1.4285 -0.4720 -0.8763
11554SOL     OW36400   3.641   6.347   3.153  0.3625  0.1378  0.1154
11554SOL    HW136401   3.603   6.260   3.168 -0.1099  0.4092  0.5250
11554SOL    HW236402   3.595   6.404   3.215  1.5422  0.4554  0.7266
11555SOL     OW36403   9.364   5.469   5.050  0.2602 -0.1764  0.4021
11555SOL    HW136404   9.278   5.494   5.084 -0.2308  0.1235 -1.0150
11555SOL    HW236405   9.352   5.462   4.956  1.6111 -0.9024  0.2579
11556SOL     OW36406   6.088   0.413   8.319 -0.0012  0.1244 -0.0517
11556SOL    HW136407   6.105   0.367   8.236  2.3699 -0.2331  0.5588
11556SOL    HW236408   6.168   0.462   8.336  0.0950 -0.7886  2.6483
11557SOL     OW36409   4.567   8.887   5.870  0.2116 -0.4644  0.1717
11557SOL    HW136410   4.577   8.796   5.840  0.7506 -0.9471  1.7337
11557SOL    HW236411   4.624   8.893   5.946  0.1712  1.1986  0.0915
11558SOL     OW36412   2.198   2.907   9.457 -0.0254 -0.0502 -0.6674
11558SOL    HW136413   2.275   2.891   9.403  0.7540  1.4716 -0.0432
11558SOL    HW236414   2.232   2.922   9.545 -1.1583 -0.7722 -0.0689
11559SOL     OW36415   1.614   3.062   7.539 -0.3530 -0.0966  0.0063
11559SOL    HW136416   1.647   2.975   7.562 -0.1145 -0.2638 -0.9287
11559SOL    HW236417   1.691   3.111   7.510 -0.7201 -0.0957 -1.0101
11560SOL     OW36418   5.089   6.214   6.011 -0.5224 -0.5081  0.1294
11560SOL    HW136419   5.075   6.215   6.105 -2.3997 -0.2614 -0.0979
11560SOL    HW236420   5.001   6.206   5.974  0.2229 -1.3116 -1.5964
11561SOL     OW36421   2.745   3.166   4.519 -0.6376  0.3171  0.4495
11561SOL    HW136422   2.715   3.257   4.511  0.4808  0.5715 -1.3568
11561SOL    HW236423   2.744   3.149   4.613 -0.2235  2.4250  0.8938
11562SOL     OW36424   2.569   3.712   0.204 -0.3307  0.7487 -0.2398
11562SOL    HW136425   2.521   3.660   0.140 -0.6783 -0.9506  1.3479
11562SOL    HW236426   2.501   3.756   0.255 -0.2783 -1.2829  1.6983
11563SOL     OW36427   8.209   3.550   3.850  0.0882 -0.3471  0.7950
11563SOL    HW136428   8.183   3.511   3.934  0.6472  1.2040  1.7190
11563SOL    HW236429   8.297   3.514   3.834  0.8015  0.8440  1.8811
11564SOL     OW36430   4.780   1.941   2.041 -0.2689  0.0304  0.3178
11564SOL    HW136431   4.721   1.870   2.017  1.0646 -1.5554  1.4915
11564SOL    HW236432   4.750   1.969   2.127 -1.3095  1.5506 -0.4819
11565SOL     OW36433   9.536   6.610   6.457 -0.0361 -0.2991  0.3083
11565SOL    HW136434   9.628   6.623   6.434 -0.6330  0.0617 -2.2585
11565SOL    HW236435   9.509   6.692   6.498  0.0920  0.7939 -1.6631
11566SOL     OW36436   6.379   2.626   9.514  0.9157 -0.6290  0.2678
11566SOL    HW136437   6.355   2.592   9.601  0.9112 -0.8419  0.1847
11566SOL    HW236438   6.327   2.574   9.453 -0.6336  0.8906  0.2241
11567SOL     OW36439   8.928   8.062   3.268 -0.2220 -0.8076  0.6212
11567SOL    HW136440   8.852   8.070   3.211 -0.5783  0.2422  1.2261
11567SOL    HW236441   8.914   7.980   3.315 -1.2596 -0.3541  1.1248
11568SOL     OW36442   3.224   5.559   0.531  0.3308 -0.2230  0.4164
11568SOL    HW136443   3.291   5.490   0.533 -0.4257 -1.0086 -0.1820
11568SOL    HW236444   3.159   5.526   0.469 -1.2131 -0.0497  1.8667
11569SOL     OW36445   6.644   8.224   0.177  0.7788 -0.2514 -0.6466
11569SOL    HW136446   6.622   8.131   0.166  0.5508 -0.1240 -1.2691
11569SOL    HW236447   6.570   8.259   0.227  0.9961 -0.4593 -0.1702
11570SOL     OW36448   0.679   5.473   7.058  0.2330  0.7272 -0.0883
11570SOL    HW136449   0.661   5.558   7.018 -0.9240  0.6189  0.1738
11570SOL    HW236450   0.694   5.494   7.150 -2.9901  0.4232  0.6388
11571SOL     OW36451   5.799   4.701   5.349 -0.5422  0.2906  0.6704
11571SOL    HW136452   5.822   4.783   5.306 -0.0900  0.2333  0.8042
11571SOL    HW236453   5.774   4.727   5.438 -2.6461  0.5562  0.0525
11572SOL     OW36454   0.240   0.824   6.790 -0.2525  1.2236 -0.4016
11572SOL    HW136455   0.224   0.909   6.832  1.7482  1.1740  0.5996
11572SOL    HW236456   0.153   0.788   6.774 -1.1357  2.4887  1.2193
11573SOL     OW36457   5.579   0.014   0.319 -0.1213  0.3675 -0.5270
11573SOL    HW136458   5.552   0.042   0.406 -1.2503 -0.7580 -0.4828
11573SOL    HW236459   5.674   0.026   0.318 -0.2942  2.0411  0.2195
11574SOL     OW36460   9.069   5.771   5.473  0.4567  0.4857  0.3652
11574SOL    HW136461   9.048   5.699   5.533  2.1849  0.0939  0.5494
11574SOL    HW236462   9.010   5.842   5.500  2.0267  0.7733  3.4446
11575SOL     OW36463   2.827   8.267   9.471  0.5349  0.5471 -0.4588
11575SOL    HW136464   2.760   8.316   9.518 -1.8957 -2.8884  0.0030
11575SOL    HW236465   2.841   8.317   9.390 -0.8170  2.5763  0.4709
11576SOL     OW36466   0.012   0.023   0.002 -0.0747  0.0829  0.0681
11576SOL    HW136467  -0.060  -0.014   0.052 -1.1036 -0.1739 -1.5300
11576SOL    HW236468  -0.014   0.114  -0.013 -0.5561 -0.2682 -1.3342
11577SOL     OW36469   3.850   9.392   7.435  0.8531 -0.1837 -0.1992
11577SOL    HW136470   3.912   9.352   7.495 -0.7145 -2.2845  0.1404
11577SOL    HW236471   3.849   9.485   7.459  1.4421 -0.6862  1.9657
11578SOL     OW36472   5.161   8.579   9.516 -0.6993 -0.4635 -0.2694
11578SOL    HW136473   5.231   8.549   9.575 -1.4414 -1.1707  0.2665
11578SOL    HW236474   5.148   8.671   9.540  1.4467  0.3156 -1.7765
11579SOL     OW36475   8.359   2.900   9.539  0.2324  0.2602  0.4164
11579SOL    HW136476   8.363   2.841   9.614  1.0486  0.8313  0.8375
11579SOL    HW236477   8.402   2.980   9.569  0.9704  0.3459 -0.8047
11580SOL     OW36478   8.860   3.253   3.676 -0.7462 -0.4929 -0.3270
11580SOL    HW136479   8.895   3.239   3.764 -1.1152 -0.2927 -0.1486
11580SOL    HW236480   8.922   3.207   3.619 -1.5841 -2.3978  0.1885
11581SOL     OW36481   3.935   4.730   8.403 -0.3431  0.0143 -0.4601
11581SOL    HW136482   3.924   4.737   8.498  0.7379 -0.1157 -0.3071
11581SOL    HW236483   3.898   4.811   8.368 -0.7846  0.0450  0.0619
11582SOL     OW36484   7.859   3.007   7.685 -0.7964  0.0470 -0.5194
11582SOL    HW136485   7.766   2.987   7.686 -0.6836 -0.4750 -0.4089
11582SOL    HW236486   7.897   2.950   7.752 -0.6575  1.5794  0.7578
11583SOL     OW36487   1.820   5.408   3.455  0.0940 -0.5351  0.5888
11583SOL    HW136488   1.726   5.390   3.451  0.0798 -0.1926 -1.6403
11583SOL    HW236489   1.826   5.504   3.460  0.3457 -0.5979  2.0666
11584SOL     OW36490   5.280   8.726   0.304 -1.0099 -0.3307 -0.4810
11584SOL    HW136491   5.327   8.804   0.335 -1.8953  0.9573 -2.2233
11584SOL    HW236492   5.204   8.719   0.362 -0.7666 -0.0886 -0.1268
11585SOL     OW36493   9.247   5.376   5.516  0.2179 -0.0791 -0.2680
11585SOL    HW136494   9.246   5.333   5.602 -2.9666  0.1201 -0.1129
11585SOL    HW236495   9.231   5.306   5.453 -0.8231  0.2314 -0.3704
11586SOL     OW36496   0.452   2.701   9.471 -0.0479  0.1404 -0.1897
11586SOL    HW136497   0.379   2.689   9.410 -0.1428  0.0696 -0.0624
11586SOL    HW236498   0.412   2.696   9.558 -0.1317  1.5087 -0.1157
11587SOL     OW36499   3.526   4.593   2.515  0.1441  0.7039 -0.4362
11587SOL    HW136500   3.585   4.663   2.486  2.6980 -0.7877  0.7595
11587SOL    HW236501   3.525   4.600   2.610 -0.8769  0.1058 -0.3960
11588SOL     OW36502   3.157   0.095   7.707 -0.5694  0.0363  0.0511
11588SOL    HW136503   3.211   0.118   7.783 -1.3051  1.1905  0.2568
11588SOL    HW236504   3.084   0.046   7.744 -1.0474  0.7964  0.1335
11589SOL     OW36505   2.097   5.655   3.225  0.1926  0.3268 -0.1116
11589SOL    HW136506   2.005   5.676   3.208  0.5540 -0.2691 -3.3316
11589SOL    HW236507   2.096   5.567   3.261 -0.5426  0.8831  1.3004
11590SOL     OW36508   3.073   0.349   2.390  0.6133  0.1021 -0.1621
11590SOL    HW136509   3.008   0.415   2.413  0.4441  0.4596 -1.5979
11590SOL    HW236510   3.071   0.345   2.295  3.0571  0.4764 -0.2884
11591SOL     OW36511   5.459   2.168   5.086  0.1832 -0.5760  0.1135
11591SOL    HW136512   5.392   2.216   5.135  0.2958  1.0335 -1.2233
11591SOL    HW236513   5.432   2.076   5.092 -0.7038 -0.2500  1.7538
11592SOL     OW36514   8.092   7.739   3.942  0.4627  0.1400 -0.3613
11592SOL    HW136515   8.008   7.695   3.930  1.5836 -2.0821 -0.6253
11592SOL    HW236516   8.137   7.728   3.858  0.8587  1.7381 -0.3886
11593SOL     OW36517   2.303   6.138   0.768  0.0743 -0.8358 -0.3675
11593SOL    HW136518   2.219   6.113   0.730 -0.5116  0.5313 -0.0125
11593SOL    HW236519   2.298   6.233   0.778  1.1666 -0.8787  0.8461
11594SOL     OW36520   6.427   0.169   6.232 -0.2249 -0.2831 -0.5981
11594SOL    HW136521   6.514   0.133   6.251 -1.0644 -2.6563 -0.9205
11594SOL    HW236522   6.371   0.135   6.303 -0.7929  1.7539 -0.0208
11595SOL     OW36523   7.187   0.283   1.319  0.2601 -0.1836  0.1241
11595SOL    HW136524   7.177   0.278   1.414 -0.6640  0.0813  0.0491
11595SOL    HW236525   7.208   0.375   1.302  0.2924 -0.2026  0.0621
11596SOL     OW36526   0.880   2.971   2.808  0.2886 -0.3583 -0.1596
11596SOL    HW136527   0.823   2.913   2.858  0.3283 -0.8489 -0.6830
11596SOL    HW236528   0.894   3.046   2.866 -0.8117 -0.2680  0.0149
11597SOL     OW36529   6.058   2.029   0.321  0.2753  0.3833 -0.4873
11597SOL    HW136530   6.041   2.043   0.228 -0.7454 -1.2167 -0.5783
11597SOL    HW236531   6.116   1.954   0.324  0.7555  0.7756  0.1592
11598SOL     OW36532   6.909   2.930   3.154  0.1653 -0.3387  0.2316
11598SOL    HW136533   6.963   2.982   3.214 -0.6451  0.9046 -0.0935
11598SOL    HW236534   6.912   2.978   3.071 -1.9778  0.1241  0.3869
11599SOL     OW36535   4.315   4.646   7.696  0.4009 -0.1402  0.9207
11599SOL    HW136536   4.291   4.583   7.764 -0.4275  0.9126  1.6255
11599SOL    HW236537   4.354   4.719   7.744  0.9065  0.1101  0.1477
11600SOL     OW36538   8.183   1.945   4.885 -0.6232 -0.2578  0.4348
11600SOL    HW136539   8.130   2.023   4.868  0.4070  0.1090 -1.2966
11600SOL    HW236540   8.129   1.873   4.855 -0.4300  0.0554 -0.7011
11601SOL     OW36541   4.172   0.709   8.954  0.6612  0.0521  0.9071
11601SOL    HW136542   4.131   0.624   8.967  0.9339 -0.0027  1.4742
11601SOL    HW236543   4.204   0.708   8.864 -0.9619  0.2724  0.3055
11602SOL     OW36544   4.750   1.189   3.738  0.0697 -0.2501  0.3733
11602SOL    HW136545   4.821   1.127   3.756  0.6224  0.8662  2.3613
11602SOL    HW236546   4.723   1.219   3.824 -1.1858  1.1835 -0.4804
11603SOL     OW36547   6.600   5.899   3.407  0.4604 -0.0284 -0.0889
11603SOL    HW136548   6.635   5.898   3.319  0.4864 -0.2252 -0.0759
11603SOL    HW236549   6.662   5.847   3.459 -0.0604 -0.7301 -0.1493
11604SOL     OW36550   6.050   7.828   2.600 -0.4805  0.1900  0.3235
11604SOL    HW136551   6.122   7.768   2.582  2.2061  3.4899 -1.2088
11604SOL    HW236552   6.018   7.853   2.514 -2.2018  0.2394  0.9487
11605SOL     OW36553   8.892   5.848   5.257 -0.7634 -0.2607 -0.5358
11605SOL    HW136554   8.929   5.916   5.201 -0.5748 -0.6001 -0.8276
11605SOL    HW236555   8.966   5.814   5.307 -0.9467  0.1008 -0.0093
11606SOL     OW36556   3.907   6.283   3.206  0.8616  0.3432  0.2863
11606SOL    HW136557   3.824   6.310   3.166  1.2271 -0.6251 -1.2193
11606SOL    HW236558   3.882   6.229   3.280  0.1556  1.5003  0.9151
11607SOL     OW36559   9.020   4.973   5.450  0.0261 -0.9896 -0.8229
11607SOL    HW136560   9.090   4.940   5.506  0.0781 -0.1227 -0.3578
11607SOL    HW236561   9.036   4.932   5.365  3.5772  2.1922 -1.9791
11608SOL     OW36562   3.557   6.346   4.676 -0.7133 -0.7149 -0.0837
11608SOL    HW136563   3.613   6.375   4.748 -0.8848 -1.7357  0.4905
11608SOL    HW236564   3.616   6.295   4.620 -0.1872  1.4568 -1.6003
11609SOL     OW36565   6.038   6.848   0.193  0.0275 -0.3167  0.3898
11609SOL    HW136566   6.130   6.873   0.191  0.3957 -1.6155 -1.6122
11609SOL    HW236567   6.015   6.849   0.286  1.3809  2.2233  0.7948
11610SOL     OW36568   8.426   4.607   2.028  0.1111 -0.1759 -0.9061
11610SOL    HW136569   8.427   4.648   2.114  0.6483 -1.8391 -0.0594
11610SOL    HW236570   8.497   4.649   1.979 -0.3085  0.8956 -0.6122
11611SOL     OW36571   7.882   1.587   1.510  0.2089 -0.2559 -0.5829
11611SOL    HW136572   7.805   1.539   1.541  0.5829 -0.3538  0.2169
11611SOL    HW236573   7.950   1.520   1.501  0.5126 -0.0019 -0.2042
11612SOL     OW36574   7.349   5.840   4.236  0.4071  0.3443 -0.4405
11612SOL    HW136575   7.383   5.753   4.215 -0.8814  0.1296 -1.8862
11612SOL    HW236576   7.316   5.833   4.325  1.0869 -0.4003 -0.2406
11613SOL     OW36577   9.344   5.498   0.854 -0.1530  0.0909 -0.5025
11613SOL    HW136578   9.409   5.546   0.802 -0.7363 -1.0462 -2.3647
11613SOL    HW236579   9.383   5.493   0.941  1.7011  0.5270 -1.2524
11614SOL     OW36580   7.776   8.620   8.333  0.4203 -0.5555 -0.0722
11614SOL    HW136581   7.727   8.538   8.325  0.0184 -0.2324 -1.1776
11614SOL    HW236582   7.769   8.644   8.425 -1.1185 -0.7628 -0.1139
11615SOL     OW36583   9.589   2.846   9.311 -0.0513 -0.1378 -0.4064
11615SOL    HW136584   9.595   2.890   9.227  1.5382  0.1793 -0.1588
11615SOL    HW236585   9.553   2.759   9.291  2.7560 -1.0846 -1.8509
11616SOL     OW36586   6.133   2.060   4.032 -0.1019 -0.3850 -0.2768
11616SOL    HW136587   6.054   2.057   4.087 -0.3497 -0.1644 -0.6090
11616SOL    HW236588   6.204   2.081   4.092  0.0777 -2.6847  0.3896
11617SOL     OW36589   0.176   6.886   7.077  0.0251 -0.1402 -0.0413
11617SOL    HW136590   0.161   6.860   6.986 -1.2874  0.0296  0.1055
11617SOL    HW236591   0.259   6.934   7.075 -0.7731  1.2841 -1.4566
11618SOL     OW36592   5.617   0.750   3.116  0.5597  0.2863  0.0253
11618SOL    HW136593   5.542   0.775   3.170 -0.3762  0.3462 -1.2531
11618SOL    HW236594   5.579   0.723   3.032  1.7161 -2.8080  0.3780
11619SOL     OW36595   7.080   2.931   8.878  0.1690  0.0149  0.1533
11619SOL    HW136596   6.998   2.941   8.830  0.6907  2.2211 -0.3725
11619SOL    HW236597   7.073   2.991   8.952  1.3936  0.4131 -0.0374
11620SOL     OW36598   4.368   2.637   4.850  0.5461 -0.4236  0.2069
11620SOL    HW136599   4.346   2.608   4.761 -2.4806 -1.4948  1.1479
11620SOL    HW236600   4.439   2.580   4.877  0.0863 -1.5349 -0.8283
11621SOL     OW36601   1.058   7.459   4.133  0.1581  0.0540 -0.8458
11621SOL    HW136602   1.144   7.423   4.110  0.7387  0.8102  0.0437
11621SOL    HW236603   1.001   7.434   4.061  0.9170 -1.2320 -1.0320
11622SOL     OW36604   2.150   6.883   5.861 -0.1956 -0.4048 -0.1100
11622SOL    HW136605   2.125   6.882   5.953  1.6547 -0.0972  0.4384
11622SOL    HW236606   2.103   6.809   5.822 -0.0951 -1.2616  1.3417
11623SOL     OW36607   0.050   8.042   3.231  0.6471  0.0709  0.3063
11623SOL    HW136608   0.049   8.015   3.323 -2.6058 -1.2731  0.0393
11623SOL    HW236609  -0.009   8.117   3.227  2.4547  1.5268 -0.4199
11624SOL     OW36610   2.043   9.413   0.604  0.3612 -0.5703 -0.3133
11624SOL    HW136611   2.137   9.404   0.619  0.5094 -2.0499 -1.7803
11624SOL    HW236612   2.006   9.331   0.635 -0.1425 -0.8858 -1.6744
11625SOL     OW36613   0.673   0.948   6.672 -0.4356  0.4235  0.0575
11625SOL    HW136614   0.597   0.981   6.721  0.8565  1.0460  1.7364
11625SOL    HW236615   0.658   0.854   6.666 -1.1000  0.4607  0.8555
11626SOL     OW36616   1.861   1.860   5.871  0.0399 -0.5363 -0.0177
11626SOL    HW136617   1.919   1.846   5.946 -1.3934 -1.1388  1.0392
11626SOL    HW236618   1.825   1.773   5.853  0.8009 -0.5200 -1.8220
11627SOL     OW36619   5.437   5.906   3.872  0.8388  0.4749 -0.2514
11627SOL    HW136620   5.386   5.986   3.886 -1.4636 -1.0780  0.7936
11627SOL    HW236621   5.474   5.917   3.784  1.9671  3.3321  0.4695
11628SOL     OW36622   6.645   6.895   5.330 -0.5151 -0.2571 -0.7956
11628SOL    HW136623   6.672   6.834   5.399 -0.5417  0.4225 -0.1648
11628SOL    HW236624   6.718   6.895   5.268  0.7685  1.1328  0.6078
11629SOL     OW36625   2.606   2.727   4.739  0.5087  0.1070 -0.5313
11629SOL    HW136626   2.640   2.718   4.650  0.0768 -2.5951 -0.5092
11629SOL    HW236627   2.675   2.691   4.795 -0.0797 -0.2074  0.0109
11630SOL     OW36628   9.533   5.740   1.401  0.4414  0.1491  0.5318
11630SOL    HW136629   9.579   5.662   1.434  0.6967  0.3053  0.5501
11630SOL    HW236630   9.573   5.756   1.315  0.3233  0.2035  0.4867
11631SOL     OW36631   1.307   3.592   8.645 -0.2118 -0.4373 -0.2712
11631SOL    HW136632   1.245   3.549   8.703 -1.6797  0.5464 -1.0554
11631SOL    HW236633   1.334   3.524   8.583 -0.2712 -0.9452  0.2568
11632SOL     OW36634   4.994   2.252   0.690 -0.0469  0.0934  0.2656
11632SOL    HW136635   5.079   2.216   0.715 -0.3009 -1.0410 -0.4166
11632SOL    HW236636   4.966   2.305   0.765  2.3850  2.6053 -0.4305
11633SOL     OW36637   8.769   0.791   5.918 -0.1155 -0.9060  0.0974
11633SOL    HW136638   8.719   0.784   5.837 -1.8555 -2.8038  1.2195
11633SOL    HW236639   8.754   0.881   5.948 -1.4739 -0.9030 -0.4857
11634SOL     OW36640   9.373   5.318   8.649  0.4315  0.0241 -0.0144
11634SOL    HW136641   9.379   5.275   8.734  0.0236 -3.1414 -1.4612
11634SOL    HW236642   9.302   5.274   8.604 -0.0061  2.2634 -1.7072
11635SOL     OW36643   6.824   4.364   3.173 -0.0022 -0.3219  0.1978
11635SOL    HW136644   6.748   4.419   3.191 -0.4300 -0.5209 -0.9426
11635SOL    HW236645   6.819   4.295   3.240 -1.1448 -0.6394 -0.1904
11636SOL     OW36646   1.938   5.210   0.905  0.4920 -0.2650  0.4669
11636SOL    HW136647   1.981   5.188   0.988  1.5100 -2.0341 -0.4620
11636SOL    HW236648   2.008   5.206   0.840 -0.1614  1.7187 -0.4302
11637SOL     OW36649   0.519   3.906   2.501  0.0914 -0.8824 -0.2532
11637SOL    HW136650   0.526   3.836   2.436  0.5997  0.8124 -2.0795
11637SOL    HW236651   0.424   3.917   2.514  0.0046 -2.1524  0.3914
11638SOL     OW36652   8.839   5.647   1.123  0.1945  0.5470 -0.4330
11638SOL    HW136653   8.852   5.733   1.085 -2.0363  0.4510 -1.5869
11638SOL    HW236654   8.757   5.654   1.173  1.6536 -0.0630  2.2801
11639SOL     OW36655   1.884   4.967   7.656 -0.0894  0.2283  0.0499
11639SOL    HW136656   1.828   4.895   7.627  1.2820 -1.5625  1.6357
11639SOL    HW236657   1.826   5.023   7.706 -0.7428 -0.9842  0.6990
11640SOL     OW36658   2.882   2.477   8.038  0.2307  0.2379 -0.3489
11640SOL    HW136659   2.854   2.557   8.084 -1.3033 -0.3391 -0.2114
11640SOL    HW236660   2.971   2.497   8.008 -0.5703  2.5410 -1.4976
11641SOL     OW36661   9.298   7.935   8.400  0.4913 -0.4290 -0.5939
11641SOL    HW136662   9.294   7.882   8.479 -1.5220 -0.9689 -0.9889
11641SOL    HW236663   9.359   8.006   8.421 -0.4574 -0.1967  1.6735
11642SOL     OW36664   9.315   5.699   7.714  0.2174 -0.0985 -0.2115
11642SOL    HW136665   9.357   5.663   7.636 -0.0798  0.7882 -0.7875
11642SOL    HW236666   9.255   5.766   7.681  0.0566  0.2603  0.7738
11643SOL     OW36667   0.962   6.383   1.801  0.5115 -0.4791 -0.0898
11643SOL    HW136668   0.880   6.345   1.832 -0.3724 -0.0987 -1.7751
11643SOL    HW236669   1.022   6.376   1.874 -1.4682  0.5987  1.7677
11644SOL     OW36670   1.238   7.026   2.422 -0.0840  0.0753 -0.0849
11644SOL    HW136671   1.221   7.109   2.467  2.5374  0.1703  0.9310
11644SOL    HW236672   1.227   7.046   2.329 -2.4732  0.7131  0.2737
11645SOL     OW36673   8.487   7.051   2.875  0.6778  0.7281 -0.1385
11645SOL    HW136674   8.496   7.145   2.888  1.6527  0.5019  1.0714
11645SOL    HW236675   8.410   7.027   2.927 -0.5889  1.0695 -1.7779
11646SOL     OW36676   5.669   5.759   2.670 -0.2852 -0.4173  0.4356
11646SOL    HW136677   5.646   5.672   2.636 -0.8680 -0.3937  0.7536
11646SOL    HW236678   5.669   5.816   2.593  0.1624 -0.7135  0.2160
11647SOL     OW36679   7.221   2.179   1.373 -0.6471  0.1321 -0.1118
11647SOL    HW136680   7.178   2.257   1.338  0.2661  1.0558  0.7509
11647SOL    HW236681   7.302   2.170   1.323 -0.9641 -0.5464 -0.5193
11648SOL     OW36682   2.225   8.928   4.760 -0.8315 -0.5040  0.0784
11648SOL    HW136683   2.133   8.904   4.766 -0.7799 -0.5425  0.7541
11648SOL    HW236684   2.225   9.023   4.752 -0.9142 -0.4801  0.3806
11649SOL     OW36685   0.643   0.436   5.272  0.6650  0.1401 -0.2395
11649SOL    HW136686   0.731   0.462   5.244  0.2900  1.3957 -0.3181
11649SOL    HW236687   0.614   0.507   5.329 -0.0387 -0.5933  0.3335
11650SOL     OW36688   7.086   9.110   2.018 -0.2797  0.1587 -0.1019
11650SOL    HW136689   7.140   9.034   1.996  0.2222  0.9605 -1.8783
11650SOL    HW236690   7.146   9.184   2.012 -0.7354  0.7222  1.7078
11651SOL     OW36691   3.876   6.821   5.551  0.4197  0.5741  0.1506
11651SOL    HW136692   3.952   6.876   5.531 -0.2825  2.1858  1.6618
11651SOL    HW236693   3.821   6.826   5.472  1.7828 -0.5241 -0.9132
11652SOL     OW36694   8.817   6.673   0.700 -0.0424  0.0031  0.1744
11652SOL    HW136695   8.894   6.665   0.756 -1.6917 -0.9619  2.4800
11652SOL    HW236696   8.745   6.694   0.761 -2.1222 -2.0359 -1.3851
11653SOL     OW36697   9.516   8.403   0.446 -0.1491 -0.2026  0.3852
11653SOL    HW136698   9.581   8.471   0.432 -2.0653  1.5712 -0.5810
11653SOL    HW236699   9.468   8.398   0.363 -1.3819 -1.2591  1.1066
11654SOL     OW36700   9.586   7.823   3.811 -0.0767 -0.2868 -0.0578
11654SOL    HW136701   9.579   7.896   3.873  1.6758 -0.2670  0.1802
11654SOL    HW236702   9.662   7.845   3.757 -0.1895 -1.4095 -0.6970
11655SOL     OW36703   4.312   5.998   5.240 -0.2872 -0.3163 -0.3833
11655SOL    HW136704   4.333   6.021   5.150 -2.7074  0.8599 -0.7266
11655SOL    HW236705   4.223   5.963   5.236 -0.5968  0.0960  1.5902
11656SOL     OW36706   1.844   7.599   4.962  0.1747  0.0378 -0.4932
11656SOL    HW136707   1.911   7.538   4.994  0.7826  0.1126 -1.5792
11656SOL    HW236708   1.850   7.674   5.020  0.0687 -0.5439  0.2794
11657SOL     OW36709   7.525   1.991   1.670 -0.0307  0.2229 -0.1861
11657SOL    HW136710   7.449   2.046   1.685  0.2699  0.0915  2.2966
11657SOL    HW236711   7.504   1.942   1.591 -1.8227  1.3252 -0.4477
11658SOL     OW36712   3.198   4.514   0.634  0.5324 -0.2408 -0.5413
11658SOL    HW136713   3.177   4.557   0.551  1.8731  1.3272 -0.1281
11658SOL    HW236714   3.136   4.552   0.696  1.8986  1.4257 -0.1177
11659SOL     OW36715   1.624   2.643   7.808 -0.1767 -0.7169  0.7185
11659SOL    HW136716   1.610   2.710   7.741 -2.1626 -1.6262  0.1483
11659SOL    HW236717   1.608   2.688   7.891 -0.3907 -0.2306  0.4174
11660SOL     OW36718   3.871   1.614   2.791 -0.0660 -1.2990 -0.3206
11660SOL    HW136719   3.879   1.565   2.873  0.1570  0.4602  0.7682
11660SOL    HW236720   3.790   1.664   2.801  0.5471 -0.2154 -0.6772
11661SOL     OW36721   9.274   2.298   0.841  0.7092  0.0294 -0.3826
11661SOL    HW136722   9.329   2.357   0.790  1.2245  1.3815  1.6235
11661SOL    HW236723   9.186   2.313   0.809  1.2562 -0.8866 -2.4427
11662SOL     OW36724   4.299   6.936   8.152  0.4075  0.2460  0.3252
11662SOL    HW136725   4.382   6.925   8.107  0.9789 -0.3779  1.4790
11662SOL    HW236726   4.239   6.877   8.106  0.8021  0.1162 -0.0307
11663SOL     OW36727   7.161   4.297   4.555 -0.4630  0.1031  0.2883
11663SOL    HW136728   7.077   4.279   4.596  0.1374  0.4226  1.7308
11663SOL    HW236729   7.181   4.218   4.506 -1.7206  0.1303 -0.3079
11664SOL     OW36730   2.869   2.726   3.111 -0.0614  0.1730 -0.3208
11664SOL    HW136731   2.900   2.811   3.079 -0.7669  0.9721  1.0103
11664SOL    HW236732   2.775   2.727   3.097 -0.3056  0.2984  1.1337
11665SOL     OW36733   5.757   6.628   7.882  0.5215  0.4407  0.1592
11665SOL    HW136734   5.706   6.709   7.886 -0.2833 -0.0847  0.9690
11665SOL    HW236735   5.691   6.559   7.870  0.9904 -0.2885  1.6338
11666SOL     OW36736   3.367   3.223   2.461  0.7148 -0.4744 -0.0364
11666SOL    HW136737   3.336   3.172   2.386  0.5742 -0.4938  0.0349
11666SOL    HW236738   3.424   3.163   2.508 -1.5823 -1.5478  1.5943
11667SOL     OW36739   9.254   8.336   4.426  0.2150 -0.4423 -0.0786
11667SOL    HW136740   9.264   8.428   4.449 -1.4124  0.3604 -2.1449
11667SOL    HW236741   9.304   8.326   4.345 -1.0504 -0.8558 -0.8488
11668SOL     OW36742   8.872   7.261   3.028  0.1358  1.3513 -0.0322
11668SOL    HW136743   8.837   7.197   2.966 -0.2313  2.3651 -0.9018
11668SOL    HW236744   8.923   7.209   3.090 -0.3512  0.1953 -0.5721
11669SOL     OW36745   5.700   9.008   6.637 -0.3397 -0.4800  0.1533
11669SOL    HW136746   5.679   9.102   6.639  0.9838 -0.1559 -0.3278
11669SOL    HW236747   5.779   9.000   6.690  1.0285 -0.9045 -1.8403
11670SOL     OW36748   2.066   4.513   2.382 -0.0917  0.9551 -0.1963
11670SOL    HW136749   2.031   4.528   2.470 -1.3291  1.2358 -0.7112
11670SOL    HW236750   2.147   4.564   2.380 -0.3182  1.3778  0.6176
11671SOL     OW36751   7.167   2.784   7.326 -0.4822  0.2982  0.1465
11671SOL    HW136752   7.089   2.783   7.381 -0.7468  0.9734 -0.2065
11671SOL    HW236753   7.162   2.868   7.279  0.2081  0.1352 -0.2260
11672SOL     OW36754   4.766   5.731   7.601  0.1500  0.0394  0.1052
11672SOL    HW136755   4.726   5.810   7.563  1.3273 -0.0288 -1.3816
11672SOL    HW236756   4.698   5.664   7.594  0.3040  0.0448 -1.9342
11673SOL     OW36757   1.550   1.007   3.130  0.7376  0.5214  0.4796
11673SOL    HW136758   1.582   0.999   3.041 -0.5844 -1.2124  0.1132
11673SOL    HW236759   1.457   0.984   3.125  0.4549  1.0833  2.2005
11674SOL     OW36760   5.945   1.387   8.735  0.3831 -0.2194  0.3413
11674SOL    HW136761   5.885   1.324   8.696  0.6471 -1.9409  2.5366
11674SOL    HW236762   6.029   1.369   8.692  0.5676 -1.7640  1.2755
11675SOL     OW36763   3.539   3.585   6.827  0.3234 -0.0331 -0.1406
11675SOL    HW136764   3.551   3.672   6.866  1.8899 -0.6589  0.8962
11675SOL    HW236765   3.534   3.526   6.902 -1.3869 -0.7968 -0.8117
11676SOL     OW36766   1.172   2.152   9.122 -0.1545 -0.1232  0.3694
11676SOL    HW136767   1.199   2.243   9.138 -1.0559  0.4360 -1.0620
11676SOL    HW236768   1.242   2.099   9.160  0.7866  1.1856  0.5365
11677SOL     OW36769   0.177   1.764   7.102 -0.1226 -0.3005  0.1085
11677SOL    HW136770   0.250   1.735   7.049  0.3817  0.1698  0.5295
11677SOL    HW236771   0.109   1.698   7.089  0.1166 -0.3719 -0.8347
11678SOL     OW36772   2.641   7.833   4.490 -0.0862  0.1555  0.0673
11678SOL    HW136773   2.643   7.913   4.436  0.9177 -1.0139 -1.7553
11678SOL    HW236774   2.614   7.764   4.429 -1.0057 -0.9083  1.6236
11679SOL     OW36775   4.560   4.555   1.047 -0.7748 -0.1126  0.4276
11679SOL    HW136776   4.516   4.569   0.964 -2.3540  1.1665  1.4345
11679SOL    HW236777   4.492   4.524   1.107 -0.3443  1.7461  1.9853
11680SOL     OW36778   5.091   9.439   9.134 -0.6049 -0.6300  0.2446
11680SOL    HW136779   5.070   9.464   9.224  0.4365 -1.9664  0.8815
11680SOL    HW236780   5.152   9.506   9.103 -1.4269  0.1652  0.3006
11681SOL     OW36781   9.314   5.779   0.671 -0.1427 -0.4731  0.0743
11681SOL    HW136782   9.294   5.776   0.765 -0.0105 -2.1320  0.0794
11681SOL    HW236783   9.398   5.825   0.666  0.2117 -0.9965  0.8679
11682SOL     OW36784   1.569   4.545   5.701 -0.3849  0.1516  0.0916
11682SOL    HW136785   1.491   4.576   5.747 -1.1549 -1.3324 -0.1427
11682SOL    HW236786   1.561   4.449   5.702  0.0284  0.0236 -2.3285
11683SOL     OW36787   3.804   5.370   0.339  0.6324  0.0636 -0.0233
11683SOL    HW136788   3.878   5.310   0.328 -0.6283 -1.4685 -0.5885
11683SOL    HW236789   3.733   5.329   0.289 -1.1478  0.4884  2.0100
11684SOL     OW36790   2.985   0.125   3.518  0.1931  0.0090  0.1599
11684SOL    HW136791   2.963   0.068   3.592 -3.7666  2.3333  1.0595
11684SOL    HW236792   2.933   0.091   3.445  0.6907  0.3303 -0.3528
11685SOL     OW36793   1.560   0.828   4.569  0.3327 -0.0427 -0.1461
11685SOL    HW136794   1.529   0.796   4.654 -0.1017  1.0591  0.1231
11685SOL    HW236795   1.481   0.859   4.525  0.7444  0.6958 -0.3783
11686SOL     OW36796   7.688   2.306   4.171  0.0097  0.1013  0.0773
11686SOL    HW136797   7.617   2.249   4.200 -0.6080  0.9778  0.3441
11686SOL    HW236798   7.767   2.253   4.179 -0.5486 -0.7109  0.3013
11687SOL     OW36799   0.015   2.123   8.874 -0.2536 -0.9423 -0.2234
11687SOL    HW136800   0.051   2.101   8.960  1.2981 -0.6488 -0.7690
11687SOL    HW236801   0.080   2.092   8.812 -0.5343  0.3644 -1.2200
11688SOL     OW36802   6.460   7.349   7.047 -0.4892 -0.1920  0.5613
11688SOL    HW136803   6.373   7.308   7.042 -0.6901  0.1383  1.2193
11688SOL    HW236804   6.500   7.311   7.126 -1.1595  1.7479  1.9014
11689SOL     OW36805   5.838   2.723   1.246  0.1555  0.3933  0.3114
11689SOL    HW136806   5.904   2.722   1.316 -1.2041  0.0027  1.6543
11689SOL    HW236807   5.758   2.693   1.289 -0.1854 -2.4253 -2.0162
11690SOL     OW36808   6.249   1.954   2.922 -0.1943  0.3919 -0.3679
11690SOL    HW136809   6.332   1.950   2.876 -0.6555  0.5122 -1.2362
11690SOL    HW236810   6.257   1.889   2.992  0.5272  0.2267 -0.5967
11691SOL     OW36811   4.247   2.797   1.572  0.1012 -0.1084  0.1135
11691SOL    HW136812   4.199   2.803   1.490  0.9528  1.0771 -0.3177
11691SOL    HW236813   4.194   2.846   1.635  0.2625  0.3996 -0.1396
11692SOL     OW36814   4.754   2.805   0.152 -0.1899  0.1374 -0.5510
11692SOL    HW136815   4.819   2.751   0.196 -0.3746 -0.3872 -0.9116
11692SOL    HW236816   4.765   2.892   0.190  0.4562 -0.0365 -0.3291
11693SOL     OW36817   4.505   9.316   5.430  0.2053 -0.4139  0.3472
11693SOL    HW136818   4.451   9.254   5.381 -0.5573 -0.3067  1.0235
11693SOL    HW236819   4.507   9.394   5.375  0.6242 -0.8065 -0.2065
11694SOL     OW36820   9.373   0.816   8.084 -0.7320  0.4487 -0.2807
11694SOL    HW136821   9.288   0.831   8.044  0.0397  1.0769 -1.7715
11694SOL    HW236822   9.378   0.880   8.155 -1.8423 -0.2187  0.4278
11695SOL     OW36823   0.704   9.152   8.156  0.0936 -0.3090 -0.4317
11695SOL    HW136824   0.786   9.122   8.117  0.2563  1.1343 -1.2557
11695SOL    HW236825   0.680   9.082   8.217  1.9651 -0.7252 -0.1086
11696SOL     OW36826   2.671   0.524   1.785 -0.1111 -0.0600 -0.1165
11696SOL    HW136827   2.712   0.438   1.777  0.7409  0.3381 -0.1305
11696SOL    HW236828   2.648   0.530   1.878 -0.3535 -0.3783 -0.1532
11697SOL     OW36829   6.610   5.953   2.895 -0.1441 -0.0665 -0.0994
11697SOL    HW136830   6.585   6.015   2.827 -2.0540  0.3885  0.9542
11697SOL    HW236831   6.683   5.995   2.940 -2.3003  2.2159  1.5184
11698SOL     OW36832   5.936   2.873   8.360 -0.6168 -0.2968  0.3003
11698SOL    HW136833   5.917   2.813   8.288  0.5275 -0.1219 -0.1799
11698SOL    HW236834   5.946   2.817   8.437 -0.7110 -0.6062  0.0882
11699SOL     OW36835   8.290   5.466   5.274 -0.2155 -0.4856  0.2354
11699SOL    HW136836   8.367   5.419   5.242 -0.6223 -0.7666 -0.3471
11699SOL    HW236837   8.305   5.557   5.247 -0.6252 -0.7479 -0.9155
11700SOL     OW36838   7.491   9.148   3.253  0.1596  0.3767 -0.1347
11700SOL    HW136839   7.499   9.129   3.159  0.1786  0.1919 -0.0963
11700SOL    HW236840   7.407   9.193   3.261  0.9361  1.9760 -0.4840
11701SOL     OW36841   6.913   1.681   5.452 -0.8922 -0.7333  0.9684
11701SOL    HW136842   6.829   1.724   5.440 -1.5081 -1.2848  2.8454
11701SOL    HW236843   6.974   1.751   5.472 -1.2450 -0.4523  1.0703
11702SOL     OW36844   3.019   4.446   1.775  0.0810 -0.6082  0.0543
11702SOL    HW136845   3.055   4.496   1.702  1.7999 -0.6971  0.7878
11702SOL    HW236846   2.925   4.447   1.761  0.3948 -1.7820 -2.9132
11703SOL     OW36847   1.706   1.548   6.404 -0.1155 -0.3773  0.0464
11703SOL    HW136848   1.771   1.618   6.413  0.5181 -0.8700 -0.5470
11703SOL    HW236849   1.757   1.467   6.413 -1.0815 -0.8032  2.4634
11704SOL     OW36850   8.519   3.173   2.941 -0.3599 -0.3432  0.3432
11704SOL    HW136851   8.443   3.119   2.917  0.3613 -0.8613 -0.8448
11704SOL    HW236852   8.548   3.212   2.858  0.7147 -0.2175  0.7649
11705SOL     OW36853   1.843   9.199   0.677 -0.7757 -0.2001 -0.3516
11705SOL    HW136854   1.779   9.148   0.726 -0.5413 -1.1780 -1.0396
11705SOL    HW236855   1.826   9.177   0.585 -0.0888  0.2802 -0.5988
11706SOL     OW36856   6.373   7.268   8.721  0.5206 -0.5243 -0.3484
11706SOL    HW136857   6.394   7.177   8.699  0.5952 -0.2291 -1.5125
11706SOL    HW236858   6.365   7.267   8.817  0.8695 -1.6795 -0.3106
11707SOL     OW36859   9.190   1.449   8.524  0.2635  0.1676  0.6465
11707SOL    HW136860   9.207   1.401   8.444 -0.0298  0.9790  0.0796
11707SOL    HW236861   9.126   1.396   8.571 -0.2839  0.1413 -0.1080
11708SOL     OW36862   7.358   9.051   7.264  0.3891  0.0042 -0.3743
11708SOL    HW136863   7.434   9.098   7.301  0.3650  0.9191 -1.4287
11708SOL    HW236864   7.313   9.117   7.210  0.4770 -1.2656 -2.0926
11709SOL     OW36865   5.441   1.119   8.614 -0.2103  0.0856 -0.0802
11709SOL    HW136866   5.410   1.030   8.593 -0.0006  0.1969 -0.9065
11709SOL    HW236867   5.535   1.109   8.627 -0.0015  0.3544 -1.2677
11710SOL     OW36868   8.784   0.813   6.230  0.4874  0.0014  0.1431
11710SOL    HW136869   8.775   0.784   6.140 -0.7725  2.4387 -0.6339
11710SOL    HW236870   8.701   0.788   6.272 -0.6541  2.2909 -0.5620
11711SOL     OW36871   1.433   1.322   9.278 -0.3176 -0.4273  0.3060
11711SOL    HW136872   1.516   1.367   9.294 -1.5634  1.9559  0.4855
11711SOL    HW236873   1.401   1.299   9.365 -1.1815  1.3290  0.5061
11712SOL     OW36874   6.574   0.086   0.338 -0.0675 -0.5563 -0.2870
11712SOL    HW136875   6.654   0.138   0.332 -0.6277  0.1675 -2.3145
11712SOL    HW236876   6.542   0.101   0.427  1.8865 -0.6659  0.4925
11713SOL     OW36877   5.667   4.748   4.207  0.7288  0.3548 -0.2814
11713SOL    HW136878   5.583   4.785   4.180  0.6357 -0.1483 -0.7035
11713SOL    HW236879   5.733   4.812   4.178  0.6320 -0.1605 -1.7124
11714SOL     OW36880   3.701   2.965   1.876 -0.1890  0.0546  0.2249
11714SOL    HW136881   3.715   3.058   1.858  1.3810 -0.2264 -0.1537
11714SOL    HW236882   3.789   2.929   1.889 -0.6731 -1.5685 -0.6016
11715SOL     OW36883   0.775   1.269   5.556 -0.4618  0.9018  0.2541
11715SOL    HW136884   0.794   1.224   5.474 -1.3307 -0.7975  0.9400
11715SOL    HW236885   0.680   1.282   5.555 -0.5308  0.5258  1.1486
11716SOL     OW36886   0.992   2.182   2.272 -0.0844 -0.8348  0.2828
11716SOL    HW136887   1.010   2.208   2.362 -1.1176 -0.6257  0.4418
11716SOL    HW236888   0.897   2.176   2.268  0.0136 -2.5266 -0.3182
11717SOL     OW36889   6.885   6.289   2.777 -0.3321  0.1432 -0.1377
11717SOL    HW136890   6.805   6.309   2.728 -0.1115 -0.9667 -1.0066
11717SOL    HW236891   6.863   6.213   2.831  0.6394 -1.5287 -1.9328
11718SOL     OW36892   0.417   5.716   5.867 -0.4554 -0.9742  0.2244
11718SOL    HW136893   0.383   5.690   5.781 -0.6184  0.2382 -0.0938
11718SOL    HW236894   0.497   5.765   5.847 -0.1837 -1.1762  0.8074
11719SOL     OW36895   2.272   5.778   9.247 -0.0270 -0.0860 -0.5804
11719SOL    HW136896   2.190   5.734   9.269 -0.3054  0.8858  0.4699
11719SOL    HW236897   2.294   5.748   9.159 -1.1378 -0.9035 -0.5903
11720SOL     OW36898   5.198   4.961   7.919 -0.8664 -0.2530 -0.5709
11720SOL    HW136899   5.264   5.005   7.974 -0.2119 -0.7719 -0.9207
11720SOL    HW236900   5.148   5.032   7.880  1.6109  0.3944 -2.9433
11721SOL     OW36901   5.571   6.737   0.622  0.5104  0.6344  0.8713
11721SOL    HW136902   5.572   6.812   0.681 -0.3878  1.5868 -0.2679
11721SOL    HW236903   5.611   6.770   0.541  0.4740 -0.2433  0.4850
11722SOL     OW36904   5.155   9.441   4.531  0.1021  0.4298  0.3153
11722SOL    HW136905   5.077   9.393   4.558 -0.4526  0.3890 -1.2445
11722SOL    HW236906   5.227   9.393   4.571 -0.4500 -1.5792 -0.9577
11723SOL     OW36907   7.047   7.543   8.070  0.5541 -0.1620 -0.3522
11723SOL    HW136908   7.040   7.619   8.128 -0.1930  0.2706 -0.9844
11723SOL    HW236909   7.138   7.542   8.042  0.3749  1.0750 -1.0736
11724SOL     OW36910   1.132   4.709   9.337  0.9807 -0.1967 -0.0051
11724SOL    HW136911   1.214   4.734   9.381  1.5947 -0.7688 -0.7996
11724SOL    HW236912   1.136   4.614   9.330  0.3144 -0.2171 -0.1872
11725SOL     OW36913   9.245   4.404   0.637 -0.3071 -0.0072 -0.0564
11725SOL    HW136914   9.282   4.485   0.601  1.5026 -0.1887  1.2278
11725SOL    HW236915   9.317   4.367   0.689 -1.3874 -1.9937  0.0897
11726SOL     OW36916   7.047   3.413   0.008 -0.6103 -0.5697  0.2021
11726SOL    HW136917   7.121   3.388  -0.048 -1.1037 -0.1325 -0.6807
11726SOL    HW236918   7.001   3.330   0.024  1.3248 -1.2870  2.7612
11727SOL     OW36919   3.831   1.266   0.135 -0.9179  0.4575 -0.2203
11727SOL    HW136920   3.738   1.289   0.148 -1.0001  0.2369 -0.4162
11727SOL    HW236921   3.829   1.195   0.070 -0.6718 -0.2282  0.5162
11728SOL     OW36922   2.490   1.723   2.284 -0.1960 -0.4686 -0.3087
11728SOL    HW136923   2.555   1.705   2.217 -1.0970  0.2720 -1.4058
11728SOL    HW236924   2.409   1.739   2.236 -0.4176  2.1817  0.7867
11729SOL     OW36925   9.254   3.288   1.904  0.1698 -0.3575  0.0941
11729SOL    HW136926   9.259   3.350   1.977 -0.3720 -0.5211  0.2769
11729SOL    HW236927   9.247   3.344   1.826  0.1832 -0.1845  0.2147
11730SOL     OW36928   7.583   6.673   1.587  0.6699 -0.1619  0.9459
11730SOL    HW136929   7.668   6.673   1.544 -0.2191  0.3066 -0.8836
11730SOL    HW236930   7.584   6.751   1.643  0.1165  2.0687 -1.9350
11731SOL     OW36931   6.141   7.877   0.768 -0.4102 -0.2612  0.6957
11731SOL    HW136932   6.231   7.856   0.745 -0.4518  0.4245 -0.1654
11731SOL    HW236933   6.126   7.833   0.851  1.4115  1.3583  1.9607
11732SOL     OW36934   8.590   8.067   0.862  0.4157  0.5174  0.2835
11732SOL    HW136935   8.587   7.974   0.837 -0.3090  0.7345 -0.4697
11732SOL    HW236936   8.576   8.066   0.956  0.3442 -0.1349  0.2758
11733SOL     OW36937   0.548   2.716   7.351 -0.3168  0.1273 -0.0567
11733SOL    HW136938   0.638   2.706   7.380 -0.2568 -1.1228 -0.6136
11733SOL    HW236939   0.554   2.762   7.268 -0.2106  0.2482  0.0183
11734SOL     OW36940   4.318   7.298   0.026 -0.6758 -0.2087 -0.6503
11734SOL    HW136941   4.306   7.203   0.024  0.2537 -0.3402 -0.4007
11734SOL    HW236942   4.401   7.313  -0.020 -1.1436  0.5442 -1.2730
11735SOL     OW36943   4.469   3.448   7.266  0.3305 -0.3082 -0.0478
11735SOL    HW136944   4.382   3.409   7.274  0.7312 -1.3894 -0.7205
11735SOL    HW236945   4.455   3.542   7.280 -1.1330 -0.3064 -1.3215
11736SOL     OW36946   0.970   6.072   3.334 -0.3209 -0.0026  0.1881
11736SOL    HW136947   0.990   6.129   3.409 -0.0803  0.4614 -0.2187
11736SOL    HW236948   0.939   5.991   3.373 -0.3381  0.2869  0.7901
11737SOL     OW36949   6.957   2.417   4.490 -0.1041  0.0854 -0.1776
11737SOL    HW136950   6.874   2.446   4.529 -0.9948  2.2454 -3.3246
11737SOL    HW236951   7.021   2.483   4.517  0.5610 -1.2849  1.7973
11738SOL     OW36952   2.301   0.486   4.720  0.2090 -0.2614 -0.5500
11738SOL    HW136953   2.245   0.552   4.680  0.6905 -0.3384 -1.3838
11738SOL    HW236954   2.333   0.433   4.647 -0.3403 -1.5725  0.1224
11739SOL     OW36955   4.676   3.208   4.410  0.1780 -0.0093 -0.1383
11739SOL    HW136956   4.762   3.216   4.452 -0.5954 -0.4994  1.5925
11739SOL    HW236957   4.683   3.263   4.332  1.6753  0.9158  0.5994
11740SOL     OW36958   9.085   1.177   4.160  0.6584  0.1277  0.3775
11740SOL    HW136959   9.039   1.258   4.136  1.6730  0.4700 -0.4912
11740SOL    HW236960   9.074   1.170   4.255  0.0076  0.9298  0.3737
11741SOL     OW36961   2.057   6.145   2.242 -0.0454 -0.6382  0.9062
11741SOL    HW136962   2.123   6.171   2.307  1.0145 -2.0127  0.4306
11741SOL    HW236963   2.077   6.054   2.223 -0.1061 -0.1893 -1.6160
11742SOL     OW36964   9.149   0.527   7.697 -0.0915 -0.6257  0.1848
11742SOL    HW136965   9.167   0.434   7.714 -2.0349 -1.1247 -0.2907
11742SOL    HW236966   9.222   0.556   7.642  1.8597 -1.1825  2.3301
11743SOL     OW36967   2.807   4.066   0.666 -0.1994 -0.3547  0.3033
11743SOL    HW136968   2.732   4.123   0.681  1.0145  1.4002  0.0135
11743SOL    HW236969   2.771   3.990   0.621 -1.9320  0.0029  1.0175
11744SOL     OW36970   0.537   2.110   1.098 -0.5146  0.0454  0.0997
11744SOL    HW136971   0.549   2.096   1.004 -0.1743  0.6420  0.0478
11744SOL    HW236972   0.613   2.067   1.138 -0.1348  0.6442  0.0295
11745SOL     OW36973   0.144   3.526   5.215 -0.0538 -0.4095 -0.5085
11745SOL    HW136974   0.089   3.594   5.175 -0.5004  0.4240  1.3940
11745SOL    HW236975   0.232   3.543   5.180 -0.6367 -0.5849 -2.1423
11746SOL     OW36976   7.817   2.724   3.305  0.7475  0.1583 -0.8320
11746SOL    HW136977   7.902   2.758   3.333  0.2889  1.0517 -0.5008
11746SOL    HW236978   7.829   2.703   3.213  1.6600 -0.8173 -0.5118
11747SOL     OW36979   8.573   5.840   3.185 -0.0628 -0.5654  0.2410
11747SOL    HW136980   8.556   5.891   3.264 -0.2118  0.5092 -0.4680
11747SOL    HW236981   8.660   5.868   3.156 -0.8878  0.6714 -1.1606
11748SOL     OW36982   4.365   4.474   1.254  0.0479 -0.3286 -0.5084
11748SOL    HW136983   4.416   4.529   1.313 -0.3814 -0.7286  0.2552
11748SOL    HW236984   4.274   4.499   1.271 -0.1707 -1.4525  0.0510
11749SOL     OW36985   0.048   8.140   1.373  0.4144  0.3774  0.0660
11749SOL    HW136986   0.133   8.182   1.356  0.7750 -0.4885 -0.3471
11749SOL    HW236987   0.063   8.048   1.352 -0.7681  0.2996 -0.4978
11750SOL     OW36988   5.757   0.978   3.122 -0.5475 -0.2958 -0.2900
11750SOL    HW136989   5.725   0.889   3.108 -0.0030 -0.4142 -0.8004
11750SOL    HW236990   5.727   1.028   3.046 -1.9807  0.2883  0.6135
11751SOL     OW36991   5.190   0.879   5.911  0.0481 -0.5567 -0.0273
11751SOL    HW136992   5.190   0.783   5.918  1.4400 -0.4932  1.2688
11751SOL    HW236993   5.280   0.901   5.887 -0.4724  0.4023 -1.2044
11752SOL     OW36994   4.417   7.527   2.702 -0.6919  0.0270  0.2887
11752SOL    HW136995   4.492   7.472   2.723  0.2814  1.0689 -0.3357
11752SOL    HW236996   4.404   7.582   2.780  0.3682  1.0993 -0.2604
11753SOL     OW36997   1.388   8.778   5.130 -0.0685 -0.2232 -0.0682
11753SOL    HW136998   1.318   8.722   5.097  1.4907 -1.9885 -0.5421
11753SOL    HW236999   1.456   8.717   5.159  1.7957  1.4145 -0.7775
11754SOL     OW37000   4.562   5.990   8.913  0.2627  0.5105 -0.4625
11754SOL    HW137001   4.611   5.981   8.831  0.8853 -1.3335  0.0504
11754SOL    HW237002   4.615   5.943   8.977 -1.1623  0.2381  0.5616
11755SOL     OW37003   8.169   1.594   2.740 -0.0188 -0.1633 -0.2730
11755SOL    HW137004   8.206   1.506   2.742  0.0769 -0.1118  0.1823
11755SOL    HW237005   8.243   1.651   2.763 -0.2897 -0.0311  0.2749
11756SOL     OW37006   2.785   1.492   6.051  0.5387 -0.5525 -0.0318
11756SOL    HW137007   2.849   1.463   5.987  0.2198  0.8636 -1.0521
11756SOL    HW237008   2.817   1.578   6.080  0.1546 -0.7310  0.9625
11757SOL     OW37009   1.720   9.520   4.416  0.2206 -0.3967 -0.1492
11757SOL    HW137010   1.791   9.536   4.354 -0.8652 -1.5292 -1.7489
11757SOL    HW237011   1.645   9.568   4.381 -0.4184 -1.0568  0.2740
11758SOL     OW37012   6.701   8.031   1.110 -0.5323  0.1189 -0.4160
11758SOL    HW137013   6.789   8.039   1.073  0.0474  0.2634  0.9282
11758SOL    HW237014   6.671   7.945   1.081 -0.2754  0.3868 -1.5323
11759SOL     OW37015   2.343   4.936   8.551  0.4042 -0.3084  0.2335
11759SOL    HW137016   2.394   5.016   8.551  0.1600 -0.1453  0.6681
11759SOL    HW237017   2.253   4.965   8.533  0.6890 -0.7679 -2.1993
11760SOL     OW37018   5.771   2.239   3.847  0.6980 -0.2614 -0.1017
11760SOL    HW137019   5.865   2.244   3.865  0.6872  0.7568 -0.2953
11760SOL    HW237020   5.731   2.237   3.934  0.7572  2.4740  0.0620
11761SOL     OW37021   6.373   6.554   2.340 -0.0687 -0.1688 -0.3626
11761SOL    HW137022   6.457   6.518   2.367 -0.8994 -0.6506  1.7493
11761SOL    HW237023   6.365   6.636   2.387  0.0570  0.9087 -2.1194
11762SOL     OW37024   6.002   4.912   6.011 -0.4709 -0.5948 -0.0936
11762SOL    HW137025   5.969   4.838   6.062  0.3714 -1.8958 -1.3333
11762SOL    HW237026   5.934   4.928   5.945  0.7440 -2.5504 -1.9505
11763SOL     OW37027   3.665   5.529   7.291  0.1500 -0.2484 -0.2321
11763SOL    HW137028   3.728   5.468   7.330  0.1259  0.0383  0.2666
11763SOL    HW237029   3.622   5.570   7.366 -0.5321 -0.3332 -0.5634
11764SOL     OW37030   0.690   0.892   5.783  0.1586 -0.6213 -0.1479
11764SOL    HW137031   0.659   0.801   5.773  0.2302 -0.7135  0.4550
11764SOL    HW237032   0.637   0.927   5.854 -1.6092  0.5930 -1.9639
11765SOL     OW37033   9.062   8.208   0.895  0.7543 -0.0368 -0.6432
11765SOL    HW137034   8.969   8.227   0.907  0.9933  0.8892 -0.1735
11765SOL    HW237035   9.097   8.286   0.852  2.2450  1.8340  3.4917
11766SOL     OW37036   7.291   2.225   4.534 -0.4340  0.4487 -0.4000
11766SOL    HW137037   7.236   2.277   4.592 -1.4972 -0.8268 -0.1959
11766SOL    HW237038   7.229   2.169   4.487  0.5353  0.4438 -1.7094
11767SOL     OW37039   9.467   9.018   1.760 -0.0002  0.2059 -0.0943
11767SOL    HW137040   9.547   9.070   1.756 -1.8493  3.4491  0.8533
11767SOL    HW237041   9.420   9.052   1.836 -2.0719 -1.9149 -0.2945
11768SOL     OW37042   8.884   3.527   1.700 -0.3347 -0.2755  0.3639
11768SOL    HW137043   8.975   3.499   1.703 -0.3721 -0.4767 -0.2973
11768SOL    HW237044   8.887   3.621   1.713  0.0531 -0.1388 -0.6584
11769SOL     OW37045   7.419   3.120   7.299 -0.6972  0.1173  0.0191
11769SOL    HW137046   7.433   3.062   7.374  1.0972  0.5822  0.0883
11769SOL    HW237047   7.371   3.195   7.336  1.6510  1.1593  1.1603
11770SOL     OW37048   5.361   3.824   4.876  0.0825  0.1184 -0.6827
11770SOL    HW137049   5.286   3.801   4.821 -0.0628  1.5317 -1.1167
11770SOL    HW237050   5.421   3.870   4.817  0.1360  1.2650  0.2261
11771SOL     OW37051   4.014   4.118   4.341  0.0863 -0.0498 -0.4087
11771SOL    HW137052   4.073   4.143   4.270  1.1068  2.3984  1.1635
11771SOL    HW237053   3.975   4.201   4.370 -1.1898 -1.1261  1.1183
11772SOL     OW37054   1.837   3.630   0.678  0.2012 -0.1495  0.2088
11772SOL    HW137055   1.914   3.624   0.622 -0.7666  2.6898 -1.6228
11772SOL    HW237056   1.764   3.641   0.617 -1.4121 -0.5814  1.9625
11773SOL     OW37057   3.799   6.403   9.053 -0.0952 -0.2314 -0.2772
11773SOL    HW137058   3.793   6.316   9.016 -0.8432 -1.3482  2.2325
11773SOL    HW237059   3.717   6.447   9.028 -1.1559 -1.3978  0.9791
11774SOL     OW37060   5.641   9.172   4.064  0.4719  0.4721  0.1850
11774SOL    HW137061   5.626   9.201   4.154 -0.0314  0.6393  0.0468
11774SOL    HW237062   5.561   9.126   4.040  0.0202  1.6888 -0.6812
11775SOL     OW37063   1.113   9.188   7.425 -0.9302  0.3706 -0.6072
11775SOL    HW137064   1.087   9.191   7.333 -0.5203 -1.6160 -0.8343
11775SOL    HW237065   1.037   9.151   7.470 -0.5465 -0.2029 -0.4142
11776SOL     OW37066   4.938   3.813   8.737 -0.2482 -0.1851 -0.2279
11776SOL    HW137067   4.983   3.788   8.656 -1.3351 -2.0644 -0.3056
11776SOL    HW237068   4.899   3.898   8.717  0.7435  0.0770 -1.1551
11777SOL     OW37069   5.303   4.142   2.448 -0.7257  0.2619 -0.8643
11777SOL    HW137070   5.274   4.180   2.531 -1.6991 -0.1626 -0.9862
11777SOL    HW237071   5.269   4.201   2.381  0.0040  0.5706 -0.9728
11778SOL     OW37072   9.552   3.217   3.829 -0.2371 -0.0095 -0.2817
11778SOL    HW137073   9.558   3.128   3.864  1.6814  0.7864  1.5959
11778SOL    HW237074   9.497   3.264   3.893  0.8417  0.7382  0.1249
11779SOL     OW37075   6.591   9.194   8.433 -0.3947 -0.0246  0.6902
11779SOL    HW137076   6.636   9.206   8.516 -1.8866  0.1673  1.4978
11779SOL    HW237077   6.610   9.273   8.383  1.4578 -0.6356  0.3438
11780SOL     OW37078   7.460   9.103   5.604 -0.5492 -0.0763 -0.8650
11780SOL    HW137079   7.500   9.051   5.533 -0.9596 -0.6459 -0.6823
11780SOL    HW237080   7.380   9.139   5.565 -1.0453 -0.8102 -0.5477
11781SOL     OW37081   6.271   3.071   9.102 -0.9054  0.0590  0.1561
11781SOL    HW137082   6.194   3.018   9.119 -1.0042  0.3603  0.6628
11781SOL    HW237083   6.338   3.037   9.161 -1.6169  1.9270  2.1700
11782SOL     OW37084   7.729   5.264   3.393 -0.1524 -0.4191  0.3506
11782SOL    HW137085   7.762   5.334   3.451 -0.8690 -0.0057  0.2690
11782SOL    HW237086   7.764   5.287   3.307  1.0721 -1.1382  0.6271
11783SOL     OW37087   2.392   8.734   4.233  0.2270 -0.6513  0.3267
11783SOL    HW137088   2.341   8.746   4.313  1.8436 -0.4729  1.3698
11783SOL    HW237089   2.371   8.811   4.180 -0.2078 -0.3424  0.9322
11784SOL     OW37090   8.913   4.110   5.982 -0.3075  0.3596  0.0857
11784SOL    HW137091   8.838   4.053   5.963 -1.1724  1.4584  0.0938
11784SOL    HW237092   8.876   4.182   6.033  0.9129  0.5105  0.8109
11785SOL     OW37093   7.131   1.131   3.489  0.7496  0.0726 -0.0843
11785SOL    HW137094   7.063   1.068   3.512  0.5348  0.8242  1.4602
11785SOL    HW237095   7.114   1.151   3.397 -0.7426 -0.2263  0.0973
11786SOL     OW37096   5.291   7.458   6.932 -0.0545  0.3991  0.0167
11786SOL    HW137097   5.315   7.472   7.023  0.9887  0.4018 -0.2452
11786SOL    HW237098   5.285   7.363   6.923 -1.2255  0.4230  0.3341
11787SOL     OW37099   6.606   5.315   7.512 -0.2023 -0.0097 -0.2705
11787SOL    HW137100   6.573   5.351   7.429 -0.5917 -1.7656 -0.9164
11787SOL    HW237101   6.580   5.380   7.578 -1.2935  0.6621 -1.3112
11788SOL     OW37102   1.024   5.964   4.690 -0.1105  0.3943  0.2105
11788SOL    HW137103   0.997   5.988   4.601 -0.3409 -2.1694 -0.5017
11788SOL    HW237104   1.085   6.033   4.716  0.6490  0.7738 -2.2912
11789SOL     OW37105   3.167   0.849   0.089 -0.1437  0.1376 -0.0760
11789SOL    HW137106   3.229   0.888   0.151 -0.0913  0.6569 -0.4466
11789SOL    HW237107   3.142   0.922   0.032  0.4572 -0.5044 -1.1949
11790SOL     OW37108   9.230   7.676   9.174 -0.2017 -0.0655  0.3655
11790SOL    HW137109   9.135   7.681   9.176 -0.1911  0.6183  2.4738
11790SOL    HW237110   9.256   7.693   9.265  1.9326 -0.1521 -0.1785
11791SOL     OW37111   5.673   9.438   4.771  0.2707 -0.1919 -0.3093
11791SOL    HW137112   5.583   9.469   4.759 -0.1874 -0.8020  1.2161
11791SOL    HW237113   5.715   9.450   4.686 -1.5711 -0.8946 -1.3663
11792SOL     OW37114   3.235   1.140   0.588  0.0870  0.2623 -0.1717
11792SOL    HW137115   3.296   1.189   0.533 -0.3265  0.6411 -0.2982
11792SOL    HW237116   3.172   1.104   0.527  1.0299 -1.4194 -0.2199
11793SOL     OW37117   2.434   4.766   7.687 -0.2842 -0.4048  0.0736
11793SOL    HW137118   2.408   4.737   7.775  0.3589  1.5809  0.9937
11793SOL    HW237119   2.434   4.687   7.634 -1.6106 -1.5178  1.6400
11794SOL     OW37120   4.979   8.721   6.302 -0.1962 -0.2269  0.2674
11794SOL    HW137121   5.072   8.703   6.292  0.1205  1.8899 -1.5021
11794SOL    HW237122   4.936   8.636   6.288  1.3768 -0.8126 -1.3185
11795SOL     OW37123   1.500   1.995   8.943 -0.2718 -0.2525  0.0511
11795SOL    HW137124   1.462   2.001   9.030 -0.2983  0.9755 -0.0169
11795SOL    HW237125   1.550   1.914   8.943  1.6885  0.8685  2.0201
11796SOL     OW37126   9.543   3.981   6.023 -0.2447  0.1914 -0.6158
11796SOL    HW137127   9.595   3.974   5.942 -0.4706  2.1958 -0.9986
11796SOL    HW237128   9.603   3.956   6.092  0.1488 -0.9601 -1.3463
11797SOL     OW37129   1.370   3.676   3.315 -0.0589  0.6074  0.7508
11797SOL    HW137130   1.453   3.641   3.348  0.0435 -2.1503 -1.9705
11797SOL    HW237131   1.305   3.651   3.381  0.5864 -1.8260  0.5426
11798SOL     OW37132   5.424   0.475   5.393 -0.1138  0.4051  0.0102
11798SOL    HW137133   5.516   0.497   5.381 -0.0140  1.4291  2.1602
11798SOL    HW237134   5.425   0.394   5.445 -0.3854  1.2104  1.3018
11799SOL     OW37135   0.564   4.225   6.118  0.0361 -0.1714 -0.4995
11799SOL    HW137136   0.489   4.275   6.086 -0.7011 -0.4706  0.6967
11799SOL    HW237137   0.525   4.150   6.163  1.0930 -0.9786 -0.8975
11800SOL     OW37138   9.473   7.175   7.939  0.7233 -0.4036 -0.2040
11800SOL    HW137139   9.465   7.247   8.001 -0.4811 -0.9663  0.3526
11800SOL    HW237140   9.405   7.192   7.874 -0.8713 -1.9405  0.9504
11801SOL     OW37141   2.891   1.726   7.562  0.4547 -0.2573 -0.4121
11801SOL    HW137142   2.912   1.653   7.503  1.0980 -1.1502  0.8642
11801SOL    HW237143   2.876   1.800   7.504 -0.3789 -1.4396 -1.7576
11802SOL     OW37144   3.455   5.392   1.422 -0.3804  0.5667 -0.3057
11802SOL    HW137145   3.397   5.318   1.406 -0.1427  0.8610 -2.9053
11802SOL    HW237146   3.533   5.353   1.462 -1.5259 -0.0833  1.4256
11803SOL     OW37147   5.097   3.686   4.379 -0.5392 -0.4250 -0.5796
11803SOL    HW137148   5.012   3.657   4.412 -1.2674 -0.0442 -2.0445
11803SOL    HW237149   5.082   3.705   4.287  1.2615 -0.8323 -0.9989
11804SOL     OW37150   7.149   4.742   3.375  0.0771 -0.2420  0.2399
11804SOL    HW137151   7.201   4.681   3.323 -0.0927  0.1687 -0.4143
11804SOL    HW237152   7.058   4.717   3.359 -0.1563  1.7171 -2.0472
11805SOL     OW37153   7.311   7.021   7.663 -0.1503 -0.7364  0.1549
11805SOL    HW137154   7.322   7.014   7.568 -0.6721  0.4469 -0.0167
11805SOL    HW237155   7.400   7.024   7.698  0.0642  0.3260 -0.4477
11806SOL     OW37156   1.526   0.806   1.294  0.1174  0.6961 -0.0697
11806SOL    HW137157   1.563   0.810   1.382  2.3156 -0.9492 -0.8294
11806SOL    HW237158   1.531   0.896   1.262  0.3745  1.0999  1.0635
11807SOL     OW37159   1.846   2.525   1.717  0.0739  0.0412 -0.0980
11807SOL    HW137160   1.758   2.491   1.731 -0.5515  1.0170 -1.3719
11807SOL    HW237161   1.891   2.457   1.667  0.0177 -0.4340  0.5028
11808SOL     OW37162   8.377   5.200   8.166 -0.4088  0.4146 -0.7436
11808SOL    HW137163   8.364   5.128   8.227  2.2498 -0.1240 -0.7212
11808SOL    HW237164   8.408   5.273   8.221 -0.9936  0.9107 -1.0555
11809SOL     OW37165   6.532   2.026   4.940  0.1713 -0.2046  0.1535
11809SOL    HW137166   6.505   2.004   4.851 -3.2752  3.1556  0.1166
11809SOL    HW237167   6.465   1.988   4.997 -0.2434  1.4597  0.8451
11810SOL     OW37168   2.341   5.821   6.673 -0.8013 -0.1419  0.7546
11810SOL    HW137169   2.403   5.837   6.744 -1.8390  2.9935  1.1091
11810SOL    HW237170   2.255   5.834   6.713 -1.5297 -0.8871 -0.5152
11811SOL     OW37171   3.048   7.140   4.867  0.6549  0.0206  0.4312
11811SOL    HW137172   2.974   7.121   4.924  0.7685  1.0922  0.9610
11811SOL    HW237173   3.064   7.058   4.820  0.4986 -0.8695  1.8728
11812SOL     OW37174   7.862   1.260   5.046 -0.2962 -0.1833  0.4667
11812SOL    HW137175   7.822   1.317   5.112 -0.9962  1.5791 -1.3939
11812SOL    HW237176   7.956   1.266   5.062 -0.4923 -1.1112  2.2916
11813SOL     OW37177   4.280   6.748   5.554  0.1810 -0.2930 -0.1961
11813SOL    HW137178   4.219   6.775   5.623  0.2071  1.2247 -0.7433
11813SOL    HW237179   4.254   6.658   5.533  0.0495 -0.7316  1.6303
11814SOL     OW37180   4.800   7.957   8.530  0.1210  0.2417 -0.0904
11814SOL    HW137181   4.842   7.877   8.562 -1.4429 -0.7830 -0.4661
11814SOL    HW237182   4.839   7.972   8.444  0.2111 -0.3101 -0.1501
11815SOL     OW37183   1.490   7.082   0.581  0.6751 -0.0760  1.0676
11815SOL    HW137184   1.452   7.163   0.548  0.6981 -0.2240  0.6759
11815SOL    HW237185   1.520   7.104   0.669 -0.8758 -0.1139  1.6403
11816SOL     OW37186   5.235   3.733   6.436  0.1542 -0.3630  0.2259
11816SOL    HW137187   5.329   3.748   6.425  0.1796 -0.1156  0.7306
11816SOL    HW237188   5.221   3.643   6.407  0.2748  0.0848 -1.3300
11817SOL     OW37189   2.139   5.838   5.340  0.3694  0.0019 -0.0513
11817SOL    HW137190   2.098   5.770   5.393 -0.1679  0.7867  0.5505
11817SOL    HW237191   2.229   5.807   5.326  0.0218 -1.0092 -0.1156
11818SOL     OW37192   3.363   6.186   4.502 -0.0832  0.5170  0.4153
11818SOL    HW137193   3.370   6.127   4.577  0.1767  0.0526  0.0390
11818SOL    HW237194   3.270   6.208   4.497 -0.0148  1.0080  1.2076
11819SOL     OW37195   2.885   9.385   4.154 -0.1693  0.1437  0.1105
11819SOL    HW137196   2.832   9.327   4.099 -0.6298 -1.6669  2.3242
11819SOL    HW237197   2.856   9.366   4.243  2.0952  1.3336  1.1678
11820SOL     OW37198   4.573   6.705   9.510 -0.3428 -0.0570  0.2521
11820SOL    HW137199   4.577   6.678   9.602  2.1726  0.2462  0.2982
11820SOL    HW237200   4.628   6.641   9.464  0.1309  1.0011 -0.6894
11821SOL     OW37201   1.917   0.553   8.956  0.4680 -0.0976  0.2526
11821SOL    HW137202   1.921   0.577   8.864 -1.8943  1.3129  0.4472
11821SOL    HW237203   1.986   0.607   8.997  2.1277 -1.3730 -0.7353
11822SOL     OW37204   6.217   9.022   0.070  0.0315  0.6789 -0.3840
11822SOL    HW137205   6.225   8.970  -0.010 -0.2098  1.8491 -1.2005
11822SOL    HW237206   6.283   8.987   0.128 -0.4443 -0.8570 -0.7162
11823SOL     OW37207   2.588   7.179   5.482  0.4829  0.3400  0.1942
11823SOL    HW137208   2.571   7.209   5.571 -0.5569 -0.2880  0.2237
11823SOL    HW237209   2.502   7.159   5.447  1.0147 -1.0062 -0.3874
11824SOL     OW37210   3.138   8.232   4.454  0.0206 -0.4802 -0.0985
11824SOL    HW137211   3.184   8.314   4.433 -0.7305 -0.1693 -0.5881
11824SOL    HW237212   3.208   8.170   4.473  0.8111 -0.5861 -2.8316
11825SOL     OW37213   5.732   1.040   6.669 -0.3956  0.4549 -0.1346
11825SOL    HW137214   5.640   1.035   6.697 -0.5759 -0.4052 -0.8494
11825SOL    HW237215   5.778   0.980   6.727 -0.2351  1.0931  0.4028
11826SOL     OW37216   2.986   7.477   9.139 -0.2079  0.3864  0.6748
11826SOL    HW137217   3.056   7.505   9.198  0.6146  0.4875 -0.2983
11826SOL    HW237218   2.919   7.440   9.196  0.5147  0.5557  1.6639
11827SOL     OW37219   2.943   0.428   2.029  0.3018  0.0512 -0.2676
11827SOL    HW137220   2.880   0.389   1.969 -1.0068  0.2825  0.9232
11827SOL    HW237221   2.989   0.354   2.068 -0.9959 -0.2742  0.7212
11828SOL     OW37222   6.622   3.866   5.591 -0.3112 -0.4127  0.1007
11828SOL    HW137223   6.717   3.858   5.591 -0.1962  0.3257  2.4543
11828SOL    HW237224   6.599   3.889   5.681 -2.8774 -2.2484  0.0291
11829SOL     OW37225   2.742   5.475   7.779 -0.2210 -0.2370  0.7722
11829SOL    HW137226   2.784   5.433   7.704  1.5525 -1.3604  2.3289
11829SOL    HW237227   2.793   5.554   7.794 -1.1492  0.4847  0.2800
11830SOL     OW37228   4.010   8.956   4.394  0.2208 -0.5184  0.1193
11830SOL    HW137229   4.044   8.937   4.307 -0.7631  0.5249 -0.5175
11830SOL    HW237230   4.023   9.051   4.405 -0.4519 -0.4862  0.7438
11831SOL     OW37231   8.268   3.618   8.801 -0.0179 -0.0263  0.1690
11831SOL    HW137232   8.181   3.578   8.807 -0.1418  0.4294  1.6882
11831SOL    HW237233   8.298   3.627   8.891  0.6392  1.8856 -0.1790
11832SOL     OW37234   1.423   4.587   9.131 -0.2743 -0.3547  0.1678
11832SOL    HW137235   1.435   4.531   9.054  1.8322  0.8912 -0.5068
11832SOL    HW237236   1.505   4.578   9.180 -0.3497  1.2181  0.6259
11833SOL     OW37237   7.275   4.044   5.419  0.3143 -0.3238 -0.7806
11833SOL    HW137238   7.328   4.085   5.488 -1.6000 -0.2306  0.7381
11833SOL    HW237239   7.311   3.956   5.411  0.3702 -0.4629  0.6403
11834SOL     OW37240   6.214   2.320   2.462 -0.6918 -0.4156  0.2274
11834SOL    HW137241   6.210   2.291   2.553  0.1155 -3.1711 -0.5227
11834SOL    HW237242   6.289   2.273   2.425 -0.4798  1.2945 -1.6677
11835SOL     OW37243   8.564   9.312   2.690 -0.5251  0.0593  0.2110
11835SOL    HW137244   8.490   9.259   2.660  0.0728 -1.0652  0.6833
11835SOL    HW237245   8.641   9.266   2.656 -0.0269  1.2971 -0.4046
11836SOL     OW37246   8.247   6.739   0.118 -0.5479 -0.2201 -0.4524
11836SOL    HW137247   8.340   6.731   0.136 -0.3429  1.1240 -0.7522
11836SOL    HW237248   8.243   6.763   0.025 -1.3134 -2.2438 -0.9826
11837SOL     OW37249   5.822   3.599   8.804 -0.0639  0.8179 -0.2488
11837SOL    HW137250   5.893   3.571   8.746 -0.3453  1.7260 -1.0493
11837SOL    HW237251   5.840   3.554   8.887  0.6351 -0.0978 -0.8720
11838SOL     OW37252   8.914   6.783   7.703  0.1330 -0.4662 -0.7248
11838SOL    HW137253   8.903   6.840   7.780 -1.1806  0.1859 -1.3671
11838SOL    HW237254   8.900   6.695   7.737 -0.0372 -0.2181 -0.1364
11839SOL     OW37255   4.342   6.334   6.508  0.6092  0.0180 -0.6290
11839SOL    HW137256   4.284   6.397   6.551  1.5689 -0.1912  1.0632
11839SOL    HW237257   4.287   6.289   6.444 -1.3671 -0.8174  1.5356
11840SOL     OW37258   6.188   6.639   5.400 -0.1339 -0.0186  0.3631
11840SOL    HW137259   6.220   6.550   5.415  0.9346  0.1620 -0.6770
11840SOL    HW237260   6.108   6.645   5.452 -2.2028 -2.7413 -2.2207
11841SOL     OW37261   1.652   1.445   2.280  0.6626  0.0827  0.2842
11841SOL    HW137262   1.557   1.435   2.283  0.7498 -1.4574 -0.7292
11841SOL    HW237263   1.684   1.360   2.252  2.6226 -0.4938  3.7743
11842SOL     OW37264   4.445   2.184   8.943  0.2618 -0.4594 -0.3269
11842SOL    HW137265   4.413   2.116   8.883 -1.4001  1.3492 -1.5884
11842SOL    HW237266   4.490   2.246   8.886 -0.3568  0.7185  0.4423
11843SOL     OW37267   3.467   7.638   0.693 -0.5107 -0.7404  0.3241
11843SOL    HW137268   3.562   7.641   0.678 -0.7455 -0.5297 -1.3513
11843SOL    HW237269   3.446   7.725   0.728  0.0769 -1.2455  2.0283
11844SOL     OW37270   7.527   1.501   7.738  0.0122  0.3006 -0.8108
11844SOL    HW137271   7.519   1.476   7.645 -1.3253 -0.8733 -0.4157
11844SOL    HW237272   7.563   1.589   7.736  2.0622 -0.4647 -2.3813
11845SOL     OW37273   2.802   8.280   8.566  0.7866  0.3051  0.1833
11845SOL    HW137274   2.754   8.244   8.491 -0.7177  1.7563  0.3936
11845SOL    HW237275   2.890   8.298   8.531 -0.0533  1.5480 -1.4509
11846SOL     OW37276   8.673   9.596   3.804 -0.3856 -0.1696 -0.3359
11846SOL    HW137277   8.667   9.648   3.884 -1.8195 -0.4040 -0.2628
11846SOL    HW237278   8.711   9.656   3.739 -1.4467  0.8111 -0.0985
11847SOL     OW37279   7.249   7.538   2.237  0.2704  0.3449 -0.7215
11847SOL    HW137280   7.255   7.633   2.249 -1.6842  0.3713  0.6550
11847SOL    HW237281   7.285   7.501   2.317 -0.6198  0.0048 -0.4674
11848SOL     OW37282   9.567   0.017   3.866 -0.7672  0.0882  0.8807
11848SOL    HW137283   9.594   0.097   3.821  1.3736 -1.3460 -0.5740
11848SOL    HW237284   9.485  -0.008   3.822 -1.5601  1.5450  1.4895
11849SOL     OW37285   2.158   1.176   5.970  0.1697 -0.0324 -0.4027
11849SOL    HW137286   2.195   1.088   5.981  0.5100  0.1342 -0.1798
11849SOL    HW237287   2.233   1.231   5.948 -0.4071 -0.2489 -3.2564
11850SOL     OW37288   7.934   2.371   9.600  0.3635  0.1176  0.3147
11850SOL    HW137289   7.926   2.353   9.506 -3.1233  0.0441  0.4932
11850SOL    HW237290   7.919   2.286   9.642 -0.4349  0.5502  0.9316
11851SOL     OW37291   6.849   7.455   2.810 -0.2838 -0.1599 -0.1895
11851SOL    HW137292   6.935   7.464   2.850 -0.3505 -0.5353  0.0437
11851SOL    HW237293   6.862   7.393   2.738 -0.5648 -1.0248  0.4911
11852SOL     OW37294   4.127   4.443   0.696  0.6255 -0.2363 -0.4773
11852SOL    HW137295   4.064   4.388   0.743 -0.5281  1.4510  0.0543
11852SOL    HW237296   4.123   4.528   0.741  1.3585  0.6891 -2.0765
11853SOL     OW37297   1.389   2.466   0.524  0.2077 -0.1364 -0.4065
11853SOL    HW137298   1.294   2.477   0.526  0.2229 -0.0875  0.0006
11853SOL    HW237299   1.409   2.411   0.600  0.4692 -0.4359 -0.6850
11854SOL     OW37300   1.081   7.190   2.255  0.0371  0.3659  0.2870
11854SOL    HW137301   0.990   7.170   2.277 -0.7478  1.3748 -1.7784
11854SOL    HW237302   1.092   7.157   2.166  1.5755  0.6366  0.3516
11855SOL     OW37303   2.702   1.359   9.216  0.4943  0.3086  0.2596
11855SOL    HW137304   2.627   1.405   9.253  1.1371  0.5315  1.3467
11855SOL    HW237305   2.686   1.267   9.235  0.0483  0.2603 -0.3472
11856SOL     OW37306   2.459   0.431   6.993  0.0209 -0.1827  0.1493
11856SOL    HW137307   2.539   0.479   6.972  0.0678 -0.7804 -1.1089
11856SOL    HW237308   2.390   0.474   6.941 -0.3971  0.0232  0.8544
11857SOL     OW37309   5.043   9.537   0.664  0.8009  0.0825  0.5809
11857SOL    HW137310   4.954   9.559   0.691 -0.2832  0.1960 -2.5823
11857SOL    HW237311   5.098   9.606   0.700 -0.0933 -0.6866  3.6995
11858SOL     OW37312   2.573   8.427   4.595 -0.0120 -0.0767 -0.0632
11858SOL    HW137313   2.655   8.378   4.586 -0.2397 -0.5525  0.3956
11858SOL    HW237314   2.533   8.421   4.508  0.4157  0.1229 -0.2798
11859SOL     OW37315   4.757   9.142   6.952  0.0970  0.4550 -0.1201
11859SOL    HW137316   4.822   9.196   6.997  0.1227 -0.4054  0.9394
11859SOL    HW237317   4.805   9.101   6.880  1.0329 -0.9522  1.2453
11860SOL     OW37318   7.273   5.335   8.265  0.1356 -0.1552  0.8775
11860SOL    HW137319   7.239   5.247   8.250 -1.4995  0.3001  1.6273
11860SOL    HW237320   7.197   5.384   8.299  1.6234  0.8496  2.9601
11861SOL     OW37321   8.112   2.851   8.412 -0.0142 -0.3168 -0.3963
11861SOL    HW137322   8.101   2.819   8.501 -1.4799 -2.5770 -1.3014
11861SOL    HW237323   8.035   2.904   8.395  1.4351  2.2243  0.4073
11862SOL     OW37324   3.221   4.683   2.676 -1.0294 -0.4628  0.1853
11862SOL    HW137325   3.286   4.748   2.653 -1.0899  0.1094  1.5014
11862SOL    HW237326   3.270   4.602   2.687 -0.6352 -0.1790  0.5352
11863SOL     OW37327   0.954   3.489   0.173 -0.1564  1.2434 -0.4427
11863SOL    HW137328   0.895   3.451   0.108  0.1598  1.4013 -0.8333
11863SOL    HW237329   1.031   3.432   0.170 -0.1388  1.2569 -0.2137
11864SOL     OW37330   9.386   6.870   8.278 -0.2582 -0.0398 -0.4919
11864SOL    HW137331   9.389   6.810   8.353  0.6051  0.1429 -0.3717
11864SOL    HW237332   9.301   6.853   8.237 -0.9139  0.1460  0.7544
11865SOL     OW37333   3.147   4.178   1.356 -0.5526  0.3852 -0.4254
11865SOL    HW137334   3.060   4.168   1.394 -0.6415  1.8645 -0.1885
11865SOL    HW237335   3.203   4.118   1.407 -1.5664 -1.2823 -1.1906
11866SOL     OW37336   0.020   3.211   7.714 -0.5363 -0.1127 -0.3216
11866SOL    HW137337   0.047   3.120   7.725 -0.6776 -0.1404 -0.2061
11866SOL    HW237338  -0.049   3.224   7.779  0.5138  0.5061  0.7200
11867SOL     OW37339   1.569   5.361   3.137 -0.9406 -0.0791 -0.1060
11867SOL    HW137340   1.580   5.386   3.229 -0.5717  2.4707 -0.7755
11867SOL    HW237341   1.636   5.411   3.091 -1.7962 -0.5173 -1.8931
11868SOL     OW37342   1.696   3.338   3.984  0.9883  0.4157  0.2112
11868SOL    HW137343   1.641   3.396   3.933  0.6059 -0.4141 -0.3385
11868SOL    HW237344   1.664   3.250   3.964  2.6991 -0.1191 -0.3640
11869SOL     OW37345   0.300   2.261   6.039  0.0335  0.3269 -0.4087
11869SOL    HW137346   0.333   2.337   6.087 -1.5857 -0.2764  1.8565
11869SOL    HW237347   0.376   2.205   6.027  0.4382  0.1263  2.3633
11870SOL     OW37348   0.182   0.198   1.961  0.3119 -0.1730  0.2958
11870SOL    HW137349   0.258   0.157   2.002 -1.6004 -1.4844  2.7326
11870SOL    HW237350   0.141   0.127   1.911  0.0853  0.2588 -0.1397
11871SOL     OW37351   0.889   7.453   1.029  0.2397  0.0033  0.0408
11871SOL    HW137352   0.802   7.428   0.998  0.4243 -0.0880 -0.4248
11871SOL    HW237353   0.873   7.514   1.101 -0.2083 -0.6061  0.4592
11872SOL     OW37354   8.157   3.871   0.753  0.3883  0.2582 -0.0898
11872SOL    HW137355   8.221   3.941   0.766 -1.4264  1.9020  0.5405
11872SOL    HW237356   8.154   3.858   0.658  3.5790 -1.8750 -0.0682
11873SOL     OW37357   8.305   1.424   4.319  0.3746 -0.1672 -0.0483
11873SOL    HW137358   8.285   1.458   4.406 -1.0895  0.2283 -0.4968
11873SOL    HW237359   8.323   1.331   4.333  0.6374 -0.0041  0.7374
11874SOL     OW37360   2.307   6.032   2.761  0.0201 -0.0138 -0.4034
11874SOL    HW137361   2.240   6.058   2.698  0.2835 -2.3300 -1.7484
11874SOL    HW237362   2.259   5.979   2.825  0.2123  0.1909 -0.0855
11875SOL     OW37363   5.869   5.713   5.556 -0.3509  0.0676  0.0807
11875SOL    HW137364   5.886   5.801   5.592 -2.6277  0.1561  1.0631
11875SOL    HW237365   5.936   5.658   5.597 -0.6167  0.8604  1.6801
11876SOL     OW37366   3.496   5.784   7.400 -0.7582  0.2849 -1.0155
11876SOL    HW137367   3.424   5.753   7.345 -0.9207  0.6700 -1.0261
11876SOL    HW237368   3.568   5.798   7.339 -0.9175  0.6462 -1.1229
11877SOL     OW37369   2.963   4.330   8.201 -0.1209 -0.0127 -0.7775
11877SOL    HW137370   2.899   4.382   8.250  0.4996  0.0237  0.0182
11877SOL    HW237371   3.048   4.364   8.230  0.3162 -1.7150  0.0710
11878SOL     OW37372   9.255   1.313   3.045  0.1072 -0.4839  0.5142
11878SOL    HW137373   9.242   1.367   2.967 -0.9525 -1.5881 -0.1039
11878SOL    HW237374   9.261   1.224   3.012  0.3016 -0.9051  1.6393
11879SOL     OW37375   0.671   5.963   8.983 -0.5573  0.2616  0.5151
11879SOL    HW137376   0.765   5.946   8.985 -0.6475 -0.2980  0.0842
11879SOL    HW237377   0.633   5.892   9.036 -0.7806  0.1851  0.2510
11880SOL     OW37378   9.186   2.533   8.804 -1.1041 -0.0711  0.3449
11880SOL    HW137379   9.170   2.524   8.898  1.1633 -1.0948  0.6944
11880SOL    HW237380   9.263   2.590   8.799 -0.4164 -1.0828 -0.8220
11881SOL     OW37381   8.926   1.871   2.028  0.0475  0.3634  0.1122
11881SOL    HW137382   8.977   1.883   2.109 -0.9386 -0.3797  0.8798
11881SOL    HW237383   8.857   1.808   2.053 -1.0020  1.0401 -0.9789
11882SOL     OW37384   2.054   7.183   2.123 -0.5483  0.9571  0.1699
11882SOL    HW137385   2.043   7.136   2.206 -0.1745 -0.3286 -0.4782
11882SOL    HW237386   2.149   7.186   2.109 -0.4809 -3.3429 -2.5358
11883SOL     OW37387   5.447   5.213   5.736  0.4011 -0.1691 -0.3527
11883SOL    HW137388   5.477   5.283   5.794  1.1967  1.4260 -2.5686
11883SOL    HW237389   5.355   5.232   5.720  0.2236 -0.5178  0.2229
11884SOL     OW37390   6.272   0.100   6.467 -0.2274 -0.6711  0.5084
11884SOL    HW137391   6.236   0.188   6.480  0.8596  0.0432 -0.9990
11884SOL    HW237392   6.272   0.061   6.554  0.0729  1.1518  1.3749
11885SOL     OW37393   6.179   7.250   6.784 -0.4906 -0.2379  0.4064
11885SOL    HW137394   6.166   7.267   6.878 -0.1900 -0.0383  0.4139
11885SOL    HW237395   6.118   7.309   6.741 -1.1181 -0.8169  0.4917
11886SOL     OW37396   4.882   2.589   7.984  0.1793 -0.0068  0.0191
11886SOL    HW137397   4.812   2.547   7.934 -1.4457  1.6604  0.7620
11886SOL    HW237398   4.882   2.544   8.069  2.4628 -2.3613 -1.1125
11887SOL     OW37399   2.713   9.188   5.371 -0.0430  0.1621 -0.0193
11887SOL    HW137400   2.727   9.174   5.464  1.0512 -1.3439 -0.3689
11887SOL    HW237401   2.696   9.101   5.336  0.4920  0.5674 -1.3701
11888SOL     OW37402   0.892   7.456   9.228  0.0538 -0.0664 -0.3322
11888SOL    HW137403   0.843   7.447   9.146 -0.5284 -2.1619  0.1970
11888SOL    HW237404   0.824   7.456   9.296  0.6707 -1.3494  0.3108
11889SOL     OW37405   7.872   4.821   4.527 -0.0914 -0.4166 -0.4871
11889SOL    HW137406   7.915   4.888   4.580  0.3370  0.3449 -1.7630
11889SOL    HW237407   7.899   4.738   4.567 -0.2120  0.1447  0.8004
11890SOL     OW37408   1.188   8.922   2.429  0.3934 -0.0320  0.1712
11890SOL    HW137409   1.158   8.985   2.493  0.4304 -0.4590  0.6156
11890SOL    HW237410   1.127   8.930   2.356 -0.5775 -0.6144  0.9001
11891SOL     OW37411   4.801   1.851   3.763  0.5018  0.0680 -0.0590
11891SOL    HW137412   4.784   1.847   3.857 -1.0622  1.6317 -0.2125
11891SOL    HW237413   4.791   1.761   3.733 -2.1547 -0.0388  0.8404
11892SOL     OW37414   3.176   0.161   6.563 -0.7751 -0.1162 -0.1627
11892SOL    HW137415   3.178   0.132   6.472 -1.5116 -1.9790  0.3694
11892SOL    HW237416   3.118   0.099   6.607  0.5222 -0.0062  1.8442
11893SOL     OW37417   2.785   4.080   3.760 -0.1308  0.0758  0.5868
11893SOL    HW137418   2.773   4.164   3.715  1.2505  0.4450  0.8497
11893SOL    HW237419   2.709   4.028   3.735 -0.5941  1.1177 -0.2487
11894SOL     OW37420   2.694   7.786   7.080  0.1653  0.1957  0.1449
11894SOL    HW137421   2.674   7.746   7.165  0.9336  1.2148  0.8284
11894SOL    HW237422   2.765   7.847   7.098 -0.1524  0.9738 -1.1004
11895SOL     OW37423   0.640   7.475   9.331  0.3966 -0.3071 -0.1712
11895SOL    HW137424   0.597   7.508   9.409  2.5370  0.1892  0.8670
11895SOL    HW237425   0.594   7.517   9.258  0.5432  1.9942  0.9729
11896SOL     OW37426   6.755   0.163   6.815  0.3110  0.7704  0.0919
11896SOL    HW137427   6.819   0.170   6.887 -0.4586  1.7597  0.7034
11896SOL    HW237428   6.805   0.187   6.737  1.0671  0.0282  0.3285
11897SOL     OW37429   8.049   5.314   0.229  0.2885  0.0926  0.5841
11897SOL    HW137430   8.107   5.336   0.302 -0.5845 -0.1062  1.3581
11897SOL    HW237431   7.988   5.387   0.225 -2.8514 -2.0994  3.3859
11898SOL     OW37432   8.978   3.193   8.933 -0.4577 -0.2442 -0.2895
11898SOL    HW137433   8.947   3.264   8.989 -0.5167 -0.5748  0.1029
11898SOL    HW237434   8.932   3.116   8.965  0.2482 -0.6148 -0.1633
11899SOL     OW37435   0.600   3.485   4.761 -0.3101  0.8841 -0.0391
11899SOL    HW137436   0.633   3.534   4.836  1.9709 -0.1025 -0.3275
11899SOL    HW237437   0.513   3.455   4.789  1.3443 -1.4208  3.2156
11900SOL     OW37438   6.885   7.409   7.052 -0.0325  0.2721 -0.1004
11900SOL    HW137439   6.957   7.465   7.023 -0.5695  0.6943 -0.6519
11900SOL    HW237440   6.893   7.330   6.998 -1.3461  1.2734 -1.8732
11901SOL     OW37441   1.230   8.193   1.205 -0.2848 -0.1638 -0.5540
11901SOL    HW137442   1.221   8.196   1.300 -1.7038  0.4607 -0.6951
11901SOL    HW237443   1.206   8.280   1.176  2.5330  0.4685 -1.3487
11902SOL     OW37444   3.849   4.572   6.119  0.2456 -0.3063 -0.1576
11902SOL    HW137445   3.763   4.553   6.082  0.1774 -0.2231 -0.0410
11902SOL    HW237446   3.835   4.649   6.174  0.8258  1.1063 -1.8870
11903SOL     OW37447   2.160   4.286   5.270  0.2094 -0.2053  0.1900
11903SOL    HW137448   2.250   4.307   5.292  0.3035  0.4054 -0.7243
11903SOL    HW237449   2.109   4.315   5.346  0.5641  1.5064 -0.1914
11904SOL     OW37450   2.317   1.036   5.608 -0.6043 -0.4425  0.3100
11904SOL    HW137451   2.395   1.081   5.642  1.7635 -2.4446 -2.0172
11904SOL    HW237452   2.244   1.089   5.639  1.7442  2.7484  0.9871
11905SOL     OW37453   0.177   3.088   8.242 -0.7493 -0.1721 -0.6399
11905SOL    HW137454   0.244   3.119   8.180 -0.7625 -0.7228 -0.9390
11905SOL    HW237455   0.106   3.056   8.186 -1.0155 -0.1276 -0.3302
11906SOL     OW37456   6.875   4.422   3.877 -0.3912 -0.4291 -0.1924
11906SOL    HW137457   6.913   4.503   3.910 -0.4782 -0.9571  1.3066
11906SOL    HW237458   6.855   4.439   3.785  1.5224  0.5415 -0.4590
11907SOL     OW37459   1.897   6.865   2.632 -0.3928 -0.3077  0.5375
11907SOL    HW137460   1.909   6.774   2.604 -1.8619 -0.1026 -0.9301
11907SOL    HW237461   1.984   6.904   2.625  0.2312 -1.5495  1.0620
11908SOL     OW37462   2.821   4.862   7.209  0.8419 -0.4213  0.1394
11908SOL    HW137463   2.899   4.843   7.261  0.3792  0.9942  1.4183
11908SOL    HW237464   2.748   4.845   7.269  0.1678 -1.2770 -0.8942
11909SOL     OW37465   8.208   0.945   3.797  0.0521  0.5560  0.6276
11909SOL    HW137466   8.225   0.950   3.891  0.2342  0.5482  0.5942
11909SOL    HW237467   8.145   0.873   3.789  1.2209 -0.4961  0.5815
11910SOL     OW37468   6.148   1.492   3.576 -0.1124 -0.4113 -0.3314
11910SOL    HW137469   6.218   1.527   3.632 -0.5985 -0.0967  0.0839
11910SOL    HW237470   6.081   1.560   3.575 -1.2463 -1.4485  0.8035
11911SOL     OW37471   0.191   6.803   2.811 -0.0298  0.5220  0.3378
11911SOL    HW137472   0.127   6.867   2.781 -0.4592 -0.0762 -0.0240
11911SOL    HW237473   0.276   6.847   2.800 -0.2455  0.6790 -0.8176
11912SOL     OW37474   2.613   1.004   2.840  0.2218  0.8399  0.7382
11912SOL    HW137475   2.566   1.018   2.758 -0.3913  2.0552  1.2698
11912SOL    HW237476   2.627   0.910   2.843  0.6359  0.8037 -0.9540
11913SOL     OW37477   7.452   1.375   2.770 -0.1585  0.0237  0.0767
11913SOL    HW137478   7.406   1.457   2.751 -1.5482 -0.7857 -0.2529
11913SOL    HW237479   7.446   1.325   2.689  1.4745 -0.0593 -0.0125
11914SOL     OW37480   1.098   4.463   4.993  0.1326 -1.1929  0.1240
11914SOL    HW137481   1.190   4.442   5.010  0.2585  0.3752  1.7287
11914SOL    HW237482   1.049   4.395   5.039  0.5347 -0.2393  2.0969
11915SOL     OW37483   4.412   7.776   0.230 -0.0359  0.0645  0.2219
11915SOL    HW137484   4.480   7.790   0.296 -0.4694 -0.1984  0.7327
11915SOL    HW237485   4.401   7.681   0.226 -0.2714  0.0977  0.0356
11916SOL     OW37486   1.331   1.421   4.419  0.2696 -0.4827  0.3292
11916SOL    HW137487   1.383   1.490   4.379 -2.6232  0.2134 -2.7344
11916SOL    HW237488   1.367   1.339   4.385  0.9892 -0.2068  0.4255
11917SOL     OW37489   0.906   6.099   2.180  0.1306 -0.4043  0.2341
11917SOL    HW137490   0.817   6.119   2.150  0.2741 -1.2002 -0.7553
11917SOL    HW237491   0.936   6.181   2.220 -1.2259 -0.2812  1.0733
11918SOL     OW37492   1.021   7.347   7.420 -0.0674  0.7568  0.3798
11918SOL    HW137493   0.948   7.371   7.363  1.0920  1.2787 -0.9563
11918SOL    HW237494   1.024   7.251   7.416 -0.3543  0.7610 -0.0014
11919SOL     OW37495   6.286   8.310   3.410 -1.1099 -0.5644 -0.0341
11919SOL    HW137496   6.351   8.343   3.348 -0.5592  0.8722  1.2510
11919SOL    HW237497   6.259   8.225   3.374  1.3556 -1.1397 -0.7133
11920SOL     OW37498   0.889   1.281   6.786 -0.0096  0.3387  0.4913
11920SOL    HW137499   0.888   1.185   6.790  0.1159  0.3549  0.9092
11920SOL    HW237500   0.796   1.305   6.782 -0.1234  0.0548 -3.6689
11921SOL     OW37501   5.940   4.256   5.147 -0.7147  0.3620 -0.1589
11921SOL    HW137502   5.969   4.174   5.109  0.5840  0.5837  0.3244
11921SOL    HW237503   5.866   4.283   5.092  0.3485  0.0815 -1.8039
11922SOL     OW37504   0.961   7.506   0.765 -0.5151 -0.0356 -0.3815
11922SOL    HW137505   1.049   7.541   0.776  0.4197 -2.2731 -0.2283
11922SOL    HW237506   0.937   7.470   0.851 -1.8941  1.1524 -0.2276
11923SOL     OW37507   8.995   3.695   6.697 -0.2736  0.0085  0.3043
11923SOL    HW137508   9.032   3.610   6.672 -0.1740  0.4753 -1.2296
11923SOL    HW237509   9.055   3.759   6.660 -2.3114  0.7879 -1.8604
11924SOL     OW37510   5.159   5.139   4.273  0.3411  0.5737 -0.4872
11924SOL    HW137511   5.105   5.175   4.203  0.3914 -0.9822 -1.3821
11924SOL    HW237512   5.248   5.166   4.251  0.2323  0.9415 -0.4692
11925SOL     OW37513   6.253   2.615   5.261  0.0881 -0.1430 -0.3253
11925SOL    HW137514   6.171   2.630   5.309  0.6516  0.6357  0.4246
11925SOL    HW237515   6.242   2.529   5.221 -0.4817 -0.7336  1.0493
11926SOL     OW37516   4.895   3.725   9.570 -0.0693  0.7868 -0.3600
11926SOL    HW137517   4.910   3.743   9.477  2.0695  0.3767 -0.1446
11926SOL    HW237518   4.817   3.669   9.572  1.8322 -2.1674 -2.2547
11927SOL     OW37519   2.523   4.310   1.017 -0.2682 -0.0679  0.1035
11927SOL    HW137520   2.573   4.346   0.943 -0.1368  1.7058  1.0289
11927SOL    HW237521   2.585   4.309   1.090 -1.4300  1.8930  1.1982
11928SOL     OW37522   5.800   7.690   6.010  0.4300 -0.0011  0.3924
11928SOL    HW137523   5.868   7.756   6.015  0.5482 -0.0558 -0.4422
11928SOL    HW237524   5.776   7.686   5.917 -1.3264  0.6509  0.7686
11929SOL     OW37525   9.163   9.392   1.076 -0.5041  0.2537 -0.5545
11929SOL    HW137526   9.234   9.330   1.094 -0.7661  0.3554  0.9901
11929SOL    HW237527   9.203   9.478   1.088 -0.5074  0.3524 -1.2335
11930SOL     OW37528   9.418   6.125   8.971  0.2875  0.0927 -0.2152
11930SOL    HW137529   9.463   6.076   9.040 -0.7206 -0.7608 -0.1426
11930SOL    HW237530   9.377   6.198   9.015  0.1085 -0.1389  0.0044
11931SOL     OW37531   7.831   0.009   5.829  0.3665 -0.0515  0.1581
11931SOL    HW137532   7.890   0.084   5.824  2.3237 -1.5256  0.3197
11931SOL    HW237533   7.767   0.025   5.759  1.6227  1.0210 -0.8057
11932SOL     OW37534   8.486   1.991   3.739 -0.3071 -0.0168  0.2808
11932SOL    HW137535   8.535   2.072   3.752 -1.0224  0.2325  1.5927
11932SOL    HW237536   8.538   1.924   3.784 -1.0736  0.2295  1.5835
11933SOL     OW37537   6.666   3.826   3.060  0.8879  0.0384  0.6727
11933SOL    HW137538   6.678   3.740   3.100 -2.3454 -0.1920  1.4898
11933SOL    HW237539   6.706   3.887   3.123  0.8943 -0.7068  1.4156
11934SOL     OW37540   5.783   8.576   9.045 -0.0476 -0.0664 -0.2732
11934SOL    HW137541   5.710   8.599   9.104 -2.2988 -0.8619 -2.5505
11934SOL    HW237542   5.810   8.489   9.074 -0.1384  0.1280  0.4382
11935SOL     OW37543   7.180   9.109   7.975 -0.6502 -0.4910  0.4421
11935SOL    HW137544   7.201   9.114   8.069  0.5835 -0.6798  0.1865
11935SOL    HW237545   7.164   9.200   7.949 -0.6932 -0.4052  0.7570
11936SOL     OW37546   6.878   7.657   0.425 -0.4387  0.3599 -0.6384
11936SOL    HW137547   6.807   7.712   0.391 -0.4451  0.9092  0.2244
11936SOL    HW237548   6.849   7.634   0.514  0.1606  0.0389 -0.5247
11937SOL     OW37549   1.941   6.113   7.805 -0.2779  0.4525 -0.2851
11937SOL    HW137550   1.919   6.188   7.748  2.4028  1.7403  0.2213
11937SOL    HW237551   2.036   6.106   7.799 -0.3926 -2.6147  0.1722
11938SOL     OW37552   7.924   6.841   4.799  0.2519  0.1508  0.8408
11938SOL    HW137553   7.888   6.900   4.866 -1.1311  1.4189 -0.9060
11938SOL    HW237554   8.019   6.849   4.808  0.1147  0.4034  2.4968
11939SOL     OW37555   5.448   0.312   0.765  0.0425 -0.3499 -0.3211
11939SOL    HW137556   5.393   0.251   0.814 -1.8995  1.3998 -0.1766
11939SOL    HW237557   5.460   0.387   0.823  0.5777  0.3264 -1.2697
11940SOL     OW37558   3.287   6.089   8.155 -0.1609  0.4890  0.1744
11940SOL    HW137559   3.195   6.068   8.167  0.0598 -1.7867 -1.6132
11940SOL    HW237560   3.288   6.155   8.086 -0.4316  0.3546  0.0429
11941SOL     OW37561   1.610   7.597   3.910  0.5778 -0.0474 -0.3892
11941SOL    HW137562   1.569   7.636   3.988  0.7002  0.6456 -0.6671
11941SOL    HW237563   1.704   7.598   3.930  0.8507  2.3523 -1.4946
11942SOL     OW37564   7.470   0.405   1.844 -0.3853  0.0919 -1.0560
11942SOL    HW137565   7.467   0.321   1.798  0.6845 -1.7202  1.8854
11942SOL    HW237566   7.562   0.418   1.865 -0.8933  0.2777  1.3543
11943SOL     OW37567   4.117   3.670   1.324  0.0739 -0.4570 -0.2973
11943SOL    HW137568   4.195   3.701   1.280 -1.7121 -0.2510 -3.6640
11943SOL    HW237569   4.109   3.578   1.297 -0.5894 -0.6190  0.4141
11944SOL     OW37570   6.700   5.581   3.765 -0.0550  0.2368  0.4528
11944SOL    HW137571   6.663   5.511   3.711  2.4329 -0.7232 -0.1617
11944SOL    HW237572   6.744   5.639   3.703  0.1969  0.8740  1.2004
11945SOL     OW37573   4.777   0.260   3.564  0.0432 -0.1909  0.1030
11945SOL    HW137574   4.728   0.272   3.482  0.3842 -1.3361 -0.2917
11945SOL    HW237575   4.778   0.347   3.604 -0.6296  0.2685 -0.8265
11946SOL     OW37576   7.715   2.247   2.879  0.5540 -0.3349  0.0181
11946SOL    HW137577   7.644   2.299   2.917  0.4705  0.5871 -1.3065
11946SOL    HW237578   7.674   2.163   2.857  0.3997 -0.5658  1.1284
11947SOL     OW37579   0.997   7.035   2.022 -0.3331  0.2330  0.7307
11947SOL    HW137580   1.079   6.985   2.025  0.0962  0.7993 -0.5997
11947SOL    HW237581   0.940   6.991   2.084  0.5695 -0.9421  0.7696
11948SOL     OW37582   2.460   2.952   5.779 -1.0943 -0.1262 -0.5268
11948SOL    HW137583   2.433   3.012   5.849  0.8864 -0.0663  0.2462
11948SOL    HW237584   2.528   3.000   5.732  1.1511 -1.9942  0.6174
11949SOL     OW37585   7.046   8.599   4.677 -0.3846  0.3371  0.9494
11949SOL    HW137586   6.981   8.669   4.682 -0.1936  0.6077 -0.1499
11949SOL    HW237587   6.994   8.519   4.670 -0.6169  0.5770 -0.2560
11950SOL     OW37588   2.701   0.491   6.831  0.2863 -0.2384  0.6303
11950SOL    HW137589   2.790   0.525   6.829  0.1153  0.2285  0.9457
11950SOL    HW237590   2.649   0.555   6.783  0.4095 -1.4080 -1.1635
11951SOL     OW37591   6.039   5.800   6.009 -0.5996  0.4344 -0.0767
11951SOL    HW137592   6.104   5.869   5.995 -0.9414  0.4269 -1.9783
11951SOL    HW237593   6.048   5.743   5.932  0.6929 -2.5315  2.0599
11952SOL     OW37594   3.527   7.402   2.948 -0.0537 -0.0433 -0.4810
11952SOL    HW137595   3.527   7.394   3.044  1.3648 -0.7560 -0.5216
11952SOL    HW237596   3.607   7.450   2.929 -0.8765  1.0605 -1.2646
11953SOL     OW37597   2.715   3.767   7.202  0.3707  0.1073 -0.6832
11953SOL    HW137598   2.635   3.765   7.150 -0.2312  2.8485 -0.0419
11953SOL    HW237599   2.684   3.773   7.292  1.3355 -0.0372 -0.3335
11954SOL     OW37600   0.336   0.464   6.516 -0.0880 -0.4230  0.5823
11954SOL    HW137601   0.292   0.381   6.496 -0.8524 -0.2150  1.3572
11954SOL    HW237602   0.420   0.438   6.554 -0.8781 -0.9015  2.1114
11955SOL     OW37603   4.397   3.261   5.302  0.7936  0.2692 -0.0279
11955SOL    HW137604   4.409   3.333   5.365 -1.5522 -1.0494  2.1113
11955SOL    HW237605   4.303   3.258   5.286  0.8779 -1.9839 -0.4621
11956SOL     OW37606   1.148   1.172   1.212 -0.6873  0.3937  0.3945
11956SOL    HW137607   1.067   1.205   1.175  0.1445  2.7115  0.4653
11956SOL    HW237608   1.214   1.237   1.187  1.1644 -1.4256  0.3097
11957SOL     OW37609   7.328   0.556   7.958 -0.2546 -0.2266  0.0712
11957SOL    HW137610   7.283   0.576   7.876 -0.3913  0.2237  0.2549
11957SOL    HW237611   7.283   0.478   7.991  1.2107 -1.7560 -1.3651
11958SOL     OW37612   0.091   1.508   8.665  0.4106 -0.2490 -0.3673
11958SOL    HW137613   0.067   1.591   8.706  0.3273 -0.4767  0.0594
11958SOL    HW237614   0.137   1.532   8.585  0.9948  0.2136  0.0953
11959SOL     OW37615   7.983   2.535   7.954  0.0334  0.7378  0.0284
11959SOL    HW137616   8.013   2.612   8.003  0.5966 -0.9767  2.5777
11959SOL    HW237617   7.896   2.516   7.990  0.1132 -0.1034 -0.2000
11960SOL     OW37618   7.536   3.391   0.946  0.7067  0.4309  0.4377
11960SOL    HW137619   7.452   3.375   0.904  0.7894  2.7497 -0.7535
11960SOL    HW237620   7.531   3.482   0.977  1.6418 -0.3468  3.1555
11961SOL     OW37621   2.567   3.987   1.217  0.1706 -0.1276  0.3161
11961SOL    HW137622   2.481   4.026   1.203  0.3329  0.0931 -0.0920
11961SOL    HW237623   2.580   3.989   1.311 -0.4796 -0.6086  0.4218
11962SOL     OW37624   4.545   7.046   2.446 -0.0031  0.0402  0.2124
11962SOL    HW137625   4.531   7.038   2.351  0.4711 -0.5029  0.1790
11962SOL    HW237626   4.641   7.046   2.455  0.0074 -2.4612  0.8641
11963SOL     OW37627   8.734   8.667   7.695  0.1621  0.0891 -0.0533
11963SOL    HW137628   8.806   8.694   7.637 -0.0416  0.0969 -0.3044
11963SOL    HW237629   8.685   8.748   7.711 -0.1810 -0.0428 -0.4291
11964SOL     OW37630   6.960   2.063   5.589  0.1598 -0.1282 -0.3790
11964SOL    HW137631   6.933   2.140   5.638  0.9719  1.2580 -1.9791
11964SOL    HW237632   7.055   2.058   5.603  0.2634 -0.2278 -1.0782
11965SOL     OW37633   9.389   3.848   4.875 -0.3753  0.2894 -0.1284
11965SOL    HW137634   9.429   3.786   4.936  0.6700 -0.3891 -1.4242
11965SOL    HW237635   9.379   3.929   4.924 -0.5340 -0.5251  1.2212
11966SOL     OW37636   7.065   7.347   2.508 -0.3215  0.1447  0.1031
11966SOL    HW137637   7.129   7.315   2.444 -1.2207 -0.8263 -0.3277
11966SOL    HW237638   7.082   7.294   2.586 -1.1326 -0.6979 -0.2795
11967SOL     OW37639   2.094   3.247   7.055  0.1442  0.4561 -0.2086
11967SOL    HW137640   2.101   3.171   6.998 -3.1841  0.3055 -0.6056
11967SOL    HW237641   2.119   3.322   7.000  0.0138  0.0088 -0.8831
11968SOL     OW37642   8.367   6.395   4.318  0.1564  0.0997  0.2971
11968SOL    HW137643   8.282   6.363   4.347  0.3038 -1.1945 -0.6030
11968SOL    HW237644   8.421   6.395   4.397 -1.0537  2.4041  1.1975
11969SOL     OW37645   7.641   2.575   4.257  0.4284  0.3815 -0.5149
11969SOL    HW137646   7.566   2.558   4.314 -0.0740 -0.5038 -1.4266
11969SOL    HW237647   7.665   2.490   4.222  0.9219  0.8748 -1.4075
11970SOL     OW37648   4.962   3.742   6.380  0.5348 -0.0506 -0.1949
11970SOL    HW137649   5.053   3.739   6.352  0.8355  1.2278  0.5850
11970SOL    HW237650   4.961   3.805   6.452 -1.1149  0.6238 -0.7636
11971SOL     OW37651   5.432   5.660   3.113  0.2080  0.4837 -0.1343
11971SOL    HW137652   5.497   5.599   3.081  1.2507  1.0331  0.8644
11971SOL    HW237653   5.481   5.741   3.130 -0.6976  0.8608  0.7875
11972SOL     OW37654   2.814   6.803   1.739  0.4429 -0.3978 -0.0324
11972SOL    HW137655   2.862   6.752   1.804 -0.4651 -1.7046 -0.3563
11972SOL    HW237656   2.800   6.743   1.667 -0.8896  0.2198 -0.3200
11973SOL     OW37657   8.407   8.684   0.308  0.2389  0.4604  0.4688
11973SOL    HW137658   8.439   8.693   0.218 -1.8320  1.5352 -0.2558
11973SOL    HW237659   8.313   8.701   0.301 -0.1284 -0.2966  2.7314
11974SOL     OW37660   8.532   5.136   3.801 -0.1801  0.3777 -0.3979
11974SOL    HW137661   8.578   5.216   3.826 -0.1048  0.0046  0.7130
11974SOL    HW237662   8.491   5.105   3.882 -2.4097  0.6867 -1.3472
11975SOL     OW37663   7.528   1.273   6.777 -0.8738  0.1173 -0.5129
11975SOL    HW137664   7.451   1.322   6.805 -0.1048  0.9357  0.2281
11975SOL    HW237665   7.501   1.181   6.779 -1.5701  0.3357  0.5831
11976SOL     OW37666   4.538   5.686   6.074 -0.3743  0.4234  0.1970
11976SOL    HW137667   4.588   5.750   6.123 -1.8924  0.5731  1.6404
11976SOL    HW237668   4.467   5.660   6.133 -1.7080 -0.1339 -1.5445
11977SOL     OW37669   2.330   1.485   9.538  0.3724  0.0438 -0.5087
11977SOL    HW137670   2.259   1.514   9.595  0.5034 -0.1795 -0.2225
11977SOL    HW237671   2.409   1.524   9.576  0.8598 -2.3052  1.1672
11978SOL     OW37672   4.364   2.397   4.246 -0.9595 -0.1782 -0.1356
11978SOL    HW137673   4.402   2.450   4.175 -0.6786  0.0470  0.1783
11978SOL    HW237674   4.398   2.437   4.326  1.9481 -2.6957  0.1131
11979SOL     OW37675   5.456   1.092   1.782  0.3172  0.2452  0.0090
11979SOL    HW137676   5.397   1.130   1.847 -0.2532  0.8821 -0.8696
11979SOL    HW237677   5.531   1.151   1.780 -0.0015  0.6350 -0.4486
11980SOL     OW37678   6.906   9.226   6.252  0.7282 -0.3195  0.3256
11980SOL    HW137679   6.940   9.205   6.165  1.6457 -0.3939  0.6863
11980SOL    HW237680   6.873   9.316   6.243  0.7055 -0.3684 -0.1291
11981SOL     OW37681   7.045   8.642   2.157 -0.2482  0.4255  0.6798
11981SOL    HW137682   7.106   8.641   2.084 -0.5719 -1.1896  0.3743
11981SOL    HW237683   7.099   8.652   2.235  0.6533 -2.3957  0.5368
11982SOL     OW37684   6.977   1.452   1.708  0.1712  0.3490  0.0649
11982SOL    HW137685   6.951   1.494   1.626  0.2097  1.4369  0.5847
11982SOL    HW237686   6.900   1.402   1.736  0.7070 -1.4188 -1.4630
11983SOL     OW37687   4.374   4.635   8.901 -0.0891 -0.4137 -0.0573
11983SOL    HW137688   4.318   4.558   8.910  0.2541 -0.7700 -0.7873
11983SOL    HW237689   4.315   4.710   8.907 -0.5316 -0.7619 -0.0436
11984SOL     OW37690   7.526   5.901   6.418  0.1392  0.6509 -0.6095
11984SOL    HW137691   7.490   5.968   6.361  0.1091 -0.7323 -2.3163
11984SOL    HW237692   7.458   5.833   6.421  0.6013  0.2100  0.1809
11985SOL     OW37693   9.269   2.497   2.657  0.3520 -0.1195  0.0206
11985SOL    HW137694   9.332   2.531   2.720 -0.8231 -0.2052  1.2923
11985SOL    HW237695   9.227   2.574   2.620 -1.9843  0.0235  2.5666
11986SOL     OW37696   8.553   9.469   0.197 -0.4228  0.0472  0.0403
11986SOL    HW137697   8.569   9.558   0.230  0.4239 -0.0956  0.0357
11986SOL    HW237698   8.459   9.468   0.176 -0.1055  1.5546 -1.7571
11987SOL     OW37699   3.112   1.925   2.869  0.7404  0.3220  0.4626
11987SOL    HW137700   3.146   1.881   2.791 -1.3145 -0.3887 -0.1060
11987SOL    HW237701   3.135   1.867   2.941 -0.2353 -0.7438 -0.0503
11988SOL     OW37702   5.324   1.719   3.204  0.2534  0.0435 -0.3633
11988SOL    HW137703   5.317   1.651   3.272  0.4181  1.0179  0.6539
11988SOL    HW237704   5.411   1.706   3.167  0.3136 -0.2605 -0.1223
11989SOL     OW37705   2.238   2.164   9.613 -0.1833 -0.3398  0.4003
11989SOL    HW137706   2.148   2.197   9.610  0.1516  0.5533 -0.3590
11989SOL    HW237707   2.230   2.071   9.635 -1.1907  0.1324  2.2732
11990SOL     OW37708   4.372   7.867   0.762 -0.4701  0.3198 -0.1497
11990SOL    HW137709   4.413   7.817   0.692  1.3958  0.1060  1.0237
11990SOL    HW237710   4.444   7.889   0.821 -1.7094  1.9273  0.8502
11991SOL     OW37711   4.655   2.304   4.427  0.0050 -0.0571  0.3898
11991SOL    HW137712   4.611   2.219   4.428 -0.2185  0.0607  1.9505
11991SOL    HW237713   4.584   2.368   4.429  0.1226  0.2419 -1.8619
11992SOL     OW37714   0.599   0.617   5.521  0.2121 -0.4066 -0.1423
11992SOL    HW137715   0.635   0.704   5.501 -0.2929 -0.4926 -1.5856
11992SOL    HW237716   0.504   0.628   5.509 -0.1855 -0.4784  2.4106
11993SOL     OW37717   4.847   7.613   6.631  0.2163 -0.1294 -0.3710
11993SOL    HW137718   4.831   7.534   6.580  1.3594 -1.0547  0.6369
11993SOL    HW237719   4.861   7.582   6.720  0.0304  1.2841  0.1786
11994SOL     OW37720   8.225   8.493   8.781 -0.5525  0.0608 -0.1681
11994SOL    HW137721   8.281   8.571   8.787 -0.0086 -0.4171  1.5701
11994SOL    HW237722   8.285   8.422   8.758 -0.8765 -0.0178 -0.7748
11995SOL     OW37723   3.654   7.596   0.148 -0.1441 -0.0416 -0.5903
11995SOL    HW137724   3.709   7.543   0.090 -0.0307 -0.3697 -0.1848
11995SOL    HW237725   3.716   7.643   0.204 -0.2742 -0.6063  0.0403
11996SOL     OW37726   9.513   7.624   2.291 -0.3934  0.5201 -0.0694
11996SOL    HW137727   9.495   7.691   2.225 -0.9118  1.2463  0.7796
11996SOL    HW237728   9.437   7.628   2.350  0.1903  0.0986  0.7303
11997SOL     OW37729   6.150   8.128   7.419 -0.3886 -0.4201 -0.2089
11997SOL    HW137730   6.097   8.155   7.344 -1.1275 -1.5112 -0.0897
11997SOL    HW237731   6.228   8.184   7.415  0.5001 -1.7070 -2.8915
11998SOL     OW37732   3.659   5.761   3.402  0.3615  0.2801 -0.6932
11998SOL    HW137733   3.727   5.773   3.468 -0.2219  0.6408 -0.1525
11998SOL    HW237734   3.701   5.784   3.320  1.6094 -1.8130 -0.7065
11999SOL     OW37735   5.210   2.906   3.812 -0.1112 -0.2828 -0.3493
11999SOL    HW137736   5.189   2.993   3.780  4.1116  0.4751 -1.6515
11999SOL    HW237737   5.191   2.848   3.739 -1.5781 -0.3222  0.0286
12000SOL     OW37738   1.382   8.814   5.671 -0.0836  0.5191  0.6105
12000SOL    HW137739   1.343   8.732   5.640  0.2443  0.6950 -0.3036
12000SOL    HW237740   1.472   8.790   5.695 -0.4282  0.3183  1.7746
12001SOL     OW37741   5.958   7.808   4.924 -0.3057  0.5694  0.7846
12001SOL    HW137742   5.930   7.879   4.981 -1.6414  0.7102 -0.0011
12001SOL    HW237743   5.924   7.729   4.966  0.5997  0.4588  1.3111
12002SOL     OW37744   2.270   2.787   5.639  0.1140 -0.0297  0.5194
12002SOL    HW137745   2.337   2.843   5.679  2.5481 -1.7772 -0.8993
12002SOL    HW237746   2.317   2.709   5.610 -2.1734 -0.5135 -2.3615
12003SOL     OW37747   4.826   1.920   1.086 -0.0407  0.0016  0.5146
12003SOL    HW137748   4.779   1.882   1.160 -0.9357 -0.5603 -0.3198
12003SOL    HW237749   4.789   2.009   1.078 -0.6485 -0.2784  0.1456
12004SOL     OW37750   1.861   4.597   4.024  0.3497  0.5231  0.3965
12004SOL    HW137751   1.851   4.612   3.930  0.0105 -1.9632 -0.0352
12004SOL    HW237752   1.843   4.682   4.064 -2.7075  0.9872 -1.5974
12005SOL     OW37753   0.091   6.867   9.014 -0.2721 -0.4055  0.1797
12005SOL    HW137754   0.141   6.786   9.008 -0.9129 -0.7745 -0.2592
12005SOL    HW237755   0.002   6.839   9.032 -0.3296  0.2518  0.9696
12006SOL     OW37756   5.847   9.455   4.591  0.6095  0.5454  0.1563
12006SOL    HW137757   5.864   9.374   4.543  2.0290  0.7636  0.2654
12006SOL    HW237758   5.858   9.524   4.526 -0.3906  0.6899  0.1162
12007SOL     OW37759   8.001   8.513   5.220  0.3667 -0.2273 -0.0657
12007SOL    HW137760   7.923   8.462   5.241 -0.1645  1.5756  3.1623
12007SOL    HW237761   7.967   8.590   5.173  0.3573 -0.0863  0.1684
12008SOL     OW37762   8.921   7.595   7.073  0.5407 -0.3863  0.1846
12008SOL    HW137763   8.949   7.546   7.150  2.4401  0.2384 -0.0594
12008SOL    HW237764   8.878   7.530   7.017 -2.1319 -0.6100  2.2644
12009SOL     OW37765   2.247   5.249   8.253  0.9256  0.1475 -0.2459
12009SOL    HW137766   2.218   5.158   8.245  1.0336  0.1485 -0.6931
12009SOL    HW237767   2.335   5.249   8.215  1.3606  0.2247  0.7258
12010SOL     OW37768   3.946   9.139   7.334 -0.1717 -0.5634  0.1538
12010SOL    HW137769   4.035   9.169   7.313 -0.8859  1.5999 -0.0423
12010SOL    HW237770   3.959   9.056   7.380  2.0640  0.4514  1.5421
12011SOL     OW37771   4.669   6.033   4.846  0.5139 -0.0214 -0.1581
12011SOL    HW137772   4.679   6.033   4.941 -1.3073  1.0996  0.0801
12011SOL    HW237773   4.708   6.115   4.817 -0.5508  0.5188 -0.1313
12012SOL     OW37774   4.411   8.107   5.000 -0.0161  0.2620 -0.2152
12012SOL    HW137775   4.413   8.064   4.915 -0.6463  0.6257 -0.4234
12012SOL    HW237776   4.378   8.195   4.982  1.0369  0.7607  0.2328
12013SOL     OW37777   7.284   9.058   0.131 -0.1854 -0.2775 -0.4736
12013SOL    HW137778   7.346   9.121   0.167  0.7637 -1.0201 -0.7546
12013SOL    HW237779   7.198   9.088   0.160  0.3827  0.2956  0.6438
12014SOL     OW37780   3.447   6.243   5.547  0.5390  0.4269  0.3447
12014SOL    HW137781   3.450   6.314   5.483 -1.1354  0.5711  0.3759
12014SOL    HW237782   3.356   6.244   5.578  1.0703 -0.2887  1.9828
12015SOL     OW37783   6.367   7.432   6.214  0.1511 -0.6353  0.3531
12015SOL    HW137784   6.367   7.514   6.263 -0.7169 -0.6573  0.4057
12015SOL    HW237785   6.418   7.451   6.135  0.4041 -0.2051  0.6161
12016SOL     OW37786   3.202   0.574   9.143 -0.2279 -0.3755  0.1478
12016SOL    HW137787   3.167   0.581   9.232  0.4793  0.3034  0.3905
12016SOL    HW237788   3.130   0.601   9.086  0.1890  2.1956  0.6907
12017SOL     OW37789   9.425   4.903   8.538  0.7219 -0.3411  0.7765
12017SOL    HW137790   9.473   4.930   8.617  1.4732  0.0314  0.1982
12017SOL    HW237791   9.438   4.974   8.476 -1.0224  0.0109  0.7706
12018SOL     OW37792   5.993   7.024   4.171  0.3029  0.4597 -0.3733
12018SOL    HW137793   6.088   7.032   4.165  0.2097  2.2333  0.1230
12018SOL    HW237794   5.964   7.102   4.218 -1.3678 -0.2749 -0.0920
12019SOL     OW37795   1.438   2.745   0.773  0.1758  0.2305 -0.3432
12019SOL    HW137796   1.449   2.758   0.678 -0.4208 -0.5047 -0.5309
12019SOL    HW237797   1.343   2.735   0.784  0.2404  0.3461  0.3413
12020SOL     OW37798   5.915   4.355   3.299 -0.6201 -0.0614 -0.1548
12020SOL    HW137799   5.930   4.432   3.244  1.9189 -0.1401  0.3022
12020SOL    HW237800   5.862   4.296   3.246  3.0581 -0.8807 -3.3368
12021SOL     OW37801   4.258   4.484   7.891  0.1005 -0.4731  0.5497
12021SOL    HW137802   4.219   4.398   7.906 -2.4169  0.1811 -1.5900
12021SOL    HW237803   4.268   4.521   7.979 -2.2422 -1.5444  1.3418
12022SOL     OW37804   2.111   5.340   2.571  0.4085 -0.1382 -0.1893
12022SOL    HW137805   2.071   5.321   2.656  2.1875  1.4336  1.0927
12022SOL    HW237806   2.042   5.320   2.508 -1.6380  0.3422  1.7250
12023SOL     OW37807   0.936   7.952   8.046 -0.5156  0.3093  0.0811
12023SOL    HW137808   1.001   7.888   8.017  0.7375  1.5856 -0.0545
12023SOL    HW237809   0.975   8.037   8.023 -1.9023  1.1362  0.6982
12024SOL     OW37810   7.304   6.488   3.993  0.5976  0.2501  0.4631
12024SOL    HW137811   7.214   6.458   3.996  0.1620  1.1476 -1.5909
12024SOL    HW237812   7.306   6.565   4.050 -0.1403  0.6738 -0.0714
12025SOL     OW37813   2.868   8.666   8.217 -0.4335  0.3929 -0.4999
12025SOL    HW137814   2.794   8.625   8.173 -0.6308  0.9903 -0.7487
12025SOL    HW237815   2.847   8.663   8.310 -0.7130  0.4406 -0.5610
12026SOL     OW37816   7.264   7.819   4.431 -0.9029  0.4376 -0.0737
12026SOL    HW137817   7.197   7.882   4.458 -0.7132  0.9259 -0.7116
12026SOL    HW237818   7.340   7.842   4.484 -0.7479  0.9416 -0.4985
12027SOL     OW37819   3.672   9.567   4.534  0.3549  0.1804 -0.1160
12027SOL    HW137820   3.728   9.639   4.504  1.3648 -0.8503 -0.7863
12027SOL    HW237821   3.586   9.607   4.544  1.3169  2.0134  1.7089
12028SOL     OW37822   9.179   5.518   0.581  0.0601 -1.0665 -0.2837
12028SOL    HW137823   9.215   5.586   0.638 -1.6089 -1.3289  1.1842
12028SOL    HW237824   9.234   5.520   0.503 -0.6135  2.7831 -0.8458
12029SOL     OW37825   5.095   1.966   2.501 -0.5571  0.6125 -0.1158
12029SOL    HW137826   5.010   1.923   2.508 -0.3051  0.0810 -0.2978
12029SOL    HW237827   5.138   1.950   2.585 -0.7404  1.1057  0.0735
12030SOL     OW37828   0.309   6.212   3.682  0.5106  0.2755 -0.0334
12030SOL    HW137829   0.306   6.258   3.598  1.0677 -2.1652 -1.4831
12030SOL    HW237830   0.374   6.143   3.669 -0.4735 -1.1054  1.9123
12031SOL     OW37831   9.003   6.649   1.148 -0.2992 -0.0527  0.6842
12031SOL    HW137832   8.986   6.577   1.209 -2.5257 -0.1039  0.0888
12031SOL    HW237833   9.097   6.667   1.157 -0.5865  0.1904  4.3355
12032SOL     OW37834   8.190   0.301   1.516  0.2696 -0.1541 -0.5313
12032SOL    HW137835   8.254   0.346   1.461 -0.8372 -0.6418 -2.3120
12032SOL    HW237836   8.110   0.301   1.464 -0.6870 -1.1302  0.8780
12033SOL     OW37837   1.477   2.528   6.351  0.3482  0.0747  0.5761
12033SOL    HW137838   1.543   2.574   6.403  0.4824 -1.5024  1.8962
12033SOL    HW237839   1.398   2.531   6.404 -0.0942  0.2397 -0.0895
12034SOL     OW37840   4.968   5.773   8.201  0.6063  0.1819 -0.2483
12034SOL    HW137841   4.901   5.831   8.164  1.7590  2.2214  0.6724
12034SOL    HW237842   5.043   5.784   8.142 -0.2955 -3.5548 -2.4107
12035SOL     OW37843   5.533   8.689   5.617  0.2430 -0.5536 -0.0984
12035SOL    HW137844   5.590   8.721   5.547  0.3420 -2.6992 -1.0826
12035SOL    HW237845   5.526   8.595   5.601 -2.1150 -0.6581  1.0620
12036SOL     OW37846   6.189   8.091   8.355  0.1480  0.3603 -0.0896
12036SOL    HW137847   6.152   8.004   8.365  0.7742  0.2201  1.1404
12036SOL    HW237848   6.275   8.076   8.315  0.5526  0.3331  0.7621
12037SOL     OW37849   8.046   4.773   6.839  0.1101 -0.2703 -0.2258
12037SOL    HW137850   8.125   4.778   6.892  0.5565 -2.1279 -0.6129
12037SOL    HW237851   8.005   4.859   6.847  1.2014  0.1366  1.4716
12038SOL     OW37852   4.206   4.260   8.051  0.2528 -0.3776  0.1918
12038SOL    HW137853   4.266   4.271   8.124  1.2572 -1.2028 -0.4646
12038SOL    HW237854   4.233   4.177   8.010 -1.2129 -0.6830 -0.2533
12039SOL     OW37855   1.882   6.562   0.196  0.3221 -0.5151 -0.3357
12039SOL    HW137856   1.950   6.525   0.253 -1.2084 -1.6599  0.8122
12039SOL    HW237857   1.817   6.598   0.255 -0.0980  0.6032 -1.4219
12040SOL     OW37858   4.879   3.609   1.782  0.2772 -0.2096  0.0033
12040SOL    HW137859   4.804   3.588   1.840  1.2399 -1.8238  0.7429
12040SOL    HW237860   4.881   3.705   1.779 -0.6536 -0.1064  1.5427
12041SOL     OW37861   5.496   8.166   0.954 -0.3729 -0.4120 -0.5229
12041SOL    HW137862   5.568   8.104   0.943 -0.1655 -0.0385 -1.3565
12041SOL    HW237863   5.458   8.175   0.867 -0.4410  0.5706 -0.4111
12042SOL     OW37864   9.041   1.945   8.055  0.6594 -0.1123  0.0430
12042SOL    HW137865   9.028   1.853   8.033  1.5667 -0.3251  0.3357
12042SOL    HW237866   8.959   1.988   8.030  0.8860 -0.6751 -1.8294
12043SOL     OW37867   2.392   2.974   1.646 -0.0221  0.1234 -0.3842
12043SOL    HW137868   2.299   2.979   1.623 -0.4515  1.3228  1.4176
12043SOL    HW237869   2.408   3.052   1.698  2.2631  0.4225 -1.4365
12044SOL     OW37870   5.436   3.461   9.441 -0.0356  0.2728  0.3610
12044SOL    HW137871   5.476   3.546   9.422 -2.5129  1.4522 -0.0128
12044SOL    HW237872   5.452   3.447   9.534  1.0587  0.7735  0.2586
12045SOL     OW37873   7.421   7.714   7.556  0.0909  0.1298 -0.5455
12045SOL    HW137874   7.489   7.754   7.611 -1.2538  1.1293  0.4636
12045SOL    HW237875   7.466   7.644   7.509  1.5258 -0.1312  1.1216
12046SOL     OW37876   3.994   7.898   9.372 -0.6857  0.5369 -0.3164
12046SOL    HW137877   4.067   7.895   9.310 -0.3791 -0.3596  0.0780
12046SOL    HW237878   3.917   7.914   9.317 -0.3188  0.5359 -0.8412
12047SOL     OW37879   7.985   1.349   8.810 -0.6081  0.2922  0.0141
12047SOL    HW137880   8.080   1.361   8.810 -0.7247  1.2858 -0.3039
12047SOL    HW237881   7.965   1.319   8.721 -0.5140 -0.6305  0.2980
12048SOL     OW37882   5.178   2.579   2.643 -0.6368 -0.5651 -0.5827
12048SOL    HW137883   5.148   2.569   2.733  3.1812 -0.7666  0.8435
12048SOL    HW237884   5.184   2.489   2.610 -0.0738 -0.6326 -0.3003
12049SOL     OW37885   2.971   3.605   0.491  0.1859  0.3616  0.2719
12049SOL    HW137886   2.923   3.534   0.533 -0.6727  1.6950  1.6397
12049SOL    HW237887   2.904   3.655   0.443  0.3914  1.4596  1.0849
12050SOL     OW37888   4.804   5.935   6.968  0.2734 -1.0647 -0.2200
12050SOL    HW137889   4.813   6.012   7.023 -3.1765 -1.7087  1.5506
12050SOL    HW237890   4.817   5.967   6.879  1.6920  0.9222  0.6303
12051SOL     OW37891   4.992   7.923   0.582 -0.6803 -0.1440  0.3982
12051SOL    HW137892   5.005   8.001   0.529 -1.3196 -0.3881 -0.1340
12051SOL    HW237893   5.073   7.873   0.572 -0.2752  0.4405  0.7357
12052SOL     OW37894   7.039   8.456   7.165  0.2812  0.3496 -0.1491
12052SOL    HW137895   7.099   8.522   7.129  3.0967 -1.6729  0.4634
12052SOL    HW237896   6.960   8.463   7.112  1.3720  2.6146 -1.5955
12053SOL     OW37897   2.906   4.244   1.077 -0.4525 -0.1110 -0.2790
12053SOL    HW137898   2.903   4.157   1.117 -1.0211  0.0093 -0.0529
12053SOL    HW237899   2.991   4.247   1.032  0.9673  0.3129  2.2023
12054SOL     OW37900   6.873   5.124   7.780 -0.8347  0.1845 -0.0049
12054SOL    HW137901   6.950   5.144   7.832  0.1399 -1.7242 -0.6268
12054SOL    HW237902   6.844   5.209   7.746  2.1151  0.8138 -1.2879
12055SOL     OW37903   8.455   1.064   6.583  0.5139 -0.0042 -0.0875
12055SOL    HW137904   8.547   1.087   6.567  1.0871 -1.8801  0.2883
12055SOL    HW237905   8.431   1.116   6.660  1.9597 -1.0588  1.1497
12056SOL     OW37906   7.829   8.904   8.288  0.2116 -0.0364 -0.0218
12056SOL    HW137907   7.898   8.888   8.351 -0.6511  0.8623  1.1888
12056SOL    HW237908   7.780   8.822   8.283 -0.7149  0.3555  1.7817
12057SOL     OW37909   0.506   8.357   8.214  0.0774  0.2086 -0.0521
12057SOL    HW137910   0.566   8.286   8.237 -1.4372 -1.4667 -1.0066
12057SOL    HW237911   0.419   8.317   8.215 -0.8257  2.0164 -0.7902
12058SOL     OW37912   6.021   0.457   4.065 -0.4160 -0.3500 -0.0756
12058SOL    HW137913   6.022   0.465   4.161  0.6925 -0.6589 -0.0542
12058SOL    HW237914   6.014   0.548   4.035  2.3513  0.0891  0.2974
12059SOL     OW37915   6.234   2.264   9.332  0.0127  0.4571 -0.2959
12059SOL    HW137916   6.286   2.219   9.398 -0.2657  0.0255 -0.3645
12059SOL    HW237917   6.154   2.290   9.378  0.3309  1.2182 -0.1610
12060SOL     OW37918   1.206   0.506   6.609  0.4448 -0.4562 -0.3940
12060SOL    HW137919   1.292   0.492   6.649  0.5194  0.8760 -0.0347
12060SOL    HW237920   1.214   0.591   6.565 -0.2363 -1.0061 -1.6160
12061SOL     OW37921   4.704   2.957   5.403  0.2369  0.3630 -0.3029
12061SOL    HW137922   4.689   3.018   5.331  1.6689  0.9399 -0.1554
12061SOL    HW237923   4.664   2.875   5.374  2.1919  0.0792 -2.5374
12062SOL     OW37924   5.847   3.766   2.077  0.5879  0.2763 -0.7918
12062SOL    HW137925   5.891   3.706   2.137  1.7087  0.0200 -1.8198
12062SOL    HW237926   5.787   3.816   2.132  1.7290  0.2056  0.5747
12063SOL     OW37927   6.284   8.408   2.205 -0.0437 -0.1528 -0.2078
12063SOL    HW137928   6.276   8.462   2.127 -2.2734  0.5932  0.4451
12063SOL    HW237929   6.284   8.470   2.278 -3.1377 -0.8618  0.5857
12064SOL     OW37930   1.886   2.882   7.092 -0.9082  0.6471 -0.0356
12064SOL    HW137931   1.966   2.930   7.111 -0.3616 -0.5034  0.6431
12064SOL    HW237932   1.915   2.801   7.052 -1.7382  0.2414  0.1553
12065SOL     OW37933   2.067   9.558   1.232  0.0918  0.0184 -0.0954
12065SOL    HW137934   2.054   9.542   1.138  0.7357 -1.5559  0.0531
12065SOL    HW237935   1.980   9.545   1.270 -0.0607  0.1092 -0.4098
12066SOL     OW37936   7.713   1.451   6.082 -0.1496  0.4693  0.3670
12066SOL    HW137937   7.683   1.482   5.997 -1.3376 -0.9278  0.2453
12066SOL    HW237938   7.807   1.437   6.070 -0.2201  0.7156 -0.5623
12067SOL     OW37939   6.564   2.585   3.127 -0.5558  0.3707 -0.1889
12067SOL    HW137940   6.623   2.575   3.052  0.6930 -0.3298  0.8366
12067SOL    HW237941   6.511   2.506   3.127  0.2362 -0.1787  0.2993
12068SOL     OW37942   8.901   5.579   0.653  0.3963 -0.7259  0.4775
12068SOL    HW137943   8.992   5.558   0.632 -0.0201 -0.2289 -2.2308
12068SOL    HW237944   8.850   5.513   0.605 -0.7235  2.1548 -2.6544
12069SOL     OW37945   9.055   4.292   3.564  0.5205  0.2275 -0.6032
12069SOL    HW137946   8.992   4.243   3.617  2.6063  0.4154  2.2736
12069SOL    HW237947   9.001   4.355   3.515 -1.5337  1.0998  2.4958
12070SOL     OW37948   4.051   1.961   1.887 -0.2356 -0.4603 -0.4555
12070SOL    HW137949   4.040   2.022   1.959 -3.6263 -1.6890  0.2594
12070SOL    HW237950   4.141   1.930   1.895  0.5076  1.8632  1.1921
12071SOL     OW37951   5.623   6.340   6.723  0.1308  1.0215  0.4241
12071SOL    HW137952   5.575   6.313   6.802  0.2525 -2.0740 -0.4311
12071SOL    HW237953   5.689   6.272   6.711  1.3360  2.4103 -1.3523
12072SOL     OW37954   8.528   9.146   4.184  0.3035 -0.1641  0.2962
12072SOL    HW137955   8.552   9.163   4.275 -0.6247  0.1215  0.5046
12072SOL    HW237956   8.572   9.065   4.161  0.7657 -0.0898  0.9132
12073SOL     OW37957   1.462   1.529   8.896 -0.1745  0.7755  0.1592
12073SOL    HW137958   1.478   1.599   8.833  1.0012  0.1229 -0.3019
12073SOL    HW237959   1.540   1.473   8.891 -1.6131 -1.3065 -0.4292
12074SOL     OW37960   5.661   4.851   7.221  0.2596 -0.2595 -0.0025
12074SOL    HW137961   5.624   4.852   7.133  0.8761  0.6876 -0.2696
12074SOL    HW237962   5.602   4.795   7.272 -0.4636 -0.2923 -0.8565
12075SOL     OW37963   3.615   0.265   6.199 -0.3927 -0.2125  0.6259
12075SOL    HW137964   3.583   0.248   6.288  1.1170  1.3096  1.5143
12075SOL    HW237965   3.709   0.277   6.209 -0.1229 -0.4903 -1.2789
12076SOL     OW37966   1.657   1.994   1.102  0.4801  0.2575  0.7343
12076SOL    HW137967   1.612   2.050   1.038  0.1078 -0.6018  0.2178
12076SOL    HW237968   1.747   2.025   1.103  0.5552  0.1293 -0.4199
12077SOL     OW37969   2.364   6.405   6.351 -0.4222  0.2880 -0.0663
12077SOL    HW137970   2.278   6.380   6.317 -0.4085  1.8530 -1.3661
12077SOL    HW237971   2.422   6.335   6.322 -1.0112 -0.0650 -0.4242
12078SOL     OW37972   5.819   3.193   4.949 -0.5168  0.3155 -0.1997
12078SOL    HW137973   5.795   3.268   5.003  0.9955  0.2831  0.5666
12078SOL    HW237974   5.836   3.123   5.011  0.3554  0.0054 -0.7715
12079SOL     OW37975   5.882   2.946   9.360 -0.1050 -0.3697  0.2053
12079SOL    HW137976   5.791   2.915   9.355  0.5355 -2.1649 -1.9467
12079SOL    HW237977   5.883   3.005   9.435 -2.8382 -0.9880  0.8398
12080SOL     OW37978   7.761   0.044   3.368 -0.7365  0.3298 -0.0709
12080SOL    HW137979   7.809  -0.036   3.390  1.1273  1.1603 -0.8747
12080SOL    HW237980   7.669   0.021   3.382 -0.5649 -2.8582 -2.7645
12081SOL     OW37981   5.559   7.373   9.311  0.6051  0.6214 -0.1119
12081SOL    HW137982   5.469   7.397   9.289  0.3394  1.8072  2.0555
12081SOL    HW237983   5.609   7.395   9.232 -0.8499  0.8340 -1.0141
12082SOL     OW37984   7.791   2.991   0.262  0.6374 -0.5543 -0.0094
12082SOL    HW137985   7.759   2.903   0.280 -0.8798 -0.4702 -1.9303
12082SOL    HW237986   7.853   2.980   0.190  1.0714 -0.1271  0.2913
12083SOL     OW37987   1.921   9.366   8.576 -0.2397  0.2652  0.0850
12083SOL    HW137988   2.008   9.326   8.570  0.3849  1.4724  0.6696
12083SOL    HW237989   1.893   9.349   8.666  0.6428  2.2793  0.7875
12084SOL     OW37990   6.452   4.565   7.080 -0.1388 -0.4764  0.1225
12084SOL    HW137991   6.490   4.540   7.164 -0.4827  1.1491  0.7953
12084SOL    HW237992   6.491   4.651   7.061 -1.0165 -0.2570 -0.7548
12085SOL     OW37993   0.226   3.923   4.456  0.1660  0.0802  0.3977
12085SOL    HW137994   0.278   3.864   4.401 -1.0341 -0.5349 -0.0933
12085SOL    HW237995   0.276   3.929   4.538  2.7879  2.1716 -1.1395
12086SOL     OW37996   4.870   5.537   9.593 -0.2226 -0.3281  0.1565
12086SOL    HW137997   4.854   5.456   9.545  1.0303  0.1277 -1.0990
12086SOL    HW237998   4.965   5.539   9.604 -0.2268  1.0539  0.0350
12087SOL     OW37999   4.286   3.475   7.879  0.1513  0.4968  0.3564
12087SOL    HW138000   4.376   3.468   7.910  0.1288  1.4284  0.6696
12087SOL    HW238001   4.236   3.499   7.957 -0.4763 -0.6733  0.3269
12088SOL     OW38002   1.930   1.776   0.646 -0.2869 -0.2549 -0.0794
12088SOL    HW138003   1.867   1.834   0.690 -0.0120 -0.9020  1.2200
12088SOL    HW238004   1.937   1.811   0.557 -0.1534  1.6958  0.6559
12089SOL     OW38005   8.354   2.828   4.240 -0.4065 -0.3148  0.1820
12089SOL    HW138006   8.355   2.886   4.164  0.4632 -0.6102 -0.0454
12089SOL    HW238007   8.267   2.788   4.239 -1.3494  1.5908  0.8272
12090SOL     OW38008   0.401   2.070   4.913  0.2458 -0.3855 -0.3441
12090SOL    HW138009   0.454   2.109   4.983 -0.5283 -0.8564  0.5381
12090SOL    HW238010   0.358   2.145   4.871  0.4189 -0.1221 -0.0535
12091SOL     OW38011   4.303   1.097   6.979 -0.2380  0.1113 -0.0196
12091SOL    HW138012   4.300   1.170   7.041  0.2331 -1.6248  2.1774
12091SOL    HW238013   4.359   1.128   6.908  0.0579  1.8185  0.9074
12092SOL     OW38014   0.323   3.412   4.986  0.2225 -0.2364 -0.2207
12092SOL    HW138015   0.319   3.449   4.897  0.4205 -0.7141 -0.4344
12092SOL    HW238016   0.252   3.347   4.988  1.0283 -1.1638 -0.4803
12093SOL     OW38017   7.825   2.759   1.113 -0.6002  0.0126  0.0813
12093SOL    HW138018   7.756   2.796   1.058  0.0979  0.6723 -0.3677
12093SOL    HW238019   7.873   2.700   1.055 -0.9200 -0.6158  0.4507
12094SOL     OW38020   3.241   3.915   2.793  0.0976 -0.2273  0.1268
12094SOL    HW138021   3.285   3.832   2.810 -0.7304 -0.8606 -0.7593
12094SOL    HW238022   3.276   3.945   2.709 -0.9914 -0.6479 -0.4976
12095SOL     OW38023   3.769   9.498   3.598  0.2392 -0.6090  0.2643
12095SOL    HW138024   3.689   9.447   3.609  0.2893 -0.9375 -0.8072
12095SOL    HW238025   3.805   9.506   3.687 -1.4867  0.4016  0.9201
12096SOL     OW38026   5.264   2.671   7.583  0.4732 -0.7431  0.2189
12096SOL    HW138027   5.275   2.728   7.507  0.5377 -0.4668  0.4355
12096SOL    HW238028   5.204   2.603   7.553 -1.8032  0.9027  0.7186
12097SOL     OW38029   1.538   8.684   7.995  0.3431 -0.6477  0.1688
12097SOL    HW138030   1.522   8.699   8.088 -1.6578 -0.1956 -0.2050
12097SOL    HW238031   1.571   8.594   7.991  0.5587 -0.6347  1.3149
12098SOL     OW38032   6.763   5.618   3.257 -0.1949  0.3654  0.2331
12098SOL    HW138033   6.702   5.547   3.272  1.7501 -1.6637 -0.8210
12098SOL    HW238034   6.710   5.689   3.220 -2.0513 -0.8337  0.4858
12099SOL     OW38035   7.015   0.628   0.261  0.1851  0.1005  0.0063
12099SOL    HW138036   6.989   0.677   0.339  0.0133  0.8329 -0.5056
12099SOL    HW238037   7.110   0.616   0.271  0.2823  0.8299 -0.0255
12100SOL     OW38038   3.149   3.059   6.124 -0.2992  0.2520 -1.0113
12100SOL    HW138039   3.152   3.046   6.219 -0.7700 -0.3018 -1.0642
12100SOL    HW238040   3.059   3.035   6.100  0.4137 -1.7433 -1.8892
12101SOL     OW38041   6.458   5.120   7.668  0.0138 -0.2069  0.3413
12101SOL    HW138042   6.491   5.188   7.609 -0.8082  0.8416  1.0617
12101SOL    HW238043   6.427   5.051   7.609  0.3997  0.2551 -0.4188
12102SOL     OW38044   2.012   2.346   6.109 -0.2054  0.2299 -0.1833
12102SOL    HW138045   1.935   2.295   6.084 -1.3397  1.5528  0.4359
12102SOL    HW238046   2.039   2.390   6.028  0.4228 -0.8608 -0.5862
12103SOL     OW38047   4.141   7.151   5.599  0.2687 -0.0115 -0.0284
12103SOL    HW138048   4.173   7.079   5.545  1.8015 -0.3417  1.2413
12103SOL    HW238049   4.176   7.230   5.557 -0.6101 -0.0490 -0.8736
12104SOL     OW38050   6.712   4.656   4.751 -0.0340 -0.2647  0.1932
12104SOL    HW138051   6.663   4.618   4.824  0.8155 -0.6487  0.5779
12104SOL    HW238052   6.697   4.596   4.678  0.1159 -0.5384  0.3893
12105SOL     OW38053   0.568   4.695   9.037  0.2487  0.0484 -0.2489
12105SOL    HW138054   0.504   4.625   9.025  1.8927 -1.5096 -0.2067
12105SOL    HW238055   0.648   4.662   8.998  1.5811  1.1389  1.4071
12106SOL     OW38056   1.081   7.866   8.521 -0.0398  0.6753  0.7877
12106SOL    HW138057   1.138   7.793   8.547 -1.3161 -1.8154 -2.6342
12106SOL    HW238058   1.133   7.915   8.458 -0.9923 -0.6782 -1.1427
12107SOL     OW38059   7.542   2.381   6.026  0.0620 -0.3677 -0.0024
12107SOL    HW138060   7.625   2.423   6.049  0.1111 -0.4220 -0.0808
12107SOL    HW238061   7.494   2.448   5.978  0.1322 -0.3951 -0.1097
12108SOL     OW38062   9.170   1.932   0.392 -0.4172  0.4252  0.0257
12108SOL    HW138063   9.137   2.020   0.372 -0.4592  0.1347 -1.2704
12108SOL    HW238064   9.217   1.942   0.475 -1.0040  1.5212  0.2419
12109SOL     OW38065   7.303   3.311   5.431 -0.8467 -0.0395 -1.0644
12109SOL    HW138066   7.385   3.297   5.382 -0.5258 -0.4190 -0.4332
12109SOL    HW238067   7.324   3.284   5.520 -1.0628  1.8181 -0.4108
12110SOL     OW38068   3.824   4.436   5.364 -0.3627  0.0377  0.1496
12110SOL    HW138069   3.742   4.449   5.412 -0.3097  3.0214 -0.4092
12110SOL    HW238070   3.823   4.504   5.297  0.0928 -3.1448 -3.4716
12111SOL     OW38071   0.917   8.682   2.552  0.0306  0.3972 -0.4558
12111SOL    HW138072   0.963   8.693   2.469 -1.6267 -0.0499 -1.4742
12111SOL    HW238073   0.935   8.591   2.577  1.1365  0.7471  0.0836
12112SOL     OW38074   5.156   9.535   1.851 -0.4969 -0.6651  0.2335
12112SOL    HW138075   5.220   9.601   1.875 -0.6566 -0.2482 -0.4894
12112SOL    HW238076   5.204   9.472   1.798 -0.3208 -1.1985  1.0015
12113SOL     OW38077   1.120   0.156   8.205 -0.3050  0.0586  0.6220
12113SOL    HW138078   1.171   0.076   8.190 -2.5345 -1.2883 -0.4785
12113SOL    HW238079   1.071   0.137   8.285 -0.8562  0.2936  0.3442
12114SOL     OW38080   2.730   8.053   4.280  0.0899 -0.4509  0.1192
12114SOL    HW138081   2.813   8.039   4.325  1.9724  1.7295 -2.3152
12114SOL    HW238082   2.722   8.148   4.272 -1.1573 -0.6700 -2.2208
12115SOL     OW38083   6.439   3.926   9.134  0.1844 -0.1338 -0.4250
12115SOL    HW138084   6.394   3.843   9.146 -0.1966  0.1762  0.3318
12115SOL    HW238085   6.370   3.992   9.139  0.8664  0.5290  2.8859
12116SOL     OW38086   4.487   4.208   6.707 -0.2274  0.1181 -0.3546
12116SOL    HW138087   4.468   4.279   6.768  2.0646  0.6384 -0.1493
12116SOL    HW238088   4.486   4.249   6.621  1.6226  0.6019 -0.1965
12117SOL     OW38089   8.644   9.416   1.845 -0.1572 -0.0011  0.4260
12117SOL    HW138090   8.568   9.434   1.790  0.9773 -0.3921 -1.3582
12117SOL    HW238091   8.609   9.413   1.934 -2.2649 -0.4938 -0.3538
12118SOL     OW38092   9.300   4.370   1.276  0.7047  0.5772  0.1400
12118SOL    HW138093   9.262   4.292   1.235  0.3682  0.0246  1.4471
12118SOL    HW238094   9.316   4.344   1.367  0.8534  1.9524  0.5313
12119SOL     OW38095   5.184   0.552   7.588 -0.2150  0.2360 -0.0451
12119SOL    HW138096   5.106   0.589   7.546  0.6690  0.5670 -1.4606
12119SOL    HW238097   5.255   0.571   7.527  0.7873 -1.0935  0.6642
12120SOL     OW38098   4.568   6.273   2.876 -0.3763  0.0533 -0.0458
12120SOL    HW138099   4.474   6.265   2.860 -0.6705  2.2392  0.2859
12120SOL    HW238100   4.591   6.360   2.845  0.8254  0.9328  2.9327
12121SOL     OW38101   4.778   7.343   1.053  0.3920  0.5770  0.1656
12121SOL    HW138102   4.835   7.296   1.114 -0.9703  0.3831  1.3480
12121SOL    HW238103   4.796   7.435   1.070  2.1009  0.5510 -1.2200
12122SOL     OW38104   5.117   3.368   5.518 -0.2194 -0.2002 -0.4758
12122SOL    HW138105   5.098   3.346   5.427  0.6755  0.5005 -0.8493
12122SOL    HW238106   5.134   3.283   5.560 -0.3765 -0.5087 -1.0289
12123SOL     OW38107   9.543   3.329   1.466 -0.0408  0.8608  0.7867
12123SOL    HW138108   9.514   3.331   1.558  0.9847  0.7515  1.1215
12123SOL    HW238109   9.610   3.397   1.461  1.1547 -0.3182  0.5440
12124SOL     OW38110   0.199   1.465   3.568 -0.2381 -0.3764 -0.0370
12124SOL    HW138111   0.228   1.490   3.480 -0.8341 -0.6560 -0.3213
12124SOL    HW238112   0.106   1.446   3.558 -0.5388  0.5188  0.8590
12125SOL     OW38113   3.688   2.574   0.933  0.2030 -0.6301 -0.6566
12125SOL    HW138114   3.604   2.576   0.886 -0.3890  3.1735  0.2529
12125SOL    HW238115   3.663   2.563   1.025  0.7827 -0.4044 -0.4715
12126SOL     OW38116   8.710   7.090   9.482  0.4129 -0.2948 -0.0238
12126SOL    HW138117   8.771   7.034   9.531 -0.0483 -1.3368 -0.6254
12126SOL    HW238118   8.744   7.090   9.393 -0.3452 -0.7246 -0.3204
12127SOL     OW38119   1.643   8.429   5.617  0.5387 -0.6999  0.0916
12127SOL    HW138120   1.706   8.419   5.546 -0.8588 -2.7386 -0.9756
12127SOL    HW238121   1.623   8.339   5.644 -1.3726 -0.1090  0.8343
12128SOL     OW38122   0.121   8.967   8.641  0.0138 -0.0626 -0.4450
12128SOL    HW138123   0.122   9.041   8.702 -0.0151  0.8721 -1.5514
12128SOL    HW238124   0.121   9.007   8.554 -0.1624 -1.3663 -1.0722
12129SOL     OW38125   1.832   8.256   7.822  0.3503 -0.1509  0.2485
12129SOL    HW138126   1.777   8.208   7.760 -0.3302 -0.7064  1.2630
12129SOL    HW238127   1.914   8.207   7.824  0.0702 -0.6199  0.4068
12130SOL     OW38128   2.708   0.837   6.638  0.2412 -0.5156 -0.0843
12130SOL    HW138129   2.721   0.873   6.725  1.7687 -0.4366 -0.3084
12130SOL    HW238130   2.624   0.791   6.642 -1.0918  1.8484  0.6033
12131SOL     OW38131   5.245   7.141   1.429  0.1523  0.2569 -0.1580
12131SOL    HW138132   5.210   7.114   1.344  0.8400 -0.2018 -0.3035
12131SOL    HW238133   5.316   7.202   1.408  0.4500 -0.0025  0.0754
12132SOL     OW38134   2.969   7.618   5.700 -0.1464  0.1872 -0.0929
12132SOL    HW138135   2.892   7.637   5.646  0.4715 -2.0294 -1.9192
12132SOL    HW238136   3.039   7.670   5.660 -0.6581  2.4373  1.7502
12133SOL     OW38137   7.516   2.734   9.300 -0.2539  0.3252 -0.1905
12133SOL    HW138138   7.527   2.814   9.353  1.0503  0.1097 -0.0921
12133SOL    HW238139   7.464   2.763   9.225 -1.2190  0.8809  0.6599
12134SOL     OW38140   4.473   3.367   6.756 -0.1418  0.1676 -0.7136
12134SOL    HW138141   4.512   3.445   6.795 -2.0619  0.5930  0.4765
12134SOL    HW238142   4.512   3.294   6.804 -2.2912  0.6701  1.9847
12135SOL     OW38143   0.094   3.807   1.042 -0.1090  0.0339  0.1033
12135SOL    HW138144   0.048   3.859   0.976  0.4602  1.4197  0.7479
12135SOL    HW238145   0.035   3.807   1.117 -0.1607 -0.3837  0.0671
12136SOL     OW38146   8.004   6.365   3.464 -0.1763 -0.3745 -0.1704
12136SOL    HW138147   7.925   6.393   3.418 -0.4106 -1.4829 -0.4846
12136SOL    HW238148   7.982   6.372   3.557  0.5662  2.6469 -0.1316
12137SOL     OW38149   0.304   7.141   4.146 -0.1501 -0.1728 -0.3190
12137SOL    HW138150   0.224   7.191   4.163  0.3829  0.8511 -0.7240
12137SOL    HW238151   0.281   7.082   4.074 -0.2660  0.8698 -1.1713
12138SOL     OW38152   0.027   4.401   5.086 -0.2747  0.4743 -0.0302
12138SOL    HW138153  -0.042   4.334   5.084 -1.6886  1.8926 -0.1277
12138SOL    HW238154   0.057   4.401   5.177 -1.0204  0.4675  0.2199
12139SOL     OW38155   5.486   3.031   4.434  0.0361  0.0885 -0.6826
12139SOL    HW138156   5.502   2.975   4.358 -0.5347 -0.0415 -0.7169
12139SOL    HW238157   5.410   2.991   4.477 -0.9000  1.2878 -1.1622
12140SOL     OW38158   0.163   1.238   7.757  0.3201  0.1764 -0.3273
12140SOL    HW138159   0.203   1.325   7.766  0.4117  0.2114 -1.0265
12140SOL    HW238160   0.093   1.250   7.694  0.1834 -0.2119 -0.2533
12141SOL     OW38161   0.175   6.155   9.256 -0.2262  0.2949  0.0799
12141SOL    HW138162   0.136   6.201   9.331 -1.0244 -1.5062  0.8296
12141SOL    HW238163   0.108   6.092   9.229  0.9694 -0.6998 -0.6459
12142SOL     OW38164   8.212   5.819   3.163 -0.5577 -0.4672  0.5125
12142SOL    HW138165   8.249   5.868   3.089 -1.1019  0.6003  0.9319
12142SOL    HW238166   8.137   5.773   3.127 -0.5607 -0.3029  0.3106
12143SOL     OW38167   0.479   2.429   6.139 -0.5291  0.3128 -0.6009
12143SOL    HW138168   0.495   2.407   6.230 -0.4215  1.3423 -0.3553
12143SOL    HW238169   0.556   2.398   6.092  0.0437  0.9962 -0.1278
12144SOL     OW38170   3.648   6.022   9.127 -0.0834 -0.1351  0.3473
12144SOL    HW138171   3.656   5.942   9.177 -2.2270 -0.8600 -0.3450
12144SOL    HW238172   3.643   5.994   9.035  0.3873  0.8785 -0.0103
12145SOL     OW38173   4.875   9.332   8.236  0.1512 -0.4093 -0.0468
12145SOL    HW138174   4.925   9.392   8.293  0.3153  0.9798 -1.5963
12145SOL    HW238175   4.792   9.321   8.281 -0.2386  1.7389 -0.1162
12146SOL     OW38176   6.042   8.953   1.524 -0.2173 -0.4152 -0.0750
12146SOL    HW138177   6.041   8.947   1.429 -0.8075 -0.0349 -0.0956
12146SOL    HW238178   6.096   9.029   1.543 -2.2720  1.1690 -0.2171
12147SOL     OW38179   3.096   3.198   0.915 -0.1677 -0.0792 -0.0883
12147SOL    HW138180   3.131   3.218   0.828  1.4396  2.2455  0.9801
12147SOL    HW238181   3.028   3.264   0.929 -0.3372 -0.3659  0.4649
12148SOL     OW38182   7.640   7.221   0.963  0.1297 -0.2393  0.1391
12148SOL    HW138183   7.592   7.260   1.036  0.2988 -0.1630  0.2094
12148SOL    HW238184   7.573   7.174   0.913 -0.2314  0.8595 -0.4371
12149SOL     OW38185   8.264   8.248   6.914  0.1649 -0.2235  0.3262
12149SOL    HW138186   8.213   8.266   6.994 -1.1708  0.4578 -0.6433
12149SOL    HW238187   8.270   8.333   6.870  0.6634 -0.6453 -0.4274
12150SOL     OW38188   5.531   8.852   3.794  0.5263 -0.0193 -0.2624
12150SOL    HW138189   5.601   8.909   3.763  0.2261  1.7314  2.0343
12150SOL    HW238190   5.466   8.854   3.724  0.7058  2.1765 -0.4315
12151SOL     OW38191   8.162   3.960   4.889  0.3275  0.0380 -0.3609
12151SOL    HW138192   8.214   3.892   4.933 -0.5124 -0.0197  0.5906
12151SOL    HW238193   8.227   4.015   4.845  1.0811 -0.9212 -0.5079
12152SOL     OW38194   7.579   8.237   6.452  0.0044 -0.4334  0.1067
12152SOL    HW138195   7.512   8.172   6.430 -1.2756  0.0438  2.2527
12152SOL    HW238196   7.594   8.286   6.371 -1.6967 -1.0448 -0.6105
12153SOL     OW38197   1.806   2.991   6.434 -0.1994 -0.0037 -0.0844
12153SOL    HW138198   1.735   2.957   6.380  2.1638 -1.7448 -2.3367
12153SOL    HW238199   1.848   2.913   6.470  0.8137  0.9765  0.9426
12154SOL     OW38200   1.343   6.056   6.884 -0.1139  0.0912 -0.2378
12154SOL    HW138201   1.427   6.097   6.865 -0.4250  0.9853  0.2659
12154SOL    HW238202   1.366   5.966   6.907  0.7788  0.5003  0.5525
12155SOL     OW38203   1.203   8.898   2.822 -0.1103 -0.2299 -0.1853
12155SOL    HW138204   1.164   8.893   2.910 -2.0866  2.1532 -0.7856
12155SOL    HW238205   1.291   8.862   2.832  0.0078  0.6370  2.9678
12156SOL     OW38206   0.551   4.129   3.328 -0.0207 -0.0828 -0.3471
12156SOL    HW138207   0.612   4.074   3.377 -0.5248  0.1960  0.6280
12156SOL    HW238208   0.530   4.200   3.389 -1.3657 -0.2115 -0.6327
12157SOL     OW38209   7.495   7.421   7.539  0.0044 -0.0093  0.5204
12157SOL    HW138210   7.564   7.355   7.541  0.5384  0.4422 -1.6584
12157SOL    HW238211   7.472   7.430   7.447 -0.9065  1.9981  0.8959
12158SOL     OW38212   5.462   7.279   6.621  0.2155 -0.2390 -0.0737
12158SOL    HW138213   5.460   7.194   6.666 -0.6063 -0.4409 -0.4830
12158SOL    HW238214   5.494   7.340   6.688 -2.0021 -0.3209  1.1688
12159SOL     OW38215   0.445   3.063   7.134  0.1622  0.1290 -0.6747
12159SOL    HW138216   0.508   2.995   7.158  0.4389  0.8198  0.6420
12159SOL    HW238217   0.364   3.016   7.116  0.4324 -0.5816 -0.0678
12160SOL     OW38218   0.645   8.568   6.393  0.0569  0.2870 -0.0865
12160SOL    HW138219   0.694   8.604   6.468  1.7498 -0.4277 -0.7866
12160SOL    HW238220   0.615   8.645   6.345  3.4743  0.9699 -1.4813
12161SOL     OW38221   8.172   3.310   7.927  0.0476  0.4717  0.1533
12161SOL    HW138222   8.218   3.297   8.010  2.3380 -0.5758 -1.1806
12161SOL    HW238223   8.079   3.300   7.949  0.6808 -1.9213  2.2310
12162SOL     OW38224   6.106   4.416   0.039 -0.0038 -0.6706 -1.0424
12162SOL    HW138225   6.049   4.476   0.087 -1.4091 -1.7235 -1.3280
12162SOL    HW238226   6.130   4.349   0.102  1.9617  0.3677 -0.5880
12163SOL     OW38227   6.704   0.747   9.483 -0.2834 -0.0703  0.3885
12163SOL    HW138228   6.782   0.742   9.538  1.8178  1.6112 -2.2087
12163SOL    HW238229   6.677   0.655   9.472 -0.4405 -0.5238  3.5280
12164SOL     OW38230   8.778   6.199   1.282 -0.0294  0.2402 -0.4805
12164SOL    HW138231   8.741   6.125   1.235 -1.0144 -0.7809  1.7479
12164SOL    HW238232   8.705   6.259   1.295  0.4905  1.0661 -1.2096
12165SOL     OW38233   0.677   7.933   5.574 -0.1058  0.5155 -0.0954
12165SOL    HW138234   0.671   7.873   5.500  0.1810  0.4907 -0.0999
12165SOL    HW238235   0.737   8.002   5.545  0.0708  0.4633  0.1424
12166SOL     OW38236   2.656   5.936   6.359 -0.1427 -0.1571 -0.1625
12166SOL    HW138237   2.567   5.971   6.364 -0.2563 -0.3455 -0.8619
12166SOL    HW238238   2.681   5.922   6.451 -0.7095  0.1979  0.0514
12167SOL     OW38239   1.511   2.370   8.687  0.0356  0.3500  0.1226
12167SOL    HW138240   1.526   2.447   8.742 -1.3708  0.5222  0.3139
12167SOL    HW238241   1.562   2.300   8.728  0.7838  1.0108  0.3391
12168SOL     OW38242   6.687   9.513   8.132  0.6783 -0.4916  0.3100
12168SOL    HW138243   6.776   9.539   8.158  0.2282  0.1099  1.2710
12168SOL    HW238244   6.693   9.419   8.117  0.8900 -0.9921  3.0218
12169SOL     OW38245   3.999   5.476   9.053 -0.3086  0.2355  0.4906
12169SOL    HW138246   4.009   5.570   9.070 -1.9949  0.9344 -1.8999
12169SOL    HW238247   4.081   5.450   9.011 -0.3073  0.9464  0.0409
12170SOL     OW38248   7.290   1.268   4.230  0.4084  0.1455  0.1351
12170SOL    HW138249   7.246   1.354   4.224  0.1179 -0.0777 -1.2442
12170SOL    HW238250   7.361   1.273   4.167  1.3043 -0.1375  1.0914
12171SOL     OW38251   2.934   2.961   5.096 -0.1353 -0.1779 -0.4327
12171SOL    HW138252   3.002   2.982   5.032  0.9242 -0.9526  0.4075
12171SOL    HW238253   2.955   3.015   5.173 -0.8050 -0.0075 -0.3597
12172SOL     OW38254   3.257   5.535   2.383  0.1883 -0.6841  0.1890
12172SOL    HW138255   3.180   5.494   2.423 -0.0325  0.0803  0.5657
12172SOL    HW238256   3.228   5.623   2.362  0.8365 -0.5348 -0.0711
12173SOL     OW38257   2.859   2.038   0.726 -0.1111 -0.1644 -0.5600
12173SOL    HW138258   2.853   2.061   0.819  0.6368  2.8284 -1.1277
12173SOL    HW238259   2.783   1.982   0.710  0.1574 -1.4058  1.9694
12174SOL     OW38260   7.359   2.621   7.205  0.0724 -0.2891  0.0281
12174SOL    HW138261   7.299   2.668   7.263 -0.7451  0.1539 -1.1177
12174SOL    HW238262   7.329   2.530   7.209 -0.6802 -0.0756 -0.5136
12175SOL     OW38263   1.049   6.419   1.213 -0.1437  0.9308  0.0878
12175SOL    HW138264   1.120   6.377   1.164 -2.2700 -0.9497 -1.6089
12175SOL    HW238265   1.079   6.417   1.304  1.4941 -0.8878 -0.4159
12176SOL     OW38266   5.742   6.303   1.192 -0.1523  0.4315 -0.1995
12176SOL    HW138267   5.779   6.361   1.259 -0.0654  0.7529 -0.5253
12176SOL    HW238268   5.809   6.236   1.180 -0.0258  0.5550 -0.1968
12177SOL     OW38269   2.613   3.510   4.938 -0.2119  0.1224  0.3021
12177SOL    HW138270   2.602   3.490   5.031  0.9115 -1.8534  0.0703
12177SOL    HW238271   2.612   3.605   4.934 -0.7333  0.2488  2.2782
12178SOL     OW38272   3.505   7.999   0.021  0.4936 -0.3923 -0.1662
12178SOL    HW138273   3.577   8.034   0.073  0.1827 -0.6405  0.4494
12178SOL    HW238274   3.488   8.066  -0.045  0.9004 -0.0678  0.0513
12179SOL     OW38275   6.794   0.538   5.089 -0.7786 -0.4227  0.3273
12179SOL    HW138276   6.741   0.585   5.026  0.9471  2.0601  0.5627
12179SOL    HW238277   6.800   0.597   5.164  2.4526 -0.3928  0.1977
12180SOL     OW38278   7.687   4.097   6.632 -0.1405  0.6350  0.7471
12180SOL    HW138279   7.675   4.103   6.726 -2.3139  2.3133  0.4271
12180SOL    HW238280   7.680   4.003   6.613 -2.9597  0.5239  1.9318
12181SOL     OW38281   4.737   0.205   0.036 -0.8627 -0.1926 -0.4807
12181SOL    HW138282   4.735   0.287  -0.013 -1.1867 -0.4990 -0.9932
12181SOL    HW238283   4.796   0.149  -0.014 -1.0367 -0.4424 -0.4040
12182SOL     OW38284   9.554   9.008   8.944  0.3091 -0.1694 -0.3464
12182SOL    HW138285   9.622   9.064   8.908  0.6925  0.7328  1.6729
12182SOL    HW238286   9.478   9.065   8.955  0.6107 -0.0669  1.4618
12183SOL     OW38287   7.856   3.997   3.384  0.2642 -0.2171 -0.0548
12183SOL    HW138288   7.898   3.914   3.403  1.1978  0.5139  1.2660
12183SOL    HW238289   7.866   4.048   3.464 -0.7110  1.0006 -0.6628
12184SOL     OW38290   9.469   3.397   0.664 -0.5803  0.2997 -0.0599
12184SOL    HW138291   9.438   3.426   0.579 -1.8026  0.7114  0.5067
12184SOL    HW238292   9.516   3.472   0.700  1.0458 -0.2844 -0.8670
12185SOL     OW38293   8.545   9.306   4.748 -0.4073 -0.2069 -0.4217
12185SOL    HW138294   8.532   9.234   4.810  0.7102  0.0900  0.1719
12185SOL    HW238295   8.627   9.285   4.704  0.2955  1.0155  0.2354
12186SOL     OW38296   7.160   8.599   1.900 -0.2942 -0.0120 -0.1207
12186SOL    HW138297   7.229   8.535   1.882  1.9816  2.3957 -0.6170
12186SOL    HW238298   7.115   8.610   1.816 -0.6131 -0.8494 -0.0619
12187SOL     OW38299   5.505   3.586   4.174  0.2613 -0.0095  0.4612
12187SOL    HW138300   5.497   3.509   4.118  1.3802  0.3262 -0.2046
12187SOL    HW238301   5.526   3.657   4.114 -1.0639  0.8970  1.0279
12188SOL     OW38302   4.263   8.169   5.273 -0.3960  0.3092 -0.6442
12188SOL    HW138303   4.338   8.174   5.333 -1.5447 -0.1568  0.8729
12188SOL    HW238304   4.297   8.121   5.197  0.5212 -1.0828  0.5839
12189SOL     OW38305   3.415   1.373   1.060  0.2899  0.2143  0.5576
12189SOL    HW138306   3.332   1.373   1.011 -0.0437  1.5217  1.0973
12189SOL    HW238307   3.391   1.348   1.149  0.6643 -0.5785  0.4463
12190SOL     OW38308   4.552   3.837   0.246 -0.2230  0.0844  0.0175
12190SOL    HW138309   4.647   3.839   0.255 -0.1980 -0.8401  0.0931
12190SOL    HW238310   4.536   3.827   0.153 -0.1808 -1.7023  0.1749
12191SOL     OW38311   5.134   2.960   1.201  0.1587 -0.6957  0.1654
12191SOL    HW138312   5.113   3.014   1.124  3.5983  0.5738 -0.0781
12191SOL    HW238313   5.108   3.013   1.276  1.3044  0.2875 -0.1101
12192SOL     OW38314   1.173   3.447   5.352  0.0359  0.5944  0.4572
12192SOL    HW138315   1.218   3.458   5.268 -1.6305  0.1262 -0.5404
12192SOL    HW238316   1.088   3.490   5.339  0.2304  1.6287  2.3400
12193SOL     OW38317   5.113   7.604   4.757 -0.5423  0.3010  0.2606
12193SOL    HW138318   5.061   7.663   4.702 -1.5293 -1.9141 -1.3711
12193SOL    HW238319   5.202   7.613   4.723 -0.8539  0.1827 -0.6325
12194SOL     OW38320   3.499   0.597   8.563  0.2856 -0.8660  0.6681
12194SOL    HW138321   3.562   0.660   8.598 -1.2440  3.2794 -3.1588
12194SOL    HW238322   3.553   0.527   8.526  2.3395  0.3399  1.2400
12195SOL     OW38323   8.718   0.255   8.612  0.3009  0.2453  0.0388
12195SOL    HW138324   8.737   0.188   8.547 -1.1336  0.2730 -0.4490
12195SOL    HW238325   8.702   0.206   8.693  4.3987  0.3130  1.0982
12196SOL     OW38326   4.573   2.773   4.418  0.4278 -0.2263  0.1760
12196SOL    HW138327   4.576   2.689   4.463 -0.6943 -0.4623 -0.1534
12196SOL    HW238328   4.643   2.768   4.353  0.1337 -1.0591 -0.0936
12197SOL     OW38329   9.433   8.368   6.798  0.2248 -0.0463 -0.0308
12197SOL    HW138330   9.486   8.293   6.769 -0.7075 -0.7884  0.1482
12197SOL    HW238331   9.438   8.366   6.893  2.5837  1.8893 -0.0233
12198SOL     OW38332   8.885   8.017   9.080 -0.3994  0.2486 -0.3793
12198SOL    HW138333   8.823   7.981   9.017 -1.7397  1.1022  0.4101
12198SOL    HW238334   8.967   8.025   9.031 -0.8335 -1.0743 -1.3897
12199SOL     OW38335   3.483   9.058   8.360  0.1491 -0.0201  0.3056
12199SOL    HW138336   3.479   9.151   8.338 -0.8462  0.1300  1.0325
12199SOL    HW238337   3.392   9.035   8.379  0.2330 -1.4013 -0.8625
12200SOL     OW38338   3.467   0.545   9.337 -0.1874 -0.3893  0.5624
12200SOL    HW138339   3.378   0.555   9.371  0.1338 -0.1362  1.3815
12200SOL    HW238340   3.483   0.451   9.338 -1.3637 -0.6905 -2.1312
12201SOL     OW38341   5.532   6.521   2.745 -0.3839  0.2369  0.1991
12201SOL    HW138342   5.447   6.510   2.703  0.2218 -1.6657 -0.6048
12201SOL    HW238343   5.512   6.559   2.830 -1.9135  1.0486 -0.4893
12202SOL     OW38344   7.788   0.522   8.749  0.0674  0.0795 -0.3949
12202SOL    HW138345   7.795   0.606   8.794  0.1889  0.3937 -0.9944
12202SOL    HW238346   7.750   0.544   8.663  1.6510 -0.2445 -1.2169
12203SOL     OW38347   1.688   0.312   7.131  0.0548 -0.0311 -0.0216
12203SOL    HW138348   1.716   0.347   7.046  1.3702 -1.7048 -0.3396
12203SOL    HW238349   1.761   0.331   7.190 -1.0469  1.5434  0.9057
12204SOL     OW38350   3.499   4.315   1.059 -0.5267 -0.4245  0.5182
12204SOL    HW138351   3.417   4.327   1.106  0.2961 -1.2751  2.3043
12204SOL    HW238352   3.550   4.394   1.079 -1.2976  0.6454 -1.5448
12205SOL     OW38353   9.051   6.618   2.232  0.3495  0.1207  0.3933
12205SOL    HW138354   9.091   6.545   2.184  1.1413  0.0947  1.0767
12205SOL    HW238355   9.114   6.689   2.226 -0.4691  0.8145 -0.3680
12206SOL     OW38356   3.903   5.670   2.482 -0.7987 -0.4091  0.3493
12206SOL    HW138357   3.898   5.576   2.495  0.9584 -0.5567  0.2734
12206SOL    HW238358   3.971   5.699   2.542  1.4758  0.1782 -2.2692
12207SOL     OW38359   0.800   7.991   4.110 -0.8552  1.0059  0.3527
12207SOL    HW138360   0.838   7.920   4.058 -0.6587  2.3491 -1.4431
12207SOL    HW238361   0.822   7.969   4.201  0.8175 -0.2570 -0.3010
12208SOL     OW38362   8.192   4.747   3.966 -0.5636  0.2344  0.2244
12208SOL    HW138363   8.208   4.805   4.041  1.3235  1.9758 -1.3757
12208SOL    HW238364   8.278   4.734   3.927 -1.3980 -1.1056 -1.3071
12209SOL     OW38365   8.357   7.913   3.174  0.0178 -0.2033 -0.5245
12209SOL    HW138366   8.316   7.838   3.216 -0.1763  1.3821  2.3172
12209SOL    HW238367   8.443   7.881   3.147 -0.5235 -1.7543 -0.5389
12210SOL     OW38368   9.505   9.592   6.139  0.1977 -0.4811  0.0180
12210SOL    HW138369   9.573   9.614   6.075 -0.1349 -2.1044 -0.9593
12210SOL    HW238370   9.426   9.634   6.105  0.2525 -0.4130 -0.0248
12211SOL     OW38371   2.682   2.080   1.522 -0.0134  0.1406 -0.0591
12211SOL    HW138372   2.772   2.099   1.548  0.2445  1.1559 -1.5892
12211SOL    HW238373   2.635   2.071   1.605  1.3673  0.1257  0.7625
12212SOL     OW38374   7.254   5.798   1.051  0.1748 -0.0128 -0.5778
12212SOL    HW138375   7.293   5.793   0.964 -0.4160  2.4280 -1.0687
12212SOL    HW238376   7.171   5.844   1.037 -1.6881 -2.6820  0.8047
12213SOL     OW38377   1.943   5.203   1.858  0.8111  0.2056 -1.1030
12213SOL    HW138378   1.943   5.139   1.787  0.5674 -0.2641 -0.6904
12213SOL    HW238379   1.866   5.258   1.841  2.0965  1.6747 -2.5603
12214SOL     OW38380   2.205   2.508   6.715 -0.1090  0.2364  0.8118
12214SOL    HW138381   2.176   2.451   6.644 -0.5307  0.2356  0.9836
12214SOL    HW238382   2.175   2.465   6.794  0.7459  0.0099  1.0201
12215SOL     OW38383   5.531   6.589   9.504  0.3457  0.0531  0.1332
12215SOL    HW138384   5.452   6.626   9.465 -0.2206 -0.5457  0.6728
12215SOL    HW238385   5.603   6.622   9.451 -0.2469  0.8481 -0.1888
12216SOL     OW38386   2.023   0.427   7.737  0.1748  0.3334  0.5297
12216SOL    HW138387   1.944   0.379   7.759 -1.1913  2.5684  0.8753
12216SOL    HW238388   2.090   0.360   7.725 -1.5749 -1.5911  0.9796
12217SOL     OW38389   6.631   1.157   7.469 -0.1817  0.0294 -0.3396
12217SOL    HW138390   6.547   1.112   7.459 -0.3111  0.4053 -1.0197
12217SOL    HW238391   6.618   1.220   7.539  0.3893 -1.8748  1.5880
12218SOL     OW38392   0.646   2.500   8.287  0.5373  0.4363  0.3538
12218SOL    HW138393   0.652   2.501   8.382  0.5126 -0.0017  0.3623
12218SOL    HW238394   0.700   2.425   8.261 -0.9876 -0.6355  0.1402
12219SOL     OW38395   6.636   8.591   5.320  0.2216 -0.2071 -0.0344
12219SOL    HW138396   6.664   8.545   5.241  1.0719  0.1358  0.0630
12219SOL    HW238397   6.711   8.644   5.345 -0.2660  0.1741  0.6474
12220SOL     OW38398   0.405   1.627   8.731 -0.7185  0.2016  0.0101
12220SOL    HW138399   0.375   1.599   8.644  0.9842 -0.6311 -0.3529
12220SOL    HW238400   0.438   1.716   8.717  0.1861 -0.1820 -0.3720
12221SOL     OW38401   7.054   3.479   0.856 -0.1368 -0.8672 -1.0060
12221SOL    HW138402   7.138   3.512   0.888 -0.0323  1.0150 -2.9967
12221SOL    HW238403   7.074   3.390   0.825  1.2568 -0.2916 -1.8713
12222SOL     OW38404   4.156   5.623   3.129 -0.4920  0.3102  0.5916
12222SOL    HW138405   4.084   5.627   3.192 -0.7413 -0.1718  0.3458
12222SOL    HW238406   4.230   5.590   3.181 -1.0794 -1.5271  0.3311
12223SOL     OW38407   4.471   4.505   4.195  0.3576 -0.6043 -0.2010
12223SOL    HW138408   4.497   4.498   4.103  1.6699  1.1557 -0.0355
12223SOL    HW238409   4.514   4.432   4.238  1.0037 -0.5707 -0.7639
12224SOL     OW38410   4.341   6.754   5.252 -0.7582  0.0451  0.2079
12224SOL    HW138411   4.436   6.753   5.251 -0.6691  1.1368  1.8215
12224SOL    HW238412   4.317   6.694   5.322 -1.3395 -1.1735 -1.0001
12225SOL     OW38413   4.401   8.833   7.523  0.1738  0.4251 -0.2201
12225SOL    HW138414   4.352   8.864   7.446  0.5028  0.6364 -0.3475
12225SOL    HW238415   4.493   8.853   7.503  0.1031  2.2289  1.0292
12226SOL     OW38416   4.070   7.607   4.127  0.0392 -0.0362  0.1072
12226SOL    HW138417   4.093   7.700   4.118  0.3716 -0.1339 -0.0663
12226SOL    HW238418   4.150   7.560   4.102 -0.6107 -0.4045 -1.4060
12227SOL     OW38419   2.426   1.651   2.569  0.0839  0.3431 -0.6281
12227SOL    HW138420   2.450   1.655   2.477  1.2791 -0.5596 -0.3824
12227SOL    HW238421   2.472   1.574   2.603 -1.1444  0.0575  0.4964
12228SOL     OW38422   7.216   4.151   2.529 -0.2547 -0.9485 -0.6590
12228SOL    HW138423   7.212   4.085   2.598 -0.1248 -1.4272 -1.0983
12228SOL    HW238424   7.249   4.104   2.453  1.4105 -0.0149 -0.5574
12229SOL     OW38425   9.374   8.951   1.503  0.5060 -0.4487 -0.0512
12229SOL    HW138426   9.360   8.858   1.520 -2.1056  0.0772  1.1221
12229SOL    HW238427   9.414   8.985   1.584 -0.2678 -0.2450  0.2581
12230SOL     OW38428   8.831   1.623   7.583 -0.3996  0.3727  0.2700
12230SOL    HW138429   8.791   1.673   7.654  0.9753  0.5412  0.9569
12230SOL    HW238430   8.855   1.539   7.623 -3.1374 -1.1526 -0.9809
12231SOL     OW38431   8.250   2.956   0.243  0.2030 -0.3347  0.2204
12231SOL    HW138432   8.239   2.874   0.195 -2.9608  0.1701 -0.1814
12231SOL    HW238433   8.339   2.953   0.276  2.3572 -1.1564 -4.7866
12232SOL     OW38434   1.315   8.592   0.224 -0.3014 -0.0255  0.4463
12232SOL    HW138435   1.268   8.633   0.152 -1.2303 -1.1847  0.3462
12232SOL    HW238436   1.399   8.637   0.228 -0.6311  0.7203 -0.7145
12233SOL     OW38437   8.642   4.626   4.635  0.2452 -0.1316 -0.3355
12233SOL    HW138438   8.588   4.578   4.573 -0.0410 -0.3920  0.1136
12233SOL    HW238439   8.642   4.572   4.714 -0.7394  0.9577  0.4555
12234SOL     OW38440   4.567   7.023   3.190  0.2434 -0.1343  0.2262
12234SOL    HW138441   4.522   6.994   3.111 -0.1972  1.7919 -0.2719
12234SOL    HW238442   4.653   7.053   3.159  0.4155 -0.2051  0.6258
12235SOL     OW38443   0.123   3.829   1.946  0.3734 -0.1970  0.0414
12235SOL    HW138444   0.036   3.839   1.908  0.1173  0.5405  0.7940
12235SOL    HW238445   0.120   3.880   2.027  1.8463  0.7583 -0.4670
12236SOL     OW38446   7.804   1.461   8.956  0.3046 -0.1624  0.3397
12236SOL    HW138447   7.742   1.512   8.903 -0.6463  0.4094  1.9149
12236SOL    HW238448   7.873   1.436   8.895  0.7886  2.9431 -0.5821
12237SOL     OW38449   2.628   8.507   2.538  0.3249  0.2776 -0.4504
12237SOL    HW138450   2.616   8.432   2.595  0.5703 -0.0305 -0.7964
12237SOL    HW238451   2.707   8.551   2.571  0.7571 -0.1835 -0.8495
12238SOL     OW38452   2.498   0.942   2.092  0.1978 -0.4731  0.8470
12238SOL    HW138453   2.564   0.944   2.160  2.3481  1.7581 -1.1301
12238SOL    HW238454   2.496   1.031   2.057 -1.3787 -1.3176 -1.4595
12239SOL     OW38455   0.576   0.337   2.736 -0.2390  0.4350 -0.2330
12239SOL    HW138456   0.617   0.251   2.743  0.1096  0.6158 -0.0127
12239SOL    HW238457   0.571   0.353   2.642  1.5500  1.0344 -0.2790
12240SOL     OW38458   1.054   5.295   5.459 -0.1750  0.2787 -0.5797
12240SOL    HW138459   0.958   5.290   5.464 -0.1488  0.4520  0.3325
12240SOL    HW238460   1.079   5.223   5.402 -0.6703 -1.6936  1.5440
12241SOL     OW38461   0.714   0.743   5.103  0.0822  0.3018  0.4276
12241SOL    HW138462   0.753   0.830   5.090  0.5010  0.0293 -0.1576
12241SOL    HW238463   0.725   0.699   5.020 -0.9925  0.0161  0.4168
12242SOL     OW38464   2.872   5.083   8.435  0.2578 -0.0448  0.0898
12242SOL    HW138465   2.898   4.992   8.447 -0.2849 -0.1294  0.6525
12242SOL    HW238466   2.819   5.082   8.355 -0.8646 -0.4678  0.8118
12243SOL     OW38467   2.351   8.599   0.176  0.2057 -0.6733  0.2539
12243SOL    HW138468   2.351   8.514   0.132  1.6883 -1.3710  1.5494
12243SOL    HW238469   2.273   8.597   0.231 -1.9236  0.3720 -2.4585
12244SOL     OW38470   6.448   9.505   1.864 -0.0018  0.1352  0.1458
12244SOL    HW138471   6.516   9.461   1.915 -0.1570  0.7091  0.8654
12244SOL    HW238472   6.385   9.435   1.843 -0.6497  0.1275  1.9511
12245SOL     OW38473   7.967   7.289   6.606 -0.4810 -0.7438  0.1603
12245SOL    HW138474   8.020   7.244   6.540 -0.1048  0.6639 -0.5168
12245SOL    HW238475   7.892   7.231   6.620 -0.6798 -0.9775 -1.6562
12246SOL     OW38476   6.699   9.167   4.179 -0.0767 -0.2432  0.0089
12246SOL    HW138477   6.767   9.111   4.140 -1.0719 -0.8189 -0.9600
12246SOL    HW238478   6.620   9.146   4.129 -0.6578  1.4445  0.1701
12247SOL     OW38479   1.069   8.021   4.267 -0.2654 -1.5173  0.9041
12247SOL    HW138480   1.069   8.073   4.348  0.0665  0.0056 -0.0272
12247SOL    HW238481   1.017   8.074   4.206  2.1754 -0.9970 -0.8489
12248SOL     OW38482   6.575   8.335   5.791 -0.0153  0.2798  0.3943
12248SOL    HW138483   6.544   8.247   5.814  1.1688 -0.2026  0.2221
12248SOL    HW238484   6.618   8.324   5.707  3.1031  0.2797  1.8475
12249SOL     OW38485   8.594   9.253   9.251  0.5792  0.1387  0.1133
12249SOL    HW138486   8.503   9.226   9.238  0.6055 -0.2595  0.6754
12249SOL    HW238487   8.592   9.310   9.328  0.7703  0.3404 -0.0277
12250SOL     OW38488   9.357   9.160   0.809  0.4128 -0.1652  0.4416
12250SOL    HW138489   9.275   9.208   0.805 -0.1225 -1.1349 -1.2606
12250SOL    HW238490   9.423   9.226   0.831 -0.6472  0.8371  0.7083
12251SOL     OW38491   8.654   5.735   0.306 -0.1735 -0.3216  0.2602
12251SOL    HW138492   8.611   5.800   0.362 -0.7564 -0.8145  0.4047
12251SOL    HW238493   8.668   5.660   0.364 -0.5988 -0.7641 -0.2032
12252SOL     OW38494   4.829   5.685   0.216 -0.2257 -0.2103 -0.0279
12252SOL    HW138495   4.806   5.613   0.158  1.5709 -2.1128  1.4873
12252SOL    HW238496   4.903   5.728   0.173 -0.3337 -0.2175 -0.2184
12253SOL     OW38497   1.373   4.340   5.652 -0.2971  0.0956  0.1735
12253SOL    HW138498   1.287   4.382   5.657 -0.5226 -0.4551  1.4710
12253SOL    HW238499   1.360   4.267   5.593 -0.4573  0.5964 -0.4210
12254SOL     OW38500   6.480   3.880   7.335  0.2062  0.7114  0.1426
12254SOL    HW138501   6.452   3.920   7.253  1.5584 -0.4987 -0.9418
12254SOL    HW238502   6.465   3.786   7.323 -0.2115  0.5650  1.5640
12255SOL     OW38503   5.949   7.765   4.148  0.5456  0.2291  0.0748
12255SOL    HW138504   5.957   7.860   4.138 -0.3517  0.3369  0.3184
12255SOL    HW238505   5.926   7.753   4.240 -1.6900 -0.0441 -0.4556
12256SOL     OW38506   2.863   0.598   9.517 -0.2192  0.5230 -0.0554
12256SOL    HW138507   2.855   0.686   9.480 -2.8437  0.3279 -0.1087
12256SOL    HW238508   2.881   0.612   9.609 -3.7517  1.3170  0.6577
12257SOL     OW38509   6.926   4.224   0.100  0.8278 -0.3301 -0.4483
12257SOL    HW138510   6.913   4.167   0.024  1.6780 -0.6276 -0.3905
12257SOL    HW238511   6.862   4.194   0.164 -0.1951  0.2040 -1.1854
12258SOL     OW38512   1.943   2.212   8.990  0.9245 -0.0015 -0.5074
12258SOL    HW138513   1.931   2.299   9.027  2.4113  0.9209 -2.0695
12258SOL    HW238514   2.023   2.179   9.032  2.9054  1.2461 -3.0420
12259SOL     OW38515   1.493   5.911   5.566  0.0337 -0.0724  0.0346
12259SOL    HW138516   1.577   5.910   5.612 -0.1713  0.3182  0.4239
12259SOL    HW238517   1.465   6.003   5.569 -1.4049 -0.5012  1.7338
12260SOL     OW38518   4.090   9.153   1.171  0.1969  0.5420 -0.4398
12260SOL    HW138519   4.114   9.144   1.079  0.3017  1.3743 -0.5026
12260SOL    HW238520   4.148   9.222   1.204  0.0131  0.3951  0.1935
12261SOL     OW38521   0.354   5.287   6.372 -0.2298 -0.1186  0.2271
12261SOL    HW138522   0.322   5.197   6.372 -2.1856  0.4545 -2.0441
12261SOL    HW238523   0.327   5.322   6.457 -1.0830 -1.1690  0.4089
12262SOL     OW38524   1.799   8.567   1.746  0.2176  0.3269  0.4074
12262SOL    HW138525   1.764   8.584   1.834  0.2281  0.1106  0.4533
12262SOL    HW238526   1.862   8.497   1.759  0.6648  0.7083  0.3240
12263SOL     OW38527   0.880   5.158   1.628  0.4851 -0.3455  0.1036
12263SOL    HW138528   0.828   5.094   1.580  0.2219 -1.6544  2.0262
12263SOL    HW238529   0.882   5.235   1.570 -2.0437 -0.8778 -0.8547
12264SOL     OW38530   9.021   4.725   0.316 -0.4259  0.1717  0.0820
12264SOL    HW138531   8.931   4.737   0.344 -0.3150  0.2715  0.4056
12264SOL    HW238532   9.031   4.782   0.240 -0.4407  0.6788  0.4590
12265SOL     OW38533   3.322   6.830   6.405 -0.3483 -0.6328 -0.2225
12265SOL    HW138534   3.243   6.883   6.409  0.0788  0.0018  0.1780
12265SOL    HW238535   3.326   6.798   6.315 -0.4728  0.2608 -0.5585
12266SOL     OW38536   2.584   8.827   3.294 -0.1569 -0.3744  0.0896
12266SOL    HW138537   2.613   8.771   3.365 -0.8329 -0.3494  0.3934
12266SOL    HW238538   2.583   8.915   3.331 -0.2236 -0.3218 -0.0362
12267SOL     OW38539   8.205   4.327   2.648  0.2018  0.1232  0.4831
12267SOL    HW138540   8.198   4.344   2.554  0.7263  1.1586  0.6206
12267SOL    HW238541   8.296   4.300   2.661 -0.1370 -1.0592  0.5528
12268SOL     OW38542   2.041   7.049   8.036  0.4444 -0.3725 -0.0094
12268SOL    HW138543   1.954   7.054   7.994  0.8447  0.1673 -0.7911
12268SOL    HW238544   2.051   7.132   8.081  1.2930  0.3373 -1.4323
12269SOL     OW38545   8.774   6.518   8.963 -0.1259  0.1430 -0.0675
12269SOL    HW138546   8.827   6.518   8.883  2.7223 -1.6212  1.6472
12269SOL    HW238547   8.736   6.430   8.966 -0.0168  0.1149  0.6123
12270SOL     OW38548   2.323   4.530   1.283 -0.3819 -0.1463 -0.0963
12270SOL    HW138549   2.296   4.440   1.268 -1.8784  0.2732 -0.0925
12270SOL    HW238550   2.252   4.583   1.246  0.1183  1.0167  0.5541
12271SOL     OW38551   0.389   8.203   2.035  0.4936  0.0297 -0.1172
12271SOL    HW138552   0.373   8.203   2.130  0.0633 -1.0320 -0.1797
12271SOL    HW238553   0.343   8.281   2.004  0.3551  0.2063  0.4996
12272SOL     OW38554   6.625   7.309   4.379  0.2058 -0.1008 -0.0093
12272SOL    HW138555   6.620   7.388   4.433  0.3251 -0.9877  1.3659
12272SOL    HW238556   6.634   7.341   4.290  0.0157  1.4352  0.4915
12273SOL     OW38557   1.200   6.647   4.852 -0.0344  0.3720 -0.2687
12273SOL    HW138558   1.180   6.703   4.777  0.1443  1.3302  0.3767
12273SOL    HW238559   1.128   6.584   4.855  0.6798 -0.5912 -2.0677
12274SOL     OW38560   3.491   7.459   7.733  0.1601 -0.7342 -0.2412
12274SOL    HW138561   3.528   7.522   7.795 -1.8813 -0.6132  0.9526
12274SOL    HW238562   3.447   7.394   7.789 -0.0952 -1.6994 -1.5324
12275SOL     OW38563   6.959   1.028   3.036  0.4555 -0.4733 -0.0285
12275SOL    HW138564   6.966   0.986   2.951  0.3088  0.4367 -0.4985
12275SOL    HW238565   6.875   1.074   3.033  0.8372  0.2624  0.2814
12276SOL     OW38566   2.270   0.359   8.339  0.4162 -0.4307  0.6036
12276SOL    HW138567   2.215   0.282   8.349 -0.2508 -0.0190  0.1535
12276SOL    HW238568   2.360   0.325   8.340  0.1168 -1.2798 -0.2002
12277SOL     OW38569   6.021   8.183   1.478 -0.0953 -0.7292 -0.1536
12277SOL    HW138570   5.952   8.185   1.544 -1.0400 -0.4426 -1.1219
12277SOL    HW238571   6.087   8.123   1.514  1.1792  2.1258  2.7029
12278SOL     OW38572   0.487   5.694   3.357 -0.7437 -0.6382  0.0915
12278SOL    HW138573   0.501   5.709   3.450 -2.3352  0.9710  0.1281
12278SOL    HW238574   0.420   5.626   3.353 -0.9048 -0.4849  0.1471
12279SOL     OW38575   6.780   0.844   8.423  0.2925  0.5363  0.3952
12279SOL    HW138576   6.714   0.781   8.453  1.3270 -0.1280  1.3665
12279SOL    HW238577   6.780   0.835   8.328 -0.5195  0.0298  0.4342
12280SOL     OW38578   5.346   7.579   7.173 -0.3251  0.3840 -0.1056
12280SOL    HW138579   5.284   7.642   7.210 -1.0907 -0.5632  0.2660
12280SOL    HW238580   5.318   7.495   7.208  0.8047 -0.1438 -0.4381
12281SOL     OW38581   7.850   4.786   1.174  0.2867 -0.1520 -0.0070
12281SOL    HW138582   7.859   4.706   1.226  0.7293  0.8496  1.5360
12281SOL    HW238583   7.770   4.827   1.207 -0.6932 -0.5979 -1.7378
12282SOL     OW38584   0.831   1.848   2.359  0.1433  0.2941  0.3424
12282SOL    HW138585   0.786   1.894   2.289  0.9982 -0.0329 -0.4351
12282SOL    HW238586   0.779   1.769   2.373  1.2715 -0.8799 -1.6397
12283SOL     OW38587   3.968   5.415   2.491  0.0179  0.1291 -0.1497
12283SOL    HW138588   4.023   5.399   2.414 -0.4310  2.5513 -1.0629
12283SOL    HW238589   4.000   5.353   2.557  0.9584 -1.4721 -1.9925
12284SOL     OW38590   4.914   5.103   7.573  0.0251  0.8477  0.2888
12284SOL    HW138591   4.854   5.042   7.529  0.5582  0.0749  0.6188
12284SOL    HW238592   4.998   5.058   7.574  1.1669  2.7047 -1.9619
12285SOL     OW38593   8.855   0.594   6.760  0.2321  0.4830 -0.1482
12285SOL    HW138594   8.810   0.559   6.837  0.6478 -0.7602 -0.4388
12285SOL    HW238595   8.806   0.672   6.736 -0.3539  0.4613  0.9293
12286SOL     OW38596   2.160   7.691   9.380 -0.1584  0.3992  0.4405
12286SOL    HW138597   2.204   7.676   9.464 -0.1443  1.0112  0.5443
12286SOL    HW238598   2.216   7.754   9.334  0.8662 -1.3461 -0.8343
12287SOL     OW38599   0.890   5.300   9.268  0.0478  0.0755  0.5364
12287SOL    HW138600   0.855   5.216   9.296 -0.2493  0.3228  0.9315
12287SOL    HW238601   0.983   5.285   9.254 -0.1453 -0.5052 -0.1660
12288SOL     OW38602   0.620   8.356   2.182 -0.1835 -0.4235 -0.0323
12288SOL    HW138603   0.530   8.384   2.199 -0.1966  0.2470 -1.1070
12288SOL    HW238604   0.630   8.362   2.087  1.5371  1.2802  0.1909
12289SOL     OW38605   2.354   2.956   7.867  0.1047 -0.4874  0.2356
12289SOL    HW138606   2.296   2.982   7.795 -0.1497  1.2361  1.0232
12289SOL    HW238607   2.344   2.861   7.873 -3.0235 -0.2177  0.6380
12290SOL     OW38608   5.369   0.775   3.351 -0.1290  0.3297  0.1921
12290SOL    HW138609   5.366   0.867   3.376 -0.9783  0.5654 -0.7022
12290SOL    HW238610   5.285   0.759   3.308 -0.3793 -1.0975  1.1239
12291SOL     OW38611   4.461   1.304   4.233 -0.3640 -0.9208  0.0229
12291SOL    HW138612   4.406   1.380   4.217  1.6940  0.4627 -0.8716
12291SOL    HW238613   4.461   1.294   4.329  1.3745  1.9203  0.4568
12292SOL     OW38614   8.723   1.572   5.671 -0.3230 -0.3021 -0.5650
12292SOL    HW138615   8.639   1.594   5.632 -0.7872 -0.5722  0.2645
12292SOL    HW238616   8.756   1.654   5.706 -0.0294 -0.1117 -1.2602
12293SOL     OW38617   7.362   0.619   1.944 -0.9053 -0.0555  0.2412
12293SOL    HW138618   7.337   0.603   2.035  0.5699 -1.3325  0.4759
12293SOL    HW238619   7.374   0.531   1.907 -1.5568  0.4442 -1.2282
12294SOL     OW38620   1.574   1.141   8.057 -0.1474 -0.6328  0.1585
12294SOL    HW138621   1.482   1.139   8.082 -0.2358 -0.9916 -0.1884
12294SOL    HW238622   1.619   1.174   8.135 -0.4770 -1.2306  0.6066
12295SOL     OW38623   4.397   0.046   6.506 -0.3927  0.1237 -0.3407
12295SOL    HW138624   4.476  -0.008   6.515 -0.2423  0.1993 -1.0936
12295SOL    HW238625   4.327  -0.016   6.485 -0.9458 -0.1730  2.0709
12296SOL     OW38626   6.869   3.335   8.766  0.4756 -0.5387 -0.1075
12296SOL    HW138627   6.912   3.296   8.689 -0.2325  1.5894 -1.6689
12296SOL    HW238628   6.940   3.348   8.829  1.3049 -1.1611 -0.8875
12297SOL     OW38629   0.626   1.344   6.693  0.0656  0.2454  0.0350
12297SOL    HW138630   0.632   1.436   6.667  0.2104  0.2893  0.2165
12297SOL    HW238631   0.663   1.296   6.619  1.5115  0.4369  0.6034
12298SOL     OW38632   8.814   4.537   2.183  0.5254  0.9126  0.0984
12298SOL    HW138633   8.887   4.551   2.243 -0.3256  3.1600  0.7061
12298SOL    HW238634   8.768   4.461   2.218  1.4237  0.7085  0.8771
12299SOL     OW38635   4.052   0.178   7.444  0.2214 -0.7695  0.3816
12299SOL    HW138636   3.968   0.133   7.453  0.8803 -2.0302  0.4867
12299SOL    HW238637   4.117   0.107   7.447  1.2231  0.0640 -0.8887
12300SOL     OW38638   2.253   5.275   6.456 -0.1686 -0.1173 -0.3534
12300SOL    HW138639   2.347   5.264   6.468 -0.1976  0.4428  0.4699
12300SOL    HW238640   2.220   5.186   6.440  0.3705 -0.4404  0.3051
12301SOL     OW38641   0.898   2.578   0.242  0.1911  0.3790  0.1556
12301SOL    HW138642   0.886   2.619   0.156  1.8926  0.1587 -0.2421
12301SOL    HW238643   0.993   2.584   0.257 -0.0582  0.2119  1.9257
12302SOL     OW38644   1.861   7.544   0.257  0.3872 -0.3538  0.4620
12302SOL    HW138645   1.808   7.470   0.286 -0.2076  0.3776  1.2730
12302SOL    HW238646   1.836   7.616   0.314  0.9522  0.4864 -0.3181
12303SOL     OW38647   4.199   7.367   1.620 -0.4765  0.0445  0.5096
12303SOL    HW138648   4.166   7.292   1.669 -1.5108 -0.5172 -0.9725
12303SOL    HW238649   4.124   7.396   1.568  0.3153  1.2229 -0.0175
12304SOL     OW38650   2.208   0.504   5.769  0.6618  0.4359  0.0332
12304SOL    HW138651   2.230   0.597   5.762  1.4264  0.2717  0.1648
12304SOL    HW238652   2.209   0.486   5.863 -1.4353  0.7348  0.1466
12305SOL     OW38653   1.377   2.808   7.424 -0.1996 -0.5287 -0.2053
12305SOL    HW138654   1.329   2.778   7.501  0.2630 -1.7894 -0.3724
12305SOL    HW238655   1.450   2.858   7.459 -0.9479  0.3824  0.0943
12306SOL     OW38656   0.520   2.350   7.799 -0.2968  0.4903 -0.1808
12306SOL    HW138657   0.546   2.408   7.727 -0.8582  1.8500  0.6798
12306SOL    HW238658   0.600   2.340   7.850  0.3619 -1.2608 -1.4663
12307SOL     OW38659   3.934   3.776   3.763 -0.3369 -0.4152 -0.2975
12307SOL    HW138660   3.892   3.708   3.816 -1.8442  1.5660  1.2015
12307SOL    HW238661   3.862   3.815   3.713  0.1257  1.2635  0.2702
12308SOL     OW38662   6.251   4.747   3.277  0.9432 -0.3708  0.2260
12308SOL    HW138663   6.238   4.763   3.184 -0.0709 -0.5624  0.3243
12308SOL    HW238664   6.263   4.652   3.284 -0.4068 -0.5397  0.4331
12309SOL     OW38665   1.223   9.412   5.230  0.3759 -0.3063  0.1752
12309SOL    HW138666   1.301   9.361   5.207 -0.0759 -0.0542 -2.1815
12309SOL    HW238667   1.175   9.422   5.147 -2.3074 -0.6633  1.5694
12310SOL     OW38668   5.300   3.790   5.141  0.4334  0.8934  0.3389
12310SOL    HW138669   5.345   3.816   5.060 -1.2866 -1.5500 -1.5802
12310SOL    HW238670   5.208   3.785   5.116 -0.0055 -1.1032  2.0803
12311SOL     OW38671   9.464   6.138   6.142 -0.0764  0.1031  0.2134
12311SOL    HW138672   9.409   6.114   6.217  0.8091  0.0792  0.8648
12311SOL    HW238673   9.552   6.149   6.178  0.7825 -1.8183 -1.1123
12312SOL     OW38674   2.396   9.472   6.391 -0.0362  0.6658 -0.0516
12312SOL    HW138675   2.462   9.415   6.352  0.9606  1.0703  1.0145
12312SOL    HW238676   2.423   9.560   6.367  1.0209  0.9868  2.1031
12313SOL     OW38677   4.599   3.677   1.724  0.0306 -0.0450 -0.0190
12313SOL    HW138678   4.657   3.750   1.746  1.0962 -1.1491  1.0323
12313SOL    HW238679   4.550   3.707   1.647  0.8672  1.5218  0.0133
12314SOL     OW38680   4.697   5.588   4.678  0.1741  0.0996  0.5697
12314SOL    HW138681   4.608   5.595   4.712 -0.9275  1.2970 -2.2112
12314SOL    HW238682   4.716   5.495   4.680 -1.7789 -0.3681 -0.1176
12315SOL     OW38683   3.170   6.761   5.120  0.0756  0.4572 -0.8508
12315SOL    HW138684   3.089   6.767   5.172  0.1216  2.2423 -0.9071
12315SOL    HW238685   3.163   6.678   5.074 -0.8900 -0.2571  0.5125
12316SOL     OW38686   7.361   3.292   0.661 -0.5139 -0.2663  0.9368
12316SOL    HW138687   7.340   3.385   0.665 -0.7424  0.0226 -3.0456
12316SOL    HW238688   7.434   3.287   0.599 -1.3454 -2.8117  0.0575
12317SOL     OW38689   9.146   7.391   8.360  0.4831 -0.1373  0.5192
12317SOL    HW138690   9.149   7.319   8.296 -2.1672  1.0870 -1.1477
12317SOL    HW238691   9.082   7.363   8.425 -3.0377  1.7480 -1.8122
12318SOL     OW38692   1.907   3.458   3.094  0.7340  0.6392  0.1550
12318SOL    HW138693   1.870   3.515   3.162  0.8837  0.2344  0.5873
12318SOL    HW238694   1.875   3.370   3.117  2.7618  0.1079  1.1468
12319SOL     OW38695   4.572   3.593   5.908  0.4398  0.3888 -0.2448
12319SOL    HW138696   4.507   3.558   5.969  0.9368 -1.8970 -0.9396
12319SOL    HW238697   4.650   3.606   5.961  1.2410 -2.6976 -0.4801
12320SOL     OW38698   2.668   5.614   6.806  0.0378 -0.1753  0.3784
12320SOL    HW138699   2.617   5.610   6.726  0.3258  2.0615  0.0086
12320SOL    HW238700   2.759   5.610   6.777  0.1283 -0.9000  0.7447
12321SOL     OW38701   2.592   2.643   7.667 -0.1828  0.1944 -0.4273
12321SOL    HW138702   2.508   2.683   7.647 -0.9238 -1.2042 -0.2320
12321SOL    HW238703   2.598   2.568   7.607  0.4140 -0.3696  0.3189
12322SOL     OW38704   4.063   0.219   2.922  0.6223  0.5004 -0.1961
12322SOL    HW138705   3.977   0.260   2.917 -0.0104 -0.8354 -0.7387
12322SOL    HW238706   4.123   0.291   2.943 -0.6003  1.4665  0.0852
12323SOL     OW38707   3.602   7.722   6.404 -0.6008 -0.3144 -0.3214
12323SOL    HW138708   3.693   7.723   6.436 -0.1953  1.4094 -1.3963
12323SOL    HW238709   3.573   7.631   6.417  1.1398 -0.8076  0.4072
12324SOL     OW38710   3.144   1.439   7.644  0.3956  0.2570 -0.0553
12324SOL    HW138711   3.051   1.446   7.625  0.1696  0.5044  1.0835
12324SOL    HW238712   3.167   1.523   7.682  1.3956  0.6861 -1.5153
12325SOL     OW38713   3.075   6.692   0.493 -0.3775 -0.5915  0.4240
12325SOL    HW138714   3.000   6.751   0.493 -0.2633 -0.4309 -0.3212
12325SOL    HW238715   3.145   6.742   0.533 -0.1934 -0.0881 -0.4917
12326SOL     OW38716   1.015   4.931   7.279 -0.0728  0.6110  0.3798
12326SOL    HW138717   1.037   4.983   7.355  1.7878  0.2998  0.1038
12326SOL    HW238718   1.002   4.994   7.208 -0.3467  0.8204  0.6175
12327SOL     OW38719   7.868   4.162   1.453 -0.6250 -0.0614 -0.7529
12327SOL    HW138720   7.875   4.224   1.380 -0.1641 -0.5297 -1.1149
12327SOL    HW238721   7.949   4.174   1.503  0.4088 -1.7066 -1.9171
12328SOL     OW38722   8.898   6.472   8.707 -0.2062  0.3107  0.5324
12328SOL    HW138723   8.876   6.554   8.662  0.4170  0.0671 -0.2290
12328SOL    HW238724   8.820   6.418   8.699 -0.2346  0.4184  0.0844
12329SOL     OW38725   7.294   5.449   1.116 -0.2671  0.0269  0.3157
12329SOL    HW138726   7.354   5.375   1.120 -1.3844 -0.9272 -0.1093
12329SOL    HW238727   7.327   5.503   1.044  1.5920  0.9286  1.7349
12330SOL     OW38728   0.947   5.101   4.876  0.0796  0.1413 -0.2803
12330SOL    HW138729   0.946   5.011   4.909  0.7626  0.1969 -0.1059
12330SOL    HW238730   1.007   5.148   4.934 -1.3046  1.0366  0.4791
12331SOL     OW38731   1.350   1.347   1.147  0.1755  0.0524  0.4266
12331SOL    HW138732   1.437   1.376   1.121  0.0881  0.6233  0.7410
12331SOL    HW238733   1.332   1.395   1.228 -1.3691  1.7677 -0.8509
12332SOL     OW38734   6.075   3.256   6.200 -0.2877  0.4951  0.3866
12332SOL    HW138735   6.011   3.253   6.272  0.4290  1.5278  1.1080
12332SOL    HW238736   6.118   3.170   6.203 -0.8618  0.2095  0.6335
12333SOL     OW38737   1.298   2.371   4.472  0.0589  0.0964 -0.2433
12333SOL    HW138738   1.218   2.415   4.444  0.9525  0.8792 -1.7024
12333SOL    HW238739   1.367   2.435   4.457  1.0002 -0.6636  0.7015
12334SOL     OW38740   2.252   4.600   3.490 -0.3384  0.4271 -0.0411
12334SOL    HW138741   2.166   4.639   3.506 -0.8254  0.1958 -1.8054
12334SOL    HW238742   2.242   4.508   3.515  0.4984  1.0834  3.1098
12335SOL     OW38743   5.278   8.330   7.714  0.5135  0.0412 -0.0191
12335SOL    HW138744   5.196   8.378   7.701  0.9049  0.7892  0.2296
12335SOL    HW238745   5.329   8.349   7.635  1.5005  1.7595  0.9769
12336SOL     OW38746   3.769   6.059   1.848 -0.0852 -0.2015 -0.1605
12336SOL    HW138747   3.815   6.090   1.770  0.2292 -0.8311 -0.2334
12336SOL    HW238748   3.730   5.976   1.821 -2.2856  0.8613 -0.4550
12337SOL     OW38749   0.101   6.600   0.262  0.5861 -0.1434 -0.1156
12337SOL    HW138750   0.044   6.534   0.301 -0.2598  0.6967  0.1360
12337SOL    HW238751   0.172   6.551   0.222 -0.9815 -1.3548 -1.5703
12338SOL     OW38752   1.009   3.503   9.065 -0.0040  0.0687  0.1542
12338SOL    HW138753   1.023   3.415   9.030 -0.7394  0.3045 -0.7597
12338SOL    HW238754   0.940   3.541   9.010  1.0161  1.5998 -0.1504
12339SOL     OW38755   1.096   2.631   9.519  0.0749 -0.0943  0.1108
12339SOL    HW138756   1.022   2.675   9.562 -0.7065 -0.9418 -0.3143
12339SOL    HW238757   1.106   2.549   9.568  1.6919  0.6367  1.0766
12340SOL     OW38758   3.323   7.337   3.650 -0.1515 -0.0610  0.2966
12340SOL    HW138759   3.358   7.248   3.656 -0.5819 -0.2272  0.3294
12340SOL    HW238760   3.345   7.377   3.734 -3.5014 -1.4190  2.0097
12341SOL     OW38761   6.478   7.475   1.849 -0.3606  0.3141  0.5158
12341SOL    HW138762   6.566   7.446   1.827 -0.9406 -1.3372  0.2434
12341SOL    HW238763   6.471   7.562   1.810 -0.1935 -1.1026 -3.0786
12342SOL     OW38764   2.668   6.844   8.286  0.4927  0.0561  0.5063
12342SOL    HW138765   2.711   6.876   8.366  0.7269  0.4010  0.2460
12342SOL    HW238766   2.732   6.860   8.216  0.3934 -0.4944  0.2901
12343SOL     OW38767   6.528   2.447   3.976  0.2260  0.8076  0.0481
12343SOL    HW138768   6.531   2.538   4.007 -1.0227  1.1719 -0.8302
12343SOL    HW238769   6.618   2.416   3.984  0.6867  2.1506  0.2945
12344SOL     OW38770   2.454   0.420   7.671  0.3544  0.1719  0.2073
12344SOL    HW138771   2.506   0.374   7.605  1.1941  0.6861  0.4945
12344SOL    HW238772   2.518   0.449   7.736 -0.3139  0.7059  0.6391
12345SOL     OW38773   5.226   4.554   4.855 -0.0535 -0.0171 -0.3182
12345SOL    HW138774   5.172   4.489   4.900  0.8582 -0.5227  0.0840
12345SOL    HW238775   5.300   4.503   4.819 -0.1812  0.5495 -1.4328
12346SOL     OW38776   5.971   1.353   2.219 -0.0747  0.0641 -0.0183
12346SOL    HW138777   5.938   1.295   2.288 -0.4309  0.6097  0.2779
12346SOL    HW238778   6.062   1.369   2.243 -0.3492  0.6956  0.6432
12347SOL     OW38779   4.123   2.427   1.505 -0.1632  0.0760  0.5135
12347SOL    HW138780   4.108   2.443   1.598  0.0890 -0.4822  0.6522
12347SOL    HW238781   4.112   2.333   1.494  0.4524  0.0439  0.1041
12348SOL     OW38782   4.114   4.616   5.315  0.0083  0.1488 -0.7508
12348SOL    HW138783   4.103   4.609   5.410  0.4219  0.4011 -0.6821
12348SOL    HW238784   4.158   4.536   5.290 -2.0572 -0.9627 -1.0552
12349SOL     OW38785   4.702   7.737   0.769  0.2212  0.4020  0.4265
12349SOL    HW138786   4.749   7.786   0.701  0.8122 -0.3495  0.2752
12349SOL    HW238787   4.657   7.668   0.721  1.2624 -0.6141  0.8442
12350SOL     OW38788   1.536   8.133   2.344  0.2130 -0.4349  0.1170
12350SOL    HW138789   1.455   8.181   2.364  1.6472  2.5083 -0.6184
12350SOL    HW238790   1.516   8.088   2.262 -0.9489 -0.4612  0.3917
12351SOL     OW38791   5.827   4.768   6.362  0.0891 -0.2755  0.2820
12351SOL    HW138792   5.745   4.816   6.375  0.8838  1.6562 -1.2526
12351SOL    HW238793   5.818   4.729   6.274  0.4853 -0.7809  0.4638
12352SOL     OW38794   9.207   1.624   6.877 -0.0597 -0.1388  0.6075
12352SOL    HW138795   9.148   1.622   6.802  0.9523  2.1738 -0.3322
12352SOL    HW238796   9.286   1.578   6.847  0.2628  0.6006  0.2893
12353SOL     OW38797   5.747   2.292   0.946 -0.4745  0.0303  0.1924
12353SOL    HW138798   5.665   2.242   0.942 -0.1470 -0.4792 -0.4664
12353SOL    HW238799   5.726   2.377   0.909 -0.7012 -0.1203 -0.0293
12354SOL     OW38800   2.145   5.911   1.299 -0.8192  0.2012  0.4771
12354SOL    HW138801   2.187   5.849   1.239  0.6776  1.2172  0.4188
12354SOL    HW238802   2.071   5.863   1.336  0.6869 -1.8663  0.9707
12355SOL     OW38803   1.817   6.852   0.405 -0.2842  0.8308  0.4988
12355SOL    HW138804   1.813   6.917   0.475  1.7922  1.7803 -0.1779
12355SOL    HW238805   1.910   6.832   0.397 -0.6171 -0.1976 -1.1682
12356SOL     OW38806   6.340   1.950   1.570 -0.0217  0.0019 -0.1633
12356SOL    HW138807   6.282   1.968   1.496  0.4621  0.0002 -0.5497
12356SOL    HW238808   6.420   2.000   1.551  0.8468 -1.4639 -0.6117
12357SOL     OW38809   4.176   5.586   6.062 -0.4905 -0.7993 -0.3494
12357SOL    HW138810   4.169   5.620   5.973  1.6772 -0.3145 -0.3922
12357SOL    HW238811   4.252   5.631   6.099 -1.6831 -0.5375  1.9723
12358SOL     OW38812   4.336   1.603   8.049  0.6205 -0.5403 -0.0483
12358SOL    HW138813   4.400   1.656   8.002 -0.1118  0.4322  0.0255
12358SOL    HW238814   4.382   1.522   8.070  2.2496  0.6311  1.1430
12359SOL     OW38815   6.597   9.357   6.269  0.2049 -0.2534 -0.5568
12359SOL    HW138816   6.653   9.360   6.347  0.2752  2.5286 -0.6004
12359SOL    HW238817   6.659   9.355   6.196  0.2121  0.1927 -0.5663
12360SOL     OW38818   1.936   0.725   2.508  0.1435 -0.0936  0.0312
12360SOL    HW138819   1.951   0.746   2.601 -1.1089 -2.5174  0.8631
12360SOL    HW238820   1.848   0.760   2.490 -0.1210 -0.6897  0.1382
12361SOL     OW38821   2.857   0.283   3.742 -0.1144  0.0878  0.1563
12361SOL    HW138822   2.884   0.226   3.671 -0.4261  2.2195 -1.7834
12361SOL    HW238823   2.916   0.358   3.738 -1.6606  1.3944  0.5476
12362SOL     OW38824   0.789   3.629   4.096  0.3175  0.1151 -0.0574
12362SOL    HW138825   0.825   3.594   4.177  0.0933  1.1703  0.5135
12362SOL    HW238826   0.838   3.710   4.081 -2.6678  2.4175  1.5355
12363SOL     OW38827   0.089   0.964   2.945 -0.7292 -0.4688 -0.6684
12363SOL    HW138828   0.070   0.898   2.878  0.2852 -0.1471 -1.2921
12363SOL    HW238829   0.010   1.018   2.947 -1.0069 -0.8441 -1.1758
12364SOL     OW38830   9.476   4.668   6.656 -0.2128 -0.1219  0.0411
12364SOL    HW138831   9.469   4.589   6.603  1.6342  0.1125 -0.6099
12364SOL    HW238832   9.551   4.715   6.620 -2.5866  3.1661 -1.2068
12365SOL     OW38833   4.600   1.173   9.342  0.0810  0.1826  0.0106
12365SOL    HW138834   4.614   1.264   9.368 -0.5523  0.1837  0.3726
12365SOL    HW238835   4.509   1.170   9.313  0.7140  0.1581 -2.1884
12366SOL     OW38836   8.346   1.809   5.333 -0.0888  0.0423  0.1231
12366SOL    HW138837   8.372   1.897   5.306  1.8204 -0.2855  0.7739
12366SOL    HW238838   8.293   1.777   5.260  1.0971  0.8982 -1.1669
12367SOL     OW38839   5.047   3.663   2.765  0.0309  0.6929 -0.0314
12367SOL    HW138840   4.998   3.725   2.819 -0.5062  0.5944 -0.3943
12367SOL    HW238841   5.106   3.717   2.713  1.5582  0.7024  1.6167
12368SOL     OW38842   5.087   7.966   6.492  0.3451  0.3308  0.1567
12368SOL    HW138843   5.110   7.995   6.580  0.3290  0.7684  0.0162
12368SOL    HW238844   5.027   8.033   6.459 -0.7597 -0.5446  0.3311
12369SOL     OW38845   1.559   0.553   4.848  0.0305  0.0399  0.2688
12369SOL    HW138846   1.538   0.479   4.905  0.9061 -0.5657 -0.1855
12369SOL    HW238847   1.529   0.526   4.762 -0.9255  0.7969  0.3460
12370SOL     OW38848   1.986   4.855   5.237  0.3407  0.2880  0.8481
12370SOL    HW138849   2.021   4.767   5.249  0.8466  0.0884 -1.5889
12370SOL    HW238850   2.045   4.896   5.175 -0.2564  2.1608  1.4433
12371SOL     OW38851   3.537   0.785   2.695 -0.1340 -0.1209 -0.4388
12371SOL    HW138852   3.631   0.781   2.713  0.3750 -1.6779 -3.0102
12371SOL    HW238853   3.496   0.783   2.782  2.1708 -0.2978  0.7155
12372SOL     OW38854   6.490   2.394   2.709  0.7648  0.1212  0.2725
12372SOL    HW138855   6.551   2.460   2.678  0.2329  1.2298  1.4721
12372SOL    HW238856   6.410   2.443   2.729  0.4595 -0.8183  1.4870
12373SOL     OW38857   3.661   4.596   2.152  0.0566  0.2588 -0.7746
12373SOL    HW138858   3.632   4.649   2.226  1.2386  1.2626 -1.0135
12373SOL    HW238859   3.602   4.620   2.081  0.2768  0.8743 -0.7478
12374SOL     OW38860   3.104   3.272   8.551 -0.4896  0.2749  0.0401
12374SOL    HW138861   3.010   3.254   8.553 -0.3671 -0.3107  1.1565
12374SOL    HW238862   3.135   3.230   8.470 -0.8879 -1.1446  0.5986
12375SOL     OW38863   8.575   2.871   0.540 -0.5278  0.1024  0.1934
12375SOL    HW138864   8.594   2.963   0.558 -0.8411  0.2139 -0.0359
12375SOL    HW238865   8.605   2.824   0.618 -1.5081  0.5255  0.8377
12376SOL     OW38866   6.357   1.320   9.163 -0.1804 -0.6945  0.2816
12376SOL    HW138867   6.451   1.338   9.166 -0.3493  0.1968  0.5506
12376SOL    HW238868   6.317   1.405   9.144 -1.0346 -0.6999  1.8866
12377SOL     OW38869   7.717   0.852   4.223  0.2748  0.5993  0.1710
12377SOL    HW138870   7.810   0.865   4.203  0.7705  1.1747  2.4857
12377SOL    HW238871   7.681   0.940   4.229 -0.1299  0.4140  0.4869
12378SOL     OW38872   6.161   0.666   9.474  0.4626  0.4968 -0.4462
12378SOL    HW138873   6.245   0.687   9.517  0.7986  2.6762 -2.0274
12378SOL    HW238874   6.154   0.730   9.403 -1.2332 -1.4188 -2.1166
12379SOL     OW38875   5.552   0.656   4.322  0.5142 -0.9694 -0.1713
12379SOL    HW138876   5.618   0.667   4.254 -0.5994  1.8902 -0.9287
12379SOL    HW238877   5.574   0.722   4.388 -2.0923  0.8747 -0.9746
12380SOL     OW38878   6.802   8.090   5.568 -0.7529 -0.1958  0.3449
12380SOL    HW138879   6.827   8.038   5.492 -0.2914  1.9354 -1.0583
12380SOL    HW238880   6.708   8.077   5.576 -1.5183  2.0906 -2.7995
12381SOL     OW38881   1.188   7.866   7.911  1.0805  0.9624  0.6071
12381SOL    HW138882   1.144   7.810   7.848  1.4756  0.1955  1.0065
12381SOL    HW238883   1.159   7.955   7.888  0.0494  0.5571  0.3003
12382SOL     OW38884   9.465   6.500   0.737  0.2577 -0.4674  0.2543
12382SOL    HW138885   9.411   6.539   0.805 -0.5190  0.3573 -0.7996
12382SOL    HW238886   9.436   6.409   0.733 -2.5287  0.3797 -1.5886
12383SOL     OW38887   6.472   7.184   3.489  0.4969  0.1506 -0.1047
12383SOL    HW138888   6.537   7.122   3.456  0.9958  1.8285 -2.5784
12383SOL    HW238889   6.486   7.185   3.584  3.2876 -0.4418 -0.4115
12384SOL     OW38890   5.946   6.898   3.776  0.4078  0.5443  0.3852
12384SOL    HW138891   5.905   6.819   3.811  1.3488 -0.2294 -0.1864
12384SOL    HW238892   6.010   6.924   3.842  1.4452 -0.3109 -0.2359
12385SOL     OW38893   8.849   1.364   3.043 -0.0778 -0.1902 -0.8000
12385SOL    HW138894   8.783   1.351   3.112  1.0669 -0.3972  0.2926
12385SOL    HW238895   8.915   1.421   3.084  1.6573 -1.9664 -0.9969
12386SOL     OW38896   4.271   8.742   1.788  0.0640  0.3698  0.8527
12386SOL    HW138897   4.248   8.809   1.853 -0.7950 -0.9400  1.9464
12386SOL    HW238898   4.187   8.711   1.754  0.4936  1.0095 -0.9209
12387SOL     OW38899   1.314   2.362   5.971  0.2031  0.2757 -0.4635
12387SOL    HW138900   1.344   2.275   5.946  2.0648  1.0572 -1.1146
12387SOL    HW238901   1.233   2.374   5.921  1.3488 -0.0618 -2.5003
12388SOL     OW38902   4.500   0.852   8.662 -0.3805 -0.1392 -0.0596
12388SOL    HW138903   4.520   0.850   8.569 -0.8428 -0.5911 -0.1523
12388SOL    HW238904   4.586   0.859   8.705 -0.0258 -1.6143 -0.4722
12389SOL     OW38905   1.986   9.004   2.576 -0.1189 -0.2259  0.0572
12389SOL    HW138906   1.991   9.099   2.588 -1.4218 -0.0919 -0.2756
12389SOL    HW238907   2.014   8.968   2.660  2.9971  0.3337 -0.6222
12390SOL     OW38908   5.508   5.207   8.448  0.4306  0.1827 -0.6459
12390SOL    HW138909   5.558   5.287   8.433  0.7058  0.0779 -0.2892
12390SOL    HW238910   5.525   5.153   8.371  2.7566 -0.8329  0.4984
12391SOL     OW38911   4.714   0.046   3.777 -0.3021  0.5470  0.7482
12391SOL    HW138912   4.667   0.095   3.844 -0.8289  0.2214  0.6299
12391SOL    HW238913   4.719   0.106   3.703 -1.7034  0.1523  0.3003
12392SOL     OW38914   4.206   4.224   8.864 -0.2544  0.3101  0.1159
12392SOL    HW138915   4.163   4.217   8.950 -3.4402  0.7155 -1.2784
12392SOL    HW238916   4.218   4.133   8.836  0.3521  0.1796  0.7984
12393SOL     OW38917   8.116   6.565   6.212 -0.2995 -0.3293  0.2313
12393SOL    HW138918   8.170   6.579   6.289 -0.5547 -0.4246  0.4295
12393SOL    HW238919   8.109   6.469   6.204 -1.5332 -0.3218  0.9864
12394SOL     OW38920   9.182   8.341   8.018 -0.6312 -0.3609 -0.1885
12394SOL    HW138921   9.172   8.253   7.981 -0.0349 -0.2053 -0.7473
12394SOL    HW238922   9.179   8.399   7.942 -0.4269  0.0500  0.1147
12395SOL     OW38923   8.234   8.762   5.930  0.1083  0.6149 -0.2427
12395SOL    HW138924   8.213   8.678   5.970  0.2444 -0.1957 -1.7850
12395SOL    HW238925   8.216   8.827   5.998 -0.3128 -0.6346  0.8669
12396SOL     OW38926   2.837   5.425   1.085 -0.5564  0.1575  0.2516
12396SOL    HW138927   2.745   5.453   1.078 -0.5097  0.2986  0.1983
12396SOL    HW238928   2.885   5.506   1.103 -0.4077  0.1285 -0.0120
12397SOL     OW38929   1.004   9.058   1.048  0.0978  0.2423  0.7712
12397SOL    HW138930   1.005   8.963   1.033  0.0349  0.4854 -0.9597
12397SOL    HW238931   0.912   9.082   1.047  0.1695  0.4989 -0.0958
12398SOL     OW38932   6.314   8.123   7.119 -0.0051  0.3060 -0.5819
12398SOL    HW138933   6.334   8.187   7.050 -0.8069  0.5927 -0.5586
12398SOL    HW238934   6.389   8.126   7.178  0.0340  1.1160 -0.6678
12399SOL     OW38935   7.102   4.062   7.581  0.3136 -0.2540 -0.4723
12399SOL    HW138936   7.031   4.123   7.562  1.2445  0.8627 -0.4693
12399SOL    HW238937   7.165   4.075   7.510  1.7014  0.6521  0.8705
12400SOL     OW38938   5.579   4.318   9.328  0.2548 -0.6269 -0.3968
12400SOL    HW138939   5.637   4.372   9.274  0.4772  1.4702  1.8188
12400SOL    HW238940   5.493   4.359   9.320 -0.0948 -1.3598 -0.5084
12401SOL     OW38941   2.112   7.562   0.589 -0.1036  0.3304 -0.4071
12401SOL    HW138942   2.094   7.588   0.679  0.6919 -0.8240  0.1050
12401SOL    HW238943   2.065   7.480   0.577  1.1537 -0.4058 -0.4752
12402SOL     OW38944   2.317   6.939   4.938 -0.1219  0.1054 -0.0671
12402SOL    HW138945   2.265   6.946   4.858  2.3003 -0.3845 -1.7974
12402SOL    HW238946   2.264   6.885   4.997 -1.8838  0.3137 -1.3996
12403SOL     OW38947   8.122   8.652   6.149  0.3395  0.1980 -0.2201
12403SOL    HW138948   8.030   8.677   6.142  0.1229  0.2992  2.2534
12403SOL    HW238949   8.122   8.573   6.203  1.7416  0.8320  0.7708
12404SOL     OW38950   6.794   0.057   8.418 -0.4501 -0.0534  0.3610
12404SOL    HW138951   6.756   0.045   8.330  1.3082 -0.1120 -0.4222
12404SOL    HW238952   6.818  -0.031   8.445  0.5605  0.1430  0.1530
12405SOL     OW38953   1.148   3.045   6.048  0.2505  0.2397  0.1388
12405SOL    HW138954   1.060   3.062   6.081  0.5592 -1.6209  2.1318
12405SOL    HW238955   1.149   3.083   5.961 -2.8151 -0.4441 -0.2917
12406SOL     OW38956   8.279   8.203   1.016  0.5045  0.2326  0.5541
12406SOL    HW138957   8.367   8.222   1.049  0.1940  1.4239  0.7360
12406SOL    HW238958   8.286   8.114   0.980  2.1982  0.8543 -0.8409
12407SOL     OW38959   1.861   8.775   2.454 -0.1654  0.3049  0.4084
12407SOL    HW138960   1.901   8.859   2.479 -1.6718  1.2421 -0.1746
12407SOL    HW238961   1.858   8.725   2.536  1.4562  0.4956  0.6157
12408SOL     OW38962   6.748   9.572   4.960  0.1171  0.1303 -0.4371
12408SOL    HW138963   6.752   9.666   4.977 -0.1537  0.5939 -2.7085
12408SOL    HW238964   6.735   9.564   4.866  1.3614 -2.2197 -0.4984
12409SOL     OW38965   9.265   6.339   1.227  0.4404 -0.1194  0.3263
12409SOL    HW138966   9.170   6.323   1.226  0.3961  0.1621 -0.1967
12409SOL    HW238967   9.295   6.310   1.141  0.3307  2.6677 -0.7572
12410SOL     OW38968   0.104   7.094   5.025 -0.4647  0.5529  0.3321
12410SOL    HW138969   0.034   7.087   5.090 -0.9509  0.9602 -0.1309
12410SOL    HW238970   0.096   7.015   4.972  0.9773 -0.6104  1.7359
12411SOL     OW38971   5.267   6.676   7.532 -0.2673 -0.0518  0.0715
12411SOL    HW138972   5.299   6.603   7.479 -1.5465 -0.8589  0.3543
12411SOL    HW238973   5.343   6.731   7.546  1.2197 -2.2939  1.4020
12412SOL     OW38974   4.283   2.702   1.876  0.3178  0.1064 -0.1173
12412SOL    HW138975   4.246   2.630   1.928  2.1638 -0.0661  1.0925
12412SOL    HW238976   4.208   2.754   1.848 -0.8750 -0.7678  1.3152
12413SOL     OW38977   9.075   4.127   7.378  0.1783 -0.2895  0.2455
12413SOL    HW138978   9.136   4.076   7.432 -0.3598 -1.6671 -0.3938
12413SOL    HW238979   8.990   4.084   7.392 -0.3393  0.5810 -0.1593
12414SOL     OW38980   0.209   1.282   2.189  0.1275  0.4031 -0.2170
12414SOL    HW138981   0.213   1.192   2.221 -1.3004  0.2837 -0.3266
12414SOL    HW238982   0.140   1.281   2.123  0.5779  1.4357 -0.7267
12415SOL     OW38983   8.806   9.100   2.111 -0.1982  0.2711 -0.0752
12415SOL    HW138984   8.893   9.099   2.072  0.6489 -0.0540  1.7030
12415SOL    HW238985   8.794   9.011   2.145 -1.1273  0.3814 -0.0874
12416SOL     OW38986   1.614   2.496   6.718  0.1304 -0.3722 -0.1843
12416SOL    HW138987   1.544   2.551   6.684 -0.4025 -1.0353 -0.1595
12416SOL    HW238988   1.669   2.556   6.769 -0.6906  0.0564  0.2096
12417SOL     OW38989   7.597   9.043   1.903  0.5571 -0.0615 -0.1693
12417SOL    HW138990   7.601   8.991   1.823  2.5330 -1.5563  0.8128
12417SOL    HW238991   7.614   8.980   1.973  2.3849  1.7728  1.1431
12418SOL     OW38992   4.348   1.525   6.502 -0.0931 -0.4468 -0.3266
12418SOL    HW138993   4.343   1.437   6.465  0.6478 -0.5465 -0.1966
12418SOL    HW238994   4.258   1.558   6.495 -0.6143 -1.6022  0.5953
12419SOL     OW38995   2.856   5.935   9.264  0.1761  0.0955  0.2069
12419SOL    HW138996   2.800   5.914   9.339 -2.1688  1.2173 -1.1272
12419SOL    HW238997   2.824   6.019   9.232  1.2578 -0.2171 -1.9049
12420SOL     OW38998   9.239   1.099   7.663  0.2374 -0.5302 -0.4542
12420SOL    HW138999   9.331   1.098   7.637  0.5672 -2.2837  0.6018
12420SOL    HW239000   9.215   1.007   7.671 -1.5051 -0.1108 -0.2649
12421SOL     OW39001   4.549   6.282   8.002  0.8327  0.3865  0.1020
12421SOL    HW139002   4.491   6.294   7.927 -0.0730  0.7179  0.8302
12421SOL    HW239003   4.572   6.371   8.028  1.7196  0.2551 -0.2071
12422SOL     OW39004   7.183   8.233   1.248 -0.4136  0.4761  0.1658
12422SOL    HW139005   7.215   8.156   1.201  0.8161  0.5843  0.7855
12422SOL    HW239006   7.144   8.288   1.180  1.0935  0.5159 -0.7153
12423SOL     OW39007   3.579   5.865   7.115 -0.0918  0.2242 -0.1692
12423SOL    HW139008   3.614   5.791   7.065 -0.8633  0.5148 -1.1840
12423SOL    HW239009   3.560   5.932   7.049  0.2110  1.1792  0.6845
12424SOL     OW39010   8.933   4.112   1.452 -0.7426  0.5089  0.3354
12424SOL    HW139011   8.874   4.136   1.381 -0.0779  2.7043  0.4351
12424SOL    HW239012   8.883   4.129   1.532 -1.2897 -1.4062  0.4391
12425SOL     OW39013   0.306   2.287   4.789 -0.1815  0.2008 -0.4442
12425SOL    HW139014   0.329   2.379   4.775 -0.3600  0.6683  1.9512
12425SOL    HW239015   0.226   2.275   4.739 -0.5998  1.6025 -0.1587
12426SOL     OW39016   5.288   3.198   2.556  0.2230 -0.4806 -0.2168
12426SOL    HW139017   5.273   3.291   2.571  0.7056 -0.5789  0.9228
12426SOL    HW239018   5.348   3.195   2.481  0.3421  0.1328 -0.1506
12427SOL     OW39019   3.989   5.527   0.974  0.2038  0.8596 -0.5615
12427SOL    HW139020   3.929   5.557   0.905  1.2086  0.9863 -1.3942
12427SOL    HW239021   4.007   5.605   1.026 -0.4268  0.7964 -0.2289
12428SOL     OW39022   3.703   6.379   1.000 -0.1360 -0.0565 -0.1588
12428SOL    HW139023   3.714   6.287   0.978  1.5150  0.6867 -2.9047
12428SOL    HW239024   3.620   6.383   1.047 -1.3930 -2.6444 -1.9341
12429SOL     OW39025   2.953   2.980   9.360 -0.5279 -0.3236 -0.4148
12429SOL    HW139026   2.968   2.985   9.454 -0.3118  0.6389 -0.4943
12429SOL    HW239027   2.994   2.897   9.334  1.4540  0.4681 -0.0222
12430SOL     OW39028   0.567   5.554   1.859  0.3730  0.5793  0.7508
12430SOL    HW139029   0.646   5.555   1.804  0.1400  0.8383  0.4225
12430SOL    HW239030   0.601   5.562   1.949  0.7199  0.6701  0.6146
12431SOL     OW39031   3.152   1.909   4.465  0.5035  0.0553 -0.1794
12431SOL    HW139032   3.119   1.998   4.458  0.7377  0.0927 -0.8693
12431SOL    HW239033   3.244   1.919   4.487  0.9015  0.0282 -1.7206
12432SOL     OW39034   8.209   6.805   0.898  0.7846  0.0617  0.4039
12432SOL    HW139035   8.123   6.846   0.898  0.5549 -0.3048 -1.8458
12432SOL    HW239036   8.269   6.875   0.874  1.0546  0.1704  1.3591
12433SOL     OW39037   7.508   8.964   6.440  0.0660 -0.3798  0.0011
12433SOL    HW139038   7.587   8.998   6.483  1.3066 -0.0557 -2.3605
12433SOL    HW239039   7.524   8.870   6.432  0.5869 -0.2127 -1.1198
12434SOL     OW39040   6.069   8.917   0.770  0.3776 -0.2150  0.0127
12434SOL    HW139041   6.100   8.905   0.681 -0.1438 -0.7711 -0.1027
12434SOL    HW239042   6.009   8.992   0.766  0.4006 -0.2028 -0.0938
12435SOL     OW39043   4.101   1.251   8.970  0.0058 -0.3693 -0.8836
12435SOL    HW139044   4.104   1.200   8.889  2.4097 -0.2776 -0.9209
12435SOL    HW239045   4.151   1.200   9.033 -1.5649 -0.2883  0.5258
12436SOL     OW39046   0.450   0.493   7.194 -0.3384 -1.3341 -0.9690
12436SOL    HW139047   0.430   0.580   7.228  1.1440 -1.8914  1.6364
12436SOL    HW239048   0.519   0.508   7.130  0.6825 -0.6218  0.2453
12437SOL     OW39049   5.135   7.603   3.815  0.4658  0.0130  0.0536
12437SOL    HW139050   5.224   7.627   3.839  0.1538  1.1270  0.1267
12437SOL    HW239051   5.121   7.640   3.728  0.0116 -0.0009  0.1148
12438SOL     OW39052   6.185   6.978   2.384  0.3082 -0.3138 -0.0604
12438SOL    HW139053   6.174   7.069   2.357  0.1208  0.3315  2.0158
12438SOL    HW239054   6.263   6.948   2.336 -0.3966  0.4803 -1.7837
12439SOL     OW39055   0.712   5.270   2.964  0.2659  0.1746  0.0088
12439SOL    HW139056   0.773   5.329   2.919 -0.5084  0.7569 -0.3215
12439SOL    HW239057   0.712   5.190   2.911  0.0163  0.5355 -0.5539
12440SOL     OW39058   3.312   8.323   1.707  0.6596  0.5168  0.3574
12440SOL    HW139059   3.326   8.323   1.802  0.5423  0.1198  0.3753
12440SOL    HW239060   3.335   8.412   1.680  1.2374  0.4681  0.6761
12441SOL     OW39061   4.823   5.351   2.861 -0.3190  0.0479 -0.7435
12441SOL    HW139062   4.775   5.321   2.784  2.0272 -3.4923 -1.0552
12441SOL    HW239063   4.906   5.383   2.825 -0.1808  0.7457  0.1731
12442SOL     OW39064   6.776   7.184   9.077  0.1557  0.7382 -0.0035
12442SOL    HW139065   6.838   7.112   9.093  0.3538  1.1513  1.2081
12442SOL    HW239066   6.749   7.212   9.165 -0.7800  1.4078 -0.4885
12443SOL     OW39067   6.449   1.421   3.431  0.5712 -0.4766 -0.2307
12443SOL    HW139068   6.506   1.408   3.506 -0.8036 -1.7775  0.6639
12443SOL    HW239069   6.433   1.332   3.398 -1.7320 -0.3164  0.2497
12444SOL     OW39070   0.183   3.823   9.570  0.1261  0.0497 -0.1471
12444SOL    HW139071   0.118   3.808   9.639  0.3570 -3.4103 -0.5241
12444SOL    HW239072   0.253   3.761   9.589  0.8751  0.0345 -2.6695
12445SOL     OW39073   6.812   6.690   6.090  0.5386 -0.1929  0.2201
12445SOL    HW139074   6.801   6.605   6.133 -0.6215  0.5234  1.3735
12445SOL    HW239075   6.771   6.678   6.004 -0.2868 -0.5830  0.6584
12446SOL     OW39076   4.816   9.106   0.323 -0.5035  0.7155 -0.2503
12446SOL    HW139077   4.891   9.049   0.310  1.4428  3.3093 -1.4328
12446SOL    HW239078   4.852   9.183   0.367 -2.2849  2.3634 -1.4857
12447SOL     OW39079   0.711   3.400   9.329 -0.4053 -1.0010  0.1769
12447SOL    HW139080   0.650   3.473   9.323  0.2243 -0.5638 -4.2940
12447SOL    HW239081   0.658   3.327   9.362 -2.1440  0.4234  0.7041
12448SOL     OW39082   1.273   6.367   3.963  0.2677  0.5292  0.1367
12448SOL    HW139083   1.342   6.430   3.984  0.2367  1.0346 -1.1719
12448SOL    HW239084   1.306   6.319   3.888 -0.7703  0.7493 -0.4829
12449SOL     OW39085   9.152   9.153   1.842  0.6801 -0.0848  0.3416
12449SOL    HW139086   9.156   9.136   1.748 -1.6656 -1.1500  0.3747
12449SOL    HW239087   9.091   9.226   1.850  0.5654 -0.2556  1.0668
12450SOL     OW39088   1.652   4.750   6.311 -0.0181 -0.9513 -0.4920
12450SOL    HW139089   1.711   4.751   6.236 -0.1459 -1.3304 -0.5979
12450SOL    HW239090   1.586   4.816   6.290 -0.2593 -1.3139 -0.8834
12451SOL     OW39091   7.202   0.937   3.139 -0.5187 -0.7098  0.0909
12451SOL    HW139092   7.129   0.994   3.162 -0.8172 -1.3853  0.8917
12451SOL    HW239093   7.266   0.995   3.098 -1.8594 -0.2538 -1.4656
12452SOL     OW39094   8.730   5.867   0.069 -0.5171 -0.1382 -0.1210
12452SOL    HW139095   8.713   5.825   0.153  0.8542 -0.0954  0.2073
12452SOL    HW239096   8.665   5.829   0.010  0.3872 -2.4544  0.2567
12453SOL     OW39097   5.435   6.143   2.955  0.1800 -0.3551  0.3356
12453SOL    HW139098   5.410   6.154   2.864  1.1695 -0.6321  0.0185
12453SOL    HW239099   5.352   6.135   3.002 -0.3259 -1.3857 -0.6852
12454SOL     OW39100   7.213   7.129   3.363  0.2360 -0.1753  0.0691
12454SOL    HW139101   7.144   7.188   3.334  0.7253  0.5927  0.4112
12454SOL    HW239102   7.272   7.122   3.288 -0.8890 -1.9312 -0.7081
12455SOL     OW39103   9.082   6.770   1.580 -0.0766  0.3980  0.2927
12455SOL    HW139104   9.118   6.694   1.627  1.9754  0.2218 -1.3777
12455SOL    HW239105   9.026   6.732   1.513 -0.9634  0.5084  0.9630
12456SOL     OW39106   2.661   3.100   9.563  0.0754 -0.3151  0.2198
12456SOL    HW139107   2.674   3.119   9.470  0.0531 -1.1159  0.0445
12456SOL    HW239108   2.682   3.007   9.571  0.1829 -0.2232  1.0392
12457SOL     OW39109   2.463   5.463   0.411  0.2042 -0.2504 -0.4160
12457SOL    HW139110   2.476   5.373   0.380 -0.0916 -0.2390 -0.5775
12457SOL    HW239111   2.426   5.453   0.499  2.6853 -0.2939  0.7093
12458SOL     OW39112   5.807   2.281   8.252 -0.5196  0.3179 -0.3712
12458SOL    HW139113   5.788   2.196   8.212 -0.3307  0.2906 -0.4054
12458SOL    HW239114   5.723   2.313   8.283 -0.6685  0.3356 -0.7844
12459SOL     OW39115   8.634   3.007   2.666 -0.1498 -0.3640  0.3024
12459SOL    HW139116   8.647   3.016   2.572 -1.3382  0.9968  0.2235
12459SOL    HW239117   8.692   3.073   2.705 -0.5088 -0.1215  0.4380
12460SOL     OW39118   0.539   2.946   8.531  0.0369 -0.3237  0.4309
12460SOL    HW139119   0.518   2.980   8.619 -0.5783  0.3415  0.0361
12460SOL    HW239120   0.456   2.913   8.498  0.5298 -1.8105  0.6046
12461SOL     OW39121   3.618   5.783   8.128 -0.1858  0.9061 -0.1632
12461SOL    HW139122   3.681   5.854   8.114 -0.3881  1.0780 -0.2223
12461SOL    HW239123   3.671   5.704   8.137  0.1075  1.2238  1.0592
12462SOL     OW39124   3.225   6.138   2.187 -0.1099 -0.3806  0.3135
12462SOL    HW139125   3.177   6.158   2.267 -1.3895 -0.4321 -0.4087
12462SOL    HW239126   3.205   6.046   2.170 -1.3789  0.1080 -1.0353
12463SOL     OW39127   1.932   3.730   8.707 -0.4735 -0.0453 -0.2991
12463SOL    HW139128   1.939   3.635   8.698  0.9125 -0.0427  0.5871
12463SOL    HW239129   1.847   3.751   8.668 -0.4391 -1.5402 -1.2604
12464SOL     OW39130   4.474   1.975   0.344  0.7514  0.0715 -0.5656
12464SOL    HW139131   4.425   1.918   0.285 -1.5660 -1.2761  2.3668
12464SOL    HW239132   4.448   2.064   0.320 -0.0000 -0.4140 -1.6288
12465SOL     OW39133   1.048   2.063   0.711  0.1985 -0.2647 -0.2565
12465SOL    HW139134   1.018   2.053   0.801  0.4919  0.0224 -0.1210
12465SOL    HW239135   1.142   2.046   0.715  0.5241  1.3367 -0.1966
12466SOL     OW39136   1.142   7.192   8.920 -0.7270  0.8395  0.4661
12466SOL    HW139137   1.134   7.283   8.949 -1.0407  0.6102  1.1139
12466SOL    HW239138   1.120   7.140   8.998  1.9820  0.1860  0.9056
12467SOL     OW39139   9.398   1.529   1.946  0.0966  0.7340 -0.9553
12467SOL    HW139140   9.430   1.504   1.860 -0.2299 -0.3802 -0.7615
12467SOL    HW239141   9.354   1.613   1.932  0.0507  0.5659 -1.8571
12468SOL     OW39142   5.656   8.144   1.886  0.0766 -0.7949 -0.4696
12468SOL    HW139143   5.718   8.183   1.947 -1.1709  1.3797 -0.5027
12468SOL    HW239144   5.570   8.160   1.925 -0.6024 -1.7806 -1.4891
12469SOL     OW39145   2.780   7.023   7.933  0.2336  0.3968 -0.4121
12469SOL    HW139146   2.723   7.062   8.000  0.1479  0.3386 -0.4503
12469SOL    HW239147   2.832   6.958   7.980  1.3457  1.5016 -0.0769
12470SOL     OW39148   7.006   8.325   5.216 -0.0493 -0.1574 -0.1486
12470SOL    HW139149   6.967   8.242   5.191 -1.9174  0.4431  0.6030
12470SOL    HW239150   6.950   8.391   5.175  0.2757  0.7491  0.8282
12471SOL     OW39151   4.708   2.861   1.778  0.4015 -0.3602 -0.2639
12471SOL    HW139152   4.755   2.778   1.780 -0.7171 -1.0755 -1.7070
12471SOL    HW239153   4.621   2.838   1.745 -0.5212  1.1225  0.9868
12472SOL     OW39154   4.501   4.756   4.692  0.0709  0.2755  0.1712
12472SOL    HW139155   4.568   4.763   4.760  0.2383 -1.3352  0.1999
12472SOL    HW239156   4.550   4.730   4.614 -0.4923 -0.7766  0.1578
12473SOL     OW39157   1.228   6.800   8.891  0.0385 -0.3411  0.9409
12473SOL    HW139158   1.289   6.846   8.949 -1.4126  0.0859  2.2327
12473SOL    HW239159   1.201   6.866   8.827  0.2875 -0.2710  0.9104
12474SOL     OW39160   6.316   8.898   2.389 -0.1843  0.0530  0.3582
12474SOL    HW139161   6.385   8.922   2.327 -0.2419  0.3107  0.3915
12474SOL    HW239162   6.335   8.949   2.468 -0.3831  0.0873  0.3853
12475SOL     OW39163   6.751   4.101   1.518 -0.0965  0.0498 -0.4026
12475SOL    HW139164   6.717   4.014   1.540  0.1682 -0.2099 -0.9791
12475SOL    HW239165   6.704   4.125   1.438 -1.0216  0.9558  0.3893
12476SOL     OW39166   3.169   1.582   5.668 -0.3095 -0.1563 -0.2999
12476SOL    HW139167   3.260   1.556   5.652 -1.1207 -2.3056 -1.7872
12476SOL    HW239168   3.121   1.550   5.592 -2.2893  1.2670  0.2757
12477SOL     OW39169   1.548   3.230   4.816 -0.4441  0.0094  0.5109
12477SOL    HW139170   1.569   3.233   4.909  0.6893 -0.5792  0.2966
12477SOL    HW239171   1.599   3.302   4.777 -0.9749  0.3052  0.3523
12478SOL     OW39172   4.948   4.634   4.749  0.3337  0.9435  0.5199
12478SOL    HW139173   4.913   4.722   4.734  0.4138  0.8475 -0.2428
12478SOL    HW239174   5.043   4.645   4.750  0.3849  0.7105 -0.6476
12479SOL     OW39175   3.573   7.081   4.259 -0.1083  0.1593 -0.5003
12479SOL    HW139176   3.481   7.056   4.255 -0.3947  1.2741 -3.3041
12479SOL    HW239177   3.616   7.026   4.192  1.4862 -0.9467  1.3225
12480SOL     OW39178   8.972   0.929   1.345 -0.4950 -0.0945  0.4890
12480SOL    HW139179   8.894   0.877   1.364 -0.5968 -0.1099  0.0489
12480SOL    HW239180   8.939   1.006   1.298 -0.1161 -0.8456 -1.0944
12481SOL     OW39181   6.111   4.898   5.440 -0.0487  0.0338 -0.1595
12481SOL    HW139182   6.028   4.877   5.399 -0.4251 -0.0668  0.6346
12481SOL    HW239183   6.088   4.949   5.518  0.7040  1.1646 -0.6374
12482SOL     OW39184   2.566   1.396   5.326  0.0993  0.1691 -0.3631
12482SOL    HW139185   2.592   1.409   5.417 -1.2382  0.3008  0.0230
12482SOL    HW239186   2.586   1.305   5.307 -1.4703 -0.4510  0.7334
12483SOL     OW39187   4.793   7.429   7.399  0.2794 -0.1049 -0.4072
12483SOL    HW139188   4.774   7.337   7.383  0.3372 -0.2697  0.4361
12483SOL    HW239189   4.731   7.476   7.343 -2.7048 -0.6083  2.1553
12484SOL     OW39190   0.639   2.807   6.798 -0.0570  0.1279  0.1760
12484SOL    HW139191   0.720   2.814   6.747 -0.4291  1.1627 -0.3056
12484SOL    HW239192   0.603   2.722   6.773 -0.4432  0.7871 -1.6518
12485SOL     OW39193   4.079   1.961   3.915  0.7581 -0.0653 -0.4471
12485SOL    HW139194   4.103   2.051   3.893 -1.6179  0.2260 -2.3144
12485SOL    HW239195   4.153   1.909   3.884  1.3808  1.1201 -1.0292
12486SOL     OW39196   9.085   0.011   6.711  0.1096  0.1150  0.5115
12486SOL    HW139197   9.118  -0.031   6.791 -1.1975 -1.5092  0.2583
12486SOL    HW239198   9.003   0.051   6.738  1.1536  2.3052  0.6506
12487SOL     OW39199   5.175   9.535   3.713  0.2118 -0.5980  0.0191
12487SOL    HW139200   5.142   9.600   3.650  1.4821 -0.8135 -0.9019
12487SOL    HW239201   5.205   9.587   3.788 -1.9160 -0.3770  0.8066
12488SOL     OW39202   6.115   1.338   8.390 -0.2264  0.4552  0.5183
12488SOL    HW139203   6.037   1.388   8.367  0.4829  1.5000  0.3268
12488SOL    HW239204   6.176   1.403   8.424 -0.2293 -0.6254  2.8208
12489SOL     OW39205   5.216   2.318   1.341  0.0112  0.1993  0.3785
12489SOL    HW139206   5.232   2.402   1.384 -0.6116 -0.5065  2.0967
12489SOL    HW239207   5.134   2.331   1.293  1.2869  1.3401 -1.6680
12490SOL     OW39208   0.383   1.865   4.075 -0.2705 -0.0060  0.2899
12490SOL    HW139209   0.429   1.885   3.993 -0.5713 -0.4851  0.0001
12490SOL    HW239210   0.341   1.948   4.099 -1.7602 -0.3205 -1.0676
12491SOL     OW39211   3.503   9.300   1.282 -0.6554  0.2162 -0.3579
12491SOL    HW139212   3.567   9.263   1.221  0.7191 -0.5022  1.4153
12491SOL    HW239213   3.465   9.225   1.326 -0.8639  0.7363  0.3736
12492SOL     OW39214   1.084   2.972   8.094 -0.1795 -0.3289 -0.1411
12492SOL    HW139215   1.141   2.965   8.018  1.0292  0.8199  0.6145
12492SOL    HW239216   1.122   3.043   8.146 -1.2906 -0.7148  1.2651
12493SOL     OW39217   0.126   6.077   2.319 -1.2806 -0.2323 -0.6042
12493SOL    HW139218   0.063   6.112   2.382  0.8821  1.4659  0.7461
12493SOL    HW239219   0.155   5.995   2.358 -0.6210  0.3662  0.1982
12494SOL     OW39220   1.873   7.901   7.536 -0.4722  0.2693 -0.6190
12494SOL    HW139221   1.787   7.860   7.526  0.5935 -1.9814 -1.1547
12494SOL    HW239222   1.875   7.970   7.470 -1.6678  0.0179 -0.9410
12495SOL     OW39223   6.000   8.475   3.257 -0.5042  0.0294 -0.2761
12495SOL    HW139224   6.002   8.464   3.352 -0.3494 -0.4349 -0.3274
12495SOL    HW239225   6.088   8.502   3.234 -1.1335  2.4779 -0.0435
12496SOL     OW39226   8.235   6.961   3.774  0.2359 -0.4731 -0.1472
12496SOL    HW139227   8.193   6.905   3.839 -1.3470  2.0301  1.1560
12496SOL    HW239228   8.204   6.927   3.690 -2.5683 -0.2190  0.6875
12497SOL     OW39229   8.626   8.788   7.373  0.5021 -0.5345  0.1640
12497SOL    HW139230   8.652   8.879   7.388  0.8187 -0.7046  0.6569
12497SOL    HW239231   8.537   8.794   7.339  1.0297  0.0422 -1.1830
12498SOL     OW39232   1.976   4.016   4.943 -0.0841  0.4043  0.5269
12498SOL    HW139233   1.995   4.110   4.944 -0.0399  0.4046  0.1000
12498SOL    HW239234   1.917   4.002   5.017 -0.8244  0.9312  0.0515
12499SOL     OW39235   8.933   4.646   6.440  0.1962 -0.5980  0.6619
12499SOL    HW139236   9.026   4.667   6.428 -0.4153  2.8670  0.9647
12499SOL    HW239237   8.897   4.647   6.351 -0.3119  2.9591  0.7669
12500SOL     OW39238   8.208   2.867   7.639 -0.0373 -0.1262  0.5229
12500SOL    HW139239   8.303   2.868   7.656  0.0747 -0.0775 -0.0782
12500SOL    HW239240   8.182   2.959   7.642  0.2068  0.0037 -0.7301
12501SOL     OW39241   6.096   2.977   3.500 -0.2645 -0.1102 -0.1597
12501SOL    HW139242   6.043   2.957   3.423  0.5993 -1.0589 -0.5350
12501SOL    HW239243   6.151   2.900   3.512 -0.2506  0.0953  1.3113
12502SOL     OW39244   0.622   3.049   9.462  0.2963  0.1548  0.0842
12502SOL    HW139245   0.663   2.992   9.397 -0.6022 -0.9738  0.4667
12502SOL    HW239246   0.677   3.040   9.540  0.5496  0.3566 -0.0722
12503SOL     OW39247   7.994   8.012   3.414  0.5133  0.2270 -0.0288
12503SOL    HW139248   7.957   8.089   3.455 -0.0351  0.2188 -0.4962
12503SOL    HW239249   8.052   8.047   3.346  0.2666  0.2335 -0.2388
12504SOL     OW39250   8.916   4.536   8.574 -0.0721  0.1868  0.0655
12504SOL    HW139251   8.865   4.584   8.640  0.4109 -0.0330  0.6045
12504SOL    HW239252   8.969   4.476   8.624  0.3230  0.0303 -0.5331
12505SOL     OW39253   6.333   0.397   7.651 -0.1425  0.4811 -0.5807
12505SOL    HW139254   6.251   0.350   7.666  0.1647  0.1398  0.0623
12505SOL    HW239255   6.319   0.482   7.692  0.5203 -0.2780  1.3193
12506SOL     OW39256   0.956   2.821   4.189  0.5750 -0.2168 -0.3433
12506SOL    HW139257   0.912   2.848   4.270  1.4978 -0.4164  0.2459
12506SOL    HW239258   0.980   2.903   4.146  0.6126 -0.1088 -0.1161
12507SOL     OW39259   8.550   2.277   3.166  0.0834 -0.2833  0.6426
12507SOL    HW139260   8.548   2.273   3.070  1.0039 -0.8270  0.6349
12507SOL    HW239261   8.462   2.253   3.193 -0.2544  0.1060 -0.0750
12508SOL     OW39262   7.401   3.158   0.351 -0.4895 -0.2139 -0.1499
12508SOL    HW139263   7.413   3.080   0.297 -2.4451 -0.1788 -0.7291
12508SOL    HW239264   7.489   3.189   0.370  0.4025 -3.1697  1.0339
12509SOL     OW39265   8.652   8.903   4.124 -0.2116 -0.3985  0.5449
12509SOL    HW139266   8.697   8.875   4.045  0.6025 -0.7995  1.1436
12509SOL    HW239267   8.663   8.831   4.186 -0.9612 -0.1559  0.9886
12510SOL     OW39268   7.692   1.941   5.445 -0.4193  0.9207 -0.3809
12510SOL    HW139269   7.615   1.943   5.388 -0.6697 -1.0819 -0.1648
12510SOL    HW239270   7.680   2.015   5.504 -1.9266  0.9438 -0.6753
12511SOL     OW39271   9.076   1.662   1.390  0.0081  0.0121  0.0506
12511SOL    HW139272   9.010   1.625   1.331  0.5650 -2.2557  0.7684
12511SOL    HW239273   9.059   1.757   1.388 -1.3812 -0.2174 -2.0092
12512SOL     OW39274   7.351   4.938   8.030 -0.0258 -0.3892  0.0256
12512SOL    HW139275   7.407   4.894   8.095 -0.1849 -1.1132 -0.3106
12512SOL    HW239276   7.374   4.896   7.947  0.6103  0.9413 -0.4985
12513SOL     OW39277   2.777   2.781   7.806  0.2046  0.0949  0.0407
12513SOL    HW139278   2.868   2.765   7.781  0.9189 -1.0611  2.9326
12513SOL    HW239279   2.729   2.705   7.774  0.2048  0.7155 -1.5121
12514SOL     OW39280   0.954   6.272   3.115 -0.1160  0.3078  0.4000
12514SOL    HW139281   0.968   6.217   3.192 -0.8211  0.0770  0.3643
12514SOL    HW239282   0.980   6.217   3.042 -0.2681  0.2284  0.4064
12515SOL     OW39283   8.474   8.177   2.566  0.2522  0.8125 -0.1125
12515SOL    HW139284   8.504   8.187   2.656 -1.3239 -0.0668  0.5629
12515SOL    HW239285   8.498   8.259   2.523  0.1195  1.6810  1.3959
12516SOL     OW39286   5.637   0.116   7.533  0.6241 -0.3472  0.6108
12516SOL    HW139287   5.629   0.095   7.440  1.1486  0.0586  0.4671
12516SOL    HW239288   5.596   0.043   7.578  0.3894 -0.5611  0.0597
12517SOL     OW39289   3.175   1.310   0.914  0.4162  0.2480  0.3170
12517SOL    HW139290   3.196   1.226   0.873  0.2976  0.0444  0.6735
12517SOL    HW239291   3.120   1.287   0.989  1.0164  0.5841  0.8707
12518SOL     OW39292   1.996   4.250   9.600  0.0942 -0.4169  0.4149
12518SOL    HW139293   2.060   4.246   9.530 -0.8370  0.5566 -0.5232
12518SOL    HW239294   2.017   4.331   9.647  1.2228 -1.4669  1.8032
12519SOL     OW39295   4.651   2.644   0.653 -0.7857  0.0140  0.3250
12519SOL    HW139296   4.741   2.662   0.624 -1.3498 -1.3981 -2.7400
12519SOL    HW239297   4.622   2.726   0.693  1.1630  1.2387 -0.5891
12520SOL     OW39298   8.342   4.490   1.325  0.2466 -0.6546  0.3818
12520SOL    HW139299   8.301   4.553   1.266  1.0566  0.1391  0.6426
12520SOL    HW239300   8.284   4.487   1.401 -0.3413 -1.0216 -0.0765
12521SOL     OW39301   9.485   8.726   6.037  0.1726  0.9435  0.0529
12521SOL    HW139302   9.575   8.711   6.009  0.1782  1.3399 -0.1453
12521SOL    HW239303   9.482   8.693   6.127  0.3638  0.4033 -0.1326
12522SOL     OW39304   8.346   4.584   3.365  0.0884 -0.3228  0.3301
12522SOL    HW139305   8.377   4.544   3.283  2.1861  1.8971 -0.0765
12522SOL    HW239306   8.397   4.540   3.433  3.1456  2.1009 -0.1950
12523SOL     OW39307   8.678   6.591   0.470 -0.6303 -0.1540 -0.2012
12523SOL    HW139308   8.738   6.618   0.540 -0.8798 -0.3232  0.0813
12523SOL    HW239309   8.608   6.545   0.515 -2.0350  1.7718 -0.2894
12524SOL     OW39310   1.168   0.361   7.842 -0.3646 -0.0504 -0.1714
12524SOL    HW139311   1.127   0.279   7.872 -0.3330 -0.5156 -1.3684
12524SOL    HW239312   1.224   0.387   7.916 -0.2864 -1.1647  0.1892
12525SOL     OW39313   6.939   1.485   5.691  0.3824  0.8170  0.5609
12525SOL    HW139314   6.949   1.567   5.643  1.9280  1.1401  1.3770
12525SOL    HW239315   6.970   1.504   5.779 -1.5009 -0.0218  1.4819
12526SOL     OW39316   1.233   6.572   7.167  0.2918  0.4971  0.6789
12526SOL    HW139317   1.267   6.661   7.159 -2.1996  1.3996 -1.4615
12526SOL    HW239318   1.254   6.531   7.082  0.2882 -0.5394  1.1647
12527SOL     OW39319   4.488   1.459   4.567 -1.1714 -0.5774  0.8141
12527SOL    HW139320   4.467   1.462   4.660 -2.4611 -0.2990  0.5247
12527SOL    HW239321   4.447   1.378   4.535  0.0498 -1.1612  0.6560
12528SOL     OW39322   8.431   5.300   0.071 -0.4834  0.1204 -0.6175
12528SOL    HW139323   8.479   5.380   0.092  1.6266 -1.5236  1.2771
12528SOL    HW239324   8.468   5.271  -0.013 -0.3402  0.4508 -0.6696
12529SOL     OW39325   3.078   2.553   6.546 -0.4396 -0.3899 -0.3469
12529SOL    HW139326   3.083   2.559   6.451 -1.2925 -1.8610 -0.5060
12529SOL    HW239327   3.087   2.460   6.566 -0.6909 -0.1550  0.9819
12530SOL     OW39328   5.857   6.838   5.964 -0.0107 -0.1078 -0.1163
12530SOL    HW139329   5.917   6.764   5.968 -1.1452 -1.0749 -0.5338
12530SOL    HW239330   5.848   6.867   6.055 -0.6817 -1.4145  0.2522
12531SOL     OW39331   0.184   8.841   8.970 -0.4574 -0.7516 -0.0116
12531SOL    HW139332   0.245   8.876   8.904 -0.5551 -0.4613  0.0505
12531SOL    HW239333   0.104   8.892   8.958  0.0719  0.5093  1.4557
12532SOL     OW39334   9.351   1.398   3.614  0.1677  0.2560 -0.3287
12532SOL    HW139335   9.353   1.303   3.607  0.4108  0.2197  0.2118
12532SOL    HW239336   9.428   1.427   3.565 -0.5126  0.2480 -1.4562
12533SOL     OW39337   7.035   3.865   8.052 -0.5233 -0.3081 -0.1756
12533SOL    HW139338   7.087   3.884   7.974 -0.8676 -0.8732 -0.5569
12533SOL    HW239339   7.062   3.930   8.116  2.4905 -2.0741  0.5290
12534SOL     OW39340   5.803   5.611   0.700 -0.2407  0.1304 -0.5646
12534SOL    HW139341   5.728   5.560   0.669 -1.6754  2.4314 -1.1514
12534SOL    HW239342   5.878   5.552   0.693 -2.0572 -2.4844  0.6539
12535SOL     OW39343   1.748   4.834   7.949  0.3850 -0.2604 -0.3684
12535SOL    HW139344   1.728   4.798   7.863  2.3419  1.8663 -1.8417
12535SOL    HW239345   1.843   4.826   7.958  0.3525  0.5667  1.0993
12536SOL     OW39346   6.569   4.187   5.054 -0.0734 -0.0136  0.1189
12536SOL    HW139347   6.651   4.143   5.032  0.1601  0.9377 -1.0255
12536SOL    HW239348   6.563   4.180   5.149  2.8057  2.3636  0.6233
12537SOL     OW39349   6.361   7.699   5.928  0.1967 -0.1618 -0.0062
12537SOL    HW139350   6.386   7.622   5.875 -0.4292 -1.7797  1.9272
12537SOL    HW239351   6.393   7.679   6.015 -2.1860  0.5893  1.1289
12538SOL     OW39352   7.717   8.579   2.583  0.2338 -0.0870 -0.2356
12538SOL    HW139353   7.693   8.495   2.544  1.2156 -0.7385  0.5134
12538SOL    HW239354   7.810   8.571   2.601  0.8394  1.9623 -2.0992
12539SOL     OW39355   4.116   8.804   7.757 -0.0852 -0.1612 -0.2708
12539SOL    HW139356   4.207   8.823   7.780 -0.5260  0.3847  1.1631
12539SOL    HW239357   4.110   8.708   7.758 -0.3010 -0.2502  3.2690
12540SOL     OW39358   2.703   3.434   3.820 -0.2941  0.1143 -0.3002
12540SOL    HW139359   2.751   3.359   3.785  0.0759 -0.6548  1.7176
12540SOL    HW239360   2.612   3.404   3.824 -0.0961 -0.4010  0.8277
12541SOL     OW39361   0.884   4.589   0.673 -0.1074 -0.3788  0.1707
12541SOL    HW139362   0.840   4.674   0.674  2.4039  1.0901 -1.9595
12541SOL    HW239363   0.931   4.585   0.756  1.8455  1.6372 -0.7223
12542SOL     OW39364   6.830   1.574   3.629  0.3780  0.1578  0.5200
12542SOL    HW139365   6.785   1.497   3.595 -0.4017  1.0741 -0.6048
12542SOL    HW239366   6.917   1.571   3.588  0.2507  0.0234  0.2546
12543SOL     OW39367   4.465   5.373   4.683 -0.5301 -0.0596  0.1802
12543SOL    HW139368   4.495   5.328   4.604  1.0883 -0.6695  1.0970
12543SOL    HW239369   4.515   5.332   4.754 -2.1114  0.3027  1.5672
12544SOL     OW39370   8.724   2.362   1.733 -0.6607 -0.3583 -0.3552
12544SOL    HW139371   8.681   2.434   1.779  1.6144  0.4371  0.7059
12544SOL    HW239372   8.669   2.285   1.750 -2.8984  0.9675 -1.1201
12545SOL     OW39373   4.724   2.044   2.935 -0.3623  0.1822  0.3252
12545SOL    HW139374   4.785   2.076   2.868 -0.3060  0.8999  0.7075
12545SOL    HW239375   4.641   2.032   2.888 -0.4967  1.2980  0.2424
12546SOL     OW39376   0.064   1.632   5.331  1.0032  0.1931 -0.0832
12546SOL    HW139377   0.128   1.604   5.397  1.3540  0.7645 -0.1679
12546SOL    HW239378   0.079   1.726   5.323  0.3686  0.2734 -0.3498
12547SOL     OW39379   8.644   5.511   8.942  0.0115 -0.1288  0.0548
12547SOL    HW139380   8.592   5.582   8.905  1.3447  0.3879 -0.9109
12547SOL    HW239381   8.731   5.522   8.903  0.6323 -1.4458  0.9823
12548SOL     OW39382   2.565   2.550   5.324 -0.1629 -0.2053  0.9281
12548SOL    HW139383   2.488   2.502   5.292 -0.9728  1.5119  0.1468
12548SOL    HW239384   2.617   2.566   5.245  0.0915  0.1782  1.1711
12549SOL     OW39385   0.962   5.217   3.139  0.0810  0.2772 -0.2255
12549SOL    HW139386   1.032   5.173   3.091  0.4914  1.5558 -0.8252
12549SOL    HW239387   0.926   5.280   3.077  0.0573  1.3779  0.8770
12550SOL     OW39388   4.819   7.330   0.775 -0.5313  1.0310  0.4527
12550SOL    HW139389   4.809   7.423   0.754 -0.0811  1.0920  0.5031
12550SOL    HW239390   4.784   7.322   0.864  0.1335  1.3004  0.7430
12551SOL     OW39391   4.409   4.635   6.600 -0.0991  0.2492 -0.1907
12551SOL    HW139392   4.445   4.672   6.520 -1.5846  2.0475 -0.0771
12551SOL    HW239393   4.314   4.636   6.588 -0.2899 -1.7380  0.6418
12552SOL     OW39394   8.993   8.883   8.963  0.3065  0.0516 -0.3155
12552SOL    HW139395   9.013   8.816   9.029 -2.0189 -1.8649 -1.3793
12552SOL    HW239396   8.922   8.934   9.002  0.0654 -0.0301 -0.6363
12553SOL     OW39397   2.162   8.189   2.043 -0.0438 -0.3656 -0.2581
12553SOL    HW139398   2.113   8.159   1.966 -1.0740 -0.2374  0.3257
12553SOL    HW239399   2.253   8.194   2.014 -0.4114 -0.3803 -1.4487
12554SOL     OW39400   5.545   8.093   2.604  0.0076 -0.2231 -0.2699
12554SOL    HW139401   5.553   8.168   2.545 -0.3517 -0.0747 -0.1303
12554SOL    HW239402   5.632   8.085   2.644  0.2349 -0.2851 -0.7655
12555SOL     OW39403   5.700   2.763   7.468 -0.4627 -0.1393 -0.5412
12555SOL    HW139404   5.687   2.837   7.527  0.0699  0.1889 -0.8234
12555SOL    HW239405   5.619   2.758   7.417  0.2153  1.5236 -1.8980
12556SOL     OW39406   3.479   3.053   0.890 -0.0146 -0.6622 -0.4907
12556SOL    HW139407   3.497   2.986   0.823 -0.2925 -0.6523 -0.5769
12556SOL    HW239408   3.488   3.136   0.843 -1.4469 -0.6759 -0.8416
12557SOL     OW39409   1.481   1.047   6.681  0.1620 -0.5425 -0.8752
12557SOL    HW139410   1.491   1.137   6.651  1.1836  0.0469  1.0572
12557SOL    HW239411   1.394   1.021   6.651  0.1237  0.8237 -2.0632
12558SOL     OW39412   9.060   6.361   9.217  0.0178  0.1924  0.0783
12558SOL    HW139413   9.044   6.273   9.251 -1.4216 -0.1562 -1.3725
12558SOL    HW239414   8.987   6.413   9.249 -1.0019  0.0140 -1.8074
12559SOL     OW39415   5.643   7.276   2.721  0.5848 -0.2248 -0.1493
12559SOL    HW139416   5.642   7.368   2.693 -0.5683 -0.3184 -0.4804
12559SOL    HW239417   5.619   7.279   2.814  0.6157 -0.1860 -0.1427
12560SOL     OW39418   1.600   2.664   3.139  0.2186  0.1359  0.6205
12560SOL    HW139419   1.548   2.609   3.197  0.6024  0.8917  1.7163
12560SOL    HW239420   1.546   2.742   3.125 -0.2516 -0.4121 -0.7831
12561SOL     OW39421   1.889   7.981   0.895  0.2245  0.9313 -0.6317
12561SOL    HW139422   1.893   7.949   0.804  3.7910 -0.0887 -0.2872
12561SOL    HW239423   1.837   7.915   0.941 -0.5906  0.8017 -1.6964
12562SOL     OW39424   4.119   6.055   5.769 -0.0574 -0.2841  0.3272
12562SOL    HW139425   4.058   6.118   5.728  1.1226  0.7446  0.0994
12562SOL    HW239426   4.172   6.024   5.696  0.5364 -0.1938  0.7226
12563SOL     OW39427   3.468   2.388   3.715  0.3222 -0.2240 -0.3140
12563SOL    HW139428   3.386   2.340   3.724 -1.9445  3.5028  0.9594
12563SOL    HW239429   3.531   2.337   3.765 -1.7615 -2.0184  0.6491
12564SOL     OW39430   2.028   2.069   2.224 -0.3187 -0.0298  0.0476
12564SOL    HW139431   2.013   2.163   2.212  1.0194  0.1387 -0.5021
12564SOL    HW239432   2.041   2.036   2.135  2.4976 -0.1001  0.4015
12565SOL     OW39433   6.545   8.042   8.688 -0.3544  0.2584  0.1876
12565SOL    HW139434   6.640   8.057   8.684 -0.0220 -1.6190 -0.0786
12565SOL    HW239435   6.530   8.013   8.779  0.2042 -3.9760 -0.8464
12566SOL     OW39436   4.552   0.920   4.085 -0.0851 -0.2173 -0.8027
12566SOL    HW139437   4.458   0.910   4.074 -0.1301 -0.9540  0.1380
12566SOL    HW239438   4.590   0.847   4.036 -0.1913 -2.0874  1.6890
12567SOL     OW39439   7.517   0.835   9.171 -0.7075 -0.1916 -0.2547
12567SOL    HW139440   7.518   0.926   9.141 -0.5390 -0.8358 -2.3485
12567SOL    HW239441   7.609   0.815   9.189 -0.4858 -0.4594 -1.5676
12568SOL     OW39442   8.721   7.045   4.955  0.0749 -0.1190  0.3352
12568SOL    HW139443   8.797   7.059   5.012  0.2844 -0.6280  0.1890
12568SOL    HW239444   8.707   7.129   4.913 -1.1729  0.7974  2.4372
12569SOL     OW39445   9.387   1.281   8.160 -0.2411 -0.8297 -0.0657
12569SOL    HW139446   9.425   1.214   8.217  1.1982  0.3883  0.4791
12569SOL    HW239447   9.296   1.252   8.146 -0.1678 -1.9815  1.5345
12570SOL     OW39448   3.003   3.073   1.575 -0.1538  0.3198 -0.0456
12570SOL    HW139449   3.053   3.125   1.637  1.9616 -2.5718  0.9007
12570SOL    HW239450   2.939   3.026   1.628 -1.7796  1.5364 -0.8307
12571SOL     OW39451   6.011   1.332   5.966  0.2855  0.0070  0.8145
12571SOL    HW139452   6.061   1.255   5.941 -1.4026 -1.1744  0.8943
12571SOL    HW239453   5.983   1.370   5.882  0.2809 -0.0539  0.7885
12572SOL     OW39454   4.243   8.809   5.583  0.5707 -0.1794 -0.5763
12572SOL    HW139455   4.240   8.744   5.653 -0.0942  1.3034  0.8303
12572SOL    HW239456   4.317   8.782   5.529  1.3418 -1.1733  0.8918
12573SOL     OW39457   8.392   0.425   1.376  0.0820  0.0366  0.9052
12573SOL    HW139458   8.471   0.424   1.322 -2.0329 -1.1559 -2.5234
12573SOL    HW239459   8.369   0.517   1.386 -0.5411  0.3366 -2.2584
12574SOL     OW39460   8.481   5.314   4.355 -0.1773  0.2835 -0.3359
12574SOL    HW139461   8.420   5.263   4.302 -0.6948  1.0369 -0.4767
12574SOL    HW239462   8.532   5.248   4.402 -1.4471 -0.3629  0.1984
12575SOL     OW39463   0.503   6.670   4.180 -0.1156 -0.0189  0.0154
12575SOL    HW139464   0.489   6.756   4.218  0.2504 -0.1636  0.4865
12575SOL    HW239465   0.473   6.608   4.247 -0.5325 -0.2635 -0.3818
12576SOL     OW39466   0.843   9.286   9.143 -0.2222 -0.2859 -0.5443
12576SOL    HW139467   0.931   9.303   9.175 -0.5297  0.5242 -0.0780
12576SOL    HW239468   0.844   9.194   9.116  0.5867 -0.4618  0.0359
12577SOL     OW39469   6.909   8.257   4.043 -0.9632  0.5016 -0.6036
12577SOL    HW139470   6.937   8.234   3.954  0.0130 -1.9907  0.2496
12577SOL    HW239471   6.978   8.221   4.100 -1.1751  2.6564  1.1702
12578SOL     OW39472   7.886   4.537   6.893 -0.0095 -0.0587 -0.2250
12578SOL    HW139473   7.938   4.609   6.857 -0.0638 -0.1546 -0.4996
12578SOL    HW239474   7.830   4.578   6.958  2.5969 -0.3737  2.4276
12579SOL     OW39475   4.439   0.232   8.393  0.4648 -0.1409 -0.4948
12579SOL    HW139476   4.376   0.198   8.329  0.7902  0.1363 -0.9681
12579SOL    HW239477   4.523   0.196   8.365  0.3228 -1.7936  1.0420
12580SOL     OW39478   4.088   2.983   0.202 -0.4360 -0.1135  0.1923
12580SOL    HW139479   4.089   2.975   0.107 -0.0186  0.3361  0.1496
12580SOL    HW239480   4.021   3.049   0.220  1.1783  1.6971  0.0092
12581SOL     OW39481   1.743   3.227   1.821  0.3038 -0.2514 -0.2492
12581SOL    HW139482   1.678   3.267   1.879 -0.8456 -0.3451 -1.4467
12581SOL    HW239483   1.821   3.281   1.833 -1.0778  2.2614 -1.5618
12582SOL     OW39484   7.245   8.337   5.324  0.8898  0.1948  0.4668
12582SOL    HW139485   7.226   8.371   5.412  0.2941  0.0909  0.3819
12582SOL    HW239486   7.159   8.333   5.281  1.2360  0.7275 -0.2964
12583SOL     OW39487   3.996   6.557   7.562  0.0170 -0.6112  0.0588
12583SOL    HW139488   3.927   6.592   7.505  1.3821  1.4611 -0.4051
12583SOL    HW239489   3.971   6.586   7.650 -0.4559 -1.1368  0.1047
12584SOL     OW39490   0.286   7.458   2.662 -0.6611  0.1096  0.7756
12584SOL    HW139491   0.204   7.479   2.706 -0.5293 -0.7282  1.4456
12584SOL    HW239492   0.336   7.409   2.727  0.6321  1.1246  0.6012
12585SOL     OW39493   5.192   8.521   7.966 -0.2007 -0.7028 -0.2574
12585SOL    HW139494   5.221   8.517   7.875  0.4979 -1.2452 -0.0212
12585SOL    HW239495   5.262   8.479   8.015  0.0578  0.7523  0.6912
12586SOL     OW39496   5.114   4.574   2.847  0.4442  0.2783  0.0356
12586SOL    HW139497   5.169   4.651   2.858  0.6116  0.2870 -0.8025
12586SOL    HW239498   5.113   4.559   2.752  2.3137 -2.1208  0.2956
12587SOL     OW39499   1.764   1.172   2.203 -0.1398  0.0246 -0.9083
12587SOL    HW139500   1.722   1.136   2.125 -0.4762 -2.1309  0.1892
12587SOL    HW239501   1.744   1.109   2.272  1.3081  1.1463  0.6109
12588SOL     OW39502   1.131   8.153   6.863  0.4497  0.3548  0.1283
12588SOL    HW139503   1.141   8.215   6.791  1.2987  0.0737 -0.0106
12588SOL    HW239504   1.037   8.151   6.881  0.0562 -0.4524 -1.7606
12589SOL     OW39505   5.032   3.808   5.053  0.3222  0.1689 -0.0837
12589SOL    HW139506   5.025   3.894   5.096  0.6421  0.3503 -0.3894
12589SOL    HW239507   4.948   3.765   5.072  0.8987 -0.2383  1.7481
12590SOL     OW39508   7.151   2.875   0.998 -0.5948 -0.2713  0.5488
12590SOL    HW139509   7.166   2.910   1.086  0.0562  1.7360 -0.2986
12590SOL    HW239510   7.218   2.916   0.944 -2.3173  0.2696 -1.3012
12591SOL     OW39511   5.116   3.063   7.621 -0.0425 -0.3987  0.0895
12591SOL    HW139512   5.101   3.096   7.532  1.2632  0.5370  0.1757
12591SOL    HW239513   5.095   2.970   7.617  1.6212 -0.7623 -1.6591
12592SOL     OW39514   4.217   8.368   4.262  0.0183  0.1193 -0.2231
12592SOL    HW139515   4.311   8.369   4.241  0.2141 -0.5530  0.5576
12592SOL    HW239516   4.177   8.422   4.194  0.8296 -0.5366 -1.2495
12593SOL     OW39517   4.675   3.548   9.295  0.2359  0.5576 -0.0396
12593SOL    HW139518   4.768   3.568   9.284  0.0236  1.7751  0.2413
12593SOL    HW239519   4.635   3.632   9.317 -0.7393 -0.1691  1.0976
12594SOL     OW39520   2.025   4.348   3.919 -0.4283 -0.4566 -0.2049
12594SOL    HW139521   1.963   4.295   3.868 -1.7532 -0.1740  1.0351
12594SOL    HW239522   1.977   4.430   3.936  1.0793  0.6273 -0.9509
12595SOL     OW39523   1.074   8.603   6.833  0.2658 -0.3542 -0.1344
12595SOL    HW139524   1.059   8.650   6.751  0.0614  2.5794  1.4398
12595SOL    HW239525   1.161   8.566   6.824  0.6131  0.7030 -1.3706
12596SOL     OW39526   9.382   0.144   8.693  0.2753 -0.3597 -0.0629
12596SOL    HW139527   9.335   0.225   8.675  1.9161  1.0607  1.6273
12596SOL    HW239528   9.417   0.155   8.781 -0.5803 -3.5174  0.8231
12597SOL     OW39529   0.039   5.140   7.375 -0.0585  0.2292  0.0462
12597SOL    HW139530   0.133   5.157   7.365 -0.2878  2.2906  0.8931
12597SOL    HW239531   0.034   5.047   7.398  1.5862 -0.4490 -1.9811
12598SOL     OW39532   2.754   7.861   0.211 -0.2344 -0.0530 -0.5315
12598SOL    HW139533   2.732   7.798   0.143 -0.3284  0.0889 -0.6342
12598SOL    HW239534   2.846   7.881   0.196  0.4293 -1.8006  0.8358
12599SOL     OW39535   8.916   6.432   2.587  0.6471  0.2326 -0.1034
12599SOL    HW139536   8.929   6.516   2.543 -2.1091  1.4990  1.2389
12599SOL    HW239537   8.909   6.369   2.516 -0.4631  1.6906 -1.3744
12600SOL     OW39538   7.576   5.996   0.302  0.1468  0.2322 -0.2059
12600SOL    HW139539   7.519   6.030   0.371 -1.6601  0.9627 -1.9575
12600SOL    HW239540   7.603   5.910   0.333 -1.2221  0.2310  1.0657
12601SOL     OW39541   9.279   7.727   8.577  0.0645  0.3515  1.0932
12601SOL    HW139542   9.332   7.733   8.656 -0.3333 -0.2008  1.4065
12601SOL    HW239543   9.190   7.708   8.608 -0.3451  1.3117  0.5812
12602SOL     OW39544   0.049   2.322   5.316 -0.3585 -0.3965  0.1880
12602SOL    HW139545  -0.035   2.315   5.362  0.2049  0.8265  1.4512
12602SOL    HW239546   0.114   2.290   5.379  0.3915  1.0236  0.1748
12603SOL     OW39547   5.466   4.610   0.524  0.4566  0.2797 -0.2259
12603SOL    HW139548   5.530   4.657   0.469 -0.3113  1.3899 -0.2018
12603SOL    HW239549   5.442   4.673   0.592 -0.9368  0.0164 -0.4518
12604SOL     OW39550   3.098   9.086   7.459 -0.1372  0.0967  0.0624
12604SOL    HW139551   3.153   9.149   7.411 -1.6485  1.2846 -0.1951
12604SOL    HW239552   3.011   9.097   7.421 -0.5582 -1.8415  0.3574
12605SOL     OW39553   5.865   0.020   1.643 -0.0273 -0.0428 -0.0336
12605SOL    HW139554   5.816  -0.037   1.584  0.0095 -0.1973  0.0862
12605SOL    HW239555   5.950   0.030   1.601 -0.3690  0.7269 -0.5570
12606SOL     OW39556   7.018   1.511   0.098  0.0507 -0.0795  0.3415
12606SOL    HW139557   7.001   1.525   0.005 -1.1705  0.2555  0.5996
12606SOL    HW239558   6.992   1.421   0.114  1.0494 -0.4077  0.2026
12607SOL     OW39559   3.347   4.658   5.142 -0.5971 -0.1855  0.2984
12607SOL    HW139560   3.308   4.727   5.089 -0.0036 -0.2164 -0.1929
12607SOL    HW239561   3.356   4.697   5.229 -1.3489 -0.0502  0.3242
12608SOL     OW39562   8.546   3.580   2.892 -0.0332 -0.5954  0.0510
12608SOL    HW139563   8.462   3.551   2.857  1.1078 -2.1534 -1.5691
12608SOL    HW239564   8.607   3.571   2.819  1.8123 -0.8045  1.5408
12609SOL     OW39565   7.035   3.982   1.452  0.5784  0.9163 -0.1341
12609SOL    HW139566   6.968   4.023   1.506 -0.3709 -0.0235 -0.5535
12609SOL    HW239567   6.988   3.949   1.376  1.4983  0.1547 -0.3952
12610SOL     OW39568   8.059   6.778   6.946 -0.2868 -0.0956 -0.5603
12610SOL    HW139569   8.123   6.848   6.959  0.0459 -0.1967 -1.5519
12610SOL    HW239570   8.061   6.761   6.852 -0.2199 -1.5744 -0.3176
12611SOL     OW39571   4.554   4.467   0.215 -0.3168 -0.3962 -0.2811
12611SOL    HW139572   4.502   4.469   0.134  0.0280 -1.3997 -0.5508
12611SOL    HW239573   4.567   4.374   0.232  1.9403 -0.2013 -0.6015
12612SOL     OW39574   1.353   5.345   2.086 -0.0474  0.1490  0.1330
12612SOL    HW139575   1.410   5.296   2.026 -0.5043  0.5464 -0.6408
12612SOL    HW239576   1.357   5.296   2.168  1.5377  0.2440  0.1577
12613SOL     OW39577   9.139   5.378   7.298  0.4305 -0.3399  0.5204
12613SOL    HW139578   9.134   5.297   7.347  2.4548 -1.5556 -1.1040
12613SOL    HW239579   9.194   5.435   7.350  0.7735 -0.8064  0.6666
12614SOL     OW39580   2.607   0.138   5.669 -0.6677 -0.3906 -0.2036
12614SOL    HW139581   2.644   0.149   5.581  3.3643  1.0986  1.4031
12614SOL    HW239582   2.615   0.225   5.709 -0.1886 -1.4934  2.3048
12615SOL     OW39583   3.328   0.190   4.350  0.3649  0.2374  0.7674
12615SOL    HW139584   3.359   0.191   4.259 -0.7108  1.5885  0.3831
12615SOL    HW239585   3.247   0.139   4.346  0.2868  0.3483  0.9522
12616SOL     OW39586   2.243   1.490   7.977 -0.3465  0.3370 -0.3922
12616SOL    HW139587   2.201   1.492   8.063  0.4026 -0.9780  0.0395
12616SOL    HW239588   2.278   1.578   7.965 -1.3008  0.8173  0.2035
12617SOL     OW39589   9.500   4.848   6.885  0.0240  0.0379  0.3891
12617SOL    HW139590   9.479   4.783   6.818  0.5946  1.8278 -1.6498
12617SOL    HW239591   9.418   4.896   6.899 -0.0917 -0.3259  1.0073
12618SOL     OW39592   9.562   9.389   8.102 -0.4574  0.5494 -0.1608
12618SOL    HW139593   9.473   9.394   8.136  0.5196  0.7959  2.5898
12618SOL    HW239594   9.615   9.438   8.164  1.4844  1.4824 -2.3736
12619SOL     OW39595   7.422   0.162   1.712  0.1616  0.4467 -0.6714
12619SOL    HW139596   7.395   0.095   1.774 -1.9139  0.8078 -1.1131
12619SOL    HW239597   7.453   0.113   1.635 -0.2107 -0.0047 -0.5330
12620SOL     OW39598   0.489   3.477   8.665  0.5538  0.4147  0.1504
12620SOL    HW139599   0.509   3.391   8.703  0.6077  0.7489  0.8749
12620SOL    HW239600   0.547   3.483   8.589  0.6941 -0.1072  0.2124
12621SOL     OW39601   8.517   7.519   4.964  0.1546  0.0654 -0.1620
12621SOL    HW139602   8.609   7.521   4.990  0.1350 -1.6407  0.1420
12621SOL    HW239603   8.516   7.562   4.878  1.0269  1.1299  0.3251
12622SOL     OW39604   3.286   3.901   8.778  0.6710  0.0953  0.2557
12622SOL    HW139605   3.197   3.870   8.760  0.7254 -0.0656  0.2575
12622SOL    HW239606   3.288   3.991   8.747  0.4864  0.1205  0.3181
12623SOL     OW39607   2.456   2.796   4.121  0.3902  0.8856  0.2692
12623SOL    HW139608   2.387   2.747   4.075  0.4003  1.1002  0.0230
12623SOL    HW239609   2.537   2.767   4.080  0.8112 -1.9124  2.7766
12624SOL     OW39610   1.291   6.640   8.464 -0.7456  0.5071 -0.3400
12624SOL    HW139611   1.355   6.605   8.402 -1.2288  2.4991 -2.0625
12624SOL    HW239612   1.343   6.684   8.531 -0.2438  1.6431 -1.4353
12625SOL     OW39613   8.985   2.174   9.307 -0.4072  0.6149 -0.4832
12625SOL    HW139614   9.009   2.114   9.236 -0.4137  1.0048 -0.8206
12625SOL    HW239615   8.978   2.118   9.384 -0.6912  0.1359 -0.8458
12626SOL     OW39616   2.169   1.671   7.009 -0.3335  0.2633  0.5240
12626SOL    HW139617   2.075   1.658   6.996 -0.3731  1.5234 -0.5570
12626SOL    HW239618   2.194   1.602   7.071 -1.8317 -0.5163  0.3063
12627SOL     OW39619   4.082   4.970   2.390  0.0399 -0.4023 -0.1504
12627SOL    HW139620   4.161   4.941   2.344  1.1532 -0.5366  1.7579
12627SOL    HW239621   4.028   5.009   2.321  1.4770 -0.8613 -1.6175
12628SOL     OW39622   2.243   8.146   8.281 -0.0877  0.4588 -0.4600
12628SOL    HW139623   2.184   8.135   8.207  0.2980  2.2149 -1.0738
12628SOL    HW239624   2.210   8.222   8.328  0.6509  0.3886  0.2038
12629SOL     OW39625   4.631   8.960   5.615 -0.8441 -0.3419  0.0103
12629SOL    HW139626   4.605   8.947   5.706  1.6846  0.0223  0.8664
12629SOL    HW239627   4.712   8.911   5.607  1.8450  3.6967 -0.4651
12630SOL     OW39628   9.278   0.339   8.949 -0.2844 -0.5443  0.2372
12630SOL    HW139629   9.256   0.343   8.856 -1.6844  1.0327  0.6131
12630SOL    HW239630   9.195   0.352   8.995  0.5656 -0.0698  1.7084
12631SOL     OW39631   8.286   5.262   3.619  0.2255 -0.2927  0.3516
12631SOL    HW139632   8.281   5.303   3.706 -0.4110  0.2571  0.0639
12631SOL    HW239633   8.288   5.168   3.637 -1.5889 -0.2661  0.9340
12632SOL     OW39634   2.015   7.376   7.120  0.5684  0.4316  0.0639
12632SOL    HW139635   2.013   7.290   7.162  0.4108  0.3816 -0.0443
12632SOL    HW239636   1.980   7.436   7.186 -2.1347 -0.0140 -0.8336
12633SOL     OW39637   8.575   6.354   1.368 -0.5056 -0.0962  0.3349
12633SOL    HW139638   8.480   6.345   1.356 -0.2064 -0.0307 -2.7046
12633SOL    HW239639   8.592   6.447   1.356 -0.0197 -0.1102  0.8588
12634SOL     OW39640   6.336   7.484   2.273  0.5980  0.0077 -0.6074
12634SOL    HW139641   6.348   7.418   2.205  0.7392 -0.0781 -0.4997
12634SOL    HW239642   6.261   7.535   2.244 -0.0186 -0.6941 -0.2990
12635SOL     OW39643   1.166   0.983   7.249 -0.3243  0.0288 -0.0356
12635SOL    HW139644   1.132   1.072   7.233  0.8919  0.6264  0.5829
12635SOL    HW239645   1.258   0.989   7.226  0.2247 -0.5532  1.8640
12636SOL     OW39646   9.543   7.586   1.322  0.0568 -0.0960  0.8814
12636SOL    HW139647   9.519   7.503   1.365 -0.9015 -0.6364 -0.6378
12636SOL    HW239648   9.565   7.561   1.233 -3.0750  1.5289 -0.5194
12637SOL     OW39649   3.795   4.365   9.528  0.2357  0.3811  0.0425
12637SOL    HW139650   3.875   4.403   9.491  0.1418 -0.8705 -1.5627
12637SOL    HW239651   3.764   4.305   9.461 -1.1572 -0.4030  1.3289
12638SOL     OW39652   7.545   2.394   3.036  0.3145  0.1083 -0.6808
12638SOL    HW139653   7.455   2.428   3.033 -0.1898 -1.0503  0.3388
12638SOL    HW239654   7.560   2.374   3.128  1.0607 -1.1403 -1.0418
12639SOL     OW39655   6.780   8.498   7.701  0.2097  0.9641 -0.3258
12639SOL    HW139656   6.802   8.416   7.747 -1.4795  1.0561  0.7364
12639SOL    HW239657   6.794   8.566   7.767 -1.9679  1.1263  0.0226
12640SOL     OW39658   6.292   1.800   6.143 -0.4492  0.1256 -0.1245
12640SOL    HW139659   6.250   1.735   6.086  0.4181 -0.3850 -0.1982
12640SOL    HW239660   6.335   1.747   6.211  1.3045  0.5259 -0.8643
12641SOL     OW39661   5.808   6.575   1.925 -0.6046 -0.0878 -0.0321
12641SOL    HW139662   5.766   6.641   1.981  1.4146  1.6976 -0.4919
12641SOL    HW239663   5.736   6.518   1.898 -1.7628 -0.9208  4.0731
12642SOL     OW39664   0.284   5.998   4.082 -0.0701 -0.6284 -0.1148
12642SOL    HW139665   0.242   6.038   4.158 -0.3594  1.3465 -1.2668
12642SOL    HW239666   0.212   5.956   4.034 -0.0846 -0.7716  0.0320
12643SOL     OW39667   4.385   0.674   3.844  0.3650  0.4705 -0.1849
12643SOL    HW139668   4.478   0.659   3.862  0.4291  1.6589  0.5860
12643SOL    HW239669   4.384   0.749   3.785 -0.1453  1.9312  1.5837
12644SOL     OW39670   0.725   4.924   4.570  0.1991 -0.0514 -0.2170
12644SOL    HW139671   0.765   5.006   4.601  0.0327  0.5749 -1.5692
12644SOL    HW239672   0.676   4.891   4.645 -0.0353  1.2942  0.2514
12645SOL     OW39673   8.924   7.704   1.960 -0.1589  0.2153 -0.3106
12645SOL    HW139674   8.881   7.619   1.967  0.7747 -0.2911 -0.4702
12645SOL    HW239675   8.967   7.717   2.044 -2.9433  2.0834  0.9680
12646SOL     OW39676   3.588   6.452   2.337  0.2065  0.1001 -0.0935
12646SOL    HW139677   3.645   6.426   2.265 -0.5594  2.0199 -1.4609
12646SOL    HW239678   3.647   6.467   2.411  1.0990 -0.9772 -0.5468
12647SOL     OW39679   7.724   4.944   4.817 -0.4457 -0.2711  0.6801
12647SOL    HW139680   7.756   5.024   4.857  0.3206 -0.7918  1.1192
12647SOL    HW239681   7.666   4.974   4.746 -1.5583  0.6594  1.9341
12648SOL     OW39682   6.766   5.995   3.659 -0.2229 -0.2157 -0.4935
12648SOL    HW139683   6.768   6.090   3.666  1.1476 -0.0263 -2.5804
12648SOL    HW239684   6.683   5.976   3.616  0.4378  0.2529 -2.0309
12649SOL     OW39685   6.453   8.718   5.877  0.1959  0.0856  0.4290
12649SOL    HW139686   6.525   8.659   5.899 -0.5378 -0.3221  1.8901
12649SOL    HW239687   6.375   8.662   5.875 -0.1847  0.6296 -0.4169
12650SOL     OW39688   4.101   4.679   0.838 -0.4780 -0.0985 -0.2937
12650SOL    HW139689   4.072   4.630   0.914 -1.5432  1.0121  0.0537
12650SOL    HW239690   4.056   4.764   0.845  0.7664  0.6791 -1.2238
12651SOL     OW39691   3.150   1.726   5.381  0.2466  0.1952 -0.4967
12651SOL    HW139692   3.114   1.742   5.294 -2.4929  2.4833  0.8866
12651SOL    HW239693   3.090   1.771   5.441  2.4014 -0.6254  2.5534
12652SOL     OW39694   3.413   1.563   6.417  0.2288 -0.6702 -0.3036
12652SOL    HW139695   3.366   1.512   6.482 -1.1946 -0.2641 -0.9782
12652SOL    HW239696   3.465   1.625   6.469 -1.2075 -0.0587  0.4590
12653SOL     OW39697   0.579   7.557   2.281 -0.2253 -0.3072  0.5659
12653SOL    HW139698   0.626   7.509   2.213 -0.6695 -0.1302  0.1263
12653SOL    HW239699   0.647   7.589   2.340  0.1062 -1.0866  0.6065
12654SOL     OW39700   0.033   9.121   3.882 -0.0755 -0.2986 -0.2373
12654SOL    HW139701   0.113   9.172   3.896 -0.4979  0.8329 -1.6807
12654SOL    HW239702  -0.025   9.149   3.954 -0.6490  2.1021 -1.5070
12655SOL     OW39703   7.262   9.383   7.348  0.0635 -0.3123 -0.0134
12655SOL    HW139704   7.335   9.362   7.407  0.9999  2.6496  0.0584
12655SOL    HW239705   7.253   9.478   7.355 -2.6576 -0.3851 -1.4233
12656SOL     OW39706   8.274   0.918   5.889  0.3681  0.3803  0.1013
12656SOL    HW139707   8.359   0.961   5.899  0.9730 -0.5191 -0.9230
12656SOL    HW239708   8.222   0.978   5.835  0.0103  1.3485  1.4742
12657SOL     OW39709   8.904   2.525   8.675  0.1662  0.5130  0.2837
12657SOL    HW139710   8.929   2.462   8.607 -1.1905  0.1832  0.0593
12657SOL    HW239711   8.970   2.515   8.743  0.4147 -0.5932 -0.1070
12658SOL     OW39712   9.526   6.908   2.471 -0.2634 -0.0106  0.3751
12658SOL    HW139713   9.500   6.819   2.495 -1.3369  0.7289  2.0800
12658SOL    HW239714   9.520   6.909   2.375  1.3609 -2.2223  0.1770
12659SOL     OW39715   2.583   4.852   0.976 -0.7370  0.1630 -0.0482
12659SOL    HW139716   2.571   4.780   1.038 -1.5508 -0.2768 -0.6954
12659SOL    HW239717   2.556   4.930   1.025  1.2914  0.2280  1.0474
12660SOL     OW39718   6.209   0.218   4.945 -0.0762  0.5894 -0.4660
12660SOL    HW139719   6.202   0.123   4.942 -0.0779  0.6158 -1.3503
12660SOL    HW239720   6.119   0.249   4.951 -0.0804  0.5447 -0.2790
12661SOL     OW39721   3.799   1.153   4.995  0.0191  0.2044  0.1774
12661SOL    HW139722   3.806   1.069   5.039  0.5001  0.2860  0.2673
12661SOL    HW239723   3.730   1.200   5.042 -1.3665 -0.7277 -0.8552
12662SOL     OW39724   1.999   5.232   7.306 -0.2934 -0.2071  0.3940
12662SOL    HW139725   1.920   5.233   7.360  0.3420  0.8173  1.3396
12662SOL    HW239726   2.045   5.313   7.328  0.0226  0.2345 -1.6757
12663SOL     OW39727   4.417   2.821   0.453  0.5463 -0.3645  0.1502
12663SOL    HW139728   4.421   2.797   0.545 -2.4216  2.5288  1.1986
12663SOL    HW239729   4.481   2.892   0.444  0.7555 -0.5715 -0.0202
12664SOL     OW39730   6.598   2.544   8.274  0.5318  0.0749 -0.0101
12664SOL    HW139731   6.607   2.624   8.223  1.8877  0.8673  1.3655
12664SOL    HW239732   6.670   2.548   8.337  0.4054 -2.0614  0.3363
12665SOL     OW39733   6.460   2.156   8.757 -0.4139  0.2477  0.2374
12665SOL    HW139734   6.522   2.195   8.818 -0.5393  1.4455 -0.3788
12665SOL    HW239735   6.436   2.227   8.698 -0.5446 -0.7864 -1.0060
12666SOL     OW39736   3.329   7.163   3.988 -0.1328  0.0770 -0.2965
12666SOL    HW139737   3.391   7.099   3.954  0.3928  0.0534  0.6583
12666SOL    HW239738   3.362   7.247   3.956 -0.2894 -0.0410 -0.7723
12667SOL     OW39739   3.748   5.218   3.404 -0.0505 -0.2482  0.2168
12667SOL    HW139740   3.693   5.269   3.462 -0.9854 -0.4610 -0.4652
12667SOL    HW239741   3.689   5.185   3.336  1.3770  2.0882 -2.3455
12668SOL     OW39742   3.297   3.051   1.575 -0.6536 -0.0901 -0.6401
12668SOL    HW139743   3.310   3.058   1.481 -0.2406 -2.7512 -0.8342
12668SOL    HW239744   3.351   2.977   1.602 -1.3383  0.1441  1.5833
12669SOL     OW39745   4.409   2.625   2.524  0.1277 -0.4278  0.3123
12669SOL    HW139746   4.468   2.563   2.482 -1.8250 -0.9769 -1.8088
12669SOL    HW239747   4.429   2.710   2.483  0.6980 -0.2312  0.9769
12670SOL     OW39748   3.268   5.998   0.699 -0.2185  0.1537  0.1957
12670SOL    HW139749   3.240   5.909   0.721  0.2594  0.2238  1.1322
12670SOL    HW239750   3.190   6.040   0.663 -0.4360 -0.6550 -0.3035
12671SOL     OW39751   0.885   0.982   8.011 -0.0182  0.7077  0.5643
12671SOL    HW139752   0.955   0.928   7.975 -0.9957  0.1757 -0.6188
12671SOL    HW239753   0.914   1.003   8.100  0.6725 -1.2295  0.8386
12672SOL     OW39754   7.218   9.115   8.240  0.6083 -0.0362  0.4464
12672SOL    HW139755   7.299   9.071   8.264  0.6376 -0.1382  0.1645
12672SOL    HW239756   7.167   9.118   8.321  0.2159 -1.4227  0.2797
12673SOL     OW39757   9.388   9.021   4.931  0.4504  0.0086  0.3059
12673SOL    HW139758   9.450   8.948   4.925 -0.4776 -0.7791  0.0139
12673SOL    HW239759   9.306   8.986   4.895 -0.2529  0.9215  0.9707
12674SOL     OW39760   6.839   1.074   9.049 -0.7872 -0.3536  0.2701
12674SOL    HW139761   6.910   1.049   9.109 -1.0672 -0.7419  0.4425
12674SOL    HW239762   6.760   1.068   9.102 -0.8387  1.2516  0.4230
12675SOL     OW39763   2.533   0.665   3.973  0.0475  0.0739  0.2398
12675SOL    HW139764   2.570   0.610   4.042  1.5067  0.5237 -0.1496
12675SOL    HW239765   2.508   0.746   4.018  1.5948  0.6193  0.1624
12676SOL     OW39766   2.291   3.429   6.929  0.1718 -0.2162 -0.2140
12676SOL    HW139767   2.291   3.514   6.972  0.7568 -0.8499  1.1162
12676SOL    HW239768   2.332   3.445   6.844 -1.1848  1.1167 -0.6547
12677SOL     OW39769   4.925   9.116   3.777 -0.1248 -0.3859  0.4697
12677SOL    HW139770   4.976   9.087   3.701  0.8940  0.8259  0.6474
12677SOL    HW239771   4.849   9.161   3.738 -0.4963 -1.2419  0.1915
12678SOL     OW39772   6.322   6.328   5.753  0.0915  0.0450  0.3432
12678SOL    HW139773   6.247   6.371   5.712  0.8995  1.3415  0.1587
12678SOL    HW239774   6.284   6.264   5.813 -1.1302 -0.7504 -1.2219
12679SOL     OW39775   1.543   8.129   5.334  0.3011 -0.7861 -0.1628
12679SOL    HW139776   1.487   8.079   5.394  0.1675  0.6130  0.9383
12679SOL    HW239777   1.482   8.183   5.284  0.5022 -1.1199 -0.7792
12680SOL     OW39778   1.775   6.498   6.628 -0.0758  0.0846 -0.1855
12680SOL    HW139779   1.694   6.445   6.628  0.6046 -0.9972 -0.0983
12680SOL    HW239780   1.744   6.588   6.628 -1.2974 -0.2918 -1.0829
12681SOL     OW39781   4.855   4.761   7.196  0.3564 -0.0685  0.1844
12681SOL    HW139782   4.792   4.752   7.268 -0.3857  0.6539 -0.3527
12681SOL    HW239783   4.807   4.809   7.128  1.2539 -0.1622 -0.5374
12682SOL     OW39784   1.478   5.834   4.687  0.1503 -0.1390 -0.3365
12682SOL    HW139785   1.410   5.767   4.675  0.5118 -0.4478 -0.6984
12682SOL    HW239786   1.464   5.867   4.776 -0.2548 -0.4434 -0.2818
12683SOL     OW39787   4.531   8.580   5.083 -0.1230 -0.7650  0.6068
12683SOL    HW139788   4.479   8.515   5.036 -0.7425 -0.3074  0.6372
12683SOL    HW239789   4.555   8.644   5.016  0.1776 -0.8334  0.6466
12684SOL     OW39790   5.530   0.210   4.041 -0.2937  0.0283 -0.0433
12684SOL    HW139791   5.558   0.288   4.089 -0.1654 -1.0976  1.8076
12684SOL    HW239792   5.606   0.153   4.042 -1.2313 -1.2665  1.1809
12685SOL     OW39793   3.758   0.588   9.162 -0.2822 -0.3295 -0.3207
12685SOL    HW139794   3.849   0.571   9.139  0.7102  0.2101  2.6852
12685SOL    HW239795   3.728   0.507   9.205 -1.1223 -0.3897 -0.9979
12686SOL     OW39796   7.412   8.973   9.469 -0.2891 -0.3074 -0.0620
12686SOL    HW139797   7.465   8.912   9.520  0.4302  0.6677  0.3855
12686SOL    HW239798   7.384   9.040   9.532 -1.9915 -0.7379 -0.3112
12687SOL     OW39799   9.017   0.482   7.931 -0.1679  0.2294 -0.0336
12687SOL    HW139800   9.061   0.507   7.849 -0.4147  0.4927 -0.0870
12687SOL    HW239801   9.020   0.386   7.931  2.1237  0.2457  0.8945
12688SOL     OW39802   9.493   8.268   3.244  0.5388  0.2691 -0.6792
12688SOL    HW139803   9.506   8.261   3.338  0.5099 -0.3325 -0.7108
12688SOL    HW239804   9.524   8.355   3.221  2.9545 -0.4634 -0.5004
12689SOL     OW39805   1.088   4.724   5.865  0.0687  0.8136 -0.1093
12689SOL    HW139806   1.023   4.682   5.808  1.4857 -1.8468  0.0772
12689SOL    HW239807   1.046   4.727   5.951 -0.7765  1.5922 -0.5371
12690SOL     OW39808   7.050   8.037   8.346 -0.2564 -0.0237 -0.7014
12690SOL    HW139809   7.098   8.021   8.265 -1.8649 -0.4280 -1.6201
12690SOL    HW239810   6.998   8.116   8.328  0.0431  0.4067  0.2627
12691SOL     OW39811   7.094   4.346   1.644  0.3296 -0.5096 -0.1497
12691SOL    HW139812   7.158   4.275   1.648 -0.9969 -1.7374  0.0804
12691SOL    HW239813   7.145   4.425   1.662  1.9169 -1.3407 -0.8019
12692SOL     OW39814   3.989   2.430   6.327 -0.4743  0.5103 -0.2762
12692SOL    HW139815   4.020   2.515   6.297 -0.9820  0.9568  0.4169
12692SOL    HW239816   4.041   2.412   6.406 -1.0595  0.6675  0.1586
12693SOL     OW39817   9.105   1.220   8.107  0.5975 -0.0264  0.3483
12693SOL    HW139818   9.087   1.126   8.106 -1.4491  0.3005  0.3766
12693SOL    HW239819   9.116   1.243   8.014 -0.6874 -0.0391  0.1725
12694SOL     OW39820   1.532   6.132   7.331 -0.2750  0.3446  0.0492
12694SOL    HW139821   1.597   6.065   7.310 -0.6095  0.1304 -0.3145
12694SOL    HW239822   1.578   6.193   7.389  0.8461  1.2777 -1.7296
12695SOL     OW39823   2.498   5.163   7.783  0.1098 -0.3739  0.1306
12695SOL    HW139824   2.519   5.070   7.774  1.3683 -0.1850  0.8486
12695SOL    HW239825   2.525   5.201   7.700  0.1605 -0.5625  0.0593
12696SOL     OW39826   6.110   3.302   1.390  0.2929  0.6651  0.5353
12696SOL    HW139827   6.200   3.316   1.420  0.3951  0.4818  0.3144
12696SOL    HW239828   6.092   3.210   1.407  0.4686  0.4752 -0.2691
12697SOL     OW39829   1.240   2.168   0.493 -0.0902 -0.0696 -0.2982
12697SOL    HW139830   1.147   2.185   0.511  0.2651  0.8746  0.7277
12697SOL    HW239831   1.273   2.133   0.576  0.8783  1.3491 -0.0630
12698SOL     OW39832   8.493   2.292   4.267  0.0229 -0.0119  0.0837
12698SOL    HW139833   8.488   2.227   4.338 -0.3199 -1.3186 -1.0905
12698SOL    HW239834   8.570   2.344   4.288 -0.8217  0.5084  2.1257
12699SOL     OW39835   8.121   3.941   3.775 -0.4764  0.2211 -0.0375
12699SOL    HW139836   8.124   3.873   3.708  1.1624  0.0842  0.1372
12699SOL    HW239837   8.212   3.959   3.796 -0.9001  1.6432  0.7796
12700SOL     OW39838   0.885   4.933   8.133 -0.0623 -1.2513  0.3734
12700SOL    HW139839   0.792   4.919   8.114  0.0276 -0.3973 -0.8404
12700SOL    HW239840   0.887   4.966   8.222 -1.2217  1.3818 -0.4725
12701SOL     OW39841   3.583   0.106   3.475  0.3540  0.4463 -0.5020
12701SOL    HW139842   3.603   0.190   3.516 -0.7565 -0.3742  1.9143
12701SOL    HW239843   3.657   0.050   3.497  0.1940  0.2619 -0.4284
12702SOL     OW39844   8.911   7.105   3.558  0.2149 -0.3675  0.1773
12702SOL    HW139845   8.910   7.041   3.630 -0.0038  0.3273  0.8020
12702SOL    HW239846   8.966   7.176   3.590 -0.9649  0.5657  0.2112
12703SOL     OW39847   7.014   0.537   4.542  0.3873  0.4867 -0.3820
12703SOL    HW139848   6.963   0.599   4.491  0.8601  1.5297  0.3767
12703SOL    HW239849   7.105   0.566   4.532  0.6472 -0.2644 -0.2633
12704SOL     OW39850   1.459   9.206   1.021  0.1827 -0.2294  0.1195
12704SOL    HW139851   1.418   9.125   0.991  3.1689 -1.7139 -0.2713
12704SOL    HW239852   1.439   9.269   0.952 -1.7159 -0.7438  0.1529
12705SOL     OW39853   8.547   3.973   4.162  0.8171  0.1484 -0.2769
12705SOL    HW139854   8.636   3.942   4.145  0.2262 -1.9777  0.1099
12705SOL    HW239855   8.490   3.901   4.133 -0.5719 -0.2363  2.8845
12706SOL     OW39856   8.879   1.929   9.427  0.2245 -0.4717 -0.0872
12706SOL    HW139857   8.839   1.987   9.492 -0.6725 -0.3424 -0.7478
12706SOL    HW239858   8.852   1.841   9.455 -0.9162 -0.3572 -0.7786
12707SOL     OW39859   2.780   7.107   2.958  0.0922 -0.5930  0.1167
12707SOL    HW139860   2.870   7.126   2.933 -0.1663 -0.6356 -0.8727
12707SOL    HW239861   2.738   7.076   2.878 -1.0483  0.2928  0.3439
12708SOL     OW39862   6.536   4.960   3.594 -0.4228  0.2174 -0.2512
12708SOL    HW139863   6.552   4.869   3.571  2.2397  0.1903  1.3482
12708SOL    HW239864   6.510   4.958   3.686  0.4506  1.1162  0.0353
12709SOL     OW39865   5.713   0.589   6.928  0.6044  0.6244 -0.2534
12709SOL    HW139866   5.713   0.500   6.893 -1.3802  0.2183  0.6529
12709SOL    HW239867   5.792   0.593   6.982  1.3617 -0.1576 -1.2554
12710SOL     OW39868   7.751   8.618   7.127 -0.7301  0.1491 -0.8052
12710SOL    HW139869   7.679   8.578   7.077  0.3461 -0.7549 -1.6693
12710SOL    HW239870   7.775   8.552   7.191 -0.3883  0.2806 -0.7972
12711SOL     OW39871   3.611   3.387   7.219  0.2055 -0.3692  0.5729
12711SOL    HW139872   3.564   3.458   7.262  0.8261 -0.2371  1.0601
12711SOL    HW239873   3.565   3.372   7.137  0.0365  0.5588  0.4975
12712SOL     OW39874   0.944   1.100   5.394  0.1067  0.7378 -0.8183
12712SOL    HW139875   0.981   1.031   5.339  2.0461  1.2614 -0.2227
12712SOL    HW239876   0.944   1.063   5.482 -2.2361  0.2071 -0.9631
12713SOL     OW39877   6.567   5.589   2.189  0.2627 -0.2929 -1.0363
12713SOL    HW139878   6.494   5.644   2.219 -0.4754 -0.0467 -3.1085
12713SOL    HW239879   6.526   5.504   2.169  0.8198 -0.6049 -0.8774
12714SOL     OW39880   3.366   4.063   3.803  0.3306 -0.2737 -0.6215
12714SOL    HW139881   3.372   4.121   3.879 -0.9123 -0.4243 -0.3923
12714SOL    HW239882   3.275   4.032   3.803  0.0776  0.3097 -2.5976
12715SOL     OW39883   7.131   7.605   0.300  0.1923 -0.0250  0.1119
12715SOL    HW139884   7.127   7.584   0.207 -0.1043  3.2872 -0.7390
12715SOL    HW239885   7.041   7.625   0.324  0.5814  1.4761  0.4342
12716SOL     OW39886   6.238   7.778   2.403  0.4896 -0.2442 -0.4079
12716SOL    HW139887   6.282   7.703   2.443  1.4238 -0.3795 -1.6391
12716SOL    HW239888   6.188   7.741   2.330 -1.2581 -0.0122  0.6022
12717SOL     OW39889   1.410   7.622   9.158  0.0290 -0.3430  0.5680
12717SOL    HW139890   1.382   7.635   9.248  0.6726  0.0474  0.7195
12717SOL    HW239891   1.468   7.696   9.140  0.4809 -0.8033  0.0811
12718SOL     OW39892   7.063   4.968   4.966  0.1683 -1.0560 -0.0833
12718SOL    HW139893   7.107   4.884   4.975  2.6343  0.2856  1.1506
12718SOL    HW239894   7.038   4.972   4.874  1.4417 -2.4616 -0.5280
12719SOL     OW39895   3.215   3.050   7.321  0.0413 -0.1485  0.0112
12719SOL    HW139896   3.140   3.086   7.369 -0.3225  0.8649 -1.2622
12719SOL    HW239897   3.193   3.062   7.229  0.4060 -2.6968 -0.4779
12720SOL     OW39898   2.381   3.795   5.263  0.5794  0.6843  0.0412
12720SOL    HW139899   2.303   3.850   5.258  0.0650 -0.1140 -1.1348
12720SOL    HW239900   2.408   3.799   5.355 -3.1338 -2.0969  1.4834
12721SOL     OW39901   1.299   8.962   4.946 -0.2899 -0.4451  0.3793
12721SOL    HW139902   1.212   8.925   4.931 -0.2178 -0.3453 -0.3005
12721SOL    HW239903   1.332   8.915   5.023 -0.9568 -0.4550  0.6609
12722SOL     OW39904   1.417   3.879   4.842 -0.1098  0.3797 -0.1451
12722SOL    HW139905   1.336   3.927   4.827 -0.7549 -0.3370  0.9945
12722SOL    HW239906   1.406   3.837   4.927  1.4552  0.2596  0.0358
12723SOL     OW39907   6.059   0.543   7.870 -0.2992  0.7779  0.0835
12723SOL    HW139908   6.018   0.603   7.932 -0.2109  1.1388 -0.2044
12723SOL    HW239909   5.996   0.537   7.798  0.5301  2.0530 -0.7939
12724SOL     OW39910   0.251   8.376   4.976 -0.2123  0.5566 -0.6991
12724SOL    HW139911   0.231   8.321   5.052  3.3295  0.3240  0.2146
12724SOL    HW239912   0.237   8.319   4.901  0.2713 -0.5853  0.0410
12725SOL     OW39913   5.614   9.002   0.148 -0.0914 -0.0415  0.5257
12725SOL    HW139914   5.610   9.054   0.229 -1.1886 -0.3013  0.6615
12725SOL    HW239915   5.588   8.914   0.175 -3.3250  0.4599 -0.5371
12726SOL     OW39916   7.206   0.799   7.486  0.6183  0.5091  0.2061
12726SOL    HW139917   7.120   0.762   7.504  1.3356 -1.8528 -0.7726
12726SOL    HW239918   7.238   0.828   7.572 -0.6592  0.3318  0.7689
12727SOL     OW39919   1.258   2.139   4.969  0.8261  0.2028 -0.6945
12727SOL    HW139920   1.267   2.232   4.989 -2.8092  0.5694 -0.0054
12727SOL    HW239921   1.256   2.135   4.873 -0.2426  1.0485 -0.7272
12728SOL     OW39922   7.827   5.844   7.823 -0.3240  0.0183 -0.1232
12728SOL    HW139923   7.813   5.849   7.728  0.0604  0.0533 -0.1795
12728SOL    HW239924   7.781   5.764   7.849  0.9722 -0.9151 -0.6095
12729SOL     OW39925   5.428   3.059   8.480 -0.2337 -0.0051 -0.0936
12729SOL    HW139926   5.474   3.055   8.563  0.7080  0.0225 -0.5939
12729SOL    HW239927   5.436   3.151   8.452 -2.8231  0.6528  0.9987
12730SOL     OW39928   4.115   2.166   0.690  0.2009  0.2344 -0.2031
12730SOL    HW139929   4.025   2.172   0.722 -0.4585  1.8677 -2.1767
12730SOL    HW239930   4.154   2.095   0.742 -2.4398 -1.0801  0.1561
12731SOL     OW39931   7.587   8.623   0.969 -0.0564 -0.2346  0.2336
12731SOL    HW139932   7.507   8.656   1.011 -0.0947 -1.2019  0.9499
12731SOL    HW239933   7.555   8.581   0.889 -0.1929 -0.0613  0.1952
12732SOL     OW39934   7.913   1.701   6.700 -0.1400 -1.0794 -0.7224
12732SOL    HW139935   7.903   1.795   6.682  0.8041 -0.6386  0.8472
12732SOL    HW239936   7.956   1.666   6.622  1.0155  0.1482 -0.6772
12733SOL     OW39937   8.866   1.371   8.184 -0.0439 -0.3181 -0.2303
12733SOL    HW139938   8.854   1.371   8.279  0.5735  0.3390 -0.1404
12733SOL    HW239939   8.943   1.315   8.170  0.7735  0.7860 -0.2045
12734SOL     OW39940   2.266   1.804   9.257  0.3900  0.4840 -0.1208
12734SOL    HW139941   2.357   1.790   9.284  0.2831  0.4239  0.2199
12734SOL    HW239942   2.272   1.855   9.177  0.7421 -0.1278 -0.4882
12735SOL     OW39943   4.705   6.749   6.147 -0.3543 -0.1321  0.1563
12735SOL    HW139944   4.795   6.780   6.156  0.4307 -2.1326 -0.1161
12735SOL    HW239945   4.667   6.803   6.078  0.4149  1.1512  0.6988
12736SOL     OW39946   3.743   0.438   8.524 -0.1365 -0.3464  0.0206
12736SOL    HW139947   3.731   0.395   8.609 -1.3211  0.7247  0.4248
12736SOL    HW239948   3.836   0.461   8.522  0.3584 -2.2143  0.1144
12737SOL     OW39949   4.976   1.271   9.119 -0.4411 -0.1062  0.2297
12737SOL    HW139950   4.947   1.333   9.053 -1.1680 -1.0828 -0.3998
12737SOL    HW239951   5.054   1.230   9.081 -0.5928 -0.3451  0.1747
12738SOL     OW39952   9.310   2.770   5.020 -0.3312  0.0905 -0.2464
12738SOL    HW139953   9.304   2.692   4.965  1.1957 -0.2369 -0.0062
12738SOL    HW239954   9.255   2.749   5.096 -0.5857 -0.4235 -0.5675
12739SOL     OW39955   2.989   4.831   5.740  0.2219 -0.0161 -0.1743
12739SOL    HW139956   2.995   4.852   5.647 -1.8609  0.2634 -0.2886
12739SOL    HW239957   3.009   4.738   5.745  0.6565  0.0346 -0.8600
12740SOL     OW39958   7.261   2.987   4.466  0.0686 -0.2132  0.2286
12740SOL    HW139959   7.350   2.960   4.444  1.1232  2.5718  0.7261
12740SOL    HW239960   7.254   2.973   4.560  0.0565 -0.2291  0.2254
12741SOL     OW39961   3.131   8.027   3.665  0.1284 -0.1581 -0.0211
12741SOL    HW139962   3.108   7.969   3.737  2.0942 -0.2735  0.5860
12741SOL    HW239963   3.142   7.969   3.590  0.7006 -0.4051  0.2472
12742SOL     OW39964   2.127   6.480   5.939  0.3802  0.0854 -0.2305
12742SOL    HW139965   2.120   6.401   5.886 -0.7294  0.4865 -0.7218
12742SOL    HW239966   2.055   6.475   6.001  1.3644 -0.1257  0.9205
12743SOL     OW39967   7.036   8.312   1.033  1.0234  0.6837  0.2197
12743SOL    HW139968   6.997   8.233   0.995  1.0866  0.1586  1.2217
12743SOL    HW239969   6.961   8.359   1.070  1.0219  0.9738 -0.1415
12744SOL     OW39970   3.646   4.177   3.386 -0.2370  0.6549 -0.1241
12744SOL    HW139971   3.686   4.162   3.472  1.4845  3.9600 -0.1648
12744SOL    HW239972   3.592   4.256   3.398 -1.2007  0.2962 -1.7394
12745SOL     OW39973   5.235   6.841   6.817  0.1424 -0.3888 -0.2743
12745SOL    HW139974   5.271   6.836   6.729 -0.3362  1.8908 -0.6518
12745SOL    HW239975   5.312   6.841   6.874  0.6268  1.1355 -0.8875
12746SOL     OW39976   9.419   7.440   1.926  0.0069  0.0785 -0.0177
12746SOL    HW139977   9.502   7.447   1.880 -1.0850  0.6277 -2.0445
12746SOL    HW239978   9.434   7.374   1.994  1.6633 -1.0003 -1.3541
12747SOL     OW39979   5.655   5.426   8.396 -0.1782 -0.1806 -0.0792
12747SOL    HW139980   5.657   5.417   8.301  2.3850  1.1511 -0.2615
12747SOL    HW239981   5.747   5.435   8.421 -0.7243 -0.9877  2.6099
12748SOL     OW39982   9.468   0.041   7.085  0.4218  0.1867  0.2211
12748SOL    HW139983   9.468   0.120   7.140  1.5999 -1.6782  3.1874
12748SOL    HW239984   9.514   0.066   7.006  0.4800  2.5362  0.9362
12749SOL     OW39985   2.912   1.973   8.693 -0.3898 -0.2675  0.0116
12749SOL    HW139986   2.828   1.992   8.651 -0.1874  0.6435 -0.0017
12749SOL    HW239987   2.952   2.059   8.707 -0.2406 -0.5611  1.6150
12750SOL     OW39988   1.790   1.298   2.831  0.2788  0.0194  0.1950
12750SOL    HW139989   1.876   1.341   2.834 -0.7841  2.3656 -0.3608
12750SOL    HW239990   1.750   1.317   2.916 -1.0305  2.1233 -0.8015
12751SOL     OW39991   2.008   3.090   3.612  0.0282  0.1414 -0.0542
12751SOL    HW139992   2.077   3.099   3.678  1.6223 -4.7547 -0.6047
12751SOL    HW239993   2.052   3.107   3.529 -1.3151  3.6225 -0.2001
12752SOL     OW39994   4.958   3.989   6.585 -0.0239  0.1043  0.5115
12752SOL    HW139995   4.981   4.081   6.596  0.5149  0.1176 -0.5487
12752SOL    HW239996   4.946   3.956   6.674  2.7628  0.4523  1.1207
12753SOL     OW39997   4.757   5.682   4.088  0.5227  0.1659 -0.4784
12753SOL    HW139998   4.850   5.671   4.064  0.8419 -0.3167  0.9106
12753SOL    HW239999   4.711   5.618   4.033  1.1179 -0.2437 -0.5139
12754SOL     OW40000   4.510   0.167   4.343 -0.3638  0.4362 -0.3391
12754SOL    HW140001   4.489   0.189   4.433  0.4082  0.4732 -0.1579
12754SOL    HW240002   4.452   0.222   4.290 -0.3413  0.9125  0.1319
12755SOL     OW40003   9.341   3.423   5.597 -0.4324  0.1472 -0.0194
12755SOL    HW140004   9.328   3.496   5.537  1.0914 -0.6864 -1.4631
12755SOL    HW240005   9.410   3.452   5.656  0.3543 -0.1800 -0.7545
12756SOL     OW40006   4.738   0.494   2.898  0.1693  0.0345 -0.6382
12756SOL    HW140007   4.811   0.440   2.867  0.0023 -0.7642  0.3259
12756SOL    HW240008   4.780   0.574   2.931  0.8129 -1.0609  1.3631
12757SOL     OW40009   6.096   4.780   6.934  0.1687  0.1447 -0.6128
12757SOL    HW140010   6.156   4.853   6.949  1.1788 -0.9734  1.1594
12757SOL    HW240011   6.009   4.816   6.954  0.6027  0.9408 -0.1124
12758SOL     OW40012   9.215   8.337   2.954 -0.6156  0.2854  0.1087
12758SOL    HW140013   9.308   8.355   2.938 -0.9002  0.7701 -1.0495
12758SOL    HW240014   9.183   8.416   2.998 -0.3609 -0.1216  1.0574
12759SOL     OW40015   3.483   0.008   7.796 -0.1378 -0.0987  0.3730
12759SOL    HW140016   3.393  -0.022   7.811 -1.3640  2.8915 -0.4317
12759SOL    HW240017   3.518   0.022   7.884 -2.1201  3.0488  0.7983
12760SOL     OW40018   6.103   4.939   7.335  0.5990 -0.0376  0.2342
12760SOL    HW140019   6.171   5.002   7.313  0.0275  1.5869  2.6732
12760SOL    HW240020   6.064   4.915   7.251  1.6054  1.9869 -0.8866
12761SOL     OW40021   2.124   6.159   9.090 -0.7837 -0.0722  0.1031
12761SOL    HW140022   2.150   6.212   9.165  0.0827 -0.1633 -0.1135
12761SOL    HW240023   2.138   6.216   9.014 -1.4901 -0.0365 -0.0015
12762SOL     OW40024   7.347   4.347   5.401 -0.2499 -0.0189 -0.3932
12762SOL    HW140025   7.422   4.393   5.438 -0.0272 -0.6855  0.0070
12762SOL    HW240026   7.386   4.277   5.349 -0.4812 -2.6407  2.5989
12763SOL     OW40027   5.241   9.367   1.651 -0.4161 -0.0783  0.0663
12763SOL    HW140028   5.286   9.360   1.566  0.7570  0.6856  0.5924
12763SOL    HW240029   5.151   9.340   1.633 -0.2245  0.1987 -1.4547
12764SOL     OW40030   1.193   7.849   0.589  0.0456  0.3285  0.3441
12764SOL    HW140031   1.217   7.921   0.647  1.4427  0.0259  0.1655
12764SOL    HW240032   1.122   7.884   0.535 -1.4552  0.5548  2.3483
12765SOL     OW40033   7.771   1.052   1.090 -0.0184  0.2637 -0.9223
12765SOL    HW140034   7.837   0.998   1.133  0.4320  1.6611  0.1926
12765SOL    HW240035   7.810   1.139   1.083 -2.1894  1.5094  1.0375
12766SOL     OW40036   8.645   6.208   7.393  0.5342 -0.2302 -0.3933
12766SOL    HW140037   8.585   6.254   7.452 -1.0431 -0.6009 -1.6430
12766SOL    HW240038   8.718   6.269   7.382  0.2858  0.3586  0.9445
12767SOL     OW40039   0.977   9.156   3.463  0.2820 -0.0795  0.4642
12767SOL    HW140040   1.061   9.181   3.500  0.4780 -2.5320  1.9198
12767SOL    HW240041   0.982   9.182   3.371  2.5649 -0.0509  0.5402
12768SOL     OW40042   8.674   5.449   0.421 -0.1266 -0.0673  0.0830
12768SOL    HW140043   8.754   5.481   0.380 -0.3838 -0.1808 -0.5146
12768SOL    HW240044   8.698   5.362   0.456 -0.8291 -1.6062 -2.9772
12769SOL     OW40045   7.600   2.967   7.784  0.5069  0.2391 -0.6745
12769SOL    HW140046   7.550   2.893   7.819 -0.5271  1.6461  1.0506
12769SOL    HW240047   7.540   3.010   7.723 -0.3591  1.7026  1.1011
12770SOL     OW40048   7.981   5.760   9.505  0.1340 -0.1447 -0.5715
12770SOL    HW140049   7.902   5.708   9.519  0.7816 -1.6732 -2.1360
12770SOL    HW240050   8.031   5.710   9.440  2.2885  0.8738  0.1984
12771SOL     OW40051   7.323   7.472   5.364  0.0551  0.1462  0.7146
12771SOL    HW140052   7.322   7.475   5.268 -0.2607 -0.7558  0.6793
12771SOL    HW240053   7.397   7.528   5.389 -0.1693  0.7916 -0.0328
12772SOL     OW40054   7.429   6.953   3.485  0.4763  0.4919 -0.0264
12772SOL    HW140055   7.346   6.999   3.480  0.2229  0.0348 -0.0503
12772SOL    HW240056   7.439   6.911   3.400  0.0932 -0.5338  0.4237
12773SOL     OW40057   7.610   5.229   2.974  0.1057  0.4954 -0.2530
12773SOL    HW140058   7.673   5.288   2.935  0.2721  0.6664  0.2689
12773SOL    HW240059   7.642   5.141   2.951  1.9964  0.4644  2.1401
12774SOL     OW40060   8.091   0.464   6.735  0.4066  0.4572 -0.3163
12774SOL    HW140061   8.031   0.482   6.806  0.6702 -0.7187  0.2363
12774SOL    HW240062   8.170   0.514   6.755 -0.1208  1.4486 -0.6775
12775SOL     OW40063   6.739   1.109   5.287 -0.0102 -0.2962 -0.4902
12775SOL    HW140064   6.745   1.046   5.359 -0.8643 -1.8971 -1.7630
12775SOL    HW240065   6.648   1.105   5.259  0.2331  0.5323 -1.4638
12776SOL     OW40066   3.261   1.890   8.867 -0.4810 -0.5075  0.1635
12776SOL    HW140067   3.217   1.973   8.887  0.8335  0.4832 -0.8451
12776SOL    HW240068   3.315   1.873   8.944  0.5372  0.5047 -0.2915
12777SOL     OW40069   1.835   1.776   5.329 -0.0380  0.0348  0.0547
12777SOL    HW140070   1.865   1.779   5.420 -1.9897  0.5984  0.7389
12777SOL    HW240071   1.911   1.803   5.278  1.2240 -0.6808  1.4720
12778SOL     OW40072   0.444   1.179   5.518  0.4451 -0.1647 -0.0711
12778SOL    HW140073   0.455   1.088   5.548 -1.7826 -0.9263 -1.3050
12778SOL    HW240074   0.481   1.180   5.430  0.5006  0.1466 -0.0444
12779SOL     OW40075   6.052   0.051   7.189 -0.6738 -0.7099 -0.2614
12779SOL    HW140076   6.033   0.033   7.281  0.4399  0.0835  0.1426
12779SOL    HW240077   5.969   0.036   7.144 -1.4001 -0.4986  0.9616
12780SOL     OW40078   4.715   7.783   4.587 -0.3382  0.0942 -0.4296
12780SOL    HW140079   4.773   7.730   4.533  1.7302  0.3443  1.3921
12780SOL    HW240080   4.761   7.866   4.598 -0.7029  0.0846  1.6022
12781SOL     OW40081   7.380   3.947   2.394 -0.3398 -0.2398 -0.1088
12781SOL    HW140082   7.441   3.874   2.406 -0.0272 -0.2114 -1.3959
12781SOL    HW240083   7.294   3.909   2.410 -0.1554 -0.8290 -0.4773
12782SOL     OW40084   8.251   6.423   2.764 -0.2657 -0.9634 -0.0850
12782SOL    HW140085   8.218   6.431   2.853  0.2545 -0.0575  0.0386
12782SOL    HW240086   8.343   6.450   2.770 -1.1100  2.7258 -1.4883
12783SOL     OW40087   6.549   4.112   5.403 -0.2037  0.3552 -0.1786
12783SOL    HW140088   6.495   4.039   5.371 -0.2836  0.5692 -0.5423
12783SOL    HW240089   6.601   4.074   5.474 -0.9396  0.1766  0.2860
12784SOL     OW40090   4.888   2.082   1.381 -0.3876 -0.1576 -0.3330
12784SOL    HW140091   4.945   2.159   1.368  0.7994 -0.8698  0.4246
12784SOL    HW240092   4.949   2.012   1.404 -1.5600 -1.0738  0.0412
12785SOL     OW40093   0.191   8.792   1.863 -0.2144  0.0815  0.1803
12785SOL    HW140094   0.123   8.747   1.814  0.3650  1.2272 -1.7901
12785SOL    HW240095   0.144   8.855   1.918 -0.7884  0.5408 -0.8106
12786SOL     OW40096   1.157   1.437   1.635  0.1471  0.2657  0.0785
12786SOL    HW140097   1.111   1.354   1.624  1.3276 -0.2287 -1.5345
12786SOL    HW240098   1.118   1.476   1.713 -1.7959 -0.9021 -0.2264
12787SOL     OW40099   9.468   8.737   9.570 -0.1345  0.2255  0.3583
12787SOL    HW140100   9.476   8.677   9.497  1.2930  0.6313  0.1572
12787SOL    HW240101   9.392   8.792   9.548  0.1048  0.1610 -0.6784
12788SOL     OW40102   0.763   3.987   6.255 -0.2207 -0.0657 -0.0390
12788SOL    HW140103   0.748   3.940   6.173 -0.1726 -1.9780  0.9917
12788SOL    HW240104   0.707   3.942   6.319  1.7257 -0.3810  1.5343
12789SOL     OW40105   6.902   8.572   3.052 -0.8721 -0.1465 -0.6632
12789SOL    HW140106   6.931   8.611   3.134  0.5494 -1.6401 -0.4054
12789SOL    HW240107   6.963   8.605   2.986 -0.1220 -1.2804 -0.5672
12790SOL     OW40108   3.875   6.556   9.571 -0.3841 -0.5816 -0.4789
12790SOL    HW140109   3.821   6.489   9.529 -1.0095  0.5751 -1.5847
12790SOL    HW240110   3.923   6.598   9.499  0.9843 -0.6846  0.3392
12791SOL     OW40111   8.770   3.244   2.742 -0.0626  0.3104 -0.4054
12791SOL    HW140112   8.771   3.334   2.776 -1.2971 -0.9604  3.6464
12791SOL    HW240113   8.862   3.226   2.720  0.1653  2.5913 -1.6302
12792SOL     OW40114   1.355   9.224   2.876 -0.1837  0.2371 -0.0078
12792SOL    HW140115   1.383   9.174   2.800  0.4815 -0.1279  0.4757
12792SOL    HW240116   1.356   9.162   2.949 -1.3327  0.4428  0.2176
12793SOL     OW40117   5.099   0.711   3.276 -0.0607  0.2329 -0.1724
12793SOL    HW140118   5.061   0.623   3.283  1.4415 -0.3395  1.4635
12793SOL    HW240119   5.056   0.749   3.199 -3.4029 -0.5670  1.1197
12794SOL     OW40120   1.750   5.094   0.586  0.1938  0.3740  0.6506
12794SOL    HW140121   1.698   5.027   0.631 -1.0219  0.2696 -0.8278
12794SOL    HW240122   1.741   5.171   0.642 -0.6197  0.0295  1.0235
12795SOL     OW40123   0.784   7.211   7.162  0.2637 -0.3950  0.0517
12795SOL    HW140124   0.838   7.248   7.092  1.5350 -1.1094  0.6200
12795SOL    HW240125   0.788   7.117   7.148 -1.8941 -0.4423 -0.6231
12796SOL     OW40126   5.570   7.587   4.992 -0.3220  0.1394  0.0110
12796SOL    HW140127   5.522   7.653   4.942 -0.4946  0.3891  0.4941
12796SOL    HW240128   5.639   7.637   5.037 -0.1462 -0.0852 -0.0069
12797SOL     OW40129   3.991   6.930   7.902 -0.2575  0.0732  0.9483
12797SOL    HW140130   4.057   6.938   7.833 -0.2957  0.8029  0.9853
12797SOL    HW240131   4.016   6.851   7.950 -0.4253 -0.6200 -0.0970
12798SOL     OW40132   0.826   7.910   0.253 -0.9810 -0.4899  0.2648
12798SOL    HW140133   0.733   7.912   0.230 -0.8522 -0.5807 -0.2842
12798SOL    HW240134   0.871   7.934   0.172 -0.4777 -1.4783  0.2342
12799SOL     OW40135   5.948   4.632   0.084  0.1450 -0.5799  0.0234
12799SOL    HW140136   5.867   4.596   0.049  0.0774  1.4270 -2.1547
12799SOL    HW240137   5.920   4.700   0.145  0.0846  1.0735 -1.7684
12800SOL     OW40138   3.429   8.841   6.623 -0.1009 -0.0211 -0.1837
12800SOL    HW140139   3.519   8.860   6.649  0.5163  0.3908 -2.3971
12800SOL    HW240140   3.419   8.883   6.537 -2.3889 -0.1196 -0.0364
12801SOL     OW40141   5.605   7.134   7.266  0.0862  0.3261 -0.1731
12801SOL    HW140142   5.592   7.041   7.284  1.4565  0.0636 -0.3891
12801SOL    HW240143   5.633   7.172   7.349  2.3143 -0.0585 -0.6714
12802SOL     OW40144   8.238   2.578   4.655  0.0528  0.1984  0.6577
12802SOL    HW140145   8.314   2.578   4.596 -0.0618  0.9632  0.4926
12802SOL    HW240146   8.174   2.520   4.612 -0.0877  0.8653 -0.0622
12803SOL     OW40147   6.063   9.306   2.044 -0.2102 -0.3079  0.1688
12803SOL    HW140148   5.993   9.353   2.089  0.4256 -0.7781  1.7001
12803SOL    HW240149   6.019   9.234   1.999 -1.0331  0.9796 -1.1659
12804SOL     OW40150   3.702   2.239   4.477 -0.2305 -0.0697 -0.4324
12804SOL    HW140151   3.769   2.281   4.530 -0.1494  1.0397 -1.3560
12804SOL    HW240152   3.687   2.154   4.518  1.6603 -0.3102 -0.1539
12805SOL     OW40153   4.397   3.760   7.154  0.0933  0.0747  0.6225
12805SOL    HW140154   4.421   3.851   7.134 -0.8579  0.1349 -0.3642
12805SOL    HW240155   4.395   3.756   7.250 -0.6812  1.3329  0.6850
12806SOL     OW40156   1.736   1.539   7.160  0.1797 -0.2293 -0.2062
12806SOL    HW140157   1.717   1.613   7.217 -0.6900 -0.9353  0.4557
12806SOL    HW240158   1.703   1.566   7.074 -0.3149  0.0882  0.0779
12807SOL     OW40159   6.142   9.563   4.555 -0.1380  0.6698 -0.0192
12807SOL    HW140160   6.181   9.644   4.588 -0.3719  1.0595 -0.6679
12807SOL    HW240161   6.048   9.579   4.558 -0.1632  0.7730 -0.9790
12808SOL     OW40162   0.089   6.525   0.926 -0.1756 -0.2211 -0.0695
12808SOL    HW140163   0.023   6.583   0.888 -0.7101 -0.4703  0.4555
12808SOL    HW240164   0.153   6.584   0.965  0.9289  0.0704 -2.1824
12809SOL     OW40165   5.401   6.748   9.086  0.0148  0.2979 -0.3181
12809SOL    HW140166   5.485   6.724   9.125 -0.4326  0.7159  0.9621
12809SOL    HW240167   5.398   6.701   9.002  0.6847 -1.2597  0.4934
12810SOL     OW40168   4.425   8.657   0.345 -0.0607 -0.2055 -0.6632
12810SOL    HW140169   4.490   8.588   0.332  1.1310  0.5654  0.8004
12810SOL    HW240170   4.409   8.693   0.258 -0.7890 -2.3566 -1.4590
12811SOL     OW40171   8.424   7.929   8.817  0.2375  0.3692 -0.0858
12811SOL    HW140172   8.515   7.933   8.790 -0.8240  0.7372 -4.4705
12811SOL    HW240173   8.393   7.843   8.788 -1.0577  0.7061  0.1932
12812SOL     OW40174   8.871   6.491   7.688  0.6986 -0.1458  0.2725
12812SOL    HW140175   8.962   6.462   7.687  0.1119 -2.2019 -1.0214
12812SOL    HW240176   8.824   6.422   7.736 -0.2854  0.5323  0.3281
12813SOL     OW40177   2.648   3.660   5.602  0.2526  0.5742  0.5914
12813SOL    HW140178   2.647   3.625   5.691  2.6819  0.3534  0.6173
12813SOL    HW240179   2.727   3.621   5.562 -1.6953 -0.8267 -2.3026
12814SOL     OW40180   8.689   8.886   2.748  0.0537 -0.0301  0.1128
12814SOL    HW140181   8.601   8.919   2.766 -0.9388 -1.2710 -2.1416
12814SOL    HW240182   8.718   8.935   2.672 -0.2124 -2.0911 -1.3971
12815SOL     OW40183   6.577   3.360   5.929  0.5067  0.5580  0.1728
12815SOL    HW140184   6.520   3.294   5.969  0.7451  0.4953  0.4154
12815SOL    HW240185   6.613   3.318   5.851  0.7479  0.3575  0.3897
12816SOL     OW40186   8.749   2.763   0.024  0.3270 -0.2198 -0.0437
12816SOL    HW140187   8.720   2.848   0.057 -0.3563 -0.1069 -0.9016
12816SOL    HW240188   8.844   2.769   0.022  0.2777  0.6427 -0.3684
12817SOL     OW40189   6.977   3.470   4.408 -0.3464 -0.0712 -0.1625
12817SOL    HW140190   6.999   3.483   4.316  0.5101  0.9478  0.1632
12817SOL    HW240191   7.029   3.394   4.435 -0.6650 -0.4259 -0.5225
12818SOL     OW40192   0.229   4.970   8.615  0.3664  0.2585 -0.1647
12818SOL    HW140193   0.254   4.917   8.539  0.0875 -1.1251  0.6828
12818SOL    HW240194   0.298   4.954   8.679 -1.0377 -1.1921  1.0675
12819SOL     OW40195   6.560   7.915   2.111 -0.2748 -0.4471  0.0098
12819SOL    HW140196   6.516   7.996   2.084 -2.4020 -0.6324  2.5792
12819SOL    HW240197   6.498   7.846   2.089  0.0619 -1.0457  0.8914
12820SOL     OW40198   9.430   5.072   1.238  0.0317  0.3147  0.3449
12820SOL    HW140199   9.512   5.108   1.273  0.6971 -0.8749  0.1030
12820SOL    HW240200   9.367   5.082   1.309  0.1061  2.1067  0.2082
12821SOL     OW40201   7.426   5.662   7.689 -0.1776 -0.0358  0.0511
12821SOL    HW140202   7.514   5.639   7.658 -0.5567 -0.2268 -0.9074
12821SOL    HW240203   7.442   5.719   7.764  0.8146 -3.6213  2.8450
12822SOL     OW40204   4.210   3.242   8.790  0.1328  0.3093 -0.0791
12822SOL    HW140205   4.213   3.189   8.870  1.1368  0.9534  0.3271
12822SOL    HW240206   4.215   3.177   8.719  1.9757 -0.1507  0.4117
12823SOL     OW40207   4.307   2.371   9.510 -0.0232  0.0850 -0.0600
12823SOL    HW140208   4.249   2.300   9.536 -1.3163  0.6742 -1.2083
12823SOL    HW240209   4.319   2.423   9.589  1.2721 -1.6040  0.8940
12824SOL     OW40210   9.094   5.132   7.395 -0.3156  0.7713  0.0960
12824SOL    HW140211   9.144   5.051   7.389 -2.4200 -0.5173 -1.2741
12824SOL    HW240212   9.009   5.106   7.430 -0.2421  2.8368  2.0953
12825SOL     OW40213   4.865   9.520   5.696  0.1646 -0.0955  0.1627
12825SOL    HW140214   4.913   9.500   5.615  0.9242  1.3902  0.2024
12825SOL    HW240215   4.934   9.542   5.759 -0.3161 -2.6070  1.6925
12826SOL     OW40216   8.251   9.358   9.540 -0.0672 -0.2723 -0.0657
12826SOL    HW140217   8.272   9.273   9.579 -0.5465  0.4739  1.9634
12826SOL    HW240218   8.194   9.337   9.466 -0.0301 -1.7326  0.2888
12827SOL     OW40219   3.868   5.025   4.733 -0.6455  0.7157  0.0946
12827SOL    HW140220   3.830   4.977   4.660 -0.6225  0.7217  0.0784
12827SOL    HW240221   3.942   4.972   4.761  1.7607  2.5149 -2.3388
12828SOL     OW40222   6.662   4.295   4.000 -0.1368  0.1846  0.0491
12828SOL    HW140223   6.593   4.361   3.995 -0.6875 -0.4647 -2.4314
12828SOL    HW240224   6.739   4.338   3.962 -0.3887 -0.4199 -1.1974
12829SOL     OW40225   5.899   9.202   2.495  0.2080 -0.2585  0.5701
12829SOL    HW140226   5.821   9.230   2.543  1.2752 -0.7193  2.6724
12829SOL    HW240227   5.870   9.124   2.447 -0.9735  0.4090  0.1426
12830SOL     OW40228   0.550   7.282   1.963 -0.2966  0.2181 -0.0444
12830SOL    HW140229   0.470   7.267   1.913 -1.9451  2.0601  1.8705
12830SOL    HW240230   0.534   7.241   2.048  0.9187  0.3857  0.2966
12831SOL     OW40231   6.791   5.570   8.821  0.1892 -0.1253 -0.1277
12831SOL    HW140232   6.706   5.537   8.792  0.3948 -0.2591 -0.5942
12831SOL    HW240233   6.848   5.557   8.746  0.7820 -0.6407  0.3944
12832SOL     OW40234   4.436   6.550   3.672 -0.2133  0.0213 -0.1290
12832SOL    HW140235   4.368   6.530   3.607 -1.9544  1.5960  1.1089
12832SOL    HW240236   4.442   6.470   3.725 -0.0101 -0.6518 -1.1328
12833SOL     OW40237   8.185   4.438   9.087 -0.4412 -0.1935  0.2884
12833SOL    HW140238   8.236   4.489   9.025  1.2965 -0.6394  1.2796
12833SOL    HW240239   8.109   4.408   9.038  0.4650  0.1544 -1.3729
12834SOL     OW40240   0.387   4.395   3.535 -0.1825 -0.1882  0.2276
12834SOL    HW140241   0.322   4.356   3.476  0.5124  0.7084 -1.1944
12834SOL    HW240242   0.335   4.434   3.606 -1.1504 -0.1538 -0.4797
12835SOL     OW40243   3.083   1.845   7.284 -0.2404 -0.0032 -0.3645
12835SOL    HW140244   3.119   1.814   7.367  2.0484  0.9646 -0.9000
12835SOL    HW240245   2.991   1.861   7.302 -0.4537 -2.4882  1.1861
12836SOL     OW40246   8.389   0.994   8.820  0.0140  0.3105 -0.1040
12836SOL    HW140247   8.441   0.964   8.746 -0.1775  1.6079 -0.7921
12836SOL    HW240248   8.312   0.937   8.819 -0.2854  0.6897 -1.3101
12837SOL     OW40249   0.806   4.425   2.010  0.6281 -0.4437  0.6112
12837SOL    HW140250   0.865   4.474   1.954 -1.0656  0.2323 -0.6807
12837SOL    HW240251   0.847   4.339   2.019  0.6490 -0.8531 -2.3243
12838SOL     OW40252   4.991   4.191   3.092 -0.8013  0.3045 -0.1116
12838SOL    HW140253   4.994   4.276   3.049 -0.7761  0.2227 -0.2750
12838SOL    HW240254   4.951   4.133   3.027  2.0711 -0.5394 -1.2763
12839SOL     OW40255   6.414   6.024   6.288  0.0796  1.2010 -0.5243
12839SOL    HW140256   6.404   6.099   6.346  2.0835 -0.0563  1.6476
12839SOL    HW240257   6.417   5.948   6.347  2.9457 -0.0981 -2.1200
12840SOL     OW40258   2.451   2.498   5.889 -0.7280  0.7011 -0.1099
12840SOL    HW140259   2.498   2.580   5.870  0.5511  0.1291  0.4386
12840SOL    HW240260   2.467   2.483   5.982  0.3533 -0.9402 -0.5140
12841SOL     OW40261   3.061   6.238   1.141  0.7856 -0.3667 -0.1063
12841SOL    HW140262   3.015   6.250   1.058 -0.5549 -1.2621  0.4762
12841SOL    HW240263   3.124   6.168   1.123  0.8558 -0.2137 -0.4828
12842SOL     OW40264   0.283   3.445   7.202 -0.3179 -0.2549  0.4650
12842SOL    HW140265   0.286   3.490   7.117  4.1514  0.5693  0.8252
12842SOL    HW240266   0.232   3.366   7.186 -1.5187  0.9639 -2.3538
12843SOL     OW40267   4.851   7.906   5.550  0.7216 -0.2298  0.5791
12843SOL    HW140268   4.809   7.820   5.550  2.0187 -0.8948  0.2010
12843SOL    HW240269   4.847   7.935   5.641 -2.1616  0.5949  0.2921
12844SOL     OW40270   0.894   8.899   2.220 -0.4862  0.6239  0.6956
12844SOL    HW140271   0.803   8.897   2.191 -0.1694  1.2098 -0.4108
12844SOL    HW240272   0.922   8.808   2.220  0.4147  0.6434 -4.0804
12845SOL     OW40273   8.983   8.326   4.488  0.4155  0.5040 -0.1033
12845SOL    HW140274   9.075   8.341   4.508  0.8438  0.2499 -1.7429
12845SOL    HW240275   8.937   8.395   4.536  1.4456  0.6318  0.7431
12846SOL     OW40276   5.669   0.677   5.156 -0.1614 -0.6985  0.0656
12846SOL    HW140277   5.614   0.748   5.123 -0.0835  0.8480  2.9652
12846SOL    HW240278   5.655   0.605   5.094 -0.9972  1.4847 -2.4553
12847SOL     OW40279   5.631   0.910   4.454 -0.0100  0.0794  0.6360
12847SOL    HW140280   5.688   0.856   4.508 -0.1596 -0.7940 -0.0540
12847SOL    HW240281   5.678   0.992   4.444  0.9949 -0.5186  0.3252
12848SOL     OW40282   9.482   9.165   3.675 -0.2582 -0.2258  0.1824
12848SOL    HW140283   9.526   9.145   3.593 -0.1713 -0.2041  0.2231
12848SOL    HW240284   9.550   9.155   3.742  0.0443  1.1336  0.1129
12849SOL     OW40285   0.362   2.982   9.356 -0.1468 -0.5172 -0.1938
12849SOL    HW140286   0.333   2.891   9.364  0.5729 -1.1139 -3.2249
12849SOL    HW240287   0.453   2.981   9.386 -0.0643 -0.8590 -0.4491
12850SOL     OW40288   4.685   6.834   2.835 -0.3844  0.1529  0.6662
12850SOL    HW140289   4.768   6.881   2.836 -0.0432 -0.3025  3.7385
12850SOL    HW240290   4.690   6.775   2.911 -1.4636 -3.6472 -1.9199
12851SOL     OW40291   2.168   5.477   3.551 -0.2885  0.3756 -0.0730
12851SOL    HW140292   2.204   5.538   3.615  1.1174 -0.1725 -0.2919
12851SOL    HW240293   2.121   5.532   3.488 -3.3816  0.7837  2.3826
12852SOL     OW40294   4.677   1.963   3.409 -0.2732 -0.2219  0.2092
12852SOL    HW140295   4.658   2.055   3.393  2.8200  0.4361 -0.2496
12852SOL    HW240296   4.723   1.933   3.330  0.2498 -1.6760  1.0183
12853SOL     OW40297   4.042   6.672   4.183 -0.1274  0.3382 -0.4686
12853SOL    HW140298   4.012   6.762   4.191  2.0844  1.0750  0.1551
12853SOL    HW240299   4.135   6.679   4.164  0.2228 -1.8215  0.1574
12854SOL     OW40300   0.443   8.128   0.012  0.2566 -0.1802  0.0416
12854SOL    HW140301   0.398   8.115  -0.072  0.3611 -2.8177  0.3102
12854SOL    HW240302   0.504   8.200  -0.005  0.2937 -0.6452 -2.1643
12855SOL     OW40303   1.857   0.981   4.086 -0.2787 -0.1092  0.0893
12855SOL    HW140304   1.916   0.998   4.160  0.4731  0.3631 -0.5999
12855SOL    HW240305   1.873   0.890   4.063  1.7286  0.5470 -1.3778
12856SOL     OW40306   0.657   9.513   4.728 -0.0670 -0.4554 -0.0147
12856SOL    HW140307   0.733   9.554   4.770 -0.6276  0.2778  0.2952
12856SOL    HW240308   0.622   9.581   4.670 -0.6424 -0.7045  0.0381
12857SOL     OW40309   8.577   5.445   6.942  0.2055  0.5242 -0.0906
12857SOL    HW140310   8.559   5.491   7.024  0.2618 -2.3006  1.6486
12857SOL    HW240311   8.672   5.446   6.934  0.2418  0.1569  0.2878
12858SOL     OW40312   1.233   4.853   6.479 -0.2339 -0.0121 -0.2596
12858SOL    HW140313   1.307   4.848   6.540  1.0548  0.5891 -1.6993
12858SOL    HW240314   1.182   4.928   6.509  0.2823  0.1696  0.1829
12859SOL     OW40315   7.217   9.127   8.966  0.6827 -0.2094  0.1313
12859SOL    HW140316   7.245   9.204   8.916  2.4446 -0.9523 -0.0898
12859SOL    HW240317   7.129   9.149   8.996  0.6556  1.3734 -0.9835
12860SOL     OW40318   6.464   9.515   2.568 -0.0913  0.0382 -0.4282
12860SOL    HW140319   6.416   9.458   2.629  0.9063  0.4581  0.7875
12860SOL    HW240320   6.436   9.485   2.481 -0.1836 -1.7992  0.1826
12861SOL     OW40321   8.994   5.657   3.187 -0.0827  0.0315  0.6267
12861SOL    HW140322   8.984   5.590   3.118 -0.2416 -0.2696  0.9401
12861SOL    HW240323   9.086   5.651   3.212 -0.3260 -0.7852  1.3705
12862SOL     OW40324   2.370   5.863   0.887  0.3716 -0.1323  0.0694
12862SOL    HW140325   2.331   5.943   0.853  2.1249  1.7372  2.0783
12862SOL    HW240326   2.458   5.862   0.850  1.3791  0.5327  2.2283
12863SOL     OW40327   7.987   2.016   0.548 -0.1774 -0.3879 -0.7103
12863SOL    HW140328   8.046   2.010   0.472  0.7437  0.5140 -0.1026
12863SOL    HW240329   8.010   1.940   0.602  0.5893  0.0447 -0.3972
12864SOL     OW40330   2.786   8.787   0.307  0.2547 -0.2088 -0.1124
12864SOL    HW140331   2.756   8.852   0.243  3.8005  1.6678 -0.1099
12864SOL    HW240332   2.705   8.753   0.346 -1.8734  2.5520 -1.7121
12865SOL     OW40333   0.658   3.043   1.292 -0.6396  0.0956  0.0134
12865SOL    HW140334   0.665   3.062   1.386 -2.1679 -0.8384  0.3629
12865SOL    HW240335   0.592   3.104   1.261 -0.5868 -0.0173 -0.3171
12866SOL     OW40336   9.077   8.014   5.509 -0.1748  0.0162  0.1819
12866SOL    HW140337   8.998   7.965   5.532  0.0408 -0.1898  0.5062
12866SOL    HW240338   9.143   7.981   5.570  0.5837 -1.0036 -1.1454
12867SOL     OW40339   2.678   9.191   8.963 -0.1058  0.1253 -0.0141
12867SOL    HW140340   2.701   9.152   9.047 -0.4419  0.5917  0.3034
12867SOL    HW240341   2.724   9.138   8.898  1.3444  0.6376  0.5495
12868SOL     OW40342   0.233   8.826   2.913  0.1311 -0.4900 -0.6019
12868SOL    HW140343   0.234   8.881   2.991 -0.2803  0.6598 -1.3712
12868SOL    HW240344   0.148   8.782   2.916  0.7353 -1.6625  0.3692
12869SOL     OW40345   4.420   1.405   9.219  0.1146 -0.0285 -0.6827
12869SOL    HW140346   4.395   1.473   9.281  1.6518  0.1557 -0.2195
12869SOL    HW240347   4.357   1.334   9.233 -2.3030  1.7071 -2.0298
12870SOL     OW40348   5.877   4.823   0.781 -0.2988 -0.3241 -0.1420
12870SOL    HW140349   5.875   4.873   0.699  2.3937 -0.4956 -0.4232
12870SOL    HW240350   5.909   4.886   0.845 -0.7417 -0.6523  0.4047
12871SOL     OW40351   6.042   2.259   1.029  0.0509 -0.2116  0.2653
12871SOL    HW140352   6.049   2.230   1.120  0.7725  0.4739  0.4435
12871SOL    HW240353   5.991   2.340   1.033 -0.0679 -0.2752  0.0368
12872SOL     OW40354   1.424   5.151   7.880  0.4969 -0.4605 -0.8062
12872SOL    HW140355   1.366   5.089   7.835  1.0459 -0.1757 -1.9487
12872SOL    HW240356   1.414   5.130   7.972 -2.4428  0.3951 -0.8030
12873SOL     OW40357   1.408   4.481   5.075  0.1027  0.1111  0.0714
12873SOL    HW140358   1.370   4.413   5.129  1.1126  1.1407  2.2154
12873SOL    HW240359   1.417   4.441   4.988 -3.3084 -0.9911  0.1009
12874SOL     OW40360   5.476   0.857   8.053  0.8775  0.0385  0.3822
12874SOL    HW140361   5.487   0.762   8.055 -0.6229 -0.2633 -1.9147
12874SOL    HW240362   5.559   0.890   8.022  1.0553 -0.6166  0.1456
12875SOL     OW40363   7.395   2.544   2.307 -0.0118 -0.4711 -0.0645
12875SOL    HW140364   7.371   2.464   2.260 -0.7184 -0.2243 -0.1237
12875SOL    HW240365   7.427   2.603   2.238 -2.3873  0.4169 -0.4801
12876SOL     OW40366   7.202   4.568   1.755 -0.3241 -0.7012 -0.5465
12876SOL    HW140367   7.278   4.624   1.770 -0.9031  0.1092 -0.5692
12876SOL    HW240368   7.128   4.628   1.750 -1.2690 -1.5780  1.4322
12877SOL     OW40369   8.460   8.155   3.215  0.2029 -0.3277  0.2911
12877SOL    HW140370   8.417   8.225   3.166 -1.1633 -1.1377  0.2805
12877SOL    HW240371   8.406   8.078   3.199  1.8793 -1.4985 -0.0106
12878SOL     OW40372   9.568   5.212   1.548  0.2318  0.6020  0.3043
12878SOL    HW140373   9.618   5.207   1.630  1.6812  1.3144 -0.4826
12878SOL    HW240374   9.482   5.243   1.574 -0.2057 -1.7287  1.8444
12879SOL     OW40375   5.269   6.478   6.292 -0.0115  0.2144 -0.2301
12879SOL    HW140376   5.307   6.514   6.211 -0.6385  0.1086 -0.5754
12879SOL    HW240377   5.339   6.486   6.357  0.3515  0.6959 -0.6766
12880SOL     OW40378   3.706   2.947   7.713 -0.0713  0.5728  0.1626
12880SOL    HW140379   3.768   2.905   7.773 -0.0725  1.0964  0.5455
12880SOL    HW240380   3.632   2.972   7.768 -0.7999 -0.3708 -0.3640
12881SOL     OW40381   4.981   4.050   1.615 -0.3298 -0.2836  0.3288
12881SOL    HW140382   4.953   4.140   1.601  0.4160  0.0351  0.8523
12881SOL    HW240383   5.053   4.038   1.552  1.7192  0.5297  2.3880
12882SOL     OW40384   2.860   1.699   2.702  0.1959  0.2191  0.0039
12882SOL    HW140385   2.793   1.645   2.660  0.5038 -0.0597 -0.1381
12882SOL    HW240386   2.834   1.703   2.794  0.7221 -1.0503  0.2307
12883SOL     OW40387   8.785   8.249   0.783  0.0346  0.2279 -0.2594
12883SOL    HW140388   8.711   8.198   0.817  0.0188  0.6719  0.3956
12883SOL    HW240389   8.762   8.269   0.693  0.1736 -1.1713 -0.6338
12884SOL     OW40390   8.089   7.176   7.375  0.1337 -0.4176 -0.8340
12884SOL    HW140391   8.012   7.122   7.356  0.2910 -1.4862  1.2883
12884SOL    HW240392   8.082   7.196   7.468  1.4160  1.1349 -1.0327
12885SOL     OW40393   9.596   6.757   9.324  0.2728 -0.3895  0.0339
12885SOL    HW140394   9.575   6.743   9.417  1.5251 -2.4774  0.0565
12885SOL    HW240395   9.605   6.852   9.316 -0.1801 -0.1362  1.9654
12886SOL     OW40396   9.546   1.468   6.578  0.3069 -0.6083 -0.0262
12886SOL    HW140397   9.555   1.411   6.501  0.1861  0.4110 -0.8218
12886SOL    HW240398   9.581   1.552   6.549 -2.7310  0.7597 -0.1087
12887SOL     OW40399   7.929   5.000   6.435  0.2166  0.0585 -0.2756
12887SOL    HW140400   7.876   4.993   6.356 -1.0891 -0.4673  0.6254
12887SOL    HW240401   7.986   5.075   6.418 -1.6765  1.4522 -0.7691
12888SOL     OW40402   6.081   5.977   0.398 -0.0219  0.2126  0.0124
12888SOL    HW140403   6.157   6.035   0.408  1.5054 -1.5418 -0.9444
12888SOL    HW240404   6.050   5.963   0.488  1.3432  0.2528  0.5131
12889SOL     OW40405   3.395   7.234   7.560 -0.9111  0.0652  0.3326
12889SOL    HW140406   3.427   7.315   7.599 -1.1930  0.3427 -0.0129
12889SOL    HW240407   3.358   7.260   7.476  1.4904 -0.7617 -1.1151
12890SOL     OW40408   6.453   0.518   2.968  0.3562 -0.3221 -0.0060
12890SOL    HW140409   6.483   0.441   3.017 -0.5310 -0.9325 -0.3894
12890SOL    HW240410   6.506   0.517   2.888 -0.0034 -0.8351 -0.2420
12891SOL     OW40411   4.844   2.257   6.581 -0.6226 -0.2120 -0.1369
12891SOL    HW140412   4.817   2.211   6.501 -1.1152  0.5226 -0.4040
12891SOL    HW240413   4.774   2.238   6.644  0.3836 -1.8333  0.5453
12892SOL     OW40414   8.656   2.565   7.969  0.4031  0.3845 -0.0447
12892SOL    HW140415   8.562   2.578   7.960  0.2970  0.3210  0.8848
12892SOL    HW240416   8.684   2.633   8.031  0.7518 -0.3923  0.6628
12893SOL     OW40417   6.856   1.845   5.743 -0.4799 -0.6420 -0.8054
12893SOL    HW140418   6.762   1.860   5.742 -0.6072 -0.3605  3.0777
12893SOL    HW240419   6.892   1.920   5.695 -2.1355  0.6057 -0.1819
12894SOL     OW40420   2.489   8.520   4.109  0.2499  0.0262 -0.0430
12894SOL    HW140421   2.456   8.592   4.164  1.4546  0.6168 -0.0686
12894SOL    HW240422   2.494   8.557   4.021  0.5380 -0.2017 -0.1248
12895SOL     OW40423   0.956   3.554   4.354 -0.4027  0.1722 -0.3377
12895SOL    HW140424   1.041   3.589   4.325 -0.4413 -0.5382 -1.3792
12895SOL    HW240425   0.922   3.620   4.414 -0.3145  1.7849 -1.9553
12896SOL     OW40426   2.805   6.178   9.148  0.2914 -0.1138  0.2085
12896SOL    HW140427   2.891   6.218   9.147  1.1011 -1.7748 -0.0417
12896SOL    HW240428   2.745   6.249   9.125  1.6292  0.9336 -0.1792
12897SOL     OW40429   9.139   1.664   0.001  0.4370 -0.7719  0.4994
12897SOL    HW140430   9.181   1.637   0.083 -1.0557 -1.6028  1.0511
12897SOL    HW240431   9.045   1.657   0.020  0.0295  0.8852 -0.6862
12898SOL     OW40432   4.454   2.052   0.614 -0.2151 -0.6372  0.4230
12898SOL    HW140433   4.477   2.004   0.534  1.9724  0.5427  0.2817
12898SOL    HW240434   4.425   2.137   0.584  0.5739 -0.2018  0.8614
12899SOL     OW40435   8.825   9.373   3.884 -0.0955  0.0693 -0.0158
12899SOL    HW140436   8.771   9.434   3.833  0.4732  0.7855  0.2269
12899SOL    HW240437   8.915   9.403   3.870  0.0943  0.0458  1.0952
12900SOL     OW40438   5.273   7.135   0.522 -0.4128  0.0539  0.2157
12900SOL    HW140439   5.199   7.165   0.470  0.4640 -0.4531 -1.3759
12900SOL    HW240440   5.335   7.101   0.458  1.3657  0.8099  1.4724
12901SOL     OW40441   1.107   6.497   6.374  1.0684 -0.4183 -0.4622
12901SOL    HW140442   1.088   6.440   6.299 -1.7674 -1.9170  1.2510
12901SOL    HW240443   1.059   6.459   6.447  1.8080  2.3036  1.6345
12902SOL     OW40444   4.061   2.167   1.540 -0.3691 -0.2308  0.1618
12902SOL    HW140445   4.019   2.094   1.494 -0.4891  0.1070 -0.2693
12902SOL    HW240446   4.006   2.181   1.617 -0.6198 -0.2786 -0.0077
12903SOL     OW40447   9.274   3.706   1.546 -0.6733  0.1878 -0.5178
12903SOL    HW140448   9.321   3.758   1.612  0.7594  0.7195 -1.8970
12903SOL    HW240449   9.188   3.748   1.540 -1.2583 -0.5533  1.7688
12904SOL     OW40450   5.951   2.387   3.581  0.2025 -0.0159 -0.1999
12904SOL    HW140451   6.040   2.412   3.605  0.4095 -0.6397 -0.3042
12904SOL    HW240452   5.915   2.464   3.537  0.9493 -0.0344 -0.8532
12905SOL     OW40453   5.029   7.714   8.182  0.5417  0.2067  0.2043
12905SOL    HW140454   5.008   7.727   8.089  0.1418  1.3078  0.4294
12905SOL    HW240455   4.999   7.626   8.202 -0.5155  0.4112 -0.4153
12906SOL     OW40456   8.712   5.126   0.897  0.2225 -0.0181  0.0140
12906SOL    HW140457   8.667   5.174   0.967 -2.4276 -1.6446 -0.4321
12906SOL    HW240458   8.673   5.039   0.899  2.5583 -1.1908 -1.3028
12907SOL     OW40459   3.980   4.530   1.032 -0.2247 -0.0795  0.1896
12907SOL    HW140460   4.009   4.443   1.005 -0.3602 -0.0691  0.0116
12907SOL    HW240461   3.995   4.531   1.127 -1.0819 -0.6350  0.3484
12908SOL     OW40462   8.580   7.647   2.738  0.5769  0.0615 -0.4693
12908SOL    HW140463   8.512   7.643   2.671 -0.0987  0.7287  0.1637
12908SOL    HW240464   8.599   7.740   2.747  1.2549 -0.0892 -0.3141
12909SOL     OW40465   3.393   3.291   0.405 -0.0555  0.1245 -0.4127
12909SOL    HW140466   3.329   3.254   0.344 -1.1887 -1.3775  1.5686
12909SOL    HW240467   3.350   3.370   0.439 -0.5567 -0.4327  0.2946
12910SOL     OW40468   8.805   6.957   4.431 -0.3021  0.0836  0.3210
12910SOL    HW140469   8.871   6.942   4.500  0.4459 -1.3740 -0.6728
12910SOL    HW240470   8.853   6.944   4.349 -1.5811  0.1089 -0.4530
12911SOL     OW40471   4.700   5.218   3.717  0.4005  0.1994 -0.4267
12911SOL    HW140472   4.728   5.207   3.808  1.1127  1.1710 -0.5174
12911SOL    HW240473   4.780   5.210   3.666  0.1134  0.3669 -0.9076
12912SOL     OW40474   4.118   5.461   7.593 -0.1343  0.0123 -0.0864
12912SOL    HW140475   4.172   5.436   7.518  0.9376  0.7097  0.4227
12912SOL    HW240476   4.069   5.537   7.563  0.9044  0.7963  0.1562
12913SOL     OW40477   1.736   7.904   6.303 -0.1891 -0.2672 -0.4016
12913SOL    HW140478   1.656   7.922   6.252 -1.3116 -2.5000  0.4335
12913SOL    HW240479   1.807   7.925   6.243 -1.2631  3.4185 -0.6297
12914SOL     OW40480   0.915   1.242   2.173 -0.0206  0.3901 -0.0306
12914SOL    HW140481   0.901   1.300   2.247 -1.7930  0.8647 -0.7000
12914SOL    HW240482   0.844   1.178   2.178  0.1671  0.0801 -0.9858
12915SOL     OW40483   2.491   6.130   4.069 -0.0261  0.1399 -0.0100
12915SOL    HW140484   2.549   6.107   3.997 -0.4690 -0.3591 -0.2118
12915SOL    HW240485   2.415   6.169   4.026  0.3643  1.2609  0.2794
12916SOL     OW40486   8.895   7.921   7.914 -0.2637 -0.2808  0.2173
12916SOL    HW140487   8.809   7.884   7.935 -1.2813  2.1180  0.6046
12916SOL    HW240488   8.935   7.939   7.999  0.2588 -0.5173  0.0304
12917SOL     OW40489   2.955   8.704   2.444 -0.4500 -0.3654 -0.6502
12917SOL    HW140490   2.893   8.758   2.396 -0.1264  0.7357  0.1257
12917SOL    HW240491   2.914   8.689   2.529 -0.6875 -1.6607 -0.9768
12918SOL     OW40492   1.588   3.757   3.877  0.6570  0.0701 -0.1037
12918SOL    HW140493   1.643   3.703   3.821  1.4784  0.0923  0.6568
12918SOL    HW240494   1.647   3.824   3.912 -0.0202  0.5529  0.1346
12919SOL     OW40495   8.771   3.785   2.197  0.0457  0.6183 -0.4985
12919SOL    HW140496   8.834   3.737   2.143  0.7989  1.2218 -0.1764
12919SOL    HW240497   8.710   3.822   2.134  0.4373  0.6252 -0.8824
12920SOL     OW40498   4.285   2.380   6.760  0.0974  0.5362  0.0943
12920SOL    HW140499   4.381   2.380   6.769  0.2018 -1.5715 -0.4983
12920SOL    HW240500   4.261   2.472   6.763  2.2817  1.2166 -1.0298
12921SOL     OW40501   2.083   4.671   1.195 -0.9540 -0.4669 -0.3349
12921SOL    HW140502   2.040   4.625   1.124  0.1515 -2.5412  0.2640
12921SOL    HW240503   2.020   4.668   1.267 -0.2335 -2.8330  0.2996
12922SOL     OW40504   7.744   5.377   2.443  0.2148 -0.3090 -0.0115
12922SOL    HW140505   7.836   5.403   2.449 -0.5507  2.8841 -0.7434
12922SOL    HW240506   7.729   5.363   2.350 -0.1908 -0.2349  0.0405
12923SOL     OW40507   7.831   6.630   7.566 -0.1984  0.0340 -0.4488
12923SOL    HW140508   7.795   6.680   7.639 -0.5605 -1.3066  0.3276
12923SOL    HW240509   7.760   6.625   7.502  0.1933  1.4050 -1.0300
12924SOL     OW40510   1.296   3.819   2.910 -0.3506  0.2146 -0.3684
12924SOL    HW140511   1.346   3.738   2.921  1.9259  1.4563 -1.0502
12924SOL    HW240512   1.250   3.830   2.994 -1.5746 -2.2619 -0.6140
12925SOL     OW40513   9.285   5.545   7.481  0.1194  0.1359  0.5697
12925SOL    HW140514   9.283   5.526   7.575 -2.0205 -1.0170  0.3713
12925SOL    HW240515   9.347   5.483   7.445  0.9280  0.5623  1.2050
12926SOL     OW40516   7.762   5.118   2.263 -0.2280  0.4989 -0.3318
12926SOL    HW140517   7.679   5.138   2.221 -0.4801 -0.3845 -0.2753
12926SOL    HW240518   7.739   5.059   2.335  0.3215  1.1297  0.3823
12927SOL     OW40519   6.914   4.221   1.922 -0.5657  0.1421  0.1719
12927SOL    HW140520   6.852   4.221   1.849  0.4561 -0.4778 -0.7135
12927SOL    HW240521   6.911   4.131   1.955 -0.6452  0.2919  0.5842
12928SOL     OW40522   1.128   2.362   9.496  0.0082 -0.1392  0.3738
12928SOL    HW140523   1.219   2.344   9.521 -0.3024 -4.3339 -0.8205
12928SOL    HW240524   1.135   2.401   9.408  0.6538  0.4051  0.6606
12929SOL     OW40525   2.355   2.164   3.261 -0.1911 -0.4284  0.1190
12929SOL    HW140526   2.410   2.237   3.232  1.0056 -1.2742  0.2190
12929SOL    HW240527   2.313   2.133   3.180  1.4636 -1.3945 -0.4199
12930SOL     OW40528   4.004   1.149   0.332  0.2802 -0.3249  0.2623
12930SOL    HW140529   4.092   1.178   0.306  0.1478 -0.7145 -0.6651
12930SOL    HW240530   3.946   1.185   0.265 -0.1220 -1.1041  0.1880
12931SOL     OW40531   6.121   0.152   9.504 -0.0045  0.1999  0.1096
12931SOL    HW140532   6.133   0.082   9.440 -0.9422 -0.8475  1.0527
12931SOL    HW240533   6.153   0.116   9.586 -0.5995  0.8393  0.6369
12932SOL     OW40534   3.622   2.948   1.373  0.5473  0.2816  0.0556
12932SOL    HW140535   3.541   2.973   1.327 -0.4569 -1.4053  0.7957
12932SOL    HW240536   3.594   2.935   1.464  1.5695 -0.6174  0.2627
12933SOL     OW40537   2.608   5.067   1.590 -0.7498 -0.2138 -0.6289
12933SOL    HW140538   2.573   4.980   1.608 -0.3653 -0.2602 -0.0890
12933SOL    HW240539   2.689   5.051   1.541 -1.0821 -0.1305 -1.2137
12934SOL     OW40540   7.467   7.136   8.347 -0.3368  0.4694 -0.3113
12934SOL    HW140541   7.389   7.180   8.381 -0.6738 -0.4591  0.1670
12934SOL    HW240542   7.510   7.100   8.424  1.4901  2.3411 -0.3683
12935SOL     OW40543   8.034   0.655   5.143  0.1477 -0.0290 -0.4621
12935SOL    HW140544   7.974   0.618   5.078 -0.0974 -0.9317  0.2535
12935SOL    HW240545   8.016   0.606   5.222  2.0953 -0.5716 -0.3141
12936SOL     OW40546   2.359   9.354   6.653  0.2884 -0.1049  0.5814
12936SOL    HW140547   2.364   9.394   6.566  2.1024 -0.7358  0.3561
12936SOL    HW240548   2.441   9.380   6.696 -0.5003  0.0478  2.0545
12937SOL     OW40549   7.063   0.533   6.326  0.0841  0.1017  0.6326
12937SOL    HW140550   6.984   0.482   6.307  1.1242 -1.3585  0.0388
12937SOL    HW240551   7.072   0.528   6.421 -0.3147 -0.0819  0.6639
12938SOL     OW40552   2.579   4.492   5.917 -0.0341  0.1620 -0.0090
12938SOL    HW140553   2.490   4.507   5.950  0.4106  1.1400  0.7958
12938SOL    HW240554   2.576   4.403   5.880 -1.1515 -0.1036  0.6579
12939SOL     OW40555   1.323   6.200   0.576 -0.7710  0.5499 -0.1281
12939SOL    HW140556   1.409   6.231   0.601  0.1601 -1.9216  0.0507
12939SOL    HW240557   1.314   6.115   0.619 -1.8853 -0.8064 -2.7447
12940SOL     OW40558   6.331   0.801   1.247  0.3110 -0.8545 -1.0777
12940SOL    HW140559   6.412   0.852   1.255  0.0531 -0.5465 -0.3119
12940SOL    HW240560   6.269   0.862   1.206 -0.4661  0.0485  1.2654
12941SOL     OW40561   0.941   4.730   8.303 -0.4632  0.3041 -0.1867
12941SOL    HW140562   0.913   4.784   8.377  0.0169  0.4821 -0.1298
12941SOL    HW240563   0.898   4.770   8.227 -0.7543  0.2738 -0.0402
12942SOL     OW40564   0.144   0.407   8.187  0.5065 -0.8551  0.6358
12942SOL    HW140565   0.221   0.451   8.152  0.0699 -0.3960  0.2406
12942SOL    HW240566   0.079   0.413   8.117  0.6207 -2.6645  0.3240
12943SOL     OW40567   5.466   6.556   3.949 -0.4324 -0.1911 -0.1019
12943SOL    HW140568   5.507   6.528   3.867 -2.2012  2.4844 -2.0573
12943SOL    HW240569   5.375   6.527   3.941 -0.7499  0.5594  0.6850
12944SOL     OW40570   8.116   0.129   1.236  0.0620 -0.5946 -0.3893
12944SOL    HW140571   8.067   0.207   1.260  1.1388 -0.3240  1.0858
12944SOL    HW240572   8.167   0.155   1.160  1.3934  0.6038  0.8544
12945SOL     OW40573   7.969   8.411   3.804 -0.2312  0.1891 -0.3856
12945SOL    HW140574   7.909   8.337   3.794 -0.2012  0.1722 -0.4407
12945SOL    HW240575   7.933   8.462   3.877 -0.9512  0.7987 -1.1532
12946SOL     OW40576   5.111   8.133   9.478  0.4406  1.1050  0.9620
12946SOL    HW140577   5.083   8.187   9.552 -2.2872  0.5734  0.4419
12946SOL    HW240578   5.106   8.192   9.402  0.0875  0.8333  0.7708
12947SOL     OW40579   2.662   5.358   3.575  0.4519 -0.2399 -0.0971
12947SOL    HW140580   2.650   5.369   3.481  1.8083 -0.4366 -0.3062
12947SOL    HW240581   2.573   5.361   3.611 -0.3153 -2.3163 -1.5953
12948SOL     OW40582   5.776   7.242   3.053  0.0598  0.2044  0.4953
12948SOL    HW140583   5.793   7.165   2.999  1.6880  0.2036  0.9816
12948SOL    HW240584   5.691   7.274   3.021  1.1170  0.4688 -2.3730
12949SOL     OW40585   8.587   5.684   8.275 -0.0146  0.0407  0.1987
12949SOL    HW140586   8.566   5.650   8.188  0.5974  0.7949 -0.2599
12949SOL    HW240587   8.680   5.707   8.270 -0.3310  1.5310  0.5386
12950SOL     OW40588   0.590   7.912   2.475  0.2369 -0.0633 -0.0786
12950SOL    HW140589   0.686   7.911   2.473  0.2493 -1.5814 -2.0450
12950SOL    HW240590   0.565   7.991   2.428  0.5449 -0.1266 -0.3496
12951SOL     OW40591   4.971   0.084   5.246 -0.0502 -0.1025  0.1025
12951SOL    HW140592   5.050   0.033   5.231 -0.0057  0.3722 -1.4744
12951SOL    HW240593   4.945   0.062   5.336 -0.7509 -3.8952 -0.8537
12952SOL     OW40594   1.783   1.217   1.422  0.1720  0.4879  0.3196
12952SOL    HW140595   1.802   1.131   1.460  1.0257 -0.1257 -1.4036
12952SOL    HW240596   1.688   1.225   1.428  0.1725 -0.0994  1.4501
12953SOL     OW40597   4.081   5.479   0.709 -0.1400  0.1399 -0.2165
12953SOL    HW140598   4.074   5.387   0.685  0.6767 -0.2356  0.8926
12953SOL    HW240599   4.060   5.481   0.802 -2.2008  1.3937 -0.6489
12954SOL     OW40600   3.870   2.571   8.388  0.6451 -0.3550 -0.2857
12954SOL    HW140601   3.864   2.557   8.293 -1.5259  0.5253 -0.3309
12954SOL    HW240602   3.932   2.643   8.398 -0.0744  0.4193 -1.1651
12955SOL     OW40603   8.271   4.020   2.739 -0.2572 -0.1793 -0.0894
12955SOL    HW140604   8.232   4.102   2.770  0.7003  0.6319 -0.9637
12955SOL    HW240605   8.342   4.002   2.801 -1.0980 -0.9043  0.6859
12956SOL     OW40606   0.170   7.660   3.287 -0.1768 -0.3189  0.5247
12956SOL    HW140607   0.091   7.689   3.333  1.0416  0.8766  1.9751
12956SOL    HW240608   0.212   7.741   3.259 -1.0067 -0.9740 -3.1529
12957SOL     OW40609   1.619   5.354   2.331 -0.1411 -0.7608  0.4363
12957SOL    HW140610   1.628   5.441   2.292  1.5152 -0.3967  1.5043
12957SOL    HW240611   1.531   5.354   2.369  0.1303  0.7944  1.1543
12958SOL     OW40612   3.013   5.713   0.077  0.6074  0.0173  0.3215
12958SOL    HW140613   3.036   5.757  -0.005 -0.4434  1.6313  0.8505
12958SOL    HW240614   3.074   5.749   0.141  0.5140 -0.2002  0.5346
12959SOL     OW40615   5.656   1.168   7.483  0.4639  0.1032 -0.3000
12959SOL    HW140616   5.590   1.149   7.416 -1.6660  1.7594  1.1761
12959SOL    HW240617   5.623   1.125   7.562  1.0033  1.1332  0.5158
12960SOL     OW40618   5.404   2.845   1.689 -0.0466  0.2101 -0.0715
12960SOL    HW140619   5.483   2.896   1.673 -0.1993  0.5356  0.2024
12960SOL    HW240620   5.408   2.823   1.782  0.4921 -1.0915 -0.3794
12961SOL     OW40621   9.023   5.275   3.729  0.3276  0.2835 -0.1884
12961SOL    HW140622   9.105   5.323   3.720  0.4445  0.0391 -0.4587
12961SOL    HW240623   8.956   5.342   3.736  0.4229  0.5029 -1.1412
12962SOL     OW40624   5.000   0.420   8.829 -0.0283 -0.0745 -0.2757
12962SOL    HW140625   4.993   0.438   8.735  0.1019  1.2115 -0.0573
12962SOL    HW240626   5.006   0.507   8.870 -0.7991 -0.5933  0.9881
12963SOL     OW40627   1.422   1.237   0.557 -0.7634 -0.2591 -0.3039
12963SOL    HW140628   1.497   1.179   0.563 -0.6225 -0.0986 -0.5181
12963SOL    HW240629   1.459   1.323   0.534 -0.8849  0.1033  0.7921
12964SOL     OW40630   1.692   5.907   0.035  0.4768  0.0342 -0.0356
12964SOL    HW140631   1.716   5.818   0.061 -0.8988  0.0941  1.5961
12964SOL    HW240632   1.599   5.915   0.058  0.9295  2.3675  1.3234
12965SOL     OW40633   3.388   2.663   3.064 -0.1268  0.2147 -0.4191
12965SOL    HW140634   3.399   2.673   2.969  0.9346 -0.3351 -0.3722
12965SOL    HW240635   3.297   2.637   3.075  0.2996 -1.9290 -1.4881
12966SOL     OW40636   0.087   1.473   4.255 -0.4425 -0.1948 -0.1818
12966SOL    HW140637   0.115   1.563   4.275 -0.6879 -0.1375 -0.0916
12966SOL    HW240638   0.159   1.436   4.205  0.1246 -0.2938  0.6840
12967SOL     OW40639   6.765   3.359   2.424  0.3051  0.1910 -0.2533
12967SOL    HW140640   6.684   3.316   2.398 -0.0068  1.5579 -1.6365
12967SOL    HW240641   6.809   3.380   2.342  0.5241  2.3121  0.3615
12968SOL     OW40642   8.464   7.232   0.922 -0.1696 -0.0814  0.1911
12968SOL    HW140643   8.468   7.281   1.004  1.6716  1.8078 -0.9189
12968SOL    HW240644   8.381   7.258   0.882 -0.2808  0.3345  0.6887
12969SOL     OW40645   1.669   3.837   4.360 -0.3844 -0.5896 -0.2085
12969SOL    HW140646   1.606   3.906   4.336  0.2200  0.7033  1.6648
12969SOL    HW240647   1.618   3.756   4.359 -1.5147  0.1094 -0.8979
12970SOL     OW40648   2.525   0.057   5.274  0.0264 -0.2539  0.6795
12970SOL    HW140649   2.578  -0.023   5.265 -0.2497 -1.0550  4.4317
12970SOL    HW240650   2.557   0.115   5.204  0.3682 -3.4782 -2.1115
12971SOL     OW40651   2.379   7.600   0.783 -0.0492  0.3523 -0.3690
12971SOL    HW140652   2.359   7.530   0.721 -0.2857 -1.0918  1.2746
12971SOL    HW240653   2.293   7.638   0.805  0.0043  0.6368 -0.6309
12972SOL     OW40654   2.857   3.722   8.219  0.6856 -0.3206 -0.0010
12972SOL    HW140655   2.799   3.675   8.160  0.9126 -0.4818 -0.0982
12972SOL    HW240656   2.900   3.787   8.164  1.3195 -0.8466 -0.1328
12973SOL     OW40657   8.395   9.463   8.865 -0.2005  0.1100 -0.0016
12973SOL    HW140658   8.442   9.426   8.791  0.1116  1.1783 -0.3400
12973SOL    HW240659   8.389   9.556   8.847 -2.1747  0.0623  0.1838
12974SOL     OW40660   2.472   5.448   8.469  0.1056  0.5569 -0.1360
12974SOL    HW140661   2.385   5.477   8.440  0.7841  4.0007  0.7609
12974SOL    HW240662   2.530   5.472   8.397  0.4226 -1.5102 -0.6286
12975SOL     OW40663   2.287   0.083   2.966  0.0033 -0.2200  0.2576
12975SOL    HW140664   2.352   0.062   3.033 -0.1401  0.1120  0.5041
12975SOL    HW240665   2.334   0.073   2.883  1.2701  2.8181  0.4829
12976SOL     OW40666   8.587   3.298   1.352  0.1332  0.6722 -0.0201
12976SOL    HW140667   8.646   3.295   1.428 -1.2102  0.3400  1.0615
12976SOL    HW240668   8.527   3.370   1.371 -1.5059 -0.7087  0.2761
12977SOL     OW40669   3.463   4.404   0.348  0.1130 -0.0541  0.5222
12977SOL    HW140670   3.534   4.382   0.288  1.8598  1.1438  2.0394
12977SOL    HW240671   3.411   4.324   0.354  1.8297 -1.2620  0.0005
12978SOL     OW40672   4.103   4.130   0.073 -0.5897 -0.2468  0.2661
12978SOL    HW140673   4.013   4.133   0.039 -0.5621 -3.3547 -0.3953
12978SOL    HW240674   4.150   4.074   0.011  1.8770  1.3163  0.5763
12979SOL     OW40675   7.186   8.014   8.003  0.1838 -0.1178 -0.3305
12979SOL    HW140676   7.196   8.093   8.056  1.2130 -0.6303  0.2948
12979SOL    HW240677   7.203   8.043   7.913  1.3554  0.2430 -0.0152
12980SOL     OW40678   7.815   7.302   4.700  0.9051 -0.3735 -0.2773
12980SOL    HW140679   7.806   7.335   4.790 -0.4565  0.6729 -0.7534
12980SOL    HW240680   7.872   7.365   4.657 -1.1893  1.1332 -1.0173
12981SOL     OW40681   8.732   2.304   9.266  0.1306 -0.2122 -0.5031
12981SOL    HW140682   8.685   2.246   9.326  0.5994  0.5659  0.6633
12981SOL    HW240683   8.824   2.280   9.278  0.2948  0.5086 -0.2851
12982SOL     OW40684   2.619   2.951   2.874 -0.1597  1.0020  0.1617
12982SOL    HW140685   2.646   3.018   2.811 -1.4404  2.4009  1.0333
12982SOL    HW240686   2.667   2.972   2.954  0.6909 -0.1566 -0.0202
12983SOL     OW40687   0.750   3.684   6.462 -0.1810 -0.2435 -0.8734
12983SOL    HW140688   0.807   3.696   6.386  0.9401  0.1864  0.0240
12983SOL    HW240689   0.683   3.752   6.452 -0.0911 -0.2369 -1.5018
12984SOL     OW40690   2.977   7.825   6.673 -0.0784 -0.0810 -0.1973
12984SOL    HW140691   2.983   7.811   6.578 -1.4288  0.7418 -0.4270
12984SOL    HW240692   3.029   7.754   6.711 -0.3669 -1.0404 -1.5252
12985SOL     OW40693   5.764   8.936   7.624  0.0066  0.6704 -0.1666
12985SOL    HW140694   5.758   9.023   7.665 -0.0093  0.8066 -0.4606
12985SOL    HW240695   5.851   8.935   7.583 -0.4573  0.9957 -1.1828
12986SOL     OW40696   3.391   1.021   5.048 -0.3483 -0.0329 -0.0054
12986SOL    HW140697   3.297   1.008   5.063 -0.4781 -1.9934 -1.9861
12986SOL    HW240698   3.434   0.963   5.110 -0.3314  1.8830  1.8620
12987SOL     OW40699   9.547   8.969   9.257 -0.3083  0.0150  0.6159
12987SOL    HW140700   9.483   8.928   9.199 -0.5175 -0.6277  1.2889
12987SOL    HW240701   9.559   8.906   9.328 -0.5035  1.0350  1.5795
12988SOL     OW40702   6.550   1.146   8.266  0.5902 -0.3349 -0.5392
12988SOL    HW140703   6.462   1.116   8.288  0.0986  0.5901 -1.1626
12988SOL    HW240704   6.599   1.066   8.248 -0.3509 -0.8269 -1.0094
12989SOL     OW40705   3.113   4.797   3.511 -0.1153 -0.0914 -0.0417
12989SOL    HW140706   3.129   4.822   3.420 -0.8772 -1.6651 -0.6465
12989SOL    HW240707   3.192   4.825   3.558  0.0908  1.1677 -1.0746
12990SOL     OW40708   5.781   6.144   4.049  0.3688  0.4390 -0.2872
12990SOL    HW140709   5.765   6.198   4.126 -0.6379 -0.2965  0.0297
12990SOL    HW240710   5.694   6.121   4.017  0.7799 -1.0617 -0.3772
12991SOL     OW40711   5.978   7.109   7.397  0.2694  0.1756 -0.3814
12991SOL    HW140712   5.960   7.179   7.460  0.2057  0.1036 -0.3199
12991SOL    HW240713   5.925   7.131   7.321  0.9535  0.6978 -0.7211
12992SOL     OW40714   9.440   7.930   0.707 -0.2728 -0.2580 -0.6407
12992SOL    HW140715   9.404   7.873   0.775  0.7586 -1.3482 -0.9701
12992SOL    HW240716   9.367   7.986   0.681 -0.6118  0.4064  1.5768
12993SOL     OW40717   5.789   5.356   2.570 -0.5786 -0.4196 -0.8463
12993SOL    HW140718   5.700   5.383   2.548 -0.2144 -0.2991 -2.2751
12993SOL    HW240719   5.843   5.397   2.502  0.7156  0.5063  0.6797
12994SOL     OW40720   5.075   5.432   6.172 -0.3731  0.4661  0.6793
12994SOL    HW140721   5.128   5.372   6.224  0.4180  0.9455  0.4470
12994SOL    HW240722   4.986   5.395   6.176  0.0335 -0.5503  0.7826
12995SOL     OW40723   1.931   3.738   5.654 -0.6407  0.6450  0.2979
12995SOL    HW140724   1.930   3.747   5.559  0.3005 -0.0318  0.2087
12995SOL    HW240725   1.926   3.644   5.669 -0.7203  0.7429  0.9218
12996SOL     OW40726   5.075   2.141   8.284  0.0152 -0.2158  0.1559
12996SOL    HW140727   5.124   2.169   8.207  0.1237  1.1127  0.6778
12996SOL    HW240728   4.989   2.117   8.251  0.7064 -1.7699 -0.6551
12997SOL     OW40729   8.589   5.624   3.047  0.4609 -0.1472  0.1821
12997SOL    HW140730   8.506   5.586   3.076 -0.0347  0.0794 -0.8996
12997SOL    HW240731   8.586   5.715   3.078  0.3518 -0.1644  0.2200
12998SOL     OW40732   3.612   5.951   6.504 -0.3481 -0.5246 -0.6723
12998SOL    HW140733   3.536   5.903   6.536 -0.5108  0.1370 -0.0392
12998SOL    HW240734   3.576   6.009   6.437 -0.4918  0.1203 -0.0490
12999SOL     OW40735   4.021   1.464   1.796  0.2733 -0.4624  0.2216
12999SOL    HW140736   4.110   1.459   1.832  0.5545 -1.5894 -0.5938
12999SOL    HW240737   4.015   1.552   1.759  1.2828 -0.5961 -0.2848
13000SOL     OW40738   6.417   4.172   4.400 -0.1614  0.5462 -0.2734
13000SOL    HW140739   6.447   4.261   4.421 -2.7551  1.2197  0.9679
13000SOL    HW240740   6.476   4.114   4.449 -0.0793  1.7065  1.0558
13001SOL     OW40741   4.763   6.198   1.226  0.3901  0.3330  0.7785
13001SOL    HW140742   4.712   6.274   1.255 -0.0712  0.5579 -0.5420
13001SOL    HW240743   4.770   6.210   1.131  0.1456 -1.3689  0.5234
13002SOL     OW40744   5.615   8.766   0.338 -0.7772 -0.0242  0.1093
13002SOL    HW140745   5.699   8.761   0.384  0.8654  2.2433 -2.3072
13002SOL    HW240746   5.553   8.795   0.403  1.0609  1.4615  1.3011
13003SOL     OW40747   7.086   3.041   2.099  0.1652  0.0545 -0.3071
13003SOL    HW140748   6.995   3.026   2.074  0.1492  1.0558 -0.8679
13003SOL    HW240749   7.088   3.131   2.131  0.6140 -0.5271  1.3825
13004SOL     OW40750   1.056   9.338   5.750  0.8042  0.8235 -0.8566
13004SOL    HW140751   1.107   9.396   5.693  1.5214  2.5797  1.4315
13004SOL    HW240752   0.967   9.372   5.744  0.7272  0.5286 -1.4728
13005SOL     OW40753   6.966   8.018   4.870  0.2554  0.4139  0.7267
13005SOL    HW140754   6.918   8.055   4.795  2.5512  1.1766 -0.4631
13005SOL    HW240755   6.993   7.931   4.841 -0.2732  0.0366  1.3389
13006SOL     OW40756   9.213   6.987   4.748  0.1600 -0.0393 -0.1973
13006SOL    HW140757   9.254   7.033   4.675  0.2970 -0.7606 -0.5871
13006SOL    HW240758   9.128   6.958   4.713 -0.1531  0.3580  0.2085
13007SOL     OW40759   1.241   6.329   5.672  0.1249 -0.2037 -0.2593
13007SOL    HW140760   1.186   6.288   5.738 -0.1371  2.3055  1.2037
13007SOL    HW240761   1.224   6.422   5.681  0.2936  0.2950 -3.7496
13008SOL     OW40762   8.734   1.390   5.429 -0.1366  0.0931 -0.5529
13008SOL    HW140763   8.706   1.407   5.519 -1.9138 -0.1074 -1.0186
13008SOL    HW240764   8.780   1.470   5.403  0.6197  0.0552  0.5900
13009SOL     OW40765   4.024   7.636   8.815 -0.2972 -0.1345 -0.4782
13009SOL    HW140766   4.103   7.584   8.798 -0.1294 -0.0466  0.0052
13009SOL    HW240767   3.956   7.571   8.832 -0.9019 -0.3006 -3.0849
13010SOL     OW40768   6.385   8.185   1.119  0.0985  0.5742  0.2476
13010SOL    HW140769   6.474   8.219   1.110 -0.6381  2.4234 -0.5256
13010SOL    HW240770   6.363   8.200   1.211  0.3039  0.8369  0.2551
13011SOL     OW40771   8.976   6.056   0.255  0.4748 -0.2654 -0.1058
13011SOL    HW140772   8.942   6.025   0.339 -0.0427  0.6239  0.0228
13011SOL    HW240773   8.970   6.151   0.260 -0.4852 -0.2092 -1.5191
13012SOL     OW40774   1.575   7.517   1.556  0.0460  0.1279  0.2464
13012SOL    HW140775   1.521   7.568   1.616 -0.1238  0.4297 -0.1636
13012SOL    HW240776   1.604   7.442   1.609  1.0127  1.0730  1.1157
13013SOL     OW40777   1.507   7.325   5.609  0.5856 -0.2311 -0.0328
13013SOL    HW140778   1.485   7.373   5.689 -0.9627  0.7729 -1.0116
13013SOL    HW240779   1.569   7.382   5.563  0.0469  0.0625 -0.4039
13014SOL     OW40780   0.048   7.422   1.116  0.3339  0.1274 -0.2567
13014SOL    HW140781   0.081   7.450   1.031  0.8653 -1.9413 -0.7930
13014SOL    HW240782   0.103   7.347   1.140 -0.3877  0.1039  1.4960
13015SOL     OW40783   2.938   5.047   6.712 -0.1784  0.6079  0.0940
13015SOL    HW140784   2.896   5.096   6.783  0.1738 -1.7944  2.1294
13015SOL    HW240785   3.030   5.045   6.737  0.1595  0.7241 -1.1085
13016SOL     OW40786   0.855   5.037   8.736  0.1348 -0.5017 -0.3953
13016SOL    HW140787   0.951   5.034   8.734  0.2527  1.8098 -0.4024
13016SOL    HW240788   0.832   5.014   8.826  0.7081 -0.8707 -0.3385
13017SOL     OW40789   8.708   4.746   1.588 -0.4480  0.5929  0.2106
13017SOL    HW140790   8.652   4.675   1.619  0.1350  0.7755  1.8291
13017SOL    HW240791   8.733   4.721   1.499  0.4436 -1.7152  1.0260
13018SOL     OW40792   7.888   6.033   9.380  0.1845 -0.1715 -0.5193
13018SOL    HW140793   7.836   5.967   9.426 -1.8584  2.6293  1.5413
13018SOL    HW240794   7.944   6.070   9.448 -1.1501  2.4260 -0.7303
13019SOL     OW40795   0.834   3.691   3.109  0.2010  0.2359 -0.6241
13019SOL    HW140796   0.851   3.753   3.038  0.6067 -0.4593 -1.1401
13019SOL    HW240797   0.883   3.612   3.085 -1.2329 -0.7013 -0.5430
13020SOL     OW40798   4.859   2.842   2.254 -0.0342  0.2073  0.4664
13020SOL    HW140799   4.931   2.865   2.196  0.5097  0.6468  1.2888
13020SOL    HW240800   4.892   2.860   2.342 -1.4022  1.1136  0.8291
13021SOL     OW40801   6.463   8.876   3.698 -0.2243  0.1618  0.0629
13021SOL    HW140802   6.497   8.962   3.673 -1.2308  0.2236 -1.2259
13021SOL    HW240803   6.436   8.836   3.615 -1.9104 -0.4417  0.8459
13022SOL     OW40804   1.785   4.351   9.434  0.3314  1.2654  0.4698
13022SOL    HW140805   1.803   4.296   9.358 -0.6611  1.7546 -0.1435
13022SOL    HW240806   1.855   4.331   9.496  1.6211  1.4431 -0.8821
13023SOL     OW40807   7.956   4.442   9.446 -0.0223 -0.4443 -0.0519
13023SOL    HW140808   7.973   4.398   9.530 -1.7907 -0.4915  0.3212
13023SOL    HW240809   7.947   4.371   9.383  0.0028 -0.4786 -0.0170
13024SOL     OW40810   7.561   1.977   7.844 -0.1613  0.1981  0.4421
13024SOL    HW140811   7.512   1.970   7.927  0.9660 -0.5696  1.0678
13024SOL    HW240812   7.618   2.052   7.856  0.6860 -0.4782  0.7529
13025SOL     OW40813   8.057   3.034   8.706  0.0359  0.1939  0.0215
13025SOL    HW140814   7.997   2.967   8.738  0.1734  0.1338  0.1549
13025SOL    HW240815   8.128   3.035   8.770  0.1336  0.3251 -0.0890
13026SOL     OW40816   5.925   6.865   1.123  0.2761 -0.3143 -0.2803
13026SOL    HW140817   5.991   6.804   1.155 -1.0848 -1.5659  0.2749
13026SOL    HW240818   5.863   6.810   1.075  0.2921  1.0047 -1.8791
13027SOL     OW40819   3.781   4.265   6.795 -0.5926  0.0608  0.0164
13027SOL    HW140820   3.838   4.189   6.782 -0.5859  0.0557  0.0756
13027SOL    HW240821   3.811   4.304   6.877 -2.0559 -1.1607  1.1782
13028SOL     OW40822   1.840   4.539   7.469 -0.7503  0.2144  0.0928
13028SOL    HW140823   1.925   4.548   7.512 -0.0449 -0.0645 -1.1908
13028SOL    HW240824   1.852   4.468   7.406 -2.1912 -0.3949  0.4612
13029SOL     OW40825   7.879   0.601   6.409  0.3620 -0.2906 -0.4707
13029SOL    HW140826   7.817   0.621   6.338 -0.2906  0.5088  0.2890
13029SOL    HW240827   7.951   0.662   6.396  0.4080 -0.3899 -0.6672
13030SOL     OW40828   1.251   4.726   8.947  0.6821  0.1902 -0.3237
13030SOL    HW140829   1.300   4.677   9.014 -0.3327  0.0240  0.3165
13030SOL    HW240830   1.255   4.817   8.976 -1.2725 -0.0808  1.0000
13031SOL     OW40831   9.198   6.853   0.782 -0.1702 -0.5740  1.2296
13031SOL    HW140832   9.113   6.824   0.814 -0.5532  0.2211  0.9455
13031SOL    HW240833   9.180   6.893   0.697  0.3688  0.2933  1.5082
13032SOL     OW40834   0.799   8.727   7.459 -0.4604 -0.4761  0.2120
13032SOL    HW140835   0.860   8.766   7.397 -0.3931 -1.3311 -0.2714
13032SOL    HW240836   0.719   8.779   7.450  0.2628  0.8569  1.0777
13033SOL     OW40837   4.218   1.920   0.293 -0.3273 -0.5269 -0.6456
13033SOL    HW140838   4.246   1.891   0.380 -1.0660 -1.0092 -0.5584
13033SOL    HW240839   4.140   1.973   0.309  0.7839  1.2692 -0.8386
13034SOL     OW40840   7.322   1.057   3.962 -0.2649 -0.0969 -0.4105
13034SOL    HW140841   7.326   1.004   4.042 -1.7080  0.1615 -0.1370
13034SOL    HW240842   7.247   1.023   3.914 -2.6343  2.9474  0.7874
13035SOL     OW40843   7.660   6.945   6.430 -0.1346 -0.1936  0.2975
13035SOL    HW140844   7.676   6.872   6.371 -1.1212 -0.1791  0.0032
13035SOL    HW240845   7.570   6.973   6.412 -0.2782  0.1579  1.4187
13036SOL     OW40846   5.267   5.607   1.124 -0.5274  0.2719  0.1021
13036SOL    HW140847   5.293   5.515   1.117 -0.3117  0.2896  0.6408
13036SOL    HW240848   5.299   5.647   1.043  0.0625  0.0381  0.2163
13037SOL     OW40849   7.039   1.929   9.139 -0.0480 -0.0770  0.2988
13037SOL    HW140850   6.974   1.973   9.194 -0.0848 -0.0933  0.2678
13037SOL    HW240851   6.988   1.886   9.071 -0.0262 -0.3284  0.4390
13038SOL     OW40852   6.551   5.873   4.861  0.2676 -0.0198  0.2877
13038SOL    HW140853   6.481   5.822   4.820  0.6864  0.3039 -0.8672
13038SOL    HW240854   6.548   5.958   4.816  2.4160 -0.5255 -0.9396
13039SOL     OW40855   3.889   4.796   4.312  0.2135 -0.3182  0.1504
13039SOL    HW140856   3.852   4.714   4.277  1.5017 -0.5855 -0.6228
13039SOL    HW240857   3.903   4.777   4.405  2.2023 -1.6522 -0.3609
13040SOL     OW40858   8.728   4.620   7.111 -0.3817 -0.1052  0.1841
13040SOL    HW140859   8.762   4.541   7.069  0.8496  0.1300  0.7055
13040SOL    HW240860   8.806   4.671   7.133 -1.0912  0.6119  1.1131
13041SOL     OW40861   1.679   5.272   8.760 -0.3216 -0.1222  0.2387
13041SOL    HW140862   1.744   5.322   8.810  1.3675 -1.4944 -0.4874
13041SOL    HW240863   1.688   5.303   8.670 -2.3409  1.3009  0.4526
13042SOL     OW40864   4.624   3.252   9.416 -0.2564  0.0452 -0.5058
13042SOL    HW140865   4.699   3.217   9.368  0.0080  1.8143 -1.4744
13042SOL    HW240866   4.644   3.235   9.508  0.1594 -1.6656 -0.8872
13043SOL     OW40867   3.741   6.360   2.129 -0.0439  0.6133 -0.2161
13043SOL    HW140868   3.712   6.351   2.038  1.4179  0.9291 -0.7503
13043SOL    HW240869   3.786   6.277   2.148 -0.6653  0.3991  0.3557
13044SOL     OW40870   6.203   8.944   2.061 -0.0532 -0.1341  0.3019
13044SOL    HW140871   6.227   9.017   2.118  0.5273  0.8619 -1.1554
13044SOL    HW240872   6.109   8.952   2.049 -0.0400  0.1855  0.4063
13045SOL     OW40873   7.702   0.130   1.820  0.1992  0.4852  0.2113
13045SOL    HW140874   7.751   0.137   1.738 -0.4770  2.1637 -0.0954
13045SOL    HW240875   7.610   0.131   1.793 -0.0391  1.6690  1.0033
13046SOL     OW40876   3.875   6.917   9.233 -0.0818  0.5401  0.1115
13046SOL    HW140877   3.926   6.885   9.307 -0.5994 -0.5416  0.0139
13046SOL    HW240878   3.939   6.963   9.178  1.0527 -1.7176 -0.5579
13047SOL     OW40879   8.820   5.005   9.530 -0.4462 -0.6637 -0.0100
13047SOL    HW140880   8.767   4.966   9.600 -0.9617  0.0390 -0.0017
13047SOL    HW240881   8.807   5.099   9.540  0.3358 -0.5082 -0.3874
13048SOL     OW40882   3.546   3.207   8.464  0.2964 -0.5235  0.1031
13048SOL    HW140883   3.624   3.253   8.495 -0.1177 -1.3904  2.6443
13048SOL    HW240884   3.473   3.256   8.501 -0.2710 -1.2605 -0.0229
13049SOL     OW40885   6.821   5.544   4.889  0.4312  0.0704 -0.6483
13049SOL    HW140886   6.768   5.547   4.810  1.5109 -0.8067 -1.4306
13049SOL    HW240887   6.880   5.619   4.881 -0.6369  1.0449  0.2207
13050SOL     OW40888   5.394   6.496   6.675  0.1602 -0.4451  0.2763
13050SOL    HW140889   5.455   6.571   6.671 -0.7329  0.2812 -0.0278
13050SOL    HW240890   5.451   6.420   6.690  1.2892  0.0262 -1.3519
13051SOL     OW40891   8.382   2.913   1.366 -0.0211  0.0831 -0.1623
13051SOL    HW140892   8.413   2.855   1.435 -2.3768 -0.5944  0.3950
13051SOL    HW240893   8.335   2.855   1.306 -0.0002  1.0231 -1.1084
13052SOL     OW40894   7.394   0.500   6.534  0.3094 -0.0537 -0.2698
13052SOL    HW140895   7.481   0.539   6.541  0.3976 -0.4509  1.3212
13052SOL    HW240896   7.349   0.554   6.469  2.1208 -0.6321 -2.1235
13053SOL     OW40897   6.715   8.306   8.936  0.7191  0.0113 -0.2743
13053SOL    HW140898   6.765   8.316   8.855 -1.1866  0.3106 -1.4851
13053SOL    HW240899   6.674   8.391   8.949  0.1433 -0.3632  0.4180
13054SOL     OW40900   6.028   0.131   2.578 -0.3308  0.8926 -0.6967
13054SOL    HW140901   6.097   0.182   2.620  0.0603 -0.2796  0.1260
13054SOL    HW240902   5.968   0.197   2.543 -0.4223  1.9271  1.2635
13055SOL     OW40903   7.741   1.184   8.650 -0.1861  0.2478  0.2478
13055SOL    HW140904   7.694   1.258   8.612 -0.0000  0.4084  0.3272
13055SOL    HW240905   7.710   1.180   8.740 -1.7900 -1.0933 -0.3154
13056SOL     OW40906   3.284   1.174   4.672 -0.2854 -0.4258 -0.1373
13056SOL    HW140907   3.337   1.253   4.678  0.9485 -1.2121 -0.2411
13056SOL    HW240908   3.247   1.176   4.584  0.1152 -0.1881 -0.3026
13057SOL     OW40909   1.283   6.597   4.261  0.3610 -0.1483 -0.2725
13057SOL    HW140910   1.209   6.561   4.310 -0.0506  0.6831 -0.2540
13057SOL    HW240911   1.279   6.691   4.278  1.7411 -0.1493  0.1362
13058SOL     OW40912   6.721   1.624   8.458  0.5024 -0.0394  0.2170
13058SOL    HW140913   6.680   1.540   8.438  0.1511  0.5454 -1.7490
13058SOL    HW240914   6.697   1.641   8.549 -0.7129 -1.3434  0.1814
13059SOL     OW40915   1.514   8.926   3.965 -0.3154 -0.2688  0.4201
13059SOL    HW140916   1.475   8.999   3.918  1.8530  2.0025  1.9039
13059SOL    HW240917   1.553   8.872   3.896 -1.3575  0.3043 -0.6645
13060SOL     OW40918   4.587   0.586   8.469 -0.2198  0.9124  0.2224
13060SOL    HW140919   4.656   0.571   8.535  0.0337  0.9651 -0.0305
13060SOL    HW240920   4.516   0.527   8.495 -0.2625  1.1823  0.7488
13061SOL     OW40921   1.832   0.898   7.462  0.2217  0.2804  0.3190
13061SOL    HW140922   1.745   0.857   7.462  0.3240  0.0058  2.0086
13061SOL    HW240923   1.892   0.829   7.487  1.1010  0.2557 -1.6221
13062SOL     OW40924   6.348   9.149   3.389  0.7118 -0.1451  0.1157
13062SOL    HW140925   6.318   9.238   3.409  0.9832  0.2025 -0.9419
13062SOL    HW240926   6.407   9.127   3.461 -0.0922  0.1482  0.8817
13063SOL     OW40927   2.070   4.315   0.698 -0.5922 -0.8196  0.0524
13063SOL    HW140928   2.149   4.316   0.644 -0.4088 -1.0312  0.3076
13063SOL    HW240929   2.035   4.403   0.692  0.2763 -0.4035  0.8168
13064SOL     OW40930   2.108   1.673   4.853 -0.0384  0.0687 -0.0764
13064SOL    HW140931   2.153   1.758   4.856 -0.8416  0.5165 -0.5288
13064SOL    HW240932   2.040   1.684   4.787 -2.4776  0.2148  2.2887
13065SOL     OW40933   0.892   4.228   7.512 -0.6206 -0.0527  0.2548
13065SOL    HW140934   0.937   4.242   7.428 -0.3567 -0.1202  0.3846
13065SOL    HW240935   0.856   4.314   7.534  0.9853  0.4587  1.0431
13066SOL     OW40936   6.824   7.379   3.664  0.2143  0.1338 -0.1689
13066SOL    HW140937   6.850   7.424   3.584  1.5560  0.7039  0.5524
13066SOL    HW240938   6.883   7.304   3.670 -0.7867 -0.6971 -0.3989
13067SOL     OW40939   6.876   9.442   2.142 -1.0118 -0.4137 -0.7836
13067SOL    HW140940   6.913   9.408   2.223 -1.3056  0.5194 -0.2449
13067SOL    HW240941   6.949   9.485   2.098 -1.0136 -0.3060 -0.6794
13068SOL     OW40942   9.163   6.424   0.873  0.3612  0.2865  0.3009
13068SOL    HW140943   9.073   6.429   0.904  0.1230  1.1444 -0.4785
13068SOL    HW240944   9.202   6.508   0.899  0.9896 -0.1452  0.7843
13069SOL     OW40945   3.401   0.704   8.251  0.1259 -0.4980  0.1868
13069SOL    HW140946   3.468   0.637   8.265  0.5111  0.0167  0.7897
13069SOL    HW240947   3.360   0.715   8.336 -0.4108 -0.4641 -0.0718
13070SOL     OW40948   1.829   6.454   1.036 -0.5372  0.7157 -0.2685
13070SOL    HW140949   1.915   6.444   0.996 -1.1664 -0.5727 -1.3604
13070SOL    HW240950   1.809   6.547   1.028  1.7524  1.5484  2.2016
13071SOL     OW40951   7.976   4.660   0.452  0.8217 -0.1850  0.1390
13071SOL    HW140952   8.045   4.724   0.472  0.5043  0.7235 -1.4553
13071SOL    HW240953   8.023   4.583   0.420  1.1508 -0.3003  0.8643
13072SOL     OW40954   6.848   1.547   6.163 -0.3893  0.5218  0.2131
13072SOL    HW140955   6.868   1.617   6.101 -0.5062 -0.3045 -0.7739
13072SOL    HW240956   6.918   1.553   6.229  1.3497 -0.2794 -1.4461
13073SOL     OW40957   6.922   8.119   3.501  0.0018  0.2948 -0.5403
13073SOL    HW140958   6.947   8.176   3.429  0.9401 -0.8181 -1.1412
13073SOL    HW240959   6.834   8.087   3.477 -0.0418  0.5814 -0.7652
13074SOL     OW40960   5.628   9.475   6.938 -0.3120  0.8747  0.0457
13074SOL    HW140961   5.556   9.495   6.998  0.6073  2.1401  0.7995
13074SOL    HW240962   5.602   9.394   6.894 -1.8006  0.8571  0.8974
13075SOL     OW40963   8.932   3.354   9.147  0.4043  0.0805  0.1931
13075SOL    HW140964   8.974   3.410   9.212 -0.8257 -0.7100  1.7198
13075SOL    HW240965   8.938   3.266   9.183 -0.9791 -0.2809 -0.3911
13076SOL     OW40966   5.489   5.320   3.507  0.3156 -0.3334  0.3221
13076SOL    HW140967   5.481   5.316   3.412  0.0501 -1.8229  0.3834
13076SOL    HW240968   5.543   5.245   3.530  1.9637  1.0549  1.2175
13077SOL     OW40969   8.372   5.743   5.184  0.1538  0.1992 -0.1573
13077SOL    HW140970   8.446   5.779   5.233 -0.0704  0.6016 -0.1118
13077SOL    HW240971   8.365   5.799   5.107 -0.2132  0.2665 -0.0741
13078SOL     OW40972   5.342   6.309   4.211 -0.0027 -0.0125  0.0787
13078SOL    HW140973   5.260   6.330   4.167 -0.5332  2.1432  1.9103
13078SOL    HW240974   5.328   6.221   4.247 -0.7457 -0.4644 -1.2650
13079SOL     OW40975   8.532   1.107   2.742  0.2911  0.5726 -0.4200
13079SOL    HW140976   8.519   1.018   2.776  2.3726 -0.0223 -1.0332
13079SOL    HW240977   8.527   1.163   2.819  4.1056 -0.6571  0.9654
13080SOL     OW40978   0.300   8.491   1.555  0.1314 -0.5555 -0.5799
13080SOL    HW140979   0.270   8.487   1.464 -0.5578  2.0043 -0.5494
13080SOL    HW240980   0.327   8.582   1.567  0.1878 -0.8310  1.7954
13081SOL     OW40981   3.693   1.885   1.641 -0.1165  0.8538  0.1194
13081SOL    HW140982   3.664   1.803   1.603  0.4644  0.6146  0.1863
13081SOL    HW240983   3.626   1.949   1.614  0.6487  0.8592 -1.9273
13082SOL     OW40984   1.625   5.805   7.309  0.9116  0.5501 -0.1429
13082SOL    HW140985   1.615   5.752   7.230  2.2662  0.9024 -0.5715
13082SOL    HW240986   1.699   5.863   7.290  1.7879  0.1008  1.6627
13083SOL     OW40987   5.053   4.950   5.758 -0.0819  0.0754 -0.4033
13083SOL    HW140988   5.001   4.877   5.723  0.8699 -1.5036  1.2840
13083SOL    HW240989   4.998   4.988   5.827  1.7290 -3.3958  3.4214
13084SOL     OW40990   2.841   4.634   0.406  0.6300 -0.3991 -0.2150
13084SOL    HW140991   2.872   4.723   0.388 -1.0412  0.1508 -0.5627
13084SOL    HW240992   2.824   4.596   0.320 -1.1718 -0.0799 -0.0463
13085SOL     OW40993   1.965   4.975   1.690 -0.4904  0.0099 -0.3938
13085SOL    HW140994   1.964   4.879   1.683 -0.9644 -0.0530  0.3238
13085SOL    HW240995   2.057   4.997   1.698 -0.3970 -0.4235 -0.2269
13086SOL     OW40996   8.797   3.157   5.619  0.0876  0.2609 -0.0088
13086SOL    HW140997   8.823   3.104   5.544 -0.7026 -0.0889 -0.0535
13086SOL    HW240998   8.735   3.101   5.667  1.9351 -0.2455  1.9170
13087SOL     OW40999   6.359   3.612   1.019 -0.0683  0.0079 -0.5002
13087SOL    HW141000   6.310   3.609   0.936  1.1294  0.4386 -1.2449
13087SOL    HW241001   6.451   3.609   0.993  0.3218 -0.6624  0.8757
13088SOL     OW41002   0.662   5.664   8.753  0.0343 -0.0096  0.4464
13088SOL    HW141003   0.749   5.704   8.755 -0.0708  0.2791 -0.2321
13088SOL    HW241004   0.627   5.688   8.667  0.1695 -2.0446 -0.2298
13089SOL     OW41005   1.141   9.120   6.844  0.2644 -0.2480 -0.3017
13089SOL    HW141006   1.144   9.162   6.930 -1.5819 -0.3522 -0.1486
13089SOL    HW241007   1.185   9.036   6.857 -1.6661 -1.1395  1.1119
13090SOL     OW41008   2.182   1.564   2.306 -0.0859  0.1480 -0.5773
13090SOL    HW141009   2.150   1.645   2.346  2.0720  0.0850  1.5470
13090SOL    HW241010   2.236   1.593   2.233 -0.5386  0.5331 -0.7624
13091SOL     OW41011   5.601   0.909   9.545  0.2279 -0.0446  0.0913
13091SOL    HW141012   5.556   0.856   9.479  0.7952  1.1368 -1.3036
13091SOL    HW241013   5.670   0.852   9.579  0.4407 -0.4280 -0.9381
13092SOL     OW41014   4.311   9.053   0.510 -0.4050 -0.1380  0.1204
13092SOL    HW141015   4.294   9.085   0.598 -0.0529  1.1081 -0.2411
13092SOL    HW241016   4.397   9.090   0.488  1.2143 -3.2604  0.5514
13093SOL     OW41017   8.834   9.438   8.635 -0.4554 -0.5538  0.7217
13093SOL    HW141018   8.800   9.351   8.657  1.0439 -1.0456  1.1876
13093SOL    HW241019   8.860   9.431   8.543 -0.3181 -0.5982  0.7648
13094SOL     OW41020   1.236   1.193   6.806  0.3698 -0.2695 -0.0830
13094SOL    HW141021   1.240   1.119   6.745  2.6027  0.7775 -1.3202
13094SOL    HW241022   1.304   1.174   6.871 -0.4446 -0.2624  0.7968
13095SOL     OW41023   9.515   7.086   5.207 -0.3696  0.1899 -0.1854
13095SOL    HW141024   9.507   7.153   5.274 -0.5704 -0.2631  0.2531
13095SOL    HW241025   9.452   7.019   5.233  0.7517 -0.7784  0.1033
13096SOL     OW41026   3.761   8.406   6.808 -0.1301 -0.1422  0.7102
13096SOL    HW141027   3.833   8.465   6.827  0.2413 -0.4679  0.3383
13096SOL    HW241028   3.783   8.366   6.724 -2.1345  1.8840 -0.9095
13097SOL     OW41029   5.735   8.824   8.887 -0.1045  0.8089 -0.1757
13097SOL    HW141030   5.753   8.739   8.927 -1.0451  0.2791 -0.8464
13097SOL    HW241031   5.819   8.852   8.852  0.2422  0.2266  0.1729
13098SOL     OW41032   8.442   4.477   3.113 -0.3130  0.4386  0.3337
13098SOL    HW141033   8.406   4.551   3.063 -0.3349  0.8743  0.9744
13098SOL    HW241034   8.523   4.454   3.068 -0.6254  0.4413 -0.2373
13099SOL     OW41035   9.201   4.555   7.882  0.4721  0.2412 -0.2564
13099SOL    HW141036   9.119   4.511   7.906 -0.1123  0.0751 -2.3530
13099SOL    HW241037   9.252   4.556   7.963 -1.7241  0.6841  1.2130
13100SOL     OW41038   4.210   2.450   6.482 -0.3350  0.5175 -0.2719
13100SOL    HW141039   4.249   2.485   6.402 -0.0873 -0.8673 -0.7808
13100SOL    HW241040   4.284   2.441   6.542 -0.5875  1.9715  0.2990
13101SOL     OW41041   6.973   5.386   8.630  0.0313  0.3259  0.2565
13101SOL    HW141042   7.011   5.426   8.551 -0.5098  1.5704  0.6059
13101SOL    HW241043   6.901   5.333   8.597 -0.4380  1.1515 -0.0661
13102SOL     OW41044   3.923   6.117   9.125  0.1971 -0.4812 -0.7612
13102SOL    HW141045   3.967   6.033   9.111 -1.0611 -1.0240 -1.7091
13102SOL    HW241046   3.862   6.124   9.051 -0.9355  0.4441  0.2266
13103SOL     OW41047   6.250   8.989   8.849  0.0744  0.3437  0.4425
13103SOL    HW141048   6.273   9.039   8.770  1.6229  0.0172  0.6553
13103SOL    HW241049   6.298   9.032   8.920 -0.6031  0.0908  1.0693
13104SOL     OW41050   5.049   6.148   7.122  0.1954 -0.0164 -0.3418
13104SOL    HW141051   5.079   6.064   7.085  0.7838  0.1415 -0.2405
13104SOL    HW241052   5.091   6.214   7.066 -2.2079  0.2418 -1.9738
13105SOL     OW41053   8.789   4.152   2.610  0.0625  0.2477  0.0885
13105SOL    HW141054   8.753   4.166   2.697  1.9511 -1.3143  1.2000
13105SOL    HW241055   8.758   4.066   2.584  0.0610  0.4222 -0.5170
13106SOL     OW41056   4.936   9.114   2.289  0.1726  0.0739  0.6011
13106SOL    HW141057   4.907   9.120   2.380  0.7487 -2.2327  1.0180
13106SOL    HW241058   4.973   9.025   2.282  1.3627  0.6689 -1.5361
13107SOL     OW41059   6.284   7.143   4.528  0.2978  0.1430  0.2768
13107SOL    HW141060   6.345   7.201   4.575  1.1767  0.1728 -0.8698
13107SOL    HW241061   6.201   7.190   4.530  0.3924  0.3127  1.4737
13108SOL     OW41062   2.256   5.213   3.308 -0.1856 -0.0822 -0.1825
13108SOL    HW141063   2.272   5.129   3.351  0.7364 -0.2230 -0.7878
13108SOL    HW241064   2.333   5.228   3.254 -0.4795  1.0114 -0.3209
13109SOL     OW41065   7.069   0.558   1.096  0.1115 -0.3314  0.4455
13109SOL    HW141066   7.122   0.554   1.176 -0.5780 -0.9725  0.8788
13109SOL    HW241067   6.982   0.585   1.126 -0.4659 -1.6969  0.0917
13110SOL     OW41068   8.036   7.120   0.853  0.4039 -0.4672  0.4768
13110SOL    HW141069   8.010   7.129   0.761 -0.3763 -0.8222  0.6573
13110SOL    HW241070   8.024   7.027   0.872 -0.4606 -0.2110  1.2417
13111SOL     OW41071   6.576   7.170   7.243  0.1366 -0.1889  0.1783
13111SOL    HW141072   6.653   7.200   7.291 -0.0531  1.8168 -0.6882
13111SOL    HW241073   6.509   7.160   7.311  0.2909  1.1572  0.5686
13112SOL     OW41074   4.129   8.349   2.031 -0.0530  0.1549 -0.0185
13112SOL    HW141075   4.186   8.419   2.063  0.7610 -0.8622  0.8302
13112SOL    HW241076   4.148   8.274   2.087 -2.0915 -0.2992  0.1419
13113SOL     OW41077   3.052   3.370   6.374 -0.2008 -0.1144  0.2044
13113SOL    HW141078   3.125   3.354   6.314  2.9571  1.9843  3.0862
13113SOL    HW241079   3.010   3.449   6.341  0.7688  0.3709  0.0967
13114SOL     OW41080   5.004   9.251   8.004 -0.3534 -0.0505 -0.6729
13114SOL    HW141081   4.969   9.285   8.086 -0.8388 -0.2667 -0.7847
13114SOL    HW241082   5.017   9.158   8.020 -0.9688 -0.2024 -1.0031
13115SOL     OW41083   2.896   3.385   0.898 -0.0555  0.3287 -0.2558
13115SOL    HW141084   2.833   3.325   0.938  0.2270 -0.0627 -0.3935
13115SOL    HW241085   2.849   3.423   0.824  0.1226 -0.5576 -0.8362
13116SOL     OW41086   7.457   0.403   3.716 -0.2936  0.0872  0.5503
13116SOL    HW141087   7.366   0.427   3.734 -0.4016 -0.0336  0.1643
13116SOL    HW241088   7.502   0.487   3.703 -0.8613  0.1043 -1.7468
13117SOL     OW41089   0.672   3.979   3.798 -0.2998  0.3273 -0.1590
13117SOL    HW141090   0.615   4.027   3.737 -0.3391  0.4423 -0.0309
13117SOL    HW241091   0.699   3.902   3.749  1.3278  1.4203 -1.0901
13118SOL     OW41092   2.941   8.919   4.912  0.2436 -0.3646 -0.1152
13118SOL    HW141093   3.020   8.878   4.874  0.9986 -0.9068  1.8954
13118SOL    HW241094   2.870   8.860   4.886  0.7593 -0.8495 -0.4800
13119SOL     OW41095   9.286   1.230   1.261 -0.3619 -0.3794 -0.2027
13119SOL    HW141096   9.245   1.302   1.310  0.1033 -0.2251 -0.0315
13119SOL    HW241097   9.379   1.237   1.282 -0.0060  0.2441 -1.7985
13120SOL     OW41098   6.166   4.708   4.788  0.3887 -0.0646 -0.3262
13120SOL    HW141099   6.242   4.751   4.828  1.2091 -1.2330 -0.5645
13120SOL    HW241100   6.200   4.623   4.758 -0.9515 -0.4881 -0.7029
13121SOL     OW41101   6.821   0.633   6.572 -0.1974  0.3631  0.2969
13121SOL    HW141102   6.786   0.659   6.657  0.4272 -1.5119  1.1697
13121SOL    HW241103   6.745   0.631   6.514 -0.9655 -0.2228  1.2930
13122SOL     OW41104   1.486   3.632   4.747 -0.5592 -0.3447  0.0451
13122SOL    HW141105   1.466   3.720   4.779  2.0763  1.2113 -2.1558
13122SOL    HW241106   1.421   3.616   4.679 -1.1347 -0.1640  0.5448
13123SOL     OW41107   4.062   5.100   2.651 -0.1335  0.2497 -0.3678
13123SOL    HW141108   3.983   5.052   2.676  0.9129 -1.1997  0.3454
13123SOL    HW241109   4.098   5.050   2.577  1.2256 -0.4052  0.6887
13124SOL     OW41110   7.584   7.277   4.973 -0.7607 -0.1980  0.1897
13124SOL    HW141111   7.676   7.303   4.975 -0.0805 -2.4209  1.0439
13124SOL    HW241112   7.554   7.288   5.063 -1.7355  1.6133 -0.2993
13125SOL     OW41113   8.246   1.126   0.363  0.0308  0.1451  0.2941
13125SOL    HW141114   8.318   1.121   0.426  0.4951  0.9989 -0.1552
13125SOL    HW241115   8.247   1.216   0.332 -0.0218 -0.3258 -1.1411
13126SOL     OW41116   3.135   5.278   4.437 -0.4238  0.4642  0.1665
13126SOL    HW141117   3.142   5.233   4.521 -1.8064  0.1885  0.1497
13126SOL    HW241118   3.099   5.364   4.459  0.0766  0.7374 -0.0558
13127SOL     OW41119   9.304   2.098   6.084  0.1612 -0.8244 -0.2404
13127SOL    HW141120   9.360   2.159   6.035 -0.6558  0.5716  0.5039
13127SOL    HW241121   9.358   2.070   6.158 -0.3443  1.2059  0.9751
13128SOL     OW41122   8.898   5.818   3.401  0.1891  0.3475 -0.2842
13128SOL    HW141123   8.925   5.770   3.323 -1.3496  0.5345 -0.9730
13128SOL    HW241124   8.978   5.829   3.452  0.7156 -2.3191 -0.4269
13129SOL     OW41125   5.501   1.973   3.222 -0.4779  0.2843  0.3717
13129SOL    HW141126   5.413   1.966   3.257  0.1792 -2.1092  1.8021
13129SOL    HW241127   5.514   1.892   3.173  0.8943  0.6484  0.0870
13130SOL     OW41128   1.308   2.661   6.825 -0.4547  0.8932 -0.2517
13130SOL    HW141129   1.383   2.710   6.857  0.1609  0.6796 -1.3366
13130SOL    HW241130   1.319   2.573   6.861 -1.3297  1.3926  1.3354
13131SOL     OW41131   7.820   6.312   3.253  0.1579 -0.0546  0.0886
13131SOL    HW141132   7.818   6.379   3.185 -1.6282 -0.0694  0.0896
13131SOL    HW241133   7.729   6.286   3.264  0.8691 -3.3617 -0.7576
13132SOL     OW41134   6.867   1.623   1.492 -0.1288  0.3827 -0.2848
13132SOL    HW141135   6.782   1.581   1.475  1.3240 -2.4424 -1.2109
13132SOL    HW241136   6.910   1.625   1.406  1.8341 -1.0134  0.5876
13133SOL     OW41137   4.494   5.130   0.662 -0.0536  0.2187 -0.3036
13133SOL    HW141138   4.471   5.041   0.635  0.0583 -0.1400  0.7637
13133SOL    HW241139   4.514   5.124   0.755  0.7065  1.2218 -0.3733
13134SOL     OW41140   3.032   1.438   5.455 -0.1880  0.2845 -0.1168
13134SOL    HW141141   2.968   1.386   5.406  0.7919 -1.0470 -0.0519
13134SOL    HW241142   3.097   1.465   5.390  0.1497  0.0584  0.1194
13135SOL     OW41143   3.109   0.962   8.747  0.3049 -0.5526 -0.1278
13135SOL    HW141144   3.093   0.953   8.654  0.1741 -0.2047 -0.1420
13135SOL    HW241145   3.202   0.981   8.754  0.5408 -1.6737 -0.1091
13136SOL     OW41146   4.654   8.875   7.457  0.0726 -0.4429  0.5413
13136SOL    HW141147   4.680   8.857   7.367  0.4165 -0.4013  0.6306
13136SOL    HW241148   4.658   8.971   7.464 -1.4050 -0.3329  0.1686
13137SOL     OW41149   7.117   2.588   1.928 -0.1510 -0.0433  0.6229
13137SOL    HW141150   7.065   2.568   2.005 -1.6087  1.9565  0.2305
13137SOL    HW241151   7.080   2.532   1.859 -0.2724 -0.2703  0.8725
13138SOL     OW41152   3.555   0.244   6.458  0.0983 -0.1808  0.8532
13138SOL    HW141153   3.510   0.167   6.491  1.0564  0.1034  3.0374
13138SOL    HW241154   3.645   0.234   6.489  0.3953  1.5029  0.6471
13139SOL     OW41155   2.607   2.681   3.446 -0.5498 -0.6979 -0.2594
13139SOL    HW141156   2.591   2.689   3.352 -1.8347  0.3657  0.0184
13139SOL    HW241157   2.554   2.607   3.474  0.9439 -1.9378 -0.5796
13140SOL     OW41158   2.834   7.373   0.777 -0.2482 -0.3968 -0.0615
13140SOL    HW141159   2.778   7.449   0.765 -0.8716 -0.4727  2.1219
13140SOL    HW241160   2.900   7.401   0.840 -1.9922 -2.2972  2.8566
13141SOL     OW41161   1.225   6.650   1.193 -0.5566  0.5692  0.3465
13141SOL    HW141162   1.179   6.573   1.226  2.0874 -0.5924  1.5609
13141SOL    HW241163   1.284   6.676   1.264  0.6749  1.9803 -1.1095
13142SOL     OW41164   8.395   6.322   4.720 -0.0098  0.1588 -0.1668
13142SOL    HW141165   8.424   6.348   4.808  0.6340  0.8591 -0.5732
13142SOL    HW241166   8.307   6.285   4.734  0.3980 -0.4681  0.8671
13143SOL     OW41167   5.096   7.948   2.142  0.0914 -0.1495  0.0336
13143SOL    HW141168   5.019   7.976   2.092  0.0003  0.0132  0.2667
13143SOL    HW241169   5.062   7.924   2.228  0.0932 -1.4235 -0.2958
13144SOL     OW41170   8.558   1.377   5.778  0.3747  0.2746  0.2339
13144SOL    HW141171   8.610   1.455   5.760 -0.2159  0.6000 -0.0717
13144SOL    HW241172   8.569   1.362   5.872  2.3216 -0.6022 -0.0901
13145SOL     OW41173   9.037   3.362   2.450 -0.1280 -0.2567  0.1912
13145SOL    HW141174   9.060   3.451   2.475  1.2457 -0.0369 -1.6389
13145SOL    HW241175   9.046   3.311   2.531  0.9366  0.9382  0.8551
13146SOL     OW41176   8.604   1.466   8.623  0.2242 -0.2479  0.2915
13146SOL    HW141177   8.525   1.506   8.659 -1.0591 -1.5632 -0.9294
13146SOL    HW241178   8.669   1.473   8.693 -1.1337  0.3878  1.5281
13147SOL     OW41179   9.459   7.960   2.510 -0.0628  0.3923 -0.0859
13147SOL    HW141180   9.487   8.018   2.581  0.1618 -1.6015  1.5207
13147SOL    HW241181   9.523   7.889   2.510 -0.1229  0.2512 -2.2476
13148SOL     OW41182   4.787   6.402   2.654 -0.2424 -0.6612  0.4647
13148SOL    HW141183   4.724   6.443   2.713 -1.0385  1.6835 -1.7816
13148SOL    HW241184   4.735   6.339   2.604 -0.2719 -0.5313  0.3271
13149SOL     OW41185   4.842   6.095   5.883 -0.4783 -0.3654  0.2038
13149SOL    HW141186   4.858   6.042   5.804  0.0052  0.9386 -0.6057
13149SOL    HW241187   4.823   6.031   5.951  2.0882 -1.7298 -0.2356
13150SOL     OW41188   6.363   6.032   0.037  0.1331 -0.6375  0.1194
13150SOL    HW141189   6.285   6.077   0.068  1.4362  0.8807  1.4161
13150SOL    HW241190   6.388   5.973   0.109  1.4561  0.6374  0.7647
13151SOL     OW41191   2.897   5.989   4.723  0.6857 -0.4251 -0.7156
13151SOL    HW141192   2.983   6.002   4.764  0.5437 -0.2768 -0.4684
13151SOL    HW241193   2.884   6.066   4.669  1.6040 -1.3523 -2.3390
13152SOL     OW41194   0.022   7.504   0.030  0.3581  0.1957  0.1308
13152SOL    HW141195   0.035   7.598   0.029  1.5383  0.1480  3.1014
13152SOL    HW241196   0.101   7.467  -0.009  0.7504  0.3903  0.7433
13153SOL     OW41197   3.874   9.504   8.775  0.8488 -0.2880 -0.4133
13153SOL    HW141198   3.875   9.440   8.704  1.3139 -0.5102 -0.2141
13153SOL    HW241199   3.881   9.589   8.732  3.3061 -0.5014 -0.5737
13154SOL     OW41200   5.709   0.442   8.830 -0.4160 -0.1330  0.1776
13154SOL    HW141201   5.792   0.422   8.787 -1.1408 -2.2481 -0.3977
13154SOL    HW241202   5.720   0.412   8.920 -0.6414 -0.7133  0.0165
13155SOL     OW41203   8.526   5.424   5.139 -0.2079 -0.2538 -0.4881
13155SOL    HW141204   8.550   5.516   5.138  0.1266 -0.3329 -0.1304
13155SOL    HW241205   8.586   5.384   5.202 -1.1376 -0.4937  0.2742
13156SOL     OW41206   7.178   2.772   1.389  0.1518  0.2502 -0.1747
13156SOL    HW141207   7.202   2.746   1.478 -0.4711  1.1729  0.2764
13156SOL    HW241208   7.206   2.863   1.381 -1.8128  0.9252 -0.1086
13157SOL     OW41209   4.274   6.229   0.488  0.2104 -0.5146 -0.2738
13157SOL    HW141210   4.351   6.215   0.434  0.3695 -2.5135  0.4216
13157SOL    HW241211   4.258   6.145   0.530 -1.6237  0.2019  0.5530
13158SOL     OW41212   2.995   6.640   3.169  0.1245 -0.3611  0.8055
13158SOL    HW141213   3.058   6.693   3.219  1.3679 -0.6372 -0.4082
13158SOL    HW241214   2.941   6.705   3.123 -0.4224 -0.1267  1.7365
13159SOL     OW41215   3.453   5.213   6.614  0.5068 -0.2668  0.1831
13159SOL    HW141216   3.495   5.268   6.679 -0.1312  0.3854  0.0529
13159SOL    HW241217   3.476   5.254   6.530  1.0205 -0.8919  0.0057
13160SOL     OW41218   9.063   5.790   8.109  0.2069  0.4632  0.3956
13160SOL    HW141219   9.060   5.716   8.048  1.5118  0.0593  0.8072
13160SOL    HW241220   9.123   5.852   8.068 -0.7801  1.2539  0.1159
13161SOL     OW41221   0.887   7.712   8.638 -0.5807  0.0808  0.4119
13161SOL    HW141222   0.950   7.641   8.621 -0.3488  0.4533 -0.3387
13161SOL    HW241223   0.918   7.784   8.584 -1.5778  0.3234  0.1505
13162SOL     OW41224   5.689   7.987   1.310  0.0020 -0.7030  0.3223
13162SOL    HW141225   5.675   8.075   1.344  0.1021 -0.3109 -0.6416
13162SOL    HW241226   5.602   7.948   1.309  0.0444 -0.8541  1.3665
13163SOL     OW41227   9.179   7.696   5.210 -0.3654 -0.4022 -0.2968
13163SOL    HW141228   9.233   7.629   5.252  1.1376  0.7216 -0.3469
13163SOL    HW241229   9.128   7.734   5.281 -0.7665 -1.1825 -0.1683
13164SOL     OW41230   1.991   6.818   3.320 -0.4047  0.2226 -0.3081
13164SOL    HW141231   1.971   6.901   3.277  0.1704 -0.2179 -1.4652
13164SOL    HW241232   1.928   6.812   3.391 -2.6169  0.1299 -2.1745
13165SOL     OW41233   9.593   8.124   6.037 -0.1034 -0.2164  1.1970
13165SOL    HW141234   9.557   8.035   6.039  0.5417 -0.4794  1.3903
13165SOL    HW241235   9.671   8.120   6.093  1.0970 -0.0576 -0.3754
13166SOL     OW41236   8.092   5.283   6.787 -0.6158  0.3468 -0.0226
13166SOL    HW141237   8.168   5.318   6.834 -0.8616 -0.2823  0.8858
13166SOL    HW241238   8.078   5.196   6.826 -1.9254  0.5388 -0.0247
13167SOL     OW41239   2.114   3.777   4.265  0.1811  0.1312  0.0073
13167SOL    HW141240   2.081   3.788   4.176 -0.1063  0.0364  0.1018
13167SOL    HW241241   2.167   3.698   4.261 -2.0546 -1.4997  0.5287
13168SOL     OW41242   7.669   6.751   4.779 -0.1899  0.1850  0.1864
13168SOL    HW141243   7.642   6.774   4.868  3.5950  0.0938  1.5238
13168SOL    HW241244   7.761   6.775   4.775  0.2011 -1.3356 -3.2250
13169SOL     OW41245   3.389   7.412   3.889 -0.4371  0.6050 -0.6260
13169SOL    HW141246   3.314   7.411   3.948  0.3857  1.0216  0.4818
13169SOL    HW241247   3.432   7.496   3.906  0.0019  0.5893 -1.5934
13170SOL     OW41248   2.255   7.618   4.380  0.1308 -0.3324  0.1966
13170SOL    HW141249   2.186   7.571   4.333  0.2859 -1.2542  0.8642
13170SOL    HW241250   2.250   7.585   4.470  1.0968 -0.0255  0.3779
13171SOL     OW41251   2.096   8.392   9.219  0.0691  0.1743  0.2641
13171SOL    HW141252   2.129   8.445   9.147 -0.6109  0.8055  0.3915
13171SOL    HW241253   2.016   8.438   9.247  0.0324 -0.3522  1.0603
13172SOL     OW41254   8.310   5.096   4.411 -0.4420 -0.1592  0.5117
13172SOL    HW141255   8.245   5.061   4.472 -0.2180  0.7940  1.3366
13172SOL    HW241256   8.392   5.054   4.438 -0.9457 -2.9710 -1.8356
13173SOL     OW41257   6.978   2.402   7.275  0.3921  0.0380 -0.5085
13173SOL    HW141258   7.002   2.429   7.364 -1.0420 -0.2140 -0.0238
13173SOL    HW241259   6.924   2.474   7.243  0.2204 -0.2498 -0.8676
13174SOL     OW41260   8.839   0.670   9.587  0.0067  0.0912  0.2362
13174SOL    HW141261   8.839   0.586   9.541  0.2354  0.2191 -0.0081
13174SOL    HW241262   8.747   0.695   9.592  0.0582  1.9876 -3.7927
13175SOL     OW41263   7.279   1.195   7.361  0.2017 -0.2950 -0.1975
13175SOL    HW141264   7.213   1.167   7.424  1.1261 -1.7031  0.1883
13175SOL    HW241265   7.299   1.116   7.310  0.7345  0.3992 -1.1050
13176SOL     OW41266   9.319   5.822   0.954  0.1228 -0.1249  0.2260
13176SOL    HW141267   9.354   5.803   1.041 -0.5891  1.0637  0.8167
13176SOL    HW241268   9.307   5.917   0.954 -1.2519 -0.2634 -0.6299
13177SOL     OW41269   8.800   6.371   0.312  0.2254 -0.2551 -0.1391
13177SOL    HW141270   8.736   6.299   0.313  0.1147 -0.1690  1.7011
13177SOL    HW241271   8.765   6.435   0.373  2.1035 -0.2285  0.9765
13178SOL     OW41272   6.507   6.606   5.134  0.1105 -0.2440  0.3742
13178SOL    HW141273   6.590   6.608   5.181 -0.1205  2.2622  0.8069
13178SOL    HW241274   6.531   6.629   5.044 -0.1457  1.5224  0.7055
13179SOL     OW41275   4.204   2.717   8.239  0.0522 -0.2834 -0.0077
13179SOL    HW141276   4.194   2.731   8.145 -1.4122  1.2004  0.3062
13179SOL    HW241277   4.288   2.757   8.260  0.0506  0.0316 -0.5746
13180SOL     OW41278   0.237   0.604   3.099 -0.6350  0.3229  0.1560
13180SOL    HW141279   0.261   0.512   3.085 -2.3236 -0.1254 -0.0018
13180SOL    HW241280   0.221   0.611   3.193 -4.8707 -0.7871 -0.2667
13181SOL     OW41281   4.931   0.476   8.316  0.4371  0.3134 -0.3962
13181SOL    HW141282   4.941   0.571   8.309 -1.7058  0.6284 -0.0159
13181SOL    HW241283   4.877   0.452   8.241 -0.0890 -0.3994  0.1972
13182SOL     OW41284   8.588   2.999   5.948  0.2647 -0.2767  0.2267
13182SOL    HW141285   8.586   2.908   5.976 -0.5805 -0.2682  0.2180
13182SOL    HW241286   8.580   2.995   5.853 -2.4778 -0.1468  0.3595
13183SOL     OW41287   8.520   0.497   2.134  0.8704 -0.4596  0.5437
13183SOL    HW141288   8.545   0.531   2.220  2.0028  0.1263 -0.0011
13183SOL    HW241289   8.522   0.402   2.144 -2.6247 -0.5230  2.1804
13184SOL     OW41290   3.574   0.690   4.221  0.5751  0.2842 -0.3520
13184SOL    HW141291   3.480   0.692   4.241  0.5528 -0.6466 -0.3314
13184SOL    HW241292   3.582   0.742   4.141  0.4503  2.7572  1.1300
13185SOL     OW41293   5.633   6.050   1.581 -0.2076 -0.1608  0.3932
13185SOL    HW141294   5.641   6.142   1.557  2.1370 -0.0013  1.4981
13185SOL    HW241295   5.617   6.005   1.498  0.5528  1.0476 -0.4454
13186SOL     OW41296   1.676   3.798   5.928  0.1497  0.0297  0.1482
13186SOL    HW141297   1.602   3.810   5.987  0.5924 -0.3717  0.8048
13186SOL    HW241298   1.642   3.820   5.841 -0.3656  1.1888  0.6176
13187SOL     OW41299   7.925   7.165   0.610 -0.1714  0.8826  0.2470
13187SOL    HW141300   7.915   7.139   0.518 -1.5797 -1.3874  0.9463
13187SOL    HW241301   7.905   7.258   0.611  1.3150  1.3086 -1.9227
13188SOL     OW41302   9.577   5.569   8.845 -0.3657 -0.0442 -0.2229
13188SOL    HW141303   9.626   5.651   8.849 -0.2673 -0.1611  2.0513
13188SOL    HW241304   9.629   5.513   8.788 -0.0895  1.2186 -1.2726
13189SOL     OW41305   9.379   6.207   9.445  0.0349  0.3053 -0.3575
13189SOL    HW141306   9.353   6.297   9.468 -0.4142  0.2003 -0.4638
13189SOL    HW241307   9.410   6.170   9.528  0.6576  0.7045 -0.4020
13190SOL     OW41308   8.073   2.139   5.520 -0.2605 -0.2594  0.1549
13190SOL    HW141309   8.059   2.229   5.491 -0.5768 -0.3337  0.0758
13190SOL    HW241310   8.023   2.086   5.459  0.4612 -0.5397 -0.1988
13191SOL     OW41311   5.741   0.563   8.097 -0.0684 -0.2595 -0.6390
13191SOL    HW141312   5.737   0.573   8.192  4.5704 -2.6050  0.1016
13191SOL    HW241313   5.812   0.621   8.070 -0.7232 -0.3050 -2.5805
13192SOL     OW41314   6.944   0.017   7.381 -0.1697  0.8721  0.3672
13192SOL    HW141315   6.978   0.081   7.444  1.8851 -0.4281  0.6740
13192SOL    HW241316   6.927  -0.061   7.433 -1.7262  0.8258 -0.1678
13193SOL     OW41317   9.177   4.200   2.329 -0.2961  0.0148 -0.7421
13193SOL    HW141318   9.104   4.146   2.298  0.3223 -0.7886 -0.8347
13193SOL    HW241319   9.198   4.165   2.415 -0.4683  0.6990 -0.4185
13194SOL     OW41320   3.150   3.943   8.444  0.0899 -0.3500  0.6253
13194SOL    HW141321   3.107   3.964   8.527  0.5789  1.2427  0.5065
13194SOL    HW241322   3.242   3.963   8.458  0.1652  0.0312 -0.3132
13195SOL     OW41323   7.521   0.202   0.174  0.0625  0.0842  0.0047
13195SOL    HW141324   7.463   0.190   0.099  1.9693 -1.7890 -1.3019
13195SOL    HW241325   7.462   0.204   0.250 -1.9187  1.8685 -1.4537
13196SOL     OW41326   3.281   3.040   2.261  0.1173 -0.8548 -0.2558
13196SOL    HW141327   3.202   3.016   2.309  0.4418 -1.6146 -0.0818
13196SOL    HW241328   3.256   3.036   2.169 -0.2391 -0.3692 -0.1850
13197SOL     OW41329   5.438   7.078   2.747  0.1973  0.2230 -0.0326
13197SOL    HW141330   5.475   7.131   2.818  1.1420 -0.3932 -0.0435
13197SOL    HW241331   5.369   7.026   2.790  1.1701 -0.5945  0.5923
13198SOL     OW41332   8.610   2.563   4.035 -0.2111 -0.0663  0.4347
13198SOL    HW141333   8.696   2.522   4.032 -0.9154 -1.6166  0.2969
13198SOL    HW241334   8.610   2.624   3.961  0.3328 -0.9955 -0.3660
13199SOL     OW41335   6.003   3.508   0.559 -0.1523 -0.4371 -0.3187
13199SOL    HW141336   6.091   3.536   0.535 -0.0124 -1.6794 -1.3525
13199SOL    HW241337   6.015   3.424   0.603 -0.7811 -0.3271  0.0819
13200SOL     OW41338   3.936   3.552   8.650  0.1591  0.1623  0.6600
13200SOL    HW141339   3.878   3.595   8.587  0.5987  0.9811  0.7900
13200SOL    HW241340   3.905   3.583   8.735 -0.5395 -1.0715  0.8641
13201SOL     OW41341   5.765   0.450   1.327  0.1963 -0.0114  0.1874
13201SOL    HW141342   5.824   0.439   1.402  1.1129  0.9956 -0.3612
13201SOL    HW241343   5.751   0.544   1.322 -1.6540 -0.2387  0.4157
13202SOL     OW41344   9.065   8.264   3.409  0.8440  0.1514 -0.2474
13202SOL    HW141345   9.018   8.194   3.363  1.2929 -0.0156 -0.4531
13202SOL    HW241346   9.089   8.326   3.340  0.6004  0.4282 -0.0891
13203SOL     OW41347   7.203   5.686   5.989 -0.6880 -0.3200  0.4387
13203SOL    HW141348   7.188   5.607   5.938 -2.5617  0.2843 -0.0251
13203SOL    HW241349   7.145   5.677   6.065 -0.7053  0.4614  0.5332
13204SOL     OW41350   4.277   5.690   0.941 -0.2960 -0.2296 -0.0902
13204SOL    HW141351   4.238   5.727   1.020  0.4736  0.0709  0.1563
13204SOL    HW241352   4.371   5.705   0.951 -0.1596 -0.4746 -0.9144
13205SOL     OW41353   2.322   0.062   1.176  0.5710  0.3206 -0.4628
13205SOL    HW141354   2.352   0.146   1.210  0.4910 -0.7131  2.4590
13205SOL    HW241355   2.233   0.054   1.209  1.0553 -1.4778  0.5168
13206SOL     OW41356   7.731   4.242   9.119  0.0490  0.0499 -0.7164
13206SOL    HW141357   7.655   4.277   9.072  0.0186  0.2639 -0.5120
13206SOL    HW241358   7.698   4.223   9.207  0.6170  1.7216 -0.1037
13207SOL     OW41359   4.197   1.844   0.562  0.1310 -0.6863  0.5306
13207SOL    HW141360   4.152   1.760   0.566  0.2699 -1.0940 -2.9863
13207SOL    HW241361   4.290   1.822   0.566  0.1606 -0.6866 -0.0795
13208SOL     OW41362   3.626   2.653   1.774  0.5392  0.7544 -0.6265
13208SOL    HW141363   3.558   2.694   1.827  1.4036  2.5435 -0.8363
13208SOL    HW241364   3.646   2.571   1.819 -1.0923  0.6257 -0.0727
13209SOL     OW41365   9.014   4.435   0.503 -0.5217 -0.2490  0.4382
13209SOL    HW141366   9.098   4.436   0.549 -0.2034  1.6177 -0.0848
13209SOL    HW241367   9.037   4.423   0.411 -0.9444 -1.0616  0.4296
13210SOL     OW41368   0.407   5.034   7.962  0.0151 -0.4640  0.3118
13210SOL    HW141369   0.378   5.099   7.898 -0.0435  2.0318  2.6945
13210SOL    HW241370   0.384   5.072   8.047  0.9402 -3.1760  1.8844
13211SOL     OW41371   4.707   2.163   0.639 -0.0005 -0.2365 -0.2059
13211SOL    HW141372   4.691   2.245   0.687  0.0729  0.1683 -0.8528
13211SOL    HW241373   4.621   2.122   0.635 -0.0347 -0.2069  0.1467
13212SOL     OW41374   1.242   5.999   2.450  0.3004  0.5732 -0.0537
13212SOL    HW141375   1.279   5.911   2.436  0.4491  0.5327  0.5571
13212SOL    HW241376   1.148   5.985   2.454  0.4213  0.0719  2.3861
13213SOL     OW41377   2.143   0.077   5.317 -0.5399 -0.5213 -0.3802
13213SOL    HW141378   2.190   0.002   5.354 -0.6235 -0.0267  0.7821
13213SOL    HW241379   2.204   0.150   5.323  0.1727 -0.7839 -3.0697
13214SOL     OW41380   0.042   1.046   1.832  0.6010 -0.0720  0.0146
13214SOL    HW141381   0.055   1.067   1.740  1.7826  0.1397  0.2191
13214SOL    HW241382   0.063   0.953   1.838  1.0006  0.0242  0.1500
13215SOL     OW41383   2.123   3.115   2.615 -0.4850  0.4342  0.1015
13215SOL    HW141384   2.081   3.201   2.618 -1.2432  0.2067 -1.9811
13215SOL    HW241385   2.073   3.061   2.676 -0.4505  1.2678  0.8893
13216SOL     OW41386   7.172   6.515   7.067  0.2822 -0.4268  0.0934
13216SOL    HW141387   7.183   6.468   7.149  0.2322 -1.1934 -0.3296
13216SOL    HW241388   7.088   6.485   7.033  0.7417 -0.8473 -0.7000
13217SOL     OW41389   7.935   4.531   1.837  0.0932 -0.0389 -0.4095
13217SOL    HW141390   7.925   4.583   1.758 -0.4158  0.8531  0.2246
13217SOL    HW241391   7.935   4.441   1.807 -1.2852  0.2341 -1.3118
13218SOL     OW41392   6.206   9.544   1.308  0.7086 -0.2703  0.5764
13218SOL    HW141393   6.218   9.559   1.215 -1.0520  0.5410  0.4301
13218SOL    HW241394   6.284   9.496   1.335  1.9840  0.8035 -0.9791
13219SOL     OW41395   1.936   8.804   9.419 -0.6051  0.3745 -0.0601
13219SOL    HW141396   1.909   8.728   9.367 -1.5544  2.3403 -2.6636
13219SOL    HW241397   1.964   8.767   9.503  0.5449 -2.9638 -1.7440
13220SOL     OW41398   0.953   5.667   2.187 -0.1172  0.5003 -0.0044
13220SOL    HW141399   1.023   5.640   2.127 -0.9678 -0.3613 -0.6511
13220SOL    HW241400   0.972   5.620   2.269 -0.1474 -0.0660 -0.3125
13221SOL     OW41401   7.249   3.035   0.565  0.0953  0.2435 -0.2199
13221SOL    HW141402   7.315   3.104   0.568 -0.0213  0.3680  2.5243
13221SOL    HW241403   7.247   3.007   0.474  2.2192  1.8606 -0.8449
13222SOL     OW41404   9.593   1.366   0.470 -0.7809  0.1779  0.3854
13222SOL    HW141405   9.600   1.322   0.555 -3.2864 -0.0572  0.5465
13222SOL    HW241406   9.521   1.428   0.482 -0.6617  0.6711 -1.3426
13223SOL     OW41407   7.590   0.369   6.839  0.3435  1.0144 -0.0509
13223SOL    HW141408   7.537   0.409   6.770  1.6795  1.1164 -1.0552
13223SOL    HW241409   7.527   0.348   6.908 -1.1122  0.4728 -1.4735
13224SOL     OW41410   5.945   7.919   6.051 -0.4355 -0.4089 -0.1402
13224SOL    HW141411   5.904   7.974   6.118 -2.3008 -1.3136 -0.4722
13224SOL    HW241412   5.933   7.968   5.969 -0.5402 -0.5187 -0.1903
13225SOL     OW41413   2.026   2.744   2.383 -0.2692 -0.0863 -0.1458
13225SOL    HW141414   2.106   2.702   2.413  0.2775 -0.0337 -1.4581
13225SOL    HW241415   2.004   2.697   2.302 -2.1702 -0.8133  0.7238
13226SOL     OW41416   7.528   3.645   1.042  0.0706 -0.8763 -0.5960
13226SOL    HW141417   7.533   3.693   1.125  0.5621 -0.5170 -0.8320
13226SOL    HW241418   7.566   3.703   0.977 -1.4605 -0.6417 -1.3293
13227SOL     OW41419   8.332   7.303   4.785  0.2819 -0.6635  0.1337
13227SOL    HW141420   8.312   7.237   4.851 -1.3437  0.8681  1.2664
13227SOL    HW241421   8.248   7.320   4.742  0.5019  1.1316  0.3442
13228SOL     OW41422   8.666   0.308   5.087 -0.1517  0.0203 -0.1943
13228SOL    HW141423   8.583   0.296   5.040 -0.6501  0.3752  0.5821
13228SOL    HW241424   8.642   0.353   5.168  0.6073 -1.0883  0.6803
13229SOL     OW41425   2.468   3.294   7.586 -0.0669 -0.0095  0.6419
13229SOL    HW141426   2.502   3.334   7.506 -1.1753  2.8479  1.4811
13229SOL    HW241427   2.515   3.337   7.657 -1.6372  0.1808  1.6276
13230SOL     OW41428   1.903   6.792   9.026  0.6176 -0.4030  0.3569
13230SOL    HW141429   1.961   6.716   9.035  1.6603  0.2952 -0.2134
13230SOL    HW241430   1.952   6.853   8.970 -1.7191 -0.8086 -2.3718
13231SOL     OW41431   6.439   0.123   7.843  0.5166 -0.5700  0.0976
13231SOL    HW141432   6.394   0.140   7.761  1.5190 -1.6516 -0.7296
13231SOL    HW241433   6.370   0.107   7.907 -0.2898  0.9227 -0.3589
13232SOL     OW41434   4.860   9.421   0.154 -0.2758 -0.0416 -0.1998
13232SOL    HW141435   4.887   9.448   0.067 -2.4105  0.5467 -0.7434
13232SOL    HW241436   4.766   9.438   0.156 -0.3002 -0.1670  2.1824
13233SOL     OW41437   1.880   0.508   2.970 -0.3162 -0.0920  0.4999
13233SOL    HW141438   1.940   0.456   2.916 -1.0615 -0.1866 -0.2488
13233SOL    HW241439   1.818   0.445   3.005 -0.1326  0.0412  1.0692
13234SOL     OW41440   0.303   0.601   2.212  0.4140 -0.2607 -0.2420
13234SOL    HW141441   0.218   0.569   2.183  0.5301  0.0065 -0.8850
13234SOL    HW241442   0.344   0.524   2.253  0.9673 -1.1879 -2.3892
13235SOL     OW41443   1.220   7.057   1.051 -0.7056 -0.2620 -0.4708
13235SOL    HW141444   1.151   7.029   0.990 -1.4907  0.0991  0.2388
13235SOL    HW241445   1.201   7.149   1.068  0.3100  0.0041 -0.7246
13236SOL     OW41446   1.322   1.712   8.432 -0.1367 -0.0396  0.7419
13236SOL    HW141447   1.399   1.770   8.426 -1.0848  1.1240 -1.3952
13236SOL    HW241448   1.358   1.625   8.445  1.7169  0.1982 -2.0468
13237SOL     OW41449   8.554   8.851   7.750 -0.2592 -0.1313 -0.2727
13237SOL    HW141450   8.552   8.943   7.723  1.6464 -0.3718 -1.4244
13237SOL    HW241451   8.463   8.823   7.744 -0.7328  1.3989 -0.9585
13238SOL     OW41452   0.961   0.392   6.538  0.4143  0.0433 -0.3035
13238SOL    HW141453   0.939   0.388   6.631 -0.5217 -1.8362 -0.5444
13238SOL    HW241454   1.051   0.425   6.536  0.8071 -0.7954  1.3476
13239SOL     OW41455   8.282   7.681   8.761  0.5278 -0.0182 -0.1044
13239SOL    HW141456   8.295   7.601   8.812  1.8186  0.9385  1.1318
13239SOL    HW241457   8.271   7.650   8.671 -0.5960 -1.6688  0.5484
13240SOL     OW41458   9.564   3.884   2.571  0.0502  0.1037 -0.0023
13240SOL    HW141459   9.524   3.851   2.490  1.8269 -0.0339 -0.8574
13240SOL    HW241460   9.571   3.807   2.627  2.2597 -0.6560 -1.1995
13241SOL     OW41461   1.477   0.082   8.071 -0.1906  0.0342 -0.2328
13241SOL    HW141462   1.533   0.009   8.096 -0.3020  0.5589  1.7416
13241SOL    HW241463   1.492   0.148   8.138 -1.6520  0.9923 -0.7894
13242SOL     OW41464   8.279   5.089   2.195 -0.3827 -0.0678  0.2390
13242SOL    HW141465   8.309   5.054   2.279  0.5715  1.2249  0.4824
13242SOL    HW241466   8.360   5.102   2.145 -0.9159 -0.5103 -0.7587
13243SOL     OW41467   7.352   8.142   2.892  0.2125  0.6276  0.8228
13243SOL    HW141468   7.424   8.158   2.953 -0.8270  1.8075  1.8122
13243SOL    HW241469   7.282   8.198   2.923 -1.1848 -0.5504 -0.0502
13244SOL     OW41470   6.170   2.772   1.784  0.2611  0.1039  0.1322
13244SOL    HW141471   6.207   2.754   1.697  0.8058  1.1762  0.1286
13244SOL    HW241472   6.147   2.685   1.818  1.2515 -0.4436 -0.5431
13245SOL     OW41473   0.417   8.571   3.224 -0.8180 -0.6310 -0.3278
13245SOL    HW141474   0.487   8.527   3.273 -2.0845 -2.1562  0.1785
13245SOL    HW241475   0.462   8.642   3.178  0.6875 -0.1184  1.7606
13246SOL     OW41476   9.604   5.009   0.634  0.0670  0.4086  0.0606
13246SOL    HW141477   9.628   4.921   0.603 -1.3624  0.2924 -0.8342
13246SOL    HW241478   9.684   5.044   0.673  1.5111 -0.1431 -2.2201
13247SOL     OW41479   9.355   2.634   5.587 -0.1939  0.2604 -0.3476
13247SOL    HW141480   9.443   2.601   5.605 -0.1401  1.0902  1.0738
13247SOL    HW241481   9.308   2.621   5.669 -2.0065 -1.9163 -1.6271
13248SOL     OW41482   8.956   1.189   0.907 -0.2566  0.5895 -0.0497
13248SOL    HW141483   9.049   1.176   0.925  0.1747  0.9497 -1.7977
13248SOL    HW241484   8.949   1.180   0.812 -1.6912  2.3866 -0.1653
13249SOL     OW41485   5.783   2.604   3.686  0.5229 -0.0720  0.5649
13249SOL    HW141486   5.841   2.612   3.761  0.6940  1.6075  0.3091
13249SOL    HW241487   5.731   2.525   3.703  2.2164 -1.0857  1.2399
13250SOL     OW41488   6.666   3.227   5.668 -0.5973 -0.1200 -0.2532
13250SOL    HW141489   6.683   3.311   5.624 -3.5297  0.3546 -0.6645
13250SOL    HW241490   6.732   3.223   5.737 -1.8841  3.8481  1.4868
13251SOL     OW41491   0.467   2.533   7.615  0.6017  0.0329  0.1221
13251SOL    HW141492   0.466   2.608   7.556 -1.4932  1.1548  1.4671
13251SOL    HW241493   0.439   2.568   7.700  0.4610 -2.0916  1.0292
13252SOL     OW41494   1.068   6.052   6.891 -0.0318  0.4234 -0.1530
13252SOL    HW141495   1.162   6.043   6.902  0.1785  1.4159 -0.9119
13252SOL    HW241496   1.030   5.972   6.928  1.1793 -0.5386 -0.9403
13253SOL     OW41497   5.469   2.372   5.464 -0.3834  0.5449  0.6115
13253SOL    HW141498   5.434   2.328   5.387 -0.0597  0.9285  0.2347
13253SOL    HW241499   5.563   2.351   5.464 -0.9905 -3.2470  3.4615
13254SOL     OW41500   8.158   7.591   5.061  0.0276 -0.1720 -0.0636
13254SOL    HW141501   8.128   7.503   5.037  1.0665 -0.1542 -1.5254
13254SOL    HW241502   8.079   7.645   5.057 -0.4164 -0.8192 -0.2373
13255SOL     OW41503   5.643   1.548   5.522  0.5488  0.0751  0.4307
13255SOL    HW141504   5.590   1.501   5.458  0.7062 -1.2082  1.2102
13255SOL    HW241505   5.610   1.638   5.519 -1.9215 -0.7300  1.1288
13256SOL     OW41506   2.815   5.529   9.603 -0.5656  0.1009 -0.7664
13256SOL    HW141507   2.870   5.590   9.651 -0.9315  0.4897 -0.8355
13256SOL    HW241508   2.743   5.509   9.663 -1.9561  1.9215 -1.7327
13257SOL     OW41509   2.228   0.184   5.798 -0.5147 -0.2390  0.1574
13257SOL    HW141510   2.258   0.259   5.746 -1.2038  0.2492  0.4468
13257SOL    HW241511   2.199   0.223   5.881 -0.7295 -0.8472  0.3716
13258SOL     OW41512   6.598   7.214   3.746 -0.6297  0.6918 -0.2571
13258SOL    HW141513   6.664   7.272   3.710 -0.4257 -0.4203 -1.7626
13258SOL    HW241514   6.646   7.161   3.811 -0.3396  0.7842 -0.3944
13259SOL     OW41515   0.347   4.988   9.316  0.0959 -0.0593 -0.3522
13259SOL    HW141516   0.367   4.982   9.222 -1.4164 -1.6438 -0.6384
13259SOL    HW241517   0.405   5.056   9.349  1.4960 -0.2791 -2.2141
13260SOL     OW41518   4.304   1.745   8.351  0.5113 -0.0244 -0.3988
13260SOL    HW141519   4.230   1.696   8.316 -0.8355  1.5500  0.1013
13260SOL    HW241520   4.295   1.833   8.312  0.2477  1.1337  2.1016
13261SOL     OW41521   1.595   0.321   2.821  0.3388 -0.2346  0.5804
13261SOL    HW141522   1.502   0.313   2.801  0.7288  0.8383 -2.1669
13261SOL    HW241523   1.600   0.395   2.882 -0.6312 -0.6740  1.2139
13262SOL     OW41524   0.700   3.740   0.226  0.3793  0.0240  0.0186
13262SOL    HW141525   0.750   3.665   0.192 -0.5730 -0.4626 -0.3378
13262SOL    HW241526   0.709   3.733   0.321  1.0538 -0.0104 -0.0410
13263SOL     OW41527   2.988   9.077   6.814  0.1784 -0.3864  0.1133
13263SOL    HW141528   3.046   9.153   6.816  1.6710 -1.3693 -2.0443
13263SOL    HW241529   3.042   9.007   6.779 -2.1937 -1.4688 -1.6534
13264SOL     OW41530   1.641   8.432   7.942 -0.3758 -0.1128  0.2635
13264SOL    HW141531   1.726   8.404   7.909 -1.3138 -0.2759 -2.1880
13264SOL    HW241532   1.582   8.359   7.921 -1.2943  0.3150  1.2366
13265SOL     OW41533   1.806   9.061   4.614 -0.1208 -0.0078  0.0021
13265SOL    HW141534   1.748   9.076   4.539 -0.2262  0.1393  0.1111
13265SOL    HW241535   1.853   9.144   4.625  2.0473 -0.9067 -1.7125
13266SOL     OW41536   1.317   3.389   3.195  0.2298 -0.1095 -0.5106
13266SOL    HW141537   1.246   3.377   3.258 -0.6162 -0.2678 -1.4654
13266SOL    HW241538   1.309   3.479   3.166  0.6960  0.0013 -0.3114
13267SOL     OW41539   4.426   6.473   0.505 -0.1278 -0.7437 -0.2261
13267SOL    HW141540   4.363   6.453   0.573 -0.4704  0.0616 -0.2940
13267SOL    HW241541   4.437   6.391   0.457  1.0863 -1.6816  1.5547
13268SOL     OW41542   3.947   7.221   6.961  0.2512 -0.7714  0.4202
13268SOL    HW141543   3.926   7.220   7.055  0.6364  0.5930  0.5487
13268SOL    HW241544   3.863   7.207   6.917 -0.0950 -0.4426  0.9661
13269SOL     OW41545   8.584   8.780   3.196  0.5820 -0.1480 -0.2210
13269SOL    HW141546   8.639   8.847   3.156 -1.6416  1.0205 -1.5653
13269SOL    HW241547   8.584   8.801   3.289 -2.4019  3.8171 -0.8560
13270SOL     OW41548   4.801   3.427   3.878 -0.3955 -0.3850 -0.6646
13270SOL    HW141549   4.794   3.498   3.816  0.9779  1.0249  0.7107
13270SOL    HW241550   4.711   3.395   3.888 -1.7889  3.4923  1.2653
13271SOL     OW41551   5.434   0.915   7.403  0.4344  0.2215 -0.4659
13271SOL    HW141552   5.438   1.006   7.376 -1.3051 -0.1562 -2.2361
13271SOL    HW241553   5.526   0.890   7.418  0.9109  2.2832  0.3098
13272SOL     OW41554   6.867   3.105   7.114  0.4201 -0.2260  0.4225
13272SOL    HW141555   6.823   3.129   7.195  1.6923  0.8998  0.8337
13272SOL    HW241556   6.894   3.014   7.126 -2.0564 -1.0909 -0.0117
13273SOL     OW41557   7.330   9.009   1.341  0.4796  0.1584  0.0253
13273SOL    HW141558   7.245   8.965   1.339  1.0632 -1.0142 -0.5023
13273SOL    HW241559   7.319   9.085   1.285 -0.6030  0.8027  1.0664
13274SOL     OW41560   0.689   7.820   4.899  0.2336 -0.1041 -0.0899
13274SOL    HW141561   0.638   7.762   4.955  0.2387  0.8041  0.8985
13274SOL    HW241562   0.779   7.808   4.927  0.0481  1.8153  1.5621
13275SOL     OW41563   1.372   5.430   2.809 -0.0885 -0.1654 -0.3139
13275SOL    HW141564   1.312   5.401   2.878  1.2662  0.7409  1.3455
13275SOL    HW241565   1.315   5.463   2.740 -1.5117 -0.5084  0.6439
13276SOL     OW41566   6.195   3.274   7.544 -0.7337 -0.1826  0.2886
13276SOL    HW141567   6.240   3.281   7.628  0.4418 -0.9170 -0.2455
13276SOL    HW241568   6.113   3.228   7.563 -0.3030 -0.6730  0.9800
13277SOL     OW41569   5.033   3.035   4.899 -0.2682  0.0962  0.5874
13277SOL    HW141570   5.011   3.077   4.816 -1.1564  0.9165  1.2236
13277SOL    HW241571   5.110   3.082   4.930 -0.4443  0.3551  0.6360
13278SOL     OW41572   1.486   1.863   2.784  0.1544  0.2707  0.1156
13278SOL    HW141573   1.507   1.807   2.859  1.5214  0.7198  0.0812
13278SOL    HW241574   1.545   1.834   2.714 -0.4588  0.4839 -0.5048
13279SOL     OW41575   9.042   3.082   5.088 -0.6252 -0.0152 -0.1197
13279SOL    HW141576   8.990   3.013   5.048 -0.7489 -0.0036  0.0160
13279SOL    HW241577   9.119   3.091   5.033 -0.0473 -1.0492  0.4901
13280SOL     OW41578   1.852   4.321   0.397 -0.5804  0.5073 -0.1174
13280SOL    HW141579   1.783   4.334   0.333 -0.3014 -0.2401 -0.5836
13280SOL    HW241580   1.807   4.298   0.478 -0.8705 -0.4181 -0.5307
13281SOL     OW41581   7.948   7.233   1.303  0.1160  0.0309 -0.1191
13281SOL    HW141582   7.897   7.160   1.269  1.4034 -0.3095 -1.4074
13281SOL    HW241583   7.971   7.285   1.226  1.2708  0.4522  0.4810
13282SOL     OW41584   4.808   1.550   0.524  0.4570  0.0692 -0.1558
13282SOL    HW141585   4.891   1.535   0.569  0.9306  0.0519 -1.0330
13282SOL    HW241586   4.831   1.597   0.444 -0.6088  2.0505  0.6322
13283SOL     OW41587   8.008   4.595   2.802 -0.1778  0.3128  0.5177
13283SOL    HW141588   8.032   4.552   2.885 -1.0184 -0.7026  0.2472
13283SOL    HW241589   8.067   4.556   2.738  2.0638  2.7197  0.9422
13284SOL     OW41590   8.907   3.808   5.458  0.3995  0.3554  0.4732
13284SOL    HW141591   8.889   3.818   5.552 -1.2333 -1.3925  0.4207
13284SOL    HW241592   8.924   3.715   5.447  0.4592  0.5176 -0.9792
13285SOL     OW41593   6.314   5.755   0.962  0.4086  0.0962 -0.0952
13285SOL    HW141594   6.373   5.710   1.022 -1.5855 -0.1595  1.7885
13285SOL    HW241595   6.283   5.687   0.902  0.1393 -0.3041  0.4914
13286SOL     OW41596   0.901   6.257   4.664  0.1542 -0.0384  0.4810
13286SOL    HW141597   0.947   6.190   4.614 -0.1995 -1.2921  1.7590
13286SOL    HW241598   0.846   6.302   4.600  1.1976 -0.2519 -0.5871
13287SOL     OW41599   4.700   3.397   4.166  0.5220  0.0612  0.2155
13287SOL    HW141600   4.678   3.489   4.154  2.3833  0.3341 -1.9600
13287SOL    HW241601   4.760   3.377   4.093  2.5385 -2.0614  2.2584
13288SOL     OW41602   0.922   9.001   1.586 -0.5205  0.1756 -0.0664
13288SOL    HW141603   0.891   8.998   1.495  0.1462  1.1640 -0.3488
13288SOL    HW241604   0.976   9.080   1.589  0.1354 -0.3024  0.9810
13289SOL     OW41605   3.786   0.466   7.889 -0.1052  0.1389 -0.1379
13289SOL    HW141606   3.821   0.419   7.965 -1.1550 -1.0583 -0.3563
13289SOL    HW241607   3.699   0.495   7.918  0.4292  1.8139 -0.0841
13290SOL     OW41608   0.094   9.201   2.325  0.4081  0.2573  0.1762
13290SOL    HW141609   0.146   9.124   2.301 -0.5400 -0.6332  0.8853
13290SOL    HW241610   0.149   9.275   2.300  1.8588 -0.6331  0.5637
13291SOL     OW41611   3.187   3.491   4.404 -0.0064  0.0012 -0.6090
13291SOL    HW141612   3.126   3.427   4.440  1.4969 -1.0201  0.2316
13291SOL    HW241613   3.132   3.561   4.370 -1.5827 -0.0345  1.6822
13292SOL     OW41614   4.160   9.266   0.205 -0.0037 -0.1385 -0.0073
13292SOL    HW141615   4.096   9.320   0.158  0.9026  1.0850  0.1175
13292SOL    HW241616   4.241   9.317   0.202  1.3334 -2.2032 -1.2636
13293SOL     OW41617   0.787   7.327   2.260 -0.0373  0.5740  0.1622
13293SOL    HW141618   0.761   7.236   2.277  0.0260  0.5277  0.0180
13293SOL    HW241619   0.798   7.331   2.165  0.4538  0.5969  0.2129
13294SOL     OW41620   8.345   1.199   6.798 -0.3360  0.2509  0.2213
13294SOL    HW141621   8.381   1.186   6.886 -2.2144  2.1463  1.3475
13294SOL    HW241622   8.312   1.288   6.798 -1.4676 -0.1019 -2.0445
13295SOL     OW41623   6.633   7.804   8.566  0.0559 -0.0145  0.4520
13295SOL    HW141624   6.585   7.873   8.612  1.1115  1.4282 -0.5254
13295SOL    HW241625   6.699   7.775   8.629  0.7116  1.0985  0.3059
13296SOL     OW41626   9.221   1.314   7.030 -0.4837  0.2680 -0.2673
13296SOL    HW141627   9.302   1.358   7.004 -0.9901  0.9986 -0.6504
13296SOL    HW241628   9.226   1.312   7.126  0.6782 -1.0745 -0.3225
13297SOL     OW41629   3.335   3.110   9.315 -0.1329  0.5545  0.3789
13297SOL    HW141630   3.300   3.060   9.242 -0.0729 -1.5434  1.7069
13297SOL    HW241631   3.259   3.156   9.351 -0.5000  0.1701  0.0950
13298SOL     OW41632   3.804   8.394   0.341  0.5374  0.1089 -0.0792
13298SOL    HW141633   3.762   8.424   0.421  0.6216 -0.4366  0.1743
13298SOL    HW241634   3.874   8.458   0.325  0.8952 -0.0979  0.6092
13299SOL     OW41635   8.325   4.536   6.268 -0.1137  0.3144 -0.3435
13299SOL    HW141636   8.309   4.442   6.272 -0.8526  0.4579  0.3727
13299SOL    HW241637   8.354   4.559   6.356 -2.9334  1.2453  0.4424
13300SOL     OW41638   0.363   8.096   3.939 -0.3943 -0.7755  0.0727
13300SOL    HW141639   0.431   8.040   3.977  0.1881 -0.6846 -0.8015
13300SOL    HW241640   0.351   8.062   3.850 -1.0237 -0.3806  0.0035
13301SOL     OW41641   5.633   8.894   3.289  0.5016  0.2666 -0.1802
13301SOL    HW141642   5.546   8.929   3.307  0.0511  0.7545 -2.8085
13301SOL    HW241643   5.619   8.800   3.279  0.3487  0.2809 -0.1024
13302SOL     OW41644   9.499   1.582   2.397 -0.0104 -0.4015 -0.7113
13302SOL    HW141645   9.549   1.650   2.350  0.5909 -0.4786 -0.1996
13302SOL    HW241646   9.444   1.543   2.330  0.3815 -0.0837 -1.2311
13303SOL     OW41647   0.605   6.444   9.453  0.7650 -0.4745  0.2214
13303SOL    HW141648   0.578   6.469   9.365  0.3561 -1.1298  0.1570
13303SOL    HW241649   0.626   6.351   9.447  2.1601 -0.1915  0.4922
13304SOL     OW41650   3.678   0.288   8.746  0.2423  0.0950 -0.6898
13304SOL    HW141651   3.704   0.225   8.812  0.2224  1.2672  0.4883
13304SOL    HW241652   3.626   0.353   8.794 -0.6447  0.4464 -2.0546
13305SOL     OW41653   8.336   4.888   6.422 -0.1713 -0.0197 -0.2382
13305SOL    HW141654   8.401   4.953   6.448  1.2895 -0.8137 -1.7208
13305SOL    HW241655   8.289   4.928   6.349 -1.4401  0.5741  0.8656
13306SOL     OW41656   2.361   9.258   5.800  0.0668 -0.4535 -0.1596
13306SOL    HW141657   2.411   9.278   5.721  1.9843  0.2329  1.1693
13306SOL    HW241658   2.377   9.333   5.858 -2.8783  0.0186  0.2177
13307SOL     OW41659   5.087   5.489   7.168  0.2501  0.6970  0.4026
13307SOL    HW141660   5.065   5.548   7.095 -0.9346 -1.0286 -0.7240
13307SOL    HW241661   5.018   5.423   7.166  0.3632  0.4174  2.9518
13308SOL     OW41662   6.102   4.059   1.720  0.3645 -0.1338 -0.2031
13308SOL    HW141663   6.139   4.047   1.807 -0.8697  1.0705  0.5336
13308SOL    HW241664   6.178   4.072   1.663  1.1947 -1.2106  0.6356
13309SOL     OW41665   2.009   8.577   3.999  0.1676 -0.0586 -0.2575
13309SOL    HW141666   1.990   8.590   3.906  2.3326 -0.6112 -0.8525
13309SOL    HW241667   2.013   8.665   4.036 -2.6080  0.1166 -0.1932
13310SOL     OW41668   2.980   3.347   7.774  0.3318 -0.6369 -0.1370
13310SOL    HW141669   2.943   3.390   7.851  0.3892 -1.1219  0.1620
13310SOL    HW241670   2.909   3.346   7.710  0.9071  1.8062 -0.9470
13311SOL     OW41671   8.911   1.554   9.223 -0.1828  0.3910  0.2643
13311SOL    HW141672   8.976   1.609   9.267  0.1335  0.5618 -0.4134
13311SOL    HW241673   8.960   1.506   9.157 -0.5641 -0.2769  0.4623
13312SOL     OW41674   0.814   2.551   0.508 -0.8788 -0.2316  0.4078
13312SOL    HW141675   0.749   2.483   0.523 -2.7901  1.0092 -1.5815
13312SOL    HW241676   0.831   2.548   0.414  0.8224  0.4776  0.6555
13313SOL     OW41677   4.564   1.364   8.994 -0.6255 -0.2686 -0.2086
13313SOL    HW141678   4.513   1.393   9.069 -3.0401 -1.6980 -1.1714
13313SOL    HW241679   4.564   1.268   9.000 -1.4218 -0.4511 -2.3108
13314SOL     OW41680   3.873   9.311   7.805  0.0566 -0.6841 -0.0474
13314SOL    HW141681   3.905   9.309   7.895 -0.9670  0.8100  0.3778
13314SOL    HW241682   3.782   9.281   7.811 -0.7472  1.5355 -0.2013
13315SOL     OW41683   7.118   0.573   7.789  0.1623  0.1411 -0.0217
13315SOL    HW141684   7.064   0.629   7.734  2.6737 -0.2622 -3.1714
13315SOL    HW241685   7.067   0.493   7.799  0.0451 -0.2275 -2.8459
13316SOL     OW41686   2.521   4.439   9.413 -0.2628  0.8596 -0.0750
13316SOL    HW141687   2.613   4.442   9.439 -0.8167  1.3837  2.0120
13316SOL    HW241688   2.489   4.357   9.451 -0.4995  0.2764 -1.4723
13317SOL     OW41689   9.007   6.128   7.644  0.5161 -0.0508  0.2989
13317SOL    HW141690   9.029   6.221   7.657 -0.8003  0.1019  1.7109
13317SOL    HW241691   8.944   6.109   7.713 -1.3738 -1.2688 -1.6569
13318SOL     OW41692   6.631   8.985   5.038 -0.4870 -0.2925  0.1715
13318SOL    HW141693   6.538   8.995   5.022 -0.3315 -1.2416 -1.6125
13318SOL    HW241694   6.671   9.062   4.996 -0.4144 -0.2823  0.2581
13319SOL     OW41695   2.517   3.113   3.734 -0.5637  0.2088 -0.0342
13319SOL    HW141696   2.471   3.029   3.729  0.8852 -0.6244  0.0100
13319SOL    HW241697   2.582   3.100   3.803 -0.5379  1.4941  0.2047
13320SOL     OW41698   8.325   2.572   5.456  0.4061 -0.4169 -0.2565
13320SOL    HW141699   8.378   2.493   5.467  0.2792 -0.5809 -0.7718
13320SOL    HW241700   8.250   2.543   5.404  0.3792  0.0492 -0.4838
13321SOL     OW41701   5.055   8.364   4.005 -0.5949  0.3313 -0.3626
13321SOL    HW141702   5.050   8.298   4.075 -1.3073  0.4453 -0.3046
13321SOL    HW241703   5.095   8.440   4.048 -1.4262  0.5504  0.0443
13322SOL     OW41704   8.579   8.037   7.999  0.2096  0.7688 -0.1850
13322SOL    HW141705   8.613   7.971   8.058 -3.1604  0.6814  1.9255
13322SOL    HW241706   8.590   8.000   7.911 -0.8900 -2.3126  0.8676
13323SOL     OW41707   5.668   6.456   1.673  0.0299 -0.4053  0.0566
13323SOL    HW141708   5.640   6.413   1.592  0.1215  0.2536 -0.3376
13323SOL    HW241709   5.587   6.474   1.720 -0.1438  0.3970 -0.5141
13324SOL     OW41710   7.802   0.103   3.096 -0.0406  0.2889 -0.2087
13324SOL    HW141711   7.739   0.162   3.054  0.4677  1.5990  0.8111
13324SOL    HW241712   7.768   0.093   3.185  0.4188 -0.1841 -0.0848
13325SOL     OW41713   2.269   6.906   6.928  0.4210  1.0078 -0.7075
13325SOL    HW141714   2.308   6.989   6.952 -0.0674  0.5411  2.0580
13325SOL    HW241715   2.175   6.924   6.924  0.3546  0.6859 -0.6226
13326SOL     OW41716   1.660   5.318   8.488  0.4492  0.1990  0.5694
13326SOL    HW141717   1.749   5.353   8.476  0.5033  0.5677  1.8660
13326SOL    HW241718   1.626   5.308   8.399  1.1786  1.6553  0.0861
13327SOL     OW41719   2.786   8.521   5.534 -0.4211 -0.8187 -0.2692
13327SOL    HW141720   2.858   8.509   5.597  0.8772 -1.7760 -1.8536
13327SOL    HW241721   2.783   8.439   5.486 -0.4150  0.3739 -2.4061
13328SOL     OW41722   5.760   6.276   7.011 -0.1298 -0.0869 -0.2190
13328SOL    HW141723   5.702   6.200   7.001 -1.1014  0.7415 -1.0309
13328SOL    HW241724   5.733   6.315   7.095 -0.5821  0.1413 -0.4647
13329SOL     OW41725   8.531   7.804   0.026 -0.1777  0.2142  0.1737
13329SOL    HW141726   8.468   7.779  -0.042  0.0262  0.3141 -0.0533
13329SOL    HW241727   8.477   7.837   0.097 -0.3666  0.7140 -0.1922
13330SOL     OW41728   7.822   4.664   2.515  0.0338 -0.1268  0.1361
13330SOL    HW141729   7.790   4.590   2.564 -0.1387 -0.3209 -0.2635
13330SOL    HW241730   7.808   4.740   2.572 -0.6619 -0.2757  0.1655
13331SOL     OW41731   6.076   8.707   3.890  0.3313 -0.0229  0.7818
13331SOL    HW141732   6.046   8.792   3.859  1.6409  0.5965  1.1294
13331SOL    HW241733   6.046   8.645   3.824  0.3339  0.8592 -0.0650
13332SOL     OW41734   7.480   1.794   2.974  0.2584 -0.4350  0.4073
13332SOL    HW141735   7.569   1.771   2.946  0.6098  1.3836 -0.1135
13332SOL    HW241736   7.488   1.884   3.005 -0.7955 -1.2631  3.3315
13333SOL     OW41737   2.392   0.632   8.574 -0.1156  0.4675  0.4008
13333SOL    HW141738   2.387   0.559   8.635 -0.3994  0.8157  0.7977
13333SOL    HW241739   2.317   0.620   8.516  1.7599 -1.5438 -1.8088
13334SOL     OW41740   1.978   6.415   9.342  0.7355  0.3584  0.5626
13334SOL    HW141741   2.068   6.383   9.335  0.7340  0.3238  0.7081
13334SOL    HW241742   1.940   6.364   9.414  0.8186  0.8942  0.9887
13335SOL     OW41743   4.099   4.522   1.325 -0.2849 -0.1689  0.3635
13335SOL    HW141744   4.025   4.477   1.366 -1.5430  0.8105 -0.7810
13335SOL    HW241745   4.068   4.610   1.308  1.0186  0.1527 -0.5059
13336SOL     OW41746   3.099   2.124   8.021 -0.7065 -0.1763  0.1079
13336SOL    HW141747   3.138   2.134   8.108 -0.6393 -2.7154  0.4348
13336SOL    HW241748   3.171   2.142   7.961 -0.2156 -0.4116  0.6144
13337SOL     OW41749   4.064   8.549   1.801 -0.7791 -0.2859 -0.6320
13337SOL    HW141750   4.079   8.540   1.895 -1.1550  0.3487 -0.5047
13337SOL    HW241751   4.029   8.464   1.775 -3.3451  0.3812  0.3464
13338SOL     OW41752   3.216   3.473   7.722 -0.3820  0.2905  0.1090
13338SOL    HW141753   3.127   3.448   7.747 -0.3444 -1.0009 -0.9251
13338SOL    HW241754   3.206   3.555   7.674 -0.8044  1.0377  1.4055
13339SOL     OW41755   4.063   7.576   0.980 -0.0975  0.0503 -0.6641
13339SOL    HW141756   4.124   7.520   1.029 -0.0585 -0.2272 -1.0242
13339SOL    HW241757   4.095   7.665   0.995  2.3765 -0.2302 -3.4072
13340SOL     OW41758   8.228   0.093   6.441  0.3012 -0.3931 -0.1081
13340SOL    HW141759   8.209   0.182   6.473  1.0304  0.0761 -0.9473
13340SOL    HW241760   8.201   0.094   6.350  0.4933 -0.9760 -0.1739
13341SOL     OW41761   6.167   4.973   2.800 -0.0618  0.4177  0.4528
13341SOL    HW141762   6.199   5.064   2.806  1.0803  0.0903 -0.2464
13341SOL    HW241763   6.152   4.959   2.706 -0.7083  0.0296  0.6084
13342SOL     OW41764   5.215   3.644   3.760  0.1482  0.0795 -0.5965
13342SOL    HW141765   5.198   3.737   3.748  0.7071  0.0208 -1.9653
13342SOL    HW241766   5.160   3.619   3.834 -1.2245  1.1337 -1.2297
13343SOL     OW41767   4.690   4.967   5.205 -0.3093  0.1930  0.2149
13343SOL    HW141768   4.783   4.957   5.184 -0.1142  0.3258  0.9660
13343SOL    HW241769   4.644   4.934   5.128  0.3614  0.4777 -0.3183
13344SOL     OW41770   4.385   4.112   1.746 -0.0779  0.0156 -0.0306
13344SOL    HW141771   4.427   4.112   1.660  0.1730  0.5659  0.0875
13344SOL    HW241772   4.298   4.076   1.730  0.2767 -0.7003 -0.3599
13345SOL     OW41773   0.111   3.316   5.936 -0.2377  0.3720  0.7391
13345SOL    HW141774   0.133   3.303   5.843  0.9610  1.1436  0.8889
13345SOL    HW241775   0.194   3.304   5.982 -1.0885 -1.4548  1.8949
13346SOL     OW41776   3.656   5.255   3.054 -0.4503 -0.7366  0.1857
13346SOL    HW141777   3.587   5.236   3.118 -0.0488 -0.5699  0.6744
13346SOL    HW241778   3.672   5.170   3.011 -1.1515 -0.7146 -0.1347
13347SOL     OW41779   6.196   5.895   4.198 -0.5867 -0.6538 -0.4067
13347SOL    HW141780   6.250   5.909   4.276  0.3880 -0.0231 -1.1638
13347SOL    HW241781   6.131   5.965   4.201  1.2547  1.2251 -1.6324
13348SOL     OW41782   7.778   8.083   8.536  0.3765 -0.2790 -0.1585
13348SOL    HW141783   7.748   8.174   8.544  1.3941  0.0718 -0.2741
13348SOL    HW241784   7.738   8.039   8.612  1.3988  0.6875  0.9942
13349SOL     OW41785   0.864   5.012   9.001 -0.4773  0.3997  0.7674
13349SOL    HW141786   0.914   4.954   9.058 -0.0228  0.7245  0.7096
13349SOL    HW241787   0.782   5.028   9.048 -0.5912 -0.2527  0.7990
13350SOL     OW41788   5.119   6.876   5.077  0.8290 -1.0742  0.3554
13350SOL    HW141789   5.113   6.808   5.143  0.5747  0.0777  1.5657
13350SOL    HW241790   5.204   6.917   5.092  0.2763 -0.0457  0.7668
13351SOL     OW41791   5.843   8.685   1.991 -0.1767 -0.3382  0.5714
13351SOL    HW141792   5.850   8.738   1.911 -2.2367 -2.9523 -1.5218
13351SOL    HW241793   5.930   8.688   2.029  0.8576  1.1507 -1.6767
13352SOL     OW41794   0.622   5.506   5.001  0.2953 -0.4464 -0.2047
13352SOL    HW141795   0.700   5.560   5.005  1.3124 -1.9064  2.5986
13352SOL    HW241796   0.591   5.513   4.911  2.6954  1.4662 -0.9591
13353SOL     OW41797   5.290   2.630   5.988 -0.1379 -0.0653  0.3460
13353SOL    HW141798   5.368   2.653   5.938 -0.2256 -0.8731 -0.1822
13353SOL    HW241799   5.249   2.560   5.938 -0.7198 -0.2681  1.0826
13354SOL     OW41800   2.651   8.042   5.592  0.4274 -0.4161 -0.2178
13354SOL    HW141801   2.606   8.121   5.624 -0.1236 -1.2948  1.2706
13354SOL    HW241802   2.744   8.066   5.593  0.2993  0.0911  0.6395
13355SOL     OW41803   5.420   0.113   4.292 -0.3211 -0.5106 -0.1255
13355SOL    HW141804   5.438   0.138   4.202 -0.3851 -1.1216 -0.3169
13355SOL    HW241805   5.500   0.133   4.340  0.0743 -1.0986 -0.5208
13356SOL     OW41806   5.417   8.185   9.046 -0.1354 -0.0590  0.4370
13356SOL    HW141807   5.401   8.094   9.021  1.5111 -0.7890  1.8374
13356SOL    HW241808   5.332   8.217   9.075 -1.1148 -0.5749 -1.6471
13357SOL     OW41809   2.822   0.160   7.016 -0.1054 -0.0420 -0.2948
13357SOL    HW141810   2.755   0.195   7.075 -0.0150  0.5997 -0.5729
13357SOL    HW241811   2.877   0.235   6.995 -1.1880  0.1779 -2.6575
13358SOL     OW41812   7.618   1.933   6.790  0.5620 -0.0710 -0.1340
13358SOL    HW141813   7.696   1.970   6.751  1.6708 -1.0307  1.0965
13358SOL    HW241814   7.597   1.857   6.735  1.2881 -0.5822  0.2705
13359SOL     OW41815   2.323   7.172   5.116 -0.0372  0.3631 -0.2508
13359SOL    HW141816   2.272   7.192   5.194  0.5260 -1.5133  0.6718
13359SOL    HW241817   2.300   7.081   5.096  1.0860  0.2853 -1.2771
13360SOL     OW41818   0.422   8.933   1.205  0.2223 -0.4755 -0.0143
13360SOL    HW141819   0.347   8.950   1.147  1.1179 -0.6915 -1.2772
13360SOL    HW241820   0.488   8.893   1.148  0.5937 -2.1008  1.4851
13361SOL     OW41821   6.173   2.427   7.883 -0.4663  0.1047 -0.1935
13361SOL    HW141822   6.154   2.430   7.790  1.9843  0.0375 -0.7575
13361SOL    HW241823   6.087   2.437   7.925 -1.6709 -0.1692 -2.4155
13362SOL     OW41824   6.383   3.871   3.173 -0.3699  0.3234 -0.2617
13362SOL    HW141825   6.477   3.873   3.153  0.1938 -1.1752  1.8958
13362SOL    HW241826   6.342   3.921   3.102  1.8651 -0.4128 -2.1774
13363SOL     OW41827   0.625   7.752   9.577  1.5404  0.2985 -0.2789
13363SOL    HW141828   0.709   7.761   9.532  1.6655 -0.4519 -0.2034
13363SOL    HW241829   0.639   7.682   9.641  0.5346 -0.6357 -1.0477
13364SOL     OW41830   1.327   0.058   8.774 -0.4125 -0.1139  0.0181
13364SOL    HW141831   1.299   0.113   8.701  1.2865 -0.4779 -0.9881
13364SOL    HW241832   1.411   0.022   8.745 -0.2297 -1.1686  1.7144
13365SOL     OW41833   5.325   6.118   4.945 -0.6891 -0.5143  0.2170
13365SOL    HW141834   5.412   6.156   4.933 -0.7705 -0.7410 -1.2286
13365SOL    HW241835   5.267   6.175   4.894 -0.9375 -2.0563 -1.2887
13366SOL     OW41836   8.424   6.454   4.990 -0.5180  0.4324 -0.7116
13366SOL    HW141837   8.478   6.379   5.016 -1.4851 -0.3302 -0.8673
13366SOL    HW241838   8.482   6.530   5.000  0.9456 -0.4665 -1.9396
13367SOL     OW41839   7.325   2.034   0.150  0.6986 -0.2903 -0.6612
13367SOL    HW141840   7.396   1.996   0.202  2.8321  0.4577 -2.8319
13367SOL    HW241841   7.294   1.962   0.094  0.7502 -0.2612 -0.7274
13368SOL     OW41842   7.320   7.149   5.705  0.3083 -0.1843 -0.1290
13368SOL    HW141843   7.267   7.228   5.695  0.3731 -0.1056  0.1346
13368SOL    HW241844   7.319   7.131   5.799 -0.9729 -1.3748 -0.3373
13369SOL     OW41845   5.624   5.014   6.810  0.0226  0.1882  0.2474
13369SOL    HW141846   5.579   5.043   6.889  0.0052 -0.0452  0.3206
13369SOL    HW241847   5.632   4.919   6.819  0.9783  0.2744  0.4760
13370SOL     OW41848   2.672   7.243   1.003 -0.4408  0.2306 -0.3627
13370SOL    HW141849   2.722   7.253   0.922  1.3605 -0.3727  0.6022
13370SOL    HW241850   2.609   7.315   1.002  0.4649  1.0546 -1.6469
13371SOL     OW41851   2.762   4.626   1.875  0.6166 -0.2731 -0.2613
13371SOL    HW141852   2.712   4.703   1.901  0.6507 -0.1136 -0.6715
13371SOL    HW241853   2.725   4.555   1.929  1.3541  0.2298  0.9598
13372SOL     OW41854   8.427   2.015   3.246 -0.2732 -0.0357  0.7248
13372SOL    HW141855   8.459   1.959   3.175 -0.5857  0.2439  0.3622
13372SOL    HW241856   8.436   1.961   3.325  1.4608  0.1614  0.6993
13373SOL     OW41857   5.755   0.017   1.925  0.0569  0.0440 -0.0671
13373SOL    HW141858   5.754   0.017   1.829 -0.1080  0.0243 -0.0666
13373SOL    HW241859   5.762   0.109   1.949 -1.3195  0.1905 -0.0983
13374SOL     OW41860   5.132   4.402   8.687  0.1840 -0.4757 -0.0829
13374SOL    HW141861   5.100   4.431   8.772  0.9890 -1.0951  0.4503
13374SOL    HW241862   5.215   4.447   8.675 -0.2316  0.1048 -0.8463
13375SOL     OW41863   8.261   4.934   9.343  0.4777  0.0303 -0.3303
13375SOL    HW141864   8.277   4.979   9.426  1.7957  0.1700 -0.6292
13375SOL    HW241865   8.348   4.903   9.316  0.0940  0.1274 -1.7396
13376SOL     OW41866   0.889   9.331   6.360 -0.4157 -0.9051  0.5026
13376SOL    HW141867   0.841   9.412   6.342  0.8730  0.0127  1.0395
13376SOL    HW241868   0.828   9.261   6.338 -0.3972  0.1036 -3.5046
13377SOL     OW41869   9.046   5.821   3.797 -0.0417  0.3248  0.3389
13377SOL    HW141870   9.129   5.786   3.766  0.2264  0.0501  1.3260
13377SOL    HW241871   9.040   5.908   3.757  0.1531 -0.1196 -0.6761
13378SOL     OW41872   5.139   7.730   7.268 -0.3886 -0.5192 -0.5881
13378SOL    HW141873   5.094   7.813   7.285  0.3575 -0.3258  0.5084
13378SOL    HW241874   5.088   7.665   7.316 -0.9038 -0.7044 -1.3512
13379SOL     OW41875   5.852   4.835   8.014 -0.0331 -0.0420  0.0772
13379SOL    HW141876   5.880   4.870   7.930  0.0797  0.2719  0.2469
13379SOL    HW241877   5.859   4.908   8.075  1.4910 -0.6937  0.7285
13380SOL     OW41878   8.178   6.894   3.509 -0.2753  0.9766 -0.1051
13380SOL    HW141879   8.140   6.849   3.433  1.9109  2.3879 -2.1518
13380SOL    HW241880   8.168   6.987   3.488 -0.1870  1.4059  1.6784
13381SOL     OW41881   0.829   8.883   4.426 -0.0584 -0.0046  0.2555
13381SOL    HW141882   0.847   8.811   4.488 -0.0886  0.8904  1.3297
13381SOL    HW241883   0.891   8.868   4.355 -0.2654 -1.2670  0.3126
13382SOL     OW41884   8.825   0.381   0.920  0.8391 -0.4740  0.4218
13382SOL    HW141885   8.783   0.325   0.986 -0.9839  1.3712  0.9473
13382SOL    HW241886   8.825   0.468   0.959  0.5264  0.5094 -1.6551
13383SOL     OW41887   1.812   3.706   8.262 -0.2042 -0.2264  0.6013
13383SOL    HW141888   1.747   3.692   8.193 -1.4873  0.5989  1.5841
13383SOL    HW241889   1.786   3.789   8.303  0.8238 -0.4347  1.7420
13384SOL     OW41890   1.199   1.923   7.541 -0.5537  0.1709 -0.3322
13384SOL    HW141891   1.187   1.841   7.589  0.5283  0.5559  0.6560
13384SOL    HW241892   1.175   1.902   7.451  3.5360 -2.3992 -1.0874
13385SOL     OW41893   4.735   3.682   4.146 -0.3977  0.8994  0.5114
13385SOL    HW141894   4.810   3.737   4.123  0.0325 -0.4565 -1.5681
13385SOL    HW241895   4.665   3.745   4.166  0.4683  2.2033 -0.3661
13386SOL     OW41896   7.451   9.332   0.400  0.0679  0.1403 -0.4985
13386SOL    HW141897   7.541   9.358   0.420 -0.0222 -0.1880  0.3877
13386SOL    HW241898   7.447   9.333   0.304  0.9474  0.3820 -0.5468
13387SOL     OW41899   8.140   9.488   3.612 -0.0871  0.1534 -0.0811
13387SOL    HW141900   8.219   9.434   3.620 -1.2056 -1.3838  1.2859
13387SOL    HW241901   8.136   9.511   3.520  2.8527  1.7430  0.0643
13388SOL     OW41902   2.010   2.019   6.518 -0.0828  0.0256 -0.2138
13388SOL    HW141903   2.056   2.054   6.442 -0.9293  0.5993 -0.4853
13388SOL    HW241904   1.985   1.930   6.493  1.6982 -0.6603  0.3103
13389SOL     OW41905   8.425   4.233   1.708  0.6438  0.1874  0.7415
13389SOL    HW141906   8.481   4.304   1.678  0.1283  0.2276 -0.1685
13389SOL    HW241907   8.357   4.226   1.641  0.7458 -1.2227  0.7550
13390SOL     OW41908   3.430   7.947   1.274  0.7258  0.1796  0.2043
13390SOL    HW141909   3.345   7.940   1.318  0.0339 -0.5855 -1.1814
13390SOL    HW241910   3.490   7.978   1.342 -1.0171  2.5805  0.7794
13391SOL     OW41911   2.393   5.326   4.853  0.0733  0.0150  0.2791
13391SOL    HW141912   2.393   5.417   4.826 -2.4679  0.2174  0.6949
13391SOL    HW241913   2.469   5.288   4.810  1.2992  2.3469  0.2458
13392SOL     OW41914   5.757   1.488   8.069  0.1305  0.3575  1.0156
13392SOL    HW141915   5.785   1.566   8.021 -2.6912  0.2266 -1.0994
13392SOL    HW241916   5.674   1.514   8.109  0.0303 -1.0595  1.7923
13393SOL     OW41917   7.402   4.064   9.153 -0.7529 -0.1319 -0.0854
13393SOL    HW141918   7.350   4.063   9.233  1.6725 -1.0470  1.5913
13393SOL    HW241919   7.374   3.985   9.105 -0.2396 -1.1719  1.2721
13394SOL     OW41920   9.350   0.336   6.801  0.3973  0.1336 -0.2004
13394SOL    HW141921   9.258   0.362   6.798  0.3983  0.0904 -0.9345
13394SOL    HW241922   9.396   0.414   6.833  0.4078  1.1469 -2.4253
13395SOL     OW41923   6.068   6.052   8.613 -0.1036  0.1145  0.2204
13395SOL    HW141924   5.978   6.082   8.601  0.2564  1.6332  0.9924
13395SOL    HW241925   6.060   5.976   8.671 -0.8248  1.0692  1.4344
13396SOL     OW41926   3.183   7.548   9.308  0.0188 -0.4660  0.1841
13396SOL    HW141927   3.205   7.515   9.395  2.0078  1.5262  0.5275
13396SOL    HW241928   3.261   7.528   9.255 -0.4415 -0.0554 -0.6635
13397SOL     OW41929   7.353   8.178   4.737  0.3706  0.2419 -0.2175
13397SOL    HW141930   7.352   8.098   4.684 -1.0173  0.5068 -0.6263
13397SOL    HW241931   7.337   8.148   4.826  0.8546 -0.0234 -0.2143
13398SOL     OW41932   0.049   1.670   8.423  0.0702 -0.0151 -0.2959
13398SOL    HW141933  -0.033   1.664   8.374  1.1135 -0.1787 -2.0960
13398SOL    HW241934   0.113   1.622   8.370  1.5962  1.0852  0.4603
13399SOL     OW41935   2.869   5.577   1.795  0.6348  0.3721  0.0381
13399SOL    HW141936   2.788   5.553   1.750  0.0159 -0.9109  1.7003
13399SOL    HW241937   2.935   5.577   1.727 -0.8451  2.1926 -1.5166
13400SOL     OW41938   3.595   2.139   7.603 -0.0962 -0.9619 -0.2653
13400SOL    HW141939   3.575   2.066   7.545 -3.1939 -1.8093  1.6644
13400SOL    HW241940   3.519   2.196   7.598 -0.2776 -0.8171  2.4933
13401SOL     OW41941   2.797   9.196   5.626  0.0519  0.1471  0.5506
13401SOL    HW141942   2.880   9.244   5.616 -0.7217  1.6593  1.0844
13401SOL    HW241943   2.770   9.214   5.716 -1.5391  0.8583 -0.0419
13402SOL     OW41944   0.912   7.871   1.727  0.5207 -0.1529  0.5405
13402SOL    HW141945   0.887   7.780   1.741 -0.2637 -0.0521 -0.1316
13402SOL    HW241946   0.829   7.919   1.727  0.7206  0.2677 -1.1751
13403SOL     OW41947   2.127   8.944   2.812 -0.0613  0.0831 -0.5679
13403SOL    HW141948   2.161   9.007   2.876 -0.1978 -0.5083  0.1086
13403SOL    HW241949   2.126   8.861   2.860  0.5358 -0.5263 -1.5732
13404SOL     OW41950   2.131   5.729   6.339 -0.0790  0.3062 -0.0960
13404SOL    HW141951   2.102   5.772   6.420 -1.9731 -0.4080 -0.3461
13404SOL    HW241952   2.125   5.635   6.358  1.9948  0.0911 -0.2504
13405SOL     OW41953   7.708   5.695   1.414  0.4629  0.0678 -0.3472
13405SOL    HW141954   7.739   5.673   1.501 -2.4744  2.2961  1.4619
13405SOL    HW241955   7.736   5.786   1.400 -0.8178  0.4272 -0.7715
13406SOL     OW41956   3.762   3.869   1.682  0.1428  0.7784  0.3797
13406SOL    HW141957   3.725   3.858   1.595 -0.0925  0.7772  0.4814
13406SOL    HW241958   3.759   3.963   1.699 -0.8731  0.6704  0.8559
13407SOL     OW41959   8.977   4.926   2.625 -0.0832  0.1450 -0.2582
13407SOL    HW141960   9.048   4.902   2.565  0.9715 -0.7370  1.2652
13407SOL    HW241961   9.015   4.916   2.712 -2.0767 -0.3042  0.6180
13408SOL     OW41962   0.564   5.747   7.108  0.1065  0.3765  0.5115
13408SOL    HW141963   0.532   5.814   7.047 -0.1054  0.8545  1.1373
13408SOL    HW241964   0.486   5.693   7.127  0.7442 -1.5632 -1.8295
13409SOL     OW41965   3.088   9.274   5.280 -0.3514 -0.4157 -0.1025
13409SOL    HW141966   3.092   9.201   5.342  0.6767 -0.6981 -0.4833
13409SOL    HW241967   3.017   9.330   5.314  0.1463 -0.5789  1.2997
13410SOL     OW41968   6.135   7.560   5.013 -0.0988  0.4970  0.2837
13410SOL    HW141969   6.064   7.624   5.009 -2.3719 -1.3889  4.1295
13410SOL    HW241970   6.204   7.604   5.063 -0.9985  0.5360  1.5377
13411SOL     OW41971   6.540   7.947   3.225 -0.1993 -0.2587  0.0534
13411SOL    HW141972   6.478   7.876   3.237  0.9074 -1.0748  1.1562
13411SOL    HW241973   6.490   8.015   3.179 -1.3926 -1.5637 -0.6434
13412SOL     OW41974   4.214   7.853   9.136 -0.1901 -0.2380 -0.2275
13412SOL    HW141975   4.232   7.942   9.166 -0.5045  0.0994 -1.0075
13412SOL    HW241976   4.136   7.862   9.082  0.2646 -0.8590 -0.9965
13413SOL     OW41977   8.921   0.537   5.354 -0.3419 -0.0056 -0.3011
13413SOL    HW141978   8.873   0.601   5.301  0.6240  0.1242 -1.0368
13413SOL    HW241979   8.995   0.511   5.300  0.4028 -0.2408  0.8013
13414SOL     OW41980   9.545   4.302   5.627 -0.5428  0.0188 -0.0420
13414SOL    HW141981   9.483   4.232   5.605 -2.6796  2.2540 -1.6025
13414SOL    HW241982   9.493   4.382   5.624  2.3864  2.0542 -1.3501
13415SOL     OW41983   8.409   4.501   5.769  0.0432 -0.1551  0.0541
13415SOL    HW141984   8.438   4.526   5.857  1.1029  1.6221 -0.7581
13415SOL    HW241985   8.365   4.416   5.782  0.9819 -0.3900  2.1381
13416SOL     OW41986   4.297   0.504   7.656  0.5012  0.5633 -0.4203
13416SOL    HW141987   4.253   0.473   7.577  1.9904 -1.3947 -0.5542
13416SOL    HW241988   4.232   0.495   7.725 -0.3931  1.0293 -1.1909
13417SOL     OW41989   1.554   6.629   2.723 -0.5818 -0.0436  0.3743
13417SOL    HW141990   1.604   6.556   2.686 -1.5435 -1.1029  1.1064
13417SOL    HW241991   1.591   6.640   2.811  0.4948  1.3054 -0.1899
13418SOL     OW41992   3.949   6.542   1.626  0.0416  0.2037  0.3285
13418SOL    HW141993   3.908   6.558   1.711  0.1433 -1.1470  0.6626
13418SOL    HW241994   3.878   6.504   1.573  0.1936  0.2756  0.0733
13419SOL     OW41995   7.362   9.468   3.900 -0.0205 -0.1417 -0.4895
13419SOL    HW141996   7.360   9.382   3.859 -1.5252 -0.1172 -0.4897
13419SOL    HW241997   7.418   9.457   3.977 -0.3667 -1.1648 -0.3806
13420SOL     OW41998   9.364   8.482   8.680 -0.2667 -0.5756  0.3087
13420SOL    HW141999   9.389   8.494   8.771  2.3105 -0.0732 -0.3910
13420SOL    HW242000   9.332   8.392   8.675  0.5615 -0.9536  1.4910
13421SOL     OW42001   2.346   2.900   3.485  0.5643  0.3767  0.2111
13421SOL    HW142002   2.286   2.967   3.451  0.8160  0.9352  0.8395
13421SOL    HW242003   2.432   2.926   3.451  0.3092 -1.1882 -1.8455
13422SOL     OW42004   0.583   4.274   3.852  0.1533  0.0136 -0.4241
13422SOL    HW142005   0.546   4.265   3.940 -1.2711 -0.3333 -1.0302
13422SOL    HW242006   0.638   4.352   3.856  0.9217 -0.5644  1.0331
13423SOL     OW42007   1.442   5.438   8.836 -0.1535  0.3368 -0.5077
13423SOL    HW142008   1.366   5.379   8.833  0.1459 -0.1645  0.9643
13423SOL    HW242009   1.517   5.379   8.840  0.2133  0.8294 -0.1056
13424SOL     OW42010   7.011   0.792   8.550 -0.3393 -0.0302  0.1736
13424SOL    HW142011   6.939   0.815   8.492  0.3156  0.1847 -0.5787
13424SOL    HW242012   6.975   0.726   8.609 -1.2206  0.2747 -0.0136
13425SOL     OW42013   2.665   9.011   3.871 -0.3579 -0.4420  0.6787
13425SOL    HW142014   2.736   9.039   3.929 -0.5130 -0.7234  1.0073
13425SOL    HW242015   2.586   9.019   3.923 -0.4181 -1.3889  0.7539
13426SOL     OW42016   2.620   0.419   5.763 -0.6024 -0.3481 -0.0791
13426SOL    HW142017   2.619   0.501   5.814  1.3564 -0.4208  0.1418
13426SOL    HW242018   2.566   0.438   5.687  0.5245  1.4981 -0.4841
13427SOL     OW42019   4.207   2.226   7.445  0.5754  0.3950 -0.1975
13427SOL    HW142020   4.271   2.289   7.411 -1.0154  0.5614 -3.2567
13427SOL    HW242021   4.247   2.141   7.426  0.2871  0.5021 -1.3873
13428SOL     OW42022   6.820   4.752   3.736  0.2515  0.0514 -0.3181
13428SOL    HW142023   6.820   4.848   3.741  0.7388  0.1152 -1.4150
13428SOL    HW242024   6.879   4.731   3.664 -0.9422 -1.0203 -1.0314
13429SOL     OW42025   2.461   1.311   3.102  0.2402 -0.2174 -0.8959
13429SOL    HW142026   2.373   1.336   3.131 -0.4027 -2.6056 -0.5364
13429SOL    HW242027   2.478   1.228   3.146  2.3470 -0.2409 -1.6301
13430SOL     OW42028   0.247   3.721   8.585 -0.4172  0.3666  0.1346
13430SOL    HW142029   0.280   3.667   8.513  0.1908  0.4415  0.3497
13430SOL    HW242030   0.189   3.784   8.543 -0.3206  0.2049 -0.2493
13431SOL     OW42031   0.197   8.661   7.243 -0.2058 -0.1460  0.5171
13431SOL    HW142032   0.289   8.634   7.237  0.0870  1.0970 -1.6727
13431SOL    HW242033   0.166   8.623   7.325  2.0890 -1.1032  1.0141
13432SOL     OW42034   2.702   6.979   7.423  0.2109 -0.1300 -0.2011
13432SOL    HW142035   2.797   6.989   7.430  0.1869  0.4476 -0.5934
13432SOL    HW242036   2.676   6.934   7.504  0.7832 -0.0410  0.0345
13433SOL     OW42037   7.845   9.054   8.955 -0.5183 -0.2134 -0.1292
13433SOL    HW142038   7.856   9.149   8.943 -2.1322 -0.0239 -0.3787
13433SOL    HW242039   7.908   9.031   9.023 -0.9672  1.3038  0.8636
13434SOL     OW42040   4.996   8.368   6.157 -0.4530 -0.3678  0.1517
13434SOL    HW142041   4.942   8.289   6.160 -2.6257  1.0583  1.0606
13434SOL    HW242042   4.947   8.428   6.101  0.6272  0.7006  0.3273
13435SOL     OW42043   3.132   5.983   1.858  0.0593  0.5294 -0.5805
13435SOL    HW142044   3.183   6.063   1.873 -0.9465  0.7848  2.0642
13435SOL    HW242045   3.155   5.926   1.932 -1.6094 -0.3189 -0.6817
13436SOL     OW42046   2.905   8.926   6.082 -0.4984  0.1385  0.2899
13436SOL    HW142047   2.974   8.991   6.096  1.1673 -1.3082 -0.7888
13436SOL    HW242048   2.929   8.853   6.139 -0.4624 -0.8365 -0.9318
13437SOL     OW42049   7.365   9.451   3.596 -0.1703  0.1308 -0.4973
13437SOL    HW142050   7.356   9.517   3.664  0.3707  0.1303 -0.4164
13437SOL    HW242051   7.278   9.411   3.588  0.1733 -1.1675  1.5055
13438SOL     OW42052   6.106   0.417   8.916 -0.1764  0.2636  0.2702
13438SOL    HW142053   6.078   0.507   8.900  1.0578  0.5034 -0.6600
13438SOL    HW242054   6.060   0.366   8.850 -0.0310  0.3569  0.0981
13439SOL     OW42055   0.475   3.914   0.442 -0.2870 -0.1155 -0.2674
13439SOL    HW142056   0.570   3.927   0.436 -0.0244 -0.2633  2.3607
13439SOL    HW242057   0.465   3.819   0.451 -0.6627 -0.0778 -0.3019
13440SOL     OW42058   3.975   4.034   2.679  0.4048  0.0412 -0.2554
13440SOL    HW142059   3.899   3.992   2.641  0.5679 -1.0658  0.5996
13440SOL    HW242060   3.970   4.125   2.649 -2.2822  0.4912  1.3136
13441SOL     OW42061   4.756   1.400   0.957 -0.1580  0.0301 -0.2148
13441SOL    HW142062   4.849   1.414   0.974 -0.0204  0.8158 -1.5280
13441SOL    HW242063   4.722   1.366   1.040  1.4365 -1.0201  0.0568
13442SOL     OW42064   0.200   2.284   8.573  0.0859 -0.4641  0.3750
13442SOL    HW142065   0.222   2.210   8.630  0.3772  0.6633  1.8051
13442SOL    HW242066   0.112   2.266   8.543 -0.5072 -0.6122  2.0794
13443SOL     OW42067   7.060   2.221   8.880 -0.2327  0.3718 -0.8135
13443SOL    HW142068   7.060   2.294   8.818  2.2717  1.0670 -0.1168
13443SOL    HW242069   7.149   2.219   8.914 -0.3070 -2.8278 -0.5341
13444SOL     OW42070   7.829   6.046   4.390  0.2163  0.6706 -0.0972
13444SOL    HW142071   7.865   6.018   4.306 -0.8021 -1.1178  0.0113
13444SOL    HW242072   7.755   5.987   4.406 -0.3689  1.7390  1.4952
13445SOL     OW42073   4.345   0.059   8.207  0.0913 -0.1206  1.0836
13445SOL    HW142074   4.254   0.031   8.196  0.1764  0.2128 -0.8569
13445SOL    HW242075   4.397  -0.011   8.169  0.5909  0.1765  1.2084
13446SOL     OW42076   0.455   3.784   5.032  0.3073  0.1997  0.0025
13446SOL    HW142077   0.366   3.816   5.031  0.4590  1.0274  3.1349
13446SOL    HW242078   0.457   3.720   5.104  2.7216  2.0519  1.7453
13447SOL     OW42079   3.538   8.444   8.205 -0.1268 -0.5707 -0.6568
13447SOL    HW142080   3.461   8.419   8.155  0.0217 -0.5958 -0.8775
13447SOL    HW242081   3.572   8.361   8.239 -0.4493 -0.5109 -0.1868
13448SOL     OW42082   0.823   4.222   3.640  0.2848 -0.2690 -0.4223
13448SOL    HW142083   0.742   4.205   3.690  0.0802  1.1346 -0.2410
13448SOL    HW242084   0.801   4.294   3.582  1.4116  0.1395 -0.3696
13449SOL     OW42085   6.327   2.328   1.259  0.2758  0.3461  0.4120
13449SOL    HW142086   6.413   2.354   1.227  1.3638 -2.0253  1.2109
13449SOL    HW242087   6.325   2.359   1.350  1.8955 -2.7459  1.6272
13450SOL     OW42088   1.594   1.808   5.625  0.8034  0.3284  0.2629
13450SOL    HW142089   1.669   1.866   5.610  2.4922 -1.2787  1.9107
13450SOL    HW242090   1.627   1.721   5.606 -0.6123 -0.4395  1.1360
13451SOL     OW42091   4.189   4.364   7.211 -0.5034 -0.1543 -0.1801
13451SOL    HW142092   4.202   4.414   7.291  0.2617 -1.0629  0.2919
13451SOL    HW242093   4.108   4.397   7.174  0.3304  1.9317 -0.2722
13452SOL     OW42094   5.538   4.833   1.985  0.2221 -0.3347  0.1788
13452SOL    HW142095   5.582   4.763   2.034  1.6610 -0.4676 -1.2063
13452SOL    HW242096   5.513   4.897   2.052  1.7110 -0.7165  1.1662
13453SOL     OW42097   7.238   1.555   2.700 -0.4597 -0.2394  0.0960
13453SOL    HW142098   7.202   1.640   2.728  0.2724 -0.4308  1.7334
13453SOL    HW242099   7.169   1.492   2.720 -0.7986 -0.1091 -0.6314
13454SOL     OW42100   6.198   3.030   8.332  0.3935 -0.3597 -0.7885
13454SOL    HW142101   6.103   3.019   8.333  0.4470 -0.8850 -0.8996
13454SOL    HW242102   6.216   3.092   8.403 -0.0326 -0.2410 -0.7807
13455SOL     OW42103   3.985   8.578   0.271 -0.0072 -0.3994 -0.1897
13455SOL    HW142104   4.064   8.586   0.324 -0.1325  0.2920 -0.0968
13455SOL    HW242105   4.016   8.547   0.186  0.4781  0.6878 -0.4261
13456SOL     OW42106   1.181   4.136   8.977 -0.1036 -0.1290  0.3484
13456SOL    HW142107   1.244   4.138   8.905 -1.2646 -0.7275 -0.7211
13456SOL    HW242108   1.130   4.057   8.962 -0.8873  0.1603  1.3854
13457SOL     OW42109   1.295   2.188   7.535 -0.1992 -0.1782 -0.1098
13457SOL    HW142110   1.271   2.096   7.535 -0.6895 -0.0561 -0.8304
13457SOL    HW242111   1.262   2.222   7.452  0.4135  0.5333 -0.0747
13458SOL     OW42112   0.053   7.123   5.621  0.2596 -0.2195 -0.1351
13458SOL    HW142113   0.007   7.055   5.670  1.6628 -0.5891  0.7513
13458SOL    HW242114   0.129   7.078   5.583 -0.0578  0.3698 -1.5149
13459SOL     OW42115   1.275   6.024   7.176  0.4877 -0.1971 -0.0519
13459SOL    HW142116   1.337   6.045   7.246  0.2829 -0.2910  0.1612
13459SOL    HW242117   1.310   5.945   7.136 -0.7327 -1.6653  1.6256
13460SOL     OW42118   8.158   4.895   4.229  0.3327  0.6367 -0.2534
13460SOL    HW142119   8.144   4.834   4.302  1.2338  1.3999  0.5748
13460SOL    HW242120   8.253   4.908   4.226  0.3237  0.5207 -1.6598
13461SOL     OW42121   2.601   0.387   5.234 -0.3395  0.3549 -0.0385
13461SOL    HW142122   2.534   0.447   5.201 -0.7639  0.4910  0.9961
13461SOL    HW242123   2.645   0.354   5.156 -1.7913  0.0621 -0.7650
13462SOL     OW42124   8.438   1.029   5.658 -0.2878 -0.6078 -0.2750
13462SOL    HW142125   8.426   1.117   5.623 -2.4623 -0.2248  1.2035
13462SOL    HW242126   8.491   1.042   5.737 -0.5300 -0.6159 -0.1085
13463SOL     OW42127   1.628   7.845   3.652 -0.1270 -0.3104 -0.1169
13463SOL    HW142128   1.669   7.927   3.678  0.8044 -0.4597 -1.0109
13463SOL    HW242129   1.689   7.807   3.588 -1.0024 -1.2285 -0.4463
13464SOL     OW42130   5.140   3.293   3.033 -0.3904  0.3630 -0.5939
13464SOL    HW142131   5.119   3.251   2.950 -0.9856  0.7402 -0.6419
13464SOL    HW242132   5.107   3.232   3.100  0.8541 -0.3500 -0.5980
13465SOL     OW42133   8.535   9.144   6.342 -0.4272 -0.1205 -0.0348
13465SOL    HW142134   8.607   9.126   6.281  0.0377 -0.3381  0.5617
13465SOL    HW242135   8.563   9.223   6.389  0.7019 -1.6300  2.0355
13466SOL     OW42136   3.670   6.578   2.583 -0.2808 -0.2866  0.5987
13466SOL    HW142137   3.739   6.644   2.574 -1.2016  0.7481  0.8641
13466SOL    HW242138   3.685   6.540   2.670  0.7674 -1.0583  0.1037
13467SOL     OW42139   1.684   5.023   9.120  0.1072  0.1831  0.5237
13467SOL    HW142140   1.745   5.085   9.081  1.3586 -0.3545  1.5698
13467SOL    HW242141   1.673   4.955   9.053  1.2634 -0.0972  0.5925
13468SOL     OW42142   1.250   6.785   7.724  0.6689  0.0245 -0.5443
13468SOL    HW142143   1.326   6.747   7.767  1.4520  2.7886  0.7730
13468SOL    HW242144   1.262   6.880   7.734 -1.6907  0.6279 -2.5335
13469SOL     OW42145   3.943   7.042   8.549  0.1181 -0.1380  0.0082
13469SOL    HW142146   3.986   6.957   8.559 -0.6057 -0.4753  0.3589
13469SOL    HW242147   3.870   7.024   8.490  0.0987  0.2981 -0.1042
13470SOL     OW42148   5.016   8.872   0.254  0.3658  0.8572  0.2607
13470SOL    HW142149   4.941   8.827   0.216 -0.5333  1.5936  1.1044
13470SOL    HW242150   5.088   8.855   0.193 -0.2276 -0.6929 -0.0513
13471SOL     OW42151   3.065   8.183   4.196  0.1941  0.6069  0.0297
13471SOL    HW142152   3.094   8.255   4.141  0.7378  0.4877  0.1567
13471SOL    HW242153   3.092   8.208   4.285 -0.6646  0.7963  0.2476
13472SOL     OW42154   7.889   3.326   1.593  0.2987  0.4067 -0.1331
13472SOL    HW142155   7.926   3.300   1.677 -0.4993  0.3549  0.2056
13472SOL    HW242156   7.816   3.266   1.578  0.1785  0.6731 -0.6693
13473SOL     OW42157   0.890   8.528   1.609  0.8977  0.0586 -0.1759
13473SOL    HW142158   0.879   8.608   1.660  0.3783  1.1329 -1.8827
13473SOL    HW242159   0.824   8.534   1.541  2.3241 -0.7175 -1.6956
13474SOL     OW42160   3.453   7.507   9.287 -0.3081  0.3301 -0.3001
13474SOL    HW142161   3.511   7.453   9.233  0.9285  0.8211  0.5000
13474SOL    HW242162   3.454   7.465   9.373 -2.8289 -0.8644 -0.7708
13475SOL     OW42163   1.989   2.969   3.369  0.3067 -0.2025 -0.3091
13475SOL    HW142164   1.954   2.896   3.319 -0.1637  1.0761 -1.9144
13475SOL    HW242165   1.983   2.940   3.461 -1.7916 -1.3504 -0.7509
13476SOL     OW42166   7.545   0.978   6.124 -0.4567 -0.6013 -0.9238
13476SOL    HW142167   7.468   0.991   6.068  1.3127  0.8990 -3.1826
13476SOL    HW242168   7.618   1.012   6.072  2.1007 -3.8431  0.2163
13477SOL     OW42169   1.512   5.357   4.089 -0.0601  0.1462  0.5057
13477SOL    HW142170   1.447   5.346   4.159  0.0105 -1.0626  0.4007
13477SOL    HW242171   1.505   5.277   4.038 -1.5938  1.8560 -2.1843
13478SOL     OW42172   5.739   3.310   3.734  0.4967  0.2217  0.0955
13478SOL    HW142173   5.821   3.266   3.710  0.4820  0.5845 -0.6630
13478SOL    HW242174   5.761   3.360   3.813  1.1316  0.6315 -0.3258
13479SOL     OW42175   8.110   2.571   8.307 -0.3840 -0.0366  0.5083
13479SOL    HW142176   8.090   2.660   8.335 -2.8026  0.0683 -1.2496
13479SOL    HW242177   8.157   2.582   8.225  2.1573 -0.4202  1.8075
13480SOL     OW42178   5.358   1.515   6.309 -0.1337 -0.7692 -0.5258
13480SOL    HW142179   5.415   1.561   6.247  0.0968 -0.9857 -0.4802
13480SOL    HW242180   5.270   1.544   6.288  0.1559  1.4022  0.9094
13481SOL     OW42181   6.153   9.459   3.241 -0.2695  0.3299 -0.3151
13481SOL    HW142182   6.243   9.450   3.209 -0.4902  0.0694 -0.8777
13481SOL    HW242183   6.098   9.430   3.168 -0.7852 -0.5688  0.3988
13482SOL     OW42184   7.063   0.668   3.432 -0.5926 -0.4252 -0.1548
13482SOL    HW142185   7.033   0.608   3.501 -0.5511 -0.1163  0.1308
13482SOL    HW242186   7.157   0.674   3.445 -0.7418  0.5875  0.5223
13483SOL     OW42187   2.614   0.751   0.575  0.0365  0.3712  0.1973
13483SOL    HW142188   2.615   0.846   0.577  0.5812  0.3606  2.1614
13483SOL    HW242189   2.552   0.726   0.644  1.2696 -0.6763  0.9729
13484SOL     OW42190   2.582   9.059   7.265  0.0798  1.2751 -0.5033
13484SOL    HW142191   2.521   9.064   7.192  0.6473  2.1352 -0.9262
13484SOL    HW242192   2.534   9.094   7.340 -0.6606 -0.0283 -0.3311
13485SOL     OW42193   1.483   6.059   2.605 -0.1389 -0.5511  0.4267
13485SOL    HW142194   1.424   6.025   2.537  0.3353  1.4231 -1.0732
13485SOL    HW242195   1.428   6.068   2.682 -1.5276  0.0584 -0.5874
13486SOL     OW42196   0.555   2.402   1.130 -0.0088  0.4108  0.3610
13486SOL    HW142197   0.633   2.402   1.074 -0.8213 -0.3545 -0.8240
13486SOL    HW242198   0.522   2.312   1.124 -1.0925  0.7753  0.6700
13487SOL     OW42199   4.772   1.930   4.362 -0.1725 -0.4220 -0.0275
13487SOL    HW142200   4.853   1.889   4.332  1.4194  2.3775  0.1586
13487SOL    HW242201   4.714   1.925   4.286  1.0449 -0.2831 -0.9945
13488SOL     OW42202   5.290   9.310   4.059 -0.7798  0.6263  0.1841
13488SOL    HW142203   5.337   9.228   4.076 -0.1805  0.6382 -1.2189
13488SOL    HW242204   5.280   9.350   4.145  0.4315 -0.1219  0.7114
13489SOL     OW42205   7.520   7.691   4.704  0.4015 -0.6402  0.3765
13489SOL    HW142206   7.486   7.766   4.656 -0.2053 -2.0025 -1.4180
13489SOL    HW242207   7.615   7.696   4.693  0.2615 -1.0448 -1.2010
13490SOL     OW42208   4.920   7.000   0.562 -0.0748  0.1778  0.2190
13490SOL    HW142209   4.949   7.088   0.540 -1.1929  0.5644  0.2423
13490SOL    HW242210   4.829   6.996   0.532  0.6006 -1.7445 -1.9766
13491SOL     OW42211   5.856   2.315   2.073 -0.4454 -0.2831  0.0841
13491SOL    HW142212   5.802   2.284   2.001 -0.8303  0.0040  0.2473
13491SOL    HW242213   5.919   2.244   2.089 -1.2230 -0.9143  0.3656
13492SOL     OW42214   3.878   3.421   2.875 -0.4886 -0.3025 -0.4094
13492SOL    HW142215   3.917   3.414   2.962  1.3574 -0.0111 -1.1746
13492SOL    HW242216   3.824   3.342   2.867 -0.2452 -0.6199  0.7818
13493SOL     OW42217   3.851   1.350   7.191  0.1512 -0.0936 -0.0949
13493SOL    HW142218   3.870   1.443   7.194 -0.3909  0.0117  0.0545
13493SOL    HW242219   3.833   1.326   7.282 -0.0590 -0.2730 -0.1834
13494SOL     OW42220   4.535   1.106   9.016  0.1660  0.4968  0.1234
13494SOL    HW142221   4.491   1.021   9.021  1.7390 -0.4156 -0.5662
13494SOL    HW242222   4.620   1.091   9.058  1.3794  1.0427 -1.9504
13495SOL     OW42223   3.439   7.383   5.220  0.8155  0.3035 -0.5429
13495SOL    HW142224   3.521   7.409   5.180  1.0677 -1.0703 -0.9841
13495SOL    HW242225   3.379   7.369   5.146  1.0139 -1.3348 -0.4470
13496SOL     OW42226   8.228   2.196   3.223  0.5868 -0.0679 -0.3821
13496SOL    HW142227   8.181   2.221   3.303  0.5172  0.1168 -0.4812
13496SOL    HW242228   8.282   2.121   3.250 -1.0111 -1.3587 -0.6710
13497SOL     OW42229   8.202   6.538   9.030 -0.6786  0.2129 -0.4639
13497SOL    HW142230   8.293   6.535   9.000 -0.8585 -2.3302 -0.9769
13497SOL    HW242231   8.163   6.610   8.982  0.5932  0.0982 -1.7168
13498SOL     OW42232   1.172   0.542   4.925 -0.5265 -0.1069 -0.0173
13498SOL    HW142233   1.118   0.466   4.903 -0.4644 -0.8449  2.1595
13498SOL    HW242234   1.261   0.513   4.907 -0.5194 -0.4734  0.6033
13499SOL     OW42235   4.655   2.867   7.272 -0.2004 -0.4217 -0.1407
13499SOL    HW142236   4.593   2.937   7.295  1.7794  2.2257 -2.2069
13499SOL    HW242237   4.603   2.803   7.224 -1.6912  0.7004 -0.0826
13500SOL     OW42238   9.531   1.514   0.734  0.6415  0.2090  0.1591
13500SOL    HW142239   9.566   1.553   0.814  1.0278 -1.5839  0.8996
13500SOL    HW242240   9.442   1.549   0.728  0.0366 -0.8162  2.2572
13501SOL     OW42241   4.753   4.706   2.250 -0.2798 -0.0028  0.6304
13501SOL    HW142242   4.698   4.683   2.325 -0.1425 -1.2680  0.3683
13501SOL    HW242243   4.735   4.637   2.185 -0.2454  0.9581 -0.4221
13502SOL     OW42244   8.651   9.362   8.247  0.2527 -0.1197 -0.4955
13502SOL    HW142245   8.636   9.454   8.227 -0.3378 -0.3885 -1.3779
13502SOL    HW242246   8.733   9.361   8.296 -0.3761  0.9836  0.6295
13503SOL     OW42247   8.571   5.711   4.559  0.1476  0.3813  0.3327
13503SOL    HW142248   8.612   5.635   4.518 -1.6782 -1.7472  2.1330
13503SOL    HW242249   8.491   5.726   4.508 -0.1663  0.2157  0.7676
13504SOL     OW42250   0.312   1.504   8.490 -0.3522 -0.0913 -0.3371
13504SOL    HW142251   0.314   1.582   8.434  0.4701 -0.1340 -0.3875
13504SOL    HW242252   0.316   1.431   8.429 -0.6987 -0.1651 -0.2714
13505SOL     OW42253   8.883   0.126   5.530  0.0668 -0.1712  0.1369
13505SOL    HW142254   8.886   0.216   5.564 -0.6935 -0.2553  0.4605
13505SOL    HW242255   8.792   0.114   5.502  0.5163 -0.3327 -1.3438
13506SOL     OW42256   3.704   4.103   2.849 -0.5180  0.4617  0.5079
13506SOL    HW142257   3.769   4.035   2.867 -0.0448  0.8189  0.1716
13506SOL    HW242258   3.714   4.165   2.922  2.0744  2.4197 -1.3064
13507SOL     OW42259   5.892   6.192   0.081 -0.2069  0.1567 -0.2454
13507SOL    HW142260   5.894   6.098   0.097 -1.0766  0.2293  0.4140
13507SOL    HW242261   5.813   6.205   0.028 -0.0800  0.5061 -0.3499
13508SOL     OW42262   4.176   8.987   0.130  0.0339  0.0307  0.0923
13508SOL    HW142263   4.260   8.962   0.091  1.2621 -0.4041  2.7846
13508SOL    HW242264   4.182   9.081   0.142  0.8567 -0.1913  1.6960
13509SOL     OW42265   1.461   7.175   0.864 -0.0096 -0.3019  0.0640
13509SOL    HW142266   1.370   7.152   0.879  0.6150 -1.6431  2.1882
13509SOL    HW242267   1.460   7.271   0.857 -1.3965 -0.1264  1.8573
13510SOL     OW42268   2.012   3.084   5.987 -0.3087 -0.2290  0.2181
13510SOL    HW142269   2.070   3.160   5.986 -0.3072 -0.2288 -0.8332
13510SOL    HW242270   2.003   3.062   6.080  1.1298 -0.0594  0.4176
13511SOL     OW42271   9.083   5.140   4.390 -0.2000 -0.1888  0.2426
13511SOL    HW142272   9.151   5.208   4.394  1.4715 -1.7314 -0.3638
13511SOL    HW242273   9.028   5.165   4.316  0.0973  0.7375  0.3226
13512SOL     OW42274   4.699   9.001   1.685 -0.0559  0.5568 -0.0926
13512SOL    HW142275   4.748   8.979   1.764 -0.6848 -0.3490  0.0613
13512SOL    HW242276   4.732   8.940   1.619  0.2898  1.1434 -0.4698
13513SOL     OW42277   8.596   2.630   2.063 -0.3812 -0.3675 -0.3256
13513SOL    HW142278   8.611   2.556   2.122 -1.5932 -0.8520 -0.5888
13513SOL    HW242279   8.519   2.675   2.099 -0.9089 -0.4571 -1.3043
13514SOL     OW42280   3.911   3.027   3.482  0.0036 -0.0637 -0.0941
13514SOL    HW142281   3.934   2.962   3.548  1.3560  0.6880  0.2315
13514SOL    HW242282   3.891   3.106   3.532  1.7084  0.7076 -0.5546
13515SOL     OW42283   6.824   5.267   5.800 -0.2142  0.4837  0.3225
13515SOL    HW142284   6.919   5.271   5.783 -0.2668  0.7121  0.0686
13515SOL    HW242285   6.785   5.260   5.713 -0.3778 -0.8284  0.4829
13516SOL     OW42286   6.552   8.737   4.573 -1.0322  0.8235 -0.1123
13516SOL    HW142287   6.603   8.791   4.634  0.3827  1.3856 -1.7117
13516SOL    HW242288   6.580   8.647   4.592 -1.2135  0.9020  0.5811
13517SOL     OW42289   5.932   7.851   6.476  0.6028 -0.4562 -0.1562
13517SOL    HW142290   5.854   7.796   6.470  1.9802 -2.6510  0.7586
13517SOL    HW242291   6.001   7.791   6.503  2.7826  1.2602 -1.5762
13518SOL     OW42292   8.990   7.039   3.162  0.0647 -0.5343 -0.2616
13518SOL    HW142293   9.081   7.037   3.193  0.2388  1.0234 -0.5805
13518SOL    HW242294   8.978   6.956   3.117  1.1135 -1.0576  0.3829
13519SOL     OW42295   5.770   5.273   4.905 -0.2493 -0.5340  0.3736
13519SOL    HW142296   5.684   5.250   4.938 -0.7793  0.8468  0.0196
13519SOL    HW242297   5.784   5.363   4.934  0.7210 -0.4521 -0.2687
13520SOL     OW42298   0.961   4.113   6.550 -0.2104 -0.2075 -0.3868
13520SOL    HW142299   1.014   4.173   6.601  0.4691 -0.8979 -0.2534
13520SOL    HW242300   0.876   4.157   6.539  0.1591  0.6030 -0.0016
13521SOL     OW42301   8.294   5.203   0.860 -0.0466 -0.6649  0.1773
13521SOL    HW142302   8.238   5.279   0.873 -0.2024 -0.6422 -0.5347
13521SOL    HW242303   8.336   5.188   0.944  0.4193  0.5534  0.1772
13522SOL     OW42304   2.943   7.193   0.417  0.2431  0.7284 -0.1402
13522SOL    HW142305   2.858   7.207   0.458  0.6437  2.8979  0.0517
13522SOL    HW242306   3.006   7.233   0.477  1.4808 -1.1360 -0.1035
13523SOL     OW42307   0.286   9.472   2.899 -0.1976  0.2558  0.6067
13523SOL    HW142308   0.335   9.394   2.926 -1.6947 -0.3483  1.6790
13523SOL    HW242309   0.228   9.442   2.829  0.2417  0.7621  0.0039
13524SOL     OW42310   3.861   2.709   7.545 -0.2333 -0.0671  0.4711
13524SOL    HW142311   3.916   2.769   7.596 -0.0266  0.5062 -0.4135
13524SOL    HW242312   3.891   2.719   7.455 -2.8587  1.5143 -0.3444
13525SOL     OW42313   2.216   9.180   4.294 -0.3089  0.0486 -0.1954
13525SOL    HW142314   2.268   9.248   4.250  0.5826  0.9693  2.1363
13525SOL    HW242315   2.281   9.120   4.330 -1.0735 -1.5265 -1.3347
13526SOL     OW42316   1.984   3.897   3.298 -0.0744 -0.0120 -0.0923
13526SOL    HW142317   2.076   3.880   3.281 -0.4461 -1.9779 -0.4118
13526SOL    HW242318   1.945   3.912   3.212 -0.3610 -1.0736 -0.1655
13527SOL     OW42319   9.553   3.800   4.281  0.9861 -0.0519 -0.3394
13527SOL    HW142320   9.567   3.777   4.373  0.8762 -0.5753 -0.4508
13527SOL    HW242321   9.569   3.718   4.233 -0.1030 -0.0751 -0.6805
13528SOL     OW42322   8.699   9.484   3.310 -0.0239 -0.0672 -0.6351
13528SOL    HW142323   8.617   9.439   3.332 -0.7714  0.8836 -1.3543
13528SOL    HW242324   8.714   9.543   3.384 -0.6733  0.6400 -1.0459
13529SOL     OW42325   1.935   9.300   4.680  0.3312 -0.2808 -0.2823
13529SOL    HW142326   1.982   9.368   4.631  0.7020 -0.3031  0.0354
13529SOL    HW242327   2.004   9.245   4.717  0.2006  1.3901  2.6816
13530SOL     OW42328   0.957   9.318   4.320 -0.8428  0.2306 -0.0634
13530SOL    HW142329   0.912   9.402   4.322 -0.5499  0.4234 -0.8832
13530SOL    HW242330   1.018   9.321   4.393 -0.0358  1.2100 -0.7418
13531SOL     OW42331   1.341   0.149   6.856  0.2442 -0.3080 -0.2778
13531SOL    HW142332   1.366   0.164   6.947 -0.3393 -1.6633  0.1277
13531SOL    HW242333   1.256   0.105   6.861 -0.0337  0.0482 -1.4995
13532SOL     OW42334   2.557   0.279   4.305 -0.6095  0.3867  0.1069
13532SOL    HW142335   2.529   0.277   4.396 -2.0116 -0.5568 -0.3106
13532SOL    HW242336   2.598   0.194   4.291 -0.6954  0.4006 -0.2278
13533SOL     OW42337   4.524   4.673   4.422 -0.5579  0.7330  0.0956
13533SOL    HW142338   4.555   4.655   4.333  1.5760  1.3739  0.6442
13533SOL    HW242339   4.464   4.601   4.442  2.2376 -1.9364 -0.3233
13534SOL     OW42340   1.013   5.801   7.310 -0.0396  0.6514 -0.7888
13534SOL    HW142341   1.009   5.867   7.379 -2.6177  0.8042 -1.0143
13534SOL    HW242342   1.097   5.756   7.325 -0.0987  1.2781  1.8509
13535SOL     OW42343   4.577   4.093   5.734  0.2635 -0.2196  0.1874
13535SOL    HW142344   4.570   4.129   5.646 -2.0383 -1.1345 -0.0647
13535SOL    HW242345   4.507   4.028   5.740  1.0484 -0.9690  2.3326
13536SOL     OW42346   0.097   4.542   0.211 -1.3816  0.4883  0.7132
13536SOL    HW142347   0.138   4.532   0.125 -1.2720 -1.5781  0.9615
13536SOL    HW242348   0.163   4.587   0.264 -0.0261 -1.2862  0.6324
13537SOL     OW42349   6.925   1.033   6.705  0.1143  0.0003 -0.0069
13537SOL    HW142350   6.969   1.111   6.741 -0.6464  0.6877 -0.5186
13537SOL    HW242351   6.835   1.062   6.691  0.3448 -0.2333 -2.3855
13538SOL     OW42352   4.286   9.321   4.318  0.1753 -0.4120 -0.0004
13538SOL    HW142353   4.222   9.305   4.388 -0.1106  1.4563  0.2192
13538SOL    HW242354   4.361   9.358   4.364 -0.6090  2.3812 -0.7512
13539SOL     OW42355   7.069   8.451   6.283 -0.1178 -0.2559 -0.2018
13539SOL    HW142356   7.036   8.395   6.213 -0.1300 -0.7935  0.2313
13539SOL    HW242357   7.156   8.477   6.253  0.0678 -0.8685 -0.1983
13540SOL     OW42358   8.588   9.243   4.429  0.3271  0.8348 -0.6653
13540SOL    HW142359   8.558   9.334   4.441  0.3661  0.6337  1.3227
13540SOL    HW242360   8.673   9.240   4.473 -0.2841 -0.4788  0.4908
13541SOL     OW42361   0.098   7.876   1.372  0.0054 -0.1535  1.0819
13541SOL    HW142362   0.182   7.849   1.334  1.2696  0.5610  3.2261
13541SOL    HW242363   0.052   7.794   1.389  0.6391 -0.6000  0.7000
13542SOL     OW42364   0.621   3.960   8.087  0.0768 -0.1114 -0.1979
13542SOL    HW142365   0.549   3.938   8.027  0.5010 -0.0982 -0.7189
13542SOL    HW242366   0.658   4.041   8.050 -1.7125  1.8111  1.8932
13543SOL     OW42367   4.462   1.448   3.412 -0.4080  0.0111 -0.2808
13543SOL    HW142368   4.553   1.448   3.440 -0.5447 -0.8380  0.2110
13543SOL    HW242369   4.447   1.359   3.378 -0.2099  1.0028 -3.2488
13544SOL     OW42370   1.737   4.227   7.601  0.2081 -0.1409 -0.7020
13544SOL    HW142371   1.821   4.248   7.641 -0.4698 -0.2774  0.8724
13544SOL    HW242372   1.679   4.299   7.627 -0.2908 -0.2953 -1.3480
13545SOL     OW42373   8.917   4.706   9.168  0.4851 -0.2074 -0.2721
13545SOL    HW142374   8.960   4.746   9.244 -0.1166 -0.6187  0.2949
13545SOL    HW242375   8.924   4.773   9.099  1.2773  0.0614  0.0582
13546SOL     OW42376   0.278   5.909   3.035 -0.0814 -0.0043  0.1183
13546SOL    HW142377   0.231   5.984   2.999  0.1644 -0.4147 -1.0970
13546SOL    HW242378   0.210   5.856   3.078 -0.2440  0.9259  1.0381
13547SOL     OW42379   5.427   9.588   5.989  0.7503 -0.4429  0.1721
13547SOL    HW142380   5.436   9.510   6.044  0.5790 -0.2007  0.5552
13547SOL    HW242381   5.440   9.557   5.900 -0.8872 -1.2037  0.1702
13548SOL     OW42382   7.046   5.296   8.873 -0.4505 -0.0079 -0.8444
13548SOL    HW142383   7.048   5.294   8.777 -0.5580 -4.3130 -0.9287
13548SOL    HW242384   6.963   5.255   8.897 -0.3758  0.8855  1.1324
13549SOL     OW42385   4.479   2.228   1.496 -0.3545 -0.0232  0.1535
13549SOL    HW142386   4.473   2.178   1.414  1.0968  0.1193 -0.0558
13549SOL    HW242387   4.422   2.181   1.556 -1.7292  0.0586 -1.0109
13550SOL     OW42388   9.056   1.600   8.023  0.3681  0.1241  0.0427
13550SOL    HW142389   9.139   1.589   8.070 -0.3485 -1.1870  1.0739
13550SOL    HW242390   8.999   1.533   8.060 -0.3983 -0.6766 -2.3910
13551SOL     OW42391   0.460   4.712   2.306  0.0001 -0.0330 -0.0714
13551SOL    HW142392   0.498   4.702   2.393  1.7527  1.1139 -0.6543
13551SOL    HW242393   0.489   4.636   2.257 -1.0562 -0.7224  0.3350
13552SOL     OW42394   3.205   8.429   2.338 -0.4899  0.0264  0.2927
13552SOL    HW142395   3.227   8.477   2.417 -0.9759  0.3978  0.2116
13552SOL    HW242396   3.110   8.442   2.328 -0.7424 -1.4049  0.5675
13553SOL     OW42397   8.103   5.645   2.269  0.0759  0.3292  0.0167
13553SOL    HW142398   8.048   5.651   2.191 -0.1159 -1.0306  0.0133
13553SOL    HW242399   8.187   5.681   2.242  0.3207 -1.0128 -1.1604
13554SOL     OW42400   2.160   0.786   5.845 -0.1873  0.2032  0.1246
13554SOL    HW142401   2.210   0.805   5.766 -1.2999  0.8316 -0.4378
13554SOL    HW242402   2.194   0.847   5.911  1.5540 -1.0920  0.5132
13555SOL     OW42403   8.261   5.229   8.452  0.4158 -0.7969  0.0575
13555SOL    HW142404   8.309   5.165   8.503  1.3745 -0.4330 -0.3700
13555SOL    HW242405   8.201   5.177   8.397  0.4736 -1.2591  0.4305
13556SOL     OW42406   8.206   4.269   8.259  0.2566 -0.1078  1.0225
13556SOL    HW142407   8.116   4.239   8.265 -0.1930  1.0355  0.2191
13556SOL    HW242408   8.210   4.345   8.317  0.1025  1.1945 -0.6395
13557SOL     OW42409   0.358   5.272   5.996 -0.4176  0.2323 -0.3458
13557SOL    HW142410   0.424   5.295   5.930 -0.8907  0.2063 -0.8385
13557SOL    HW242411   0.330   5.356   6.031  2.2181  0.1747  2.2691
13558SOL     OW42412   0.584   3.060   2.176  0.1382  0.6051  0.2300
13558SOL    HW142413   0.612   3.117   2.247 -0.4260  0.2064  0.7841
13558SOL    HW242414   0.646   3.078   2.105  0.3033  1.5002  0.5796
13559SOL     OW42415   3.401   0.988   8.839  0.0062 -0.4896 -0.8339
13559SOL    HW142416   3.475   0.977   8.899  0.3193 -1.6565 -1.4066
13559SOL    HW242417   3.434   1.046   8.771  0.4706 -1.1389 -1.1782
13560SOL     OW42418   8.547   5.725   9.497  0.3076 -0.1276  0.1265
13560SOL    HW142419   8.455   5.741   9.519  0.2828  0.2460 -0.2379
13560SOL    HW242420   8.550   5.729   9.401  0.5549 -0.9799  0.0945
13561SOL     OW42421   7.177   8.624   3.427  0.3248 -0.5225 -0.2665
13561SOL    HW142422   7.192   8.641   3.520  1.1837  1.2308 -0.6754
13561SOL    HW242423   7.092   8.580   3.423 -0.4133  0.6771  1.2615
13562SOL     OW42424   5.738   7.159   3.856 -0.2374 -0.1869 -0.3129
13562SOL    HW142425   5.724   7.108   3.935 -1.7333  0.3849 -0.1779
13562SOL    HW242426   5.699   7.107   3.786 -2.0059  0.8040 -0.1374
13563SOL     OW42427   0.988   4.272   0.906  0.0150 -0.1155 -0.3303
13563SOL    HW142428   1.026   4.360   0.909 -0.3407  0.0745 -1.2261
13563SOL    HW242429   1.047   4.222   0.850 -0.7972  0.0607 -1.3580
13564SOL     OW42430   7.451   3.038   6.887 -0.8208 -0.1024  0.3497
13564SOL    HW142431   7.453   2.952   6.846  2.5176  0.1971 -0.3969
13564SOL    HW242432   7.430   3.098   6.816  0.1241 -0.0409  0.1049
13565SOL     OW42433   2.103   2.335   1.815 -0.4096 -0.1279  0.2629
13565SOL    HW142434   2.195   2.343   1.789 -0.1733 -1.7663  0.4569
13565SOL    HW242435   2.056   2.324   1.732 -0.1836 -1.0989  0.2468
13566SOL     OW42436   5.077   9.250   6.082  0.3999  0.0262  0.0265
13566SOL    HW142437   5.048   9.172   6.034  0.5349 -1.5623  2.3307
13566SOL    HW242438   5.107   9.310   6.014 -1.8814 -0.9525 -2.0213
13567SOL     OW42439   3.286   4.639   5.635  0.5369 -0.0094 -1.1887
13567SOL    HW142440   3.315   4.690   5.560  2.2592  0.1434 -0.4734
13567SOL    HW242441   3.345   4.564   5.637  0.6872  0.1212  0.1432
13568SOL     OW42442   4.151   7.748   7.666  0.1064 -0.1129  0.1384
13568SOL    HW142443   4.161   7.679   7.600 -0.7575 -1.2394  1.1410
13568SOL    HW242444   4.236   7.751   7.711 -0.5434 -2.3065  1.7076
13569SOL     OW42445   7.366   4.781   0.161  0.2972  0.3541 -0.2690
13569SOL    HW142446   7.359   4.769   0.256 -1.0823  0.6907 -0.2996
13569SOL    HW242447   7.331   4.700   0.124  1.9134 -0.2603 -0.5178
13570SOL     OW42448   3.071   8.534   6.432  0.3036  0.1718 -0.0298
13570SOL    HW142449   2.994   8.493   6.471  0.7122 -0.0762  0.5417
13570SOL    HW242450   3.145   8.488   6.472  0.7513  0.7492 -0.1808
13571SOL     OW42451   6.057   3.460   8.955  0.0435  0.2296  0.2005
13571SOL    HW142452   6.107   3.380   8.937  0.2396  0.1553  1.0267
13571SOL    HW242453   6.102   3.501   9.029  0.3389  1.4593 -0.6320
13572SOL     OW42454   3.800   5.429   8.868  0.1506 -0.3814 -0.4802
13572SOL    HW142455   3.792   5.523   8.848  0.0153 -0.3827 -0.4311
13572SOL    HW242456   3.855   5.427   8.947 -1.6700 -0.2156  0.8419
13573SOL     OW42457   6.676   2.852   1.089  0.4614  0.4157 -0.2486
13573SOL    HW142458   6.695   2.903   1.168 -1.0442 -0.3880  0.6932
13573SOL    HW242459   6.730   2.773   1.098  0.7700  0.6176 -0.3378
13574SOL     OW42460   1.158   6.382   9.321  0.2820  0.5806 -0.0772
13574SOL    HW142461   1.175   6.294   9.355  0.7628  0.5044 -0.5030
13574SOL    HW242462   1.105   6.367   9.242  1.0402  0.6199 -0.6012
13575SOL     OW42463   8.034   6.194   4.103  0.3633 -0.4142  0.5721
13575SOL    HW142464   8.083   6.127   4.056  0.8078  0.5635 -0.3972
13575SOL    HW242465   8.058   6.181   4.195 -0.1670 -2.0618  0.5125
13576SOL     OW42466   8.021   0.977   1.966  0.1065 -0.7726  0.4601
13576SOL    HW142467   7.946   0.994   2.023 -0.8936 -1.7382 -0.5132
13576SOL    HW242468   7.994   0.901   1.913  2.0898 -1.6848  0.6601
13577SOL     OW42469   3.942   2.223   4.914  0.2282  0.1394 -0.4439
13577SOL    HW142470   3.971   2.159   4.849 -1.9657 -0.5192 -0.8566
13577SOL    HW242471   3.867   2.266   4.874 -0.5603  0.4330  1.2359
13578SOL     OW42472   0.289   2.326   8.286 -0.0556  0.0077 -0.1797
13578SOL    HW142473   0.227   2.283   8.227 -0.1611 -0.4539  0.2583
13578SOL    HW242474   0.261   2.299   8.373 -0.0131  0.8310  0.0937
13579SOL     OW42475   2.387   0.740   1.097  0.2606  0.2926 -0.1124
13579SOL    HW142476   2.428   0.654   1.092 -2.2340 -0.9487 -2.0223
13579SOL    HW242477   2.391   0.764   1.189 -1.7302 -3.4178  1.1510
13580SOL     OW42478   3.748   5.202   5.598  0.1302 -0.6213 -0.2424
13580SOL    HW142479   3.707   5.288   5.592 -0.6799 -1.0956 -2.6460
13580SOL    HW242480   3.773   5.194   5.690 -0.6787  1.7442  0.2599
13581SOL     OW42481   2.868   8.038   1.231 -0.2681  0.5688 -0.5578
13581SOL    HW142482   2.839   8.122   1.196 -1.7385  0.6562  0.7419
13581SOL    HW242483   2.841   8.040   1.323  0.7379 -0.8548 -0.1955
13582SOL     OW42484   0.499   4.256   5.415 -0.2203 -0.1130 -0.0860
13582SOL    HW142485   0.496   4.343   5.376  2.4897 -0.4128 -1.2076
13582SOL    HW242486   0.409   4.224   5.411 -0.8800  1.7716 -1.7007
13583SOL     OW42487   2.535   8.034   0.121 -0.1913  0.5183  0.2941
13583SOL    HW142488   2.477   7.998   0.054 -0.7802  1.3462  0.3481
13583SOL    HW242489   2.597   7.963   0.140 -0.8059 -0.1625 -0.2068
13584SOL     OW42490   0.780   5.854   1.804 -0.2731 -0.1319 -0.0718
13584SOL    HW142491   0.780   5.771   1.755 -0.1252 -0.1959  0.0338
13584SOL    HW242492   0.873   5.869   1.824 -0.2923  0.1041 -0.1661
13585SOL     OW42493   1.776   5.913   2.134  0.0733  0.5861 -0.5883
13585SOL    HW142494   1.818   5.877   2.212 -0.5697 -0.2538 -0.6148
13585SOL    HW242495   1.746   6.000   2.160  0.4272  0.5628 -0.0946
13586SOL     OW42496   1.872   5.386   2.798 -0.3393  0.4741  0.5003
13586SOL    HW142497   1.949   5.331   2.778 -0.6854 -0.4383  1.5462
13586SOL    HW242498   1.799   5.340   2.757 -0.4370  0.9524  0.1302
13587SOL     OW42499   7.279   3.154   3.082 -0.3147  0.2884 -0.3983
13587SOL    HW142500   7.286   3.221   3.015  3.3094 -0.0906 -0.5778
13587SOL    HW242501   7.308   3.196   3.163  1.1357 -0.7699 -0.3318
13588SOL     OW42502   3.380   8.879   7.459  0.2270  0.1887  0.2441
13588SOL    HW142503   3.318   8.934   7.410 -1.1938 -1.1808  0.4132
13588SOL    HW242504   3.386   8.922   7.545 -0.2800  0.5045  0.1303
13589SOL     OW42505   4.267   7.135   4.950 -0.6831  0.1841 -0.4849
13589SOL    HW142506   4.203   7.084   4.900  1.4663 -1.3586 -1.8104
13589SOL    HW242507   4.327   7.169   4.884 -0.2064  1.7667  0.7002
13590SOL     OW42508   8.456   0.785   2.166 -0.0145  0.3505 -0.0326
13590SOL    HW142509   8.369   0.813   2.138  0.1641  0.9982  0.0400
13590SOL    HW242510   8.464   0.695   2.134 -0.5764  0.4040 -0.3333
13591SOL     OW42511   5.918   5.106   1.315  0.0430  0.5619  0.4144
13591SOL    HW142512   5.988   5.046   1.289  0.1624  0.3240  1.2364
13591SOL    HW242513   5.860   5.052   1.369 -1.4748  0.4133 -1.2536
13592SOL     OW42514   4.200   3.082   6.149 -0.6232  0.0870  0.2013
13592SOL    HW142515   4.275   3.100   6.205 -0.3448  1.3323 -0.5357
13592SOL    HW242516   4.181   2.990   6.164  2.1619 -0.7824 -0.8662
13593SOL     OW42517   7.654   7.373   3.203  0.3066  0.2110  0.1465
13593SOL    HW142518   7.708   7.451   3.195 -0.4281  0.8152  0.8050
13593SOL    HW242519   7.605   7.368   3.121  0.8775  0.0327 -0.1843
13594SOL     OW42520   6.912   6.791   3.823 -0.0620  0.0863 -0.1364
13594SOL    HW142521   6.992   6.787   3.771 -0.9055  1.3229 -1.5933
13594SOL    HW242522   6.858   6.720   3.790 -0.5902  0.8596 -0.9618
13595SOL     OW42523   8.843   5.142   6.741  0.2931 -0.5499 -0.5322
13595SOL    HW142524   8.822   5.067   6.685  0.8493 -1.3013  0.2475
13595SOL    HW242525   8.935   5.161   6.724  0.0054  0.3703 -1.1790
13596SOL     OW42526   8.972   4.944   8.536 -0.0387  0.4606  0.2301
13596SOL    HW142527   9.060   4.907   8.548  0.7079  2.3222  0.8777
13596SOL    HW242528   8.960   4.945   8.442 -0.7405 -2.7256  0.1591
13597SOL     OW42529   7.837   2.775   6.861  0.0049 -0.5214  0.3214
13597SOL    HW142530   7.788   2.851   6.830  0.3916 -0.3774  0.0556
13597SOL    HW242531   7.771   2.719   6.904 -0.2410  0.0713  0.7323
13598SOL     OW42532   3.515   8.787   8.127  0.2976 -0.4150  0.0202
13598SOL    HW142533   3.524   8.820   8.037 -2.0238  0.4369  0.0038
13598SOL    HW242534   3.563   8.851   8.181 -0.6684  0.7278 -0.4094
13599SOL     OW42535   0.567   4.996   8.692  0.3532 -0.5585  0.4376
13599SOL    HW142536   0.578   4.917   8.639 -0.8138  0.3762 -1.2938
13599SOL    HW242537   0.656   5.030   8.702  0.7183 -1.3546  0.0284
13600SOL     OW42538   1.765   5.053   6.139 -0.3474  0.2181 -0.1383
13600SOL    HW142539   1.809   4.969   6.143 -1.8905 -0.6408 -0.4610
13600SOL    HW242540   1.775   5.082   6.048 -1.3759 -0.5113 -0.4974
13601SOL     OW42541   6.313   8.617   8.322  0.3552 -0.1146  0.7348
13601SOL    HW142542   6.219   8.622   8.302  0.1444 -1.3086  1.3336
13601SOL    HW242543   6.337   8.707   8.344 -0.6144  0.2408  0.4202
13602SOL     OW42544   6.735   1.001   9.558  0.2116 -0.3424 -0.3186
13602SOL    HW142545   6.705   0.918   9.521 -1.1257 -0.2829  0.5704
13602SOL    HW242546   6.694   1.068   9.503 -0.0321 -0.2738 -0.0593
13603SOL     OW42547   8.446   8.695   6.194  0.3540  0.1187 -0.3039
13603SOL    HW142548   8.418   8.628   6.258  0.7054 -0.2865 -0.5686
13603SOL    HW242549   8.435   8.652   6.109  1.3459  0.1162 -0.4347
13604SOL     OW42550   8.167   6.784   8.885 -0.4025 -0.4701 -0.5131
13604SOL    HW142551   8.073   6.803   8.882 -0.3303  0.1222  0.5082
13604SOL    HW242552   8.207   6.867   8.910  0.2230 -1.1553  0.8481
13605SOL     OW42553   8.584   7.507   7.008  0.2067 -0.2211 -0.7907
13605SOL    HW142554   8.608   7.432   6.953  1.1102 -0.2926 -0.3175
13605SOL    HW242555   8.667   7.540   7.042 -0.0843  1.6403 -1.7898
13606SOL     OW42556   4.796   0.306   2.597  0.0391 -0.3947  0.0808
13606SOL    HW142557   4.703   0.330   2.607  0.1276 -0.5728  1.5278
13606SOL    HW242558   4.843   0.388   2.611  0.0806  0.0637 -2.3103
13607SOL     OW42559   0.162   4.139   7.542  0.0450  0.6590 -0.0814
13607SOL    HW142560   0.254   4.146   7.570 -0.2787 -0.9137  1.6100
13607SOL    HW242561   0.166   4.085   7.463  0.6355  1.4234 -0.5930
13608SOL     OW42562   4.119   1.537   7.421 -0.5993  0.2908 -0.2711
13608SOL    HW142563   4.126   1.547   7.516 -0.2527  0.1657 -0.2811
13608SOL    HW242564   4.060   1.607   7.394 -1.0677  0.0419  0.0903
13609SOL     OW42565   7.606   6.331   2.780 -0.1273  0.0591  0.1576
13609SOL    HW142566   7.686   6.279   2.780 -0.8477 -1.0836 -0.4458
13609SOL    HW242567   7.633   6.416   2.815  1.6536  0.1885 -1.3956
13610SOL     OW42568   2.744   2.767   4.230  0.0487  0.4928  0.1116
13610SOL    HW142569   2.765   2.688   4.181  0.0979 -0.1356  1.1154
13610SOL    HW242570   2.828   2.798   4.264  0.0547  1.0846 -0.4226
13611SOL     OW42571   6.276   7.843   8.739 -0.1042  0.3124  0.6667
13611SOL    HW142572   6.331   7.820   8.814  0.1414  0.7014  0.6097
13611SOL    HW242573   6.312   7.792   8.667  0.0421  0.3934  0.6804
13612SOL     OW42574   2.179   9.571   7.313  0.1762  0.3168  0.3702
13612SOL    HW142575   2.228   9.651   7.331 -0.7466  0.8989  0.3483
13612SOL    HW242576   2.226   9.503   7.360  1.0174  0.8565  0.3238
13613SOL     OW42577   4.056   7.024   0.198 -0.1284 -0.5650  0.2096
13613SOL    HW142578   3.981   6.973   0.228 -0.3078  0.0144  0.7727
13613SOL    HW242579   4.076   7.082   0.272  0.8262 -0.6645  0.0344
13614SOL     OW42580   1.353   0.182   9.018 -0.1379  0.2259  0.1806
13614SOL    HW142581   1.360   0.275   8.995  0.3310 -0.0056 -0.6939
13614SOL    HW242582   1.386   0.137   8.940 -1.1435 -0.6969  0.2728
13615SOL     OW42583   3.446   0.889   9.492  0.0877 -0.0262  0.1305
13615SOL    HW142584   3.526   0.865   9.445  0.1899 -0.0976  0.3358
13615SOL    HW242585   3.466   0.974   9.531  1.2547 -1.3656  2.7931
13616SOL     OW42586   3.167   0.006   1.893 -0.0583  0.2167 -0.4819
13616SOL    HW142587   3.090   0.050   1.929  1.1409  1.2733  0.9219
13616SOL    HW242588   3.234   0.015   1.961  2.0325  1.4193 -2.5523
13617SOL     OW42589   9.161   2.990   0.127  0.2634 -0.1955  0.2350
13617SOL    HW142590   9.106   2.929   0.079 -0.6273 -0.0544  1.0493
13617SOL    HW242591   9.123   2.993   0.215  0.9952  0.6308  0.5410
13618SOL     OW42592   4.435   8.741   2.735  0.0805  0.0019 -0.0171
13618SOL    HW142593   4.475   8.721   2.820  0.7612  1.2264 -0.0276
13618SOL    HW242594   4.406   8.832   2.743  1.0294  0.4543 -1.4068
13619SOL     OW42595   8.581   1.494   1.565  0.3750  0.2256  0.0991
13619SOL    HW142596   8.588   1.467   1.474 -1.6013 -1.0672  0.2577
13619SOL    HW242597   8.637   1.433   1.613 -0.4272 -0.6387 -0.0335
13620SOL     OW42598   6.752   0.664   1.177  0.2717 -0.0043  0.3839
13620SOL    HW142599   6.743   0.587   1.234  0.8847 -0.6235 -0.3434
13620SOL    HW242600   6.696   0.645   1.102  1.9105 -0.6452 -0.7274
13621SOL     OW42601   9.387   2.298   8.158 -0.1890  0.0065 -1.0870
13621SOL    HW142602   9.330   2.375   8.159 -0.3698 -0.1046  0.6018
13621SOL    HW242603   9.330   2.226   8.187  0.3190 -0.4938 -1.3106
13622SOL     OW42604   0.862   1.104   2.732  0.3751  0.0117 -0.2732
13622SOL    HW142605   0.909   1.183   2.758 -0.9158  0.7101  0.0068
13622SOL    HW242606   0.810   1.080   2.809 -1.0973  0.3120 -1.1279
13623SOL     OW42607   7.039   6.581   0.322  0.4881 -0.4469  0.0638
13623SOL    HW142608   7.129   6.547   0.321  0.2430 -1.2575  1.9702
13623SOL    HW242609   6.995   6.533   0.252  0.9644 -1.8019  0.6493
13624SOL     OW42610   3.373   2.572   5.648  0.1183  0.2107  0.1867
13624SOL    HW142611   3.348   2.640   5.711 -0.2165  0.4655 -0.2203
13624SOL    HW242612   3.464   2.592   5.626  0.9432 -1.0477  2.1041
13625SOL     OW42613   9.495   0.724   0.239 -0.1394  0.3219  0.2937
13625SOL    HW142614   9.547   0.659   0.193  0.6281  1.1742 -0.0881
13625SOL    HW242615   9.418   0.677   0.270  1.0660 -1.0675  1.2640
13626SOL     OW42616   9.179   7.201   8.157 -0.1594 -0.4019 -0.3971
13626SOL    HW142617   9.247   7.262   8.128  1.1881 -0.6905  1.8954
13626SOL    HW242618   9.210   7.115   8.129 -0.6882 -0.3222 -1.2443
13627SOL     OW42619   6.119   5.917   5.481  0.0916 -0.6221 -0.4893
13627SOL    HW142620   6.170   5.960   5.412 -0.8256  1.6926  0.1992
13627SOL    HW242621   6.186   5.878   5.538  0.9566 -0.4945 -1.3823
13628SOL     OW42622   7.914   4.898   0.917  0.0039  0.2628 -0.3376
13628SOL    HW142623   7.872   4.868   0.998  1.0785  1.8230  0.8550
13628SOL    HW242624   8.004   4.867   0.924 -0.0961 -0.3039 -1.3575
13629SOL     OW42625   5.641   6.588   5.506  0.1899  0.0971 -0.0157
13629SOL    HW142626   5.577   6.522   5.531  1.7343 -1.4707  0.0060
13629SOL    HW242627   5.625   6.661   5.566 -1.7394 -0.1073 -0.2210
13630SOL     OW42628   6.379   5.388   4.106 -0.0255  0.1100  0.5699
13630SOL    HW142629   6.439   5.417   4.174 -2.3744  1.7801  2.0755
13630SOL    HW242630   6.316   5.459   4.097 -0.0921 -0.2178 -3.0983
13631SOL     OW42631   4.578   7.411   9.475  0.3682 -0.6482  0.7493
13631SOL    HW142632   4.628   7.345   9.427  2.3929 -0.6148  2.6225
13631SOL    HW242633   4.590   7.491   9.424  1.0544 -0.9470  0.4220
13632SOL     OW42634   0.781   9.018   7.041  0.1832  0.2100 -0.0107
13632SOL    HW142635   0.759   8.980   6.956  0.5519  0.3452 -0.1683
13632SOL    HW242636   0.774   9.113   7.027  2.4299  0.3624 -0.5304
13633SOL     OW42637   8.867   9.318   7.343  0.0835  0.1728  0.1828
13633SOL    HW142638   8.929   9.350   7.407 -0.9392  0.7132  0.9384
13633SOL    HW242639   8.898   9.352   7.259  0.7319  0.5215  0.5603
13634SOL     OW42640   2.203   1.054   6.340  0.2867  0.1132 -0.2806
13634SOL    HW142641   2.226   1.147   6.344 -0.8260  0.3694  2.6842
13634SOL    HW242642   2.285   1.009   6.362  0.2581  0.5344  0.7345
13635SOL     OW42643   2.069   0.156   6.241 -0.6071 -0.1216 -0.5000
13635SOL    HW142644   2.070   0.086   6.307 -1.2912  0.0440 -0.3036
13635SOL    HW242645   2.115   0.228   6.283 -1.6681  0.2380  0.1106
13636SOL     OW42646   5.071   6.848   7.993 -0.0122 -0.1972 -0.3035
13636SOL    HW142647   5.088   6.849   8.087  0.7626  1.1514 -0.4372
13636SOL    HW242648   4.999   6.910   7.981 -0.3480 -0.6275 -0.5736
13637SOL     OW42649   3.966   1.004   0.606 -0.1173  0.1820 -0.1746
13637SOL    HW142650   4.002   1.002   0.694 -1.4804 -0.4796  0.3962
13637SOL    HW242651   4.036   1.042   0.552  0.5381  1.0687  1.2593
13638SOL     OW42652   8.472   8.580   2.682  0.3466  0.3101  0.2389
13638SOL    HW142653   8.473   8.643   2.755  0.8142  0.9768 -0.3295
13638SOL    HW242654   8.485   8.495   2.724 -2.0793  0.3587  1.2227
13639SOL     OW42655   2.286   1.722   2.079 -0.5394  0.1954  0.1515
13639SOL    HW142656   2.195   1.704   2.056 -0.8465  0.8241  0.8354
13639SOL    HW242657   2.318   1.776   2.007 -0.6256 -0.2384 -0.2186
13640SOL     OW42658   7.644   0.214   3.977 -0.2601  0.5150  0.0597
13640SOL    HW142659   7.595   0.285   3.935 -0.1150  0.3291 -0.4268
13640SOL    HW242660   7.646   0.144   3.912  1.7993  0.9878 -0.4725
13641SOL     OW42661   4.294   2.043   6.209  0.1950  0.5184  0.5880
13641SOL    HW142662   4.286   2.136   6.190 -0.8813  0.3159 -0.0326
13641SOL    HW242663   4.222   2.024   6.269  0.3652  0.0739  0.6525
13642SOL     OW42664   9.176   1.343   6.003  0.4604  0.0123  0.3015
13642SOL    HW142665   9.109   1.396   5.959  1.4412 -0.7731 -2.3598
13642SOL    HW242666   9.241   1.406   6.034  0.3368  0.5383 -0.4984
13643SOL     OW42667   7.193   5.237   2.037  0.2737  0.2484  0.0109
13643SOL    HW142668   7.184   5.170   1.969  2.1441 -1.0293  0.9295
13643SOL    HW242669   7.148   5.199   2.113  1.6766 -0.2027  0.6508
13644SOL     OW42670   7.286   3.332   9.456 -0.2537 -0.3172 -0.2373
13644SOL    HW142671   7.353   3.312   9.521 -0.2823 -1.0962 -0.4446
13644SOL    HW242672   7.272   3.250   9.409  0.1124  0.3553 -1.5667
13645SOL     OW42673   1.574   2.199   0.955  0.1884  0.6402 -0.2424
13645SOL    HW142674   1.613   2.254   1.022  2.2200  0.2876 -1.0691
13645SOL    HW242675   1.487   2.236   0.941  0.3787  1.7749  1.3308
13646SOL     OW42676   2.927   7.424   2.980 -0.0151  0.5622  0.4909
13646SOL    HW142677   2.902   7.484   2.910  0.0334 -0.2196 -0.2111
13646SOL    HW242678   2.936   7.339   2.937 -0.2399  0.0136  1.4998
13647SOL     OW42679   4.535   2.592   7.502  0.2959 -0.7299  0.1566
13647SOL    HW142680   4.505   2.672   7.459  1.3527 -0.6981 -0.5613
13647SOL    HW242681   4.496   2.596   7.590 -0.9306 -0.2091 -0.3817
13648SOL     OW42682   8.385   2.519   2.767 -0.1826 -0.4313  0.2178
13648SOL    HW142683   8.464   2.569   2.786 -0.5500 -0.3555  1.6286
13648SOL    HW242684   8.381   2.452   2.835 -0.1241 -1.9031 -1.1844
13649SOL     OW42685   0.789   0.594   1.381  0.2549 -0.1673 -0.2505
13649SOL    HW142686   0.711   0.582   1.435  1.5749 -0.8123  1.6330
13649SOL    HW242687   0.777   0.535   1.307 -0.2509 -1.6881  0.9805
13650SOL     OW42688   6.068   3.545   6.502  0.0807 -0.4103 -0.4480
13650SOL    HW142689   5.986   3.497   6.507  0.0770 -0.5020 -1.3082
13650SOL    HW242690   6.063   3.609   6.573  0.3542 -2.0751  1.1477
13651SOL     OW42691   4.489   6.189   4.182 -0.4915  0.3791  0.0871
13651SOL    HW142692   4.534   6.111   4.213 -2.7087 -0.8723  0.3665
13651SOL    HW242693   4.396   6.173   4.201 -1.1286  2.6923 -0.6807
13652SOL     OW42694   9.444   5.485   1.793  0.1646 -0.3386  0.3027
13652SOL    HW142695   9.499   5.475   1.871  1.5753 -0.2591 -0.6569
13652SOL    HW242696   9.442   5.580   1.777 -0.1118 -0.3568  0.2190
13653SOL     OW42697   9.401   5.882   6.013 -0.0145  0.5317  0.3760
13653SOL    HW142698   9.399   5.972   6.044 -1.1248  0.2139  1.2898
13653SOL    HW242699   9.494   5.860   6.008  0.2527  1.6247  0.4335
13654SOL     OW42700   9.327   5.782   5.374  0.3525  0.1639  0.9301
13654SOL    HW142701   9.235   5.792   5.398  0.5472  1.9086  1.0296
13654SOL    HW242702   9.373   5.850   5.423  1.5609 -0.0452  0.1313
13655SOL     OW42703   2.941   4.648   7.855 -0.1967  0.1107 -0.2675
13655SOL    HW142704   2.856   4.684   7.880  0.1807  0.0894  1.1557
13655SOL    HW242705   3.003   4.718   7.875  0.2703 -0.4134  0.1515
13656SOL     OW42706   8.919   7.547   9.481 -0.3651 -0.1791  0.4409
13656SOL    HW142707   8.974   7.492   9.537  1.3999  1.4416  0.3880
13656SOL    HW242708   8.857   7.486   9.441  0.3862 -1.8432  1.6969
13657SOL     OW42709   0.521   6.964   5.238 -0.4869 -0.2394 -0.5553
13657SOL    HW142710   0.559   7.000   5.318 -0.1917  0.1743 -0.8772
13657SOL    HW242711   0.443   6.917   5.268  0.5389 -1.5496  0.1866
13658SOL     OW42712   7.374   7.884   5.856 -0.9716  0.7692 -0.3879
13658SOL    HW142713   7.388   7.879   5.951 -1.8730 -0.2804 -0.2901
13658SOL    HW242714   7.457   7.914   5.821  1.1902 -3.6514  0.2797
13659SOL     OW42715   4.805   5.253   5.554  0.1943 -0.3432  0.2669
13659SOL    HW142716   4.788   5.173   5.503  1.2196  0.2790 -1.1314
13659SOL    HW242717   4.898   5.271   5.540  0.3726  0.2006  1.9224
13660SOL     OW42718   1.035   2.886   2.374 -0.0710  0.1301 -0.3560
13660SOL    HW142719   1.093   2.934   2.315 -0.5758  0.4876 -0.5728
13660SOL    HW242720   0.967   2.850   2.316  0.9838 -1.9667 -0.3982
13661SOL     OW42721   0.109   1.720   1.709  0.2526 -0.0806 -0.9129
13661SOL    HW142722   0.019   1.720   1.677 -0.1432  1.4440  0.1077
13661SOL    HW242723   0.159   1.766   1.642 -0.2776  1.6373 -0.1734
13662SOL     OW42724   0.778   8.999   2.914  0.0340  0.2005 -0.5476
13662SOL    HW142725   0.799   8.934   2.981 -0.6282  1.4076  0.8825
13662SOL    HW242726   0.862   9.040   2.893 -0.0858  1.8274  1.7604
13663SOL     OW42727   7.761   1.879   0.787  0.7948 -0.1686  0.3910
13663SOL    HW142728   7.835   1.832   0.823 -0.0223 -0.6314  1.5227
13663SOL    HW242729   7.742   1.948   0.851 -1.3179 -1.6376  1.4816
13664SOL     OW42730   7.122   0.068   0.812 -0.0137  0.0289 -0.2403
13664SOL    HW142731   7.129  -0.008   0.870 -0.4743  0.0545 -0.1439
13664SOL    HW242732   7.046   0.116   0.845  1.7240  1.9007  1.2979
13665SOL     OW42733   3.632   6.436   5.055  0.4320 -0.7170 -0.0803
13665SOL    HW142734   3.649   6.433   5.149  0.9337 -0.5441 -0.1582
13665SOL    HW242735   3.635   6.344   5.027  0.5789 -0.7441  0.0246
13666SOL     OW42736   6.039   5.426   4.552  0.2096  0.4332 -0.1723
13666SOL    HW142737   6.045   5.468   4.466 -1.0570 -2.2909 -1.7424
13666SOL    HW242738   5.976   5.479   4.600 -0.7071  0.8548 -1.7556
13667SOL     OW42739   2.047   6.956   8.841 -0.1679  0.0436 -0.0421
13667SOL    HW142740   2.072   7.034   8.792  0.6099 -0.0947  0.1096
13667SOL    HW242741   2.035   6.888   8.774 -0.2428  0.1403 -0.1268
13668SOL     OW42742   7.150   1.922   9.455  0.4991  0.1636 -0.1814
13668SOL    HW142743   7.170   1.965   9.372  1.7999  2.0329  1.0033
13668SOL    HW242744   7.066   1.958   9.481  0.0501 -0.4871 -0.7023
13669SOL     OW42745   6.436   4.074   9.385  0.1028  0.0889 -0.4293
13669SOL    HW142746   6.451   4.016   9.310  0.4263 -0.4578  0.0472
13669SOL    HW242747   6.348   4.109   9.371  0.2332  0.1404 -1.1598
13670SOL     OW42748   8.141   9.405   5.390  0.0201  0.0797 -0.0139
13670SOL    HW142749   8.118   9.315   5.414  0.4008 -0.2398 -0.7827
13670SOL    HW242750   8.060   9.441   5.352  0.4440 -0.7013 -1.7670
13671SOL     OW42751   3.339   5.047   4.101 -1.0580  0.3335 -0.0112
13671SOL    HW142752   3.340   4.954   4.078 -1.8430  0.4268 -0.4886
13671SOL    HW242753   3.245   5.068   4.107 -0.8955  0.7417  1.5619
13672SOL     OW42754   6.753   2.373   8.854 -0.0715  0.1524 -0.4153
13672SOL    HW142755   6.786   2.293   8.895 -0.0946 -0.6278 -1.8601
13672SOL    HW242756   6.682   2.402   8.912  1.1232  0.1742  1.1015
13673SOL     OW42757   1.314   6.065   7.877  0.2661 -0.3156  0.1916
13673SOL    HW142758   1.363   6.084   7.958  1.7580 -0.5342 -0.6215
13673SOL    HW242759   1.380   6.031   7.817 -0.8767 -0.4319 -1.0370
13674SOL     OW42760   9.114   0.853   6.818 -0.1987 -0.1033 -0.0026
13674SOL    HW142761   9.060   0.840   6.896 -0.0920  0.8579  0.2409
13674SOL    HW242762   9.056   0.895   6.755  0.0413  0.2155 -0.0143
13675SOL     OW42763   9.324   1.529   8.079 -0.4271 -0.0060  0.4326
13675SOL    HW142764   9.341   1.518   7.985  1.3937  0.9708  0.6111
13675SOL    HW242765   9.345   1.444   8.118 -0.9561 -0.3416  0.0049
13676SOL     OW42766   9.310   9.343   0.382  0.1091  0.0220  0.0482
13676SOL    HW142767   9.281   9.384   0.464  1.4907 -2.3484  1.8792
13676SOL    HW242768   9.236   9.291   0.353  0.0947 -0.3234  0.6785
13677SOL     OW42769   6.682   9.602   0.906 -0.4845  0.8338 -0.4501
13677SOL    HW142770   6.693   9.582   0.998  0.6310  0.1675 -0.7121
13677SOL    HW242771   6.593   9.636   0.899 -0.5258  1.0333  0.8851
13678SOL     OW42772   6.147   4.238   2.014  0.7840 -0.0229 -0.1685
13678SOL    HW142773   6.205   4.182   2.065 -0.1578  1.0424  2.1900
13678SOL    HW242774   6.077   4.180   1.985  1.9058 -0.8802 -1.3486
13679SOL     OW42775   4.884   3.355   4.821 -0.2672  0.2634  0.0032
13679SOL    HW142776   4.887   3.377   4.728 -1.3372  1.6882  0.2618
13679SOL    HW242777   4.943   3.419   4.862  1.2480 -1.2037  0.2039
13680SOL     OW42778   4.555   0.891   4.799  0.1496 -0.4483  0.3709
13680SOL    HW142779   4.507   0.809   4.792 -1.8066  0.5338  1.4349
13680SOL    HW242780   4.647   0.864   4.805 -0.3614 -2.4874 -0.1560
13681SOL     OW42781   1.141   3.028   1.549  0.1068  0.4967  0.4128
13681SOL    HW142782   1.159   2.967   1.620  0.1300  0.7223  0.6019
13681SOL    HW242783   1.047   3.021   1.534 -0.0950  1.2650  1.2249
13682SOL     OW42784   7.196   2.438   6.412 -0.1807  0.3871  0.0433
13682SOL    HW142785   7.173   2.372   6.477 -1.6175  1.5100  0.7382
13682SOL    HW242786   7.160   2.520   6.447  4.1402  2.2530  0.7881
13683SOL     OW42787   4.860   1.897   0.121 -0.1096 -0.1488  0.2776
13683SOL    HW142788   4.814   1.873   0.040 -1.1033 -0.4945  0.9245
13683SOL    HW242789   4.877   1.991   0.112  0.2401 -0.2855 -0.5461
13684SOL     OW42790   2.994   2.600   2.526  0.7977  0.4097 -0.4136
13684SOL    HW142791   2.975   2.518   2.480 -0.7948  0.5068 -0.0051
13684SOL    HW242792   3.086   2.594   2.549  1.1933 -0.4052 -2.0649
13685SOL     OW42793   7.212   6.698   2.846  0.1066 -0.0743  0.0189
13685SOL    HW142794   7.263   6.736   2.919 -0.1630  2.7444 -1.1305
13685SOL    HW242795   7.121   6.719   2.867 -0.0987 -0.4272 -0.5057
13686SOL     OW42796   2.488   4.917   3.197 -0.3223 -0.1054  0.0630
13686SOL    HW142797   2.488   4.824   3.218  1.1724  0.2714  2.0802
13686SOL    HW242798   2.555   4.927   3.129 -1.2428 -0.6220 -0.9374
13687SOL     OW42799   6.414   1.972   9.011 -0.1675 -0.0441  0.4036
13687SOL    HW142800   6.333   2.001   9.053 -0.8450 -0.4284 -0.6005
13687SOL    HW242801   6.386   1.941   8.925  0.8797 -1.3088  0.4994
13688SOL     OW42802   4.668   4.295   8.503  0.2797  0.3049  0.2935
13688SOL    HW142803   4.703   4.233   8.439 -0.9911 -0.3210  0.1675
13688SOL    HW242804   4.678   4.251   8.588 -1.6531 -0.6162  0.0927
13689SOL     OW42805   3.610   4.587   4.806  0.3207 -0.1915  0.2785
13689SOL    HW142806   3.705   4.579   4.798  0.9007  1.6578  3.6091
13689SOL    HW242807   3.589   4.672   4.768 -0.4314 -1.4498 -2.3513
13690SOL     OW42808   9.048   9.232   6.647 -0.4564  0.0954 -0.4108
13690SOL    HW142809   9.144   9.230   6.641 -0.4349  1.3475 -0.6431
13690SOL    HW242810   9.030   9.256   6.737 -0.5205  1.5205 -0.7911
13691SOL     OW42811   6.643   8.581   7.310  0.7072  0.2933 -0.1270
13691SOL    HW142812   6.600   8.546   7.232  0.4346 -0.3158  0.2828
13691SOL    HW242813   6.587   8.653   7.338  1.1385  0.9175 -0.8395
13692SOL     OW42814   3.261   8.708   0.066  0.0094 -0.2408  0.3435
13692SOL    HW142815   3.197   8.708   0.137 -1.1097 -1.5413 -0.6034
13692SOL    HW242816   3.227   8.772   0.004  0.0610 -0.3453  0.2078
13693SOL     OW42817   1.976   3.671   0.172 -0.0372 -0.5098 -0.5333
13693SOL    HW142818   1.987   3.744   0.234 -0.2709 -1.5439  0.7642
13693SOL    HW242819   2.009   3.706   0.089  0.1682  0.9648  0.1254
13694SOL     OW42820   4.486   3.677   5.097  0.0216  0.1706  0.0635
13694SOL    HW142821   4.422   3.695   5.165 -0.8158  0.1088 -0.7001
13694SOL    HW242822   4.527   3.762   5.080 -0.4537  0.3786 -0.0464
13695SOL     OW42823   8.280   1.408   1.670 -0.6473  0.0178  0.8202
13695SOL    HW142824   8.316   1.497   1.676  0.7196 -0.4216 -0.4451
13695SOL    HW242825   8.191   1.421   1.637 -1.3772  1.0505  2.9666
13696SOL     OW42826   5.271   5.040   3.508 -0.1820  0.0577  0.1149
13696SOL    HW142827   5.243   5.039   3.600 -1.4119 -1.7896 -0.2332
13696SOL    HW242828   5.195   5.072   3.460 -0.8141 -2.2462 -0.5517
13697SOL     OW42829   5.118   6.481   7.311  0.1327 -0.6088 -0.0356
13697SOL    HW142830   5.133   6.448   7.400  1.0428 -0.4086 -0.1105
13697SOL    HW242831   5.084   6.405   7.263  0.3097 -0.9081  0.3091
13698SOL     OW42832   7.022   6.143   7.130  0.3658 -0.0837  0.6915
13698SOL    HW142833   6.935   6.169   7.100  0.1904 -1.4168 -0.0091
13698SOL    HW242834   7.008   6.067   7.186  0.8931  1.1350  2.5934
13699SOL     OW42835   2.854   7.048   1.088  0.7482 -0.2395 -0.2120
13699SOL    HW142836   2.923   7.094   1.136  0.5543  0.1450 -0.2998
13699SOL    HW242837   2.804   7.117   1.045  0.9676 -0.5883 -1.0400
13700SOL     OW42838   0.706   8.078   6.208  0.0733  0.5094 -0.1074
13700SOL    HW142839   0.636   8.052   6.269  0.1793 -0.6845 -0.4765
13700SOL    HW242840   0.660   8.094   6.125 -0.0258  1.8122  0.1731
13701SOL     OW42841   4.714   8.329   4.763  0.3279 -0.3380 -0.4627
13701SOL    HW142842   4.780   8.263   4.745  2.0868  0.7745  1.4556
13701SOL    HW242843   4.718   8.342   4.858 -0.4017  2.0364 -0.6721
13702SOL     OW42844   6.180   4.496   8.832 -0.4614  0.3041 -0.0923
13702SOL    HW142845   6.155   4.419   8.781 -0.1827 -0.9526  1.5803
13702SOL    HW242846   6.221   4.555   8.769 -1.3194 -0.6078 -1.5414
13703SOL     OW42847   1.994   3.217   2.305 -0.3269  0.1628 -0.7246
13703SOL    HW142848   2.045   3.262   2.372 -1.8988 -0.1077  0.7281
13703SOL    HW242849   2.056   3.156   2.264  0.5752  0.0271  0.7730
13704SOL     OW42850   1.942   8.308   3.152 -0.2268 -0.1677 -0.6093
13704SOL    HW142851   1.874   8.352   3.203 -0.5380  1.4623 -2.3334
13704SOL    HW242852   2.024   8.349   3.179 -0.1343 -0.7737  0.0606
13705SOL     OW42853   1.547   6.433   5.038  0.0327  0.1348  0.9480
13705SOL    HW142854   1.563   6.373   4.965  1.6201  1.4916  0.1180
13705SOL    HW242855   1.576   6.386   5.115  0.8435 -0.3378  0.3649
13706SOL     OW42856   6.836   4.272   2.760 -0.1045  0.3338 -0.4802
13706SOL    HW142857   6.879   4.194   2.726 -0.4501  0.5416 -1.4239
13706SOL    HW242858   6.848   4.338   2.692  0.2415  1.1376  0.3312
13707SOL     OW42859   4.326   4.093   4.664  0.0190  0.0232 -0.0493
13707SOL    HW142860   4.342   4.185   4.683 -0.2697 -0.1487  1.1017
13707SOL    HW242861   4.233   4.080   4.685 -0.3058 -0.2258 -1.5156
13708SOL     OW42862   4.991   7.338   7.095 -0.5653 -0.2416  0.7668
13708SOL    HW142863   4.973   7.245   7.076 -2.1015  0.0292  0.7071
13708SOL    HW242864   5.079   7.339   7.131  0.4361 -1.4423 -1.4366
13709SOL     OW42865   8.271   6.205   2.444 -0.2798  0.0619 -0.0808
13709SOL    HW142866   8.297   6.284   2.490 -1.1971  0.6454 -0.5217
13709SOL    HW242867   8.346   6.146   2.452  0.2226  0.7845  0.6783
13710SOL     OW42868   8.686   2.039   1.374  0.4356  0.4675 -0.3320
13710SOL    HW142869   8.672   2.124   1.416  0.6648  1.0663 -1.4479
13710SOL    HW242870   8.740   1.991   1.436 -0.0330  0.9728  0.4975
13711SOL     OW42871   8.325   5.746   4.400 -0.0227 -0.5410  0.3860
13711SOL    HW142872   8.310   5.657   4.430 -2.0379 -0.4788 -0.3128
13711SOL    HW242873   8.263   5.759   4.328  1.0505  1.0391 -0.3317
13712SOL     OW42874   7.525   3.332   0.028  0.1441  0.3886 -0.2376
13712SOL    HW142875   7.602   3.322   0.083  0.4841 -1.7344 -1.0068
13712SOL    HW242876   7.454   3.353   0.089  0.9000  0.1121  0.7600
13713SOL     OW42877   6.063   2.161   6.623  0.1948  0.9335  0.5047
13713SOL    HW142878   6.057   2.068   6.646 -0.4939  0.8311 -0.0525
13713SOL    HW242879   6.049   2.164   6.528  0.5534  1.5772  0.4619
13714SOL     OW42880   4.823   1.520   4.180  0.0434  0.4466  0.1899
13714SOL    HW142881   4.784   1.544   4.264  1.7915  4.0588  0.1662
13714SOL    HW242882   4.906   1.479   4.202  0.0260  0.4423  0.2460
13715SOL     OW42883   3.016   5.251   8.136 -0.2477  0.3599 -0.5183
13715SOL    HW142884   3.082   5.203   8.086  0.4908  1.8079 -0.9781
13715SOL    HW242885   2.933   5.224   8.097 -0.1242 -2.4166  0.8374
13716SOL     OW42886   3.702   7.702   3.025 -0.6376 -1.4053  0.5353
13716SOL    HW142887   3.719   7.702   2.930 -2.5889  0.0856  0.1247
13716SOL    HW242888   3.740   7.785   3.055  0.3348 -2.0596  1.1758
13717SOL     OW42889   0.660   3.567   8.220  0.5011  0.4206  0.0435
13717SOL    HW142890   0.659   3.472   8.234  0.1624  0.3797 -0.2486
13717SOL    HW242891   0.752   3.588   8.206  0.4043 -0.1590 -1.8092
13718SOL     OW42892   1.436   6.584   3.147 -0.0757  0.8139 -0.3249
13718SOL    HW142893   1.403   6.496   3.136 -0.7810  1.0377 -0.0444
13718SOL    HW242894   1.358   6.640   3.148  0.1474  1.1837  1.9784
13719SOL     OW42895   7.076   3.326   2.196 -0.1978 -0.3690  1.1274
13719SOL    HW142896   7.171   3.327   2.202 -0.0779 -1.0721 -0.3177
13719SOL    HW242897   7.052   3.417   2.178  0.3911 -0.5426 -0.7003
13720SOL     OW42898   5.832   7.730   5.390 -0.0959  0.2659  0.5609
13720SOL    HW142899   5.773   7.794   5.350  1.5974  0.5214 -1.7379
13720SOL    HW242900   5.919   7.770   5.385  0.8793 -1.7692 -0.0376
13721SOL     OW42901   3.754   6.475   3.506 -0.3721 -0.9311 -0.2375
13721SOL    HW142902   3.722   6.524   3.430  0.0122 -0.9257 -0.3982
13721SOL    HW242903   3.677   6.462   3.560 -0.5418 -0.4338 -0.3550
13722SOL     OW42904   2.130   3.664   4.722 -0.4112  0.3912  0.1345
13722SOL    HW142905   2.074   3.741   4.712 -0.2415  0.7827  1.9089
13722SOL    HW242906   2.075   3.590   4.698 -1.9005  0.7093  2.3359
13723SOL     OW42907   7.719   5.909   5.033 -0.3720  0.1072  0.5886
13723SOL    HW142908   7.703   5.968   5.106 -1.7730 -1.3353  1.5153
13723SOL    HW242909   7.660   5.939   4.964 -1.4632 -0.4940  1.2413
13724SOL     OW42910   1.799   6.429   5.401 -0.2572 -0.5650 -0.0016
13724SOL    HW142911   1.843   6.355   5.359  1.2546  0.9150 -1.1568
13724SOL    HW242912   1.706   6.410   5.394  0.0871 -1.9680 -0.9875
13725SOL     OW42913   8.059   1.754   3.643  0.5401  0.0373 -0.0634
13725SOL    HW142914   8.017   1.758   3.730  0.7790  1.2257  0.0091
13725SOL    HW242915   8.069   1.660   3.626  0.5753 -0.2130  1.2373
13726SOL     OW42916   7.348   7.819   0.083  0.0011 -0.7744  0.6723
13726SOL    HW142917   7.386   7.762   0.150  0.3243  0.3760  1.5017
13726SOL    HW242918   7.396   7.901   0.092 -1.5735  0.1938  0.6630
13727SOL     OW42919   3.926   9.267   6.530  0.0467 -0.1186 -0.5769
13727SOL    HW142920   3.875   9.341   6.498  0.0563  0.2800  0.3005
13727SOL    HW242921   4.013   9.280   6.494 -0.2300 -0.3016 -1.3227
13728SOL     OW42922   9.050   9.135   4.458  0.3219  0.0697 -0.4088
13728SOL    HW142923   9.003   9.109   4.378  1.4606 -1.0116 -0.7557
13728SOL    HW242924   9.130   9.082   4.457  2.0720  2.5185 -0.3477
13729SOL     OW42925   7.854   0.347   3.491 -0.3014  0.0169  0.8102
13729SOL    HW142926   7.862   0.330   3.397  2.6201  1.5705  0.6704
13729SOL    HW242927   7.785   0.287   3.520 -0.6951 -1.1338 -2.1491
13730SOL     OW42928   6.014   4.625   6.733  0.2911  0.7412  0.1761
13730SOL    HW142929   6.020   4.560   6.803  0.7856  0.3206 -0.2411
13730SOL    HW242930   6.045   4.706   6.772 -2.0663  1.2165  1.2564
13731SOL     OW42931   0.178   3.942   8.064  0.1055 -0.0614  0.4645
13731SOL    HW142932   0.233   4.005   8.111  0.1023  1.3990 -1.3800
13731SOL    HW242933   0.187   3.861   8.114  2.4650  0.6150  1.2610
13732SOL     OW42934   8.910   6.647   9.322  0.3345 -0.2183  0.8226
13732SOL    HW142935   8.964   6.636   9.400  1.2060  0.6306  0.3686
13732SOL    HW242936   8.960   6.708   9.267 -0.1580 -0.9682 -0.4917
13733SOL     OW42937   7.819   6.213   7.010 -0.0572 -0.0454 -0.4717
13733SOL    HW142938   7.841   6.295   6.965 -0.3660  0.5056  0.3643
13733SOL    HW242939   7.725   6.203   6.997  0.0146 -0.3881 -0.7544
13734SOL     OW42940   3.825   6.404   4.531 -0.2448  0.5454 -0.4063
13734SOL    HW142941   3.825   6.396   4.627 -0.6567 -1.1381 -0.5130
13734SOL    HW242942   3.767   6.334   4.502  0.3621  0.6474 -1.9305
13735SOL     OW42943   2.465   0.203   0.701 -0.2060  0.7210  0.7611
13735SOL    HW142944   2.442   0.184   0.610  0.6296  1.6288  0.3412
13735SOL    HW242945   2.526   0.276   0.695 -0.4172  1.0242  2.0827
13736SOL     OW42946   6.706   1.909   3.820 -0.4831 -0.2839  0.3357
13736SOL    HW142947   6.781   1.849   3.819 -0.1413  0.1269  0.5486
13736SOL    HW242948   6.744   1.994   3.794 -0.7438  0.0699  1.0828
13737SOL     OW42949   3.322   4.709   1.519 -0.0327  0.1817  0.5036
13737SOL    HW142950   3.412   4.719   1.549  0.3873 -1.7678  0.0270
13737SOL    HW242951   3.327   4.714   1.424 -0.1996 -1.2576  0.4014
13738SOL     OW42952   9.221   1.847   5.950  0.4394 -0.5754 -0.2319
13738SOL    HW142953   9.174   1.921   5.911  1.8890  0.2450 -0.5290
13738SOL    HW242954   9.313   1.872   5.943  0.8653 -1.4243  1.6945
13739SOL     OW42955   0.405   1.797   6.202 -0.3036 -0.0116 -0.2136
13739SOL    HW142956   0.380   1.707   6.223 -0.1235  0.2155  1.0835
13739SOL    HW242957   0.418   1.797   6.107  0.4453 -1.5329 -0.1414
13740SOL     OW42958   6.262   6.127   7.562 -0.1305 -0.2859 -0.2353
13740SOL    HW142959   6.273   6.107   7.469  1.6783 -2.4257  0.3598
13740SOL    HW242960   6.323   6.198   7.579 -0.5649  0.2066 -0.6809
13741SOL     OW42961   5.240   3.399   5.011  0.8956 -0.2753  0.4028
13741SOL    HW142962   5.207   3.440   4.931  0.0615  0.8127  1.2702
13741SOL    HW242963   5.182   3.431   5.080 -0.7154 -3.9533  1.0156
13742SOL     OW42964   5.299   9.435   4.300  0.1550  0.2514 -0.3210
13742SOL    HW142965   5.244   9.427   4.377 -0.4733  0.5307 -0.7312
13742SOL    HW242966   5.347   9.517   4.312 -1.1592  1.1474 -0.9732
13743SOL     OW42967   4.476   3.249   4.589  0.1918  0.2254 -0.5603
13743SOL    HW142968   4.494   3.191   4.664 -0.1973  2.1297  1.0794
13743SOL    HW242969   4.553   3.239   4.533  1.3236  0.0260  0.9473
13744SOL     OW42970   3.019   7.566   2.124  0.6493  0.2543 -0.0054
13744SOL    HW142971   3.019   7.473   2.145 -1.7238 -0.1490 -1.4380
13744SOL    HW242972   2.984   7.608   2.202 -0.6145 -0.3521 -0.2240
13745SOL     OW42973   7.368   2.646   2.950  0.2409 -0.0911 -0.4234
13745SOL    HW142974   7.305   2.672   3.018  2.1543  1.5366  0.8346
13745SOL    HW242975   7.426   2.722   2.941  0.3813 -0.4648 -3.5440
13746SOL     OW42976   7.959   3.165   4.555  0.6353 -0.0523  0.2874
13746SOL    HW142977   7.958   3.205   4.467  0.3451 -0.5504  0.0622
13746SOL    HW242978   7.986   3.236   4.613  2.1959 -0.0690 -0.3774
13747SOL     OW42979   3.932   2.985   2.077  0.4900  0.2890 -0.1841
13747SOL    HW142980   4.023   2.991   2.108 -0.1425  1.8288  1.5635
13747SOL    HW242981   3.915   3.070   2.036 -0.9413  1.1497  1.9967
13748SOL     OW42982   7.630   1.264   3.923  0.0264 -0.1990 -0.4741
13748SOL    HW142983   7.551   1.265   3.870 -0.5928 -0.8640  0.3913
13748SOL    HW242984   7.700   1.240   3.862 -0.7729 -1.6545 -0.8717
13749SOL     OW42985   8.434   2.914   6.245  0.0956  0.2111  0.3806
13749SOL    HW142986   8.377   2.969   6.191  0.1417  1.6160  1.7012
13749SOL    HW242987   8.374   2.870   6.305  0.2427  0.2447  0.5501
13750SOL     OW42988   2.550   8.559   0.923 -0.1572  0.1267 -0.2775
13750SOL    HW142989   2.609   8.499   0.878 -0.2984  1.7666 -2.8766
13750SOL    HW242990   2.472   8.507   0.942  0.9237 -1.2840  0.5316
13751SOL     OW42991   6.648   9.375   5.894  0.0090  0.0176 -0.2636
13751SOL    HW142992   6.615   9.295   5.935 -0.2252 -0.0458 -0.5665
13751SOL    HW242993   6.718   9.346   5.836  0.2486  0.0905 -0.0094
13752SOL     OW42994   8.646   2.380   2.655  0.3787 -0.0357 -0.2086
13752SOL    HW142995   8.721   2.408   2.708 -0.1020  2.3037 -0.6456
13752SOL    HW242996   8.642   2.443   2.583 -1.6616 -0.4418 -0.5258
13753SOL     OW42997   7.257   9.481   8.797 -0.0195 -0.3486  0.0579
13753SOL    HW142998   7.301   9.476   8.881 -1.8052 -1.0164  1.0088
13753SOL    HW242999   7.165   9.497   8.819 -0.7465 -1.7472 -1.6952
13754SOL     OW43000   1.512   4.996   6.222  0.1594 -0.3706 -0.4564
13754SOL    HW143001   1.546   5.040   6.300 -0.4259 -1.2291  0.2975
13754SOL    HW243002   1.582   5.006   6.157 -0.0417  1.8633 -0.4123
13755SOL     OW43003   2.324   4.246   2.009  0.0665  0.1950 -0.0856
13755SOL    HW143004   2.417   4.269   2.014  0.5978 -1.8271  0.2545
13755SOL    HW243005   2.323   4.157   1.973 -1.6215 -0.5421  1.6061
13756SOL     OW43006   7.484   3.697   6.325  0.4082  0.3361 -0.3814
13756SOL    HW143007   7.413   3.762   6.321  2.7524  3.0730 -1.3364
13756SOL    HW243008   7.530   3.717   6.406 -0.2233 -1.8552  0.5691
13757SOL     OW43009   4.747   3.747   9.035  0.3775 -0.0234 -0.1209
13757SOL    HW143010   4.729   3.736   8.941 -2.1715  0.7590  0.1809
13757SOL    HW243011   4.678   3.697   9.078 -0.4409  2.1443  1.2732
13758SOL     OW43012   1.740   2.470   9.297 -0.0479 -0.0357 -0.0142
13758SOL    HW143013   1.723   2.381   9.266  0.6093 -1.0103  2.2522
13758SOL    HW243014   1.657   2.499   9.335 -0.0836  0.0780 -0.1778
13759SOL     OW43015   3.354   1.323   3.355 -0.1545 -0.1823  0.4015
13759SOL    HW143016   3.308   1.404   3.375  0.4173  0.1688  0.3190
13759SOL    HW243017   3.333   1.305   3.263 -3.6484 -2.3653  1.4423
13760SOL     OW43018   3.818   5.494   7.884  0.4687 -0.1944  0.1130
13760SOL    HW143019   3.763   5.416   7.880  1.2366 -0.8778  1.8023
13760SOL    HW243020   3.776   5.557   7.825 -0.6199 -1.5952 -0.6511
13761SOL     OW43021   4.422   6.770   6.661 -0.0291  0.1072 -0.2084
13761SOL    HW143022   4.438   6.862   6.643  0.0231  0.2934  0.7604
13761SOL    HW243023   4.488   6.724   6.608  0.3413  0.6484 -0.2260
13762SOL     OW43024   2.374   2.476   2.559  0.1410  0.0508 -0.2648
13762SOL    HW143025   2.417   2.559   2.580 -1.1702  0.8523 -0.5830
13762SOL    HW243026   2.446   2.416   2.539  1.1558  0.8690  0.7866
13763SOL     OW43027   0.894   0.201   2.091 -0.6612 -0.3220  0.6977
13763SOL    HW143028   0.953   0.193   2.166  0.6128  1.9644  0.0402
13763SOL    HW243029   0.814   0.238   2.129 -1.0251 -1.6823  1.3066
13764SOL     OW43030   9.333   1.602   3.033  0.1696 -0.3904 -0.5084
13764SOL    HW143031   9.294   1.546   2.966 -0.1470 -0.3252 -0.3826
13764SOL    HW243032   9.401   1.549   3.073 -1.3000 -1.3498  0.8261
13765SOL     OW43033   0.787   9.545   6.248 -0.0435 -0.5165  0.8951
13765SOL    HW143034   0.783   9.626   6.298  1.0780 -1.1701  2.1022
13765SOL    HW243035   0.697   9.513   6.247 -0.3684  0.3715  1.0061
13766SOL     OW43036   2.411   9.246   2.974  0.1854  0.2574 -0.1705
13766SOL    HW143037   2.331   9.220   2.928  0.2225 -1.5096  0.6717
13766SOL    HW243038   2.418   9.340   2.959 -1.1660  0.1651 -1.6168
13767SOL     OW43039   8.299   9.319   9.066  0.8964  0.4478  0.6017
13767SOL    HW143040   8.331   9.374   9.137  1.5400 -0.6289  1.1653
13767SOL    HW243041   8.329   9.362   8.986  2.1136  0.4733  1.0637
13768SOL     OW43042   2.586   5.647   3.812  0.2335  0.0723  0.6063
13768SOL    HW143043   2.639   5.708   3.863  0.1484  0.8187 -0.1920
13768SOL    HW243044   2.640   5.568   3.806 -1.0717 -1.4013  4.7635
13769SOL     OW43045   2.807   7.424   6.057 -0.6170  0.4324  0.0266
13769SOL    HW143046   2.837   7.384   5.975 -0.2575  0.0960  0.3212
13769SOL    HW243047   2.842   7.513   6.054  0.9651 -0.1349  0.6431
13770SOL     OW43048   4.541   7.222   1.353 -0.0048 -0.3404 -0.5503
13770SOL    HW143049   4.498   7.303   1.323  0.7921  0.7511  1.1281
13770SOL    HW243050   4.620   7.252   1.397  0.7986 -2.1259 -0.6916
13771SOL     OW43051   6.296   1.115   6.466  0.1059 -0.5388 -0.2988
13771SOL    HW143052   6.311   1.072   6.382 -0.6830 -0.7133 -0.3546
13771SOL    HW243053   6.383   1.146   6.493  0.1625  0.7133 -1.8135
13772SOL     OW43054   8.103   0.934   4.547 -0.0600 -0.0890  0.0459
13772SOL    HW143055   8.071   1.010   4.498 -0.2506 -0.7348 -0.8565
13772SOL    HW243056   8.062   0.942   4.633  0.5747  1.2651  0.2481
13773SOL     OW43057   9.162   3.433   7.948 -0.6422  0.2910  0.1678
13773SOL    HW143058   9.079   3.477   7.934 -0.6748  0.7187  1.5256
13773SOL    HW243059   9.138   3.345   7.977 -0.5796 -0.5031 -2.0418
13774SOL     OW43060   8.682   1.981   3.984  0.4554 -0.0640  0.1943
13774SOL    HW143061   8.703   1.965   4.076 -1.7569  0.3161  0.8444
13774SOL    HW243062   8.677   2.077   3.977  1.2191 -0.0686 -0.4872
13775SOL     OW43063   6.434   0.845   5.915 -0.0630 -0.0953  0.1638
13775SOL    HW143064   6.461   0.798   5.994 -1.3956  0.3870  0.9345
13775SOL    HW243065   6.398   0.778   5.858 -1.1517 -0.1689  0.9036
13776SOL     OW43066   8.224   1.076   1.059 -0.0481  0.6278  0.0801
13776SOL    HW143067   8.166   1.004   1.035  0.3905 -0.3042  1.6800
13776SOL    HW243068   8.272   1.096   0.979 -0.8539 -0.1934 -0.6383
13777SOL     OW43069   0.755   2.363   7.940  0.0484  0.1664 -0.2036
13777SOL    HW143070   0.734   2.307   8.015 -0.7487  0.8170  0.0878
13777SOL    HW243071   0.797   2.440   7.979 -0.6479  0.6481 -0.3784
13778SOL     OW43072   2.136   4.931   0.557 -0.0981 -0.2528 -0.7150
13778SOL    HW143073   2.052   4.966   0.528  0.0480  1.0698  0.3820
13778SOL    HW243074   2.173   4.889   0.479 -0.7320  1.1938 -1.8233
13779SOL     OW43075   4.299   6.323   7.828  0.0652  0.3415  0.3017
13779SOL    HW143076   4.318   6.363   7.743 -0.1356  2.1829  1.0873
13779SOL    HW243077   4.204   6.315   7.831  0.1685 -1.9514 -0.5736
13780SOL     OW43078   7.583   5.662   6.223 -0.6810 -0.3609 -0.2612
13780SOL    HW143079   7.534   5.719   6.164 -0.3849 -0.9304 -1.0786
13780SOL    HW243080   7.518   5.602   6.259 -0.7769 -0.3551 -0.4257
13781SOL     OW43081   5.954   7.931   2.013  0.5325  0.0638 -0.1191
13781SOL    HW143082   6.022   7.874   2.049 -0.0715 -1.7778 -1.7267
13781SOL    HW243083   5.922   7.980   2.088  0.3479 -2.5169  1.5902
13782SOL     OW43084   5.184   5.340   1.255  0.3748 -0.3176 -0.1821
13782SOL    HW143085   5.243   5.358   1.328  0.1891 -0.2160 -0.0548
13782SOL    HW243086   5.222   5.264   1.211  0.4885 -0.3781  0.0184
13783SOL     OW43087   2.783   0.146   3.241  0.6728 -0.1006  0.0582
13783SOL    HW143088   2.784   0.122   3.148  0.8432 -2.9557  0.7226
13783SOL    HW243089   2.752   0.068   3.286  0.5239  1.2365  2.4492
13784SOL     OW43090   9.580   7.749   1.716  0.0728  0.1052 -0.1495
13784SOL    HW143091   9.577   7.814   1.786  1.8023 -0.4602  0.5027
13784SOL    HW243092   9.674   7.735   1.700 -0.2649  0.2212 -2.6053
13785SOL     OW43093   0.907   3.755   8.539 -0.3440 -0.7232 -0.4561
13785SOL    HW143094   1.001   3.770   8.525 -0.0471 -0.7443  1.2885
13785SOL    HW243095   0.899   3.660   8.549 -0.4465 -0.6662  0.0226
13786SOL     OW43096   6.912   9.262   7.402  0.2833 -0.3449 -0.0440
13786SOL    HW143097   6.994   9.219   7.425  0.1718  0.4197  2.0188
13786SOL    HW243098   6.906   9.254   7.307  2.8685 -0.1806 -0.2908
13787SOL     OW43099   3.460   1.365   2.830  0.4378 -0.0181 -0.2229
13787SOL    HW143100   3.460   1.385   2.737  1.1842 -0.7673 -0.3958
13787SOL    HW243101   3.507   1.281   2.837  1.9528  0.8778  1.0107
13788SOL     OW43102   2.720   6.804   0.431 -0.1113  0.5773 -0.4110
13788SOL    HW143103   2.633   6.842   0.421 -0.1098  0.1528 -2.3052
13788SOL    HW243104   2.741   6.767   0.346  0.9638 -1.4075  0.6423
13789SOL     OW43105   7.435   1.823   1.485  0.0933 -0.4131  0.1400
13789SOL    HW143106   7.397   1.739   1.458  1.3212 -0.9285 -0.0510
13789SOL    HW243107   7.513   1.832   1.430 -0.0282  0.8726  0.1521
13790SOL     OW43108   7.897   4.844   4.228  0.0964 -0.6996  0.0376
13790SOL    HW143109   7.898   4.848   4.324 -1.6965  0.7419  0.0562
13790SOL    HW243110   7.979   4.886   4.202  0.8520 -1.5784  0.9209
13791SOL     OW43111   8.089   7.924   1.194 -0.0224 -0.1217  0.1659
13791SOL    HW143112   8.116   7.837   1.163  1.0687  1.2712 -3.1803
13791SOL    HW243113   7.993   7.917   1.203  0.1205 -1.8520  0.7559
13792SOL     OW43114   7.602   3.337   5.365 -0.1764 -0.0578 -0.2316
13792SOL    HW143115   7.585   3.374   5.279 -0.5416  0.5721  0.1041
13792SOL    HW243116   7.629   3.411   5.419  0.5416 -0.5284  0.0698
13793SOL     OW43117   1.204   4.498   0.643 -0.3816 -0.2178  0.3481
13793SOL    HW143118   1.141   4.427   0.627  1.2743 -1.6186 -0.1877
13793SOL    HW243119   1.196   4.514   0.737 -1.7842 -0.1113  0.2356
13794SOL     OW43120   4.625   6.792   2.565  0.3143  0.3833 -0.5814
13794SOL    HW143121   4.672   6.850   2.625 -0.6469 -1.3596  2.0904
13794SOL    HW243122   4.560   6.848   2.523  1.3650  1.7981 -0.3676
13795SOL     OW43123   0.303   2.194   6.650  1.1807  0.4573  0.3155
13795SOL    HW143124   0.256   2.252   6.591 -0.1260 -1.2217 -0.3671
13795SOL    HW243125   0.272   2.219   6.737  1.6098  1.5940  0.1687
13796SOL     OW43126   2.302   8.100   5.747 -0.4688  0.2273 -0.4135
13796SOL    HW143127   2.218   8.054   5.755 -0.5865  0.6767  1.3537
13796SOL    HW243128   2.367   8.030   5.745 -0.8896 -0.1794 -2.8953
13797SOL     OW43129   9.343   0.553   8.149  0.4736 -0.0346  0.2806
13797SOL    HW143130   9.362   0.639   8.112 -2.1103 -0.5710 -2.7454
13797SOL    HW243131   9.414   0.498   8.119  0.4256  0.3817 -0.6401
13798SOL     OW43132   3.136   2.485   4.711 -0.0044  0.1869  0.2797
13798SOL    HW143133   3.129   2.475   4.805 -0.7550  0.7491  0.2990
13798SOL    HW243134   3.214   2.436   4.686  0.1117 -0.0832  1.1702
13799SOL     OW43135   2.731   6.486   4.156  0.3008 -0.3006 -0.0509
13799SOL    HW143136   2.779   6.538   4.091 -1.1628  1.5925  0.2933
13799SOL    HW243137   2.666   6.437   4.104 -0.4390  0.7160 -0.1155
13800SOL     OW43138   1.755   5.539   3.024  0.2059  0.7320  0.0579
13800SOL    HW143139   1.801   5.456   3.012  3.6631  2.4856  0.0187
13800SOL    HW243140   1.761   5.583   2.939  0.6846  2.0308  0.7367
13801SOL     OW43141   9.449   4.117   7.029  0.2109  0.4399  0.1529
13801SOL    HW143142   9.501   4.133   6.950  0.9535  1.0996  0.7613
13801SOL    HW243143   9.358   4.126   6.999  0.4775  3.7818 -0.0639
13802SOL     OW43144   9.187   0.873   0.024 -0.3605 -0.0400  0.2363
13802SOL    HW143145   9.203   0.846  -0.067 -2.0535 -0.1836 -0.0589
13802SOL    HW243146   9.205   0.794   0.075 -0.6774 -0.3511 -0.1221
13803SOL     OW43147   6.272   8.192   5.273  0.0243 -0.1845  0.4460
13803SOL    HW143148   6.226   8.205   5.356 -0.7753 -0.6730  0.0875
13803SOL    HW243149   6.202   8.182   5.208  0.6415 -0.0647 -0.2500
13804SOL     OW43150   9.404   8.785   2.611 -0.0174 -0.3812  0.0986
13804SOL    HW143151   9.369   8.737   2.686  0.9925 -1.0267  0.1741
13804SOL    HW243152   9.448   8.718   2.558 -0.2908  0.1473 -0.8247
13805SOL     OW43153   3.218   8.300   6.122 -0.4122  0.5295 -0.6957
13805SOL    HW143154   3.288   8.279   6.184  0.8636  2.3035 -1.4720
13805SOL    HW243155   3.218   8.226   6.061 -0.3021 -0.2366  0.1971
13806SOL     OW43156   4.531   8.620   8.871 -0.3368 -0.6068  0.0396
13806SOL    HW143157   4.537   8.714   8.855 -0.8306 -0.3174  1.3987
13806SOL    HW243158   4.620   8.592   8.888 -0.2663 -0.2709  0.2220
13807SOL     OW43159   2.462   0.191   9.247 -0.1543 -0.0057 -0.0680
13807SOL    HW143160   2.464   0.096   9.255 -1.7650 -0.1349 -0.8960
13807SOL    HW243161   2.531   0.211   9.183  0.3411 -0.5809  0.2788
13808SOL     OW43162   2.367   1.785   3.650 -0.1058 -0.0525 -0.3012
13808SOL    HW143163   2.373   1.845   3.576 -0.2925  0.3326 -0.0093
13808SOL    HW243164   2.391   1.699   3.614  1.6459  0.4424 -0.3853
13809SOL     OW43165   0.249   5.915   6.671 -0.2251  0.2588 -0.1650
13809SOL    HW143166   0.284   5.856   6.738 -0.2355  0.8504  0.3689
13809SOL    HW243167   0.169   5.872   6.640 -0.5527  0.2779  0.6380
13810SOL     OW43168   5.850   1.270   7.918 -0.4710  0.1190 -0.4198
13810SOL    HW143169   5.816   1.346   7.965  0.6104  0.9472 -0.9242
13810SOL    HW243170   5.903   1.223   7.983 -0.3085  0.3669 -0.3700
13811SOL     OW43171   1.890   8.027   0.508  0.2249 -0.2732  0.2549
13811SOL    HW143172   1.979   8.026   0.471 -0.3174 -0.8417 -1.1142
13811SOL    HW243173   1.863   7.935   0.506 -0.5756 -0.0392  0.1732
13812SOL     OW43174   2.471   4.579   7.509 -0.1896 -0.1412  0.1615
13812SOL    HW143175   2.432   4.492   7.509  1.3480 -0.8835 -1.0808
13812SOL    HW243176   2.560   4.566   7.475  0.3392  1.8034  0.6499
13813SOL     OW43177   6.255   3.197   2.244 -0.0567  0.1335 -0.4632
13813SOL    HW143178   6.178   3.236   2.286 -1.0395 -2.0324 -0.1087
13813SOL    HW243179   6.222   3.159   2.163  0.5064 -1.2160 -0.0969
13814SOL     OW43180   1.969   2.488   9.144 -0.0541 -1.0450  0.4794
13814SOL    HW143181   1.917   2.492   9.224 -2.2419 -1.2497 -0.8363
13814SOL    HW243182   2.048   2.440   9.169 -0.7884 -1.3312  2.4406
13815SOL     OW43183   3.075   7.744   1.664  0.1543 -0.5314 -0.1073
13815SOL    HW143184   3.045   7.656   1.641 -1.6601  0.3093 -1.1988
13815SOL    HW243185   3.110   7.735   1.753 -1.4224 -2.0671  0.4233
13816SOL     OW43186   5.592   2.465   6.567  0.6539 -0.1163  0.6577
13816SOL    HW143187   5.628   2.384   6.530  0.2278 -0.5332  1.1326
13816SOL    HW243188   5.498   2.447   6.575  0.2561  1.0650 -0.8682
13817SOL     OW43189   0.740   4.121   4.491 -0.0790 -0.1939 -0.3497
13817SOL    HW143190   0.650   4.118   4.460 -1.3874  1.2637  2.8111
13817SOL    HW243191   0.752   4.037   4.536  0.0889 -0.3077 -0.6051
13818SOL     OW43192   5.045   5.429   7.745  0.4075  0.0842  0.7355
13818SOL    HW143193   5.056   5.524   7.737  0.3195  0.0613  0.3454
13818SOL    HW243194   4.981   5.406   7.678 -0.6990 -0.0497  1.7979
13819SOL     OW43195   6.177   4.414   7.496  0.2617  0.2633  0.6237
13819SOL    HW143196   6.114   4.433   7.427 -1.0646  3.3803  2.4532
13819SOL    HW243197   6.262   4.412   7.452 -0.7576 -0.7051 -1.4178
13820SOL     OW43198   2.809   3.494   4.460 -0.2828  0.4701 -0.0090
13820SOL    HW143199   2.722   3.494   4.500  0.4109 -0.1497  1.5813
13820SOL    HW243200   2.869   3.513   4.532  1.1364 -1.7767 -0.4836
13821SOL     OW43201   0.382   5.209   1.914  0.0151 -0.4393 -0.3600
13821SOL    HW143202   0.424   5.169   1.838  3.0192 -0.2470  1.0419
13821SOL    HW243203   0.387   5.143   1.982  0.6652  0.6111  0.6548
13822SOL     OW43204   2.257   5.895   0.239 -0.8104 -0.1466  0.4233
13822SOL    HW143205   2.267   5.800   0.243  0.8870 -0.0569 -0.7063
13822SOL    HW243206   2.185   5.909   0.178 -1.4704 -0.7091  1.0644
13823SOL     OW43207   3.298   0.942   0.326  0.1013 -0.4427 -0.2983
13823SOL    HW143208   3.387   0.945   0.291  0.6378  1.7743  1.0183
13823SOL    HW243209   3.305   0.891   0.407  0.8917  2.0733  1.3376
13824SOL     OW43210   0.798   3.429   8.592 -0.4770  0.0231 -0.2738
13824SOL    HW143211   0.839   3.451   8.509  0.7648 -0.3680  0.2198
13824SOL    HW243212   0.777   3.336   8.586 -0.0807 -0.0855 -0.0335
13825SOL     OW43213   1.228   1.204   3.969 -0.0451  0.2706 -0.0295
13825SOL    HW143214   1.187   1.176   4.051 -1.5029  0.8027 -0.5492
13825SOL    HW243215   1.306   1.252   3.997  0.0590 -0.4572  1.0007
13826SOL     OW43216   4.697   4.061   3.590  0.2893 -0.1163 -0.1342
13826SOL    HW143217   4.633   4.004   3.548  1.5394 -1.4426 -0.3050
13826SOL    HW243218   4.729   4.117   3.519  1.0873 -1.1251 -0.5894
13827SOL     OW43219   6.631   0.214   8.757 -0.2505  0.4710 -0.0074
13827SOL    HW143220   6.701   0.280   8.760  1.3125 -1.1007 -0.3360
13827SOL    HW243221   6.583   0.234   8.676  0.5953  0.8206 -0.4364
13828SOL     OW43222   4.223   2.597   4.623 -0.1276  0.0682  0.2752
13828SOL    HW143223   4.176   2.530   4.574  2.6959 -0.2065 -2.3333
13828SOL    HW243224   4.212   2.677   4.571 -0.3919  0.7762  1.3811
13829SOL     OW43225   4.309   7.589   9.172 -0.1844 -0.4896  0.1306
13829SOL    HW143226   4.382   7.586   9.234  0.6436  1.9094 -0.6056
13829SOL    HW243227   4.286   7.682   9.167 -4.1648 -1.2022  1.2595
13830SOL     OW43228   4.932   3.198   4.099  0.3293 -0.8112  0.1255
13830SOL    HW143229   4.933   3.201   4.004  0.7196 -0.7634  0.1286
13830SOL    HW243230   4.982   3.276   4.126  1.5904 -1.6703  0.3509
13831SOL     OW43231   0.978   3.291   6.161 -0.2810  0.1136  0.2337
13831SOL    HW143232   0.999   3.205   6.199 -1.4752 -1.2542 -2.0020
13831SOL    HW243233   0.925   3.334   6.227  0.2504 -0.9058  1.3619
13832SOL     OW43234   2.305   7.093   3.578  0.3791 -0.4745  0.1227
13832SOL    HW143235   2.355   7.151   3.521 -0.1814  0.2552  0.3641
13832SOL    HW243236   2.307   7.008   3.534  1.4586 -0.3528 -0.0833
13833SOL     OW43237   7.346   7.423   4.115 -0.6680 -0.7674 -0.3790
13833SOL    HW143238   7.280   7.360   4.145  1.2104 -1.6256  2.2708
13833SOL    HW243239   7.352   7.487   4.185  0.2512  0.1532 -1.2659
13834SOL     OW43240   1.702   4.544   4.813  0.5665 -0.4004  0.2324
13834SOL    HW143241   1.741   4.617   4.860 -0.7422  1.3016 -1.1755
13834SOL    HW243242   1.773   4.508   4.760  0.8727  0.9816 -0.3435
13835SOL     OW43243   2.850   2.491   9.419 -0.0430  0.1375 -0.2726
13835SOL    HW143244   2.913   2.560   9.438  0.9969 -1.2302  1.5675
13835SOL    HW243245   2.808   2.473   9.503  0.3499 -2.0466 -0.4760
13836SOL     OW43246   2.393   8.539   2.952 -0.9477 -0.3292 -0.3276
13836SOL    HW143247   2.377   8.532   3.046 -0.7354  2.1710 -0.0274
13836SOL    HW243248   2.474   8.590   2.945 -1.4572  0.3409 -1.8468
13837SOL     OW43249   4.316   7.405   2.341 -0.6629  0.2166 -0.1311
13837SOL    HW143250   4.273   7.347   2.278  0.6338 -1.9028  0.8155
13837SOL    HW243251   4.403   7.421   2.303 -1.6159  3.1682 -1.2806
13838SOL     OW43252   1.353   0.226   4.351  0.8178 -0.3043 -0.2437
13838SOL    HW143253   1.343   0.145   4.400  0.4435 -0.9350 -1.3257
13838SOL    HW243254   1.297   0.289   4.396  1.4463 -0.5155  0.8600
13839SOL     OW43255   2.283   4.090   1.195  0.3092 -0.1685 -0.2147
13839SOL    HW143256   2.242   4.047   1.119  1.5272 -0.6908 -0.6068
13839SOL    HW243257   2.238   4.174   1.202  0.2822 -0.0285 -1.6457
13840SOL     OW43258   0.537   8.550   5.456  0.4101  0.2304  0.0493
13840SOL    HW143259   0.569   8.464   5.429  0.4708  0.2868 -0.0613
13840SOL    HW243260   0.458   8.531   5.506 -0.3465  0.1756 -1.1258
13841SOL     OW43261   2.440   9.113   7.495 -0.1114  0.7264  0.5049
13841SOL    HW143262   2.512   9.076   7.547 -0.6805 -3.5182 -1.2978
13841SOL    HW243263   2.362   9.097   7.549 -0.4011 -1.3651 -0.4221
13842SOL     OW43264   4.578   4.445   1.545 -0.4307  0.0815 -0.1435
13842SOL    HW143265   4.658   4.460   1.596 -0.4829  0.6192 -0.2047
13842SOL    HW243266   4.597   4.368   1.491 -0.4391 -0.6069  0.8192
13843SOL     OW43267   2.998   9.056   0.256  0.0919  0.0270 -0.2287
13843SOL    HW143268   2.950   9.047   0.338  0.9791 -0.5466  0.2387
13843SOL    HW243269   3.071   9.114   0.276  0.1556  0.1100 -0.6903
13844SOL     OW43270   5.684   3.931   2.190  0.7217 -0.0182  0.4589
13844SOL    HW143271   5.615   3.941   2.255  1.4428  1.8317  0.9996
13844SOL    HW243272   5.747   4.000   2.211  1.5093 -0.0658 -1.5402
13845SOL     OW43273   8.717   4.277   7.142  0.0041  0.2747 -0.0373
13845SOL    HW143274   8.696   4.274   7.049  2.0391 -1.5378 -0.5337
13845SOL    HW243275   8.738   4.369   7.159 -0.3362  0.6192 -1.3808
13846SOL     OW43276   1.634   3.863   0.621  0.3111  0.5741  0.0985
13846SOL    HW143277   1.722   3.888   0.647  0.1051  0.6706  0.7107
13846SOL    HW243278   1.587   3.848   0.703  0.1068 -0.7261 -0.2317
13847SOL     OW43279   7.674   9.574   9.413 -0.1486 -0.3779  0.0696
13847SOL    HW143280   7.620   9.566   9.491 -0.2955  0.6268  0.0840
13847SOL    HW243281   7.641   9.506   9.354 -1.8167  0.5531 -0.1410
13848SOL     OW43282   5.924   8.730   2.387 -0.0368  0.1848 -0.2431
13848SOL    HW143283   6.005   8.706   2.432 -0.3071 -1.4095 -0.5693
13848SOL    HW243284   5.942   8.714   2.295 -1.0629 -1.2437 -0.2153
13849SOL     OW43285   1.969   6.674   9.348  0.3199 -0.0919  0.1752
13849SOL    HW143286   1.977   6.581   9.368  0.5574 -0.2612 -0.6760
13849SOL    HW243287   1.984   6.680   9.254 -1.4808  0.5831 -0.1175
13850SOL     OW43288   7.640   6.823   3.195 -0.2649 -0.2527  0.2399
13850SOL    HW143289   7.553   6.838   3.233 -0.9940  2.0940 -2.0380
13850SOL    HW243290   7.656   6.729   3.209 -4.1955 -1.3481 -1.1210
13851SOL     OW43291   4.763   6.007   8.369 -0.5713 -0.1583 -0.3770
13851SOL    HW143292   4.788   6.035   8.281 -1.3439 -1.8713 -1.1919
13851SOL    HW243293   4.847   5.998   8.416 -0.1642  0.9159 -0.8793
13852SOL     OW43294   7.080   2.717   4.808  0.5463 -0.3072 -0.2360
13852SOL    HW143295   7.134   2.719   4.887 -0.1446  2.0005  0.2302
13852SOL    HW243296   7.058   2.808   4.791 -0.8976 -0.9291 -2.0302
13853SOL     OW43297   0.319   5.313   1.503 -0.5554  0.5160  0.0181
13853SOL    HW143298   0.374   5.240   1.530  2.5607  2.2495 -1.0656
13853SOL    HW243299   0.298   5.359   1.584  0.6793  0.4980  0.3576
13854SOL     OW43300   3.105   5.853   7.659 -0.0417  0.6129  0.1316
13854SOL    HW143301   3.076   5.944   7.656  0.4369  0.7782  0.3606
13854SOL    HW243302   3.200   5.858   7.651  0.0124  0.1514  0.4319
13855SOL     OW43303   5.496   6.474   0.127  0.4892  0.1868  0.2003
13855SOL    HW143304   5.468   6.384   0.110 -0.9044  0.6196  0.1071
13855SOL    HW243305   5.508   6.512   0.040 -1.0060  0.6988  0.1931
13856SOL     OW43306   5.818   0.909   3.910  0.5064  0.3752 -0.0287
13856SOL    HW143307   5.737   0.922   3.960  0.3130 -2.0476  0.4088
13856SOL    HW243308   5.808   0.966   3.834 -1.2616  0.7304  0.4063
13857SOL     OW43309   2.044   7.934   3.007  0.0486  0.2349  0.5084
13857SOL    HW143310   1.989   7.856   3.007 -0.3286  0.4633 -1.0091
13857SOL    HW243311   1.982   8.007   3.001  0.4277  0.6296  1.2156
13858SOL     OW43312   4.275   3.107   4.391 -0.5428 -0.8838 -0.7692
13858SOL    HW143313   4.214   3.180   4.393 -0.2036 -0.6095 -0.2041
13858SOL    HW243314   4.336   3.125   4.462  0.3700 -0.9939 -1.5019
13859SOL     OW43315   9.464   1.207   9.010  0.4338 -0.1370 -0.1447
13859SOL    HW143316   9.377   1.186   8.975  0.2949 -0.6765  0.4911
13859SOL    HW243317   9.525   1.182   8.940  0.0519  0.8749 -0.8574
13860SOL     OW43318   3.955   8.446   2.321 -0.1189 -0.0813  0.4593
13860SOL    HW143319   3.876   8.405   2.357 -0.8557  1.7984  1.1347
13860SOL    HW243320   4.022   8.379   2.327 -0.9318 -0.7768  2.7483
13861SOL     OW43321   2.437   3.272   6.242 -0.0767  0.1775 -0.4551
13861SOL    HW143322   2.507   3.274   6.307  0.2924 -0.1894 -0.8363
13861SOL    HW243323   2.357   3.270   6.294  0.0845  2.5731  0.0075
13862SOL     OW43324   2.425   2.328   7.286  0.4105  0.0567  0.0901
13862SOL    HW143325   2.379   2.408   7.311 -0.1399 -0.3618  0.4431
13862SOL    HW243326   2.478   2.353   7.210 -0.9057  0.3910 -0.7490
13863SOL     OW43327   3.348   3.950   3.492  0.4600  0.3141 -0.0682
13863SOL    HW143328   3.388   3.989   3.570  0.6791 -0.7434  0.3588
13863SOL    HW243329   3.285   3.887   3.527 -0.2493  0.6315 -0.7454
13864SOL     OW43330   0.485   0.066   8.533  0.1791  0.0592  0.6342
13864SOL    HW143331   0.512   0.117   8.456  0.9230  0.7699  1.3585
13864SOL    HW243332   0.410   0.114   8.568 -0.7466 -0.7647 -0.1551
13865SOL     OW43333   2.391   3.629   4.713  0.1267  0.2463  0.0538
13865SOL    HW143334   2.302   3.658   4.695  0.4351  1.0662 -0.1825
13865SOL    HW243335   2.444   3.669   4.644  0.5030 -1.3207 -0.6244
13866SOL     OW43336   1.444   6.987   9.387  0.2371  0.2279 -0.1192
13866SOL    HW143337   1.474   7.068   9.346 -2.7284  0.8299 -1.4077
13866SOL    HW243338   1.494   6.918   9.343 -1.3257  1.0129 -3.4638
13867SOL     OW43339   6.096   3.222   5.299  0.2937  0.3543  0.0970
13867SOL    HW143340   6.130   3.135   5.276  0.4045  0.2541  0.6158
13867SOL    HW243341   6.145   3.282   5.244 -1.2986 -0.0492 -1.8789
13868SOL     OW43342   0.819   2.707   8.468  0.4887 -0.0300  0.1190
13868SOL    HW143343   0.743   2.648   8.469  0.9787 -0.6756  0.4375
13868SOL    HW243344   0.790   2.783   8.417  0.2488 -1.0853 -1.3896
13869SOL     OW43345   6.080   7.289   4.932 -0.1276  0.4790  0.6472
13869SOL    HW143346   6.067   7.365   4.989 -2.1728  0.2941  0.5039
13869SOL    HW243347   6.171   7.265   4.945 -0.0180  1.6339  2.3645
13870SOL     OW43348   6.603   3.986   4.478  0.4167  0.3961  0.7964
13870SOL    HW143349   6.613   3.985   4.574 -1.4248 -2.7028  1.0706
13870SOL    HW243350   6.614   3.895   4.452  0.7300  1.1504 -1.9786
13871SOL     OW43351   5.999   6.730   5.577 -0.1625  0.1332  0.4019
13871SOL    HW143352   5.915   6.715   5.621  0.4802 -0.1116  1.5756
13871SOL    HW243353   5.993   6.820   5.545 -0.4577  0.4906  1.4228
13872SOL     OW43354   1.198   2.281   5.678  0.2371  0.3921 -0.3903
13872SOL    HW143355   1.291   2.259   5.667  0.0900  0.1121 -1.1391
13872SOL    HW243356   1.157   2.199   5.705  0.5117  0.9640  1.9316
13873SOL     OW43357   7.740   3.193   9.486  0.1610 -0.2076 -0.8090
13873SOL    HW143358   7.668   3.227   9.540 -0.1459 -0.3760 -1.1124
13873SOL    HW243359   7.801   3.156   9.550 -0.3213 -0.6318 -0.5807
13874SOL     OW43360   3.443   8.223   9.088 -0.1198  0.2978  0.3608
13874SOL    HW143361   3.471   8.133   9.098 -0.7632  0.1850  1.2021
13874SOL    HW243362   3.521   8.270   9.059  0.2690 -0.4835  0.1430
13875SOL     OW43363   3.844   4.267   1.485 -0.1116 -0.1446  0.1892
13875SOL    HW143364   3.797   4.209   1.544 -0.7655 -1.1073 -1.2355
13875SOL    HW243365   3.827   4.233   1.398  0.8631  1.2106 -0.5818
13876SOL     OW43366   9.098   3.006   2.137  0.1068 -0.1157  0.0008
13876SOL    HW143367   9.028   2.941   2.133  0.1047 -0.1134 -0.0087
13876SOL    HW243368   9.148   2.993   2.056  0.4799 -0.5253  0.2936
13877SOL     OW43369   7.442   9.549   6.578  0.3737  0.6165  0.4219
13877SOL    HW143370   7.350   9.548   6.603  0.1711  1.1461 -0.2486
13877SOL    HW243371   7.474   9.462   6.600 -0.2580  0.4676  0.7754
13878SOL     OW43372   7.121   6.229   5.560  0.6157  0.2521  0.0997
13878SOL    HW143373   7.181   6.276   5.502  2.1356 -0.2746  1.1825
13878SOL    HW243374   7.077   6.166   5.503  2.0940 -0.2821 -0.5222
13879SOL     OW43375   6.921   8.623   9.051 -0.0059 -0.6855 -0.0567
13879SOL    HW143376   6.944   8.683   8.979  0.5798 -0.3921  0.3632
13879SOL    HW243377   6.917   8.680   9.128  1.8325 -1.3463  0.5848
13880SOL     OW43378   8.263   5.325   6.560 -0.0600  0.0121 -0.0640
13880SOL    HW143379   8.199   5.276   6.612  0.2963  0.0866  0.4560
13880SOL    HW243380   8.285   5.401   6.615 -0.7862  0.8887 -0.9546
13881SOL     OW43381   6.063   4.341   9.137  0.0219  1.0874 -0.4023
13881SOL    HW143382   5.987   4.378   9.093 -1.5321 -1.5536 -0.1403
13881SOL    HW243383   6.039   4.341   9.230  0.3000  0.2376 -0.3157
13882SOL     OW43384   8.651   5.524   6.287 -0.3003 -0.5844 -0.1613
13882SOL    HW143385   8.627   5.601   6.236 -2.4170 -0.0226  1.5551
13882SOL    HW243386   8.663   5.556   6.376 -0.4801 -2.1192  0.4449
13883SOL     OW43387   6.309   3.555   2.784 -0.0667 -0.3042 -0.1743
13883SOL    HW143388   6.261   3.478   2.752  0.3378 -0.9746  0.7787
13883SOL    HW243389   6.356   3.587   2.707 -0.7052 -0.6493 -0.7252
13884SOL     OW43390   2.992   7.376   2.404 -0.2840 -0.8153 -0.5689
13884SOL    HW143391   2.994   7.364   2.309  0.8967  0.4030 -0.7310
13884SOL    HW243392   3.076   7.417   2.425 -0.8203 -0.4017  0.9086
13885SOL     OW43393   6.054   7.468   0.869 -0.1631  0.0984  0.0663
13885SOL    HW143394   6.063   7.543   0.928 -2.1398  0.9107 -0.5854
13885SOL    HW243395   5.986   7.414   0.909 -1.0005  0.2889 -1.0640
13886SOL     OW43396   2.850   5.612   5.492 -0.7646 -0.8923  1.0001
13886SOL    HW143397   2.926   5.610   5.550  0.2124  4.8291  0.5451
13886SOL    HW243398   2.776   5.628   5.550 -0.5759 -0.2608  1.0805
13887SOL     OW43399   5.132   9.270   2.852 -0.1621  0.2258  0.9957
13887SOL    HW143400   5.053   9.242   2.897 -1.6310  0.8966 -1.0294
13887SOL    HW243401   5.166   9.342   2.904 -2.7880  2.1641  0.2219
13888SOL     OW43402   4.393   2.830   5.028  0.6905  0.1836  0.1411
13888SOL    HW143403   4.379   2.759   4.966  1.2309  1.3360 -1.3517
13888SOL    HW243404   4.317   2.887   5.017  1.9449  1.6728 -1.3111
13889SOL     OW43405   0.944   6.643   1.840  0.2299  0.1965  0.5525
13889SOL    HW143406   0.938   6.552   1.810 -2.1399  0.5649 -0.2656
13889SOL    HW243407   0.904   6.642   1.927  1.7582  0.1943  1.2874
13890SOL     OW43408   9.477   8.394   1.583  0.0331  0.1317 -0.5317
13890SOL    HW143409   9.484   8.425   1.493 -1.8929  1.0002 -0.4213
13890SOL    HW243410   9.393   8.350   1.588  0.4997 -0.6777  0.6324
13891SOL     OW43411   1.725   6.984   1.258  0.3128 -0.5807  0.3505
13891SOL    HW143412   1.635   6.968   1.285  0.5602 -1.3930  0.7633
13891SOL    HW243413   1.774   6.993   1.340  0.6139 -0.1954  0.1340
13892SOL     OW43414   3.043   1.544   1.527  0.4756  0.0836 -0.1933
13892SOL    HW143415   2.989   1.515   1.453  1.1695 -2.0698  0.0898
13892SOL    HW243416   2.994   1.619   1.564 -1.1732 -0.3966 -1.2763
13893SOL     OW43417   8.890   6.958   4.715 -0.2750  0.1437  0.1151
13893SOL    HW143418   8.836   7.008   4.776  0.3825 -0.3375  1.1163
13893SOL    HW243419   8.869   6.867   4.733 -0.6985  0.0008 -0.9854
13894SOL     OW43420   7.892   0.325   3.950  0.6443  0.2656 -0.1208
13894SOL    HW143421   7.828   0.254   3.937  0.9330 -0.0743  0.2952
13894SOL    HW243422   7.838   0.402   3.966  0.3300  0.0682 -0.1945
13895SOL     OW43423   3.294   7.443   2.024  0.2873 -0.1486  0.0901
13895SOL    HW143424   3.268   7.371   2.082  0.9327 -0.7550 -0.3561
13895SOL    HW243425   3.342   7.401   1.953  1.2240  0.7795  0.1362
13896SOL     OW43426   7.206   4.034   7.251  0.2822 -0.7729  0.6166
13896SOL    HW143427   7.237   3.959   7.301 -0.5828 -0.7527  1.1961
13896SOL    HW243428   7.250   4.026   7.166 -0.2385 -2.2406  0.4633
13897SOL     OW43429   7.229   1.611   0.926 -0.3871 -0.3501  0.0941
13897SOL    HW143430   7.301   1.673   0.915  1.5133 -2.4596 -0.0286
13897SOL    HW243431   7.157   1.650   0.876  1.3587  0.7553 -1.7543
13898SOL     OW43432   1.973   4.554   2.641  0.3479 -0.7006  0.2849
13898SOL    HW143433   1.904   4.613   2.671  0.8952  0.3552 -0.5242
13898SOL    HW243434   2.053   4.589   2.679  0.6907 -0.8648 -0.2763
13899SOL     OW43435   5.739   8.855   7.300 -0.7499 -0.2165 -0.2653
13899SOL    HW143436   5.761   8.776   7.349 -1.3247 -0.2154  0.0047
13899SOL    HW243437   5.738   8.828   7.209 -2.2095 -0.8440 -0.0933
13900SOL     OW43438   4.475   5.331   6.061  0.4438 -0.4369 -0.8628
13900SOL    HW143439   4.417   5.398   6.096  0.0802 -0.2712 -1.7520
13900SOL    HW243440   4.466   5.339   5.966  1.5107 -0.7731 -1.0029
13901SOL     OW43441   1.327   2.408   5.066 -0.1172  0.0812  0.0832
13901SOL    HW143442   1.297   2.452   4.986  0.6429 -0.1637 -0.3433
13901SOL    HW243443   1.388   2.470   5.106 -0.3286  0.1099  0.3693
13902SOL     OW43444   1.161   0.023   1.452 -0.2587  0.6684  0.2987
13902SOL    HW143445   1.156  -0.022   1.537 -1.9613  0.6384  0.2179
13902SOL    HW243446   1.090  -0.014   1.401 -0.2456  1.8052 -0.5903
13903SOL     OW43447   3.156   3.941   4.433 -0.3296 -0.5053  0.3399
13903SOL    HW143448   3.184   3.974   4.518 -1.1969  2.3637 -0.3746
13903SOL    HW243449   3.064   3.919   4.445 -0.3563 -0.4511  0.2350
13904SOL     OW43450   4.338   5.267   7.557 -0.0556  0.0094 -0.9267
13904SOL    HW143451   4.350   5.182   7.514 -2.0567 -0.2724 -1.0429
13904SOL    HW243452   4.398   5.326   7.511  0.6842 -1.1364 -1.4710
13905SOL     OW43453   8.775   3.908   6.647  0.2088  0.0716  0.0183
13905SOL    HW143454   8.813   3.824   6.622 -0.0460  0.5506 -2.1907
13905SOL    HW243455   8.788   3.964   6.571  0.6937  2.1859  1.5661
13906SOL     OW43456   5.479   0.781   0.871  0.1282 -0.2180 -0.3141
13906SOL    HW143457   5.422   0.855   0.892 -0.0857 -0.7935  1.2344
13906SOL    HW243458   5.568   0.817   0.872 -0.1121  0.5411 -2.0976
13907SOL     OW43459   8.530   8.349   1.678  0.3230  0.1012 -0.1696
13907SOL    HW143460   8.603   8.358   1.616 -0.1836 -0.8680 -0.9235
13907SOL    HW243461   8.559   8.282   1.740  0.3565  0.2323 -0.0426
13908SOL     OW43462   0.908   5.148   9.572  0.2138  0.2785  0.0768
13908SOL    HW143463   0.846   5.131   9.501 -0.0102  2.5668 -0.3737
13908SOL    HW243464   0.870   5.106   9.649 -0.6932 -0.3500 -0.7009
13909SOL     OW43465   4.108   1.065   0.836  0.2348  0.1906 -0.2362
13909SOL    HW143466   4.139   1.095   0.921 -0.7018 -0.0509  0.2029
13909SOL    HW243467   4.115   1.142   0.779 -0.5100  0.7780  0.4391
13910SOL     OW43468   3.404   7.622   7.282 -0.1080  0.0911 -0.1309
13910SOL    HW143469   3.440   7.604   7.195  0.5454  0.3572  0.0778
13910SOL    HW243470   3.479   7.612   7.341 -0.6649 -0.6089  0.4647
13911SOL     OW43471   8.623   2.874   5.418 -0.1155 -0.4412  0.4388
13911SOL    HW143472   8.635   2.827   5.336  3.5841  0.4764  0.2689
13911SOL    HW243473   8.600   2.806   5.481  2.6718 -2.2465 -0.2705
13912SOL     OW43474   7.876   5.061   8.045  0.3101  0.6679 -0.4311
13912SOL    HW143475   7.936   5.088   8.115 -0.6525  0.1977  0.5882
13912SOL    HW243476   7.859   4.969   8.062 -1.5051  1.0389 -0.1053
13913SOL     OW43477   2.111   0.915   3.560 -0.2192  0.0795 -0.1327
13913SOL    HW143478   2.136   0.953   3.644  2.7961 -1.1033 -0.3917
13913SOL    HW243479   2.015   0.923   3.558 -0.4343 -0.0033  3.4431
13914SOL     OW43480   0.865   5.857   3.561 -0.2558 -0.0103  0.3242
13914SOL    HW143481   0.862   5.875   3.655  0.7646 -2.3473  0.8627
13914SOL    HW243482   0.875   5.762   3.555 -0.0073  0.1248 -2.1467
13915SOL     OW43483   2.451   2.463   6.142  0.0435 -0.6182 -0.0622
13915SOL    HW143484   2.446   2.372   6.169 -0.0477 -0.3638  0.7958
13915SOL    HW243485   2.379   2.506   6.188  0.6473  0.0618  0.2718
13916SOL     OW43486   4.360   3.776   4.281 -0.2832  0.3125  0.0700
13916SOL    HW143487   4.394   3.799   4.368  0.4172 -0.7241  0.0901
13916SOL    HW243488   4.399   3.690   4.262 -2.5118 -0.7123 -0.1305
13917SOL     OW43489   4.979   1.060   7.968 -0.0941 -0.0359 -0.0472
13917SOL    HW143490   5.001   0.970   7.992  2.0171  1.0101  2.5274
13917SOL    HW243491   5.057   1.093   7.923 -1.6858 -0.0471 -3.0614
13918SOL     OW43492   2.875   5.352   1.973  0.4178 -0.0694 -0.0585
13918SOL    HW143493   2.893   5.424   1.913  1.5237 -0.5079 -0.2805
13918SOL    HW243494   2.931   5.281   1.943  0.0547 -0.7115  0.7393
13919SOL     OW43495   5.022   3.127   1.495 -0.2330 -0.0494  0.7253
13919SOL    HW143496   5.088   3.060   1.479 -1.3767 -1.7102  2.4584
13919SOL    HW243497   5.072   3.209   1.500  1.5152 -1.0630  0.7466
13920SOL     OW43498   7.114   5.008   5.987  0.1258  0.2109 -0.0017
13920SOL    HW143499   7.203   5.036   6.008  0.4887 -0.6301 -0.3775
13920SOL    HW243500   7.081   4.970   6.069  0.2464  0.1859  0.0357
13921SOL     OW43501   3.434   2.052   4.473  0.3038  0.3512 -0.3809
13921SOL    HW143502   3.492   2.045   4.550  3.2217  1.5573 -2.2989
13921SOL    HW243503   3.466   1.986   4.412 -1.8176 -0.4193 -0.7610
13922SOL     OW43504   3.377   5.617   0.090 -0.2962  0.1685  0.1987
13922SOL    HW143505   3.312   5.658   0.147 -1.5021 -2.8344  1.2232
13922SOL    HW243506   3.340   5.624   0.002  0.5707  3.0003 -0.0208
13923SOL     OW43507   7.818   2.875   2.141 -0.1517  0.5736 -0.0017
13923SOL    HW143508   7.869   2.956   2.137  0.0941  0.4144 -0.1042
13923SOL    HW243509   7.836   2.831   2.058  2.8877 -1.4885  1.5473
13924SOL     OW43510   1.607   7.811   9.126  0.0350 -0.1975 -0.1630
13924SOL    HW143511   1.682   7.831   9.182 -0.8701 -2.3472  1.9820
13924SOL    HW243512   1.549   7.887   9.135 -0.4022 -0.7329  2.5146
13925SOL     OW43513   2.101   5.004   0.224  0.4631  0.1023  0.3387
13925SOL    HW143514   2.155   4.939   0.270  1.8292  2.3190  2.1167
13925SOL    HW243515   2.040   5.035   0.290 -1.2088 -0.3902 -0.9128
13926SOL     OW43516   3.938   5.101   2.161 -0.1030 -0.7739 -0.3442
13926SOL    HW143517   3.999   5.060   2.100  1.8206  1.8189 -0.3177
13926SOL    HW243518   3.899   5.173   2.112  0.8520  0.8445  1.1642
13927SOL     OW43519   7.607   8.331   2.503  0.4599 -0.9857  0.2976
13927SOL    HW143520   7.647   8.260   2.453 -0.4277 -1.6633  0.5191
13927SOL    HW243521   7.538   8.289   2.553  0.3125 -0.0539  0.9032
13928SOL     OW43522   5.992   2.690   2.279  0.2180  0.2766 -0.3206
13928SOL    HW143523   6.082   2.672   2.253  1.2686 -0.0553  3.0871
13928SOL    HW243524   5.986   2.785   2.281  0.7718  0.3037  0.2311
13929SOL     OW43525   9.349   3.944   4.030 -0.5180  0.1568 -0.0942
13929SOL    HW143526   9.391   4.001   3.966 -0.3405  0.0224 -0.0963
13929SOL    HW243527   9.339   3.998   4.108  1.0585 -0.2732  0.4259
13930SOL     OW43528   0.760   5.129   6.553  0.0472 -0.1940 -0.0847
13930SOL    HW143529   0.727   5.193   6.491  2.4084 -1.4586 -2.8771
13930SOL    HW243530   0.815   5.179   6.613 -0.2455  0.7265 -0.5730
13931SOL     OW43531   2.194   5.966   3.242 -0.1541  0.2145  0.1534
13931SOL    HW143532   2.204   5.918   3.324  0.0065  0.2005  0.1251
13931SOL    HW243533   2.270   5.941   3.190 -0.3513  0.0837 -0.0695
13932SOL     OW43534   6.430   1.638   6.308  0.1250 -0.5532  0.2380
13932SOL    HW143535   6.441   1.646   6.402  0.7704  0.2379  0.1032
13932SOL    HW243536   6.366   1.567   6.297 -0.1653 -0.4595  1.2682
13933SOL     OW43537   6.644   7.727   0.700  0.2624 -0.6682  0.5209
13933SOL    HW143538   6.630   7.752   0.609  1.1060 -1.4038  0.1795
13933SOL    HW243539   6.693   7.645   0.696  0.8129 -0.4186  1.6371
13934SOL     OW43540   5.792   4.366   6.525  0.4951  0.6324  0.8377
13934SOL    HW143541   5.850   4.436   6.495  0.5350  0.3159  0.1548
13934SOL    HW243542   5.839   4.285   6.504 -0.0958  0.3790  0.4703
13935SOL     OW43543   9.161   0.513   1.005  0.1361  0.4443  0.0251
13935SOL    HW143544   9.119   0.428   1.016  1.3036 -0.0514  0.9164
13935SOL    HW243545   9.103   0.562   0.947  0.6202 -1.8043 -2.5370
13936SOL     OW43546   7.179   4.354   8.191  0.0369 -0.7281  1.0240
13936SOL    HW143547   7.094   4.376   8.152 -0.1667 -1.2806  1.1455
13936SOL    HW243548   7.159   4.286   8.256  0.7663 -1.9279  0.0318
13937SOL     OW43549   4.361   3.673   2.050 -0.1536 -0.3621 -0.3740
13937SOL    HW143550   4.314   3.665   2.133  0.8551 -1.2737  0.1363
13937SOL    HW243551   4.453   3.685   2.075  0.1843 -0.7707 -1.3477
13938SOL     OW43552   6.557   3.951   0.907  0.0728  0.0131 -0.2981
13938SOL    HW143553   6.543   4.045   0.916 -2.0183 -0.3151  0.6681
13938SOL    HW243554   6.496   3.924   0.838  1.7991 -0.4463 -1.7194
13939SOL     OW43555   8.741   2.276   7.732 -0.0424 -0.4216 -0.1517
13939SOL    HW143556   8.706   2.296   7.819  1.5618 -1.3909  0.7584
13939SOL    HW243557   8.663   2.253   7.680 -1.0103 -0.0122  1.0621
13940SOL     OW43558   5.700   3.816   5.046  0.2069 -0.0819  0.4495
13940SOL    HW143559   5.632   3.757   5.015  1.9466 -1.5236 -0.7984
13940SOL    HW243560   5.759   3.761   5.096 -0.1546  1.3916  2.6338
13941SOL     OW43561   4.013   5.408   1.385  0.8636 -0.0803  0.2773
13941SOL    HW143562   3.947   5.399   1.316 -0.6986  1.2166  1.5088
13941SOL    HW243563   3.991   5.340   1.448 -0.9444  1.8852  1.8897
13942SOL     OW43564   7.530   0.226   7.510  0.3433  0.2251  0.0501
13942SOL    HW143565   7.525   0.142   7.556 -1.0924  0.7262  0.8632
13942SOL    HW243566   7.618   0.258   7.529  0.6423 -0.7494  0.3618
13943SOL     OW43567   4.862   8.829   2.108 -0.7976  0.1214 -0.6618
13943SOL    HW143568   4.873   8.755   2.048 -0.8264 -0.2654 -0.2015
13943SOL    HW243569   4.768   8.832   2.125 -0.5871 -1.1494  1.0360
13944SOL     OW43570   7.436   4.478   6.314 -0.0031 -0.9601  0.3683
13944SOL    HW143571   7.375   4.483   6.241  1.1542 -0.1767 -0.5717
13944SOL    HW243572   7.473   4.390   6.308 -1.3974 -1.6601  1.2903
13945SOL     OW43573   4.298   5.369   6.500  0.2639 -0.3688  0.3527
13945SOL    HW143574   4.215   5.347   6.542 -0.2908  0.0870 -0.4662
13945SOL    HW243575   4.335   5.439   6.554 -0.1770 -0.1662  0.3952
13946SOL     OW43576   0.493   2.332   3.071 -0.2836 -0.6932 -0.4880
13946SOL    HW143577   0.540   2.253   3.046  0.0405 -0.2823 -1.1977
13946SOL    HW243578   0.410   2.301   3.106  0.9956 -1.5345  2.0556
13947SOL     OW43579   2.394   7.352   9.306 -0.0444 -0.2934  0.5752
13947SOL    HW143580   2.337   7.322   9.376 -1.7317  0.1467 -0.5525
13947SOL    HW243581   2.435   7.432   9.340 -0.5623 -0.2809  1.1745
13948SOL     OW43582   3.951   8.834   2.611 -0.0309 -0.1910  0.1125
13948SOL    HW143583   4.009   8.785   2.552 -2.3769 -0.8599 -1.8183
13948SOL    HW243584   3.941   8.778   2.688  0.3737 -0.9457 -0.3745
13949SOL     OW43585   7.929   9.474   2.429 -0.0095 -0.3891  0.4145
13949SOL    HW143586   7.932   9.415   2.505  0.5973 -0.0699  0.6405
13949SOL    HW243587   8.013   9.519   2.430 -0.4613  0.4867  0.2378
13950SOL     OW43588   3.242   9.210   3.647  0.1034  0.0384 -0.1966
13950SOL    HW143589   3.281   9.290   3.611  0.1500  0.1629  0.1267
13950SOL    HW243590   3.315   9.160   3.682  0.2644 -0.8700 -1.7637
13951SOL     OW43591   2.322   9.411   0.617  0.2654  0.1521  0.1954
13951SOL    HW143592   2.322   9.505   0.600  0.0279  0.0504 -0.3924
13951SOL    HW243593   2.354   9.403   0.706  1.0616  0.7503 -0.0191
13952SOL     OW43594   7.853   0.940   0.481  0.1683  0.4415 -0.3099
13952SOL    HW143595   7.790   0.909   0.417 -1.5219 -1.3306  2.0417
13952SOL    HW243596   7.801   0.994   0.541  1.6979  2.1079 -0.4042
13953SOL     OW43597   5.897   6.211   6.256  0.6183 -0.1967  0.0360
13953SOL    HW143598   5.992   6.217   6.250  1.0375 -3.0799  1.7338
13953SOL    HW243599   5.877   6.119   6.236 -1.5521 -0.2102  1.7991
13954SOL     OW43600   1.848   3.549   5.037  0.2067  0.4062  0.1364
13954SOL    HW143601   1.789   3.609   5.083 -2.1437 -2.2527  0.8546
13954SOL    HW243602   1.933   3.563   5.079 -0.9494  0.9894  2.4619
13955SOL     OW43603   8.086   8.871   0.247 -0.0014 -0.1943  0.1963
13955SOL    HW143604   8.060   8.868   0.338  1.3366 -0.9265  0.5833
13955SOL    HW243605   8.077   8.963   0.222 -0.8283 -0.0748  0.9126
13956SOL     OW43606   7.633   6.354   5.131  0.2487 -0.0387 -0.3021
13956SOL    HW143607   7.644   6.352   5.036  1.4186 -0.8600 -0.1706
13956SOL    HW243608   7.692   6.424   5.160  1.0931 -0.8319 -0.0597
13957SOL     OW43609   7.224   5.266   3.346  0.3969 -0.2185 -0.7124
13957SOL    HW143610   7.141   5.310   3.332 -0.2678 -0.7865  1.1678
13957SOL    HW243611   7.289   5.325   3.307 -0.5613  1.8912  0.7116
13958SOL     OW43612   1.006   4.226   9.439 -0.2187 -0.4321 -0.3415
13958SOL    HW143613   0.996   4.317   9.465 -2.4149 -0.2601 -1.5433
13958SOL    HW243614   1.059   4.229   9.359 -0.0450 -0.2411 -0.2199
13959SOL     OW43615   7.263   5.599   7.260  0.1862 -0.4335 -0.2604
13959SOL    HW143616   7.341   5.546   7.247  1.7406  1.6796  0.0046
13959SOL    HW243617   7.246   5.639   7.175 -0.5718 -0.7698 -0.2819
13960SOL     OW43618   5.865   5.856   4.941  0.3991 -0.0408 -0.6508
13960SOL    HW143619   5.822   5.779   4.905  0.9128 -0.3482 -0.6124
13960SOL    HW243620   5.953   5.826   4.964  0.7376  0.6539 -1.0146
13961SOL     OW43621   8.154   3.416   4.614 -0.4450 -0.4279  0.2413
13961SOL    HW143622   8.190   3.496   4.651  0.9805 -0.3885 -1.0947
13961SOL    HW243623   8.196   3.408   4.529 -3.1429 -0.8072 -1.1615
13962SOL     OW43624   5.631   5.961   7.714 -0.1352 -0.0808  0.1592
13962SOL    HW143625   5.635   5.867   7.695 -0.5829 -0.4749  1.8820
13962SOL    HW243626   5.666   5.969   7.803 -0.8186  1.2907  0.3227
13963SOL     OW43627   2.126   0.020   4.780 -0.4245  0.2584 -0.0463
13963SOL    HW143628   2.207  -0.011   4.821 -0.2614 -0.7338 -1.0580
13963SOL    HW243629   2.104  -0.049   4.717 -0.8967  1.5137 -1.2972
13964SOL     OW43630   2.573   2.862   1.180 -0.1947  0.3330 -0.2904
13964SOL    HW143631   2.600   2.779   1.221 -0.0458  0.3374 -0.3784
13964SOL    HW243632   2.507   2.898   1.240 -1.7874 -0.8398 -1.2721
13965SOL     OW43633   4.320   7.059   2.230  0.4668 -0.3478 -0.1635
13965SOL    HW143634   4.254   7.116   2.270  0.8237 -0.9716  1.3853
13965SOL    HW243635   4.344   7.104   2.149 -1.2609  0.2934 -0.3699
13966SOL     OW43636   2.660   0.773   8.434 -0.1386 -0.3723  0.0035
13966SOL    HW143637   2.720   0.811   8.371  0.4190 -1.2309 -0.0007
13966SOL    HW243638   2.620   0.700   8.388  1.6565 -2.2036  1.1670
13967SOL     OW43639   7.851   1.437   5.658 -0.4580  0.0490  0.1743
13967SOL    HW143640   7.868   1.531   5.658  0.3928 -0.1009 -0.7678
13967SOL    HW243641   7.931   1.398   5.693 -0.3705 -0.4040 -0.5356
13968SOL     OW43642   6.580   1.059   2.913  0.1773  0.1091 -0.1438
13968SOL    HW143643   6.582   0.965   2.898  0.5867 -0.1822  1.6170
13968SOL    HW243644   6.487   1.083   2.904  0.1215 -0.3786 -0.9447
13969SOL     OW43645   0.808   5.510   5.498  0.2573 -0.4919  0.8236
13969SOL    HW143646   0.798   5.420   5.465  0.4156 -0.2571  0.1034
13969SOL    HW243647   0.857   5.500   5.579 -2.4652 -1.3401  2.5131
13970SOL     OW43648   7.954   0.348   1.354  0.3673  0.0448  0.7347
13970SOL    HW143649   7.887   0.342   1.286 -0.1638  0.4962  1.2169
13970SOL    HW243650   7.920   0.411   1.417  0.9964 -0.1318  1.2664
13971SOL     OW43651   1.017   3.061   6.295 -0.8105  0.4290  0.1542
13971SOL    HW143652   1.027   3.045   6.388 -0.9249 -0.7351 -0.0285
13971SOL    HW243653   0.975   2.982   6.261 -1.7902  1.2778 -0.6998
13972SOL     OW43654   0.425   0.733   0.271 -0.1695  0.2480  0.0711
13972SOL    HW143655   0.487   0.804   0.288 -0.0023  0.1851 -0.2615
13972SOL    HW243656   0.372   0.727   0.351  0.5670 -0.0158  0.5569
13973SOL     OW43657   3.934   0.742   5.681  0.1092  0.5432  0.2406
13973SOL    HW143658   4.021   0.735   5.721  0.1128 -0.3542  0.1141
13973SOL    HW243659   3.876   0.697   5.743 -0.3416  1.5148  0.5306
13974SOL     OW43660   2.839   9.167   4.738 -0.0178 -0.5221  0.1722
13974SOL    HW143661   2.836   9.213   4.822 -1.0314 -1.1921  0.5242
13974SOL    HW243662   2.881   9.083   4.758  2.4563  0.4586 -0.6039
13975SOL     OW43663   5.094   1.418   1.742  0.2960 -0.1374  0.3298
13975SOL    HW143664   5.109   1.491   1.681  1.9291 -1.6693 -1.2286
13975SOL    HW243665   5.046   1.354   1.690 -0.4760 -0.4942  1.4544
13976SOL     OW43666   2.780   6.150   5.943 -0.3654  0.5029  0.6240
13976SOL    HW143667   2.747   6.237   5.962 -1.2171  0.4960 -0.7402
13976SOL    HW243668   2.721   6.091   5.991 -1.2988  0.5788 -0.3919
13977SOL     OW43669   0.257   4.977   6.639 -0.0907  0.1936  0.2226
13977SOL    HW143670   0.346   5.012   6.651  0.1072 -0.1278 -0.2795
13977SOL    HW243671   0.237   4.993   6.547  0.7815 -2.7051 -0.5958
13978SOL     OW43672   4.479   8.272   0.083 -0.3672 -0.1254  0.1332
13978SOL    HW143673   4.512   8.219   0.011 -1.5395 -0.2485 -0.3401
13978SOL    HW243674   4.453   8.355   0.041  0.6805  0.5327  0.7301
13979SOL     OW43675   9.397   2.930   2.787 -0.3212 -0.5218 -0.0720
13979SOL    HW143676   9.418   2.837   2.784  0.6525 -0.3008 -0.3381
13979SOL    HW243677   9.430   2.965   2.705 -0.6304  0.0742  0.0518
13980SOL     OW43678   0.177   0.127   0.726 -0.1457  0.3289  0.3519
13980SOL    HW143679   0.224   0.050   0.757 -0.3204  0.8103  1.8754
13980SOL    HW243680   0.084   0.103   0.732 -0.1711  0.0269 -0.9293
13981SOL     OW43681   1.227   0.584   2.970 -0.1659  0.8360 -0.6907
13981SOL    HW143682   1.209   0.677   2.981  0.9049  1.1932 -1.7198
13981SOL    HW243683   1.300   0.567   3.029 -0.8249  0.4753  0.0280
13982SOL     OW43684   6.934   4.530   2.639 -0.1274 -0.2037 -0.1253
13982SOL    HW143685   7.006   4.528   2.703 -0.1038  1.2878 -0.0805
13982SOL    HW243686   6.969   4.485   2.562  1.0445  0.9307 -0.2808
13983SOL     OW43687   8.747   3.083   3.194 -0.6504 -0.1280 -0.3107
13983SOL    HW143688   8.839   3.088   3.167 -0.0589 -1.9962  1.1199
13983SOL    HW243689   8.722   3.173   3.214  0.9727  0.3673 -0.4126
13984SOL     OW43690   1.652   1.686   8.195  0.4003  0.0567  0.8826
13984SOL    HW143691   1.636   1.701   8.288 -1.4133 -0.2153  0.6431
13984SOL    HW243692   1.570   1.711   8.152  0.2653 -2.3073 -0.3846
13985SOL     OW43693   4.528   8.077   6.687 -0.0215  0.3247 -0.2594
13985SOL    HW143694   4.486   8.153   6.647 -2.0849 -0.8945 -0.5402
13985SOL    HW243695   4.604   8.060   6.631 -0.7765  0.8755 -1.4886
13986SOL     OW43696   3.352   9.266   7.449  0.2029  0.0012  0.2171
13986SOL    HW143697   3.430   9.292   7.497  0.1681 -0.5902  0.6111
13986SOL    HW243698   3.375   9.277   7.357 -0.4724  3.3505  0.3256
13987SOL     OW43699   6.061   6.277   1.982  0.1404 -0.0780  0.6885
13987SOL    HW143700   6.010   6.291   2.062  0.3682 -0.4758  0.9057
13987SOL    HW243701   6.133   6.221   2.009  1.2965  1.3016  0.6209
13988SOL     OW43702   6.678   3.367   0.572 -0.1621 -0.5318 -0.3855
13988SOL    HW143703   6.773   3.371   0.578 -0.1754 -1.2550  0.5756
13988SOL    HW243704   6.659   3.361   0.478  0.7804 -1.3195 -0.5385
13989SOL     OW43705   0.580   0.198   5.992  0.2182 -0.0029 -0.1515
13989SOL    HW143706   0.502   0.160   6.030 -0.4704  0.3277 -1.1836
13989SOL    HW243707   0.604   0.269   6.052  1.4288 -1.8591  1.6990
13990SOL     OW43708   1.552   1.474   0.044  0.0579 -0.0036 -0.7544
13990SOL    HW143709   1.605   1.469  -0.035  0.5037  1.6426 -0.5936
13990SOL    HW243710   1.608   1.440   0.113  0.1380 -0.2066 -0.9170
13991SOL     OW43711   7.577   3.322   6.477  0.8742 -0.3430 -0.2445
13991SOL    HW143712   7.565   3.348   6.569  2.6919  2.7259 -0.7443
13991SOL    HW243713   7.524   3.383   6.427  0.7592 -1.3018 -1.3332
13992SOL     OW43714   8.165   4.311   3.742  0.1352 -1.2569  0.6005
13992SOL    HW143715   8.192   4.311   3.650 -0.9755  0.4722  0.2155
13992SOL    HW243716   8.246   4.316   3.791  0.6944  0.8894 -0.4154
13993SOL     OW43717   0.771   0.258   3.222 -0.2287 -0.6696  0.4890
13993SOL    HW143718   0.772   0.292   3.311 -2.0394  0.2240  0.2152
13993SOL    HW243719   0.727   0.173   3.228 -0.7501 -0.4113  0.4058
13994SOL     OW43720   8.868   1.367   3.484  0.5188 -0.0092  0.4682
13994SOL    HW143721   8.933   1.420   3.530  0.3284 -0.3171  1.1120
13994SOL    HW243722   8.899   1.277   3.493 -0.8099 -0.3517  2.2294
13995SOL     OW43723   5.462   2.380   8.501  0.5645  0.1489  0.0212
13995SOL    HW143724   5.367   2.378   8.495  0.6426 -0.1817 -1.2292
13995SOL    HW243725   5.490   2.291   8.480  1.0960 -0.1335  1.7466
13996SOL     OW43726   4.241   5.628   8.529 -0.4522 -0.3301 -0.1700
13996SOL    HW143727   4.315   5.650   8.586 -0.5962 -1.7411  0.5995
13996SOL    HW243728   4.251   5.687   8.454 -0.4579  1.8392  1.4289
13997SOL     OW43729   4.880   2.157   0.056 -0.4979 -0.1089  0.2427
13997SOL    HW143730   4.924   2.206  -0.013 -1.5388 -1.8104 -1.7136
13997SOL    HW243731   4.786   2.173   0.041 -0.7659 -1.0645  0.8312
13998SOL     OW43732   1.683   0.671   5.968 -0.0861  0.0136 -0.6959
13998SOL    HW143733   1.737   0.749   5.959  1.6726 -0.6429  2.7542
13998SOL    HW243734   1.743   0.598   5.954 -0.6477 -0.7284  0.5988
13999SOL     OW43735   6.714   3.493   5.598  0.0117 -0.3532 -0.4322
13999SOL    HW143736   6.792   3.493   5.542  1.0325 -0.9489  0.9597
13999SOL    HW243737   6.697   3.586   5.616  1.6141 -0.2946  0.8935
14000SOL     OW43738   6.242   1.047   1.820  0.3997  0.0687 -0.1060
14000SOL    HW143739   6.315   1.012   1.769  0.7617 -0.0837  0.5036
14000SOL    HW243740   6.263   1.139   1.832  1.1565 -0.2490  1.1668
14001SOL     OW43741   4.738   7.207   9.355  0.0673  0.8851 -0.3267
14001SOL    HW143742   4.675   7.190   9.285 -0.4802  0.7005  0.2009
14001SOL    HW243743   4.810   7.147   9.336  0.0090  0.9739 -0.8421
14002SOL     OW43744   6.143   8.142   6.351 -0.0027  0.0779 -0.0509
14002SOL    HW143745   6.166   8.198   6.278  1.8030 -0.4376  0.0926
14002SOL    HW243746   6.061   8.099   6.324 -0.0480  0.8541 -1.1961
14003SOL     OW43747   6.972   2.412   3.008 -0.1577 -0.9856 -0.1240
14003SOL    HW143748   6.926   2.492   2.984  1.5876  1.6986  4.1601
14003SOL    HW243749   6.906   2.359   3.052 -0.9377 -1.0792 -1.3772
14004SOL     OW43750   4.782   7.732   0.221  0.3355 -0.6605  0.2411
14004SOL    HW143751   4.742   7.819   0.224  0.4450 -0.6081  0.1887
14004SOL    HW243752   4.826   7.723   0.305  0.5243 -0.5693  0.1521
14005SOL     OW43753   2.050   1.353   5.223  0.3101  0.1740 -0.0931
14005SOL    HW143754   2.045   1.326   5.131 -2.7203 -0.1504  0.0850
14005SOL    HW243755   2.026   1.446   5.222 -1.0104 -0.1407  0.4521
14006SOL     OW43756   4.137   8.000   0.703  0.7373 -0.6302  0.3659
14006SOL    HW143757   4.199   7.934   0.735 -0.4633 -1.0322  1.9697
14006SOL    HW243758   4.051   7.959   0.710  0.1164  0.4988 -0.2787
14007SOL     OW43759   3.393   5.315   3.561 -0.0242  0.5768  0.1880
14007SOL    HW143760   3.445   5.387   3.525 -0.4689  1.2275  0.8235
14007SOL    HW243761   3.427   5.303   3.650 -1.1773  1.2565  0.7475
14008SOL     OW43762   2.184   6.971   0.859  0.5491 -0.5000 -0.0537
14008SOL    HW143763   2.149   6.982   0.947 -0.8080  0.4027 -0.6685
14008SOL    HW243764   2.259   6.913   0.870 -0.1464 -1.1503  1.5574
14009SOL     OW43765   8.260   8.071   1.736 -0.1551 -0.0841 -0.2552
14009SOL    HW143766   8.180   8.121   1.722 -0.5013 -0.5387  0.0807
14009SOL    HW243767   8.243   7.986   1.697  0.2023 -0.1521 -0.2712
14010SOL     OW43768   4.875   0.061   2.470 -0.1441  0.0911  0.3590
14010SOL    HW143769   4.850   0.139   2.520  1.0738 -1.3008  3.3729
14010SOL    HW243770   4.912   0.096   2.388 -0.5044  2.6041  1.1755
14011SOL     OW43771   8.337   6.780   2.349  0.1556 -0.5188 -0.0550
14011SOL    HW143772   8.329   6.715   2.418 -0.2676 -0.3335  0.0778
14011SOL    HW243773   8.256   6.831   2.355  0.1577 -0.4384 -0.6210
14012SOL     OW43774   2.598   9.562   7.570  0.0824  0.2133 -0.0078
14012SOL    HW143775   2.611   9.480   7.618 -0.0828  0.7879  1.0286
14012SOL    HW243776   2.617   9.631   7.633  1.8818  1.0107 -1.3126
14013SOL     OW43777   7.053   8.042   0.205 -0.0368  0.3425 -0.5502
14013SOL    HW143778   7.146   8.051   0.228  0.0615 -0.5330 -0.5849
14013SOL    HW243779   7.053   8.015   0.113 -0.2822 -0.7152 -0.2517
14014SOL     OW43780   8.684   0.445   2.558 -0.7489 -0.8942  0.4762
14014SOL    HW143781   8.662   0.421   2.648 -0.4955  2.4848  1.5874
14014SOL    HW243782   8.599   0.461   2.517 -0.8167 -0.0493  0.9156
14015SOL     OW43783   1.469   6.968   3.781  0.0113 -0.7676  0.8508
14015SOL    HW143784   1.446   6.895   3.723 -0.1912  0.1664 -0.2872
14015SOL    HW243785   1.465   7.045   3.724  1.9459 -0.0731  1.5919
14016SOL     OW43786   7.427   2.961   5.094  0.8087  0.7103 -0.4610
14016SOL    HW143787   7.479   2.943   5.016  1.4572  1.8797 -0.3178
14016SOL    HW243788   7.424   3.057   5.100 -0.9565  0.6765 -0.1949
14017SOL     OW43789   4.069   3.942   0.627  0.1093  0.4751 -0.2784
14017SOL    HW143790   4.136   3.932   0.560 -0.9416  0.9415 -1.4399
14017SOL    HW243791   4.095   3.881   0.696  0.6038 -0.9094 -1.6201
14018SOL     OW43792   7.800   7.048   4.624  0.2206 -0.2422  0.9116
14018SOL    HW143793   7.860   7.002   4.683  1.4881 -0.0322 -0.1884
14018SOL    HW243794   7.786   7.133   4.667 -0.1086 -0.6697  1.6749
14019SOL     OW43795   0.303   3.506   3.114  0.2514  0.0995  0.1946
14019SOL    HW143796   0.342   3.435   3.166 -1.2095 -0.2804  0.8164
14019SOL    HW243797   0.343   3.496   3.027  0.0587 -1.5307  0.2574
14020SOL     OW43798   1.060   3.928   1.325 -0.1042  0.1889  0.3187
14020SOL    HW143799   1.056   3.941   1.419  0.1911  2.9957  0.0245
14020SOL    HW243800   1.069   4.016   1.288 -2.4679 -0.5337 -2.4700
14021SOL     OW43801   8.802   0.106   2.891  0.1963  0.5262 -0.2455
14021SOL    HW143802   8.800   0.014   2.865  0.0815  0.5760 -0.4074
14021SOL    HW243803   8.712   0.127   2.915  0.5622  0.0160  1.7867
14022SOL     OW43804   2.371   4.305   7.600 -0.3497 -0.3171  1.0883
14022SOL    HW143805   2.307   4.316   7.530 -0.1421 -2.1035  0.5764
14022SOL    HW243806   2.398   4.213   7.595  0.1911 -0.3246  3.0714
14023SOL     OW43807   4.411   6.769   7.070  0.0813  0.2741 -0.4629
14023SOL    HW143808   4.398   6.823   7.148 -0.0933 -0.4641  0.0310
14023SOL    HW243809   4.370   6.819   6.999 -2.0759 -0.2176  0.3688
14024SOL     OW43810   4.617   9.566   2.412 -0.2752  0.0402  0.0437
14024SOL    HW143811   4.684   9.627   2.442  0.3212 -0.8534  0.5611
14024SOL    HW243812   4.616   9.497   2.478 -0.2674 -1.0032 -1.0254
14025SOL     OW43813   1.160   8.711   0.440 -0.0823  0.0379 -0.3860
14025SOL    HW143814   1.137   8.784   0.383 -3.1118 -1.3068 -1.0977
14025SOL    HW243815   1.193   8.644   0.380  0.9406  0.1502  0.0357
14026SOL     OW43816   1.500   8.000   0.555  0.3689 -0.3917 -0.0777
14026SOL    HW143817   1.458   8.037   0.477 -1.5930 -1.7497  0.2939
14026SOL    HW243818   1.442   8.023   0.627  1.6972  0.0405  0.8884
14027SOL     OW43819   9.580   0.314   3.263  0.1561  0.9989  0.2847
14027SOL    HW143820   9.633   0.298   3.185 -1.5119  0.1208 -0.7234
14027SOL    HW243821   9.583   0.409   3.275  0.1922  1.1719 -1.0238
14028SOL     OW43822   4.869   3.745   1.397  0.0133  0.2830 -0.1122
14028SOL    HW143823   4.925   3.730   1.321 -0.2648  1.3179 -0.5476
14028SOL    HW243824   4.919   3.713   1.471  0.2033 -0.9557 -0.7503
14029SOL     OW43825   4.160   6.666   7.316 -0.9946 -0.1757  0.4694
14029SOL    HW143826   4.159   6.725   7.241 -0.5255 -0.6852  0.0540
14029SOL    HW243827   4.078   6.684   7.362 -1.8857 -0.7170 -0.8403
14030SOL     OW43828   8.078   5.785   7.275  0.4101 -0.0177 -0.2706
14030SOL    HW143829   8.156   5.768   7.327  0.6831  0.6953 -0.4385
14030SOL    HW243830   8.107   5.776   7.184 -0.3205 -2.4155 -0.3397
14031SOL     OW43831   1.410   7.276   2.901 -0.1311 -0.2175 -0.1201
14031SOL    HW143832   1.316   7.270   2.889 -0.1266 -0.8419  0.1612
14031SOL    HW243833   1.431   7.368   2.880 -0.5667 -0.4596 -1.7472
14032SOL     OW43834   9.486   8.089   2.742  0.5556  0.1960  0.1409
14032SOL    HW143835   9.487   8.102   2.837 -0.0078 -0.3539  0.2262
14032SOL    HW243836   9.442   8.166   2.707  0.0635  0.0284  0.3880
14033SOL     OW43837   1.044   5.485   3.535 -0.2259 -1.0658  0.4554
14033SOL    HW143838   1.010   5.540   3.465  0.5265 -3.9378 -2.3813
14033SOL    HW243839   0.980   5.414   3.544  1.4646 -2.7367 -0.0047
14034SOL     OW43840   2.862   1.313   7.886  0.5550 -0.2724  0.0019
14034SOL    HW143841   2.845   1.222   7.911 -1.9215  0.7292  2.5114
14034SOL    HW243842   2.912   1.349   7.958  1.1304  0.5013 -0.7598
14035SOL     OW43843   5.173   1.181   8.666 -0.1275 -0.7146 -0.3569
14035SOL    HW143844   5.146   1.269   8.640 -1.7926 -1.3558 -0.9530
14035SOL    HW243845   5.267   1.178   8.647  0.0882  1.1035  0.2324
14036SOL     OW43846   2.322   5.363   1.017 -0.2269  0.0929 -0.2280
14036SOL    HW143847   2.231   5.386   0.997 -0.5406 -0.0596  0.9948
14036SOL    HW243848   2.316   5.300   1.088  0.6640 -2.9780 -2.6407
14037SOL     OW43849   1.219   1.372   8.295 -0.0268 -0.2035 -0.2106
14037SOL    HW143850   1.168   1.295   8.268  0.2067 -0.2557 -0.5090
14037SOL    HW243851   1.160   1.446   8.281  0.5276 -0.0684 -2.1858
14038SOL     OW43852   4.786   3.463   0.595 -0.6928  0.6278  0.4183
14038SOL    HW143853   4.774   3.471   0.500 -0.8716  1.0132  0.4683
14038SOL    HW243854   4.768   3.551   0.628  0.6778  0.8249  0.6783
14039SOL     OW43855   6.936   9.152   9.005  0.2253  0.2823 -0.7719
14039SOL    HW143856   6.921   9.196   9.089  1.8778 -0.7471  0.1341
14039SOL    HW243857   6.854   9.107   8.987 -0.4681  1.2586 -0.1865
14040SOL     OW43858   7.171   6.437   2.173  0.0017  0.3193 -0.3610
14040SOL    HW143859   7.226   6.513   2.194  0.7645 -0.5219  0.7865
14040SOL    HW243860   7.183   6.378   2.247 -0.7827 -0.8223 -1.1202
14041SOL     OW43861   2.489   9.254   6.242 -0.0459 -0.5367  0.2992
14041SOL    HW143862   2.569   9.207   6.220 -1.3438 -2.6162 -0.2983
14041SOL    HW243863   2.483   9.324   6.177  1.1677 -0.4778  0.2452
14042SOL     OW43864   3.701   0.130   8.967  0.0145 -0.5506 -0.9714
14042SOL    HW143865   3.694   0.042   9.002 -1.2762  0.0000  0.2495
14042SOL    HW243866   3.672   0.187   9.039  1.0649  0.8893 -1.6315
14043SOL     OW43867   3.233   2.476   2.639 -0.3574  0.0545  0.4482
14043SOL    HW143868   3.267   2.412   2.576  0.5528  1.1647 -0.2510
14043SOL    HW243869   3.303   2.485   2.704 -0.5434  0.2158  0.6269
14044SOL     OW43870   8.996   4.065   8.158  0.7728  0.3880  0.1119
14044SOL    HW143871   8.953   4.146   8.133  0.8485  0.6223  0.7123
14044SOL    HW243872   8.976   4.055   8.251  2.3897  0.7597  0.5342
14045SOL     OW43873   6.093   6.507   2.650 -0.0029  0.0294  0.6052
14045SOL    HW143874   6.006   6.541   2.668  0.3458  0.5695  1.3420
14045SOL    HW243875   6.078   6.426   2.602 -0.9282 -0.2170  1.2824
14046SOL     OW43876   9.116   2.619   7.352 -0.3564 -0.6135  0.4548
14046SOL    HW143877   9.142   2.578   7.435  1.3687  0.3518  0.4226
14046SOL    HW243878   9.171   2.577   7.286  1.5029  1.6972  0.4283
14047SOL     OW43879   7.169   9.550   7.720  0.0725 -0.1730 -0.1697
14047SOL    HW143880   7.139   9.561   7.629  0.4916 -1.2419 -0.4380
14047SOL    HW243881   7.263   9.567   7.717 -0.2130  1.8238  0.4453
14048SOL     OW43882   6.244   5.168   9.183  0.1322 -0.3571 -0.1057
14048SOL    HW143883   6.237   5.176   9.088  0.2579  1.4900  0.0053
14048SOL    HW243884   6.297   5.090   9.197  0.3184 -0.5143 -1.5588
14049SOL     OW43885   8.445   2.031   8.886  0.1975  0.0594 -0.1970
14049SOL    HW143886   8.394   2.112   8.878  0.6584  0.2346 -1.9450
14049SOL    HW243887   8.534   2.057   8.861  0.7832 -0.5907  1.1533
14050SOL     OW43888   5.403   7.267   0.942  0.0361  0.5983 -0.0295
14050SOL    HW143889   5.458   7.324   0.887 -0.0680  0.3072 -0.4396
14050SOL    HW243890   5.341   7.228   0.881 -0.4398  0.6978  0.3896
14051SOL     OW43891   8.389   4.650   6.778 -0.0425  0.1675 -0.5023
14051SOL    HW143892   8.482   4.670   6.765  0.3315 -1.2656 -0.2145
14051SOL    HW243893   8.385   4.609   6.864 -0.8457 -0.3653 -0.7809
14052SOL     OW43894   6.367   8.585   5.213  0.3216  0.3543 -0.1792
14052SOL    HW143895   6.457   8.607   5.236  0.6673  0.7256 -1.7447
14052SOL    HW243896   6.374   8.501   5.167 -0.2231  0.0569  0.2704
14053SOL     OW43897   3.750   8.248   1.582 -0.1599 -0.2177  0.2284
14053SOL    HW143898   3.773   8.319   1.642 -0.9980  0.9648 -0.7908
14053SOL    HW243899   3.815   8.254   1.512 -0.5412 -0.1202 -0.1209
14054SOL     OW43900   7.288   3.045   3.794 -0.1772 -0.1131 -0.2673
14054SOL    HW143901   7.316   2.993   3.719 -0.5754  0.0543 -0.5370
14054SOL    HW243902   7.209   3.001   3.825 -1.2837  1.0642 -1.3136
14055SOL     OW43903   7.278   2.293   9.064  0.4742 -0.1520 -0.4071
14055SOL    HW143904   7.234   2.374   9.090 -0.7178 -0.8059 -0.3035
14055SOL    HW243905   7.369   2.319   9.050  0.9298  0.5599  2.9672
14056SOL     OW43906   4.657   2.603   8.332 -0.5332 -0.4524 -0.6795
14056SOL    HW143907   4.711   2.681   8.318 -0.9932 -0.2214 -1.1909
14056SOL    HW243908   4.720   2.531   8.335 -0.3349 -0.6247 -4.4211
14057SOL     OW43909   8.126   6.465   4.041  0.1331  0.0031  0.2840
14057SOL    HW143910   8.109   6.374   4.064  1.0845 -0.3227 -0.2140
14057SOL    HW243911   8.221   6.469   4.032 -0.0580  0.4078 -2.2302
14058SOL     OW43912   3.214   5.534   6.503 -0.0916  0.5561 -0.1309
14058SOL    HW143913   3.154   5.460   6.512 -0.1357 -0.2408 -4.6898
14058SOL    HW243914   3.157   5.611   6.509 -1.0394 -0.0540 -0.9436
14059SOL     OW43915   6.359   5.277   8.214  0.1700  0.1175 -0.2541
14059SOL    HW143916   6.391   5.361   8.247 -1.6239  0.5075  0.6307
14059SOL    HW243917   6.423   5.213   8.245  1.6117  1.1309 -1.0030
14060SOL     OW43918   4.079   8.515   4.064 -1.0557  0.5169 -0.2845
14060SOL    HW143919   4.022   8.528   4.140 -1.6307  0.0998 -0.6353
14060SOL    HW243920   4.020   8.518   3.989 -0.6227  0.0563 -0.6514
14061SOL     OW43921   6.660   7.056   6.973 -0.1879  0.0488  0.6731
14061SOL    HW143922   6.634   6.965   6.988  1.4382 -0.6115 -0.2510
14061SOL    HW243923   6.652   7.097   7.060 -3.0913 -0.3171  0.6909
14062SOL     OW43924   4.612   9.529   2.137 -0.5384 -0.2428  0.0030
14062SOL    HW143925   4.610   9.533   2.233 -0.5085 -0.9353  0.0357
14062SOL    HW243926   4.650   9.613   2.111 -0.0099 -0.2763  0.6195
14063SOL     OW43927   4.008   0.740   4.917 -0.0966 -0.0398 -0.6892
14063SOL    HW143928   3.918   0.709   4.902 -0.8211  1.7314 -0.2415
14063SOL    HW243929   4.019   0.737   5.012  0.8800 -1.6665 -0.8295
14064SOL     OW43930   4.688   1.636   8.104  0.6870 -0.5817  0.5336
14064SOL    HW143931   4.758   1.583   8.064  0.8640 -0.9371  1.3064
14064SOL    HW243932   4.659   1.585   8.179  0.1369 -0.0602  0.6818
14065SOL     OW43933   1.059   1.129   8.198 -0.3055  0.3733  0.7123
14065SOL    HW143934   0.987   1.190   8.214  1.5712  2.7924  0.5898
14065SOL    HW243935   1.053   1.066   8.270 -1.4667  1.5749  1.7377
14066SOL     OW43936   9.308   8.364   1.922  0.2611 -0.3251 -0.0577
14066SOL    HW143937   9.220   8.329   1.906 -0.4580  0.9671  0.8548
14066SOL    HW243938   9.325   8.346   2.014 -0.3302  2.0124  0.5769
14067SOL     OW43939   3.253   3.215   5.578 -0.3425 -0.3112 -0.1677
14067SOL    HW143940   3.259   3.120   5.565  1.4060 -0.2856  0.2609
14067SOL    HW243941   3.331   3.250   5.535 -1.5548  1.0823 -1.3631
14068SOL     OW43942   0.408   9.492   1.543 -0.6198  0.0564 -0.6322
14068SOL    HW143943   0.467   9.419   1.564  0.9815  1.0555 -1.4046
14068SOL    HW243944   0.321   9.454   1.545  0.0182 -1.4663  0.7551
14069SOL     OW43945   6.248   9.452   7.087 -0.0155  0.2994 -0.4450
14069SOL    HW143946   6.196   9.513   7.139  2.8612  0.0746  3.1273
14069SOL    HW243947   6.190   9.377   7.072 -1.2842  0.7332  1.8400
14070SOL     OW43948   3.139   7.033   6.508  0.3456  0.7147 -0.2014
14070SOL    HW143949   3.069   7.020   6.444  0.4931 -0.4904 -0.1557
14070SOL    HW243950   3.102   7.003   6.591  1.6843 -2.6056 -0.6311
14071SOL     OW43951   1.861   3.810   2.045 -0.4851 -0.9462 -0.4530
14071SOL    HW143952   1.847   3.765   2.129 -0.7663  0.0371  0.0351
14071SOL    HW243953   1.795   3.772   1.987  0.4041 -2.4089 -0.5533
14072SOL     OW43954   6.969   2.249   3.682 -0.1983 -0.0750  0.5081
14072SOL    HW143955   7.031   2.298   3.737  0.6640 -1.0273  0.4047
14072SOL    HW243956   6.989   2.157   3.700  0.5151 -0.4299 -1.8426
14073SOL     OW43957   5.466   3.482   1.945  0.6466 -0.5105 -0.0961
14073SOL    HW143958   5.507   3.567   1.929  0.5061 -0.4435 -0.0999
14073SOL    HW243959   5.475   3.434   1.862  0.5430 -0.4242 -0.1562
14074SOL     OW43960   2.520   3.667   2.353 -0.0899  0.0443 -0.8323
14074SOL    HW143961   2.484   3.756   2.357 -0.6092 -0.1456 -1.1697
14074SOL    HW243962   2.465   3.616   2.412  0.3902  0.0039 -0.4157
14075SOL     OW43963   7.035   3.254   2.455  0.1340 -0.2021  0.4626
14075SOL    HW143964   6.942   3.273   2.459  0.1869 -0.1339  1.4283
14075SOL    HW243965   7.063   3.290   2.371 -1.2100 -2.5211 -1.1070
14076SOL     OW43966   5.398   9.534   0.140  0.2798  0.2525  0.2793
14076SOL    HW143967   5.345   9.470   0.187  0.8323 -0.9828 -0.7306
14076SOL    HW243968   5.460   9.567   0.205  1.5277 -1.9724  0.3024
14077SOL     OW43969   8.432   3.641   6.849 -0.5964 -0.1450 -0.1797
14077SOL    HW143970   8.437   3.656   6.944 -1.3329  2.8302 -0.5430
14077SOL    HW243971   8.342   3.611   6.834 -1.9168  3.4375 -0.2982
14078SOL     OW43972   5.179   1.944   8.857 -0.2722  0.2742  0.0564
14078SOL    HW143973   5.103   1.944   8.914  0.4125  0.0510  0.9831
14078SOL    HW243974   5.167   1.867   8.801 -1.0158  0.5791 -0.2107
14079SOL     OW43975   3.733   9.164   5.978 -0.3403  0.3104 -0.4091
14079SOL    HW143976   3.705   9.122   5.897  1.0000  0.0384 -0.7473
14079SOL    HW243977   3.828   9.157   5.977 -0.3560 -1.3976  2.0837
14080SOL     OW43978   9.166   7.938   4.444 -0.0591 -0.0126 -0.2949
14080SOL    HW143979   9.123   7.947   4.529 -0.5464 -1.0833 -0.4198
14080SOL    HW243980   9.119   7.868   4.400  0.9286 -0.2599 -0.9962
14081SOL     OW43981   7.615   2.106   6.492 -0.2115  0.3444  0.1901
14081SOL    HW143982   7.589   2.155   6.414 -0.4865 -2.6911 -1.7885
14081SOL    HW243983   7.702   2.071   6.471 -0.0511 -0.0572  1.4608
14082SOL     OW43984   7.575   8.853   5.506 -0.1653 -0.2456 -0.0180
14082SOL    HW143985   7.545   8.841   5.416  0.5201 -0.9672 -0.1565
14082SOL    HW243986   7.662   8.814   5.508  0.7671  1.7413  0.3981
14083SOL     OW43987   1.241   3.329   0.074 -0.5561  0.3477 -0.2794
14083SOL    HW143988   1.324   3.306   0.032  0.8464  1.3117  1.8092
14083SOL    HW243989   1.181   3.347   0.001  1.1384 -0.0699 -1.8394
14084SOL     OW43990   0.037   3.643   6.245 -0.7394  0.7740  0.0176
14084SOL    HW143991   0.022   3.574   6.311  1.2479  0.5007  0.2365
14084SOL    HW243992  -0.002   3.608   6.165  1.1457 -1.1385 -0.1416
14085SOL     OW43993   6.635   7.104   8.055  0.1518  0.6656 -0.0807
14085SOL    HW143994   6.552   7.085   8.011 -0.1350  0.2457  0.6281
14085SOL    HW243995   6.650   7.197   8.039 -0.7255  0.8716  0.2260
14086SOL     OW43996   7.917   2.346   3.234 -0.3087 -0.0121 -0.4190
14086SOL    HW143997   7.933   2.272   3.175  1.1837  0.0344 -0.1128
14086SOL    HW243998   7.868   2.409   3.182 -2.4111 -1.5605 -0.4297
14087SOL     OW43999   4.985   5.971   2.322  0.1110 -0.0923 -0.2227
14087SOL    HW144000   5.038   6.036   2.369  2.1818 -2.0872  0.4227
14087SOL    HW244001   4.943   5.920   2.392 -0.8786  0.0543 -0.7000
14088SOL     OW44002   2.547   3.245   4.057 -0.4153  0.2558 -0.0575
14088SOL    HW144003   2.476   3.194   4.098  1.2815 -1.4021  0.9472
14088SOL    HW244004   2.605   3.180   4.020  1.2810  1.5054  0.3048
14089SOL     OW44005   0.016   3.180   4.220 -0.1714 -0.1451  0.6088
14089SOL    HW144006  -0.051   3.193   4.286  1.5347  0.3155  2.3305
14089SOL    HW244007   0.015   3.260   4.168 -1.8763 -0.7226 -0.3106
14090SOL     OW44008   0.626   6.290   0.764 -0.9693  0.0355 -0.2288
14090SOL    HW144009   0.645   6.381   0.787  0.6884 -0.4369  0.3581
14090SOL    HW244010   0.541   6.272   0.806 -1.6992  1.5168 -0.9968
14091SOL     OW44011   6.291   4.417   6.192 -0.2986  0.1402  0.4979
14091SOL    HW144012   6.279   4.331   6.153 -1.4960  0.1914  0.7082
14091SOL    HW244013   6.209   4.433   6.240  0.9886  0.2054  2.7968
14092SOL     OW44014   6.326   7.869   7.004  0.0180 -0.4144  0.1539
14092SOL    HW144015   6.335   7.822   7.087 -0.6932 -0.6138  0.1192
14092SOL    HW244016   6.298   7.957   7.028  0.0679 -0.3924  0.1345
14093SOL     OW44017   2.395   9.219   9.085  0.0568 -0.0746 -0.6714
14093SOL    HW144018   2.364   9.303   9.053 -0.1866  0.6289  1.2614
14093SOL    HW244019   2.471   9.199   9.031  0.8257  1.9634 -0.4047
14094SOL     OW44020   6.697   8.971   8.986  0.2710  0.2344  0.9257
14094SOL    HW144021   6.633   9.042   8.981  0.6545  0.5233 -0.3979
14094SOL    HW244022   6.644   8.891   8.996 -0.2487  0.5537  0.7474
14095SOL     OW44023   1.657   9.057   5.899  0.6534 -0.7035  0.0157
14095SOL    HW144024   1.626   8.980   5.947  2.4535 -0.7791  1.1520
14095SOL    HW244025   1.698   9.022   5.821  0.5502 -0.8217  0.0142
14096SOL     OW44026   1.044   3.381   3.637 -0.7013  0.3894 -0.8736
14096SOL    HW144027   1.036   3.289   3.613 -3.0114  0.5063 -0.7885
14096SOL    HW244028   0.973   3.396   3.700  1.0122  1.7174  0.8890
14097SOL     OW44029   7.932   8.512   5.864  0.2052 -0.3975 -0.4298
14097SOL    HW144030   7.862   8.455   5.833  0.5150 -1.8096  1.3157
14097SOL    HW244031   7.956   8.477   5.950  1.1386  1.7614  0.2595
14098SOL     OW44032   2.007   2.730   8.605 -0.1103  0.2209  0.1672
14098SOL    HW144033   1.957   2.811   8.612 -0.1737  0.1172  0.9142
14098SOL    HW244034   2.034   2.727   8.513 -1.6917  0.1374 -0.3153
14099SOL     OW44035   7.998   3.473   6.400 -0.2447  0.1311 -0.2455
14099SOL    HW144036   7.934   3.523   6.450 -0.4472 -2.3336  2.2225
14099SOL    HW244037   7.945   3.414   6.346 -0.0679 -0.1648 -0.1010
14100SOL     OW44038   3.769   5.996   8.025  0.4821 -0.0354 -0.1031
14100SOL    HW144039   3.864   6.000   8.010  0.3791  1.4078 -0.5684
14100SOL    HW244040   3.733   6.063   7.967 -0.5544  1.2293  1.8912
14101SOL     OW44041   4.274   0.392   7.383  0.1610  0.2888 -0.0000
14101SOL    HW144042   4.197   0.350   7.343  0.8962 -0.1468 -0.9877
14101SOL    HW244043   4.280   0.477   7.339  0.3794  0.2242 -0.0960
14102SOL     OW44044   3.764   4.095   3.652 -0.6453 -0.1770  0.3974
14102SOL    HW144045   3.759   4.124   3.742  1.4364 -0.2589  0.6070
14102SOL    HW244046   3.731   4.005   3.653 -2.8917  0.6047  0.5773
14103SOL     OW44047   2.252   7.593   3.058 -0.4227 -0.2879  0.7579
14103SOL    HW144048   2.163   7.586   3.091 -0.3783 -0.4992  0.8344
14103SOL    HW244049   2.301   7.634   3.130 -0.2977 -0.8700  1.0124
14104SOL     OW44050   0.055   1.035   7.907  0.4904 -0.0504  0.0930
14104SOL    HW144051   0.103   1.042   7.989  2.0169  1.0851 -0.8431
14104SOL    HW244052   0.093   1.102   7.850 -2.2440  0.9889 -0.7228
14105SOL     OW44053   9.311   7.143   2.464  0.3966 -0.0772 -0.9422
14105SOL    HW144054   9.348   7.231   2.465  0.1210  0.0405 -1.2361
14105SOL    HW244055   9.376   7.090   2.512 -0.2947  0.6132  0.8532
14106SOL     OW44056   0.324   2.695   0.085 -0.2073 -0.0924  0.0118
14106SOL    HW144057   0.319   2.786   0.115 -1.0907  1.3781 -3.9524
14106SOL    HW244058   0.250   2.652   0.127 -0.2116  1.1892  1.4041
14107SOL     OW44059   6.295   4.063   8.712  0.3202  0.6570 -0.1893
14107SOL    HW144060   6.210   4.103   8.732 -1.4185 -1.5680 -2.5775
14107SOL    HW244061   6.304   3.992   8.775 -0.1822  0.1508 -0.6809
14108SOL     OW44062   9.584   0.021   3.060 -0.1036  0.2691  0.0774
14108SOL    HW144063   9.539  -0.040   3.002 -0.0166  0.4031 -0.1298
14108SOL    HW244064   9.616   0.090   3.003 -2.0425  1.6508  0.5632
14109SOL     OW44065   9.595   6.303   8.147 -0.0570  0.0358  0.4094
14109SOL    HW144066   9.587   6.241   8.220 -2.0890 -1.3729 -0.9019
14109SOL    HW244067   9.523   6.280   8.088  0.7996  1.8872 -1.4851
14110SOL     OW44068   1.228   6.378   2.873  0.0718 -0.1166 -0.5369
14110SOL    HW144069   1.165   6.320   2.829  0.3381 -0.4245 -0.5138
14110SOL    HW244070   1.207   6.466   2.839 -0.0160 -0.2905 -0.9408
14111SOL     OW44071   6.712   3.904   9.288  0.0295 -0.2527  0.5099
14111SOL    HW144072   6.633   3.937   9.245 -0.3129  0.7614  1.8588
14111SOL    HW244073   6.765   3.869   9.216 -1.6446 -1.0146 -0.4243
14112SOL     OW44074   3.811   1.473   5.297  0.1367  0.0300 -0.6749
14112SOL    HW144075   3.806   1.569   5.299  0.0801  0.0249 -0.5584
14112SOL    HW244076   3.903   1.454   5.313  0.0927  0.0563 -0.3951
14113SOL     OW44077   5.010   0.990   2.504 -0.2756  0.4478  0.8099
14113SOL    HW144078   5.041   0.937   2.578 -1.6094  0.3126  1.2924
14113SOL    HW244079   5.090   1.014   2.457  0.3536 -2.2113  0.3978
14114SOL     OW44080   6.050   0.892   5.287  0.1650  0.8276 -0.4710
14114SOL    HW144081   6.036   0.869   5.379  0.8875 -0.4777 -0.6551
14114SOL    HW244082   6.137   0.857   5.267 -0.1477  0.7420 -1.7519
14115SOL     OW44083   7.444   7.798   3.889  0.2466  0.3647  0.5375
14115SOL    HW144084   7.436   7.866   3.822  1.0118  1.0934  1.1599
14115SOL    HW244085   7.501   7.837   3.955 -0.8296 -0.1806  1.8217
14116SOL     OW44086   1.000   4.525   9.170 -0.3236 -0.5701 -0.0626
14116SOL    HW144087   0.956   4.559   9.248  1.2072  1.0987  0.1424
14116SOL    HW244088   1.076   4.477   9.205  1.0033  1.1172 -0.4661
14117SOL     OW44089   4.630   6.168   0.092 -0.1190  0.1323 -0.4822
14117SOL    HW144090   4.554   6.110   0.096  1.0644 -1.5739 -1.5058
14117SOL    HW244091   4.681   6.147   0.170 -0.2637  0.6516 -0.2443
14118SOL     OW44092   7.542   6.776   7.952 -0.5902  0.3182 -0.1093
14118SOL    HW144093   7.462   6.828   7.959 -1.1619 -0.6639  0.9991
14118SOL    HW244094   7.554   6.738   8.039 -0.4970 -1.8126 -0.9868
14119SOL     OW44095   9.230   5.607   3.277  0.1408  0.2913  0.5622
14119SOL    HW144096   9.223   5.551   3.354 -1.8746 -1.0851 -0.5405
14119SOL    HW244097   9.322   5.600   3.250  1.1600  1.6004  3.3218
14120SOL     OW44098   3.824   6.026   7.594 -0.1930 -0.4649  0.3479
14120SOL    HW144099   3.738   6.064   7.611  0.0366  1.0959 -1.5597
14120SOL    HW244100   3.884   6.101   7.593  1.2175 -1.5008  1.5320
14121SOL     OW44101   0.638   4.731   2.529  0.1837 -0.1127 -0.1557
14121SOL    HW144102   0.716   4.740   2.475  0.6567  0.2124  0.5682
14121SOL    HW244103   0.632   4.637   2.548  0.5180 -0.1083 -0.0322
14122SOL     OW44104   3.456   8.820   8.567  0.0526  0.6413 -0.3604
14122SOL    HW144105   3.386   8.880   8.594 -0.1515  0.3672 -0.2728
14122SOL    HW244106   3.459   8.754   8.636  0.0441  0.3631 -0.6224
14123SOL     OW44107   1.435   5.938   3.570 -0.5142 -0.1921  0.5371
14123SOL    HW144108   1.392   5.893   3.497  0.4484 -0.0770 -0.1155
14123SOL    HW244109   1.396   5.899   3.648  0.2686 -2.2029  0.0035
14124SOL     OW44110   4.125   1.886   8.104 -0.2082  0.3957  0.0527
14124SOL    HW144111   4.118   1.981   8.095 -1.1260  0.2641 -0.8686
14124SOL    HW244112   4.202   1.862   8.053  0.8635  0.7710  1.4408
14125SOL     OW44113   1.901   7.981   7.925 -0.2099 -0.4533  0.3769
14125SOL    HW144114   1.812   7.983   7.890  0.3715 -2.1029 -1.3806
14125SOL    HW244115   1.891   7.939   8.010 -0.9364 -2.6176 -0.6892
14126SOL     OW44116   7.127   2.678   3.158 -0.1173 -0.1859 -0.4781
14126SOL    HW144117   7.118   2.603   3.216 -0.1702 -0.4125 -0.7783
14126SOL    HW244118   7.073   2.657   3.082  0.7459 -0.3590 -1.0716
14127SOL     OW44119   2.415   9.335   4.514  0.2731 -0.7221 -0.0609
14127SOL    HW144120   2.367   9.346   4.597 -1.1203  0.5996 -0.9825
14127SOL    HW244121   2.452   9.247   4.519  1.3279 -0.2203  2.5018
14128SOL     OW44122   6.157   3.742   5.527 -0.4399 -0.6689  0.4312
14128SOL    HW144123   6.063   3.757   5.517 -0.5742  0.5775  2.8792
14128SOL    HW244124   6.165   3.692   5.608  1.1061  1.4607  1.6942
14129SOL     OW44125   0.905   2.692   7.069 -0.2673  0.1224 -0.1938
14129SOL    HW144126   0.949   2.714   6.987 -0.1309  0.1314 -0.1185
14129SOL    HW244127   0.967   2.717   7.138 -0.6686  0.7863 -0.0617
14130SOL     OW44128   6.151   9.201   5.524 -0.0363 -0.3704 -0.5075
14130SOL    HW144129   6.092   9.226   5.453 -0.1646  0.5538 -0.0976
14130SOL    HW244130   6.093   9.168   5.593 -0.1732  1.1732  0.1608
14131SOL     OW44131   7.038   6.034   5.365 -0.2028 -0.1928  0.3427
14131SOL    HW144132   7.017   5.978   5.440 -4.1800 -2.5788 -2.1871
14131SOL    HW244133   7.091   5.979   5.308  0.3009  0.5286  0.1007
14132SOL     OW44134   5.942   0.061   2.124 -0.6986 -0.3417  0.0677
14132SOL    HW144135   5.914  -0.030   2.120  1.0682 -0.9272 -0.2089
14132SOL    HW244136   5.950   0.088   2.032  1.7499 -0.9565  0.0267
14133SOL     OW44137   1.439   3.220   5.337 -0.0987  0.3809 -0.2032
14133SOL    HW144138   1.510   3.283   5.325  0.4179 -0.2026 -0.2617
14133SOL    HW244139   1.437   3.171   5.255 -1.2841  1.0870 -0.6297
14134SOL     OW44140   7.306   0.394   7.492  0.2033  0.4380 -0.3267
14134SOL    HW144141   7.369   0.322   7.491 -0.6897 -0.3523 -0.4423
14134SOL    HW244142   7.266   0.389   7.579 -0.6226  0.1124 -0.7175
14135SOL     OW44143   8.615   7.480   5.962 -0.2619  0.4129 -0.4059
14135SOL    HW144144   8.628   7.405   5.904 -1.6984 -0.3754  0.2336
14135SOL    HW244145   8.541   7.527   5.924 -0.3357  0.6569  0.0313
14136SOL     OW44146   3.030   5.524   8.060  0.5228 -0.4686  0.6856
14136SOL    HW144147   3.114   5.532   8.015  0.7032  4.1944  1.3605
14136SOL    HW244148   3.048   5.466   8.134  2.2426 -2.0644 -0.8734
14137SOL     OW44149   7.019   8.814   7.199 -0.0036  0.0013  0.3886
14137SOL    HW144150   6.945   8.769   7.158 -0.2922 -0.6486  1.5584
14137SOL    HW244151   7.005   8.906   7.180 -0.1795 -0.2563 -0.8512
14138SOL     OW44152   7.523   9.268   2.004 -0.1037  0.0320 -0.1712
14138SOL    HW144153   7.535   9.182   1.963  0.1986 -0.5210  1.0245
14138SOL    HW244154   7.606   9.284   2.050 -0.8720  0.0230  1.2678
14139SOL     OW44155   9.463   7.704   0.457 -0.1183  0.0306 -0.3153
14139SOL    HW144156   9.469   7.762   0.534 -0.1240  1.1175 -1.1116
14139SOL    HW244157   9.380   7.658   0.469  0.6731 -1.0875  1.1784
14140SOL     OW44158   5.007   3.711   5.397  0.0348  0.7687  0.1321
14140SOL    HW144159   4.955   3.634   5.421  0.1952  0.5977 -0.0658
14140SOL    HW244160   4.945   3.768   5.352 -0.4211  1.3608  1.4582
14141SOL     OW44161   1.165   3.027   8.474  0.2535  0.5249  0.1700
14141SOL    HW144162   1.231   3.086   8.511  0.0468  0.6483  0.3482
14141SOL    HW244163   1.215   2.963   8.423  0.3876  1.7651 -1.3191
14142SOL     OW44164   9.441   3.986   1.183  0.0918  0.1200  0.5253
14142SOL    HW144165   9.431   3.896   1.213  0.2086  0.1530  0.6676
14142SOL    HW244166   9.384   3.993   1.107  0.2910 -0.1523  0.3480
14143SOL     OW44167   6.675   1.620   1.886 -0.2711  0.3765  0.4867
14143SOL    HW144168   6.590   1.581   1.865  0.3476 -0.6352 -0.2184
14143SOL    HW244169   6.698   1.582   1.971  0.6606 -1.4576 -0.5197
14144SOL     OW44170   1.698   8.773   4.175 -0.3640 -0.1486 -1.2644
14144SOL    HW144171   1.713   8.826   4.253 -0.5485 -1.1028 -0.5617
14144SOL    HW244172   1.603   8.768   4.167 -0.3751  1.1818 -2.4422
14145SOL     OW44173   2.670   4.319   3.064 -0.6064 -0.4235  0.0347
14145SOL    HW144174   2.581   4.302   3.097 -1.3208  1.1838 -0.9260
14145SOL    HW244175   2.661   4.316   2.969  0.0984  0.9366 -0.0938
14146SOL     OW44176   6.317   4.687   4.078  0.2345  0.1235 -0.3874
14146SOL    HW144177   6.329   4.716   3.988  2.1067 -2.4374 -1.0759
14146SOL    HW244178   6.268   4.605   4.071 -0.5336  0.4179  1.0449
14147SOL     OW44179   0.215   4.067   5.983 -0.4837  0.0832  0.2163
14147SOL    HW144180   0.160   4.038   5.910 -2.2537  1.6998  0.8110
14147SOL    HW244181   0.295   4.097   5.941 -0.5062 -1.1865 -0.8118
14148SOL     OW44182   9.186   2.482   3.971 -0.1656  0.6155  0.1864
14148SOL    HW144183   9.200   2.576   3.963 -1.0639  0.7947  0.5613
14148SOL    HW244184   9.270   2.443   3.948  0.2665  1.5162  0.1911
14149SOL     OW44185   2.445   9.028   4.425 -0.3027 -0.3378 -0.2385
14149SOL    HW144186   2.492   9.060   4.502  0.3422 -0.5326 -0.5470
14149SOL    HW244187   2.510   8.977   4.376 -0.7780 -0.4424 -0.7731
14150SOL     OW44188   5.561   6.780   5.954 -0.0161  0.5548 -0.2287
14150SOL    HW144189   5.513   6.842   5.900 -0.3607  0.8769  0.4429
14150SOL    HW244190   5.653   6.803   5.940 -0.1555  1.5100  0.3511
14151SOL     OW44191   0.448   7.205   9.299 -0.2185 -0.2183  0.2513
14151SOL    HW144192   0.493   7.144   9.240 -0.8560 -0.2257 -0.2359
14151SOL    HW244193   0.435   7.284   9.247  1.2391  0.6184  1.1058
14152SOL     OW44194   1.519   1.075   1.213 -0.1421  0.0865 -0.4567
14152SOL    HW144195   1.588   1.122   1.166 -0.4314  0.9727 -0.0187
14152SOL    HW244196   1.483   1.140   1.273 -1.0352 -0.5059 -0.3387
14153SOL     OW44197   5.488   9.486   7.621 -0.9799 -0.2015 -0.2012
14153SOL    HW144198   5.507   9.395   7.598  0.2134 -0.2819  0.9924
14153SOL    HW244199   5.394   9.496   7.601 -1.1597 -1.7122 -0.2588
14154SOL     OW44200   3.873   8.813   5.646  0.4992 -0.2175  0.0631
14154SOL    HW144201   3.912   8.746   5.703  0.2588  0.6609  1.2973
14154SOL    HW244202   3.785   8.826   5.681 -0.0310 -0.3842 -1.1568
14155SOL     OW44203   4.398   2.158   3.425 -0.2108  0.2222 -0.3930
14155SOL    HW144204   4.316   2.200   3.450  0.6647  1.3279  0.7954
14155SOL    HW244205   4.456   2.230   3.401  1.6277 -0.0992  2.5426
14156SOL     OW44206   1.852   5.947   4.078  0.4775 -0.0417  0.1415
14156SOL    HW144207   1.896   5.889   4.140 -0.4675 -1.4310 -0.4436
14156SOL    HW244208   1.917   5.963   4.010  0.9419  0.0820  0.6085
14157SOL     OW44209   2.108   6.503   3.819  0.2143  0.3761 -0.1970
14157SOL    HW144210   2.183   6.549   3.856 -0.1529  0.6312  0.2524
14157SOL    HW244211   2.074   6.450   3.891  0.2216 -0.0729 -0.5180
14158SOL     OW44212   7.239   8.877   6.821 -0.4627 -0.7550  0.5301
14158SOL    HW144213   7.185   8.954   6.803 -1.2083 -0.7667  2.4787
14158SOL    HW244214   7.290   8.901   6.898  0.3747 -1.6994  0.2881
14159SOL     OW44215   6.523   9.038   2.227 -0.0726  0.1011  0.4888
14159SOL    HW144216   6.431   9.065   2.231 -0.7482 -1.9342 -0.2235
14159SOL    HW244217   6.571   9.110   2.268 -1.5618  2.9600 -2.3642
14160SOL     OW44218   6.332   0.257   8.168  0.0500  0.6219  0.2466
14160SOL    HW144219   6.253   0.247   8.114 -0.1696 -0.2295  0.7076
14160SOL    HW244220   6.318   0.197   8.242  1.6143 -0.3853 -0.2198
14161SOL     OW44221   0.586   0.488   1.793 -0.1244 -0.3973  0.1509
14161SOL    HW144222   0.630   0.481   1.878  1.4082 -2.0665 -0.7143
14161SOL    HW244223   0.572   0.398   1.766  0.1771  0.0768 -1.7416
14162SOL     OW44224   7.907   8.423   5.540  0.2496 -0.0415  0.2013
14162SOL    HW144225   7.909   8.336   5.581  0.8887  0.3664  1.0664
14162SOL    HW244226   7.850   8.412   5.464  1.0403 -1.4445 -0.2244
14163SOL     OW44227   7.877   8.513   8.818 -0.0311  0.1549  0.3004
14163SOL    HW144228   7.909   8.585   8.873  0.2294 -0.9226  1.5966
14163SOL    HW244229   7.824   8.459   8.876 -0.9028 -0.2865 -0.8511
14164SOL     OW44230   8.325   7.731   8.045 -0.2059  0.1320  0.3858
14164SOL    HW144231   8.386   7.693   8.108 -0.7536 -1.4693 -0.0055
14164SOL    HW244232   8.246   7.679   8.053 -1.0522  1.2967 -0.1066
14165SOL     OW44233   8.775   8.300   1.597  0.0293 -0.4014 -0.8483
14165SOL    HW144234   8.821   8.216   1.588  0.1386 -0.3066 -1.2089
14165SOL    HW244235   8.827   8.361   1.546  0.6655  0.1856  0.4609
14166SOL     OW44236   7.366   7.378   4.862 -0.4597 -0.2222  0.2359
14166SOL    HW144237   7.455   7.379   4.896 -0.3412  1.7431 -0.0357
14166SOL    HW244238   7.352   7.287   4.833  1.2776 -0.6596  0.6835
14167SOL     OW44239   1.797   8.580   8.933  0.1195  0.5518 -0.0537
14167SOL    HW144240   1.872   8.620   8.889 -0.2789 -0.1494 -1.4457
14167SOL    HW244241   1.722   8.633   8.904 -0.1150  0.2504  0.0008
14168SOL     OW44242   8.366   1.666   1.634 -0.0186 -0.4145 -0.0836
14168SOL    HW144243   8.451   1.626   1.612  0.1562  0.2745 -0.6996
14168SOL    HW244244   8.325   1.683   1.549 -0.2551  0.3559  0.1749
14169SOL     OW44245   4.386   5.414   7.827  0.0820 -0.4968  0.8690
14169SOL    HW144246   4.349   5.386   7.744  0.8454 -0.4412  0.4965
14169SOL    HW244247   4.451   5.346   7.849  1.0886  0.3418  0.5605
14170SOL     OW44248   6.201   0.236   7.386  0.2700 -0.3846 -0.5948
14170SOL    HW144249   6.108   0.239   7.363 -0.0916 -0.9660  0.6885
14170SOL    HW244250   6.205   0.277   7.472  0.9842 -1.6212 -0.0141
14171SOL     OW44251   3.192   1.188   4.418  0.3016  0.5828 -0.3061
14171SOL    HW144252   3.148   1.106   4.398  0.7621 -0.4041  2.2931
14171SOL    HW244253   3.137   1.255   4.377 -1.6220 -0.8410 -0.2123
14172SOL     OW44254   3.654   0.738   1.089  0.7467 -0.1185 -0.7647
14172SOL    HW144255   3.620   0.772   1.172  0.3278 -0.3123 -0.8531
14172SOL    HW244256   3.735   0.786   1.075  0.5475  0.2998 -0.5071
14173SOL     OW44257   5.566   8.443   7.398  0.1018 -0.1147  0.0799
14173SOL    HW144258   5.559   8.488   7.482 -1.8158  1.0815 -0.6584
14173SOL    HW244259   5.611   8.361   7.418  0.9213  0.7486  2.0082
14174SOL     OW44260   2.562   1.263   7.453 -0.4609  0.1089 -0.2762
14174SOL    HW144261   2.592   1.338   7.403  1.6565  0.0156  0.7634
14174SOL    HW244262   2.471   1.250   7.424 -1.0798  3.3253 -0.1428
14175SOL     OW44263   2.679   5.378   8.646  0.4438  0.0845  0.0420
14175SOL    HW144264   2.631   5.412   8.722 -0.8235 -0.6378 -0.4141
14175SOL    HW244265   2.642   5.423   8.571  1.1717  0.2429 -0.2300
14176SOL     OW44266   0.560   0.236   1.728  0.2483  0.2122  0.0413
14176SOL    HW144267   0.521   0.204   1.647  2.3596 -0.7660 -0.6671
14176SOL    HW244268   0.646   0.268   1.702 -0.4399  3.5537  1.2938
14177SOL     OW44269   8.413   9.276   0.648  0.2695  0.6555  0.1579
14177SOL    HW144270   8.347   9.285   0.579  0.9348 -3.0373 -1.1856
14177SOL    HW244271   8.363   9.263   0.728 -0.7245 -1.3490 -0.7223
14178SOL     OW44272   5.762   2.839   0.190 -0.0108 -0.4934  0.5036
14178SOL    HW144273   5.745   2.765   0.132  0.9632 -1.7437  1.7483
14178SOL    HW244274   5.678   2.885   0.197 -0.5301 -1.2384 -0.5968
14179SOL     OW44275   3.633   3.950   8.939  0.3299  0.0780  0.1120
14179SOL    HW144276   3.583   3.869   8.955  2.8469 -1.2456  1.9874
14179SOL    HW244277   3.664   3.941   8.849  0.0384 -0.7479  0.0796
14180SOL     OW44278   8.886   5.838   3.008 -0.3107  0.1407  0.2100
14180SOL    HW144279   8.903   5.779   3.081  0.3009 -0.0058 -0.0382
14180SOL    HW244280   8.973   5.866   2.980 -0.6147  2.5284  1.4025
14181SOL     OW44281   4.964   9.277   1.894  0.1741  0.5726  0.0111
14181SOL    HW144282   4.878   9.269   1.935 -1.4494  0.3086 -3.1499
14181SOL    HW244283   4.976   9.371   1.880 -0.3054  0.5129 -0.8559
14182SOL     OW44284   7.019   7.884   8.572  0.4189  0.5414  0.4451
14182SOL    HW144285   7.038   7.942   8.498 -1.7806  1.6403  0.6533
14182SOL    HW244286   7.030   7.796   8.538  0.3417  1.0448 -0.9228
14183SOL     OW44287   7.151   3.991   4.490 -0.1487  0.6298 -0.2986
14183SOL    HW144288   7.097   4.004   4.412  0.6096  0.4853 -0.8618
14183SOL    HW244289   7.119   3.910   4.529  0.6009 -0.2617 -1.4500
14184SOL     OW44290   0.228   1.954   7.594 -0.2386 -0.8514  0.1906
14184SOL    HW144291   0.221   1.934   7.501  0.3003 -1.2607  0.2329
14184SOL    HW244292   0.310   2.003   7.603 -2.4729  3.4440 -0.2210
14185SOL     OW44293   9.017   2.797   9.612 -0.3387  0.0881  0.1404
14185SOL    HW144294   9.009   2.820   9.519  1.4857 -1.7660 -0.5555
14185SOL    HW244295   9.068   2.716   9.612 -1.4272 -0.6871  2.7207
14186SOL     OW44296   4.144   8.288   7.318  0.0882  0.1532 -0.1885
14186SOL    HW144297   4.212   8.324   7.261 -0.9287  1.6107 -0.5246
14186SOL    HW244298   4.150   8.341   7.398 -1.8296  1.6115 -0.9186
14187SOL     OW44299   5.307   0.638   8.979  0.1039 -0.0300  0.3039
14187SOL    HW144300   5.388   0.602   9.016 -0.8106 -1.7523  0.7438
14187SOL    HW244301   5.248   0.563   8.974 -1.9133  1.4228  1.2201
14188SOL     OW44302   8.290   5.768   6.806  0.0211  0.0322  0.0064
14188SOL    HW144303   8.370   5.805   6.843  0.4931 -1.2039  0.2940
14188SOL    HW244304   8.275   5.817   6.725  0.1807  1.3232  0.7402
14189SOL     OW44305   6.068   4.811   9.527  0.0503 -0.4401  0.3565
14189SOL    HW144306   6.012   4.751   9.577  0.8995 -0.2401  1.5932
14189SOL    HW244307   6.156   4.774   9.534  0.1113 -0.7276 -1.5402
14190SOL     OW44308   0.841   3.102   3.554  0.1702 -0.0213  0.7152
14190SOL    HW144309   0.779   3.158   3.600 -0.8375 -0.0910 -0.4988
14190SOL    HW244310   0.787   3.035   3.513  1.0452 -0.1163 -0.3300
14191SOL     OW44311   2.805   1.029   3.667  0.0302  0.3549 -0.6137
14191SOL    HW144312   2.871   0.965   3.641 -0.3479 -0.0194 -0.6599
14191SOL    HW244313   2.839   1.112   3.636  0.7418  0.2402 -0.1553
14192SOL     OW44314   4.132   4.411   4.824 -0.4584  0.1086  0.2046
14192SOL    HW144315   4.127   4.359   4.905 -1.8276  0.3879  0.3195
14192SOL    HW244316   4.191   4.483   4.846  0.1334 -0.4725  0.5662
14193SOL     OW44317   2.379   0.806   9.422  0.1356 -0.4636  0.3582
14193SOL    HW144318   2.285   0.820   9.411 -0.1302 -1.7403  0.7932
14193SOL    HW244319   2.388   0.772   9.511  0.9876 -0.5347  0.2549
14194SOL     OW44320   5.309   8.636   6.934  0.0881  0.3619 -0.0730
14194SOL    HW144321   5.271   8.697   6.997  1.8095  0.3017  1.0933
14194SOL    HW244322   5.336   8.561   6.987 -0.9599 -0.9651 -1.3161
14195SOL     OW44323   9.342   4.644   4.225  0.1516  0.1824 -0.0580
14195SOL    HW144324   9.437   4.634   4.236 -0.2879 -3.5326  1.8369
14195SOL    HW244325   9.308   4.644   4.315 -1.7172  0.7111 -0.7356
14196SOL     OW44326   8.471   5.417   8.274 -0.0005  0.0151 -0.3193
14196SOL    HW144327   8.526   5.487   8.239 -0.5403  0.4951 -0.2176
14196SOL    HW244328   8.516   5.389   8.354 -0.6756  1.4693  0.6242
14197SOL     OW44329   5.411   3.921   1.741 -0.2642  0.4814 -0.4846
14197SOL    HW144330   5.380   4.007   1.772  1.6549  1.5415 -1.3731
14197SOL    HW244331   5.410   3.866   1.820 -0.8883  1.4905  0.2418
14198SOL     OW44332   8.461   6.145   3.671  0.9696 -0.2692  0.0770
14198SOL    HW144333   8.370   6.119   3.689  0.8172  0.2519  0.0792
14198SOL    HW244334   8.455   6.239   3.652  1.3395 -0.4750 -1.1492
14199SOL     OW44335   7.833   4.674   3.699 -1.0581  0.4343 -0.2097
14199SOL    HW144336   7.818   4.630   3.783 -1.9278 -0.2880 -0.7332
14199SOL    HW244337   7.748   4.709   3.675 -1.0863 -0.3786 -1.3582
14200SOL     OW44338   2.029   0.075   1.837 -0.3602  0.1373 -0.2431
14200SOL    HW144339   1.992   0.152   1.794 -1.0544 -1.0649 -1.8937
14200SOL    HW244340   2.076   0.029   1.768  1.3745 -0.1629  1.0604
14201SOL     OW44341   4.369   9.480   6.274 -0.3602 -0.0467  0.1887
14201SOL    HW144342   4.438   9.546   6.275 -0.8723  0.5093 -0.0332
14201SOL    HW244343   4.409   9.403   6.234 -0.6144  1.1334 -2.5235
14202SOL     OW44344   3.835   9.500   4.282  0.1665  0.1002 -0.2925
14202SOL    HW144345   3.923   9.506   4.320  0.4139  0.5199 -0.9253
14202SOL    HW244346   3.777   9.511   4.357  0.6459  2.0162 -0.1433
14203SOL     OW44347   7.029   8.047   6.556 -0.3721 -0.1995 -0.1372
14203SOL    HW144348   7.119   8.025   6.580 -0.1924  1.6978  1.1433
14203SOL    HW244349   6.977   8.022   6.633 -0.8546 -0.5662 -0.5689
14204SOL     OW44350   6.691   0.468   1.357 -0.1598 -0.3945  0.4899
14204SOL    HW144351   6.674   0.378   1.388 -1.8041 -0.7492 -1.2842
14204SOL    HW244352   6.608   0.497   1.322  0.9103  1.0250 -0.9914
14205SOL     OW44353   5.299   1.535   9.279 -0.5023 -0.5660 -0.2205
14205SOL    HW144354   5.268   1.521   9.190  0.3151 -1.1024 -0.4286
14205SOL    HW244355   5.375   1.593   9.270 -1.4887  0.8733  0.3015
14206SOL     OW44356   0.459   9.197   6.801  0.5432  0.4376 -0.1975
14206SOL    HW144357   0.405   9.195   6.723 -0.4408 -0.0719  0.4714
14206SOL    HW244358   0.546   9.219   6.770 -0.0653  1.3893 -1.2946
14207SOL     OW44359   5.675   6.807   2.929  0.1036  0.5067  0.1798
14207SOL    HW144360   5.589   6.771   2.908  0.4108  0.6497 -1.4859
14207SOL    HW244361   5.721   6.735   2.974  0.3600 -0.9210 -2.1972
14208SOL     OW44362   5.735   0.639   3.572 -0.5423  0.2880 -0.3916
14208SOL    HW144363   5.711   0.692   3.496  0.8308  0.8580 -0.4459
14208SOL    HW244364   5.670   0.661   3.638 -0.6437  1.1998 -0.7819
14209SOL     OW44365   7.011   4.693   9.285  0.1372 -0.4342 -0.2065
14209SOL    HW144366   6.995   4.614   9.336 -0.8335 -0.8432 -1.0958
14209SOL    HW244367   6.936   4.698   9.224 -2.0992  3.3183  2.3931
14210SOL     OW44368   2.403   9.179   1.485 -0.0490 -0.6768  1.1402
14210SOL    HW144369   2.391   9.268   1.452  1.3257 -0.6996  0.5307
14210SOL    HW244370   2.387   9.123   1.409  0.9667 -0.8486  1.0469
14211SOL     OW44371   4.116   9.292   8.588 -0.1968  0.0839 -0.2639
14211SOL    HW144372   4.023   9.292   8.565 -0.0047 -0.2180 -1.0984
14211SOL    HW244373   4.154   9.361   8.534 -0.2969  1.8409  1.7886
14212SOL     OW44374   7.145   6.833   2.437 -0.1890  0.1885  0.0440
14212SOL    HW144375   7.142   6.911   2.382 -0.0312 -1.2401 -2.1070
14212SOL    HW244376   7.083   6.773   2.397 -0.2308 -0.8501  1.5866
14213SOL     OW44377   5.521   3.399   4.563 -0.3810 -0.2728 -0.6743
14213SOL    HW144378   5.589   3.348   4.519 -0.0670  0.3493 -0.9347
14213SOL    HW244379   5.482   3.452   4.494  0.2653  0.8797 -0.1971
14214SOL     OW44380   8.851   7.668   2.827  0.0028  0.0656 -0.3819
14214SOL    HW144381   8.770   7.622   2.851  0.0753  0.4296  0.6189
14214SOL    HW244382   8.836   7.697   2.737 -0.6975 -0.4815 -0.4575
14215SOL     OW44383   8.430   2.242   5.746  0.7479  0.1179  0.2212
14215SOL    HW144384   8.365   2.172   5.754  1.3503 -0.5410 -0.5125
14215SOL    HW244385   8.511   2.204   5.780  0.9778  0.6067  0.2321
14216SOL     OW44386   1.202   6.905   6.711 -0.4850 -1.1062  0.1910
14216SOL    HW144387   1.298   6.902   6.715 -0.4532  0.4444  0.9130
14216SOL    HW244388   1.173   6.867   6.794 -0.4951 -1.2878  0.1051
14217SOL     OW44389   3.066   4.667   7.177  0.2511 -0.4769 -0.1389
14217SOL    HW144390   3.038   4.694   7.264 -0.6796  0.1098 -0.6060
14217SOL    HW244391   3.014   4.589   7.157 -2.1623  1.3682 -1.5443
14218SOL     OW44392   7.382   8.722   9.291  0.2939  0.2799 -0.6103
14218SOL    HW144393   7.382   8.807   9.336  0.4152 -0.1880  0.2863
14218SOL    HW244394   7.294   8.688   9.303  0.4402 -0.0222 -0.3914
14219SOL     OW44395   2.479   4.619   3.257  0.2304 -0.0711 -0.0647
14219SOL    HW144396   2.410   4.634   3.321 -0.9809  1.0163 -1.5665
14219SOL    HW244397   2.531   4.547   3.294 -1.5754 -0.7924  1.2005
14220SOL     OW44398   7.911   1.809   6.057 -0.5926  0.3164  0.5167
14220SOL    HW144399   7.953   1.887   6.092 -1.6500  1.3868 -0.5178
14220SOL    HW244400   7.979   1.742   6.058  0.6249  1.5230  0.5170
14221SOL     OW44401   4.451   5.330   5.790  0.7389  0.2157  0.2583
14221SOL    HW144402   4.456   5.247   5.742 -0.8177  0.2677 -0.0610
14221SOL    HW244403   4.424   5.394   5.724  0.4007  0.6604  0.8159
14222SOL     OW44404   7.826   5.850   8.274  0.5972 -0.0875  0.0104
14222SOL    HW144405   7.897   5.855   8.337 -0.0561  1.2509  0.6789
14222SOL    HW244406   7.799   5.758   8.275  3.1089 -0.9273 -1.2006
14223SOL     OW44407   2.967   5.678   5.845  0.3926 -0.5059  0.3694
14223SOL    HW144408   2.960   5.759   5.895  3.3268 -0.7943  1.4135
14223SOL    HW244409   2.920   5.613   5.897 -0.3042  0.1034  0.5121
14224SOL     OW44410   2.134   6.647   5.723 -0.1349  0.2237  0.4793
14224SOL    HW144411   2.085   6.575   5.683  0.3643  0.8014 -1.2465
14224SOL    HW244412   2.159   6.614   5.809  0.8221 -2.0179 -0.5850
14225SOL     OW44413   7.905   2.481   3.714  0.1184  0.3101  0.4653
14225SOL    HW144414   7.947   2.563   3.686 -2.9755  2.3910  1.3884
14225SOL    HW244415   7.954   2.454   3.791  1.5710  0.9403 -0.2009
14226SOL     OW44416   9.304   2.808   7.702 -0.5027  0.2745 -0.7652
14226SOL    HW144417   9.213   2.799   7.732 -0.2233  0.7482  0.2603
14226SOL    HW244418   9.306   2.893   7.659 -0.6074  0.1420 -1.0353
14227SOL     OW44419   8.321   1.023   6.337  0.1190 -0.1590 -0.5418
14227SOL    HW144420   8.327   1.107   6.291  2.8093 -0.3706 -0.7692
14227SOL    HW244421   8.373   1.036   6.416  0.2861 -1.5033 -0.4133
14228SOL     OW44422   7.656   4.387   5.053 -0.3905  0.3971 -0.2359
14228SOL    HW144423   7.677   4.475   5.084 -3.2548  1.0182  0.2152
14228SOL    HW244424   7.737   4.337   5.065  1.1728  2.8294 -0.0791
14229SOL     OW44425   3.481   5.754   4.851 -0.1884  0.3062 -0.7066
14229SOL    HW144426   3.526   5.672   4.873  2.9857  1.7379 -1.2820
14229SOL    HW244427   3.432   5.734   4.771 -0.0246 -1.1645 -0.4696
14230SOL     OW44428   1.236   1.182   3.408  0.2560  0.0173 -0.2996
14230SOL    HW144429   1.323   1.213   3.381  1.8068 -2.5257  1.4009
14230SOL    HW244430   1.227   1.211   3.498 -0.4583 -0.1618 -0.3082
14231SOL     OW44431   7.202   7.074   1.106  0.4354  0.0232 -0.3629
14231SOL    HW144432   7.265   7.062   1.177 -0.7607  0.9642  0.9178
14231SOL    HW244433   7.129   7.120   1.147 -0.6961 -0.2333 -2.0110
14232SOL     OW44434   3.106   3.891   6.946 -0.4723  0.2187 -0.0326
14232SOL    HW144435   3.014   3.871   6.966  0.2756 -1.4806  2.1543
14232SOL    HW244436   3.107   3.909   6.852 -3.0073  0.1618 -0.1338
14233SOL     OW44437   2.520   4.006   3.367 -0.5084  1.3166 -0.3124
14233SOL    HW144438   2.611   4.005   3.394 -0.9806 -1.2472  1.5975
14233SOL    HW244439   2.522   4.032   3.275  2.0986  1.5176 -0.2627
14234SOL     OW44440   8.769   3.403   2.324  0.0467  0.0311 -0.0118
14234SOL    HW144441   8.781   3.435   2.235 -0.1043 -0.3858 -0.1875
14234SOL    HW244442   8.856   3.375   2.352  0.0177 -0.2645 -0.2028
14235SOL     OW44443   9.426   7.771   1.484  0.1431  0.4795 -0.3384
14235SOL    HW144444   9.469   7.756   1.568 -0.4422 -2.0227 -0.4193
14235SOL    HW244445   9.463   7.705   1.426 -2.1484 -0.3082 -1.0082
14236SOL     OW44446   2.042   0.051   0.699 -0.2772  0.4201  0.3010
14236SOL    HW144447   2.137   0.045   0.707 -0.2389  1.5431  0.9718
14236SOL    HW244448   2.015  -0.035   0.667  1.0857  0.5001 -1.2317
14237SOL     OW44449   2.828   5.154   4.963 -0.8360  0.2539  0.1727
14237SOL    HW144450   2.809   5.118   5.050 -2.2164  1.4894  0.4112
14237SOL    HW244451   2.912   5.198   4.974 -1.4412  1.2327  1.1794
14238SOL     OW44452   7.558   2.903   9.551 -0.2766  0.5261  0.1857
14238SOL    HW144453   7.598   2.816   9.551 -1.6634 -0.1518  1.2633
14238SOL    HW244454   7.564   2.931   9.643 -0.7514  1.1281  0.0371
14239SOL     OW44455   0.188   7.201   0.037  0.2032 -0.4334 -0.0501
14239SOL    HW144456   0.254   7.245   0.090  0.4943 -1.0233  0.0827
14239SOL    HW244457   0.197   7.108   0.059 -0.9059 -0.4857  0.2276
14240SOL     OW44458   1.995   4.264   6.071 -0.0216  0.0715  0.2184
14240SOL    HW144459   1.946   4.328   6.122 -0.8093 -2.1648  2.4924
14240SOL    HW244460   1.928   4.211   6.027  0.5251 -0.2577 -0.2306
14241SOL     OW44461   3.803   6.593   6.340  0.8150  1.0721 -0.0614
14241SOL    HW144462   3.884   6.608   6.291  1.8805  1.8704  1.8853
14241SOL    HW244463   3.829   6.540   6.415 -1.2156 -2.3757 -1.5476
14242SOL     OW44464   0.844   7.834   6.866 -0.0972  0.3816  0.1632
14242SOL    HW144465   0.901   7.757   6.870 -0.0731  0.3007 -1.2235
14242SOL    HW244466   0.879   7.893   6.933  0.6255 -0.3272  0.4263
14243SOL     OW44467   5.556   3.040   2.968 -0.4229 -0.0928 -0.4357
14243SOL    HW144468   5.464   3.056   2.945 -0.2706  2.0389  0.2783
14243SOL    HW244469   5.592   2.997   2.890 -1.9228 -0.7275 -0.8372
14244SOL     OW44470   9.469   3.986   0.224  0.0398 -0.2602  0.2436
14244SOL    HW144471   9.488   4.057   0.163 -0.2429 -0.8551 -0.5511
14244SOL    HW244472   9.380   4.005   0.254  0.2929  0.2042  0.7296
14245SOL     OW44473   4.680   9.581   1.338  0.2417 -0.4282  0.0711
14245SOL    HW144474   4.765   9.539   1.351  0.2975 -0.3495 -0.0347
14245SOL    HW244475   4.648   9.601   1.426  1.7389  2.3700  0.1065
14246SOL     OW44476   4.156   0.101   0.792  0.3827  0.4644  0.8879
14246SOL    HW144477   4.138   0.191   0.821  1.2129  1.4327 -1.4054
14246SOL    HW244478   4.087   0.082   0.729  1.3667  0.2759 -0.1492
14247SOL     OW44479   6.486   6.754   4.300 -1.3065 -0.5697 -0.0366
14247SOL    HW144480   6.553   6.712   4.356 -2.2404 -1.9172  0.1256
14247SOL    HW244481   6.493   6.847   4.320 -0.6161 -0.8699  1.2369
14248SOL     OW44482   2.160   5.230   6.741  0.3815 -0.7846 -0.6021
14248SOL    HW144483   2.164   5.263   6.831 -0.8013  0.5306 -0.9972
14248SOL    HW244484   2.231   5.275   6.696 -1.4967  1.7686 -1.2500
14249SOL     OW44485   3.702   8.491   8.459 -0.1419  0.5487 -0.0858
14249SOL    HW144486   3.667   8.537   8.382 -2.0372  1.1371  1.0612
14249SOL    HW244487   3.744   8.414   8.422  0.0730  1.4244 -1.8102
14250SOL     OW44488   3.206   0.320   1.122 -0.1056  0.1754  0.2347
14250SOL    HW144489   3.264   0.249   1.153  1.2535  0.6680 -1.0498
14250SOL    HW244490   3.266   0.384   1.083 -1.3990  1.5799  0.4782
14251SOL     OW44491   4.429   9.239   6.122 -0.0278  0.2486 -0.1207
14251SOL    HW144492   4.408   9.176   6.052  0.1626 -0.2837  0.2953
14251SOL    HW244493   4.441   9.185   6.200  1.2944  0.6874  0.0007
14252SOL     OW44494   1.457   0.617   8.451 -0.1760 -0.2316 -0.2824
14252SOL    HW144495   1.551   0.625   8.469 -0.3482 -0.0680  0.5870
14252SOL    HW244496   1.425   0.707   8.453 -0.2678 -0.2430 -1.0824
14253SOL     OW44497   2.066   2.777   0.371  0.0171  0.1996 -0.0393
14253SOL    HW144498   2.116   2.707   0.414 -0.0876 -0.1656 -0.5142
14253SOL    HW244499   1.974   2.752   0.383 -0.0297  0.3963  0.0215
14254SOL     OW44500   8.702   5.044   2.908 -0.4221  0.8462 -0.0049
14254SOL    HW144501   8.607   5.030   2.910 -0.5687  1.7406 -0.5520
14254SOL    HW244502   8.717   5.100   2.833  0.5529  0.7108  0.0734
14255SOL     OW44503   5.326   8.497   5.454 -0.7098  0.5937 -0.3565
14255SOL    HW144504   5.374   8.438   5.512 -0.7646 -0.5935 -1.4690
14255SOL    HW244505   5.266   8.544   5.511  1.6255  2.0435  1.0666
14256SOL     OW44506   6.948   6.416   3.412 -0.3926 -0.2039 -0.2417
14256SOL    HW144507   6.856   6.426   3.433 -0.9566 -1.1848 -2.0547
14256SOL    HW244508   6.961   6.322   3.403  1.1925 -0.2118  1.5625
14257SOL     OW44509   5.504   1.338   7.952  0.0829  0.0744  0.1538
14257SOL    HW144510   5.517   1.296   7.867 -2.5827 -1.2328  0.2975
14257SOL    HW244511   5.491   1.430   7.931  0.4812 -0.0562 -0.7442
14258SOL     OW44512   1.957   3.484   0.906 -0.0787  0.4148 -0.3533
14258SOL    HW144513   2.051   3.500   0.914 -0.1119  0.5478 -0.2262
14258SOL    HW244514   1.930   3.536   0.830  0.1478 -0.4726 -1.0484
14259SOL     OW44515   7.268   6.885   0.104 -0.3823  0.5209 -0.0774
14259SOL    HW144516   7.277   6.797   0.068  1.7044  0.2977  0.8594
14259SOL    HW244517   7.189   6.881   0.158  0.4671 -1.2316  1.1131
14260SOL     OW44518   1.440   4.916   1.316 -0.2584  0.0901  0.2677
14260SOL    HW144519   1.388   4.856   1.369 -1.0117  0.2399 -0.2825
14260SOL    HW244520   1.392   4.999   1.318 -0.5631 -0.0308 -1.0060
14261SOL     OW44521   5.387   8.808   4.468  0.0401 -0.1992  0.5492
14261SOL    HW144522   5.307   8.812   4.521 -1.7361  0.7602 -1.9993
14261SOL    HW244523   5.372   8.734   4.408  0.4028  0.8611 -0.8935
14262SOL     OW44524   2.340   1.901   0.104 -0.0260  0.1757  0.4043
14262SOL    HW144525   2.372   1.953   0.179  2.4338  0.4034 -0.7004
14262SOL    HW244526   2.302   1.823   0.144 -0.4049  1.1013  1.9597
14263SOL     OW44527   6.369   7.547   4.045  0.0739  0.0024 -0.5844
14263SOL    HW144528   6.346   7.542   4.138  0.7446  1.2512 -0.3319
14263SOL    HW244529   6.367   7.640   4.024  0.8506 -0.1859 -1.5900
14264SOL     OW44530   7.060   1.305   2.289  0.2146 -0.4105  0.0757
14264SOL    HW144531   7.053   1.361   2.212 -1.3221 -1.2036 -0.4173
14264SOL    HW244532   7.144   1.260   2.279 -0.4093 -1.2947 -1.7378
14265SOL     OW44533   0.722   6.912   4.149 -0.4052 -0.4631 -0.1527
14265SOL    HW144534   0.729   6.973   4.223  0.2716 -1.0352  0.2671
14265SOL    HW244535   0.796   6.853   4.160  0.1434 -0.1061 -1.7149
14266SOL     OW44536   2.645   6.380   3.748 -0.1287  0.7558 -0.0789
14266SOL    HW144537   2.642   6.318   3.675  1.6097  1.0363 -0.4467
14266SOL    HW244538   2.554   6.403   3.764 -0.6111  0.0647 -1.6318
14267SOL     OW44539   3.733   3.739   2.184  0.4239  0.1172  0.2027
14267SOL    HW144540   3.712   3.749   2.091  1.6198  1.5045  0.0524
14267SOL    HW244541   3.689   3.812   2.227  0.7078  0.0587  0.5937
14268SOL     OW44542   2.302   3.521   0.681  0.0877 -0.7120  0.4611
14268SOL    HW144543   2.334   3.432   0.696 -2.2580 -1.2007  3.5287
14268SOL    HW244544   2.288   3.556   0.769  0.2563  2.4832 -0.6745
14269SOL     OW44545   1.907   4.687   4.961 -0.4777  0.6108  0.1592
14269SOL    HW144546   1.988   4.721   4.923 -0.6320 -0.1717 -0.9152
14269SOL    HW244547   1.919   4.696   5.055  1.2287 -0.2474  0.0615
14270SOL     OW44548   5.466   5.503   7.487 -0.4234  0.6417 -0.1441
14270SOL    HW144549   5.426   5.462   7.564  0.2975  1.1924  0.5431
14270SOL    HW244550   5.556   5.470   7.487 -0.4763  0.4943 -0.8689
14271SOL     OW44551   3.143   1.033   9.495  0.6716  0.0234  0.0273
14271SOL    HW144552   3.071   1.092   9.474  0.8215  0.2437  0.1301
14271SOL    HW244553   3.222   1.085   9.480  0.8476 -0.5506 -1.1695
14272SOL     OW44554   5.603   8.407   3.302 -0.0876 -0.4826 -0.1650
14272SOL    HW144555   5.516   8.377   3.276 -0.6198  0.3440  0.5901
14272SOL    HW244556   5.659   8.385   3.228 -1.7122  2.7258 -2.5851
14273SOL     OW44557   7.875   6.821   9.576 -0.1858 -0.1985  0.5191
14273SOL    HW144558   7.924   6.903   9.580  1.9665 -1.3640 -0.3862
14273SOL    HW244559   7.900   6.774   9.656  0.4644 -0.9400 -0.1066
14274SOL     OW44560   3.796   5.572   8.147 -0.4116 -0.4343 -0.3817
14274SOL    HW144561   3.749   5.495   8.181  0.2740 -1.0219 -0.7364
14274SOL    HW244562   3.805   5.554   8.054  1.4775 -0.8729 -0.1595
14275SOL     OW44563   0.499   3.776   5.931 -0.2585  0.2674  0.3450
14275SOL    HW144564   0.463   3.718   5.998 -0.6057  0.2314  0.1315
14275SOL    HW244565   0.455   3.750   5.850  0.4188  0.0715  0.0299
14276SOL     OW44566   2.186   4.940   1.221  0.0901  0.0752  0.0349
14276SOL    HW144567   2.143   4.856   1.210 -0.0996 -0.2881  2.8136
14276SOL    HW244568   2.213   4.965   1.133 -1.4533 -2.0015 -1.1131
14277SOL     OW44569   6.584   6.157   7.814  0.1385  0.2498 -0.4476
14277SOL    HW144570   6.590   6.124   7.725 -0.2954 -0.2955 -0.2832
14277SOL    HW244571   6.669   6.137   7.853  0.1129 -0.0770 -0.5552
14278SOL     OW44572   3.754   6.621   7.212  0.3046 -0.3463  0.7257
14278SOL    HW144573   3.715   6.607   7.126  1.1254  1.3590  0.0216
14278SOL    HW244574   3.771   6.533   7.246 -0.2923 -1.0479 -0.7219
14279SOL     OW44575   6.468   5.165   5.132 -0.2136  0.6143  0.1408
14279SOL    HW144576   6.515   5.233   5.084 -0.8201 -0.4643 -2.0933
14279SOL    HW244577   6.452   5.097   5.068 -0.3681 -1.3102  2.1056
14280SOL     OW44578   3.294   1.013   8.251  0.4129 -0.1101 -0.4161
14280SOL    HW144579   3.210   0.992   8.293 -0.3518  0.8206 -1.4110
14280SOL    HW244580   3.318   1.098   8.287  0.7805 -0.2339 -0.3674
14281SOL     OW44581   1.412   6.024   8.495  0.0147  0.4815  0.1771
14281SOL    HW144582   1.400   5.950   8.436 -2.6496  1.4635 -0.6978
14281SOL    HW244583   1.457   6.090   8.441 -0.8821  0.7667 -0.2389
14282SOL     OW44584   9.461   1.322   9.265  0.1885  0.4338  0.0118
14282SOL    HW144585   9.449   1.301   9.173  1.0768  1.0006 -0.2443
14282SOL    HW244586   9.422   1.248   9.312  2.0380 -1.1684 -0.8325
14283SOL     OW44587   8.052   5.437   2.430 -0.0427  0.0073  0.7211
14283SOL    HW144588   8.063   5.512   2.372 -0.7691 -0.4536 -0.0458
14283SOL    HW244589   8.138   5.394   2.430  0.7997  1.5878  2.3001
14284SOL     OW44590   5.379   2.842   9.154 -0.1142 -0.0912  0.3090
14284SOL    HW144591   5.340   2.867   9.071  2.6426 -0.8890 -1.3774
14284SOL    HW244592   5.313   2.788   9.197 -1.0897 -0.9107 -2.0652
14285SOL     OW44593   0.255   7.492   2.010 -0.3704 -0.4231 -0.4179
14285SOL    HW144594   0.327   7.552   1.992 -0.7535 -0.0826 -0.8290
14285SOL    HW244595   0.228   7.512   2.099  1.5897 -2.1666  0.6604
14286SOL     OW44596   3.275   0.329   8.158 -0.5626  0.2959  0.1331
14286SOL    HW144597   3.351   0.368   8.115 -0.6470  1.2184  0.8072
14286SOL    HW244598   3.205   0.393   8.146 -0.3978  0.9279  2.2796
14287SOL     OW44599   3.655   3.123   4.093  0.0321 -0.3890 -0.0310
14287SOL    HW144600   3.601   3.101   4.017  0.5474  0.5065 -0.6718
14287SOL    HW244601   3.701   3.203   4.067 -0.5686  0.5332  1.5990
14288SOL     OW44602   2.071   0.317   8.976  0.0254  0.5128  0.1718
14288SOL    HW144603   2.141   0.338   9.037 -0.9691 -1.7984  2.2930
14288SOL    HW244604   1.997   0.370   9.005 -0.3017 -0.2092  0.6828
14289SOL     OW44605   3.787   3.488   1.720 -0.5465 -0.5599  0.0030
14289SOL    HW144606   3.710   3.489   1.663  0.6675 -0.3694 -1.7197
14289SOL    HW244607   3.854   3.534   1.670 -0.2092  2.3430  2.8452
14290SOL     OW44608   7.583   3.411   1.878  0.0306 -0.1644 -0.1924
14290SOL    HW144609   7.518   3.473   1.911 -0.9477 -0.4177 -1.5698
14290SOL    HW244610   7.565   3.403   1.785  1.1626 -1.3101 -0.3552
14291SOL     OW44611   2.491   0.651   6.732 -0.3976  0.4313  0.0422
14291SOL    HW144612   2.505   0.594   6.658  0.8071  1.9082 -0.9307
14291SOL    HW244613   2.400   0.636   6.758 -0.1686 -1.7389 -0.2643
14292SOL     OW44614   2.277   5.715   8.970 -0.0493 -0.1000  0.1008
14292SOL    HW144615   2.205   5.753   8.921  0.3766  1.4416  0.6323
14292SOL    HW244616   2.351   5.716   8.910 -0.2606 -0.9724 -0.1885
14293SOL     OW44617   7.183   8.664   9.513 -0.3238 -0.0226  0.0356
14293SOL    HW144618   7.123   8.606   9.560 -0.7388 -0.0606 -0.5318
14293SOL    HW244619   7.244   8.695   9.580 -0.3380 -0.8056  0.4176
14294SOL     OW44620   4.364   4.910   1.206  0.3405  0.3279  0.4088
14294SOL    HW144621   4.363   4.865   1.121  2.5105  0.6576  0.1609
14294SOL    HW244622   4.279   4.955   1.209 -0.2109 -0.5108 -1.1161
14295SOL     OW44623   4.678   8.550   7.584  0.0601  0.7881  0.0429
14295SOL    HW144624   4.673   8.548   7.488 -2.9036 -0.6497  0.1320
14295SOL    HW244625   4.672   8.643   7.606  1.0634  1.1687 -1.1334
14296SOL     OW44626   7.050   2.681   3.960  0.1615 -0.1948 -0.0827
14296SOL    HW144627   7.145   2.679   3.974  0.1670  0.5368  0.0446
14296SOL    HW244628   7.014   2.639   4.038  0.3994 -0.9802 -0.3932
14297SOL     OW44629   6.964   9.552   8.123 -0.1249 -0.4566 -0.6358
14297SOL    HW144630   7.033   9.552   8.190 -0.9169  0.6717  0.2278
14297SOL    HW244631   6.991   9.619   8.060 -1.1125  1.1338  0.5245
14298SOL     OW44632   8.707   7.918   9.271 -0.1650  0.4036 -0.6403
14298SOL    HW144633   8.663   8.003   9.282 -0.1851  0.3194 -0.0347
14298SOL    HW244634   8.765   7.931   9.196  0.5783  1.2731  0.0563
14299SOL     OW44635   3.036   6.637   7.024 -0.3033  0.9011 -0.4364
14299SOL    HW144636   3.051   6.732   7.024 -1.1876  1.0922  1.5432
14299SOL    HW244637   2.969   6.624   6.957  0.6215  1.5029 -1.5070
14300SOL     OW44638   8.165   5.681   7.027 -0.2661  0.3626 -0.3423
14300SOL    HW144639   8.076   5.657   7.000 -0.8099  1.8814 -0.0089
14300SOL    HW244640   8.212   5.695   6.945 -0.8297  1.2243 -0.5327
14301SOL     OW44641   2.679   6.529   0.869 -0.2048 -0.6412  1.0101
14301SOL    HW144642   2.691   6.598   0.804  0.2140 -2.0850 -0.5235
14301SOL    HW244643   2.754   6.538   0.928  0.1393 -0.1220  0.5022
14302SOL     OW44644   5.304   7.616   2.472  0.5935 -0.4758  0.0736
14302SOL    HW144645   5.380   7.568   2.440  0.0391 -1.9900  0.9381
14302SOL    HW244646   5.281   7.573   2.554 -0.7585  0.4115  0.1921
14303SOL     OW44647   5.940   3.836   0.890  0.4818  0.3340  0.0899
14303SOL    HW144648   5.961   3.865   0.979 -0.1092  0.2276  0.2682
14303SOL    HW244649   5.971   3.746   0.886  2.4158  0.9619 -0.4967
14304SOL     OW44650   9.201   3.744   3.287 -0.3318  0.3869  0.4684
14304SOL    HW144651   9.184   3.727   3.195 -1.0991 -0.5067  0.7608
14304SOL    HW244652   9.285   3.701   3.305  1.8738  3.7391 -0.6711
14305SOL     OW44653   3.328   9.409   0.946  0.2951  0.4047  0.0796
14305SOL    HW144654   3.309   9.316   0.930  0.4449  0.1967  1.0744
14305SOL    HW244655   3.302   9.424   1.037  1.8923  0.8994  0.4955
14306SOL     OW44656   4.099   5.108   0.568  1.7165 -0.1261 -0.3127
14306SOL    HW144657   4.122   5.017   0.546  1.1308 -0.3736  0.0945
14306SOL    HW244658   4.155   5.129   0.642 -0.2526 -1.1854  1.5625
14307SOL     OW44659   9.129   0.112   4.301 -0.4350 -0.4416 -0.4049
14307SOL    HW144660   9.079   0.163   4.237 -0.1878 -1.0015 -1.0638
14307SOL    HW244661   9.188   0.058   4.247  0.5846 -0.1051  0.3347
14308SOL     OW44662   7.353   5.600   6.695  0.1268 -0.5411 -1.0681
14308SOL    HW144663   7.371   5.506   6.692 -1.3975 -0.9841  1.1690
14308SOL    HW244664   7.431   5.638   6.736 -0.7564 -1.4503  1.6989
14309SOL     OW44665   8.000   1.741   7.565  0.2091  0.0459 -0.2234
14309SOL    HW144666   7.959   1.744   7.478  2.2927  1.8770 -1.2354
14309SOL    HW244667   8.061   1.814   7.565  0.9622 -0.4874  2.4755
14310SOL     OW44668   5.903   1.403   5.421 -0.4618 -0.4238 -0.0382
14310SOL    HW144669   5.889   1.350   5.499 -1.5956  0.5415  0.4459
14310SOL    HW244670   5.823   1.454   5.412  0.0291  0.1697 -1.3001
14311SOL     OW44671   3.188   9.494   5.925  0.2689  0.1816  0.5767
14311SOL    HW144672   3.114   9.551   5.945 -0.6082 -0.8794  0.4684
14311SOL    HW244673   3.214   9.519   5.836 -0.0873  0.4286  0.5404
14312SOL     OW44674   1.793   2.918   8.358  0.0163 -0.4336  0.6901
14312SOL    HW144675   1.771   2.848   8.296 -1.0102  0.5425 -0.0870
14312SOL    HW244676   1.861   2.968   8.314  0.4523 -0.6845  1.0677
14313SOL     OW44677   3.987   2.988   7.038 -0.3440 -0.5933 -0.1836
14313SOL    HW144678   4.056   3.049   7.014 -0.7790 -0.2833 -0.6583
14313SOL    HW244679   3.906   3.027   7.004 -0.8164 -0.7446  0.7291
14314SOL     OW44680   2.897   7.765   1.272 -0.3770  0.4363  0.0171
14314SOL    HW144681   2.899   7.859   1.256 -2.5754  0.4344 -0.6156
14314SOL    HW244682   2.808   7.748   1.305  0.7499 -1.0739  2.5408
14315SOL     OW44683   2.982   5.654   9.311 -0.4817  0.1289  0.2620
14315SOL    HW144684   2.975   5.650   9.216 -0.9152  0.1519  0.2897
14315SOL    HW244685   2.989   5.747   9.331 -0.2516  0.1158  0.2441
14316SOL     OW44686   7.458   4.173   0.932 -0.0709 -0.2881 -0.0198
14316SOL    HW144687   7.463   4.218   0.847  1.8803 -1.1709 -0.4414
14316SOL    HW244688   7.547   4.140   0.946 -0.9801 -2.3992  1.1360
14317SOL     OW44689   8.618   4.702   1.149  0.1408 -0.2187  0.4855
14317SOL    HW144690   8.689   4.690   1.212  0.1558 -0.5059  0.4162
14317SOL    HW244691   8.564   4.771   1.187  1.3181  1.1249 -0.2357
14318SOL     OW44692   2.119   6.954   7.721 -0.4750  0.0273 -0.5070
14318SOL    HW144693   2.175   7.025   7.690 -0.4625  0.0467 -0.4405
14318SOL    HW244694   2.098   6.978   7.812 -2.0031  0.9014 -1.0505
14319SOL     OW44695   3.995   2.012   2.510  0.0342 -0.2975  0.4987
14319SOL    HW144696   4.024   1.928   2.547 -1.3435 -1.0524 -0.0605
14319SOL    HW244697   4.032   2.013   2.422  1.1162  0.2913  0.9421
14320SOL     OW44698   7.057   7.042   6.604 -0.3733  0.6279 -0.3105
14320SOL    HW144699   7.149   7.066   6.596  0.4310 -2.1945 -0.5070
14320SOL    HW244700   7.031   7.077   6.689  0.9459  1.2592 -0.1427
14321SOL     OW44701   8.294   5.319   2.472 -0.4242 -0.1486  0.4400
14321SOL    HW144702   8.354   5.393   2.460 -0.2087 -0.2681  0.7555
14321SOL    HW244703   8.350   5.247   2.501 -0.7454 -0.1980  0.9637
14322SOL     OW44704   2.090   2.465   8.409 -0.9175 -0.0831 -0.7541
14322SOL    HW144705   2.067   2.373   8.425  0.7829 -0.2853  0.8155
14322SOL    HW244706   2.090   2.473   8.314 -0.1437 -1.9835 -0.9594
14323SOL     OW44707   6.800   3.847   8.263 -0.2160 -0.0867 -0.3245
14323SOL    HW144708   6.796   3.767   8.211 -0.6713  0.6225 -1.4177
14323SOL    HW244709   6.717   3.891   8.247  0.3433  0.9896 -0.3692
14324SOL     OW44710   0.049   4.441   1.238 -0.1271  0.1785 -0.0414
14324SOL    HW144711   0.114   4.512   1.234  0.4568 -0.3744 -0.5071
14324SOL    HW244712  -0.025   4.474   1.188  0.2399  0.3659 -0.4687
14325SOL     OW44713   2.412   8.726   3.625  0.1431  0.0606  0.7164
14325SOL    HW144714   2.486   8.735   3.564  1.6183 -2.7463  1.8971
14325SOL    HW244715   2.338   8.701   3.570  0.5443  0.9177 -0.2550
14326SOL     OW44716   7.247   0.787   8.987  0.1511  0.1205 -0.2908
14326SOL    HW144717   7.259   0.866   8.934  2.4366  0.9362  1.2959
14326SOL    HW244718   7.320   0.730   8.962 -1.1006 -1.2712 -0.9370
14327SOL     OW44719   0.668   3.987   0.091  0.4315  0.6059 -0.4674
14327SOL    HW144720   0.759   4.006   0.068  1.4633 -0.0252  2.6028
14327SOL    HW244721   0.672   3.905   0.140 -1.6609  1.0086  0.4743
14328SOL     OW44722   6.626   4.572   9.236 -0.3805 -0.0456 -0.2192
14328SOL    HW144723   6.547   4.519   9.223 -0.0282 -0.1345 -2.1655
14328SOL    HW244724   6.698   4.509   9.230 -0.1109 -0.0596  2.0838
14329SOL     OW44725   8.867   5.295   8.061  0.0334  0.4690 -0.2457
14329SOL    HW144726   8.790   5.318   8.010  0.4466 -0.1270 -1.1593
14329SOL    HW244727   8.930   5.365   8.042 -0.3423  1.0911  0.6944
14330SOL     OW44728   8.916   2.250   2.308  0.0459 -0.5150  0.1059
14330SOL    HW144729   8.850   2.303   2.352  0.5705  1.2491 -1.1007
14330SOL    HW244730   8.991   2.251   2.367  0.0379  0.0934  0.1174
14331SOL     OW44731   0.984   0.559   7.806  0.0747  0.0328 -0.0673
14331SOL    HW144732   0.895   0.526   7.818  0.5764 -1.2485  0.2734
14331SOL    HW244733   1.040   0.488   7.836  1.2232  0.7006 -0.5805
14332SOL     OW44734   4.616   3.130   2.059  0.2316 -0.0776  0.1824
14332SOL    HW144735   4.550   3.061   2.053 -0.5264  0.5359  1.1936
14332SOL    HW244736   4.697   3.088   2.031 -0.7981 -0.4823 -2.4763
14333SOL     OW44737   6.861   7.853   6.659  0.4858  0.4031 -0.0415
14333SOL    HW144738   6.911   7.777   6.691 -0.0815  0.4840  1.0860
14333SOL    HW244739   6.780   7.815   6.626  0.8035  0.3877 -0.8329
14334SOL     OW44740   0.475   8.763   7.618 -0.2865 -0.4680  0.0619
14334SOL    HW144741   0.497   8.816   7.542  0.9906  0.4860  1.0628
14334SOL    HW244742   0.423   8.820   7.674 -0.2670 -0.7972  0.4228
14335SOL     OW44743   3.226   2.294   3.723  0.5836 -0.7802  0.3261
14335SOL    HW144744   3.208   2.225   3.787 -0.0153  0.5132  1.6332
14335SOL    HW244745   3.163   2.363   3.745  0.9673  0.0676 -1.1204
14336SOL     OW44746   1.219   6.131   9.594 -0.6475 -0.1759 -0.5387
14336SOL    HW144747   1.150   6.195   9.609  0.2995  1.2195 -1.7583
14336SOL    HW244748   1.225   6.125   9.499  1.2440  0.1596 -0.4747
14337SOL     OW44749   3.986   8.803   3.555 -0.1942 -0.5609  0.1642
14337SOL    HW144750   3.982   8.711   3.528  1.7651 -0.8935  0.8848
14337SOL    HW244751   3.949   8.804   3.643  0.4615 -0.7944  0.4454
14338SOL     OW44752   7.212   2.943   8.490  0.5885 -0.3741 -0.0682
14338SOL    HW144753   7.268   2.907   8.558  1.5027 -0.4309 -0.8214
14338SOL    HW244754   7.160   3.010   8.534 -0.4394 -1.9202  1.1386
14339SOL     OW44755   4.154   2.877   0.578  0.4798 -0.2792 -0.0421
14339SOL    HW144756   4.153   2.880   0.482 -0.1018 -0.1626 -0.0377
14339SOL    HW244757   4.173   2.786   0.599 -1.3817 -0.7736 -0.2943
14340SOL     OW44758   8.491   8.258   5.835  0.0146  0.0247 -0.5628
14340SOL    HW144759   8.453   8.330   5.784  0.7549  2.1951  1.7660
14340SOL    HW244760   8.585   8.265   5.819  0.2129  0.4472  0.6727
14341SOL     OW44761   3.666   6.441   4.122  0.6832  0.3701 -0.2856
14341SOL    HW144762   3.742   6.464   4.068 -0.3418 -1.0634 -2.4955
14341SOL    HW244763   3.591   6.478   4.076 -0.1687 -0.1994  0.5936
14342SOL     OW44764   6.231   1.409   8.666  0.2075 -0.2162 -0.9506
14342SOL    HW144765   6.250   1.336   8.724  1.1464  0.8468  0.1547
14342SOL    HW244766   6.316   1.431   8.626  0.6853  2.2009  1.1471
14343SOL     OW44767   8.634   1.130   3.457 -0.0880  0.4211 -0.2032
14343SOL    HW144768   8.672   1.186   3.389 -0.5814  0.7697 -0.1943
14343SOL    HW244769   8.697   1.058   3.466 -0.7475 -0.4623 -2.1029
14344SOL     OW44770   7.148   6.324   7.299  0.2346  0.4152  0.2323
14344SOL    HW144771   7.172   6.241   7.340  3.7418  0.4532 -1.4329
14344SOL    HW244772   7.091   6.299   7.226 -1.3286 -0.1376  1.5714
14345SOL     OW44773   6.304   1.209   8.008 -0.1099  0.1381 -0.1337
14345SOL    HW144774   6.302   1.120   8.043 -1.0175 -0.2519 -1.1268
14345SOL    HW244775   6.215   1.242   8.021  0.2462  0.9315  0.3092
14346SOL     OW44776   7.690   5.018   3.495  0.1586  0.1464 -0.5581
14346SOL    HW144777   7.726   5.101   3.464  1.6584  0.1400  1.0031
14346SOL    HW244778   7.682   5.030   3.590  5.0481 -2.9598  0.6031
14347SOL     OW44779   8.872   2.870   2.054  0.0935  0.2055  0.4938
14347SOL    HW144780   8.847   2.910   1.971 -1.1236  0.6691  1.0670
14347SOL    HW244781   8.793   2.825   2.084  0.0438  1.3132  2.1260
14348SOL     OW44782   6.608   4.962   7.179  0.2692  0.2186  0.1071
14348SOL    HW144783   6.642   4.913   7.105 -1.7500  0.4484 -1.0445
14348SOL    HW244784   6.601   5.053   7.148  0.8680  0.6322  1.1156
14349SOL     OW44785   5.179   8.059   1.191 -0.6250 -0.7709 -0.1487
14349SOL    HW144786   5.096   8.052   1.238 -1.2401  0.9389 -0.8905
14349SOL    HW244787   5.182   7.980   1.137 -2.2897 -0.3996 -0.8538
14350SOL     OW44788   3.701   1.409   4.757 -0.1891  0.1360  0.1344
14350SOL    HW144789   3.736   1.403   4.846 -0.5524 -0.0203  0.2705
14350SOL    HW244790   3.729   1.327   4.715 -0.9740 -0.3143  0.4611
14351SOL     OW44791   0.306   8.845   4.491 -0.4970 -0.3210 -0.0144
14351SOL    HW144792   0.360   8.904   4.543  0.2821 -1.4858  0.5219
14351SOL    HW244793   0.353   8.836   4.408 -0.1277 -0.9196  0.2559
14352SOL     OW44794   0.585   5.941   0.159 -0.2711  0.2604 -0.6894
14352SOL    HW144795   0.621   5.883   0.091  0.2783  0.0378 -0.2195
14352SOL    HW244796   0.661   5.965   0.212 -0.9063 -0.9072  0.8387
14353SOL     OW44797   4.665   8.738   1.281 -0.0003  0.0249  0.4080
14353SOL    HW144798   4.620   8.796   1.342  0.4325 -0.9437  1.6876
14353SOL    HW244799   4.596   8.704   1.224 -1.1059 -1.9850  2.7710
14354SOL     OW44800   9.367   1.746   4.518 -0.5574 -0.5896 -0.3277
14354SOL    HW144801   9.307   1.710   4.453 -1.6736  0.7730 -0.1074
14354SOL    HW244802   9.410   1.670   4.555 -0.8954 -1.4925 -1.6983
14355SOL     OW44803   8.633   1.440   9.252  0.3922  0.6957  0.3536
14355SOL    HW144804   8.626   1.346   9.237 -0.1684  0.8035 -0.0776
14355SOL    HW244805   8.717   1.451   9.298  1.1872  0.1532 -0.9081
14356SOL     OW44806   8.287   5.504   8.990 -0.1783 -0.1309 -0.1653
14356SOL    HW144807   8.299   5.494   8.896  1.4284 -0.0784  0.0079
14356SOL    HW244808   8.207   5.556   8.998 -0.3283 -0.1147 -1.4870
14357SOL     OW44809   1.601   7.322   7.780  0.5385  0.1062 -0.5809
14357SOL    HW144810   1.575   7.414   7.788  1.0549  0.3388 -1.4546
14357SOL    HW244811   1.542   7.276   7.840  0.0947  0.9667 -0.3267
14358SOL     OW44812   3.918   4.244   3.107 -0.1294  0.3459 -0.4178
14358SOL    HW144813   3.948   4.233   3.016 -1.6888 -0.6558 -0.8470
14358SOL    HW244814   3.823   4.249   3.100 -0.2515  0.6796  1.1472
14359SOL     OW44815   8.168   1.730   0.367  0.3030 -0.0374  0.0782
14359SOL    HW144816   8.251   1.709   0.325  0.9362 -2.7929  2.3914
14359SOL    HW244817   8.111   1.655   0.346 -0.6047  0.3671  0.9893
14360SOL     OW44818   3.423   7.731   0.026  0.2596  0.2068  0.1308
14360SOL    HW144819   3.493   7.698   0.082 -0.3175  2.8650  2.6456
14360SOL    HW244820   3.434   7.826   0.026 -2.2427  0.5934 -0.9072
14361SOL     OW44821   3.415   7.107   1.422 -0.4055  0.2834 -0.2882
14361SOL    HW144822   3.395   7.191   1.463 -0.3365 -0.8096  2.1296
14361SOL    HW244823   3.331   7.061   1.419 -0.6483  0.7327 -2.5322
14362SOL     OW44824   9.568   5.355   3.387 -0.5828 -0.1729  0.1701
14362SOL    HW144825   9.546   5.277   3.438  0.3435  1.4039  3.1998
14362SOL    HW244826   9.642   5.327   3.333  0.7475 -1.0594  2.3235
14363SOL     OW44827   5.503   0.637   5.722 -0.3106 -0.0552 -0.1091
14363SOL    HW144828   5.541   0.669   5.640 -0.0703  0.4147  0.1800
14363SOL    HW244829   5.554   0.560   5.745  1.2861  1.2332  0.8967
14364SOL     OW44830   4.970   2.896   2.836 -0.0396 -0.2853  0.1524
14364SOL    HW144831   4.935   2.938   2.914 -0.4402  1.5684 -0.9786
14364SOL    HW244832   4.903   2.832   2.811 -0.2572 -0.3458  0.8806
14365SOL     OW44833   3.630   2.716   6.173 -0.8123 -0.1083 -1.4979
14365SOL    HW144834   3.540   2.707   6.141 -0.7390 -0.5504 -1.5813
14365SOL    HW244835   3.670   2.780   6.114 -0.8948 -0.3676 -1.8408
14366SOL     OW44836   7.581   2.982   2.080  0.4811  0.7393 -0.3183
14366SOL    HW144837   7.637   3.057   2.058  0.9214  0.8294  1.0350
14366SOL    HW244838   7.637   2.925   2.132 -0.2675  0.1220 -0.1807
14367SOL     OW44839   1.641   8.897   8.827 -0.3058 -0.4792  0.3447
14367SOL    HW144840   1.600   8.811   8.819 -0.4267 -0.3495 -0.4991
14367SOL    HW244841   1.587   8.942   8.892 -0.6712 -0.7934  0.2689
14368SOL     OW44842   0.438   3.293   3.270 -0.3404  0.0992  0.0573
14368SOL    HW144843   0.469   3.326   3.354  1.4415  0.5184 -0.7293
14368SOL    HW244844   0.452   3.199   3.274  0.0122  0.1553  0.1209
14369SOL     OW44845   4.743   4.394   5.662 -0.0526 -0.3247  0.1753
14369SOL    HW144846   4.828   4.351   5.672 -0.6876 -2.0377 -1.2026
14369SOL    HW244847   4.694   4.336   5.604 -1.8024  1.1650  0.0801
14370SOL     OW44848   7.922   0.965   5.407 -0.2175 -0.0284 -0.2978
14370SOL    HW144849   8.018   0.971   5.398 -0.1056  1.7526  1.4075
14370SOL    HW244850   7.891   1.055   5.393 -1.5501 -0.4267 -0.0126
14371SOL     OW44851   0.378   3.215   9.552 -0.1268 -0.4706  0.2158
14371SOL    HW144852   0.330   3.145   9.507  0.7496 -0.2036 -1.2032
14371SOL    HW244853   0.469   3.200   9.528  0.1874  0.5691  0.7325
14372SOL     OW44854   5.429   2.396   1.851 -0.1551 -0.0263 -0.0632
14372SOL    HW144855   5.421   2.456   1.925  0.3768 -0.9192  0.7575
14372SOL    HW244856   5.341   2.359   1.840 -0.6445  1.3595 -1.0087
14373SOL     OW44857   1.994   4.137   6.452 -0.2725  0.4557 -0.1268
14373SOL    HW144858   2.024   4.226   6.470  2.4494  0.2261 -2.7921
14373SOL    HW244859   1.943   4.145   6.371 -1.4767 -0.1943  0.5541
14374SOL     OW44860   2.381   3.090   6.004  0.1325 -0.0637 -0.0723
14374SOL    HW144861   2.301   3.139   5.986 -0.6287 -0.9062  0.8746
14374SOL    HW244862   2.391   3.094   6.099  1.3321  0.1864 -0.1913
14375SOL     OW44863   2.789   1.038   3.960  0.0685 -0.0480  0.3778
14375SOL    HW144864   2.871   1.049   4.009  0.0014 -1.2930  0.7996
14375SOL    HW244865   2.816   1.021   3.870  0.2061  1.6733  0.0615
14376SOL     OW44866   4.137   5.202   9.399  0.1502 -0.1123  0.1876
14376SOL    HW144867   4.063   5.214   9.339 -0.3306  0.1039  0.8085
14376SOL    HW244868   4.205   5.259   9.364 -0.6926  1.2936  0.7617
14377SOL     OW44869   5.823   7.153   4.972  0.8277  0.7030  0.0857
14377SOL    HW144870   5.868   7.069   4.970  0.5888  0.5868 -0.8544
14377SOL    HW244871   5.892   7.219   4.974  1.3435  0.6918 -4.7422
14378SOL     OW44872   2.524   8.367   1.878  0.1097 -0.1402  0.1235
14378SOL    HW144873   2.598   8.411   1.922 -0.5842  0.9342  0.2431
14378SOL    HW244874   2.448   8.391   1.930 -0.4565 -0.5086 -0.5296
14379SOL     OW44875   0.559   2.844   0.659 -0.2337 -0.0288  0.6750
14379SOL    HW144876   0.510   2.847   0.577 -0.9524  1.3046  1.1239
14379SOL    HW244877   0.650   2.862   0.633 -0.5967  1.3126  0.2660
14380SOL     OW44878   2.001   8.330   5.903 -0.7233 -0.3048  0.1749
14380SOL    HW144879   2.096   8.325   5.902 -0.3119  3.8412 -2.0803
14380SOL    HW244880   1.974   8.284   5.823 -0.2383  1.4826 -1.0613
14381SOL     OW44881   9.108   3.227   4.529  0.0901 -0.0486 -0.2779
14381SOL    HW144882   9.081   3.172   4.603  0.3094 -0.8633 -0.7876
14381SOL    HW244883   9.115   3.315   4.566  1.7181 -0.6791  1.0534
14382SOL     OW44884   1.313   3.947   9.227 -0.0530  0.4618  0.2385
14382SOL    HW144885   1.364   3.920   9.304  1.0814  2.6105  0.3287
14382SOL    HW244886   1.353   3.899   9.154  1.5886  1.4514  0.4409
14383SOL     OW44887   6.065   9.450   8.409  0.3364  0.2534 -0.1801
14383SOL    HW144888   6.101   9.516   8.349  1.4826  0.6027  0.8690
14383SOL    HW244889   6.040   9.378   8.351 -0.3872  1.3467 -1.2851
14384SOL     OW44890   1.887   6.097   6.455 -0.0384 -1.0087  0.2204
14384SOL    HW144891   1.920   6.051   6.378  0.8786  0.6804 -0.4544
14384SOL    HW244892   1.817   6.152   6.421 -1.1467 -1.8696  1.0212
14385SOL     OW44893   0.611   4.614   6.576 -0.1712 -0.1739  0.1183
14385SOL    HW144894   0.538   4.591   6.519 -0.1183 -0.0928  0.0190
14385SOL    HW244895   0.654   4.688   6.533 -0.4505  0.2317  0.5297
14386SOL     OW44896   6.169   0.955   3.812 -0.1629 -0.1920 -0.2633
14386SOL    HW144897   6.113   0.981   3.885 -0.9647  0.5566 -1.1155
14386SOL    HW244898   6.108   0.934   3.741  0.5359 -2.1590 -0.3657
14387SOL     OW44899   4.979   0.987   8.647  0.1060  0.4101  0.3525
14387SOL    HW144900   5.041   1.056   8.623 -0.9245  1.1759 -0.2009
14387SOL    HW244901   4.931   1.023   8.722  0.0400 -0.0042  0.5123
14388SOL     OW44902   0.956   8.123   5.411 -0.2165 -0.2155 -0.6726
14388SOL    HW144903   0.998   8.174   5.342 -1.7384  1.4893 -0.4405
14388SOL    HW244904   0.883   8.080   5.367  2.1157 -3.9500 -1.2937
14389SOL     OW44905   4.591   5.216   7.828  0.4571 -0.2464  0.1131
14389SOL    HW144906   4.631   5.281   7.887 -0.9141 -1.5021  2.5934
14389SOL    HW244907   4.543   5.157   7.887 -0.9956 -1.6318 -2.3090
14390SOL     OW44908   6.807   4.446   2.335 -0.1027  0.3099  0.7894
14390SOL    HW144909   6.736   4.402   2.382  0.7713 -0.2079  1.6923
14390SOL    HW244910   6.885   4.425   2.387  1.2896 -2.0164 -1.9579
14391SOL     OW44911   3.051   9.448   3.445 -0.4709  0.4592  0.0609
14391SOL    HW144912   2.970   9.405   3.474 -1.3980  1.9049 -0.2636
14391SOL    HW244913   3.109   9.443   3.521 -1.8211  1.6431  1.2397
14392SOL     OW44914   1.250   4.721   7.967  0.4914  0.0404  0.4682
14392SOL    HW144915   1.285   4.655   8.027 -0.8692 -1.2116 -0.0518
14392SOL    HW244916   1.241   4.675   7.884  0.4966  1.1973 -0.1933
14393SOL     OW44917   2.533   7.264   5.727 -0.0004 -0.3277  0.1531
14393SOL    HW144918   2.449   7.220   5.740 -0.4214  0.2180 -0.6095
14393SOL    HW244919   2.583   7.243   5.806 -0.5336 -1.3618  0.2427
14394SOL     OW44920   3.870   1.135   3.803  0.1642  0.4151 -0.1338
14394SOL    HW144921   3.840   1.183   3.726 -2.0220  0.2442  0.5389
14394SOL    HW244922   3.831   1.181   3.877 -0.1095 -1.0336  0.6694
14395SOL     OW44923   5.723   9.418   5.248  0.2557  0.2213  0.3820
14395SOL    HW144924   5.732   9.465   5.165  1.1392 -1.8270 -0.7459
14395SOL    HW244925   5.632   9.431   5.273  0.8643  4.1938  1.2355
14396SOL     OW44926   8.796   7.492   5.392 -0.0194 -0.2399  0.0589
14396SOL    HW144927   8.736   7.510   5.464 -0.5302 -1.9803  0.1230
14396SOL    HW244928   8.838   7.576   5.373 -1.9263  0.8667  0.5169
14397SOL     OW44929   7.499   6.265   5.775 -0.0189 -0.2637  0.2924
14397SOL    HW144930   7.582   6.267   5.821 -0.0581 -1.4857  0.4398
14397SOL    HW244931   7.519   6.229   5.689  0.0245  1.8442 -0.6310
14398SOL     OW44932   6.180   3.315   4.311  0.2557  0.1968  0.4149
14398SOL    HW144933   6.202   3.372   4.385  1.5091 -0.2272  0.4068
14398SOL    HW244934   6.096   3.275   4.335  0.0130  1.0464  1.0111
14399SOL     OW44935   3.496   4.855   3.336 -0.0317 -0.8959  0.5638
14399SOL    HW144936   3.405   4.845   3.309 -0.2755  0.6834  0.7017
14399SOL    HW244937   3.546   4.809   3.269 -0.8013  0.3865 -0.9520
14400SOL     OW44938   7.940   4.686   7.745  0.3303 -0.5098 -0.4070
14400SOL    HW144939   7.853   4.690   7.705  1.0427 -0.3583 -2.0220
14400SOL    HW244940   7.940   4.605   7.795 -0.0044 -1.7275 -2.2630
14401SOL     OW44941   4.445   8.876   8.811 -0.0525 -0.0527 -0.3276
14401SOL    HW144942   4.350   8.863   8.806 -0.1037 -0.4342  1.1607
14401SOL    HW244943   4.455   8.962   8.853  0.2500 -0.2905  0.0923
14402SOL     OW44944   9.613   3.716   1.643 -0.3963 -0.6914 -0.2286
14402SOL    HW144945   9.584   3.635   1.600 -0.4326 -0.0948 -1.3684
14402SOL    HW244946   9.678   3.687   1.707 -0.8998 -1.6861 -0.1451
14403SOL     OW44947   7.178   3.845   9.278 -0.2467 -0.2376  0.0562
14403SOL    HW144948   7.143   3.809   9.360  1.4817 -0.6086  0.6703
14403SOL    HW244949   7.202   3.769   9.226 -0.8282  0.0083 -0.5854
14404SOL     OW44950   7.480   9.465   8.332 -0.2353  0.0428  0.2929
14404SOL    HW144951   7.488   9.534   8.266  1.0801 -0.1516  0.2160
14404SOL    HW244952   7.520   9.389   8.291  0.1400 -0.2164  1.1206
14405SOL     OW44953   8.657   1.348   1.308  0.0373  0.0949 -0.3849
14405SOL    HW144954   8.642   1.386   1.222  1.2659  1.5346  0.0036
14405SOL    HW244955   8.581   1.291   1.322 -3.0504  3.8126 -0.2071
14406SOL     OW44956   8.591   3.299   5.917  0.4468  0.3237 -0.0405
14406SOL    HW144957   8.610   3.289   6.011  1.8570 -1.0836 -0.4396
14406SOL    HW244958   8.603   3.212   5.881 -2.8695  0.2109 -1.1287
14407SOL     OW44959   1.529   5.255   8.238 -0.1037 -0.4088 -0.0938
14407SOL    HW144960   1.600   5.272   8.177 -0.8040 -0.4714 -0.9493
14407SOL    HW244961   1.457   5.311   8.208 -0.3524 -0.1973  0.8740
14408SOL     OW44962   0.815   1.758   9.260  0.2172  0.1506  0.0739
14408SOL    HW144963   0.863   1.730   9.339 -0.6908  0.2433  0.6782
14408SOL    HW244964   0.810   1.853   9.268 -0.7389  0.0811  0.4305
14409SOL     OW44965   2.934   0.271   6.286  0.3454 -0.0057 -0.5752
14409SOL    HW144966   2.978   0.225   6.215  0.9935  0.1142 -0.2648
14409SOL    HW244967   2.894   0.202   6.338  0.6505 -0.1639 -0.5465
14410SOL     OW44968   7.357   7.090   4.784  0.2072  0.2245  0.0731
14410SOL    HW144969   7.452   7.079   4.795  0.2134  0.0728 -0.1159
14410SOL    HW244970   7.321   7.072   4.871  0.4508  1.5599  0.4619
14411SOL     OW44971   3.958   6.063   6.180 -0.1202 -0.0840  0.2464
14411SOL    HW144972   4.030   6.000   6.188 -0.0378 -0.0371 -0.1264
14411SOL    HW244973   3.892   6.030   6.242 -0.5367 -1.1793 -0.7365
14412SOL     OW44974   1.299   0.780   3.728  0.4672  0.0852 -0.4316
14412SOL    HW144975   1.280   0.688   3.707  0.9409 -0.5850  1.8098
14412SOL    HW244976   1.229   0.829   3.685 -1.5064 -1.5889  0.7061
14413SOL     OW44977   4.775   5.265   2.049 -0.5631  0.2362 -0.6686
14413SOL    HW144978   4.722   5.330   2.095  2.3783  1.6110  0.9775
14413SOL    HW244979   4.732   5.181   2.070 -2.9636  1.3462 -0.7780
14414SOL     OW44980   7.492   8.705   8.117 -0.2709  0.5317  0.0040
14414SOL    HW144981   7.455   8.770   8.058 -1.7468 -2.0262 -2.1612
14414SOL    HW244982   7.580   8.690   8.084 -0.2069  0.8716  0.0179
14415SOL     OW44983   2.302   5.427   3.929  0.2629  0.6069 -0.2045
14415SOL    HW144984   2.217   5.443   3.971  0.0397  1.6150 -0.9981
14415SOL    HW244985   2.364   5.422   4.001 -0.3615  0.6498  0.3416
14416SOL     OW44986   2.820   2.663   7.247  0.3564 -0.3644 -0.5681
14416SOL    HW144987   2.837   2.616   7.328  0.7817 -1.1441 -1.0901
14416SOL    HW244988   2.725   2.659   7.235  0.3895 -1.1286 -0.6165
14417SOL     OW44989   7.068   6.159   0.673  0.0587  0.4404  0.5220
14417SOL    HW144990   7.024   6.119   0.598 -0.9460  0.5054  1.0551
14417SOL    HW244991   7.058   6.253   0.659 -1.7386  0.4596  1.6091
14418SOL     OW44992   4.119   6.123   4.552  0.4277 -0.6115 -0.1819
14418SOL    HW144993   4.058   6.106   4.481  0.8124 -0.0878 -0.6451
14418SOL    HW244994   4.160   6.207   4.530  1.5604 -1.1081 -0.0701
14419SOL     OW44995   1.418   3.742   6.754  0.3391  0.0094  0.2526
14419SOL    HW144996   1.405   3.814   6.692  0.9044  0.0286  0.1549
14419SOL    HW244997   1.495   3.768   6.805  1.1077 -0.9447 -0.3865
14420SOL     OW44998   3.176   0.584   8.766 -0.0485  0.5960  0.2168
14420SOL    HW144999   3.156   0.505   8.816 -1.9066  1.3000  0.6712
14420SOL    HW245000   3.251   0.622   8.811  0.7230 -0.7754  0.1279
14421SOL     OW45001   9.231   0.997   2.995 -0.3052  0.1099  0.0165
14421SOL    HW145002   9.208   0.915   3.038  1.1049 -0.3782 -0.0966
14421SOL    HW245003   9.147   1.039   2.977 -1.0103 -0.7790  1.0875
14422SOL     OW45004   7.241   6.215   1.299 -0.1044 -0.1666  0.1575
14422SOL    HW145005   7.226   6.226   1.205 -0.4927 -1.0499  0.1069
14422SOL    HW245006   7.322   6.263   1.317  0.7865 -1.2056 -0.9116
14423SOL     OW45007   3.811   7.085   7.728  0.8255  0.8330 -0.6549
14423SOL    HW145008   3.839   7.007   7.775 -0.1873 -0.0557 -1.4844
14423SOL    HW245009   3.861   7.157   7.768  1.5627 -0.1890  0.3001
14424SOL     OW45010   1.286   4.045   0.577 -0.8173 -0.2038 -0.1058
14424SOL    HW145011   1.360   4.082   0.625  0.3437 -1.1132 -1.1199
14424SOL    HW245012   1.288   3.952   0.599 -0.0549 -0.7151 -2.0742
14425SOL     OW45013   1.134   9.598   9.366  0.0310  0.4052  0.3106
14425SOL    HW145014   1.147   9.640   9.451  0.6190 -1.3671  1.1385
14425SOL    HW245015   1.222   9.593   9.328 -0.2728  1.5439 -0.6286
14426SOL     OW45016   7.395   0.617   7.345  0.0922  0.3062  0.0877
14426SOL    HW145017   7.331   0.648   7.282  0.0365 -0.8561 -0.4603
14426SOL    HW245018   7.355   0.539   7.384  0.6398  0.3063  0.6766
14427SOL     OW45019   5.501   0.430   4.226 -0.6470 -0.1823 -0.2878
14427SOL    HW145020   5.522   0.518   4.260  1.2027  0.4444 -2.7696
14427SOL    HW245021   5.428   0.444   4.166 -2.9688 -1.0739  2.1196
14428SOL     OW45022   1.193   1.122   9.466 -0.2267  0.0526  0.1083
14428SOL    HW145023   1.275   1.163   9.493 -0.3078  0.4542 -0.2259
14428SOL    HW245024   1.126   1.187   9.488 -0.4072 -0.0949 -0.0037
14429SOL     OW45025   7.947   5.683   6.018  0.1640 -0.2151 -0.4327
14429SOL    HW145026   8.017   5.746   6.005 -0.1870 -0.0446 -1.6868
14429SOL    HW245027   7.922   5.657   5.929 -2.1930  0.6692 -0.1081
14430SOL     OW45028   2.376   5.032   1.410 -0.3518 -0.2722 -0.0452
14430SOL    HW145029   2.327   4.987   1.341 -0.8998  0.3110 -0.0389
14430SOL    HW245030   2.395   4.963   1.474  1.1040 -1.0752 -1.2581
14431SOL     OW45031   2.232   1.309   2.404 -0.1134  0.1547 -0.1078
14431SOL    HW145032   2.225   1.403   2.390  0.7390  0.0455 -1.3730
14431SOL    HW245033   2.144   1.275   2.386 -0.0811  0.5483 -1.0457
14432SOL     OW45034   8.215   1.874   8.826  0.2358  0.0991  0.1067
14432SOL    HW145035   8.176   1.867   8.913  0.5222 -0.0853  0.2243
14432SOL    HW245036   8.298   1.919   8.841  0.3557 -0.0657 -0.0493
14433SOL     OW45037   0.897   8.178   1.076  0.0656 -0.6561 -0.3008
14433SOL    HW145038   0.860   8.092   1.056  0.6178 -0.5778 -1.7524
14433SOL    HW245039   0.856   8.236   1.012  0.2913  0.0260  0.1695
14434SOL     OW45040   0.266   8.323   3.758  1.2384  0.8633 -0.1277
14434SOL    HW145041   0.321   8.373   3.697  1.2558  0.5878 -0.3397
14434SOL    HW245042   0.304   8.235   3.757  0.5614  0.5673 -0.5712
14435SOL     OW45043   8.558   9.429   9.475 -0.1404 -0.1916  0.0142
14435SOL    HW145044   8.473   9.459   9.505 -0.1442  0.7636 -0.9023
14435SOL    HW245045   8.621   9.490   9.514 -0.1645  1.2242 -2.0166
14436SOL     OW45046   9.542   6.146   2.509 -0.0112  0.3303  0.6881
14436SOL    HW145047   9.523   6.123   2.600  1.9301  1.4467  1.4371
14436SOL    HW245048   9.533   6.241   2.506  2.6152  0.6429  0.4863
14437SOL     OW45049   8.145   6.722   4.377 -0.4236 -0.0501  0.1455
14437SOL    HW145050   8.120   6.630   4.369 -3.7663  0.6291  1.1561
14437SOL    HW245051   8.065   6.771   4.356  0.2793  2.5019  2.6816
14438SOL     OW45052   8.481   8.377   6.614  0.8660 -0.1236 -0.4958
14438SOL    HW145053   8.394   8.417   6.619  0.5266 -0.8048 -0.8618
14438SOL    HW245054   8.515   8.384   6.703  0.6990  0.7064 -0.4797
14439SOL     OW45055   1.727   7.076   2.644 -0.0724  0.2741 -0.4153
14439SOL    HW145056   1.665   7.052   2.713  1.1421  1.7462  1.2704
14439SOL    HW245057   1.789   7.004   2.640 -1.3830 -0.8331 -1.5502
14440SOL     OW45058   0.329   6.019   5.580 -0.0175 -0.0914  0.1506
14440SOL    HW145059   0.417   6.003   5.547 -0.1640 -0.6398  0.0097
14440SOL    HW245060   0.278   6.040   5.501 -0.0237  0.1720  0.2244
14441SOL     OW45061   1.674   1.796   3.737  0.2058  0.1256 -0.1830
14441SOL    HW145062   1.706   1.826   3.653  0.8847 -1.0727 -0.3698
14441SOL    HW245063   1.746   1.746   3.775 -0.5242 -0.4169  0.5504
14442SOL     OW45064   0.277   8.011   0.184  0.7472  0.3508  1.0116
14442SOL    HW145065   0.216   7.948   0.145 -0.4488  0.9649  1.8271
14442SOL    HW245066   0.307   8.064   0.110 -1.2839  1.3270  0.7906
14443SOL     OW45067   1.792   3.404   7.020  0.4460  0.2350 -0.0067
14443SOL    HW145068   1.854   3.337   6.993 -0.1523 -1.1116  1.7459
14443SOL    HW245069   1.745   3.428   6.940  2.2676  0.3119 -1.1016
14444SOL     OW45070   8.519   6.816   0.393 -0.2341 -0.0922 -0.5934
14444SOL    HW145071   8.585   6.752   0.421 -0.1537  0.4734  0.5744
14444SOL    HW245072   8.509   6.800   0.299 -0.0289 -1.6403 -0.3850
14445SOL     OW45073   9.468   6.394   2.462  0.3040 -0.4319  0.5587
14445SOL    HW145074   9.485   6.452   2.537  0.6737  1.2428 -0.7534
14445SOL    HW245075   9.378   6.413   2.438  0.8859  0.7783 -0.8020
14446SOL     OW45076   2.570   3.659   6.320 -0.3076 -0.0703 -0.2296
14446SOL    HW145077   2.595   3.626   6.406  1.5965 -0.9203 -1.0645
14446SOL    HW245078   2.567   3.754   6.331  0.8673 -0.1019  0.5577
14447SOL     OW45079   8.384   1.255   4.764 -0.3236 -0.4644  0.2050
14447SOL    HW145080   8.372   1.240   4.858 -1.5280 -1.5712 -0.1011
14447SOL    HW245081   8.360   1.171   4.723  1.5649 -0.4801 -1.0035
14448SOL     OW45082   5.101   6.595   3.500 -0.5761  0.1980 -0.4173
14448SOL    HW145083   5.142   6.649   3.433 -2.2156  3.1361  0.7321
14448SOL    HW245084   5.173   6.548   3.542  0.9236  1.3191 -1.6595
14449SOL     OW45085   8.388   8.098   4.452 -0.0977  0.2788 -0.1959
14449SOL    HW145086   8.386   8.007   4.424 -1.5325  0.9132 -2.4114
14449SOL    HW245087   8.477   8.127   4.431  0.7040 -0.8044  1.4625
14450SOL     OW45088   3.012   5.777   3.285 -0.3781  0.3661 -0.0174
14450SOL    HW145089   3.100   5.752   3.312  0.1126  0.7768 -1.1810
14450SOL    HW245090   2.968   5.801   3.366  0.5629  0.0965  0.5850
14451SOL     OW45091   4.834   0.159   8.736  0.4525  0.8099 -0.2671
14451SOL    HW145092   4.859   0.243   8.775  0.4413  0.5203  0.3764
14451SOL    HW245093   4.758   0.179   8.682  0.9894  1.3742 -0.8428
14452SOL     OW45094   3.151   3.485   5.095  0.1275  0.0271 -0.0617
14452SOL    HW145095   3.141   3.430   5.017  1.6196 -0.0131 -0.2479
14452SOL    HW245096   3.210   3.555   5.067  2.1810 -0.9766  1.4772
14453SOL     OW45097   7.401   3.831   5.977 -0.0493 -0.3034  0.3423
14453SOL    HW145098   7.467   3.766   6.002 -0.3163 -0.9100 -0.4857
14453SOL    HW245099   7.321   3.801   6.020  0.5043  1.3243  2.7096
14454SOL     OW45100   4.693   2.516   5.836 -0.5880  0.0630  0.3399
14454SOL    HW145101   4.744   2.508   5.754 -0.9788  3.6698 -0.4419
14454SOL    HW245102   4.735   2.454   5.896  0.3696 -2.0033 -2.2417
14455SOL     OW45103   3.074   1.193   6.814 -0.5897  0.1029  0.1519
14455SOL    HW145104   3.056   1.173   6.906 -1.5539  0.4603  0.0496
14455SOL    HW245105   3.103   1.110   6.776 -0.5974 -0.1410  0.6765
14456SOL     OW45106   3.747   8.488   1.710 -0.2076  0.0729  0.2953
14456SOL    HW145107   3.808   8.535   1.767 -0.6456 -0.7601  1.5060
14456SOL    HW245108   3.665   8.537   1.716  0.6217  2.0428 -2.4762
14457SOL     OW45109   2.661   8.254   0.201  0.1118 -0.0291 -0.0697
14457SOL    HW145110   2.686   8.327   0.144 -1.6761 -0.7612 -1.9542
14457SOL    HW245111   2.659   8.178   0.142  2.6196 -1.8383  1.9521
14458SOL     OW45112   0.914   8.132   8.533  0.0789  0.4120  0.3512
14458SOL    HW145113   0.951   8.048   8.507 -0.4843  0.4845 -0.7393
14458SOL    HW245114   0.989   8.190   8.544  0.4460 -0.1505  0.8163
14459SOL     OW45115   1.361   2.180   6.703 -0.1068  0.2223  0.5400
14459SOL    HW145116   1.283   2.126   6.693 -0.6754  1.1234 -0.0207
14459SOL    HW245117   1.426   2.139   6.647 -0.2582 -0.3831  0.8020
14460SOL     OW45118   2.425   7.884   7.488 -0.3895  0.1068  0.3816
14460SOL    HW145119   2.501   7.852   7.440 -0.6845  0.9812 -0.7154
14460SOL    HW245120   2.462   7.928   7.565  0.0824 -1.3619  1.0165
14461SOL     OW45121   4.927   8.244   7.127 -1.3372  0.1590 -0.1341
14461SOL    HW145122   4.919   8.333   7.161  2.2079 -0.3919  2.8524
14461SOL    HW245123   5.016   8.240   7.091 -1.9457 -1.7931 -1.5971
14462SOL     OW45124   7.827   7.342   5.580  1.1246 -0.0656 -0.1834
14462SOL    HW145125   7.783   7.319   5.662  1.0519  0.0406 -0.1927
14462SOL    HW245126   7.890   7.271   5.566  1.4233  0.1258  0.1765
14463SOL     OW45127   4.097   5.877   9.093 -0.3051  0.3111  0.4297
14463SOL    HW145128   4.077   5.847   9.005 -2.0751  0.4160  0.7706
14463SOL    HW245129   4.193   5.869   9.100 -0.3646 -2.0830 -0.6216
14464SOL     OW45130   2.639   6.363   5.607  0.5025  0.9697 -0.5444
14464SOL    HW145131   2.694   6.413   5.667  0.3186  1.5632 -0.8644
14464SOL    HW245132   2.697   6.295   5.573  0.9196  1.3244 -0.5529
14465SOL     OW45133   7.160   7.783   2.545 -0.2086  0.1648 -0.2335
14465SOL    HW145134   7.137   7.857   2.602 -0.4010  0.6242 -0.8952
14465SOL    HW245135   7.092   7.717   2.562 -1.9998  1.4080 -1.9909
14466SOL     OW45136   4.756   5.834   3.587  0.0739  0.0173  0.1175
14466SOL    HW145137   4.835   5.786   3.610  1.0634  1.1707 -0.7799
14466SOL    HW245138   4.771   5.922   3.621 -0.3296  0.5507 -1.0333
14467SOL     OW45139   8.639   8.184   1.875 -0.1398  0.1341  0.7110
14467SOL    HW145140   8.725   8.145   1.893 -0.6938 -0.7998  1.4174
14467SOL    HW245141   8.576   8.125   1.918 -1.0772  1.2831  0.9735
14468SOL     OW45142   7.574   0.746   3.079  0.1626  0.5303 -0.2643
14468SOL    HW145143   7.556   0.694   3.157 -0.8446 -1.4834 -1.7471
14468SOL    HW245144   7.669   0.741   3.069  0.1623 -0.3537  0.0887
14469SOL     OW45145   2.331   5.749   6.181 -0.3704 -0.0781  0.1208
14469SOL    HW145146   2.298   5.716   6.097  0.5907 -0.9441  0.0719
14469SOL    HW245147   2.252   5.761   6.234 -1.0071  0.6046 -0.9357
14470SOL     OW45148   4.231   3.704   6.791  0.2724  0.4096 -0.4111
14470SOL    HW145149   4.294   3.704   6.863 -0.1187  1.4815 -0.0473
14470SOL    HW245150   4.283   3.729   6.714  0.4763  0.3290 -0.3008
14471SOL     OW45151   1.366   7.530   7.841 -0.0620 -0.5559  0.0656
14471SOL    HW145152   1.337   7.601   7.784  0.1109 -1.0240 -0.6156
14471SOL    HW245153   1.286   7.482   7.862 -0.2472  0.0899  0.8943
14472SOL     OW45154   5.739   2.359   2.802  0.4557 -0.0680 -0.6963
14472SOL    HW145155   5.785   2.329   2.881  0.1335 -0.0681 -0.5050
14472SOL    HW245156   5.790   2.323   2.730  0.7516 -0.0762 -0.4880
14473SOL     OW45157   0.542   9.463   6.732 -0.0451 -0.2177  0.7169
14473SOL    HW145158   0.531   9.462   6.827 -1.0711  1.8500  0.6807
14473SOL    HW245159   0.453   9.476   6.698  0.4459  0.2479 -0.4534
14474SOL     OW45160   8.586   8.452   9.603  0.1035  0.6832  0.3493
14474SOL    HW145161   8.538   8.398   9.665 -1.8337 -0.9388 -2.3550
14474SOL    HW245162   8.559   8.542   9.623 -0.8926  0.1598  1.4387
14475SOL     OW45163   6.072   1.260   8.137  0.6382 -0.4100  0.1783
14475SOL    HW145164   5.995   1.205   8.148  2.1590 -2.5770  0.5824
14475SOL    HW245165   6.103   1.277   8.226  1.7422 -1.2718 -0.0154
14476SOL     OW45166   7.058   5.470   8.357  0.5994 -0.3408  0.0530
14476SOL    HW145167   6.986   5.469   8.294  1.1450 -1.3610 -0.5810
14476SOL    HW245168   7.097   5.557   8.347  1.6841 -1.0250 -2.2189
14477SOL     OW45169   0.023   2.907   3.043 -0.0096  0.1231  0.5833
14477SOL    HW145170  -0.003   2.986   2.997 -1.0550  0.0153  0.9589
14477SOL    HW245171   0.077   2.859   2.980  2.6603  2.1742  1.1166
14478SOL     OW45172   8.675   2.465   9.046 -0.5171  0.0060 -0.1327
14478SOL    HW145173   8.720   2.546   9.070 -0.4484  0.0199 -0.3109
14478SOL    HW245174   8.675   2.414   9.126  1.9389 -1.0052 -0.6888
14479SOL     OW45175   3.626   2.755   6.459  0.5103 -0.0341 -0.2353
14479SOL    HW145176   3.610   2.727   6.369  1.0064 -0.7413 -0.1121
14479SOL    HW245177   3.701   2.703   6.488  0.7391  0.6157  0.3902
14480SOL     OW45178   7.099   4.303   9.249 -0.2722 -0.4483  0.1629
14480SOL    HW145179   7.155   4.248   9.304 -0.0616  0.8292  1.2976
14480SOL    HW245180   7.036   4.341   9.310 -0.8173  0.0636 -0.6954
14481SOL     OW45181   3.319   5.985   0.026  0.1959 -0.2002 -0.0574
14481SOL    HW145182   3.291   6.068   0.064 -0.2484  0.4003 -1.6083
14481SOL    HW245183   3.383   5.951   0.087 -0.8497  0.4589  1.4639
14482SOL     OW45184   5.838   6.089   5.790  0.0443  0.0584  0.1076
14482SOL    HW145185   5.818   6.078   5.883 -0.0813 -2.0517 -0.1284
14482SOL    HW245186   5.763   6.136   5.755 -1.9531 -2.7408  0.3267
14483SOL     OW45187   4.986   2.167   9.286 -0.4788 -0.0797 -0.4687
14483SOL    HW145188   5.020   2.224   9.355 -0.5691 -1.0896  0.4429
14483SOL    HW245189   4.899   2.141   9.317 -1.8278  1.8252 -2.3798
14484SOL     OW45190   1.512   2.244   8.149 -0.1896  0.3283 -0.0730
14484SOL    HW145191   1.596   2.259   8.193 -0.1524  0.4118 -0.1699
14484SOL    HW245192   1.511   2.309   8.079 -0.0117 -0.1471 -0.5238
14485SOL     OW45193   3.912   8.361   6.549  0.0644  0.7273  0.0243
14485SOL    HW145194   3.967   8.284   6.563  1.3711  1.5763 -0.2771
14485SOL    HW245195   3.972   8.429   6.518 -0.9339  2.0649  0.8807
14486SOL     OW45196   9.418   2.620   7.567  0.0682 -0.0154  0.1668
14486SOL    HW145197   9.348   2.555   7.571 -0.1743  0.3178  1.8799
14486SOL    HW245198   9.384   2.695   7.615  0.7110  1.0442 -0.9775
14487SOL     OW45199   2.396   6.033   6.142 -0.2524  0.4819  0.4759
14487SOL    HW145200   2.315   6.084   6.129 -0.2530  0.8838  1.8758
14487SOL    HW245201   2.366   5.949   6.175 -0.2333 -0.3978 -1.5968
14488SOL     OW45202   0.017   2.493   8.660  0.2022 -0.3559 -0.4525
14488SOL    HW145203   0.073   2.571   8.652  1.7713 -1.1142  1.8890
14488SOL    HW245204   0.067   2.424   8.617  1.5806 -1.2013  2.2865
14489SOL     OW45205   0.558   7.945   8.278 -0.2441 -0.5697  0.0149
14489SOL    HW145206   0.592   7.867   8.322  0.6898  0.2576  0.7737
14489SOL    HW245207   0.483   7.972   8.331  1.1377  0.6785  1.4066
14490SOL     OW45208   6.448   3.535   6.579  0.1342 -0.2124  0.1638
14490SOL    HW145209   6.475   3.620   6.543 -0.7161  0.0968  0.2371
14490SOL    HW245210   6.380   3.504   6.519  1.2646 -1.4210 -0.5486
14491SOL     OW45211   5.717   6.246   8.062  0.3225 -0.1790  0.3055
14491SOL    HW145212   5.737   6.340   8.055 -0.5023 -0.0005  0.3414
14491SOL    HW245213   5.730   6.226   8.154  1.9448 -0.4440  0.0588
14492SOL     OW45214   1.679   4.837   9.440 -0.4874 -0.1996 -0.3294
14492SOL    HW145215   1.743   4.907   9.454 -1.5763  0.9002 -0.6658
14492SOL    HW245216   1.674   4.791   9.524  1.1171 -0.6619 -0.4506
14493SOL     OW45217   2.983   0.789   3.650 -0.2153 -0.4102 -0.1542
14493SOL    HW145218   2.942   0.730   3.586  0.0991 -2.2598  1.2803
14493SOL    HW245219   2.953   0.758   3.735  0.7879  0.8863  0.7222
14494SOL     OW45220   0.324   5.494   3.335 -0.0707 -0.9234  0.3106
14494SOL    HW145221   0.377   5.422   3.301 -0.0930 -1.6627  1.7840
14494SOL    HW245222   0.284   5.459   3.414  1.1192  1.1625  1.9399
14495SOL     OW45223   8.360   4.049   0.093 -0.0711 -0.1319  0.5338
14495SOL    HW145224   8.415   4.117   0.056  0.5336 -0.6827  0.4133
14495SOL    HW245225   8.364   4.064   0.188 -0.1653  0.1663  0.4914
14496SOL     OW45226   0.747   3.666   1.295  0.0953  0.4905 -0.0604
14496SOL    HW145227   0.824   3.611   1.310  0.7665  1.4927  0.2610
14496SOL    HW245228   0.779   3.737   1.238 -0.9812  0.0371 -1.2832
14497SOL     OW45229   5.070   6.611   4.724  0.4918  0.0049 -0.6430
14497SOL    HW145230   5.002   6.664   4.765  0.7583 -0.3095  0.2244
14497SOL    HW245231   5.144   6.670   4.714  0.3438  0.1487 -0.9105
14498SOL     OW45232   3.452   8.894   3.929  0.3197 -0.5680 -0.0866
14498SOL    HW145233   3.429   8.824   3.990  2.9705 -1.4639 -0.0042
14498SOL    HW245234   3.544   8.913   3.947  0.7257  0.3242 -2.6439
14499SOL     OW45235   6.391   2.284   8.007  0.4845 -0.0708 -0.3107
14499SOL    HW145236   6.316   2.322   7.962 -0.9584 -0.4813  1.6156
14499SOL    HW245237   6.357   2.203   8.046  1.8873 -0.2156  0.6863
14500SOL     OW45238   6.388   3.657   8.737 -0.9159 -0.3617  0.1084
14500SOL    HW145239   6.465   3.712   8.723 -0.9556 -0.2780  0.2175
14500SOL    HW245240   6.332   3.708   8.795 -0.5620 -0.8787  0.9316
14501SOL     OW45241   6.934   0.880   6.489  0.0099  0.2929  0.6013
14501SOL    HW145242   6.936   0.792   6.525  1.4696  0.4864  1.0351
14501SOL    HW245243   6.915   0.936   6.565 -0.4801  0.4058  0.4024
14502SOL     OW45244   1.380   8.574   9.266 -0.1094 -0.3809 -0.6917
14502SOL    HW145245   1.290   8.607   9.259  0.8905  3.3114  1.2073
14502SOL    HW245246   1.421   8.598   9.183 -0.1781  0.5173 -0.4734
14503SOL     OW45247   5.403   4.116   9.063  0.2737  0.1825 -0.6396
14503SOL    HW145248   5.320   4.074   9.084  0.9499  0.0821  2.1936
14503SOL    HW245249   5.378   4.195   9.015 -1.4201 -0.0009 -0.1188
14504SOL     OW45250   3.761   4.037   0.549 -0.6548 -0.2307 -0.3080
14504SOL    HW145251   3.849   4.068   0.571 -0.6307  0.2663 -1.0657
14504SOL    HW245252   3.752   4.054   0.455 -1.0330 -1.5838 -0.5411
14505SOL     OW45253   6.183   3.891   4.545 -0.1675  0.5029 -0.2443
14505SOL    HW145254   6.126   3.958   4.507  0.7777  1.6014  0.2034
14505SOL    HW245255   6.224   3.935   4.619 -1.4706 -1.3770  1.6891
14506SOL     OW45256   3.093   4.022   7.203 -0.0344 -0.2447  0.1760
14506SOL    HW145257   3.103   3.971   7.122 -2.1866  0.9536 -0.9478
14506SOL    HW245258   3.166   4.084   7.201  0.3770 -0.7298 -0.4336
14507SOL     OW45259   7.383   1.495   6.103 -0.2293  0.1748  0.1292
14507SOL    HW145260   7.446   1.460   6.040  0.8571  0.5420  0.9872
14507SOL    HW245261   7.367   1.422   6.163  1.2485  0.7648  1.3126
14508SOL     OW45262   7.281   1.429   8.533 -0.3858 -0.1152  0.2468
14508SOL    HW145263   7.288   1.499   8.467  0.6607  2.4715  2.9013
14508SOL    HW245264   7.363   1.380   8.525 -0.3986 -0.0252 -0.5336
14509SOL     OW45265   7.450   1.733   5.884  0.3669  0.0706  0.0490
14509SOL    HW145266   7.465   1.701   5.973 -0.1788 -2.4088 -0.6636
14509SOL    HW245267   7.538   1.749   5.849  0.6761 -0.6186  0.4828
14510SOL     OW45268   1.692   3.177   6.577  0.0729  0.1458  0.2805
14510SOL    HW145269   1.647   3.238   6.519  0.3577  0.7776  0.7146
14510SOL    HW245270   1.744   3.122   6.518  0.7570  1.1070 -0.0394
14511SOL     OW45271   5.244   9.581   7.572  0.6015  0.0695  0.1872
14511SOL    HW145272   5.217   9.654   7.516 -0.9331 -2.6513 -2.9220
14511SOL    HW245273   5.211   9.605   7.659 -2.6065  1.7520 -1.3277
14512SOL     OW45274   9.182   0.545   4.076 -0.2904 -0.0181  0.2906
14512SOL    HW145275   9.274   0.548   4.101 -0.5123  1.8647  0.9700
14512SOL    HW245276   9.140   0.496   4.146 -0.0847  0.6976  0.9205
14513SOL     OW45277   5.086   4.122   4.132 -0.0342  0.6808 -0.3488
14513SOL    HW145278   5.141   4.045   4.118 -0.6323 -0.0199  1.0419
14513SOL    HW245279   5.015   4.112   4.069 -1.3205 -1.1012  1.2962
14514SOL     OW45280   8.528   6.939   8.326 -0.1112 -0.3355 -0.0653
14514SOL    HW145281   8.469   6.999   8.373 -0.1577  0.1864 -0.7732
14514SOL    HW245282   8.613   6.983   8.329  0.0108 -0.5832  0.0456
14515SOL     OW45283   3.455   0.145   5.980  0.3033  0.2270  0.3781
14515SOL    HW145284   3.495   0.068   5.940 -0.5000  0.1112 -0.2246
14515SOL    HW245285   3.485   0.143   6.071  1.0396 -0.2747  0.1315
14516SOL     OW45286   7.095   8.890   1.262 -0.4765 -0.1949 -0.5454
14516SOL    HW145287   7.008   8.889   1.222 -0.9880 -1.1443  0.5268
14516SOL    HW245288   7.127   8.801   1.251 -0.2595 -0.2374  0.3418
14517SOL     OW45289   5.617   6.432   3.262 -0.2649  0.3674  1.1080
14517SOL    HW145290   5.693   6.488   3.272 -0.3762  0.7681 -0.1676
14517SOL    HW245291   5.633   6.358   3.321  1.0911  0.4520  0.8616
14518SOL     OW45292   5.800   7.393   5.157  0.4671 -1.0186  0.7064
14518SOL    HW145293   5.816   7.299   5.143 -1.2324 -1.2181 -0.1822
14518SOL    HW245294   5.728   7.414   5.097 -0.1463  0.5308  1.9345
14519SOL     OW45295   1.589   9.186   3.122  0.1842 -0.2241 -0.2780
14519SOL    HW145296   1.588   9.165   3.216 -1.5320  2.1362  0.3402
14519SOL    HW245297   1.524   9.127   3.083 -1.8988  1.2439  0.7620
14520SOL     OW45298   2.680   1.525   2.537 -0.4537  0.0680 -0.2284
14520SOL    HW145299   2.690   1.477   2.454  1.4998  0.9677 -0.5860
14520SOL    HW245300   2.717   1.466   2.603  0.2380  0.2975 -0.3943
14521SOL     OW45301   8.359   0.255   9.448 -0.1756  0.1590  0.1935
14521SOL    HW145302   8.369   0.238   9.354  1.0394 -0.9949  0.4958
14521SOL    HW245303   8.447   0.241   9.484 -0.6243  0.5909  1.5134
14522SOL     OW45304   4.209   2.967   0.878  0.2798  0.4704 -0.1758
14522SOL    HW145305   4.122   2.928   0.868  0.6039 -0.4718  0.5605
14522SOL    HW245306   4.259   2.934   0.803  0.3592  0.0098  0.0791
14523SOL     OW45307   3.636   6.517   7.471  0.1208 -0.0431 -0.4317
14523SOL    HW145308   3.644   6.608   7.443  0.4230  0.0760  0.0253
14523SOL    HW245309   3.560   6.515   7.529 -0.4802 -0.2811 -1.2191
14524SOL     OW45310   8.989   0.354   4.197  0.1586 -0.0550  0.3929
14524SOL    HW145311   8.944   0.330   4.278 -1.4687  1.1664 -0.1130
14524SOL    HW245312   8.936   0.315   4.127 -0.3573  1.6797 -0.2289
14525SOL     OW45313   6.860   1.039   4.671  0.0418 -0.3567  0.2303
14525SOL    HW145314   6.798   0.984   4.623  1.3074 -1.4923 -0.1577
14525SOL    HW245315   6.808   1.114   4.699 -1.8013 -1.7728  0.8579
14526SOL     OW45316   1.843   5.764   8.972  0.0961 -0.0388 -0.3893
14526SOL    HW145317   1.821   5.756   9.065  0.8292 -1.7815 -0.3373
14526SOL    HW245318   1.840   5.675   8.939  2.3517  0.2172 -1.4582
14527SOL     OW45319   4.100   4.988   3.813 -0.0867 -0.1764 -0.0995
14527SOL    HW145320   4.187   5.027   3.811  0.2729 -0.9634 -0.4918
14527SOL    HW245321   4.061   5.012   3.730  0.1100 -0.5716 -0.3125
14528SOL     OW45322   8.335   6.510   8.229 -0.1082  0.0861  0.3496
14528SOL    HW145323   8.274   6.581   8.210  0.5947  0.7160  0.4039
14528SOL    HW245324   8.420   6.542   8.199 -0.2070 -1.9250 -2.5029
14529SOL     OW45325   6.264   7.060   4.149 -0.1491  0.3549 -0.7134
14529SOL    HW145326   6.344   7.046   4.199 -0.6374 -3.4260 -0.7069
14529SOL    HW245327   6.294   7.071   4.058  0.4581 -0.1215 -0.5811
14530SOL     OW45328   5.213   4.366   4.227  0.2631 -0.2054  0.4173
14530SOL    HW145329   5.194   4.278   4.193  0.9771 -0.1324 -0.1959
14530SOL    HW245330   5.189   4.425   4.156  1.1628 -0.0078  0.2670
14531SOL     OW45331   6.845   7.251   0.892 -0.4190  0.0549  0.0129
14531SOL    HW145332   6.790   7.227   0.817  0.0919 -0.3967 -0.2230
14531SOL    HW245333   6.795   7.222   0.969 -0.8653  0.3614 -0.1592
14532SOL     OW45334   5.521   4.951   5.822  0.2341 -0.0816  0.1650
14532SOL    HW145335   5.434   4.913   5.830  0.6103 -1.4365 -1.4726
14532SOL    HW245336   5.505   5.045   5.809 -1.1319 -0.5316 -1.9359
14533SOL     OW45337   3.588   2.190   1.645 -0.0672 -0.2024 -0.4134
14533SOL    HW145338   3.645   2.265   1.630 -0.6024  0.5010  0.9210
14533SOL    HW245339   3.613   2.158   1.732 -1.4683 -0.0843  0.0615
14534SOL     OW45340   1.589   1.775   8.446 -0.5691  0.2347  0.0269
14534SOL    HW145341   1.605   1.868   8.431  0.7500  0.2466  1.2724
14534SOL    HW245342   1.659   1.748   8.505 -0.5401 -1.7147 -0.8388
14535SOL     OW45343   4.809   0.477   9.101 -0.1977 -0.0395  0.1511
14535SOL    HW145344   4.849   0.551   9.055 -1.3392  2.2040  2.4943
14535SOL    HW245345   4.717   0.504   9.112 -0.6005 -1.7621  1.2190
14536SOL     OW45346   4.318   8.538   1.370 -0.3356 -0.2678  0.3328
14536SOL    HW145347   4.260   8.502   1.438 -2.0912 -0.2155 -1.0703
14536SOL    HW245348   4.258   8.576   1.306  1.3584  2.2003  0.1161
14537SOL     OW45349   3.703   7.033   7.053  0.0783  0.5189  0.1125
14537SOL    HW145350   3.612   7.061   7.048  0.0325  0.6693  1.4226
14537SOL    HW245351   3.712   6.967   6.984 -1.0988  0.2902  0.1612
14538SOL     OW45352   1.656   3.190   1.051 -0.1358  0.1873 -0.4914
14538SOL    HW145353   1.662   3.118   1.114  1.6490 -0.2311 -1.0889
14538SOL    HW245354   1.667   3.149   0.966 -2.3852  0.7669 -1.1344
14539SOL     OW45355   7.226   2.080   5.618 -0.8110  0.5017  0.3158
14539SOL    HW145356   7.250   2.134   5.544 -2.2356 -0.4502 -0.9135
14539SOL    HW245357   7.270   2.119   5.693  0.0037  1.9763 -0.8984
14540SOL     OW45358   6.518   5.507   0.356 -0.2234 -0.2490 -0.0560
14540SOL    HW145359   6.567   5.581   0.392 -1.2922  0.4947 -0.0920
14540SOL    HW245360   6.516   5.522   0.262  0.0588 -0.6382 -0.1253
14541SOL     OW45361   2.854   5.133   5.266  0.0576 -0.3579 -0.0978
14541SOL    HW145362   2.902   5.212   5.290  0.6870 -0.5226 -0.7646
14541SOL    HW245363   2.762   5.160   5.266  0.2955  0.5261 -0.8279
14542SOL     OW45364   9.404   4.464   7.713 -0.0611 -0.2774 -0.0012
14542SOL    HW145365   9.475   4.401   7.699 -0.6042 -1.4067  1.9271
14542SOL    HW245366   9.342   4.417   7.768 -0.7403  1.8014  1.1024
14543SOL     OW45367   0.458   1.648   7.446 -0.7886  0.2511  0.1819
14543SOL    HW145368   0.524   1.624   7.381 -2.5701  1.0770 -2.0903
14543SOL    HW245369   0.444   1.742   7.432 -2.4927  0.0803  0.5153
14544SOL     OW45370   1.753   8.435   1.264  0.4221  0.1295  0.4351
14544SOL    HW145371   1.711   8.480   1.336 -0.9218  1.7117 -1.2369
14544SOL    HW245372   1.769   8.503   1.199  0.1849 -1.4486 -1.3855
14545SOL     OW45373   5.598   6.673   6.639 -0.0930 -0.3378  0.2509
14545SOL    HW145374   5.643   6.734   6.581  0.8046  1.4253  2.6433
14545SOL    HW245375   5.665   6.644   6.700 -1.3286 -0.8896  1.4014
14546SOL     OW45376   8.368   5.448   3.804  0.5647  0.0876 -0.3892
14546SOL    HW145377   8.335   5.459   3.893  1.4703  1.4421 -0.1746
14546SOL    HW245378   8.463   5.440   3.815  0.5443 -1.3968 -1.1318
14547SOL     OW45379   7.037   4.072   6.905  0.0673 -0.2451  0.2863
14547SOL    HW145380   7.133   4.072   6.906  0.0957 -0.1070 -0.9283
14547SOL    HW245381   7.012   4.082   6.997  1.2098 -1.2618  0.7375
14548SOL     OW45382   8.239   5.510   8.413 -0.3950 -0.2737  0.1682
14548SOL    HW145383   8.320   5.535   8.368 -0.9260 -0.1744 -0.7763
14548SOL    HW245384   8.258   5.423   8.450  0.8610  0.6932  1.9208
14549SOL     OW45385   2.902   5.165   0.067 -0.0156  0.2763  0.3632
14549SOL    HW145386   2.921   5.180   0.160  1.4719  3.0094 -0.2693
14549SOL    HW245387   2.889   5.252   0.031  2.8538 -0.3353 -2.6433
14550SOL     OW45388   2.621   4.935   7.763  0.0651  0.1913 -0.1087
14550SOL    HW145389   2.657   4.984   7.689 -0.0981 -0.4080 -0.5951
14550SOL    HW245390   2.552   4.881   7.725 -2.2471  2.1916  0.9785
14551SOL     OW45391   9.580   2.587   8.279  0.4789  0.3874 -0.5785
14551SOL    HW145392   9.557   2.679   8.288  1.6113  0.5146  1.4452
14551SOL    HW245393   9.674   2.583   8.299  0.4871 -1.1768 -0.8099
14552SOL     OW45394   6.326   8.449   8.068  0.5737  0.0421 -0.0643
14552SOL    HW145395   6.330   8.538   8.106 -1.0182  0.0208  0.2232
14552SOL    HW245396   6.368   8.394   8.134 -0.8106  0.2265  1.0207
14553SOL     OW45397   5.146   0.922   7.418 -0.2508  0.3054 -0.6861
14553SOL    HW145398   5.091   0.857   7.374 -0.1748 -1.4528  1.6673
14553SOL    HW245399   5.223   0.874   7.447  1.6848  2.3215 -2.1587
14554SOL     OW45400   0.494   6.883   1.847  0.7416 -0.9225  0.2194
14554SOL    HW145401   0.511   6.965   1.801  2.1415 -0.9792  0.6029
14554SOL    HW245402   0.452   6.910   1.929 -2.2201 -0.8479 -1.1669
14555SOL     OW45403   6.593   4.081   3.280  0.2787  0.0706 -0.3203
14555SOL    HW145404   6.555   4.039   3.357 -0.8633  0.2235 -0.7779
14555SOL    HW245405   6.681   4.107   3.307  0.2486 -0.7564  0.6115
14556SOL     OW45406   0.972   1.059   3.275 -0.1916 -0.3119  0.1841
14556SOL    HW145407   0.948   1.089   3.187 -1.3807  0.9482  0.8835
14556SOL    HW245408   1.041   1.120   3.303 -1.7826  1.1501  1.1532
14557SOL     OW45409   4.634   8.823   3.164  0.6317  0.5894 -0.4354
14557SOL    HW145410   4.572   8.837   3.236 -0.8084  2.5330 -1.9477
14557SOL    HW245411   4.712   8.872   3.188  0.9126 -0.3549  0.6441
14558SOL     OW45412   3.399   3.217   4.650  0.5789  0.0120 -0.4556
14558SOL    HW145413   3.348   3.220   4.569 -0.9069 -0.6872  0.4101
14558SOL    HW245414   3.429   3.126   4.655 -0.5027 -0.3227  0.4302
14559SOL     OW45415   0.750   0.208   0.903 -0.0665  0.2249 -0.1271
14559SOL    HW145416   0.684   0.143   0.927 -0.2485  0.9667  1.5492
14559SOL    HW245417   0.702   0.290   0.896  0.9307  1.4457  4.2665
14560SOL     OW45418   6.827   6.017   1.526 -0.2257 -0.7695  0.1395
14560SOL    HW145419   6.921   6.037   1.530 -0.5236  0.8442 -0.2046
14560SOL    HW245420   6.809   5.971   1.608  0.6098  0.1926  0.8981
14561SOL     OW45421   7.039   5.362   5.600 -0.3927  0.2342  0.6987
14561SOL    HW145422   7.107   5.394   5.541  0.3761 -1.7960  0.4112
14561SOL    HW245423   7.079   5.287   5.644 -2.2641 -0.6867  0.9221
14562SOL     OW45424   6.212   3.506   3.589  0.0750  0.3158  0.1963
14562SOL    HW145425   6.282   3.471   3.535 -0.6440 -0.1065 -0.4780
14562SOL    HW245426   6.151   3.546   3.527  0.0866  1.3605  0.8272
14563SOL     OW45427   4.376   3.817   8.129 -0.5616 -0.0595 -0.1377
14563SOL    HW145428   4.467   3.791   8.144 -0.8719 -0.9479  0.2170
14563SOL    HW245429   4.326   3.735   8.131 -1.1809  0.2227 -1.8449
14564SOL     OW45430   0.634   8.746   5.204  0.5341 -0.7000  0.2071
14564SOL    HW145431   0.542   8.745   5.178  0.6952  3.3831 -1.1456
14564SOL    HW245432   0.680   8.704   5.131 -0.1428 -2.0626  0.5365
14565SOL     OW45433   2.490   1.141   5.187  0.4157 -0.4548 -0.0205
14565SOL    HW145434   2.394   1.139   5.181  0.5372 -0.6294 -3.4970
14565SOL    HW245435   2.511   1.077   5.254 -1.9104  1.0743  2.4039
14566SOL     OW45436   4.462   5.012   3.125 -0.9256  0.5131  0.8161
14566SOL    HW145437   4.415   5.082   3.171  1.3729  1.5111  1.7583
14566SOL    HW245438   4.451   4.936   3.182 -1.4650  0.6975  0.9712
14567SOL     OW45439   0.145   8.963   1.525  0.3057 -0.4735 -0.1278
14567SOL    HW145440   0.120   9.022   1.596 -1.5746  0.2286 -1.3078
14567SOL    HW245441   0.173   9.021   1.454  1.8964 -1.1593 -0.1053
14568SOL     OW45442   2.613   1.876   6.843 -0.1700 -0.4496  0.2259
14568SOL    HW145443   2.643   1.832   6.922 -0.0415  1.4659  1.2961
14568SOL    HW245444   2.518   1.861   6.841 -0.0652 -1.1377  0.3177
14569SOL     OW45445   5.718   7.787   4.327 -0.3459  0.5415 -0.5384
14569SOL    HW145446   5.694   7.789   4.235 -0.4002 -2.1969 -0.6733
14569SOL    HW245447   5.639   7.757   4.372 -1.0224  3.9069  0.7790
14570SOL     OW45448   3.032   1.847   6.939 -0.0669  0.6685  0.1574
14570SOL    HW145449   3.045   1.781   6.870  0.8990  0.1882  0.7826
14570SOL    HW245450   2.980   1.801   7.005 -0.0087  0.7704  0.2719
14571SOL     OW45451   3.778   8.977   3.269 -0.1295  0.7985 -0.7101
14571SOL    HW145452   3.828   9.058   3.253  0.4848  0.5280 -0.2153
14571SOL    HW245453   3.743   8.953   3.183  1.2362  0.5874 -1.2363
14572SOL     OW45454   4.065   2.735   8.797  0.0789 -0.0193  0.0854
14572SOL    HW145455   3.999   2.779   8.743 -0.7173 -0.4730  0.6687
14572SOL    HW245456   4.030   2.741   8.886  0.3078 -1.2138  0.2642
14573SOL     OW45457   6.419   3.392   8.827 -0.1753  0.1457  0.4229
14573SOL    HW145458   6.424   3.480   8.787 -0.3288 -0.0749 -0.0935
14573SOL    HW245459   6.326   3.379   8.844 -0.2693 -0.2814 -0.3540
14574SOL     OW45460   0.635   8.541   5.936  0.1410  0.3133 -0.3244
14574SOL    HW145461   0.560   8.490   5.965 -0.4658  1.3893  0.0564
14574SOL    HW245462   0.699   8.531   6.007  0.9644 -1.7385 -1.2624
14575SOL     OW45463   1.053   7.883   1.988 -0.1345  0.3440 -0.0015
14575SOL    HW145464   1.007   7.893   1.904  1.0923 -0.4003 -0.7889
14575SOL    HW245465   0.997   7.824   2.038 -1.5772  1.8744  0.2651
14576SOL     OW45466   0.363   0.434   1.457 -0.5014  0.5499 -0.0212
14576SOL    HW145467   0.323   0.392   1.533  1.1729  0.1706  0.6917
14576SOL    HW245468   0.350   0.370   1.386 -1.3199  0.5309  0.1337
14577SOL     OW45469   9.469   0.894   9.545  0.7128  0.3448  0.0562
14577SOL    HW145470   9.446   0.802   9.531 -0.0996  0.4745  0.4753
14577SOL    HW245471   9.513   0.894   9.631 -0.5698  0.5331  0.7397
14578SOL     OW45472   7.926   5.762   2.100 -0.2924  0.6134  0.1891
14578SOL    HW145473   7.919   5.848   2.141 -0.6786  1.2320 -1.1310
14578SOL    HW245474   7.859   5.709   2.145 -0.2831  1.0907  0.7763
14579SOL     OW45475   1.235   2.750   4.216  0.6243 -0.1133  0.1884
14579SOL    HW145476   1.274   2.663   4.220 -1.0406 -1.0587 -2.0668
14579SOL    HW245477   1.156   2.743   4.270 -1.2617 -1.1353 -2.4561
14580SOL     OW45478   2.888   1.373   5.251 -0.4324  0.5381 -0.1528
14580SOL    HW145479   2.956   1.318   5.214 -2.2408 -2.9239  1.1964
14580SOL    HW245480   2.825   1.385   5.179 -1.0832 -1.1645  0.0787
14581SOL     OW45481   4.933   9.397   7.549  0.1615  0.0281  0.0666
14581SOL    HW145482   4.941   9.409   7.643 -0.1215 -0.6566  0.1871
14581SOL    HW245483   4.884   9.473   7.519 -1.1348 -0.5108  0.7198
14582SOL     OW45484   8.712   5.750   6.877 -0.1161 -0.9942  0.1125
14582SOL    HW145485   8.764   5.819   6.836  1.1305 -1.9265  0.0533
14582SOL    HW245486   8.721   5.675   6.818  2.2377 -2.5752  2.2664
14583SOL     OW45487   8.279   6.692   8.524 -0.3153  0.2160 -0.3956
14583SOL    HW145488   8.283   6.721   8.433 -0.4927 -1.4569 -0.9756
14583SOL    HW245489   8.217   6.619   8.523  0.2906 -0.3437  0.9151
14584SOL     OW45490   0.202   8.506   1.311 -0.0445  0.2232  0.0681
14584SOL    HW145491   0.255   8.426   1.313 -1.6150 -0.8399  1.4653
14584SOL    HW245492   0.128   8.485   1.255 -0.0928  0.9852 -0.1751
14585SOL     OW45493   9.601   4.559   5.392 -0.2595 -0.2595  0.4332
14585SOL    HW145494   9.669   4.497   5.367  0.2995  1.7402 -3.9634
14585SOL    HW245495   9.520   4.519   5.362 -0.0695  0.3951 -1.0381
14586SOL     OW45496   7.592   4.238   6.333  0.0676 -0.3453 -0.3686
14586SOL    HW145497   7.607   4.143   6.340  3.7928  0.1842  1.3665
14586SOL    HW245498   7.647   4.265   6.260  1.0437  0.7034  0.7026
14587SOL     OW45499   5.301   6.915   8.385  0.1390  0.0921  0.2502
14587SOL    HW145500   5.246   6.979   8.429 -0.6158 -0.2339 -0.1971
14587SOL    HW245501   5.241   6.865   8.329  0.9791  0.1153 -0.7119
14588SOL     OW45502   0.575   6.506   6.360  0.1131 -0.0582  0.4467
14588SOL    HW145503   0.539   6.535   6.443  0.4770  0.0887  0.5558
14588SOL    HW245504   0.670   6.506   6.374  0.2363  0.9505 -0.2863
14589SOL     OW45505   2.330   5.510   2.293  0.6890  0.5085  0.1991
14589SOL    HW145506   2.243   5.496   2.257  1.2700  2.0055 -2.0392
14589SOL    HW245507   2.340   5.605   2.297  1.5251  0.3939  2.3361
14590SOL     OW45508   5.458   8.700   2.811 -0.3149  0.3229 -0.1078
14590SOL    HW145509   5.420   8.699   2.724 -0.8545  0.5172  0.1221
14590SOL    HW245510   5.394   8.655   2.866 -0.9670  2.0087  0.5780
14591SOL     OW45511   7.753   9.602   0.287 -0.1336  0.7934  0.1555
14591SOL    HW145512   7.801   9.526   0.318  0.0419  0.8205 -0.0500
14591SOL    HW245513   7.687   9.566   0.228  0.1371  0.8261 -0.1693
14592SOL     OW45514   4.139   8.451   0.076  0.4595 -0.2311 -0.3165
14592SOL    HW145515   4.119   8.500  -0.004  0.8517  0.6694  0.1127
14592SOL    HW245516   4.227   8.416   0.062  2.3171  3.2715  1.1669
14593SOL     OW45517   4.087   9.150   7.036  0.2677 -0.5398 -0.0528
14593SOL    HW145518   4.109   9.243   7.027  0.6378 -0.6656 -0.5306
14593SOL    HW245519   4.006   9.140   6.986  1.8194 -1.0457 -2.6662
14594SOL     OW45520   8.352   9.152   2.581 -0.5312 -0.1077  0.1457
14594SOL    HW145521   8.404   9.090   2.530  1.0519  2.4196 -1.6064
14594SOL    HW245522   8.271   9.163   2.531 -1.6101 -1.9747  1.3952
14595SOL     OW45523   8.211   4.861   8.517  0.2105 -0.2911 -0.0870
14595SOL    HW145524   8.291   4.865   8.568  0.6864 -2.0251 -0.6204
14595SOL    HW245525   8.181   4.770   8.526 -1.7756  0.3383  0.2005
14596SOL     OW45526   4.474   5.698   5.793  0.0192 -0.1505 -0.2730
14596SOL    HW145527   4.379   5.709   5.797 -0.3201 -2.8735  1.0584
14596SOL    HW245528   4.504   5.715   5.882  0.4448 -1.6273 -0.1148
14597SOL     OW45529   6.318   7.388   3.353  0.3026  0.1236 -0.1409
14597SOL    HW145530   6.362   7.307   3.378 -0.1530  0.0951  0.6021
14597SOL    HW245531   6.363   7.416   3.274  0.8686 -0.5290 -0.0615
14598SOL     OW45532   8.391   3.341   3.826 -0.2817  0.5423 -0.1511
14598SOL    HW145533   8.483   3.316   3.817 -0.1366  1.0578 -0.1441
14598SOL    HW245534   8.359   3.287   3.898  0.0749  0.5284  0.0009
14599SOL     OW45535   8.128   6.059   8.230 -0.0203  0.1261 -0.0898
14599SOL    HW145536   8.108   5.969   8.206  1.0552 -0.4834  1.1921
14599SOL    HW245537   8.075   6.112   8.170 -1.1276 -1.3436 -0.4571
14600SOL     OW45538   3.858   2.790   3.301 -0.2463 -0.1244 -0.8115
14600SOL    HW145539   3.854   2.795   3.396 -0.1382  0.3083 -0.8263
14600SOL    HW245540   3.808   2.867   3.271  0.1168  0.0008 -1.1004
14601SOL     OW45541   6.589   3.544   7.134 -0.5411  0.4881  0.5016
14601SOL    HW145542   6.521   3.544   7.202 -0.4922  0.0377  0.5536
14601SOL    HW245543   6.627   3.457   7.138 -0.8303  0.3105 -0.4046
14602SOL     OW45544   3.473   2.848   7.176 -0.2270 -0.3885 -0.1293
14602SOL    HW145545   3.495   2.879   7.264  1.0940 -0.9281 -0.2489
14602SOL    HW245546   3.389   2.804   7.187  0.5039 -1.5795  1.1612
14603SOL     OW45547   6.509   5.119   4.805 -0.6126 -0.1540 -0.4677
14603SOL    HW145548   6.583   5.149   4.858  0.6883 -2.0103 -1.1000
14603SOL    HW245549   6.540   5.037   4.767 -2.4135 -0.1272 -2.1150
14604SOL     OW45550   1.834   1.508   3.457  0.2794 -0.2378 -0.1443
14604SOL    HW145551   1.884   1.575   3.409  1.6917 -2.6192 -2.3151
14604SOL    HW245552   1.744   1.519   3.426  0.4658  0.6881 -0.3988
14605SOL     OW45553   4.398   6.551   7.309 -0.3681  0.6137 -0.2266
14605SOL    HW145554   4.437   6.589   7.388 -0.5366 -0.9081  0.6225
14605SOL    HW245555   4.311   6.592   7.303 -0.2657  0.9016  0.2412
14606SOL     OW45556   7.891   3.325   7.835 -0.1437 -0.8476 -0.3414
14606SOL    HW145557   7.801   3.354   7.819 -0.2704 -1.0952 -0.0987
14606SOL    HW245558   7.945   3.399   7.809 -0.4888 -0.1532  0.8227
14607SOL     OW45559   4.080   6.122   7.283 -0.6255  0.4648 -0.3622
14607SOL    HW145560   4.141   6.074   7.340 -2.5534 -0.1780  1.2876
14607SOL    HW245561   4.090   6.213   7.309 -1.2216  0.2165  0.7993
14608SOL     OW45562   4.492   6.021   1.600  0.3643 -0.0904 -0.3928
14608SOL    HW145563   4.554   5.948   1.604  0.6641  0.1206 -1.1737
14608SOL    HW245564   4.484   6.042   1.507  1.0299  1.5075 -0.1259
14609SOL     OW45565   9.226   8.591   8.129  0.1115 -0.1915  0.5191
14609SOL    HW145566   9.182   8.509   8.107  0.3234  0.0679 -0.9632
14609SOL    HW245567   9.154   8.654   8.140  0.0150  0.3529 -2.3940
14610SOL     OW45568   8.169   7.249   4.428  0.0510  0.1822 -0.2537
14610SOL    HW145569   8.132   7.236   4.341  0.5480  0.4007 -0.5026
14610SOL    HW245570   8.263   7.258   4.413  0.0204  1.3717  0.1806
14611SOL     OW45571   7.342   1.754   1.173  0.6254 -0.0313  0.2325
14611SOL    HW145572   7.394   1.774   1.095  0.2327  2.0524  0.4331
14611SOL    HW245573   7.384   1.677   1.211  1.5328 -0.3901 -1.3910
14612SOL     OW45574   6.594   9.071   1.949 -0.3190 -0.1209  0.3545
14612SOL    HW145575   6.654   9.037   2.016 -1.1749  0.0785  1.2385
14612SOL    HW245576   6.544   9.138   1.994 -1.2986 -0.3682 -0.3405
14613SOL     OW45577   8.814   1.368   2.191  0.4481 -0.4021  0.6427
14613SOL    HW145578   8.800   1.461   2.172 -2.6939 -0.5066  1.8420
14613SOL    HW245579   8.907   1.354   2.176  0.4452  2.0911 -3.1111
14614SOL     OW45580   8.958   3.785   3.065 -0.2318  0.4872  0.2879
14614SOL    HW145581   8.934   3.730   3.140 -0.4971 -1.0616 -0.8774
14614SOL    HW245582   8.977   3.722   2.995 -0.6891  1.8961 -1.1497
14615SOL     OW45583   3.534   4.249   5.584 -0.1828  0.2464  0.3327
14615SOL    HW145584   3.447   4.225   5.554 -0.3261  1.3761 -0.2164
14615SOL    HW245585   3.591   4.180   5.550 -0.7368 -0.0050 -0.1041
14616SOL     OW45586   6.610   7.332   7.580  0.3718  0.2793 -0.1249
14616SOL    HW145587   6.526   7.377   7.570  0.8751  0.9198 -1.9049
14616SOL    HW245588   6.604   7.256   7.523  0.5245 -0.4225  0.7771
14617SOL     OW45589   3.057   5.546   1.606 -0.0645 -0.6974  0.1212
14617SOL    HW145590   3.095   5.460   1.585  1.2206 -0.3570  0.9432
14617SOL    HW245591   3.103   5.607   1.547  1.8201 -0.0772  2.1033
14618SOL     OW45592   8.055   0.190   3.092  0.1297 -0.0059 -0.4847
14618SOL    HW145593   8.098   0.106   3.079 -1.0229 -0.6301 -0.3855
14618SOL    HW245594   7.962   0.170   3.088 -0.1955  1.6158 -2.8233
14619SOL     OW45595   0.979   6.356   6.886  0.3192 -0.2450  0.1609
14619SOL    HW145596   1.055   6.335   6.833 -1.7535 -1.8168 -2.4081
14619SOL    HW245597   0.930   6.420   6.834 -0.7101 -0.1701  1.1686
14620SOL     OW45598   7.617   3.621   8.163  0.2579  0.4396  0.6105
14620SOL    HW145599   7.617   3.531   8.129  0.5392  0.3317  0.8841
14620SOL    HW245600   7.532   3.630   8.206 -0.2352  0.6854 -0.3836
14621SOL     OW45601   1.977   3.480   8.301 -0.5595  0.0519 -0.3282
14621SOL    HW145602   1.910   3.416   8.275 -0.0674 -0.2401 -0.8960
14621SOL    HW245603   1.931   3.564   8.301 -1.1393 -0.2599  0.1327
14622SOL     OW45604   6.877   8.935   8.176 -0.0180 -0.0454  0.2765
14622SOL    HW145605   6.844   8.970   8.093 -1.2912  0.0131  0.7784
14622SOL    HW245606   6.813   8.869   8.201 -0.2174  0.6582  1.7203
14623SOL     OW45607   7.061   4.805   7.287  0.4421 -0.8911  0.3259
14623SOL    HW145608   7.001   4.879   7.282 -0.7789 -1.8098  1.0699
14623SOL    HW245609   7.146   4.842   7.261 -0.3682  0.4825 -0.4720
14624SOL     OW45610   7.263   5.161   1.279  0.2878 -0.1880  0.3687
14624SOL    HW145611   7.253   5.089   1.341 -0.8795  0.2562  0.7349
14624SOL    HW245612   7.174   5.175   1.245  0.9178 -0.4551 -1.4502
14625SOL     OW45613   5.945   9.489   1.034  0.1711 -0.0649 -0.3755
14625SOL    HW145614   5.909   9.576   1.054 -0.6088 -0.3865 -0.3478
14625SOL    HW245615   5.934   9.440   1.116 -0.9915 -0.7084 -0.8821
14626SOL     OW45616   2.690   3.511   0.763 -0.8404  0.4058 -0.1736
14626SOL    HW145617   2.630   3.492   0.691 -1.0578  1.9967 -0.4552
14626SOL    HW245618   2.642   3.572   0.819 -0.1690  0.2431  0.5938
14627SOL     OW45619   3.467   3.973   0.507 -0.1964 -0.0016 -0.4635
14627SOL    HW145620   3.552   3.995   0.545  0.4938 -0.9118 -1.4126
14627SOL    HW245621   3.413   4.050   0.523  0.5919  0.3261  0.7546
14628SOL     OW45622   3.959   3.752   4.885  0.1517  0.1754  0.6436
14628SOL    HW145623   3.947   3.683   4.950  0.4853  0.2545  0.7906
14628SOL    HW245624   4.050   3.741   4.855  0.0783  0.2954  0.3722
14629SOL     OW45625   8.876   4.755   5.278 -0.5618 -0.5141  0.5590
14629SOL    HW145626   8.857   4.829   5.221 -0.3769 -0.8951 -0.0032
14629SOL    HW245627   8.843   4.678   5.232  0.8240 -0.9988  0.2999
14630SOL     OW45628   0.256   4.288   4.869  0.2392 -0.1342  0.1892
14630SOL    HW145629   0.190   4.308   4.935  1.4428  1.0421  1.0882
14630SOL    HW245630   0.206   4.280   4.787 -1.1314 -0.4589  1.0187
14631SOL     OW45631   4.660   7.649   2.091  0.1030  0.3048  0.0019
14631SOL    HW145632   4.605   7.727   2.100  0.5806  0.8257 -1.3597
14631SOL    HW245633   4.603   7.577   2.117 -0.0957  1.1444  2.1344
14632SOL     OW45634   8.655   1.312   4.907  0.4353 -0.0158 -0.1464
14632SOL    HW145635   8.593   1.371   4.950 -0.6474  0.2063 -1.9102
14632SOL    HW245636   8.616   1.225   4.916  1.6179 -0.4275  1.7109
14633SOL     OW45637   5.120   3.420   8.426  0.0687  0.2464 -0.4617
14633SOL    HW145638   5.088   3.340   8.466  0.5759 -0.5363 -1.5704
14633SOL    HW245639   5.171   3.462   8.496 -1.2405  0.2714  0.5247
14634SOL     OW45640   3.492   1.258   5.410  0.2276  0.0690 -0.0816
14634SOL    HW145641   3.537   1.304   5.481  0.7640 -0.7400  0.1213
14634SOL    HW245642   3.523   1.168   5.417  0.8053  0.0896 -1.7464
14635SOL     OW45643   6.212   4.874   7.555  0.4466 -0.0532  0.1173
14635SOL    HW145644   6.302   4.906   7.553  0.3462  0.2426  0.2763
14635SOL    HW245645   6.175   4.900   7.471  0.3958  0.1632  0.2052
14636SOL     OW45646   1.415   6.995   6.867 -0.1282  0.4818 -0.1904
14636SOL    HW145647   1.429   6.950   6.951 -1.0690 -1.1057 -0.8435
14636SOL    HW245648   1.480   6.957   6.808 -0.5472  0.3973 -0.6040
14637SOL     OW45649   3.629   0.618   7.514 -0.4245  0.5703  0.1023
14637SOL    HW145650   3.715   0.646   7.485 -0.6622 -0.5960 -1.9601
14637SOL    HW245651   3.606   0.678   7.584  1.4979  1.7231 -0.1864
14638SOL     OW45652   6.525   1.312   6.620 -0.6581 -0.0959  0.4157
14638SOL    HW145653   6.542   1.337   6.711 -0.8067 -0.4921  0.5573
14638SOL    HW245654   6.490   1.391   6.579 -0.5158  0.1063  0.6841
14639SOL     OW45655   0.905   0.736   3.296  0.1059 -0.6171 -0.1220
14639SOL    HW145656   0.915   0.820   3.341  1.1449  0.0103 -1.4188
14639SOL    HW245657   0.938   0.753   3.207 -0.5998 -2.1399 -0.7103
14640SOL     OW45658   8.584   9.106   0.508 -0.7816  0.1561  0.0684
14640SOL    HW145659   8.558   9.162   0.581  0.8800  0.0008  0.8305
14640SOL    HW245660   8.646   9.044   0.547  1.0521  0.8061 -1.6795
14641SOL     OW45661   0.002   9.242   0.956  1.1619 -0.0456 -0.8225
14641SOL    HW145662  -0.007   9.149   0.978 -2.7769  0.7757  1.9613
14641SOL    HW245663   0.039   9.281   1.035  0.8358  1.0404 -1.1981
14642SOL     OW45664   6.023   8.236   1.923  0.4202 -0.1814  0.3837
14642SOL    HW145665   6.106   8.266   1.887 -0.2975 -0.3268 -1.5144
14642SOL    HW245666   6.004   8.154   1.877 -0.8703 -0.0298  0.5902
14643SOL     OW45667   2.789   6.222   4.583 -0.0262 -0.2146 -0.4501
14643SOL    HW145668   2.701   6.229   4.621 -0.1667 -0.0331 -0.8078
14643SOL    HW245669   2.797   6.299   4.527  0.6453  0.1595  0.1582
14644SOL     OW45670   3.715   4.943   4.506  0.0279  0.3009  0.0601
14644SOL    HW145671   3.779   4.927   4.437 -2.7881 -3.0825 -2.0875
14644SOL    HW245672   3.657   5.011   4.469 -1.1898 -1.1594 -0.8376
14645SOL     OW45673   3.978   8.012   4.855  0.3762 -0.4338 -0.0752
14645SOL    HW145674   3.956   8.099   4.890  0.0793 -0.4844 -0.1332
14645SOL    HW245675   4.028   8.031   4.776 -0.1113 -0.3076 -0.3602
14646SOL     OW45676   3.713   0.393   1.403 -0.1111 -0.5213 -0.3311
14646SOL    HW145677   3.661   0.324   1.442  1.9384 -1.0444  1.7284
14646SOL    HW245678   3.732   0.453   1.476 -0.4647  1.3694 -1.7067
14647SOL     OW45679   4.342   1.065   8.206 -1.3090  0.2494 -0.3718
14647SOL    HW145680   4.286   1.126   8.158  0.5248  0.8869 -1.8017
14647SOL    HW245681   4.362   0.996   8.143 -0.0140  0.3416 -0.0895
14648SOL     OW45682   2.268   7.280   7.893  0.4843 -0.3299 -0.1571
14648SOL    HW145683   2.246   7.259   7.803  0.4949  0.0481 -0.2529
14648SOL    HW245684   2.191   7.255   7.944  1.1347 -2.1720 -0.0259
14649SOL     OW45685   2.257   6.102   5.359  0.0560  0.2042 -0.5060
14649SOL    HW145686   2.287   6.114   5.269  0.9237 -1.1684 -0.4323
14649SOL    HW245687   2.226   6.011   5.362 -0.7168  0.4776  0.3798
14650SOL     OW45688   0.399   6.331   3.431  0.2006  0.4020  0.5769
14650SOL    HW145689   0.344   6.337   3.353 -0.1705 -1.0730  0.6860
14650SOL    HW245690   0.485   6.307   3.398  0.0683 -0.1214  0.6026
14651SOL     OW45691   6.631   4.696   3.554 -0.1896 -0.3712 -0.3530
14651SOL    HW145692   6.658   4.606   3.537 -2.3979 -1.6058  1.9617
14651SOL    HW245693   6.679   4.721   3.633 -1.9281 -0.7690  0.8800
14652SOL     OW45694   9.094   7.341   5.711 -0.2358 -0.3773 -0.1898
14652SOL    HW145695   9.075   7.324   5.804  1.7854  2.3844  0.8976
14652SOL    HW245696   9.052   7.269   5.664 -1.0600 -2.0963  2.8744
14653SOL     OW45697   3.729   8.885   7.614  0.3901 -0.7369 -0.5926
14653SOL    HW145698   3.731   8.920   7.525 -0.2578 -0.2144 -0.4001
14653SOL    HW245699   3.797   8.934   7.661  0.4465 -0.7253 -0.6863
14654SOL     OW45700   6.732   8.727   1.284  0.1117 -0.4928 -0.3743
14654SOL    HW145701   6.770   8.703   1.368  0.9688 -0.6175 -0.7905
14654SOL    HW245702   6.647   8.765   1.306 -1.0288 -3.2317  0.3708
14655SOL     OW45703   8.370   6.784   6.368 -0.0507  0.3786 -0.2801
14655SOL    HW145704   8.448   6.824   6.329  0.5796  2.0456  2.4436
14655SOL    HW245705   8.391   6.775   6.461 -1.5438 -3.1633 -0.1253
14656SOL     OW45706   5.008   5.718   7.032  0.5998 -0.9595 -0.5453
14656SOL    HW145707   5.072   5.789   7.037  2.2525 -2.3267 -1.2586
14656SOL    HW245708   4.932   5.757   6.988  1.5188  0.3101 -1.0749
14657SOL     OW45709   5.022   8.582   9.151  0.2606  0.3261 -0.0869
14657SOL    HW145710   4.973   8.648   9.200  2.2716  0.5801  1.7291
14657SOL    HW245711   5.095   8.631   9.112  0.9768 -0.5648  0.1073
14658SOL     OW45712   3.669   2.428   1.909 -0.4796 -0.0579  0.2613
14658SOL    HW145713   3.667   2.332   1.913 -1.5248 -0.0781 -0.2940
14658SOL    HW245714   3.660   2.455   2.000  0.3368 -0.4874  0.4757
14659SOL     OW45715   3.388   6.754   0.361  0.1075 -0.6388 -1.0345
14659SOL    HW145716   3.361   6.675   0.408  0.0528  0.5517  1.0648
14659SOL    HW245717   3.481   6.764   0.382 -0.4511  1.2567  1.0960
14660SOL     OW45718   2.874   8.643   3.910 -0.2966 -0.2018  0.2945
14660SOL    HW145719   2.925   8.562   3.909 -0.0207 -0.0455  1.0165
14660SOL    HW245720   2.798   8.624   3.855  0.0217 -0.7842  0.0479
14661SOL     OW45721   3.178   7.639   0.667  0.6042  0.4454 -0.1337
14661SOL    HW145722   3.164   7.578   0.594 -0.9333 -0.5315  0.9153
14661SOL    HW245723   3.271   7.631   0.687  0.5659 -1.1406 -0.4096
14662SOL     OW45724   0.884   3.887   4.377 -0.2473 -0.3932  0.4943
14662SOL    HW145725   0.841   3.885   4.463  0.2852 -2.7492  0.7848
14662SOL    HW245726   0.820   3.850   4.317 -0.6823  1.4153 -0.1971
14663SOL     OW45727   1.881   5.547   7.981 -0.1972 -0.0471  0.8621
14663SOL    HW145728   1.861   5.630   7.939  1.1398  0.2222  0.7161
14663SOL    HW245729   1.932   5.571   8.058 -0.2167 -0.7109  1.0896
14664SOL     OW45730   0.276   5.435   8.806 -0.2956  0.5334 -0.1041
14664SOL    HW145731   0.337   5.503   8.836 -1.5813  1.9817 -0.5898
14664SOL    HW245732   0.313   5.404   8.723 -1.4864  3.3736 -1.8537
14665SOL     OW45733   6.139   8.892   4.929  0.4116 -0.8652 -1.0569
14665SOL    HW145734   6.087   8.958   4.975  1.7324 -0.6126  0.1156
14665SOL    HW245735   6.145   8.925   4.839 -0.5171 -0.3588 -0.9485
14666SOL     OW45736   7.405   3.270   1.352 -0.4674  0.1516  0.0607
14666SOL    HW145737   7.493   3.278   1.314 -1.6329  1.1428 -2.6541
14666SOL    HW245738   7.389   3.176   1.355  0.0553  0.0076 -1.0737
14667SOL     OW45739   3.157   9.256   5.003  0.2455 -0.2390 -0.6185
14667SOL    HW145740   3.212   9.334   5.004 -0.1698  0.0712  1.2407
14667SOL    HW245741   3.146   9.233   5.095 -1.3170 -1.3175 -1.0364
14668SOL     OW45742   7.259   1.736   2.301  0.0950 -0.0774 -0.2604
14668SOL    HW145743   7.296   1.801   2.361  0.4377 -1.8032  1.4817
14668SOL    HW245744   7.307   1.749   2.220  1.3953  0.6776  0.5852
14669SOL     OW45745   8.710   3.056   2.411  0.0627  0.3000  0.2224
14669SOL    HW145746   8.799   3.025   2.426 -0.2487  0.0205  1.5986
14669SOL    HW245747   8.716   3.108   2.331  1.4055  0.0694  0.1541
14670SOL     OW45748   8.203   3.915   3.027 -0.3429  0.1739 -0.1598
14670SOL    HW145749   8.185   4.008   3.034  1.3903  0.6554 -1.6014
14670SOL    HW245750   8.121   3.877   2.995 -1.6837  0.8472  2.1877
14671SOL     OW45751   1.885   1.660   4.440 -0.3379  0.0526 -0.5963
14671SOL    HW145752   1.928   1.621   4.364  2.4154 -1.2790  1.4767
14671SOL    HW245753   1.795   1.626   4.438 -0.1708 -0.3841 -2.8894
14672SOL     OW45754   0.110   1.241   1.634  0.5616 -0.0765  0.6889
14672SOL    HW145755   0.163   1.241   1.554  0.1265 -1.4399  0.3806
14672SOL    HW245756   0.157   1.300   1.693  1.9373 -0.5453  0.1108
14673SOL     OW45757   0.995   5.578   7.040  0.0936 -0.5823  0.5389
14673SOL    HW145758   1.006   5.607   7.130  2.1431 -0.3906  0.2708
14673SOL    HW245759   0.965   5.487   7.047  2.5457 -1.3960  1.4770
14674SOL     OW45760   3.404   4.113   2.530  0.6434 -0.1610 -0.0008
14674SOL    HW145761   3.396   4.022   2.559  2.8232 -0.3582  0.1422
14674SOL    HW245762   3.364   4.114   2.443  0.0118 -1.0951  0.2627
14675SOL     OW45763   3.045   7.537   3.666  0.6580 -1.0790 -0.2526
14675SOL    HW145764   2.956   7.504   3.677  0.8290 -2.0242 -1.5574
14675SOL    HW245765   3.096   7.460   3.641  0.9519  0.1567 -4.0110
14676SOL     OW45766   7.462   1.799   0.796  1.1475  0.8739 -0.5579
14676SOL    HW145767   7.503   1.713   0.799  1.2356  0.9318  1.1195
14676SOL    HW245768   7.532   1.858   0.767  1.5309  0.5891 -0.2325
14677SOL     OW45769   4.140   2.563   3.686 -0.6096  0.2607  0.4718
14677SOL    HW145770   4.087   2.488   3.712 -1.0543 -0.5738 -2.4718
14677SOL    HW245771   4.230   2.538   3.705 -0.9551  0.2061  2.1512
14678SOL     OW45772   8.364   2.877   8.335 -0.1422  0.2443  0.4499
14678SOL    HW145773   8.271   2.882   8.354  0.0520  1.3807  1.2242
14678SOL    HW245774   8.398   2.809   8.393 -0.5695 -0.5305 -0.2037
14679SOL     OW45775   5.520   8.574   7.902 -0.0238 -0.0782 -0.0563
14679SOL    HW145776   5.600   8.557   7.951 -0.1605  1.6475  0.8253
14679SOL    HW245777   5.501   8.667   7.918 -2.2924 -0.4859 -0.0848
14680SOL     OW45778   6.891   4.083   9.448 -0.4014  0.3253 -0.4701
14680SOL    HW145779   6.959   4.031   9.491 -1.2917 -0.1214  0.4310
14680SOL    HW245780   6.895   4.056   9.356  1.1108  0.8348 -0.5768
14681SOL     OW45781   4.124   7.496   1.918 -0.6062  0.4692  0.1834
14681SOL    HW145782   4.205   7.532   1.882 -0.1444 -0.1460  0.5825
14681SOL    HW245783   4.136   7.401   1.915 -2.3570  0.2331 -2.1358
14682SOL     OW45784   9.298   9.546   1.472  0.4594 -0.3762 -0.4566
14682SOL    HW145785   9.240   9.584   1.538  0.2004  1.2060 -1.5295
14682SOL    HW245786   9.239   9.516   1.403  0.8450  1.0166 -1.4434
14683SOL     OW45787   2.997   3.513   0.152  0.0893 -0.4149 -0.1460
14683SOL    HW145788   3.091   3.533   0.149  0.3368 -1.5270 -0.1165
14683SOL    HW245789   2.991   3.433   0.204 -1.0421  0.5471  1.3050
14684SOL     OW45790   2.340   7.539   2.108 -0.2120  0.1020  0.7594
14684SOL    HW145791   2.380   7.609   2.056 -2.2892  0.5771 -0.2999
14684SOL    HW245792   2.319   7.581   2.191 -1.7943  0.9129 -0.0037
14685SOL     OW45793   8.287   5.154   5.975 -0.4848 -0.0141 -0.0742
14685SOL    HW145794   8.261   5.094   6.045  0.5126 -1.8908 -1.2248
14685SOL    HW245795   8.221   5.142   5.907 -1.2705  1.5581  0.3777
14686SOL     OW45796   2.917   1.106   7.032 -0.0213  0.4754 -0.3777
14686SOL    HW145797   2.924   1.011   7.029  0.7685  0.5488 -1.2565
14686SOL    HW245798   2.951   1.130   7.118  2.6618  0.1548 -1.2577
14687SOL     OW45799   6.165   5.958   1.071  0.0001  0.1826  0.3854
14687SOL    HW145800   6.206   5.883   1.029 -0.4726  0.5422 -0.7910
14687SOL    HW245801   6.225   6.031   1.054 -0.5893  0.4993 -0.4343
14688SOL     OW45802   2.095   2.610   7.002 -0.1963 -0.0611 -0.3096
14688SOL    HW145803   2.039   2.543   7.041 -2.9123  0.9654 -2.0769
14688SOL    HW245804   2.084   2.598   6.908  1.6498  0.9919 -0.7015
14689SOL     OW45805   8.643   6.461   6.133  0.6513  0.4306 -0.2415
14689SOL    HW145806   8.633   6.554   6.154  1.2727  0.8939 -1.8309
14689SOL    HW245807   8.730   6.454   6.094  0.8439 -0.9336  0.3570
14690SOL     OW45808   3.156   6.022   2.861  0.3162  0.5579  0.0473
14690SOL    HW145809   3.062   6.019   2.878  0.4425 -0.3369  0.6804
14690SOL    HW245810   3.188   5.935   2.886  1.4623  1.1584  0.7829
14691SOL     OW45811   2.521   3.292   7.977 -0.0009 -0.0359 -0.1031
14691SOL    HW145812   2.440   3.330   8.011 -0.0310  0.5916 -0.8296
14691SOL    HW245813   2.547   3.352   7.906  1.7714  0.4791  0.9238
14692SOL     OW45814   4.036   5.196   3.019  0.6035  0.3225 -0.3050
14692SOL    HW145815   4.028   5.272   2.961 -0.7109 -0.3100 -0.9948
14692SOL    HW245816   4.121   5.158   2.997  0.1532  0.1319 -1.8054
14693SOL     OW45817   4.300   8.811   0.912 -0.0638 -0.1816  0.9825
14693SOL    HW145818   4.316   8.860   0.831 -2.0257 -0.1440  0.5612
14693SOL    HW245819   4.328   8.869   0.982  0.1118  0.4651  0.3868
14694SOL     OW45820   7.152   0.809   6.624  0.0704 -0.2403 -0.2139
14694SOL    HW145821   7.073   0.856   6.598 -1.1180 -2.0522 -0.1126
14694SOL    HW245822   7.198   0.791   6.542 -0.1906 -0.0975 -0.3930
14695SOL     OW45823   0.240   0.119   3.741 -0.2704 -0.1236  0.2236
14695SOL    HW145824   0.256   0.208   3.774  1.8181 -0.3895  0.0548
14695SOL    HW245825   0.226   0.066   3.819 -2.3240  0.4602  0.2928
14696SOL     OW45826   7.441   4.717   0.936 -0.1852  0.0744 -0.1108
14696SOL    HW145827   7.396   4.636   0.914  0.1088 -0.1043 -0.0576
14696SOL    HW245828   7.499   4.693   1.009  0.5617  0.1223 -0.6758
14697SOL     OW45829   5.347   5.021   1.625  0.3437  0.4915  0.2123
14697SOL    HW145830   5.423   5.013   1.568 -0.5379  1.1119 -1.0918
14697SOL    HW245831   5.304   5.102   1.598 -0.1106  0.8127  1.7717
14698SOL     OW45832   5.911   4.970   4.282 -0.1267 -0.3464  0.5195
14698SOL    HW145833   5.994   4.947   4.324  0.1303  0.7113  0.6101
14698SOL    HW245834   5.937   5.005   4.196 -0.3273  1.6234  1.2192
14699SOL     OW45835   8.106   6.492   8.463  0.3184 -0.2789  0.4107
14699SOL    HW145836   8.044   6.471   8.393  0.2939 -1.9290  0.8700
14699SOL    HW245837   8.178   6.430   8.451  0.5765 -0.2209  1.5029
14700SOL     OW45838   5.248   9.469   1.282  0.3270  0.1998 -0.5345
14700SOL    HW145839   5.206   9.384   1.294  0.5227  0.2472  0.5720
14700SOL    HW245840   5.340   9.448   1.265  0.2556  0.1754 -0.9041
14701SOL     OW45841   8.593   5.376   9.186 -0.2334  0.2845 -0.2870
14701SOL    HW145842   8.617   5.422   9.105  1.0391  1.2891  0.6304
14701SOL    HW245843   8.503   5.345   9.170 -0.2452  1.0186 -1.8325
14702SOL     OW45844   5.233   9.099   3.573  0.2752  0.1140 -0.0412
14702SOL    HW145845   5.240   9.161   3.645  0.1662 -0.4194  0.4349
14702SOL    HW245846   5.148   9.119   3.533 -0.7052 -1.0506  1.3774
14703SOL     OW45847   1.357   2.277   0.008 -0.2630  0.0277  0.0741
14703SOL    HW145848   1.436   2.275   0.063 -1.2447  0.5395  1.5717
14703SOL    HW245849   1.289   2.313   0.065 -1.8783 -1.5018 -0.7864
14704SOL     OW45850   9.610   4.159   7.935 -0.4720 -0.2294  0.3205
14704SOL    HW145851   9.529   4.113   7.957  0.1506 -0.9239  1.2418
14704SOL    HW245852   9.679   4.095   7.951  0.3075  0.5411  0.1288
14705SOL     OW45853   2.519   8.112   9.196 -0.7341 -0.2641  0.1244
14705SOL    HW145854   2.597   8.072   9.234  1.5490  2.4335 -1.3270
14705SOL    HW245855   2.482   8.164   9.268  1.0516  1.3669 -0.0413
14706SOL     OW45856   5.452   5.998   4.522 -0.2450  0.2542  0.0629
14706SOL    HW145857   5.509   6.075   4.514 -0.4168  0.4931  0.9713
14706SOL    HW245858   5.505   5.934   4.570 -0.8685  0.6468  1.3313
14707SOL     OW45859   9.113   2.830   8.900 -0.2858  0.2743 -0.2207
14707SOL    HW145860   9.193   2.797   8.941  0.3121  0.7629 -0.9505
14707SOL    HW245861   9.090   2.763   8.835 -1.3034 -0.5593  0.9654
14708SOL     OW45862   8.545   0.110   1.047  0.3693 -0.0907 -0.1347
14708SOL    HW145863   8.590   0.193   1.029  0.1497  0.0130 -0.2209
14708SOL    HW245864   8.524   0.114   1.140 -1.2252  0.7636 -0.4883
14709SOL     OW45865   5.824   2.250   3.044 -0.2066 -0.0688  0.1523
14709SOL    HW145866   5.731   2.247   3.064 -0.2254  3.0261  1.0658
14709SOL    HW245867   5.853   2.158   3.048 -2.7545 -0.8958  1.9474
14710SOL     OW45868   5.035   9.119   9.211  0.6307  0.6974 -0.1017
14710SOL    HW145869   5.031   9.032   9.170  4.0664  1.0894 -1.5448
14710SOL    HW245870   5.010   9.180   9.142 -0.3860  0.9840  0.4973
14711SOL     OW45871   7.931   6.371   2.047 -0.5902 -0.2012  0.2102
14711SOL    HW145872   8.010   6.326   2.017 -0.4309  0.0838  0.1926
14711SOL    HW245873   7.859   6.322   2.008 -0.4002 -0.0943 -0.2915
14712SOL     OW45874   0.011   1.124   1.178  0.1857 -0.2420 -0.6103
14712SOL    HW145875  -0.030   1.161   1.256  2.8349  1.1861  0.2242
14712SOL    HW245876   0.059   1.048   1.210  0.5534 -0.1809 -1.0113
14713SOL     OW45877   4.861   3.050   0.371  0.6193  0.1479  0.0603
14713SOL    HW145878   4.768   3.058   0.394  0.5504 -1.7562  0.6323
14713SOL    HW245879   4.904   3.029   0.454  1.1814 -1.4058 -0.5812
14714SOL     OW45880   7.395   3.107   9.092 -0.7768  0.2643  0.1794
14714SOL    HW145881   7.346   3.025   9.087  1.3047 -0.9840 -1.3466
14714SOL    HW245882   7.411   3.132   9.001  3.8842 -1.1020  0.3519
14715SOL     OW45883   0.640   3.722   6.904 -0.3091  0.1131  0.3311
14715SOL    HW145884   0.650   3.691   6.814 -1.1287  0.8379 -0.0176
14715SOL    HW245885   0.706   3.673   6.953  1.0749  0.6945 -0.8900
14716SOL     OW45886   4.545   2.211   7.010 -0.2181  0.0058  0.3584
14716SOL    HW145887   4.493   2.277   6.966 -0.3446 -0.4328 -0.1637
14716SOL    HW245888   4.483   2.167   7.069 -0.9184 -1.6994 -1.5432
14717SOL     OW45889   4.980   0.391   5.116 -0.0930  0.0267 -0.9211
14717SOL    HW145890   5.056   0.446   5.138 -0.5358  0.6646 -0.9818
14717SOL    HW245891   4.969   0.334   5.192 -1.0940  1.6481  0.2051
14718SOL     OW45892   0.493   2.381   4.304 -0.1944  0.1779  0.5954
14718SOL    HW145893   0.580   2.418   4.287 -0.3127  0.3036  0.2775
14718SOL    HW245894   0.511   2.290   4.331 -0.0399 -0.1972 -0.6967
14719SOL     OW45895   5.647   2.246   5.746 -0.4090  0.5159  0.4077
14719SOL    HW145896   5.637   2.158   5.710 -0.2706  0.9885 -0.8254
14719SOL    HW245897   5.578   2.252   5.813  0.5017 -1.0082  1.5436
14720SOL     OW45898   3.471   0.597   6.655 -0.6992  0.5961  0.4123
14720SOL    HW145899   3.538   0.532   6.638 -0.5311  1.1675 -1.2323
14720SOL    HW245900   3.406   0.551   6.709 -0.5490 -0.9106 -0.6374
14721SOL     OW45901   0.107   8.356   2.790  0.0040 -0.1021  0.2262
14721SOL    HW145902   0.200   8.375   2.806 -0.1854 -0.2569  1.6285
14721SOL    HW245903   0.106   8.266   2.759  0.5771  0.8470 -2.9721
14722SOL     OW45904   4.261   7.803   6.817 -0.1484 -0.1675  0.2771
14722SOL    HW145905   4.341   7.769   6.778 -1.2935 -1.5588 -1.0059
14722SOL    HW245906   4.193   7.782   6.753 -1.9264 -1.1893  2.3694
14723SOL     OW45907   0.712   3.316   5.422  0.3785  0.4478  0.1230
14723SOL    HW145908   0.734   3.226   5.397 -0.7962  0.4468 -1.0228
14723SOL    HW245909   0.775   3.338   5.490  0.5767 -1.3049  0.5501
14724SOL     OW45910   2.998   0.205   1.586  0.1682 -0.2710  0.3203
14724SOL    HW145911   2.966   0.199   1.496  0.4733 -0.2383  0.2082
14724SOL    HW245912   3.014   0.114   1.611 -0.2937 -0.3110  0.4814
14725SOL     OW45913   3.775   5.883   5.794  0.0939  0.0825 -0.2522
14725SOL    HW145914   3.828   5.867   5.716  1.1287  0.4043  0.3696
14725SOL    HW245915   3.795   5.811   5.852  1.7281  1.4409  0.9559
14726SOL     OW45916   1.268   7.927   9.365 -0.3374 -0.4767 -0.3393
14726SOL    HW145917   1.270   7.832   9.380  1.7156 -0.1484  2.2563
14726SOL    HW245918   1.338   7.942   9.301 -1.4156 -0.7757 -1.6255
14727SOL     OW45919   2.691   1.288   3.902  0.2380 -0.3085 -0.1244
14727SOL    HW145920   2.735   1.206   3.921 -1.0292 -0.8958  0.3849
14727SOL    HW245921   2.703   1.341   3.981 -1.7885 -1.3140  0.9466
14728SOL     OW45922   4.532   8.680   3.784 -0.0085  0.1242  0.3400
14728SOL    HW145923   4.437   8.692   3.788  0.0032  0.5683 -0.4536
14728SOL    HW245924   4.567   8.747   3.843 -0.1671  0.3144  0.2188
14729SOL     OW45925   0.887   7.748   8.246  0.7254  0.3913 -0.1003
14729SOL    HW145926   0.863   7.825   8.195 -2.4418 -0.7289 -0.5284
14729SOL    HW245927   0.979   7.732   8.224  1.0583  3.1765 -1.0680
14730SOL     OW45928   8.017   7.071   9.568  0.2121 -0.0079  0.5831
14730SOL    HW145929   8.055   7.001   9.516 -0.0301  0.0372  0.3440
14730SOL    HW245930   8.052   7.151   9.530 -0.0827  0.0312  0.3953
14731SOL     OW45931   4.905   2.617   0.343 -0.7805 -0.4906 -0.3304
14731SOL    HW145932   4.998   2.626   0.322 -1.1107  1.4730 -1.1445
14731SOL    HW245933   4.898   2.648   0.433 -0.6224 -0.8441 -0.1938
14732SOL     OW45934   1.879   2.528   6.306  0.6069 -0.3954 -0.2417
14732SOL    HW145935   1.818   2.568   6.244 -0.3388 -0.7513  0.4347
14732SOL    HW245936   1.916   2.453   6.259 -1.4928 -1.7873  0.2024
14733SOL     OW45937   5.310   3.065   2.814  0.2331  0.0067  0.0763
14733SOL    HW145938   5.294   2.973   2.793  0.4733 -0.2435  0.9335
14733SOL    HW245939   5.338   3.104   2.731 -1.8454 -0.2045 -0.7887
14734SOL     OW45940   5.045   1.856   4.718 -0.2835 -0.6826  0.4354
14734SOL    HW145941   4.983   1.878   4.649  0.5080  0.6843  0.1143
14734SOL    HW245942   4.991   1.842   4.795 -0.9594  2.1110  0.5771
14735SOL     OW45943   0.660   5.233   4.447  0.1330  0.2636 -0.0609
14735SOL    HW145944   0.725   5.191   4.503 -0.2725 -1.6750 -0.9728
14735SOL    HW245945   0.593   5.265   4.507  1.2140  1.0449  0.7733
14736SOL     OW45946   4.292   3.676   5.350  0.4031 -0.6831  0.4877
14736SOL    HW145947   4.318   3.597   5.398  1.6611 -0.4918  0.1520
14736SOL    HW245948   4.360   3.740   5.370 -0.6629  0.3880  0.8490
14737SOL     OW45949   9.168   2.111   8.204 -0.9115  0.3576  0.1190
14737SOL    HW145950   9.190   2.064   8.284  1.1516  1.2262  0.1287
14737SOL    HW245951   9.146   2.043   8.141 -0.8039 -0.4400  0.9255
14738SOL     OW45952   5.213   7.324   7.295 -0.3053  0.1441  0.2735
14738SOL    HW145953   5.150   7.385   7.332  0.2987  0.1565  1.3560
14738SOL    HW245954   5.223   7.256   7.362  0.1770 -0.3184 -0.2465
14739SOL     OW45955   2.258   9.361   0.961 -0.1931 -0.4036  0.3970
14739SOL    HW145956   2.307   9.442   0.940  0.9918 -0.8525  1.2930
14739SOL    HW245957   2.169   9.391   0.976  0.2550  0.7886  0.8823
14740SOL     OW45958   3.355   7.814   6.946 -0.3821 -0.1037  0.2284
14740SOL    HW145959   3.304   7.879   6.898  1.9624  1.3422 -0.4749
14740SOL    HW245960   3.382   7.858   7.026  2.8914  0.6905 -1.1338
14741SOL     OW45961   0.997   6.727   2.199 -0.3835  0.5862 -0.7778
14741SOL    HW145962   0.961   6.647   2.161 -0.4980  0.8919 -1.3145
14741SOL    HW245963   1.087   6.730   2.167  0.7585 -1.0499  1.8573
14742SOL     OW45964   4.527   7.320   8.967 -0.3151 -0.1993 -0.3351
14742SOL    HW145965   4.440   7.350   8.941 -0.7414  0.9777  2.0992
14742SOL    HW245966   4.581   7.399   8.965  0.0141 -0.3817  0.6379
14743SOL     OW45967   0.126   3.841   9.105  0.0613 -0.1558  0.1189
14743SOL    HW145968   0.117   3.922   9.156 -0.3722  0.0187 -0.2306
14743SOL    HW245969   0.123   3.771   9.170  1.3792  0.1319  0.5366
14744SOL     OW45970   4.619   3.560   6.466  0.1090  0.0610  0.6497
14744SOL    HW145971   4.662   3.590   6.385 -1.8905 -0.4174 -0.6477
14744SOL    HW245972   4.662   3.478   6.487  0.2898 -0.0876 -0.2518
14745SOL     OW45973   9.271   2.045   6.727  0.9122 -0.0332 -0.2418
14745SOL    HW145974   9.188   2.054   6.775  0.8961  0.9410 -0.4397
14745SOL    HW245975   9.323   2.121   6.754  1.3942 -0.1587 -0.8019
14746SOL     OW45976   4.303   2.092   2.914 -0.1393 -0.5711  0.2846
14746SOL    HW145977   4.242   2.024   2.884  2.1913 -2.4768 -0.4987
14746SOL    HW245978   4.313   2.075   3.008 -2.4721  1.2607  0.9690
14747SOL     OW45979   4.777   4.028   0.205 -0.3379  0.1446  0.1747
14747SOL    HW145980   4.797   3.963   0.272  1.6735 -0.8998 -1.3386
14747SOL    HW245981   4.712   4.085   0.246  0.5117 -0.6620  2.8438
14748SOL     OW45982   2.105   7.914   5.697 -0.2891 -0.2997  0.6785
14748SOL    HW145983   2.136   7.902   5.607 -1.8724 -0.8421  0.1751
14748SOL    HW245984   2.112   7.827   5.736 -0.6119 -0.2986  0.7395
14749SOL     OW45985   7.262   4.677   6.519  0.0197  0.2929  0.2264
14749SOL    HW145986   7.292   4.618   6.450  0.0007 -0.6756  1.0151
14749SOL    HW245987   7.336   4.735   6.536  1.0412 -1.2390  1.2696
14750SOL     OW45988   6.717   7.329   2.522 -0.5229 -0.2571 -0.0243
14750SOL    HW145989   6.782   7.259   2.534 -1.5585 -1.1269  0.6290
14750SOL    HW245990   6.638   7.296   2.565 -1.0587  1.2861  0.2123
14751SOL     OW45991   9.389   4.914   2.829 -0.4068 -0.2897  0.2260
14751SOL    HW145992   9.387   5.009   2.823  0.6287 -0.1634  1.3973
14751SOL    HW245993   9.482   4.892   2.838 -0.6690 -1.3680  0.4891
14752SOL     OW45994   1.936   0.060   3.974  0.4815  0.3148  0.4513
14752SOL    HW145995   2.000   0.025   3.912  0.5301  0.0293  0.6563
14752SOL    HW245996   1.852   0.023   3.946  0.6458 -0.6140  1.1291
14753SOL     OW45997   6.818   9.087   1.346  0.3043  0.2111 -0.9961
14753SOL    HW145998   6.894   9.146   1.354  0.4479 -0.2675  2.3500
14753SOL    HW245999   6.748   9.133   1.392 -0.6928 -0.5525 -1.7237
14754SOL     OW46000   2.267   4.560   0.366 -0.6018 -0.2137 -0.1677
14754SOL    HW146001   2.174   4.543   0.354 -0.3017 -1.6939 -0.5641
14754SOL    HW246002   2.294   4.499   0.435 -0.1600  1.0343  0.7987
14755SOL     OW46003   8.129   3.137   8.437 -1.0081  0.1688  0.8501
14755SOL    HW146004   8.053   3.132   8.495  0.2606 -0.3558  2.5447
14755SOL    HW246005   8.164   3.048   8.436  0.2667  0.6482  1.0883
14756SOL     OW46006   1.350   5.972   1.188  0.2332 -0.2322 -0.8476
14756SOL    HW146007   1.324   5.988   1.279  2.1584 -0.9471 -0.1331
14756SOL    HW246008   1.267   5.969   1.140 -0.7751  1.3080  0.6634
14757SOL     OW46009   3.997   2.860   4.231  0.0240  0.3139 -0.0817
14757SOL    HW146010   3.924   2.819   4.184  0.1569  0.6960 -0.6308
14757SOL    HW246011   3.955   2.906   4.305 -0.4371  1.4988 -1.0454
14758SOL     OW46012   9.233   0.745   8.457 -0.4244  0.2168 -0.6452
14758SOL    HW146013   9.303   0.729   8.521 -1.0827 -0.5026 -0.0784
14758SOL    HW246014   9.177   0.668   8.464 -1.7518  1.1768 -0.4607
14759SOL     OW46015   4.290   6.859   6.222  0.4574 -0.1428  0.4148
14759SOL    HW146016   4.207   6.868   6.269  1.0670 -1.2305  1.8060
14759SOL    HW246017   4.266   6.826   6.136 -0.6158  0.4887  0.4618
14760SOL     OW46018   0.835   3.954   8.366  0.0526 -0.3349  0.7329
14760SOL    HW146019   0.880   3.929   8.285  1.9589  0.5899  1.4460
14760SOL    HW246020   0.867   3.891   8.430 -1.6408 -1.2210  0.7752
14761SOL     OW46021   6.074   6.033   2.389 -0.4471 -0.2815 -0.0624
14761SOL    HW146022   6.024   6.044   2.308 -0.6525 -0.1527  0.0790
14761SOL    HW246023   6.160   6.002   2.360 -0.9323 -1.5073 -0.2403
14762SOL     OW46024   7.600   4.468   6.018 -0.3461  0.6244 -0.0733
14762SOL    HW146025   7.660   4.542   6.019 -1.3102  1.4375  1.8185
14762SOL    HW246026   7.515   4.507   5.996 -0.4620 -0.3203 -1.4587
14763SOL     OW46027   5.589   7.911   8.416  0.2980  0.2362  0.1596
14763SOL    HW146028   5.511   7.904   8.471  0.2304 -1.3037 -0.0760
14763SOL    HW246029   5.582   7.837   8.356  2.7061 -0.9337  1.1629
14764SOL     OW46030   1.019   3.321   4.037  0.2172  0.0850 -0.1176
14764SOL    HW146031   1.039   3.270   4.115  0.2190 -1.6374 -1.1822
14764SOL    HW246032   1.066   3.404   4.049 -0.4668  0.2114  2.0412
14765SOL     OW46033   8.027   2.320   3.926  0.2914 -0.0233  0.3050
14765SOL    HW146034   8.049   2.278   3.843 -3.5367  0.1753 -0.9846
14765SOL    HW246035   8.061   2.260   3.992  1.0214 -1.6074 -1.4132
14766SOL     OW46036   3.130   2.354   0.517 -0.2776 -0.6496 -0.1402
14766SOL    HW146037   3.038   2.359   0.492 -0.3292  1.1334  0.2437
14766SOL    HW246038   3.134   2.397   0.602  0.9851 -0.1895 -0.4110
14767SOL     OW46039   6.904   3.921   0.520 -0.2146  0.2678 -0.3796
14767SOL    HW146040   6.872   3.980   0.587  0.0107  0.9059 -0.8306
14767SOL    HW246041   6.906   3.835   0.563  1.5998  0.9387  0.9811
14768SOL     OW46042   0.512   5.925   0.597 -0.2067  0.1717 -0.0664
14768SOL    HW146043   0.607   5.926   0.592 -0.2381 -0.5971 -1.2447
14768SOL    HW246044   0.484   5.998   0.542 -0.3100  0.1357 -0.0628
14769SOL     OW46045   5.346   4.110   5.492  0.1888 -0.4603 -0.1787
14769SOL    HW146046   5.277   4.047   5.511  1.2532 -1.2447  1.3160
14769SOL    HW246047   5.420   4.081   5.546  1.0157  1.5356 -0.1761
14770SOL     OW46048   5.913   9.604   3.315 -0.3094 -0.3745  0.3043
14770SOL    HW146049   5.982   9.545   3.346 -0.1208  0.6156  1.9467
14770SOL    HW246050   5.897   9.662   3.390  0.7636  2.8084 -1.7585
14771SOL     OW46051   3.955   2.867   5.703  0.1070 -0.1769 -0.7056
14771SOL    HW146052   3.957   2.785   5.752  1.8690  0.1360 -0.1673
14771SOL    HW246053   3.928   2.933   5.767  0.7786 -0.0266 -0.5668
14772SOL     OW46054   4.145   8.466   1.561  0.2294  0.3344  0.1028
14772SOL    HW146055   4.152   8.474   1.656  2.3835  1.7828 -0.1080
14772SOL    HW246056   4.073   8.524   1.537 -0.3105 -0.0196  0.8204
14773SOL     OW46057   4.361   8.050   3.578 -0.2405  0.1817 -0.3205
14773SOL    HW146058   4.273   8.031   3.544 -0.3660  1.6751 -0.9424
14773SOL    HW246059   4.357   8.143   3.603  1.3366  0.4465 -0.9307
14774SOL     OW46060   1.609   7.192   1.099 -0.2053  0.3585  0.4209
14774SOL    HW146061   1.661   7.126   1.145 -1.6609 -0.3620  1.0799
14774SOL    HW246062   1.580   7.149   1.019 -1.9352 -0.1788  1.2882
14775SOL     OW46063   5.907   8.971   3.063 -0.4677 -0.1510  0.0737
14775SOL    HW146064   5.882   8.886   3.099  0.2333 -0.1186  0.6649
14775SOL    HW246065   5.968   9.007   3.128 -0.0510  0.4009 -0.6163
14776SOL     OW46066   6.467   7.738   1.746  1.0406  0.2524  0.1802
14776SOL    HW146067   6.405   7.750   1.674  0.9953 -1.7186 -0.1686
14776SOL    HW246068   6.545   7.785   1.719  1.4526 -1.4272 -1.7761
14777SOL     OW46069   8.163   3.083   5.769  0.3630 -0.6107 -0.3285
14777SOL    HW146070   8.197   3.010   5.718 -0.0743 -0.8723 -0.2502
14777SOL    HW246071   8.174   3.159   5.712  0.2721 -0.8306 -0.6440
14778SOL     OW46072   8.659   2.683   2.765  0.0749 -0.2332 -0.2495
14778SOL    HW146073   8.736   2.688   2.708  0.2676 -0.1212  0.0186
14778SOL    HW246074   8.628   2.773   2.772 -0.3094 -0.3265 -0.6624
14779SOL     OW46075   8.549   7.244   8.767 -0.1346  0.2913 -0.0287
14779SOL    HW146076   8.527   7.279   8.853  0.3186  0.7729 -0.1049
14779SOL    HW246077   8.469   7.255   8.716 -0.2444  0.4790  0.1817
14780SOL     OW46078   7.824   0.296   0.796 -0.1893  0.2547  0.2910
14780SOL    HW146079   7.866   0.373   0.835 -0.4058  0.2650  0.5026
14780SOL    HW246080   7.787   0.328   0.714  2.3958 -0.2872 -1.1968
14781SOL     OW46081   1.680   7.787   5.545  0.3399 -0.2123 -0.2446
14781SOL    HW146082   1.641   7.708   5.581 -1.4286  0.1690 -1.1951
14781SOL    HW246083   1.608   7.832   5.501  1.0285  2.5058  1.1791
14782SOL     OW46084   2.432   7.345   0.577 -0.5089 -0.4482  0.0952
14782SOL    HW146085   2.370   7.317   0.509  0.4901 -1.4707 -0.4168
14782SOL    HW246086   2.397   7.306   0.658 -0.7936 -0.6093 -0.1024
14783SOL     OW46087   4.156   7.414   6.870 -0.3961 -0.1304  0.4196
14783SOL    HW146088   4.133   7.471   6.796  1.9460  2.2672  1.3998
14783SOL    HW246089   4.082   7.354   6.877 -2.8548  2.4769 -1.0262
14784SOL     OW46090   5.722   9.042   3.748  0.2202 -0.4270  0.3739
14784SOL    HW146091   5.788   9.088   3.800 -0.5778 -0.5834  1.5797
14784SOL    HW246092   5.671   9.112   3.707  2.2208 -0.2830 -2.1230
14785SOL     OW46093   6.628   5.538   9.196 -0.5490 -0.0882  0.2484
14785SOL    HW146094   6.706   5.517   9.144 -1.2456 -0.1929 -0.7840
14785SOL    HW246095   6.606   5.457   9.241  0.7961  0.3306  1.7444
14786SOL     OW46096   8.999   3.125   1.307  0.2084 -0.0340 -0.1161
14786SOL    HW146097   8.937   3.168   1.365 -0.7962  0.3485 -1.4235
14786SOL    HW246098   9.065   3.087   1.365 -0.5252  0.6972  1.2242
14787SOL     OW46099   9.445   5.018   5.765  0.1013 -0.3555  0.4552
14787SOL    HW146100   9.486   5.000   5.849 -0.2049 -2.3070  0.2314
14787SOL    HW246101   9.405   5.105   5.776  1.9401  0.3998  1.5459
14788SOL     OW46102   8.925   3.594   7.938 -0.0230  0.1760 -0.7693
14788SOL    HW146103   8.934   3.600   8.033 -0.0865 -1.5045 -0.6325
14788SOL    HW246104   8.874   3.514   7.923  0.2340  0.2504 -2.2254
14789SOL     OW46105   0.097   1.118   3.355  0.0609  0.6465  0.2408
14789SOL    HW146106   0.134   1.041   3.312 -2.4599 -0.4796 -0.0985
14789SOL    HW246107   0.120   1.191   3.297  2.0706  0.1246  0.3070
14790SOL     OW46108   1.786   5.033   5.061 -0.4712 -0.7751 -0.2297
14790SOL    HW146109   1.817   5.059   4.974 -0.5253 -1.2954 -0.4077
14790SOL    HW246110   1.831   4.950   5.079  0.5074 -0.0453  0.7810
14791SOL     OW46111   2.363   0.040   8.472  0.1684 -0.1036  0.2861
14791SOL    HW146112   2.456   0.064   8.463  0.0415  0.3204  0.0795
14791SOL    HW246113   2.364  -0.035   8.531  0.5538  0.6096  1.2145
14792SOL     OW46114   7.030   6.039   9.128 -0.5976  0.6214 -0.4781
14792SOL    HW146115   7.016   6.017   9.036  0.6135  1.2691 -0.8329
14792SOL    HW246116   7.084   5.969   9.162  1.6433  1.9438 -1.1177
14793SOL     OW46117   1.040   8.315   9.193  0.0838  0.3188 -0.3950
14793SOL    HW146118   1.030   8.389   9.254  0.9939 -0.6908  1.0528
14793SOL    HW246119   0.977   8.334   9.123 -2.3542  0.6968  1.7054
14794SOL     OW46120   6.665   1.687   9.206 -0.2644  0.6964  0.3856
14794SOL    HW146121   6.686   1.781   9.203  0.0985  0.6958  2.0217
14794SOL    HW246122   6.648   1.669   9.299 -1.8728 -0.5456 -0.1092
14795SOL     OW46123   4.484   8.454   4.683  0.0781  0.1033 -0.2453
14795SOL    HW146124   4.427   8.424   4.753 -0.5196 -2.1907 -1.6122
14795SOL    HW246125   4.572   8.428   4.710 -0.1005 -0.4197 -0.1593
14796SOL     OW46126   9.469   6.230   6.827  0.4799 -0.4824  0.1477
14796SOL    HW146127   9.442   6.280   6.750  1.2681 -1.7337 -0.9844
14796SOL    HW246128   9.409   6.156   6.830 -0.6516  0.4292  1.7884
14797SOL     OW46129   6.036   9.216   0.339 -0.3411  0.9362  0.7325
14797SOL    HW146130   6.112   9.174   0.380  0.9500  2.2647 -0.1725
14797SOL    HW246131   5.984   9.144   0.304  0.8784  0.0137  0.7691
14798SOL     OW46132   5.164   6.385   7.573  0.0605 -0.4794 -0.1716
14798SOL    HW146133   5.161   6.387   7.669 -0.3908  0.0329 -0.1967
14798SOL    HW246134   5.254   6.357   7.553 -0.4404 -2.7933  0.4246
14799SOL     OW46135   9.167   7.582   3.662  0.5900  0.5362  0.2127
14799SOL    HW146136   9.245   7.596   3.716 -0.1914  1.4440  1.1456
14799SOL    HW246137   9.141   7.670   3.634  0.1333  0.2049 -0.4199
14800SOL     OW46138   8.888   0.608   2.766  0.1674 -0.5238  0.4574
14800SOL    HW146139   8.819   0.664   2.801 -0.8385 -0.3851 -1.6228
14800SOL    HW246140   8.882   0.527   2.816  1.3059  0.9114  3.1791
14801SOL     OW46141   2.596   6.429   7.879 -0.2534 -0.1196  0.3208
14801SOL    HW146142   2.604   6.485   7.956 -0.9014  1.6963 -0.8533
14801SOL    HW246143   2.519   6.374   7.896 -1.2747  1.2904  0.3957
14802SOL     OW46144   6.256   8.936   5.273  0.2407  0.6117  0.1224
14802SOL    HW146145   6.270   8.841   5.276 -0.7922  0.4147 -0.7778
14802SOL    HW246146   6.168   8.948   5.308  0.8882  1.4074  1.6021
14803SOL     OW46147   7.742   1.385   6.640 -0.1511 -0.1141 -0.2531
14803SOL    HW146148   7.743   1.479   6.658  0.0434 -0.3965  1.3700
14803SOL    HW246149   7.666   1.352   6.689 -0.1817 -0.8154 -0.7493
14804SOL     OW46150   3.608   5.461   7.030 -0.2333 -0.4458  0.0215
14804SOL    HW146151   3.522   5.421   7.048  0.2824 -1.6579 -0.1561
14804SOL    HW246152   3.645   5.476   7.117  0.1062 -1.5573  0.0784
14805SOL     OW46153   4.324   5.211   4.989  0.6238 -0.0610 -0.6051
14805SOL    HW146154   4.340   5.241   5.079 -0.2533 -1.9946  0.2577
14805SOL    HW246155   4.412   5.201   4.952  1.0172  0.3824  0.1703
14806SOL     OW46156   8.631   4.934   7.076  0.3660  0.8564 -0.5526
14806SOL    HW146157   8.589   4.976   7.151  0.2288 -2.6290  1.5550
14806SOL    HW246158   8.594   4.846   7.075  1.5077  0.2803 -3.8749
14807SOL     OW46159   4.611   4.283   7.515 -0.0700 -0.4968 -0.0645
14807SOL    HW146160   4.523   4.271   7.551 -1.0198  0.4842 -1.9309
14807SOL    HW246161   4.652   4.196   7.523 -0.9551 -0.8159  1.3858
14808SOL     OW46162   7.512   6.520   4.487 -0.9516 -0.2376  0.0521
14808SOL    HW146163   7.492   6.607   4.451  2.3154  0.9771  0.8386
14808SOL    HW246164   7.509   6.533   4.582  0.4431 -0.7203  0.1791
14809SOL     OW46165   3.548   2.980   4.594  0.1625 -0.3256  0.8848
14809SOL    HW146166   3.595   3.012   4.517 -0.8262  0.4265  0.5783
14809SOL    HW246167   3.608   2.995   4.667 -0.4397  2.8385  0.8612
14810SOL     OW46168   2.893   1.839   0.298 -0.6393  0.1890  0.1538
14810SOL    HW146169   2.810   1.888   0.294 -0.2651  1.1776  2.7248
14810SOL    HW246170   2.868   1.754   0.335 -0.6581  0.0422 -0.1908
14811SOL     OW46171   2.732   1.063   5.077  0.7625  0.2702 -0.5049
14811SOL    HW146172   2.768   1.150   5.097  1.2007  0.5050 -2.1116
14811SOL    HW246173   2.638   1.077   5.070  0.7892  0.5380 -0.3291
14812SOL     OW46174   6.614   4.061   6.872  0.1056  0.2572 -0.0475
14812SOL    HW146175   6.685   4.010   6.834 -0.3506  0.3129 -0.9951
14812SOL    HW246176   6.655   4.140   6.906  0.9912 -1.0940  2.2904
14813SOL     OW46177   7.132   6.483   7.741 -0.6513  0.4753  0.4564
14813SOL    HW146178   7.205   6.525   7.785 -0.9574 -0.1238  1.5623
14813SOL    HW246179   7.090   6.554   7.692  1.2675  0.6270 -1.0872
14814SOL     OW46180   7.422   8.610   3.640 -0.1581  0.7803 -0.3664
14814SOL    HW146181   7.483   8.661   3.694  1.7188 -0.5745 -1.1072
14814SOL    HW246182   7.335   8.631   3.675  0.8109  1.8895  1.4953
14815SOL     OW46183   1.654   4.238   6.883  0.1251  0.5522 -0.0763
14815SOL    HW146184   1.712   4.164   6.899 -0.0645  0.7210  1.6494
14815SOL    HW246185   1.577   4.220   6.937  0.2573  2.1702  0.7306
14816SOL     OW46186   9.047   2.758   6.987  0.8945  0.2481 -0.8241
14816SOL    HW146187   9.121   2.713   7.028 -0.4683 -0.2746  1.2220
14816SOL    HW246188   9.005   2.690   6.934 -1.0634 -1.0588  2.1294
14817SOL     OW46189   3.195   1.015   3.912 -0.3302 -0.1356  0.0628
14817SOL    HW146190   3.111   1.030   3.954  0.3164 -1.3299  1.9105
14817SOL    HW246191   3.226   1.103   3.890 -1.1808  0.4819  1.1692
14818SOL     OW46192   2.826   1.983   2.688 -0.4291  0.5571  0.8088
14818SOL    HW146193   2.886   1.913   2.665 -0.2148  0.2981  2.0985
14818SOL    HW246194   2.740   1.941   2.689 -0.4894  0.6506  0.1809
14819SOL     OW46195   9.039   8.779   9.524 -0.0592  0.2684 -0.0775
14819SOL    HW146196   9.069   8.737   9.443  0.7039 -1.1294  0.8964
14819SOL    HW246197   8.964   8.726   9.552 -0.1849  0.6129  0.2446
14820SOL     OW46198   5.916   5.447   8.481 -0.3387 -0.5625  0.0513
14820SOL    HW146199   5.937   5.354   8.477 -1.1335 -0.7864  0.6824
14820SOL    HW246200   5.997   5.491   8.456  0.5001 -1.3875  1.1967
14821SOL     OW46201   0.248   6.031   8.510  0.2379 -0.5596  0.5585
14821SOL    HW146202   0.188   5.966   8.549 -1.4185 -1.0123 -2.4038
14821SOL    HW246203   0.320   5.979   8.475 -1.0208 -0.9498 -1.6903
14822SOL     OW46204   1.969   1.693   3.317  0.0528 -0.4743 -0.4783
14822SOL    HW146205   2.019   1.759   3.364  1.2602 -2.0927  0.6259
14822SOL    HW246206   2.004   1.695   3.228  0.1951  0.2413 -0.4084
14823SOL     OW46207   8.389   0.742   9.429 -0.3140 -0.0561 -0.1847
14823SOL    HW146208   8.314   0.775   9.478 -1.8787  0.2150 -2.6016
14823SOL    HW246209   8.359   0.660   9.390  0.6154  0.0458 -1.1840
14824SOL     OW46210   6.599   3.266   0.820  0.3355  0.1942 -0.7040
14824SOL    HW146211   6.504   3.269   0.833  0.5161  0.3362  0.8474
14824SOL    HW246212   6.610   3.268   0.725 -1.1534  2.0275 -0.9088
14825SOL     OW46213   6.967   7.500   0.967 -0.0744 -0.4718  0.0972
14825SOL    HW146214   6.905   7.533   1.032 -0.3019 -0.8271  0.0591
14825SOL    HW246215   6.932   7.415   0.941  0.9910 -1.1694  0.8555
14826SOL     OW46216   3.823   7.135   5.582 -0.0248  0.2339 -0.2778
14826SOL    HW146217   3.889   7.067   5.568 -1.2185 -0.9492 -0.3922
14826SOL    HW246218   3.750   7.090   5.623 -1.3794  1.1578 -1.5396
14827SOL     OW46219   3.210   8.491   4.843 -0.0721 -0.4183 -0.2838
14827SOL    HW146220   3.180   8.463   4.930  0.7110  0.1279  0.1805
14827SOL    HW246221   3.130   8.516   4.797 -0.3392  2.1993  1.3430
14828SOL     OW46222   1.316   4.493   7.564  0.3734 -0.0900 -0.7694
14828SOL    HW146223   1.337   4.448   7.646  0.7197  2.3299  0.5675
14828SOL    HW246224   1.374   4.453   7.499  0.6362 -1.5362  0.2960
14829SOL     OW46225   4.957   3.308   8.223  0.0138 -0.5419  0.1976
14829SOL    HW146226   5.008   3.352   8.291  1.2079  0.4606 -1.2538
14829SOL    HW246227   4.886   3.369   8.203 -0.4111 -0.8928  0.6262
14830SOL     OW46228   7.110   5.442   2.668  0.8734  0.7733  0.3057
14830SOL    HW146229   7.127   5.404   2.582  0.2606  2.1471 -0.4633
14830SOL    HW246230   7.038   5.390   2.704 -0.9336  2.0049 -1.3303
14831SOL     OW46231   6.284   8.049   9.310 -0.6400 -0.3042  0.1543
14831SOL    HW146232   6.272   8.020   9.220 -0.7260  0.9409 -0.2576
14831SOL    HW246233   6.195   8.058   9.345 -0.7815  2.1149 -0.6385
14832SOL     OW46234   7.392   5.481   6.337 -0.0305 -0.0740  0.0347
14832SOL    HW146235   7.404   5.441   6.423 -0.2091 -0.3943 -0.0855
14832SOL    HW246236   7.363   5.409   6.281 -0.7267  0.3017 -0.1014
14833SOL     OW46237   9.315   2.586   5.864 -0.0789 -0.1249 -0.2722
14833SOL    HW146238   9.403   2.599   5.899  0.1370 -0.3722 -0.7237
14833SOL    HW246239   9.276   2.674   5.864  0.3536  0.0685 -0.5730
14834SOL     OW46240   3.115   4.975   1.267 -0.2784 -0.2254  0.2445
14834SOL    HW146241   3.154   4.893   1.236  2.4345  0.8790  0.4759
14834SOL    HW246242   3.040   4.989   1.208  1.5117 -0.9099 -2.3784
14835SOL     OW46243   4.039   0.630   0.437  0.1943 -0.2186 -0.0154
14835SOL    HW146244   3.982   0.653   0.510  1.4983  1.8625  0.4435
14835SOL    HW246245   4.042   0.710   0.384  1.6298 -0.7100 -0.7139
14836SOL     OW46246   0.465   0.979   7.096 -0.0797  0.5392  0.0945
14836SOL    HW146247   0.541   1.024   7.132 -0.6506 -0.2241  2.4323
14836SOL    HW246248   0.438   0.918   7.165 -1.6846 -0.5664 -1.4122
14837SOL     OW46249   6.926   4.342   8.459  0.1036  0.1021  0.4141
14837SOL    HW146250   6.950   4.290   8.536  2.7684 -1.3853 -1.2846
14837SOL    HW246251   6.869   4.284   8.408  2.0219 -0.7766 -0.8452
14838SOL     OW46252   4.531   5.252   4.042 -0.6716 -0.1221  0.2200
14838SOL    HW146253   4.615   5.208   4.057 -0.7622 -0.6005 -0.5628
14838SOL    HW246254   4.478   5.229   4.118 -0.3318 -0.4395  0.3672
14839SOL     OW46255   7.324   0.677   7.078 -0.9634  0.1234 -0.3841
14839SOL    HW146256   7.288   0.588   7.076  0.7208 -0.5746 -1.5719
14839SOL    HW246257   7.284   0.720   7.003 -1.0130  0.0596 -0.3951
14840SOL     OW46258   8.765   8.144   6.986  0.2686 -0.1135  0.0161
14840SOL    HW146259   8.722   8.131   7.071 -1.1264 -0.4090 -0.7139
14840SOL    HW246260   8.773   8.239   6.978 -0.9688 -0.0057 -0.1658
14841SOL     OW46261   0.350   0.579   4.500  0.0315 -0.2959 -0.3443
14841SOL    HW146262   0.400   0.594   4.580 -0.0829 -1.2519 -0.0791
14841SOL    HW246263   0.400   0.623   4.431  0.5480 -0.1333  0.1310
14842SOL     OW46264   5.033   7.186   1.583  0.1097  0.2311  0.1897
14842SOL    HW146265   5.066   7.153   1.667  0.9569 -1.3309 -0.7216
14842SOL    HW246266   5.102   7.165   1.520 -0.9828  0.3792 -1.1009
14843SOL     OW46267   6.453   5.245   5.390 -0.2510 -0.2121 -0.0757
14843SOL    HW146268   6.460   5.206   5.303 -0.6668  0.5549 -0.4586
14843SOL    HW246269   6.491   5.332   5.380 -1.6069  0.4260  0.1538
14844SOL     OW46270   3.465   6.198   1.680  0.2256 -0.2106  0.4381
14844SOL    HW146271   3.497   6.267   1.622  0.4790 -1.0033 -0.3865
14844SOL    HW246272   3.506   6.118   1.647  0.2304 -0.7126  1.5998
14845SOL     OW46273   0.427   5.543   4.777  0.0971  0.3566 -0.3189
14845SOL    HW146274   0.456   5.621   4.825  0.1820  0.4206 -0.4751
14845SOL    HW246275   0.333   5.557   4.764 -0.0111  0.1493  0.1854
14846SOL     OW46276   3.170   4.444   5.107 -0.6271  0.1377  0.2502
14846SOL    HW146277   3.210   4.531   5.103  0.9916 -0.5940 -0.4185
14846SOL    HW246278   3.083   4.459   5.144 -1.0394  2.2654 -1.3953
14847SOL     OW46279   0.124   5.179   4.637  0.1862 -0.7040 -0.0054
14847SOL    HW146280   0.072   5.167   4.717  0.8718 -1.3847  0.3534
14847SOL    HW246281   0.151   5.091   4.613  1.2028 -0.3553 -0.1660
14848SOL     OW46282   8.560   2.422   0.556 -0.6670 -0.2939  0.1540
14848SOL    HW146283   8.532   2.375   0.477 -0.8097 -0.2765  0.1932
14848SOL    HW246284   8.495   2.492   0.566 -2.2468 -1.8862  1.7947
14849SOL     OW46285   1.582   7.761   7.186  0.0679  0.0488  0.1168
14849SOL    HW146286   1.565   7.829   7.120 -0.4347 -2.6059 -2.7529
14849SOL    HW246287   1.649   7.706   7.145 -0.7551 -2.1153  1.5436
14850SOL     OW46288   5.060   0.994   5.690 -0.2232 -0.3983 -0.2774
14850SOL    HW146289   4.998   1.039   5.748  2.1465  1.7284  0.8020
14850SOL    HW246290   5.103   0.930   5.747  1.3279  0.9285  0.1035
14851SOL     OW46291   4.965   3.636   7.473 -0.0972  0.2708 -0.1032
14851SOL    HW146292   5.049   3.639   7.519  0.0668 -0.6938 -0.3102
14851SOL    HW246293   4.934   3.546   7.485 -1.6716  0.9020  0.9284
14852SOL     OW46294   0.869   1.196   9.553 -0.5305  0.2109 -0.0626
14852SOL    HW146295   0.892   1.228   9.466 -1.0908  0.0525 -0.2728
14852SOL    HW246296   0.841   1.275   9.601  0.2210  0.3672  0.1222
14853SOL     OW46297   5.849   6.434   5.689 -0.7435  0.4961  0.3700
14853SOL    HW146298   5.835   6.479   5.606 -0.6636 -0.6176 -0.2610
14853SOL    HW246299   5.773   6.376   5.698 -0.0445 -0.4438  0.3635
14854SOL     OW46300   1.235   8.022   2.852  0.4137  0.3720 -0.4124
14854SOL    HW146301   1.292   8.073   2.910  1.2877 -1.2855  0.2548
14854SOL    HW246302   1.289   8.005   2.775 -0.5033  1.9526 -1.4724
14855SOL     OW46303   0.504   6.084   4.918 -0.6318  0.0092 -0.0469
14855SOL    HW146304   0.592   6.117   4.901  0.4035 -1.7660  1.4901
14855SOL    HW246305   0.477   6.128   4.999  0.0031 -1.3917  0.9789
14856SOL     OW46306   2.523   1.299   4.650  0.4210 -0.4433 -0.0443
14856SOL    HW146307   2.546   1.392   4.647 -1.6930  0.1194 -0.2475
14856SOL    HW246308   2.526   1.277   4.744 -0.9493  0.3645  0.2102
14857SOL     OW46309   1.516   0.585   3.972  0.0829 -0.2210 -0.1334
14857SOL    HW146310   1.546   0.676   3.963  0.3720 -0.4506 -1.9438
14857SOL    HW246311   1.421   0.592   3.978  0.1027  0.2037 -0.2684
14858SOL     OW46312   6.628   8.579   0.475  0.1084  0.5505 -0.3092
14858SOL    HW146313   6.539   8.572   0.508  0.7083 -1.7479  1.1009
14858SOL    HW246314   6.683   8.575   0.553  1.4760 -0.1648 -1.2624
14859SOL     OW46315   9.559   7.437   6.150  0.2632  0.3500  0.0142
14859SOL    HW146316   9.604   7.449   6.067 -1.4314  2.2692 -0.7033
14859SOL    HW246317   9.531   7.345   6.148 -1.7889  0.8920 -2.7066
14860SOL     OW46318   2.890   4.654   9.212  0.1387  0.0993  0.0225
14860SOL    HW146319   2.815   4.663   9.154  0.2108  1.5409  0.1138
14860SOL    HW246320   2.862   4.696   9.294  0.4641 -0.8334  0.6293
14861SOL     OW46321   5.046   1.113   4.892 -0.0382  0.4360  0.5334
14861SOL    HW146322   5.003   1.096   4.808 -0.0855  2.1491  0.1640
14861SOL    HW246323   5.059   1.027   4.931 -1.2917 -0.2952 -0.5986
14862SOL     OW46324   1.682   8.064   1.838 -0.8181 -0.3330 -0.5873
14862SOL    HW146325   1.596   8.031   1.865 -0.6570 -0.2277  0.0665
14862SOL    HW246326   1.720   8.099   1.918 -1.3658  2.3109 -1.3862
14863SOL     OW46327   2.886   5.476   2.767 -0.1916 -0.4175 -0.7871
14863SOL    HW146328   2.929   5.507   2.847 -0.0067  0.0233 -1.0591
14863SOL    HW246329   2.795   5.460   2.794 -0.3869  0.7043 -0.7202
14864SOL     OW46330   8.092   7.964   0.741  0.2984  0.1533 -0.4116
14864SOL    HW146331   8.088   7.893   0.677  0.2762  0.4408 -0.7299
14864SOL    HW246332   8.004   7.967   0.779  0.2287  0.1791 -0.5768
14865SOL     OW46333   1.615   4.419   1.701 -0.6284  0.1024  0.3440
14865SOL    HW146334   1.653   4.502   1.728  0.1910 -0.3221  0.5385
14865SOL    HW246335   1.612   4.423   1.606  1.9685 -0.6851  0.1529
14866SOL     OW46336   6.606   8.739   8.887 -0.4557  0.5463 -0.3599
14866SOL    HW146337   6.613   8.653   8.928 -0.1424  0.7541  0.0306
14866SOL    HW246338   6.520   8.740   8.846 -0.7303  0.3002  0.2120
14867SOL     OW46339   4.250   3.672   7.694 -0.1254  0.2665  0.0110
14867SOL    HW146340   4.258   3.600   7.756  0.4298 -0.0637 -0.4373
14867SOL    HW246341   4.164   3.661   7.655 -0.0801 -0.0945  0.0121
14868SOL     OW46342   0.294   1.236   0.726 -0.7516  0.1898 -0.5672
14868SOL    HW146343   0.202   1.259   0.738 -0.2879  1.4525  0.8440
14868SOL    HW246344   0.301   1.145   0.756 -1.8162 -0.4982 -2.2558
14869SOL     OW46345   3.728   1.026   7.536  0.5782 -0.2259 -0.4005
14869SOL    HW146346   3.809   1.066   7.505  0.1217  3.3291  2.3567
14869SOL    HW246347   3.756   0.945   7.579  2.4751  0.2384 -0.6759
14870SOL     OW46348   2.441   3.956   2.382 -0.1681  0.3112  0.1223
14870SOL    HW146349   2.380   4.003   2.439 -1.7105  0.8953 -1.8638
14870SOL    HW246350   2.424   3.992   2.295  2.6004 -0.0153 -0.6339
14871SOL     OW46351   6.826   8.085   7.280  0.1734 -0.4398 -0.2925
14871SOL    HW146352   6.872   8.017   7.330 -1.2782 -0.8073  0.6005
14871SOL    HW246353   6.886   8.159   7.280  0.9555 -1.0520  0.4470
14872SOL     OW46354   6.926   7.347   7.376  0.6238 -0.3073 -0.2443
14872SOL    HW146355   7.019   7.368   7.370  0.4742  0.5056  0.2146
14872SOL    HW246356   6.887   7.387   7.299 -0.2194  4.3129  2.2532
14873SOL     OW46357   3.904   3.459   3.139  0.3118 -0.2085 -0.2690
14873SOL    HW146358   3.915   3.553   3.127  2.5344 -0.3912 -0.1130
14873SOL    HW246359   3.877   3.450   3.231 -1.0859  0.3062 -0.6044
14874SOL     OW46360   6.850   4.538   6.344  0.2346  0.5203 -0.1657
14874SOL    HW146361   6.935   4.542   6.299  0.0309  2.6070 -0.4982
14874SOL    HW246362   6.794   4.488   6.285  1.0586 -0.3627 -0.2290
14875SOL     OW46363   3.822   9.488   5.762 -0.1749  0.2872 -0.7163
14875SOL    HW146364   3.841   9.402   5.724  0.8174  0.0967  0.1807
14875SOL    HW246365   3.823   9.547   5.686  1.5592 -0.1208 -1.0580
14876SOL     OW46366   1.700   3.398   7.352 -0.1566  0.4060 -0.1413
14876SOL    HW146367   1.655   3.449   7.419 -0.0212 -1.7440  1.6946
14876SOL    HW246368   1.655   3.419   7.270 -3.6203 -0.5256  1.3662
14877SOL     OW46369   6.548   8.413   7.503  0.5056  0.1358  0.4709
14877SOL    HW146370   6.593   8.462   7.434  0.0229  0.0348  0.0785
14877SOL    HW246371   6.554   8.321   7.476 -3.3880  0.3026 -1.7899
14878SOL     OW46372   7.516   6.732   5.475 -0.0084  0.1385  0.3595
14878SOL    HW146373   7.558   6.656   5.516 -0.0499  0.4441  0.9816
14878SOL    HW246374   7.472   6.777   5.547  1.7499  1.9099  0.4176
14879SOL     OW46375   0.949   0.334   8.832  0.2384 -0.4927  0.0219
14879SOL    HW146376   0.941   0.325   8.737 -0.2867  1.4871 -0.1649
14879SOL    HW246377   1.037   0.367   8.845 -0.6474  2.1626 -0.1001
14880SOL     OW46378   7.264   7.375   2.825  0.4483 -0.5140  0.8796
14880SOL    HW146379   7.201   7.446   2.838  1.7825  0.6157  1.3045
14880SOL    HW246380   7.212   7.304   2.786 -1.0823  0.3776  1.2293
14881SOL     OW46381   3.554   7.363   5.729 -0.0813  0.2060  0.0597
14881SOL    HW146382   3.626   7.391   5.784  0.1496  0.8691 -0.5666
14881SOL    HW246383   3.549   7.268   5.742  0.0887  0.3270  1.0610
14882SOL     OW46384   1.056   7.951   4.878 -0.3072  0.0934  0.4615
14882SOL    HW146385   1.035   7.890   4.808 -0.1643  0.6583 -0.0809
14882SOL    HW246386   1.120   8.011   4.840 -0.1891  0.3795  1.0877
14883SOL     OW46387   6.741   6.386   6.695  0.4209  0.1599 -0.0356
14883SOL    HW146388   6.705   6.427   6.617  0.2599  0.6747  0.2971
14883SOL    HW246389   6.825   6.349   6.667 -0.1036 -0.5745 -0.6877
14884SOL     OW46390   3.053   1.855   4.045 -0.6113  0.0682 -0.1865
14884SOL    HW146391   3.042   1.826   3.954 -0.1779 -0.2243 -0.1485
14884SOL    HW246392   3.147   1.874   4.053 -0.9335  1.7818 -0.2907
14885SOL     OW46393   7.400   6.469   6.019 -0.3954  0.0445  0.4715
14885SOL    HW146394   7.447   6.414   5.956  0.0902  0.8484  0.1178
14885SOL    HW246395   7.393   6.554   5.976  0.3122  0.7238  1.6603
14886SOL     OW46396   6.370   5.476   9.522  0.1477  0.4761 -1.0117
14886SOL    HW146397   6.352   5.570   9.528  1.6261  0.7807 -0.9370
14886SOL    HW246398   6.435   5.460   9.590  0.1477 -0.5315 -1.2393
14887SOL     OW46399   4.791   0.880   7.322  0.1364 -0.1420 -0.0676
14887SOL    HW146400   4.753   0.961   7.356  2.0923  1.0148 -0.4863
14887SOL    HW246401   4.843   0.907   7.247  1.1914 -1.7167  0.0430
14888SOL     OW46402   6.614   7.185   1.139  0.7315 -0.2311  0.2130
14888SOL    HW146403   6.585   7.150   1.223  2.2767 -0.1512  0.8091
14888SOL    HW246404   6.650   7.271   1.160  1.5925 -0.4189 -0.4369
14889SOL     OW46405   5.998   2.935   6.695  0.1693  0.1152  0.3739
14889SOL    HW146406   5.966   2.866   6.753  1.8124 -0.2144  0.9692
14889SOL    HW246407   5.997   2.897   6.608  3.2962 -1.6701  0.9521
14890SOL     OW46408   0.236   4.968   3.100  0.2969 -0.3739  0.4781
14890SOL    HW146409   0.294   4.909   3.148 -0.9985 -0.4336  2.0894
14890SOL    HW246410   0.150   4.927   3.107 -0.5866  1.4976  1.3844
14891SOL     OW46411   1.926   3.143   5.721 -0.3261 -0.0543 -0.1495
14891SOL    HW146412   1.956   3.133   5.812 -0.2247  1.8613  0.0718
14891SOL    HW246413   1.835   3.170   5.729 -0.1929  0.5512 -0.5894
14892SOL     OW46414   5.822   4.602   8.170 -0.3583  0.1733 -0.1309
14892SOL    HW146415   5.849   4.688   8.139  0.6683 -0.5661 -1.3955
14892SOL    HW246416   5.901   4.548   8.164 -0.5030 -0.4324  2.3848
14893SOL     OW46417   4.668   5.586   3.200  1.0699 -0.9970  0.1655
14893SOL    HW146418   4.686   5.672   3.164  1.0525 -0.9967  0.1578
14893SOL    HW246419   4.754   5.549   3.220  1.0728 -0.9298  0.2805
14894SOL     OW46420   1.200   1.668   7.274  0.0895 -0.3291 -0.0336
14894SOL    HW146421   1.277   1.695   7.323 -0.2873  0.2257  0.2718
14894SOL    HW246422   1.229   1.664   7.183  1.6696 -4.4326  0.4225
14895SOL     OW46423   8.602   4.740   3.572  0.5760  0.6784 -0.0430
14895SOL    HW146424   8.576   4.832   3.560  0.4498  0.6752  0.1975
14895SOL    HW246425   8.608   4.705   3.483  0.9549  1.0106 -0.1532
14896SOL     OW46426   3.652   8.010   2.387  0.0247 -0.4630  0.2956
14896SOL    HW146427   3.726   8.014   2.326 -0.8665  1.3268 -0.7660
14896SOL    HW246428   3.576   8.031   2.333 -1.2794 -2.1003  1.3894
14897SOL     OW46429   2.138   2.958   5.272  0.0652  0.0866  0.3512
14897SOL    HW146430   2.134   3.001   5.357  3.1850 -0.1413  0.7451
14897SOL    HW246431   2.171   2.870   5.291  0.6986 -0.0143 -1.0500
14898SOL     OW46432   4.818   0.963   8.407 -0.1353 -0.1302 -0.4282
14898SOL    HW146433   4.834   0.975   8.500  1.3353 -1.4779 -0.4729
14898SOL    HW246434   4.729   0.931   8.401 -0.4534  0.5666  0.4506
14899SOL     OW46435   8.132   0.341   6.498 -0.4830 -0.4934  0.0178
14899SOL    HW146436   8.109   0.371   6.586  1.1954  0.3215  0.2031
14899SOL    HW246437   8.162   0.420   6.453 -0.1720 -1.1237 -0.9027
14900SOL     OW46438   9.359   9.270   3.073 -0.4612  0.0232  0.2077
14900SOL    HW146439   9.396   9.314   3.149 -1.9334 -0.3648  1.1871
14900SOL    HW246440   9.286   9.325   3.046  1.3384  1.3159 -2.3255
14901SOL     OW46441   7.370   5.244   5.110 -0.0843 -0.6568 -0.0849
14901SOL    HW146442   7.303   5.194   5.157 -1.7250  0.5556 -0.9885
14901SOL    HW246443   7.347   5.233   5.017 -0.0212  1.0782 -0.3376
14902SOL     OW46444   7.740   1.203   5.355  1.0087  0.3280 -0.5837
14902SOL    HW146445   7.733   1.209   5.451  1.7401  2.6918 -0.6046
14902SOL    HW246446   7.660   1.157   5.328  1.7552 -2.2550  1.2584
14903SOL     OW46447   5.611   4.408   3.332  0.1028 -0.3297 -0.0860
14903SOL    HW146448   5.663   4.367   3.262  2.8938  0.3789  1.4104
14903SOL    HW246449   5.627   4.502   3.322  0.0298 -0.1777  1.0919
14904SOL     OW46450   7.767   2.092   1.684 -0.1934  0.2085 -0.2745
14904SOL    HW146451   7.782   2.141   1.765 -0.1480  0.8853 -0.6808
14904SOL    HW246452   7.674   2.070   1.687 -0.4143  1.0556 -0.4688
14905SOL     OW46453   4.222   1.781   7.042 -0.0015  0.6001  0.3714
14905SOL    HW146454   4.200   1.865   7.082 -2.0742 -0.7836  2.3936
14905SOL    HW246455   4.139   1.749   7.006  0.6528 -0.7817  0.0321
14906SOL     OW46456   5.370   3.538   8.577  0.2886 -0.0557 -0.4779
14906SOL    HW146457   5.418   3.598   8.520  4.6391 -2.7978 -0.1626
14906SOL    HW246458   5.337   3.594   8.647  1.3062  2.3991 -1.8064
14907SOL     OW46459   1.870   3.436   0.101 -0.2533 -0.3194  0.1209
14907SOL    HW146460   1.894   3.527   0.115 -0.4121 -0.2353 -0.1459
14907SOL    HW246461   1.947   3.386   0.129 -0.5743 -0.1651  1.3572
14908SOL     OW46462   0.335   7.620   6.114 -0.4172 -0.3421 -0.3750
14908SOL    HW146463   0.345   7.704   6.069 -0.5598  0.1478  0.4826
14908SOL    HW246464   0.385   7.558   6.061  0.8323  0.5526 -0.2865
14909SOL     OW46465   0.047   7.447   1.831 -0.5827 -0.2292 -0.5099
14909SOL    HW146466   0.081   7.445   1.742  0.2668  0.4188 -0.2252
14909SOL    HW246467   0.124   7.467   1.885 -1.5751  2.5636  0.0415
14910SOL     OW46468   1.269   3.910   3.750  0.2252 -0.2160 -0.0033
14910SOL    HW146469   1.252   3.841   3.815 -1.0543  0.6343  0.6020
14910SOL    HW246470   1.309   3.981   3.801 -0.7330  0.4336 -0.1504
14911SOL     OW46471   3.872   3.124   1.365  0.0596  0.7462  0.4833
14911SOL    HW146472   3.786   3.157   1.341  0.0576  0.3483 -0.0643
14911SOL    HW246473   3.862   3.093   1.455 -0.6781 -0.3403  0.0457
14912SOL     OW46474   6.076   6.927   7.814  0.2598  0.7859  0.0946
14912SOL    HW146475   6.010   6.955   7.877 -3.8741 -1.8128 -2.5954
14912SOL    HW246476   6.099   6.838   7.843 -2.6604 -0.9768 -2.3402
14913SOL     OW46477   5.568   0.992   1.066  0.2441 -0.1689  0.0408
14913SOL    HW146478   5.605   1.078   1.049 -0.0787 -0.1147 -0.3970
14913SOL    HW246479   5.473   1.005   1.068  0.2323 -0.3513  0.9090
14914SOL     OW46480   0.209   2.520   3.965 -0.0214 -0.0336  0.1802
14914SOL    HW146481   0.162   2.494   4.044  1.0254  2.2523  1.6822
14914SOL    HW246482   0.295   2.480   3.974 -0.2552 -0.6780 -0.3858
14915SOL     OW46483   6.901   8.446   9.247  0.2288 -0.4891 -0.1815
14915SOL    HW146484   6.968   8.378   9.254 -0.1973 -0.9103 -0.1182
14915SOL    HW246485   6.918   8.489   9.163  0.6133 -0.5465 -0.1356
14916SOL     OW46486   7.643   2.598   5.718  0.0990  0.2942  0.3607
14916SOL    HW146487   7.552   2.571   5.710 -0.0363  0.7226  0.4329
14916SOL    HW246488   7.692   2.533   5.668 -0.3176  0.4830 -0.3017
14917SOL     OW46489   8.153   0.992   2.987 -0.1375  0.0902 -0.2837
14917SOL    HW146490   8.180   0.923   3.048 -0.8309  0.1562  0.1073
14917SOL    HW246491   8.210   0.980   2.911  0.6702 -0.0663  0.3234
14918SOL     OW46492   6.868   7.187   4.287 -0.4908  0.2424 -0.1872
14918SOL    HW146493   6.906   7.273   4.306 -1.1871  0.7009 -0.7961
14918SOL    HW246494   6.792   7.180   4.345  1.3173 -1.3205  2.1439
14919SOL     OW46495   6.574   0.457   9.515  0.0428 -0.4881 -0.6234
14919SOL    HW146496   6.500   0.425   9.464  0.7343 -0.7093 -1.5008
14919SOL    HW246497   6.588   0.388   9.581 -1.6688  0.3900  0.7719
14920SOL     OW46498   1.267   6.395   5.196 -0.1242 -0.0367 -0.4614
14920SOL    HW146499   1.173   6.409   5.194 -0.0081  2.2517  2.5849
14920SOL    HW246500   1.303   6.464   5.141 -0.1788  1.0512  0.8228
14921SOL     OW46501   1.866   9.415   0.089 -0.1484  0.5648  0.1527
14921SOL    HW146502   1.864   9.320   0.077  1.6619  0.7491 -2.3304
14921SOL    HW246503   1.915   9.428   0.170 -0.8424 -0.6022  0.7854
14922SOL     OW46504   5.492   0.093   5.083  0.2628 -0.5017 -0.0593
14922SOL    HW146505   5.468   0.116   5.173 -0.0805  0.6977 -0.4408
14922SOL    HW246506   5.418   0.124   5.031 -0.3588 -2.7367 -0.6119
14923SOL     OW46507   6.237   4.931   3.047 -0.2911 -0.0579  0.4058
14923SOL    HW146508   6.204   5.011   3.087 -0.6749  0.5896 -1.1515
14923SOL    HW246509   6.181   4.916   2.971  1.2175 -0.4915 -0.6787
14924SOL     OW46510   4.129   1.068   1.885  0.1630  0.4128  0.1350
14924SOL    HW146511   4.139   1.106   1.797  0.8995 -2.3936 -1.1178
14924SOL    HW246512   4.197   1.110   1.938  0.1040  1.7276 -0.7980
14925SOL     OW46513   1.282   5.199   0.435 -1.0082  0.5465 -0.1619
14925SOL    HW146514   1.255   5.272   0.491 -2.1560  1.6800 -2.0646
14925SOL    HW246515   1.377   5.211   0.424 -0.9729  0.9920  0.5402
14926SOL     OW46516   7.775   2.094   0.979 -0.5831 -0.6611  0.4878
14926SOL    HW146517   7.737   2.169   0.932 -0.3273  0.5676  2.1480
14926SOL    HW246518   7.849   2.130   1.026  1.2763 -2.5620 -0.7883
14927SOL     OW46519   7.330   8.647   4.317  0.0745 -0.3239 -0.1670
14927SOL    HW146520   7.315   8.740   4.337  0.3409 -0.3643  0.2380
14927SOL    HW246521   7.357   8.646   4.226  0.5524  0.0478 -0.0311
14928SOL     OW46522   6.090   5.348   8.158 -0.4231  0.4888  0.0198
14928SOL    HW146523   6.185   5.333   8.166 -0.8572 -2.3137  1.0299
14928SOL    HW246524   6.052   5.260   8.156 -3.0323  1.5430 -0.4439
14929SOL     OW46525   7.116   7.395   1.882 -0.1633  0.0262 -0.1050
14929SOL    HW146526   7.149   7.472   1.837 -0.3264  0.5811  0.6944
14929SOL    HW246527   7.072   7.430   1.960 -0.9228 -0.8239 -0.1395
14930SOL     OW46528   3.566   1.645   6.894  0.6287 -0.0742  0.1873
14930SOL    HW146529   3.605   1.704   6.958 -0.7781  0.5067  0.5495
14930SOL    HW246530   3.563   1.560   6.939 -0.5508  0.3769  0.9939
14931SOL     OW46531   8.060   7.199   1.530 -0.1976 -0.3490  0.1923
14931SOL    HW146532   8.025   7.221   1.444 -1.4013 -0.9108  0.5236
14931SOL    HW246533   8.012   7.255   1.591  0.8068  0.2084  0.4969
14932SOL     OW46534   6.447   1.958   4.683  0.2787 -0.5203  0.3015
14932SOL    HW146535   6.502   1.997   4.615  0.4575  1.0573  1.2969
14932SOL    HW246536   6.357   1.969   4.650  0.4189 -0.8117 -0.1859
14933SOL     OW46537   0.236   2.742   4.249 -0.0891  0.0169 -0.0429
14933SOL    HW146538   0.146   2.719   4.225 -0.1192 -1.0585  0.9564
14933SOL    HW246539   0.241   2.836   4.237 -1.7202  0.2810  0.9574
14934SOL     OW46540   5.757   1.943   4.064 -0.1076  0.4912  1.0202
14934SOL    HW146541   5.687   1.968   4.124 -2.5794  0.1266 -1.5047
14934SOL    HW246542   5.812   1.883   4.115 -1.3003  1.1963  3.2551
14935SOL     OW46543   4.162   8.135   9.235  0.3460  0.0159  0.1128
14935SOL    HW146544   4.244   8.158   9.277  0.4088  2.4155 -1.1253
14935SOL    HW246545   4.106   8.212   9.247 -1.4424 -1.2293  0.2060
14936SOL     OW46546   7.004   5.916   7.295 -0.3043  0.7146  0.0877
14936SOL    HW146547   7.080   5.947   7.344 -0.4912  0.8902  0.2688
14936SOL    HW246548   7.037   5.842   7.244  0.0187  0.8760  0.0597
14937SOL     OW46549   6.459   9.316   9.003  0.3141  0.0180 -0.2159
14937SOL    HW146550   6.421   9.379   8.941  0.7183  0.6003  0.1203
14937SOL    HW246551   6.465   9.364   9.085  2.0829  0.0590 -0.3403
14938SOL     OW46552   1.333   2.950   8.842 -0.2020  0.4644  0.4922
14938SOL    HW146553   1.299   3.038   8.824  1.2305  1.0956  0.7147
14938SOL    HW246554   1.354   2.952   8.936 -0.9171 -0.3955  0.6803
14939SOL     OW46555   3.347   3.128   2.843  0.0263  0.6077 -0.1001
14939SOL    HW146556   3.260   3.113   2.806  0.3949 -0.7547 -0.4684
14939SOL    HW246557   3.383   3.201   2.792  0.0501 -0.4479 -1.6664
14940SOL     OW46558   0.629   6.903   6.329  0.3443 -0.1176  0.7738
14940SOL    HW146559   0.717   6.888   6.365  0.8921  0.8517 -0.0957
14940SOL    HW246560   0.628   6.997   6.309 -0.5841 -0.2901 -0.0394
14941SOL     OW46561   8.907   9.602   4.083  0.3814  0.0672 -0.2288
14941SOL    HW146562   8.935   9.679   4.035  0.8592 -0.0716 -0.1805
14941SOL    HW246563   8.853   9.553   4.021  0.6058  0.1232 -0.4690
14942SOL     OW46564   6.684   5.774   6.694 -0.1587  0.6235 -0.0467
14942SOL    HW146565   6.604   5.741   6.733  1.6495 -2.2941  1.5619
14942SOL    HW246566   6.723   5.830   6.762  1.0836 -1.3149  0.9316
14943SOL     OW46567   7.976   4.935   7.378  0.3999  0.1691  0.5142
14943SOL    HW146568   7.978   4.844   7.348 -1.7819  0.7963 -1.9478
14943SOL    HW246569   7.902   4.974   7.331  0.4622  2.9208  2.4459
14944SOL     OW46570   7.947   8.918   8.536  0.2187  0.1690  0.3680
14944SOL    HW146571   7.856   8.947   8.548  0.5053  1.1949  0.1871
14944SOL    HW246572   7.972   8.880   8.620  0.0836  1.2220  0.9017
14945SOL     OW46573   1.685   3.968   9.529  0.0032 -0.3800 -0.3885
14945SOL    HW146574   1.742   4.006   9.596  0.0657  0.2817 -0.8047
14945SOL    HW246575   1.679   4.036   9.461 -0.0740 -1.0223 -1.0413
14946SOL     OW46576   4.131   1.825   2.957 -0.6293 -0.1053  0.5822
14946SOL    HW146577   4.201   1.809   2.894 -0.9356 -2.0725  0.6796
14946SOL    HW246578   4.056   1.850   2.903 -0.1862  0.8957  0.3996
14947SOL     OW46579   1.075   3.806   4.598  0.1147  0.3254 -0.1096
14947SOL    HW146580   1.115   3.877   4.648  0.7393 -1.2848  1.8084
14947SOL    HW246581   1.009   3.770   4.657 -0.6817 -0.2611 -1.3189
14948SOL     OW46582   0.808   8.631   8.418 -0.3853  0.0115  0.4430
14948SOL    HW146583   0.753   8.680   8.357 -1.3085 -0.6509  0.7291
14948SOL    HW246584   0.783   8.540   8.405 -0.2618 -0.1801  1.4872
14949SOL     OW46585   3.019   7.242   1.784 -0.1966  0.0149  0.0535
14949SOL    HW146586   3.082   7.190   1.834 -0.1786 -0.3193 -0.3115
14949SOL    HW246587   2.938   7.190   1.788 -0.6184  0.7080  1.0014
14950SOL     OW46588   6.268   3.799   2.081  0.1929  0.2297 -0.4365
14950SOL    HW146589   6.358   3.767   2.071 -0.3819 -0.8068 -3.3011
14950SOL    HW246590   6.224   3.731   2.133  0.0352 -1.6509 -2.8566
14951SOL     OW46591   5.103   6.862   7.722 -0.2172 -0.7017  0.0466
14951SOL    HW146592   5.085   6.771   7.698 -2.2194 -0.4712  0.4436
14951SOL    HW246593   5.085   6.866   7.816 -0.7588  0.2099 -0.0779
14952SOL     OW46594   3.020   8.890   7.803  0.3799  0.1047 -0.2368
14952SOL    HW146595   2.983   8.814   7.758 -0.3962  0.1414  0.3209
14952SOL    HW246596   2.995   8.879   7.894  0.6073  0.8235 -0.0799
14953SOL     OW46597   3.624   2.833   3.002  0.7730  0.2266  0.1021
14953SOL    HW146598   3.666   2.891   3.064 -0.9710 -0.2365  1.8152
14953SOL    HW246599   3.541   2.808   3.044  0.4246 -1.6796 -1.5466
14954SOL     OW46600   2.081   8.057   3.918 -0.2448  0.0694  0.6393
14954SOL    HW146601   2.046   8.008   3.993 -0.2346  0.4449  0.8947
14954SOL    HW246602   2.165   8.090   3.949 -0.4385  0.5996  0.6175
14955SOL     OW46603   6.894   3.318   7.657  0.6016  0.0149 -0.0509
14955SOL    HW146604   6.874   3.364   7.739  1.1889  0.1187  0.0389
14955SOL    HW246605   6.989   3.308   7.658  0.3756 -3.0104  0.8969
14956SOL     OW46606   4.842   4.322   7.338 -0.4439  0.5557 -0.6151
14956SOL    HW146607   4.761   4.317   7.389  0.1333 -0.2926  0.2456
14956SOL    HW246608   4.895   4.388   7.382 -0.2004  0.2751 -0.4818
14957SOL     OW46609   4.893   5.274   8.119  0.0628  0.4415 -0.5390
14957SOL    HW146610   4.873   5.256   8.211  1.3906 -1.5650 -0.5746
14957SOL    HW246611   4.971   5.329   8.121  1.4448 -1.4052 -0.3844
14958SOL     OW46612   2.812   3.311   3.171  0.0783 -0.0399 -0.4807
14958SOL    HW146613   2.733   3.360   3.149 -0.4616  0.7931  2.8922
14958SOL    HW246614   2.884   3.371   3.151 -0.1733 -0.2433 -2.1321
14959SOL     OW46615   4.707   0.522   0.210 -0.3370 -0.9126 -0.2702
14959SOL    HW146616   4.678   0.559   0.127 -1.8731  2.4668  1.5537
14959SOL    HW246617   4.627   0.491   0.252  0.2740 -1.6939  0.3311
14960SOL     OW46618   3.171   3.042   8.047 -0.2094  0.2366 -0.2667
14960SOL    HW146619   3.077   3.062   8.054 -0.4001 -0.7930  0.4720
14960SOL    HW246620   3.212   3.126   8.028 -1.0650  1.1493  1.5749
14961SOL     OW46621   4.875   1.777   4.931 -0.2693  0.0470  0.2440
14961SOL    HW146622   4.947   1.741   4.982  0.7560 -0.4012 -1.4508
14961SOL    HW246623   4.842   1.703   4.880 -1.5013  0.4053  0.4802
14962SOL     OW46624   9.591   0.739   1.049  0.3831  0.1413  0.7166
14962SOL    HW146625   9.640   0.797   1.108  0.9901 -0.4803  0.8241
14962SOL    HW246626   9.502   0.738   1.086  0.5678  0.3692  1.1798
14963SOL     OW46627   8.719   7.902   8.210 -0.2330 -0.2165 -0.0378
14963SOL    HW146628   8.652   7.835   8.194 -0.4861 -0.0623  0.3484
14963SOL    HW246629   8.770   7.867   8.284 -0.4360  0.0653  0.2365
14964SOL     OW46630   2.771   4.436   8.366 -0.3341  0.1785 -0.1638
14964SOL    HW146631   2.728   4.356   8.399  0.3116  0.1893  0.7342
14964SOL    HW246632   2.705   4.504   8.376 -0.5610 -0.0592 -0.0236
14965SOL     OW46633   8.922   7.130   9.283 -0.5469 -0.0904 -0.0363
14965SOL    HW146634   8.956   7.068   9.218  1.0960  0.2173  0.4739
14965SOL    HW246635   8.999   7.157   9.333 -0.9403  3.2462 -0.9641
14966SOL     OW46636   9.479   9.369   1.554 -0.0083 -0.3885 -0.3283
14966SOL    HW146637   9.420   9.439   1.527  1.8631  0.5532 -2.3719
14966SOL    HW246638   9.463   9.299   1.491 -2.3031 -2.1865  2.0699
14967SOL     OW46639   0.740   6.786   3.163  0.2336 -0.0279 -0.4568
14967SOL    HW146640   0.750   6.834   3.245 -1.8011 -1.5803  0.8014
14967SOL    HW246641   0.800   6.712   3.171  1.0260  0.5361 -1.0037
14968SOL     OW46642   4.366   7.490   5.681  0.1038 -0.5167 -0.4914
14968SOL    HW146643   4.423   7.550   5.633  2.2390 -0.7946  1.5412
14968SOL    HW246644   4.282   7.497   5.636  0.8145  2.4039 -1.6262
14969SOL     OW46645   2.370   4.918   8.829 -0.0285  0.5387  0.3956
14969SOL    HW146646   2.347   4.920   8.736  1.5828 -1.2486 -0.0910
14969SOL    HW246647   2.290   4.889   8.873 -0.0847 -1.1987 -0.7525
14970SOL     OW46648   9.055   3.470   4.871  0.0103 -0.1197  0.0247
14970SOL    HW146649   9.148   3.448   4.859 -0.2339 -1.5142  0.4762
14970SOL    HW246650   9.056   3.562   4.899  1.1699  0.2230 -1.0413
14971SOL     OW46651   2.874   0.934   7.329  0.0346 -0.0753 -0.5063
14971SOL    HW146652   2.913   0.857   7.288  0.6407 -0.5328  0.8468
14971SOL    HW246653   2.942   1.001   7.323 -0.3539  0.2450 -1.3591
14972SOL     OW46654   1.532   7.964   6.131  0.1477  0.1251  0.0099
14972SOL    HW146655   1.479   8.041   6.154 -0.8616 -0.6994  0.5067
14972SOL    HW246656   1.481   7.920   6.063  0.8574  0.0288 -0.4676
14973SOL     OW46657   2.402   9.000   2.686  0.3469 -0.1907 -0.1780
14973SOL    HW146658   2.344   8.985   2.761 -0.0534  0.9958 -0.2210
14973SOL    HW246659   2.441   8.915   2.668 -0.8501 -0.8648  0.3024
14974SOL     OW46660   4.489   8.768   4.672  0.6686 -0.1052  0.0523
14974SOL    HW146661   4.464   8.829   4.741  3.0358 -1.4938  2.3493
14974SOL    HW246662   4.456   8.683   4.703  0.8497 -0.6060 -1.0848
14975SOL     OW46663   9.585   3.292   5.177 -0.4440 -0.3225 -0.8943
14975SOL    HW146664   9.518   3.340   5.226  0.6683 -0.5021  0.8986
14975SOL    HW246665   9.657   3.355   5.168  0.3498 -1.0781 -0.0278
14976SOL     OW46666   1.663   7.565   4.767  0.0456 -0.1088 -0.1626
14976SOL    HW146667   1.729   7.567   4.837 -0.5870 -0.6558  0.4615
14976SOL    HW246668   1.595   7.626   4.796 -0.4827 -0.7586 -0.0316
14977SOL     OW46669   8.691   1.980   4.249 -0.2923  0.0727  0.8489
14977SOL    HW146670   8.781   1.967   4.278 -0.3907  1.7592  2.0517
14977SOL    HW246671   8.637   1.953   4.324 -0.7296  0.3277  0.6318
14978SOL     OW46672   4.404   8.552   2.292 -0.1011 -0.3985 -0.5525
14978SOL    HW146673   4.413   8.639   2.331 -1.0940 -0.7280  0.4488
14978SOL    HW246674   4.493   8.516   2.294  0.5448  1.0065 -2.0519
14979SOL     OW46675   1.498   4.681   4.353 -0.3960  0.1009 -0.1420
14979SOL    HW146676   1.520   4.600   4.398  0.9903  0.9137  0.7262
14979SOL    HW246677   1.503   4.748   4.421 -2.8535  0.7723 -0.5375
14980SOL     OW46678   7.164   5.071   1.810 -0.0705  0.1330 -0.1122
14980SOL    HW146679   7.186   4.978   1.816  0.3195  0.1085 -1.5418
14980SOL    HW246680   7.233   5.108   1.754 -0.4025  1.2212  0.1784
14981SOL     OW46681   9.450   1.987   2.832 -0.0167  0.0654  0.0139
14981SOL    HW146682   9.412   1.934   2.762  1.1232  1.1807 -1.5348
14981SOL    HW246683   9.386   2.057   2.847 -1.4033 -1.4962  1.8846
14982SOL     OW46684   3.398   4.470   1.738 -0.4359  0.5682 -0.2533
14982SOL    HW146685   3.332   4.409   1.705 -1.4786  1.1319  0.7047
14982SOL    HW246686   3.432   4.514   1.660 -2.0767  1.1332 -0.6938
14983SOL     OW46687   2.624   2.464   7.446 -0.5024 -0.6053  0.5021
14983SOL    HW146688   2.600   2.374   7.424  1.6701 -0.9790 -0.5778
14983SOL    HW246689   2.595   2.515   7.370 -0.4305 -0.6058  0.4749
14984SOL     OW46690   7.620   5.241   9.147  0.1809  0.0907 -0.6201
14984SOL    HW146691   7.550   5.189   9.185  1.2414 -1.1104 -0.2480
14984SOL    HW246692   7.628   5.210   9.057  0.6767 -0.2621 -0.4601
14985SOL     OW46693   2.187   7.792   5.415 -0.7510  0.0601  0.3713
14985SOL    HW146694   2.272   7.749   5.402 -0.9462  0.1329 -1.3354
14985SOL    HW246695   2.123   7.728   5.383 -1.0848  1.3047 -1.5882
14986SOL     OW46696   3.775   2.787   2.125  0.6012 -0.3257  0.6154
14986SOL    HW146697   3.705   2.828   2.175  0.8033  0.3952  0.3094
14986SOL    HW246698   3.841   2.856   2.114  0.3829 -0.3418 -1.0084
14987SOL     OW46699   6.714   8.855   5.613 -0.1099 -0.0660 -0.2113
14987SOL    HW146700   6.750   8.881   5.528  1.0661 -1.6923 -0.2526
14987SOL    HW246701   6.660   8.929   5.640  1.7522  1.6712 -1.0529
14988SOL     OW46702   2.115   3.506   3.422 -0.1271 -0.4472 -0.2497
14988SOL    HW146703   2.057   3.545   3.357  0.6450  2.7280  0.7759
14988SOL    HW246704   2.198   3.495   3.375  0.6843  2.6296  0.2299
14989SOL     OW46705   1.191   7.623   4.294  0.3852 -0.4663  0.1948
14989SOL    HW146706   1.187   7.712   4.259 -1.1263 -0.2030  0.9052
14989SOL    HW246707   1.127   7.574   4.242 -0.2392 -0.6222  1.0874
14990SOL     OW46708   4.813   7.059   3.132  0.1503  0.1421 -0.4322
14990SOL    HW146709   4.839   7.009   3.054 -1.2049  0.0995 -0.8708
14990SOL    HW246710   4.861   7.017   3.204  0.8465 -0.2847 -1.1261
14991SOL     OW46711   4.244   4.177   3.532 -0.2509 -0.0021 -0.1653
14991SOL    HW146712   4.222   4.185   3.439 -0.5990 -0.5300 -0.1352
14991SOL    HW246713   4.179   4.116   3.566 -1.5858  1.9188  0.9324
14992SOL     OW46714   3.524   6.635   3.686  0.1593  0.3006 -0.3754
14992SOL    HW146715   3.464   6.575   3.642  0.5790 -0.8240  0.5611
14992SOL    HW246716   3.559   6.690   3.616 -0.0731 -0.6827 -1.2706
14993SOL     OW46717   5.439   8.302   9.438  0.6979 -0.5044 -0.7395
14993SOL    HW146718   5.452   8.271   9.528  0.9964  1.1221 -0.1733
14993SOL    HW246719   5.509   8.262   9.388  0.8709 -0.9939 -0.1199
14994SOL     OW46720   3.628   4.658   3.746 -0.3530  0.0412  0.4467
14994SOL    HW146721   3.652   4.740   3.789  0.4861 -0.3709  0.7867
14994SOL    HW246722   3.698   4.643   3.682 -0.5702 -0.3480  0.2940
14995SOL     OW46723   4.200   9.539   0.273 -1.1559 -0.4039  0.4305
14995SOL    HW146724   4.256   9.554   0.197  0.2756 -1.3756  1.2477
14995SOL    HW246725   4.189   9.626   0.312  1.0480 -0.3580  1.0720
14996SOL     OW46726   7.508   9.418   7.481 -0.3984 -0.1748 -0.0109
14996SOL    HW146727   7.496   9.477   7.555 -1.3283 -4.1857  3.4180
14996SOL    HW246728   7.597   9.386   7.490 -1.1166 -2.1376  0.7104
14997SOL     OW46729   5.109   6.799   2.975 -0.1290 -0.2511  0.1552
14997SOL    HW146730   5.166   6.836   3.043 -1.6325  0.9736  0.8255
14997SOL    HW246731   5.063   6.727   3.018  0.1178 -0.5428 -0.0647
14998SOL     OW46732   6.804   5.727   3.502  0.0341  0.1693 -0.0798
14998SOL    HW146733   6.879   5.784   3.487  1.4232 -1.5976 -0.1752
14998SOL    HW246734   6.802   5.669   3.426  1.0564 -2.3620  1.6865
14999SOL     OW46735   6.549   3.163   2.709 -0.7257 -0.8073  0.6641
14999SOL    HW146736   6.525   3.099   2.641 -2.1012  0.0515  0.3036
14999SOL    HW246737   6.619   3.214   2.670  0.3605 -2.0307  0.9369
15000SOL     OW46738   2.069   0.165   8.421  0.4521  0.1702 -0.6967
15000SOL    HW146739   1.995   0.212   8.459 -0.2915 -2.1004  0.8834
15000SOL    HW246740   2.141   0.180   8.483  1.1409  1.7370 -1.8282
15001SOL     OW46741   3.249   1.585   7.284  0.8157  0.4651  0.0312
15001SOL    HW146742   3.334   1.558   7.319  0.5819  0.3706  0.5307
15001SOL    HW246743   3.257   1.573   7.189  0.8750 -0.9024  0.1910
15002SOL     OW46744   4.452   3.918   2.454 -0.8371  0.1438  0.4455
15002SOL    HW146745   4.372   3.866   2.455 -0.2000 -0.8667  2.2867
15002SOL    HW246746   4.476   3.927   2.546  0.3824  1.6859  0.0166
15003SOL     OW46747   0.660   8.258   3.580  0.2712 -0.0258  0.1888
15003SOL    HW146748   0.689   8.328   3.639  1.2429 -0.0491 -0.2446
15003SOL    HW246749   0.671   8.295   3.492  0.5225 -0.6238 -0.0353
15004SOL     OW46750   5.679   6.165   9.510  0.0613 -0.1773  0.0954
15004SOL    HW146751   5.586   6.179   9.492  0.3978  1.4180 -0.4785
15004SOL    HW246752   5.705   6.098   9.447 -0.8202 -1.1642  0.7222
15005SOL     OW46753   5.593   9.478   5.755 -0.1013  0.1737 -0.2834
15005SOL    HW146754   5.646   9.447   5.829  0.3378 -0.4870 -0.8519
15005SOL    HW246755   5.625   9.566   5.737  0.4952 -0.0486 -0.3266
15006SOL     OW46756   6.762   2.282   1.870 -0.4477 -0.3382 -0.1944
15006SOL    HW146757   6.805   2.210   1.823 -0.1714  0.3756 -1.0718
15006SOL    HW246758   6.669   2.257   1.872 -0.2837 -0.9535 -0.0361
15007SOL     OW46759   4.679   5.411   1.208  0.1980  0.2483  0.2963
15007SOL    HW146760   4.761   5.377   1.173 -0.1664 -0.5493  0.1991
15007SOL    HW246761   4.704   5.492   1.254  1.0386 -0.0127  0.3142
15008SOL     OW46762   7.463   6.184   2.226 -0.2597  0.4387  0.0038
15008SOL    HW146763   7.523   6.258   2.209 -0.4017  0.3116 -1.1214
15008SOL    HW246764   7.388   6.224   2.269  0.8493  0.5217  2.0070
15009SOL     OW46765   2.238   2.654   1.114  0.4216  0.0746  0.0710
15009SOL    HW146766   2.193   2.657   1.030 -0.2867 -0.2171  0.4285
15009SOL    HW246767   2.201   2.727   1.163  1.7023  0.9922 -0.2818
15010SOL     OW46768   1.531   4.912   7.406 -0.1374 -0.1833 -0.5913
15010SOL    HW146769   1.573   4.917   7.320  2.6075  1.4203  0.6764
15010SOL    HW246770   1.470   4.986   7.407 -1.0633 -0.9025 -1.5152
15011SOL     OW46771   8.146   1.850   9.095 -0.1952  0.1167  0.5466
15011SOL    HW146772   8.102   1.777   9.052 -0.7000  0.9191 -0.3570
15011SOL    HW246773   8.095   1.865   9.175  0.0927 -0.7050  0.8831
15012SOL     OW46774   4.169   0.518   0.209  0.1993  0.0287 -0.4644
15012SOL    HW146775   4.109   0.526   0.284  0.0269  1.1203 -0.7015
15012SOL    HW246776   4.112   0.523   0.133  0.6745  2.4885 -0.7325
15013SOL     OW46777   8.736   0.909   7.383 -0.6142 -0.0095  0.0929
15013SOL    HW146778   8.705   0.833   7.433 -3.2277  0.2696 -0.9480
15013SOL    HW246779   8.814   0.877   7.338 -1.7035 -2.1792 -0.4159
15014SOL     OW46780   3.965   3.183   0.661 -0.1816  0.1305 -0.1557
15014SOL    HW146781   3.907   3.236   0.607  0.4716 -0.9181 -1.9594
15014SOL    HW246782   4.010   3.247   0.717  0.2826  1.4778 -1.9608
15015SOL     OW46783   6.166   6.408   3.602  0.2824 -0.0184  0.6916
15015SOL    HW146784   6.179   6.355   3.681 -0.0094 -0.0828  0.6990
15015SOL    HW246785   6.171   6.498   3.633  0.3371 -0.0440  0.7563
15016SOL     OW46786   8.507   3.913   7.540 -0.1041 -0.0595 -0.2555
15016SOL    HW146787   8.544   3.827   7.559  0.7119  0.1553 -0.8065
15016SOL    HW246788   8.522   3.925   7.446  1.5436  1.4797  0.1438
15017SOL     OW46789   5.038   1.474   2.190 -0.1906  0.4023  0.3655
15017SOL    HW146790   5.078   1.528   2.122 -1.3118  0.0601 -0.5890
15017SOL    HW246791   5.044   1.385   2.156 -3.4216  0.5014 -0.7113
15018SOL     OW46792   4.380   1.156   5.894  0.0995 -0.0569 -0.2412
15018SOL    HW146793   4.402   1.248   5.885 -1.1121  0.0583 -3.4911
15018SOL    HW246794   4.287   1.156   5.916  0.2883 -0.5342  0.6065
15019SOL     OW46795   2.940   5.501   7.298  0.2897  0.0490 -0.3803
15019SOL    HW146796   2.968   5.580   7.344 -0.3970 -0.4178  0.8821
15019SOL    HW246797   2.847   5.514   7.281  0.3880 -0.0819 -1.0199
15020SOL     OW46798   6.952   4.019   3.993  0.2714  0.0568 -0.2396
15020SOL    HW146799   7.007   4.092   3.963  2.4639 -0.3684  2.3982
15020SOL    HW246800   7.014   3.948   4.010 -1.1725 -0.7422  2.0377
15021SOL     OW46801   5.556   9.242   7.578  0.2058 -0.0685  0.8491
15021SOL    HW146802   5.649   9.258   7.588  0.3318 -0.5584  0.4808
15021SOL    HW246803   5.549   9.148   7.563 -0.0321  0.3871 -2.5036
15022SOL     OW46804   6.113   6.506   5.718 -0.5633 -0.1700 -0.8832
15022SOL    HW146805   6.033   6.454   5.701 -2.1273  1.0574  1.9486
15022SOL    HW246806   6.089   6.595   5.695  0.3893  0.0625 -1.0045
15023SOL     OW46807   9.530   6.031   9.218 -0.1576 -0.0788  0.4871
15023SOL    HW146808   9.480   6.099   9.263 -0.5291 -0.4515  0.6419
15023SOL    HW246809   9.528   5.957   9.279  0.6181 -0.0833  0.5105
15024SOL     OW46810   7.027   6.103   8.439 -0.0666  0.2231 -0.2828
15024SOL    HW146811   7.013   6.196   8.425 -0.6311  0.1765 -0.0772
15024SOL    HW246812   7.033   6.093   8.534 -1.7468 -0.1598 -0.1833
15025SOL     OW46813   5.483   4.497   0.169 -0.0925  0.5606 -0.4053
15025SOL    HW146814   5.438   4.450   0.240 -0.1351  0.1135 -0.7182
15025SOL    HW246815   5.554   4.544   0.212  0.1155 -0.0110 -0.1063
15026SOL     OW46816   6.343   2.782   5.686 -0.6778  0.5722 -0.4215
15026SOL    HW146817   6.383   2.729   5.617 -1.5419  0.6838 -1.0272
15026SOL    HW246818   6.279   2.836   5.640  0.5310  2.5594  0.0915
15027SOL     OW46819   8.329   9.200   2.118  0.5020 -0.0506 -0.4464
15027SOL    HW146820   8.297   9.125   2.068  1.0128 -1.1041  0.7353
15027SOL    HW246821   8.345   9.268   2.053  1.5954 -1.5285 -1.7857
15028SOL     OW46822   0.654   2.883   3.480  0.2249 -0.0497 -0.5207
15028SOL    HW146823   0.586   2.827   3.517  0.7072 -0.7073 -0.6219
15028SOL    HW246824   0.724   2.823   3.454  2.7538  0.8235  3.4356
15029SOL     OW46825   4.307   1.469   2.169  0.4881  0.4831 -0.2500
15029SOL    HW146826   4.311   1.557   2.209 -0.5507  0.7576 -0.7028
15029SOL    HW246827   4.213   1.451   2.163  0.7011 -0.8206  0.1604
15030SOL     OW46828   4.825   6.464   8.298  0.3238  0.2641 -0.1230
15030SOL    HW146829   4.777   6.410   8.361  0.3001  0.0339 -0.3392
15030SOL    HW246830   4.761   6.529   8.268  0.7255  1.3398  1.2080
15031SOL     OW46831   2.853   9.266   5.004 -0.1269  0.6830  0.1571
15031SOL    HW146832   2.839   9.213   5.083  3.2742 -0.9583 -0.1319
15031SOL    HW246833   2.946   9.288   5.006 -0.0619  1.2227 -3.0031
15032SOL     OW46834   0.736   7.102   2.905  0.3325  0.3467 -0.2954
15032SOL    HW146835   0.694   7.069   2.826  0.2913  0.7193 -0.4298
15032SOL    HW246836   0.803   7.037   2.925 -0.1365 -0.1254 -0.2203
15033SOL     OW46837   0.041   6.199   6.325 -0.6128  0.7340 -0.1290
15033SOL    HW146838   0.056   6.179   6.417 -1.0473 -0.7680 -0.3565
15033SOL    HW246839   0.127   6.222   6.291 -0.4170  1.1191  0.6034
15034SOL     OW46840   3.769   3.467   2.015 -0.4216  0.4226  0.4167
15034SOL    HW146841   3.771   3.527   2.090  1.8348 -0.1700  0.9109
15034SOL    HW246842   3.825   3.508   1.950  0.3512 -0.6505  0.3785
15035SOL     OW46843   9.571   2.678   4.250  0.4549  0.4119 -0.4941
15035SOL    HW146844   9.545   2.770   4.253  1.2627  0.6266  1.5532
15035SOL    HW246845   9.512   2.635   4.312  3.0635  0.4614  2.2467
15036SOL     OW46846   3.871   6.925   8.920 -0.6910  0.1885 -0.1956
15036SOL    HW146847   3.788   6.921   8.967 -1.3203 -0.5521 -1.3272
15036SOL    HW246848   3.878   6.840   8.875  1.2010 -0.2078  0.7128
15037SOL     OW46849   8.614   4.457   8.468 -0.0531  0.0210  0.2474
15037SOL    HW146850   8.661   4.532   8.430 -3.3424  0.8714 -2.7416
15037SOL    HW246851   8.669   4.382   8.447  1.0718  1.1404 -1.0733
15038SOL     OW46852   0.744   8.656   6.614  0.0459 -0.5252 -0.3631
15038SOL    HW146853   0.743   8.747   6.584  0.4962 -0.3966 -0.0025
15038SOL    HW246854   0.709   8.660   6.703 -2.5709 -1.0776 -1.2911
15039SOL     OW46855   5.498   1.368   1.140  0.5820  0.2480  0.3048
15039SOL    HW146856   5.572   1.313   1.167 -0.5513 -0.9002  1.1502
15039SOL    HW246857   5.475   1.418   1.218  0.6527  0.8408 -0.0450
15040SOL     OW46858   7.286   5.082   7.633 -0.1174  0.0807 -0.4950
15040SOL    HW146859   7.226   5.050   7.566 -1.0411 -0.4276  0.5624
15040SOL    HW246860   7.342   5.145   7.586 -1.8543  1.0474 -1.3765
15041SOL     OW46861   1.422   1.058   2.135  0.4868  0.1601 -0.2366
15041SOL    HW146862   1.330   1.079   2.123  0.0120 -1.7419 -0.3271
15041SOL    HW246863   1.430   1.034   2.227  0.6182 -0.7874 -0.4829
15042SOL     OW46864   6.066   7.526   9.379  0.1328 -0.1118  1.2671
15042SOL    HW146865   6.041   7.522   9.471  0.6479  0.2725  1.4291
15042SOL    HW246866   6.142   7.469   9.372  0.4136  0.2653  1.1900
15043SOL     OW46867   8.108   2.010   1.117  0.2298  0.0365  0.4639
15043SOL    HW146868   8.117   2.026   1.023 -0.3683  0.3520  0.4569
15043SOL    HW246869   8.112   2.097   1.157 -1.1653  0.0582  0.5850
15044SOL     OW46870   0.397   4.691   7.316 -0.3666 -0.3775 -0.0320
15044SOL    HW146871   0.466   4.625   7.325  2.0424  1.6176 -1.9931
15044SOL    HW246872   0.370   4.684   7.224 -2.0552 -0.3869  0.4383
15045SOL     OW46873   4.108   3.924   2.220 -0.0590 -0.2172  0.6134
15045SOL    HW146874   4.089   3.936   2.313 -0.1915  1.3889  0.4158
15045SOL    HW246875   4.158   3.843   2.216 -3.5369 -2.6753  1.5893
15046SOL     OW46876   1.492   9.160   4.628 -0.1906 -0.0293  0.2296
15046SOL    HW146877   1.435   9.190   4.558 -0.6206  0.5103  0.7944
15046SOL    HW246878   1.569   9.217   4.622 -0.9531  1.1769  1.2243
15047SOL     OW46879   8.636   5.489   2.325  0.2747 -0.3533 -0.1696
15047SOL    HW146880   8.727   5.463   2.339  0.2282 -0.0475  0.7672
15047SOL    HW246881   8.609   5.527   2.409 -0.9550 -1.1268 -0.1933
15048SOL     OW46882   1.407   3.173   7.714 -0.1945 -0.2476 -0.7612
15048SOL    HW146883   1.377   3.258   7.684 -1.0259 -0.8012 -1.5602
15048SOL    HW246884   1.446   3.132   7.637 -1.4666 -1.2936 -0.8991
15049SOL     OW46885   2.662   1.471   7.314 -0.1437 -0.0960 -0.5207
15049SOL    HW146886   2.643   1.535   7.245 -0.0060  0.6699  0.1469
15049SOL    HW246887   2.659   1.521   7.395  2.1591 -0.4541 -0.1511
15050SOL     OW46888   5.962   8.295   2.605 -0.3611  0.2429  0.3654
15050SOL    HW146889   5.914   8.377   2.589 -1.6322 -0.6399 -0.5552
15050SOL    HW246890   6.004   8.276   2.521  0.0490  0.0166  0.6222
15051SOL     OW46891   6.733   3.200   1.609 -0.0326  0.1938 -0.0799
15051SOL    HW146892   6.719   3.240   1.523 -0.9937 -0.5313 -0.2831
15051SOL    HW246893   6.799   3.133   1.594  0.4718  0.6707 -0.0478
15052SOL     OW46894   8.457   8.157   4.808 -0.3748  0.2504 -0.0710
15052SOL    HW146895   8.517   8.140   4.736  0.5857  0.6316  0.6175
15052SOL    HW246896   8.371   8.134   4.773  0.1449 -0.1874 -1.1186
15053SOL     OW46897   4.538   0.444   4.750  0.0087 -0.3057 -0.4614
15053SOL    HW146898   4.519   0.364   4.701  0.0368 -1.7030  1.7034
15053SOL    HW246899   4.633   0.457   4.738  0.0496 -0.7277 -0.6017
15054SOL     OW46900   3.621   6.590   1.975  0.3078  0.1845  0.3827
15054SOL    HW146901   3.592   6.503   1.946 -0.4881  0.2775  0.8836
15054SOL    HW246902   3.588   6.598   2.064 -1.2584  1.7456 -0.2974
15055SOL     OW46903   2.893   5.132   3.006  0.4750 -0.4501  0.1116
15055SOL    HW146904   2.937   5.134   2.921 -0.0689  0.3859 -0.1649
15055SOL    HW246905   2.886   5.224   3.032 -1.0513 -0.5546  0.1592
15056SOL     OW46906   5.159   8.827   0.006 -0.2176 -0.1148  0.4944
15056SOL    HW146907   5.248   8.808  -0.022 -0.7221 -2.0930  0.0747
15056SOL    HW246908   5.146   8.920  -0.015  1.0384 -0.3175 -1.4291
15057SOL     OW46909   1.315   2.059   0.760 -0.2297 -0.4071 -0.5341
15057SOL    HW146910   1.370   2.138   0.764  1.9158 -1.8184 -0.5819
15057SOL    HW246911   1.339   2.009   0.838  0.2175 -2.1044 -1.7217
15058SOL     OW46912   6.269   8.821   6.493 -0.0254  0.2560 -0.0194
15058SOL    HW146913   6.201   8.761   6.523 -0.9799  1.9479  1.3189
15058SOL    HW246914   6.222   8.899   6.463  1.1058 -0.0601 -2.9729
15059SOL     OW46915   7.980   0.849   6.950 -0.2184  0.4204  0.0005
15059SOL    HW146916   8.036   0.909   6.900 -0.9219 -0.6009 -2.1001
15059SOL    HW246917   8.031   0.831   7.030  1.0018  2.0068 -0.3563
15060SOL     OW46918   0.369   7.461   5.049  0.1630  0.3925 -0.0001
15060SOL    HW146919   0.376   7.384   5.104  1.0241  0.6011  0.2060
15060SOL    HW246920   0.405   7.433   4.964  0.7660  0.6381  0.1651
15061SOL     OW46921   3.868   9.323   9.165 -0.1709 -0.6330 -0.4925
15061SOL    HW146922   3.787   9.331   9.114 -0.5249 -1.0203  0.0065
15061SOL    HW246923   3.859   9.241   9.212 -0.4867  0.3745  1.3074
15062SOL     OW46924   2.470   4.212   3.943 -0.1071  0.3810 -0.3435
15062SOL    HW146925   2.470   4.147   4.014  0.4099  0.2334 -0.4756
15062SOL    HW246926   2.477   4.296   3.988 -0.2390  0.3156 -0.1984
15063SOL     OW46927   1.156   1.645   7.620  0.5028 -0.2933  0.5596
15063SOL    HW146928   1.136   1.628   7.712  0.7338 -0.4009  0.5912
15063SOL    HW246929   1.071   1.655   7.578  0.3994 -0.0955  0.8131
15064SOL     OW46930   4.202   5.483   4.926  0.0175 -0.3726 -0.1659
15064SOL    HW146931   4.170   5.515   4.842 -0.1639 -0.4258 -0.1166
15064SOL    HW246932   4.156   5.400   4.940  0.9919 -1.0145 -0.6215
15065SOL     OW46933   2.316   4.744   9.104  0.0522 -0.2107  0.3358
15065SOL    HW146934   2.247   4.784   9.050  2.1609  3.2454 -0.1417
15065SOL    HW246935   2.375   4.703   9.041 -1.0474 -2.4700  0.6884
15066SOL     OW46936   4.985   0.365   6.031 -0.3235 -0.0346 -0.6539
15066SOL    HW146937   5.032   0.284   6.008 -0.3596 -0.1335 -0.3826
15066SOL    HW246938   4.902   0.334   6.069  0.5222  0.0720  1.3864
15067SOL     OW46939   3.281   4.347   1.224 -0.5624 -0.0263 -0.5156
15067SOL    HW146940   3.214   4.392   1.173 -0.1595 -0.2665 -1.2651
15067SOL    HW246941   3.234   4.274   1.266 -1.1575  0.8987  0.4848
15068SOL     OW46942   1.137   6.785   6.961 -0.4291  0.4698 -0.0315
15068SOL    HW146943   1.220   6.802   7.007 -0.5118 -0.2926  0.4049
15068SOL    HW246944   1.136   6.690   6.948 -2.0746  0.2361  1.5711
15069SOL     OW46945   4.987   5.015   5.254  0.9071 -0.1745 -0.1491
15069SOL    HW146946   5.071   5.021   5.299  1.2893 -0.2232 -0.8491
15069SOL    HW246947   4.955   5.106   5.251 -0.6911 -0.4657  3.0860
15070SOL     OW46948   6.417   2.201   9.550 -0.1962 -0.5162  0.5294
15070SOL    HW146949   6.388   2.140   9.618  1.9394  0.1391  2.1425
15070SOL    HW246950   6.416   2.287   9.592 -0.5819  0.1906 -0.8583
15071SOL     OW46951   3.305   2.182   6.422  0.2276 -0.1381  0.1022
15071SOL    HW146952   3.385   2.229   6.397 -1.1712  2.2718 -0.1715
15071SOL    HW246953   3.298   2.112   6.357  0.2549  1.8666 -2.2303
15072SOL     OW46954   6.428   6.694   3.456 -0.3717 -0.9119 -0.1619
15072SOL    HW146955   6.450   6.694   3.363  0.2164 -1.9372 -0.0297
15072SOL    HW246956   6.333   6.683   3.458 -0.5958  0.6359 -0.6615
15073SOL     OW46957   9.350   1.354   3.310 -0.0175 -0.1130  0.6591
15073SOL    HW146958   9.280   1.328   3.250 -2.6546  1.8006  2.6480
15073SOL    HW246959   9.332   1.446   3.328  3.8833  0.8649  0.3275
15074SOL     OW46960   2.871   2.112   8.363 -0.0505  0.1483  0.3774
15074SOL    HW146961   2.787   2.144   8.397 -0.8301 -1.0602 -0.3258
15074SOL    HW246962   2.930   2.112   8.438 -1.7104 -2.4889  1.8236
15075SOL     OW46963   0.597   1.621   7.944  0.4230 -0.2462 -0.0085
15075SOL    HW146964   0.611   1.698   7.889 -0.4414  0.2971  0.5026
15075SOL    HW246965   0.504   1.624   7.966  1.1174  1.0414  3.5514
15076SOL     OW46966   4.380   5.034   2.618  0.2292 -0.0123 -0.2333
15076SOL    HW146967   4.339   4.949   2.603  0.4943 -0.3832  0.9772
15076SOL    HW246968   4.418   5.026   2.706  1.4533  0.8763 -0.6537
15077SOL     OW46969   2.929   2.311   5.615 -0.0131 -0.0163  0.5370
15077SOL    HW146970   3.002   2.357   5.573  0.1269 -0.4216  0.3346
15077SOL    HW246971   2.949   2.316   5.709  1.7236 -2.4464  0.4075
15078SOL     OW46972   3.815   4.483   6.582  0.3328  0.2759 -0.1782
15078SOL    HW146973   3.810   4.424   6.657 -0.4156  0.1090 -0.3474
15078SOL    HW246974   3.844   4.427   6.510 -0.5785  0.0453 -0.3868
15079SOL     OW46975   1.938   7.249   4.935  0.1182 -0.5386 -0.2217
15079SOL    HW146976   1.848   7.232   4.906  0.4888  0.2966 -2.0125
15079SOL    HW246977   1.947   7.200   5.017 -1.2034 -2.5919 -1.2352
15080SOL     OW46978   8.300   8.153   8.900  0.0285 -0.1462  0.3656
15080SOL    HW146979   8.354   8.074   8.892 -0.6912 -0.5537 -0.6198
15080SOL    HW246980   8.358   8.224   8.873  0.1200 -0.5669 -0.5821
15081SOL     OW46981   4.793   5.620   8.903 -0.3075  0.3514 -0.3767
15081SOL    HW146982   4.760   5.633   8.814  0.4401 -1.6342 -1.0120
15081SOL    HW246983   4.885   5.648   8.899 -0.1183 -0.2631 -0.3838
15082SOL     OW46984   8.058   5.154   8.282  0.5839  0.0865  0.8364
15082SOL    HW146985   7.980   5.193   8.320  1.1084  1.2837  0.7312
15082SOL    HW246986   8.095   5.223   8.226  1.2491 -0.7478  0.2114
15083SOL     OW46987   8.239   6.173   5.334  0.4641  0.4549 -0.2628
15083SOL    HW146988   8.320   6.151   5.380  1.5615  0.2466 -2.1608
15083SOL    HW246989   8.198   6.241   5.387  1.0842 -0.5469  1.5556
15084SOL     OW46990   6.346   1.648   6.979  0.1657  0.5038 -0.1103
15084SOL    HW146991   6.255   1.618   6.979  0.0774  0.6490  1.8857
15084SOL    HW246992   6.341   1.740   6.954 -0.0763  0.1900 -1.2761
15085SOL     OW46993   4.383   5.573   7.443 -0.2482 -0.6524  0.5465
15085SOL    HW146994   4.365   5.661   7.477  2.4651  0.0481  0.3907
15085SOL    HW246995   4.311   5.555   7.383 -1.5481  0.8965  1.5699
15086SOL     OW46996   0.786   0.201   5.106 -0.3649  0.1873  0.3971
15086SOL    HW146997   0.761   0.258   5.179 -0.8828  1.8926 -1.0385
15086SOL    HW246998   0.706   0.153   5.085 -0.7484  1.0572 -0.1976
15087SOL     OW46999   9.584   1.373   3.916  0.0632  0.0585 -0.0137
15087SOL    HW147000   9.518   1.358   3.983 -0.2562  1.5372  0.0356
15087SOL    HW247001   9.599   1.287   3.877  1.6311 -1.2807  3.1590
15088SOL     OW47002   4.787   6.029   2.112 -0.2783  0.2101  0.3372
15088SOL    HW147003   4.871   6.008   2.153  0.4613  0.1584 -1.1432
15088SOL    HW247004   4.722   5.990   2.170  0.6299  1.3103  2.1752
15089SOL     OW47005   6.057   7.210   1.887  0.5631  0.1735 -0.0343
15089SOL    HW147006   6.057   7.242   1.796  1.6200 -0.3237 -0.2212
15089SOL    HW247007   5.973   7.166   1.896  0.5615 -0.0224 -0.8667
15090SOL     OW47008   1.311   1.813   5.555 -0.8439 -0.1613 -0.2005
15090SOL    HW147009   1.403   1.837   5.571 -0.9222 -0.2044  0.3525
15090SOL    HW247010   1.272   1.892   5.518 -0.4324 -0.3481 -1.0546
15091SOL     OW47011   3.019   1.841   9.064  0.1044 -0.1422 -0.1248
15091SOL    HW147012   3.035   1.903   8.993 -2.8906  1.9932  0.8756
15091SOL    HW247013   3.068   1.876   9.139 -1.2410  0.8622  0.3219
15092SOL     OW47014   3.823   9.251   2.290  0.3946 -1.0524  0.5668
15092SOL    HW147015   3.764   9.214   2.355 -1.4263  2.0676  0.9152
15092SOL    HW247016   3.776   9.327   2.256  3.4143  0.4492 -0.6276
15093SOL     OW47017   8.307   4.267   7.386  0.2816 -0.2906 -0.5733
15093SOL    HW147018   8.279   4.199   7.448  0.7348  0.5780  0.6198
15093SOL    HW247019   8.344   4.336   7.441  1.2512  0.2550 -1.8613
15094SOL     OW47020   5.347   6.931   3.049 -0.7894  0.2450  0.2918
15094SOL    HW147021   5.321   7.020   3.075 -0.8481 -0.3532  2.4729
15094SOL    HW247022   5.421   6.910   3.107 -1.0304 -1.2796  0.0894
15095SOL     OW47023   5.885   2.758   5.100 -0.3320 -0.4188 -0.2766
15095SOL    HW147024   5.790   2.762   5.107 -0.2541 -0.5017  1.0442
15095SOL    HW247025   5.901   2.730   5.010 -1.5935 -2.0351 -0.0303
15096SOL     OW47026   5.826   3.473   3.204  0.1171 -0.8921 -0.3082
15096SOL    HW147027   5.852   3.509   3.289  2.3231  0.4342 -1.4509
15096SOL    HW247028   5.820   3.379   3.218 -0.5597 -0.6071  1.5420
15097SOL     OW47029   1.690   6.912   7.758 -0.4005 -0.0564  0.1755
15097SOL    HW147030   1.717   6.995   7.798 -0.9361  0.3553 -0.3072
15097SOL    HW247031   1.769   6.880   7.714 -0.3643  0.5298 -0.1921
15098SOL     OW47032   3.707   2.939   5.415 -0.1759  0.2509 -0.3050
15098SOL    HW147033   3.707   2.908   5.505  0.3896  2.8754  0.7008
15098SOL    HW247034   3.797   2.969   5.400 -0.1565 -0.4911 -1.9190
15099SOL     OW47035   4.483   4.648   5.074  0.3618 -0.5954  0.5465
15099SOL    HW147036   4.505   4.737   5.046  0.8239 -0.9614 -0.3055
15099SOL    HW247037   4.538   4.633   5.151 -0.1325  0.0559  1.0252
15100SOL     OW47038   6.689   5.897   8.943  0.4681 -0.6339 -0.3735
15100SOL    HW147039   6.699   5.861   9.031  0.9055 -1.7847 -0.8782
15100SOL    HW247040   6.641   5.830   8.894  0.1404  0.0351 -0.9947
15101SOL     OW47041   7.152   3.087   5.159  0.6013 -0.2802 -0.0776
15101SOL    HW147042   7.208   3.156   5.124 -0.2407  0.2313 -0.4338
15101SOL    HW247043   7.155   3.018   5.091  0.8126 -0.2720 -0.0797
15102SOL     OW47044   7.223   6.352   5.772 -0.1789  0.2269 -0.4426
15102SOL    HW147045   7.174   6.325   5.695  0.7773  1.0578 -1.3621
15102SOL    HW247046   7.302   6.298   5.772 -0.1104  0.3204 -0.1106
15103SOL     OW47047   3.908   5.580   1.966  0.1463  0.2014  0.1365
15103SOL    HW147048   3.842   5.511   1.981  1.4576 -1.4039 -1.0965
15103SOL    HW247049   3.895   5.641   2.039 -1.6784 -0.8674  0.7863
15104SOL     OW47050   2.000   9.004   8.010  0.1929  0.2916  0.7130
15104SOL    HW147051   1.994   8.948   8.088  1.1034  2.1979  2.2148
15104SOL    HW247052   1.991   9.093   8.043  0.7224  1.1765 -1.3614
15105SOL     OW47053   7.792   2.962   3.571 -0.2440 -0.2284 -0.2870
15105SOL    HW147054   7.855   2.918   3.515 -0.1304 -0.0345 -0.3103
15105SOL    HW247055   7.754   2.891   3.624  3.0682  0.0779  2.8619
15106SOL     OW47056   1.613   3.389   2.004  0.2045  0.8196 -0.3135
15106SOL    HW147057   1.682   3.371   2.068  1.9544 -1.9006 -2.6988
15106SOL    HW247058   1.537   3.414   2.057  2.1544  0.9961  2.6281
15107SOL     OW47059   8.089   4.860   8.212 -0.2893 -0.8104  0.2889
15107SOL    HW147060   8.063   4.841   8.302 -1.4560  0.5766  0.2739
15107SOL    HW247061   8.108   4.954   8.212  0.6819 -0.9907 -0.6916
15108SOL     OW47062   0.321   4.407   6.278 -0.0980  0.9916 -0.1358
15108SOL    HW147063   0.320   4.369   6.190 -3.5513  1.3347 -0.3779
15108SOL    HW247064   0.352   4.335   6.334 -1.3047 -0.4520 -1.2311
15109SOL     OW47065   7.718   2.818   6.391 -0.5193 -0.5022  0.1323
15109SOL    HW147066   7.779   2.799   6.462 -2.1652 -0.5457  1.6050
15109SOL    HW247067   7.726   2.743   6.332  1.6706  0.0494 -0.3457
15110SOL     OW47068   1.421   6.768   3.577 -0.0257 -0.4179  0.5964
15110SOL    HW147069   1.416   6.676   3.550  1.0247  0.0628 -1.4487
15110SOL    HW247070   1.480   6.808   3.514 -1.6674  2.0149  0.4790
15111SOL     OW47071   1.996   0.651   3.674 -0.5866 -0.2068  0.4700
15111SOL    HW147072   2.042   0.683   3.751  0.3353  1.2445 -0.6336
15111SOL    HW247073   1.916   0.705   3.669 -0.4596 -0.0385  0.2131
15112SOL     OW47074   4.896   9.330   0.450 -0.2190  0.0454 -0.1305
15112SOL    HW147075   4.901   9.380   0.369 -0.2176  1.7256  0.8431
15112SOL    HW247076   4.860   9.391   0.514 -1.1665 -1.5309  0.9209
15113SOL     OW47077   9.019   2.777   8.602 -0.3946  0.1959 -0.5003
15113SOL    HW147078   8.980   2.690   8.607 -1.1835  0.5730  0.0860
15113SOL    HW247079   8.982   2.815   8.522 -0.4476  0.1787 -0.4843
15114SOL     OW47080   7.543   7.188   0.017  1.2921  0.0902  0.1744
15114SOL    HW147081   7.548   7.279  -0.013  1.9353 -0.7216 -2.4569
15114SOL    HW247082   7.467   7.152  -0.029  0.9764 -0.6947  1.2676
15115SOL     OW47083   6.326   2.374   1.537 -0.0420 -0.1926 -0.3667
15115SOL    HW147084   6.376   2.319   1.597  1.2357  0.2640 -0.9706
15115SOL    HW247085   6.237   2.372   1.571  0.8685  1.1689  2.4097
15116SOL     OW47086   1.438   7.855   5.440  0.2396  0.0404  0.2256
15116SOL    HW147087   1.381   7.865   5.364  0.2804 -0.2111  0.1617
15116SOL    HW247088   1.379   7.844   5.514  0.1995  0.3035  0.2335
15117SOL     OW47089   2.279   3.053   1.056 -0.3880 -0.1110  0.1811
15117SOL    HW147090   2.367   3.034   1.023  0.2151 -1.2303  2.2830
15117SOL    HW247091   2.226   3.060   0.977  1.3662 -0.4959 -1.1049
15118SOL     OW47092   2.613   0.044   2.364 -0.7821 -0.3878 -0.3415
15118SOL    HW147093   2.599   0.136   2.389  2.2553  0.4632 -1.2995
15118SOL    HW247094   2.548   0.028   2.295 -1.1260  1.1510 -0.4215
15119SOL     OW47095   0.004   5.697   6.355  0.7111 -0.4056 -0.6756
15119SOL    HW147096   0.059   5.623   6.332  1.1655 -1.1987  2.5182
15119SOL    HW247097  -0.085   5.663   6.354  0.6086 -0.1773 -1.9016
15120SOL     OW47098   9.357   9.398   4.571 -0.5863 -0.4246  0.4071
15120SOL    HW147099   9.391   9.346   4.645  0.6898  2.5344  2.0682
15120SOL    HW247100   9.434   9.411   4.515 -0.8476 -0.2168  0.0989
15121SOL     OW47101   4.446   8.231   5.479 -0.3527 -0.1309  0.0418
15121SOL    HW147102   4.474   8.314   5.519  0.3524  0.1257 -0.9250
15121SOL    HW247103   4.529   8.186   5.459 -0.6353  0.0840 -1.7662
15122SOL     OW47104   3.952   4.015   4.959  0.1915  0.2112  0.2075
15122SOL    HW147105   3.935   3.928   4.922  1.9444  0.0769 -0.3660
15122SOL    HW247106   3.932   4.076   4.888 -2.8821  0.4919  1.1827
15123SOL     OW47107   4.464   3.856   1.535  0.2626  0.5514  0.3497
15123SOL    HW147108   4.413   3.932   1.506  0.4325  0.6737  0.3622
15123SOL    HW247109   4.399   3.790   1.556  0.1431  0.3537 -0.5906
15124SOL     OW47110   5.858   8.667   4.437  0.7120 -0.3543 -0.8650
15124SOL    HW147111   5.852   8.633   4.526  1.9313  1.2044 -0.1322
15124SOL    HW247112   5.788   8.622   4.389  0.1807 -1.3942  0.8087
15125SOL     OW47113   4.490   5.550   6.735  0.3038 -0.9046  0.8366
15125SOL    HW147114   4.531   5.464   6.747 -0.1542 -0.8532  3.4628
15125SOL    HW247115   4.527   5.604   6.805 -0.5850  0.5687  0.2149
15126SOL     OW47116   7.359   5.555   8.422  0.5167 -0.1727 -0.0679
15126SOL    HW147117   7.367   5.478   8.365 -0.3959 -0.3930  0.0917
15126SOL    HW247118   7.448   5.589   8.429  0.6636 -0.1838 -1.5741
15127SOL     OW47119   0.071   1.778   7.731 -0.4895 -0.0807 -0.0023
15127SOL    HW147120  -0.018   1.790   7.697 -0.0903 -2.0930 -2.0104
15127SOL    HW247121   0.127   1.821   7.666  0.0499  1.2155  1.2741
15128SOL     OW47122   8.548   0.422   2.799 -0.3499  0.5308  0.1205
15128SOL    HW147123   8.553   0.404   2.893  0.8247 -0.7286 -0.1524
15128SOL    HW247124   8.469   0.377   2.770 -0.1588  0.0298  0.3510
15129SOL     OW47125   7.634   5.513   1.970 -0.0068 -0.0927  0.2606
15129SOL    HW147126   7.589   5.587   2.010 -0.4716 -0.1058 -0.2209
15129SOL    HW247127   7.567   5.444   1.967  0.1785 -0.2588 -0.0492
15130SOL     OW47128   7.705   4.959   2.864  0.8864  0.5017 -0.1306
15130SOL    HW147129   7.729   4.868   2.883  0.4946 -0.0158 -1.9358
15130SOL    HW247130   7.767   4.986   2.796 -0.3244  0.8672 -1.1185
15131SOL     OW47131   9.244   2.161   2.910 -0.5152 -0.1815 -0.1403
15131SOL    HW147132   9.308   2.231   2.919 -1.7915  1.1217 -0.8265
15131SOL    HW247133   9.207   2.151   2.998  0.7671 -1.1402  0.3289
15132SOL     OW47134   4.827   5.558   6.334  0.6039  0.3610  0.0867
15132SOL    HW147135   4.804   5.496   6.264  1.1812 -0.0758  0.2804
15132SOL    HW247136   4.782   5.525   6.411  0.9438  0.1576  0.1996
15133SOL     OW47137   1.419   8.344   0.173  0.1553 -0.4124 -0.0124
15133SOL    HW147138   1.398   8.337   0.079  0.3797  0.6235 -0.1627
15133SOL    HW247139   1.379   8.428   0.199  1.4882  0.1123  0.4208
15134SOL     OW47140   0.717   7.764   0.773 -0.2151 -0.5994 -0.4954
15134SOL    HW147141   0.651   7.734   0.710  0.8997 -0.0510 -1.9961
15134SOL    HW247142   0.769   7.687   0.792  0.4367 -0.4434 -1.5470
15135SOL     OW47143   2.149   3.025   4.791 -0.3642 -0.3008  0.4535
15135SOL    HW147144   2.213   3.042   4.860  0.3764  0.1367 -0.3203
15135SOL    HW247145   2.178   3.079   4.717 -0.3526 -1.7636 -0.6612
15136SOL     OW47146   3.126   6.254   5.010 -0.1705  0.2461  0.2030
15136SOL    HW147147   3.215   6.267   4.977 -0.6618 -3.1223 -3.0932
15136SOL    HW247148   3.139   6.227   5.102  2.2439 -0.1458 -0.1707
15137SOL     OW47149   5.736   2.449   7.142  0.5595 -0.3328  0.0066
15137SOL    HW147150   5.653   2.480   7.177  0.4473 -1.4701  0.7948
15137SOL    HW247151   5.787   2.529   7.126 -0.3996  0.3316  0.2218
15138SOL     OW47152   2.979   7.768   9.391  0.1523 -0.4105  0.4173
15138SOL    HW147153   3.061   7.722   9.374 -0.2365 -0.2095 -2.6280
15138SOL    HW247154   2.933   7.766   9.307 -2.4406  0.5349  1.7136
15139SOL     OW47155   6.695   1.389   8.002 -0.4421 -1.0894 -0.1571
15139SOL    HW147156   6.603   1.402   8.025 -0.2912 -0.3501  0.0343
15139SOL    HW247157   6.712   1.454   7.934  0.3563 -0.1348  0.9116
15140SOL     OW47158   1.806   5.003   8.776  0.2783  0.0134  0.4699
15140SOL    HW147159   1.824   5.082   8.726  1.9492  0.2245  1.3312
15140SOL    HW247160   1.819   5.029   8.868 -3.0944 -0.2423  1.1393
15141SOL     OW47161   7.976   7.125   5.498 -0.2958  0.2488 -0.4605
15141SOL    HW147162   7.986   7.046   5.446 -1.4736 -0.2123 -0.0115
15141SOL    HW247163   8.059   7.134   5.545 -0.4020 -1.1186  0.0293
15142SOL     OW47164   7.020   1.187   5.259 -0.1043  0.1521  0.3025
15142SOL    HW147165   7.101   1.138   5.277  0.1714  0.4626 -0.0740
15142SOL    HW247166   7.001   1.232   5.341  1.0700  1.4575 -0.1023
15143SOL     OW47167   9.382   9.298   4.842 -0.1560 -0.2847  0.2396
15143SOL    HW147168   9.439   9.353   4.896 -0.0502  0.6135 -0.7391
15143SOL    HW247169   9.386   9.212   4.883 -0.2549  0.4079  1.7645
15144SOL     OW47170   3.031   3.739   7.933 -0.6115  0.6131  0.0620
15144SOL    HW147171   3.098   3.774   7.991 -1.1453 -0.0567  1.1200
15144SOL    HW247172   3.019   3.806   7.866  0.2110  1.2856  0.5803
15145SOL     OW47173   9.248   7.510   9.430  0.6536  0.6482 -0.2309
15145SOL    HW147174   9.280   7.466   9.509  0.5811  3.0988  1.2566
15145SOL    HW247175   9.179   7.568   9.461 -0.3540  0.6599 -2.3378
15146SOL     OW47176   5.465   1.886   2.417 -0.6795  0.3816  0.1967
15146SOL    HW147177   5.542   1.830   2.412 -1.0178 -0.1835  0.9778
15146SOL    HW247178   5.491   1.967   2.374 -1.0447 -1.2940 -3.5864
15147SOL     OW47179   5.272   6.795   4.782  0.2253 -0.2328  0.7047
15147SOL    HW147180   5.340   6.733   4.758  0.3713  0.1561  0.0909
15147SOL    HW247181   5.320   6.874   4.809  0.0452  0.5082 -0.9721
15148SOL     OW47182   0.262   7.017   0.238  0.5676 -0.2298  0.0098
15148SOL    HW147183   0.198   6.965   0.189  1.4891 -0.5473 -0.9019
15148SOL    HW247184   0.292   6.958   0.307  1.1337 -0.7066 -0.6250
15149SOL     OW47185   6.880   3.666   6.430 -0.5607 -0.1856  0.3654
15149SOL    HW147186   6.833   3.586   6.454 -0.2356 -0.9438 -1.3712
15149SOL    HW247187   6.826   3.708   6.364  0.7785 -0.7049 -1.1412
15150SOL     OW47188   3.278   3.681   3.832  0.0105  0.1285 -0.1328
15150SOL    HW147189   3.335   3.614   3.870  0.3931 -0.1301 -1.1481
15150SOL    HW247190   3.201   3.683   3.889  0.5191 -0.3324  0.5832
15151SOL     OW47191   5.187   7.938   3.952 -0.5364  0.2452  0.5158
15151SOL    HW147192   5.190   7.937   3.856 -1.7992  0.0820  0.4553
15151SOL    HW247193   5.248   8.007   3.977  0.8001 -0.5852 -0.3378
15152SOL     OW47194   1.557   6.714   9.307  0.2789 -0.4409  0.2985
15152SOL    HW147195   1.566   6.624   9.339  2.5320 -0.3848  0.0061
15152SOL    HW247196   1.584   6.710   9.215 -1.0374  0.2976 -0.1384
15153SOL     OW47197   7.316   6.862   7.409  0.2048 -0.2582 -0.0053
15153SOL    HW147198   7.367   6.868   7.328  0.2064 -2.3029 -0.2129
15153SOL    HW247199   7.238   6.812   7.384 -2.0019  2.7368  0.3101
15154SOL     OW47200   6.160   3.018   9.515  0.0402 -0.1418  0.1523
15154SOL    HW147201   6.198   2.931   9.529  0.4920 -0.1035 -0.7562
15154SOL    HW247202   6.073   3.013   9.553 -0.0932 -1.1289 -0.2717
15155SOL     OW47203   1.197   5.733   9.545  0.4104 -0.3321  0.3889
15155SOL    HW147204   1.161   5.819   9.520  1.2808 -0.3270 -0.9577
15155SOL    HW247205   1.198   5.735   9.641  0.8715  1.3677  0.3928
15156SOL     OW47206   1.550   5.385   7.077 -0.0099  0.1595  0.0871
15156SOL    HW147207   1.482   5.317   7.079  0.4547 -0.3317 -0.6496
15156SOL    HW247208   1.563   5.408   7.169 -3.2191  2.3310  0.1566
15157SOL     OW47209   4.372   7.589   1.826  0.2533  0.0355  0.4972
15157SOL    HW147210   4.406   7.503   1.802  1.4146 -0.0738  2.3262
15157SOL    HW247211   4.423   7.651   1.774 -0.4918 -0.3376 -0.7212
15158SOL     OW47212   0.269   2.457   5.233  0.2175 -0.5236  0.0365
15158SOL    HW147213   0.281   2.451   5.138  0.5045 -1.8413  0.1388
15158SOL    HW247214   0.182   2.420   5.249 -0.3107  0.7295  0.1987
15159SOL     OW47215   1.685   4.072   3.185  0.5445 -0.4208 -0.2730
15159SOL    HW147216   1.613   4.021   3.223 -0.8167  1.4425 -0.2011
15159SOL    HW247217   1.704   4.139   3.250  1.2734  0.0714 -0.9751
15160SOL     OW47218   7.821   3.608   1.598  0.3216  0.4696  0.7164
15160SOL    HW147219   7.837   3.514   1.608 -0.3862  0.0962 -1.2441
15160SOL    HW247220   7.793   3.637   1.685  0.2469 -1.2043  1.2845
15161SOL     OW47221   1.138   7.062   8.013  0.5807 -0.4844 -0.0679
15161SOL    HW147222   1.137   7.033   8.104 -2.4760 -1.7190 -0.3573
15161SOL    HW247223   1.047   7.054   7.985  0.5097  4.1934 -1.9688
15162SOL     OW47224   9.444   5.406   4.731  0.0264  0.2681 -0.0274
15162SOL    HW147225   9.507   5.341   4.762 -0.3241  0.6926  1.6453
15162SOL    HW247226   9.365   5.356   4.712 -0.1612  0.1664  1.0042
15163SOL     OW47227   8.539   3.538   1.039  0.0888 -0.3350  0.1051
15163SOL    HW147228   8.623   3.545   1.083  0.2448 -0.0179 -0.2405
15163SOL    HW247229   8.478   3.584   1.096  0.2662 -0.0347  0.0546
15164SOL     OW47230   1.694   5.536   6.525  0.2673 -0.0154 -0.6774
15164SOL    HW147231   1.695   5.619   6.573 -0.6943 -1.2796  1.6707
15164SOL    HW247232   1.768   5.487   6.561 -0.9408 -1.2932  0.1340
15165SOL     OW47233   1.401   3.516   9.187  0.0950  0.1166 -0.1480
15165SOL    HW147234   1.468   3.452   9.163  1.9051  2.5909 -2.1944
15165SOL    HW247235   1.448   3.590   9.224 -1.7503  1.0066  0.5833
15166SOL     OW47236   6.098   7.896   7.236  0.3577 -0.5488 -0.0224
15166SOL    HW147237   6.118   7.982   7.201  0.9558 -1.2741 -1.5879
15166SOL    HW247238   6.041   7.912   7.311 -1.2140  1.1210 -1.4930
15167SOL     OW47239   5.127   0.346   1.217 -0.0772  0.1930 -0.1945
15167SOL    HW147240   5.033   0.361   1.226  0.0729  2.2232 -1.4901
15167SOL    HW247241   5.159   0.418   1.162  2.5192  0.5218  1.5386
15168SOL     OW47242   4.640   4.101   0.728  0.0948 -0.0406 -0.4796
15168SOL    HW147243   4.728   4.071   0.703  0.3520 -0.4089  0.8070
15168SOL    HW247244   4.656   4.165   0.798 -0.6908 -0.6288  0.2515
15169SOL     OW47245   2.676   3.031   5.591 -0.0734 -0.6394  0.2633
15169SOL    HW147246   2.703   2.952   5.544  1.7602  0.3965 -0.5495
15169SOL    HW247247   2.605   3.068   5.539 -0.7162 -1.5524  0.4699
15170SOL     OW47248   1.789   0.965   4.530  0.4477  0.4957  0.2806
15170SOL    HW147249   1.825   0.905   4.465  0.8988  0.0165  0.9582
15170SOL    HW247250   1.696   0.941   4.535  0.7007 -0.4269  0.8311
15171SOL     OW47251   4.250   9.273   9.417  0.0941 -0.4316 -0.0817
15171SOL    HW147252   4.276   9.300   9.505  0.1333  1.4054 -0.6152
15171SOL    HW247253   4.243   9.355   9.368 -1.1673 -1.3108 -1.4598
15172SOL     OW47254   7.518   6.566   7.040  0.0060 -0.2928  0.0529
15172SOL    HW147255   7.470   6.485   7.026 -1.3504  0.4085  0.4657
15172SOL    HW247256   7.452   6.629   7.069  1.1409  0.7810  0.4241
15173SOL     OW47257   4.278   6.043   6.012 -0.0032  0.7817 -0.7816
15173SOL    HW147258   4.247   5.978   6.075  1.5710 -0.0826 -0.8402
15173SOL    HW247259   4.217   6.036   5.938 -0.2074 -0.2040 -0.5329
15174SOL     OW47260   8.123   1.498   5.334  0.0361  0.5662 -0.3047
15174SOL    HW147261   8.183   1.523   5.405  0.3007 -0.1674 -0.2576
15174SOL    HW247262   8.049   1.558   5.342 -1.4453 -1.4208  2.5916
15175SOL     OW47263   0.487   7.033   5.744 -0.6450 -0.5518  0.3011
15175SOL    HW147264   0.402   7.074   5.760 -0.4083  0.4404 -0.8423
15175SOL    HW247265   0.514   6.999   5.829 -2.2388 -0.9963  0.6513
15176SOL     OW47266   9.022   2.493   0.074 -0.3227 -0.2115 -0.4482
15176SOL    HW147267   9.079   2.524   0.144 -0.6784 -1.2276  0.3100
15176SOL    HW247268   9.079   2.441   0.018 -0.1539  0.1571 -0.6230
15177SOL     OW47269   3.437   7.004   1.782 -0.0549  0.0185  0.1084
15177SOL    HW147270   3.431   6.925   1.729 -0.6043  0.3647 -0.3510
15177SOL    HW247271   3.492   6.979   1.856 -0.2190 -0.7925 -0.0374
15178SOL     OW47272   9.318   8.032   4.759 -0.0328 -0.2871  0.2616
15178SOL    HW147273   9.314   8.009   4.852 -0.8286 -0.4905  0.1813
15178SOL    HW247274   9.263   7.967   4.715  1.4491 -1.0609 -0.5369
15179SOL     OW47275   0.659   8.800   0.699  0.3481  0.3221 -0.1707
15179SOL    HW147276   0.652   8.847   0.616 -0.3407 -1.1535 -1.0027
15179SOL    HW247277   0.691   8.713   0.674 -2.5880 -1.1388  0.6793
15180SOL     OW47278   6.602   5.374   3.282 -0.4642  0.5749 -1.0637
15180SOL    HW147279   6.614   5.321   3.204  0.1128  1.1793 -1.3995
15180SOL    HW247280   6.597   5.311   3.354 -0.5919  0.0370 -1.5442
15181SOL     OW47281   0.595   3.027   0.935  0.2076  0.1887  0.1291
15181SOL    HW147282   0.526   3.008   0.999  1.6385  0.4347  1.8173
15181SOL    HW247283   0.615   2.941   0.896 -1.1841  0.1538 -0.5749
15182SOL     OW47284   4.172   6.973   2.874  0.0387 -0.2202 -0.0940
15182SOL    HW147285   4.147   7.025   2.951 -1.6988 -1.3447  0.1730
15182SOL    HW247286   4.131   7.018   2.800 -1.2520 -1.0197  0.1058
15183SOL     OW47287   9.564   7.450   6.675 -0.4163  0.7355 -0.3378
15183SOL    HW147288   9.586   7.504   6.599 -1.1974 -0.0491 -1.1393
15183SOL    HW247289   9.583   7.360   6.647 -0.8070  0.4325  0.3506
15184SOL     OW47290   5.344   7.639   6.509  0.1441  0.4273 -0.2951
15184SOL    HW147291   5.433   7.603   6.503  0.3529  0.9965 -0.7241
15184SOL    HW247292   5.313   7.613   6.596  0.4531 -0.4009 -0.4289
15185SOL     OW47293   3.616   1.079   4.317 -0.5136  0.2436 -0.4278
15185SOL    HW147294   3.563   1.017   4.368 -1.4219 -0.2646 -1.9052
15185SOL    HW247295   3.599   1.054   4.226  0.8693  1.2613 -0.9876
15186SOL     OW47296   5.317   6.277   4.606  0.3188  0.1639  0.6224
15186SOL    HW147297   5.341   6.368   4.586  1.5248  0.2268  2.1364
15186SOL    HW247298   5.378   6.225   4.553 -0.2048  0.2226 -0.0527
15187SOL     OW47299   3.216   9.589   5.635 -0.1732 -0.6223  0.2842
15187SOL    HW147300   3.195   9.681   5.652  1.0278 -0.1327 -0.7075
15187SOL    HW247301   3.260   9.590   5.550  0.2948 -2.0514  0.4891
15188SOL     OW47302   6.197   3.487   7.744  0.0335  0.1863  0.6804
15188SOL    HW147303   6.235   3.500   7.831 -1.9511  0.3770  1.5665
15188SOL    HW247304   6.150   3.404   7.750 -1.2544  0.8536  0.2470
15189SOL     OW47305   7.547   6.232   4.157  0.0468 -0.5422  0.5995
15189SOL    HW147306   7.548   6.228   4.062 -1.8018  2.1291  0.3516
15189SOL    HW247307   7.587   6.150   4.185  2.9240 -0.3609 -2.4248
15190SOL     OW47308   8.324   2.014   5.539 -0.5147 -0.3373 -0.2918
15190SOL    HW147309   8.232   2.041   5.531 -0.6376 -0.7703 -0.3699
15190SOL    HW247310   8.321   1.918   5.533  0.1198 -0.2852 -2.3283
15191SOL     OW47311   4.627   3.307   0.892 -0.5008  0.2195  0.5607
15191SOL    HW147312   4.550   3.296   0.836 -0.3577 -0.3191  0.4647
15191SOL    HW247313   4.642   3.401   0.894 -0.2826  0.2210 -0.6196
15192SOL     OW47314   3.459   2.339   5.256  0.2320 -0.0397 -0.0739
15192SOL    HW147315   3.428   2.391   5.182 -0.4408 -1.8978 -1.1858
15192SOL    HW247316   3.554   2.350   5.255  0.3308 -0.6318 -1.7739
15193SOL     OW47317   4.185   3.336   1.853 -0.3944  0.8615  0.1233
15193SOL    HW147318   4.152   3.383   1.777 -0.8867  3.6146  1.8723
15193SOL    HW247319   4.276   3.364   1.861  0.0707 -0.5179 -0.2367
15194SOL     OW47320   0.380   4.827   3.589 -0.5947 -0.6293 -0.1048
15194SOL    HW147321   0.366   4.737   3.619  0.9445 -0.8820 -0.0309
15194SOL    HW247322   0.444   4.863   3.651 -0.8437  0.3653 -0.4057
15195SOL     OW47323   8.389   3.633   2.533 -0.2733  0.2370 -0.9141
15195SOL    HW147324   8.413   3.680   2.454 -1.0266 -0.0946 -1.3545
15195SOL    HW247325   8.417   3.542   2.518 -3.7905 -0.7442 -2.4752
15196SOL     OW47326   8.877   6.161   6.628  0.3036 -0.0890 -0.7378
15196SOL    HW147327   8.801   6.219   6.618 -0.3292 -1.0192 -1.6380
15196SOL    HW247328   8.946   6.204   6.579 -0.3116 -0.3115 -1.8466
15197SOL     OW47329   7.427   1.000   2.125  0.2095  0.1686  0.8346
15197SOL    HW147330   7.448   0.960   2.040 -0.3394  1.5474  0.0235
15197SOL    HW247331   7.357   0.944   2.160  0.6616 -0.6018  0.5435
15198SOL     OW47332   9.285   6.191   0.942 -0.2991  0.2660 -0.4779
15198SOL    HW147333   9.247   6.275   0.916 -1.4611 -0.3086 -0.6904
15198SOL    HW247334   9.378   6.209   0.953 -0.7415  1.9830  1.0572
15199SOL     OW47335   6.201   1.233   0.222  0.0982  0.0506  0.1858
15199SOL    HW147336   6.274   1.208   0.166  0.1013 -0.8085  0.5495
15199SOL    HW247337   6.241   1.254   0.306 -0.0179  0.1072  0.2270
15200SOL     OW47338   6.343   2.447   2.019 -0.4024 -0.0484  1.1176
15200SOL    HW147339   6.277   2.384   2.050 -0.6231  0.6944  2.1964
15200SOL    HW247340   6.422   2.425   2.068 -0.7041  1.0153  2.1367
15201SOL     OW47341   5.393   1.885   7.571  0.1759  0.4397 -0.1207
15201SOL    HW147342   5.322   1.933   7.529  0.8493  0.5653 -1.1606
15201SOL    HW247343   5.401   1.925   7.657 -2.9130 -1.4794  1.2106
15202SOL     OW47344   2.547   7.538   9.440 -0.0533 -0.3577 -0.2104
15202SOL    HW147345   2.587   7.617   9.403 -1.7305 -0.0044 -1.3809
15202SOL    HW247346   2.498   7.570   9.516  1.9878 -0.8262  1.3695
15203SOL     OW47347   3.709   3.590   0.393  0.2837  0.2677 -0.0471
15203SOL    HW147348   3.800   3.599   0.363  0.0088  1.4315 -0.5678
15203SOL    HW247349   3.672   3.524   0.334  0.9598 -0.7316  0.6087
15204SOL     OW47350   4.796   6.370   5.923  0.1359 -0.2030 -0.6438
15204SOL    HW147351   4.807   6.276   5.912 -1.2300 -0.4975  0.2579
15204SOL    HW247352   4.702   6.382   5.939  0.1626  1.3925 -1.4704
15205SOL     OW47353   6.877   0.240   9.429  0.3260 -0.4593  0.0491
15205SOL    HW147354   6.810   0.216   9.364 -0.2886  0.7299  0.2190
15205SOL    HW247355   6.949   0.274   9.377 -0.6380  1.6251  0.0014
15206SOL     OW47356   3.885   8.861   6.086 -0.6278  0.2942  0.3157
15206SOL    HW147357   3.969   8.871   6.131  0.8093 -0.9186 -1.9168
15206SOL    HW247358   3.863   8.948   6.054 -0.7483  0.8023  1.7206
15207SOL     OW47359   2.398   4.592   6.342 -0.0638  0.3818  0.1822
15207SOL    HW147360   2.355   4.575   6.258  1.6688  0.3464 -0.7350
15207SOL    HW247361   2.335   4.647   6.390 -0.4710  1.6991 -1.7334
15208SOL     OW47362   5.968   1.214   1.015 -0.3661 -0.1979 -0.0072
15208SOL    HW147363   6.032   1.251   0.956 -0.0069 -0.4476  0.2230
15208SOL    HW247364   6.018   1.186   1.091 -0.6444 -1.0108 -0.1107
15209SOL     OW47365   6.707   2.311   9.187  0.3665 -0.2885  0.3430
15209SOL    HW147366   6.648   2.350   9.123  1.2691 -0.2645 -0.4980
15209SOL    HW247367   6.689   2.359   9.268  0.0346  0.4804 -0.1757
15210SOL     OW47368   1.153   7.249   2.584  0.2401  0.3312 -0.3210
15210SOL    HW147369   1.173   7.268   2.676  1.2446 -0.2833 -0.4022
15210SOL    HW247370   1.189   7.324   2.536  0.5214  0.2170 -0.2891
15211SOL     OW47371   4.232   6.283   8.120 -0.3877 -0.0300  0.0124
15211SOL    HW147372   4.249   6.337   8.043 -0.6978  1.0588  0.6905
15211SOL    HW247373   4.312   6.233   8.133 -0.7589 -1.1831 -1.7497
15212SOL     OW47374   0.734   3.849   4.603 -0.3077  0.1840  0.3071
15212SOL    HW147375   0.678   3.780   4.566  0.6258 -0.4481  0.0378
15212SOL    HW247376   0.712   3.851   4.696  3.4577 -4.4530  1.6894
15213SOL     OW47377   6.740   3.329   4.494 -0.0743  0.5464  0.3264
15213SOL    HW147378   6.728   3.363   4.583  1.4256  2.0583  0.0062
15213SOL    HW247379   6.817   3.375   4.461  0.9506 -1.8296 -0.8742
15214SOL     OW47380   0.139   0.177   1.088 -0.0107  0.2131 -0.2808
15214SOL    HW147381   0.137   0.272   1.085  0.0849  0.2698  0.9352
15214SOL    HW247382   0.048   0.152   1.107  0.0460  0.0918 -0.1616
15215SOL     OW47383   2.159   6.081   4.867  0.8902  0.1591  0.8967
15215SOL    HW147384   2.146   6.159   4.812  1.4344 -0.8408 -0.7029
15215SOL    HW247385   2.077   6.033   4.860  1.1489 -0.2304  0.5334
15216SOL     OW47386   7.605   1.572   0.789 -0.5189 -0.1805  0.0955
15216SOL    HW147387   7.599   1.537   0.878  0.7283  1.1687  0.7529
15216SOL    HW247388   7.686   1.534   0.754 -1.0322 -0.7488 -0.5049
15217SOL     OW47389   8.416   1.618   4.164  0.2225 -0.1842  0.6330
15217SOL    HW147390   8.484   1.611   4.096  0.6930  0.4923  1.0180
15217SOL    HW247391   8.404   1.528   4.195 -2.6661 -1.2281 -2.8300
15218SOL     OW47392   9.057   9.252   4.053  0.5401  0.2694  0.1260
15218SOL    HW147393   9.026   9.310   3.983  1.0243 -0.5538 -0.7869
15218SOL    HW247394   9.138   9.215   4.019  0.1848 -1.0197  0.6580
15219SOL     OW47395   1.377   0.458   8.949 -0.0954 -0.0468 -0.2371
15219SOL    HW147396   1.463   0.451   8.989 -0.7663  0.1458  1.3334
15219SOL    HW247397   1.371   0.549   8.920 -0.0065  0.1192  0.2533
15220SOL     OW47398   3.348   6.961   8.182 -0.6365  0.2564 -0.4633
15220SOL    HW147399   3.424   6.912   8.151 -1.6480 -1.2960 -0.5821
15220SOL    HW247400   3.302   6.988   8.102 -1.7398 -1.3332 -0.4098
15221SOL     OW47401   0.210   2.765   3.832 -0.8946 -0.5891 -0.0653
15221SOL    HW147402   0.228   2.698   3.897 -0.0707 -0.9748 -0.6685
15221SOL    HW247403   0.178   2.717   3.756  0.9943 -0.4964 -0.9986
15222SOL     OW47404   2.932   0.562   5.233  0.1146 -0.3212 -0.2504
15222SOL    HW147405   2.839   0.540   5.227 -0.4824  1.5614  1.1055
15222SOL    HW247406   2.967   0.542   5.146 -1.3023 -2.0270 -0.4829
15223SOL     OW47407   6.891   5.451   7.801 -0.6136 -0.2817  0.2196
15223SOL    HW147408   6.951   5.490   7.863 -1.4736  1.7478 -0.1427
15223SOL    HW247409   6.805   5.460   7.842 -0.9185 -1.1892 -0.1935
15224SOL     OW47410   6.467   6.138   0.759 -0.1181 -0.1988 -0.4646
15224SOL    HW147411   6.483   6.089   0.678  0.0318 -0.7043 -0.1353
15224SOL    HW247412   6.393   6.195   0.738  1.1682  1.1280 -1.5755
15225SOL     OW47413   2.481   1.797   4.083 -0.0018  0.2964 -0.4146
15225SOL    HW147414   2.502   1.880   4.041  0.7838 -0.1908 -1.0139
15225SOL    HW247415   2.551   1.738   4.055  0.0883 -0.2668  0.9117
15226SOL     OW47416   8.109   5.000   0.682 -0.2037  0.0099 -0.5198
15226SOL    HW147417   8.188   5.044   0.714 -0.1210 -0.6824  0.2613
15226SOL    HW247418   8.036   5.052   0.717 -0.1049 -0.3846  0.2927
15227SOL     OW47419   1.340   9.160   8.483 -0.1981 -0.7934  0.1406
15227SOL    HW147420   1.413   9.218   8.504 -1.2049  0.3349  0.6002
15227SOL    HW247421   1.382   9.084   8.442  1.4547 -1.1432  2.2497
15228SOL     OW47422   2.865   1.715   5.738 -0.6411  0.1878 -0.1067
15228SOL    HW147423   2.948   1.747   5.704 -0.3499 -0.0721  0.3513
15228SOL    HW247424   2.806   1.790   5.732  0.2139  1.0292  1.6031
15229SOL     OW47425   2.530   9.523   6.929 -0.0975  0.2711 -0.6532
15229SOL    HW147426   2.533   9.597   6.990  0.1598 -1.2337  1.2514
15229SOL    HW247427   2.437   9.512   6.909 -0.2951  0.2188  0.2338
15230SOL     OW47428   6.800   4.570   0.496 -0.3894  0.6736 -0.2900
15230SOL    HW147429   6.732   4.502   0.496  0.4403 -0.1869  0.7112
15230SOL    HW247430   6.849   4.554   0.416  1.3561 -1.5845  1.1032
15231SOL     OW47431   2.009   1.188   1.133 -0.2079 -0.5148  0.2288
15231SOL    HW147432   1.985   1.118   1.194 -1.6281 -1.7523 -1.6246
15231SOL    HW247433   2.061   1.144   1.065  1.7042  0.9044  0.6719
15232SOL     OW47434   2.036   6.443   2.757  0.1027  0.0893 -0.5455
15232SOL    HW147435   2.041   6.526   2.710  1.3991  0.1945 -0.2474
15232SOL    HW247436   1.946   6.441   2.791  0.4535  2.0533  0.6509
15233SOL     OW47437   6.760   6.134   9.520  0.1297 -0.4864  0.2257
15233SOL    HW147438   6.675   6.122   9.479  1.3502 -0.0836 -2.7152
15233SOL    HW247439   6.783   6.225   9.501  0.7321 -0.2058  2.0605
15234SOL     OW47440   2.353   3.236   0.752  0.3545 -0.1247 -0.1516
15234SOL    HW147441   2.272   3.187   0.768  0.1472  0.0047 -0.7709
15234SOL    HW247442   2.379   3.269   0.838  1.1836 -2.3631  0.5484
15235SOL     OW47443   8.208   5.155   3.009  0.2203 -0.4142 -0.9696
15235SOL    HW147444   8.117   5.168   2.985 -0.4433 -1.2484  0.9020
15235SOL    HW247445   8.205   5.111   3.094  2.3724  1.6927  0.3170
15236SOL     OW47446   1.092   0.322   5.706 -0.3100 -0.1441 -0.1419
15236SOL    HW147447   1.167   0.341   5.762  0.1432  1.1637 -1.1318
15236SOL    HW247448   1.042   0.256   5.754 -0.6591  1.8274  2.4740
15237SOL     OW47449   6.560   6.881   1.050 -0.2416 -0.2113 -0.2359
15237SOL    HW147450   6.575   6.914   0.961 -1.1800 -0.1518 -0.3852
15237SOL    HW247451   6.517   6.953   1.095 -0.6287 -0.5776 -0.0164
15238SOL     OW47452   2.528   4.391   7.201  0.0731  0.2804 -0.0089
15238SOL    HW147453   2.444   4.349   7.218 -0.3390  0.8230 -0.6707
15238SOL    HW247454   2.566   4.403   7.288 -0.4398 -0.1438  0.2850
15239SOL     OW47455   3.146   7.058   0.970  0.2140 -0.4213 -0.2182
15239SOL    HW147456   3.117   7.083   1.058 -2.5807 -0.2269 -1.1092
15239SOL    HW247457   3.157   6.963   0.975 -2.0375 -0.7326 -0.1277
15240SOL     OW47458   3.437   0.149   3.718 -0.1897 -0.0896 -0.5649
15240SOL    HW147459   3.499   0.149   3.791 -0.2901 -0.4696 -0.4755
15240SOL    HW247460   3.483   0.194   3.647  0.1435 -0.2535 -0.4571
15241SOL     OW47461   2.320   5.004   6.922  0.1428 -0.2186  0.1130
15241SOL    HW147462   2.351   4.952   6.848 -1.0505  0.4554 -0.9055
15241SOL    HW247463   2.238   4.962   6.949  1.0948 -1.0892  1.7749
15242SOL     OW47464   7.863   0.154   1.583  0.2394  0.4322  0.0455
15242SOL    HW147465   7.913   0.073   1.573 -1.3001 -0.6263  0.6175
15242SOL    HW247466   7.821   0.167   1.498 -0.3463  0.0491  0.2737
15243SOL     OW47467   7.555   4.535   2.711  0.3832  0.1751 -0.5405
15243SOL    HW147468   7.530   4.508   2.622  0.0714 -2.6509  0.3044
15243SOL    HW247469   7.541   4.457   2.764  2.1490  1.2867  1.7242
15244SOL     OW47470   5.824   1.161   3.743 -0.4025 -0.1792 -0.2232
15244SOL    HW147471   5.905   1.202   3.773 -0.4739 -0.6766  0.7237
15244SOL    HW247472   5.754   1.208   3.789 -0.5464 -0.6813  0.0882
15245SOL     OW47473   8.914   0.425   4.946 -0.1264 -0.4336 -0.2001
15245SOL    HW147474   8.842   0.391   4.999  0.4878 -0.0320  0.9414
15245SOL    HW247475   8.875   0.443   4.861 -1.9830  1.9521  1.0176
15246SOL     OW47476   2.607   1.338   0.628 -0.1491  0.0882 -0.2950
15246SOL    HW147477   2.546   1.305   0.563 -0.4846  2.1104 -1.0978
15246SOL    HW247478   2.552   1.382   0.694  0.3486  1.7249 -0.9031
15247SOL     OW47479   8.691   6.333   8.561 -0.2363 -0.2582  0.3288
15247SOL    HW147480   8.696   6.239   8.543  2.4996 -0.1159 -0.0360
15247SOL    HW247481   8.736   6.374   8.487  1.3954  1.0950  1.9751
15248SOL     OW47482   3.742   6.121   6.679 -0.0386  0.1836  0.2414
15248SOL    HW147483   3.801   6.179   6.632  0.9249 -1.6091 -0.8800
15248SOL    HW247484   3.709   6.061   6.613  0.1495 -1.4430  1.5442
15249SOL     OW47485   5.708   2.497   8.432  0.0584  0.6025  0.8853
15249SOL    HW147486   5.763   2.437   8.482  0.0710  0.0996  0.2789
15249SOL    HW247487   5.619   2.477   8.462  0.0119 -0.0867  0.3253
15250SOL     OW47488   8.462   2.722   7.700 -0.4746 -0.4032  0.9531
15250SOL    HW147489   8.428   2.633   7.707  0.1932 -0.7291  0.1862
15250SOL    HW247490   8.543   2.721   7.750  0.5273 -0.7753 -0.5802
15251SOL     OW47491   5.568   9.094   0.779 -0.2559  0.3904  0.2329
15251SOL    HW147492   5.576   9.028   0.848 -0.3057 -0.6334 -0.7167
15251SOL    HW247493   5.659   9.111   0.752 -0.3202 -0.3914 -0.5204
15252SOL     OW47494   2.554   4.969   2.332 -0.1945  0.3011  0.0670
15252SOL    HW147495   2.638   4.975   2.377  0.5208 -0.0735 -1.1673
15252SOL    HW247496   2.577   4.953   2.240 -1.5690  2.1285 -0.6569
15253SOL     OW47497   0.759   3.974   0.486 -0.0505  0.1121  0.1557
15253SOL    HW147498   0.747   3.958   0.579 -1.9036  1.7520  0.2705
15253SOL    HW247499   0.829   3.913   0.460  0.4755 -0.4378  2.5610
15254SOL     OW47500   8.063   0.797   3.388 -0.0891  0.2588 -0.4243
15254SOL    HW147501   8.112   0.796   3.470 -0.2718 -0.1274 -0.3188
15254SOL    HW247502   7.971   0.787   3.413 -0.0831 -0.7038 -0.7101
15255SOL     OW47503   5.477   4.911   4.077  0.1413 -0.4434  0.0478
15255SOL    HW147504   5.442   4.979   4.018  1.5391 -0.9053 -1.3885
15255SOL    HW247505   5.457   4.829   4.033 -0.1351 -0.8939  0.9989
15256SOL     OW47506   2.303   7.252   0.359  0.1109  0.0936 -0.0176
15256SOL    HW147507   2.341   7.294   0.281 -1.0479  0.5586 -0.3479
15256SOL    HW247508   2.251   7.180   0.325  1.6130 -1.3120  0.5178
15257SOL     OW47509   4.803   1.104   2.698 -0.6842 -0.3434  0.5272
15257SOL    HW147510   4.887   1.092   2.652 -1.0372  1.4988 -0.7143
15257SOL    HW247511   4.767   1.016   2.705  0.8978 -1.0604  0.2146
15258SOL     OW47512   2.857   1.981   4.172 -0.5946 -0.1288  0.0288
15258SOL    HW147513   2.930   1.922   4.154 -0.2496  0.4690 -0.5574
15258SOL    HW247514   2.850   1.981   4.268  0.1797 -0.1787  0.0945
15259SOL     OW47515   1.071   2.718   5.882  0.9450 -0.3088 -0.4085
15259SOL    HW147516   1.053   2.781   5.951  0.2948 -0.4468 -0.4390
15259SOL    HW247517   1.040   2.634   5.918  0.5800 -0.3769 -0.8692
15260SOL     OW47518   0.532   3.498   7.761  0.6675  0.2308  0.3221
15260SOL    HW147519   0.590   3.574   7.759 -2.0080  2.4124 -0.8957
15260SOL    HW247520   0.514   3.484   7.854  1.2985  0.9850  0.5647
15261SOL     OW47521   5.064   8.337   2.602 -0.4973  0.3642  0.2704
15261SOL    HW147522   5.134   8.272   2.610 -0.5482  0.3395  0.5118
15261SOL    HW247523   5.043   8.361   2.692 -2.5873 -1.5338  0.3751
15262SOL     OW47524   1.301   3.229   8.842  0.0090 -0.7197  0.7583
15262SOL    HW147525   1.383   3.278   8.850  0.4175 -1.1613 -0.4333
15262SOL    HW247526   1.243   3.288   8.794  0.1520 -0.9851  0.2493
15263SOL     OW47527   2.867   1.641   1.949  0.1083 -0.5318  0.0399
15263SOL    HW147528   2.853   1.681   1.863  0.2010  2.0067  1.1030
15263SOL    HW247529   2.961   1.626   1.954  0.2816  0.5259  0.1578
15264SOL     OW47530   8.075   0.292   7.497 -0.0556 -0.1209 -0.3776
15264SOL    HW147531   8.003   0.255   7.446 -0.8814  1.9798 -0.8472
15264SOL    HW247532   8.106   0.366   7.445 -0.5561  1.7552  1.8247
15265SOL     OW47533   5.821   1.730   8.677  0.5216  0.0082 -0.1336
15265SOL    HW147534   5.819   1.678   8.758  0.2817  0.9146  0.4543
15265SOL    HW247535   5.730   1.750   8.659  0.6075  0.1563 -0.4078
15266SOL     OW47536   8.625   7.769   7.950 -0.6786 -0.5507 -0.2267
15266SOL    HW147537   8.547   7.734   7.994 -0.9507 -0.9940 -1.0348
15266SOL    HW247538   8.691   7.701   7.961 -0.4127 -0.1890  0.4299
15267SOL     OW47539   3.299   3.540   5.808  0.5854 -0.0920  0.1019
15267SOL    HW147540   3.222   3.560   5.754  1.8616 -0.5942 -2.0126
15267SOL    HW247541   3.265   3.484   5.878 -1.5558  2.4799  1.3370
15268SOL     OW47542   0.064   7.277   4.230  0.0950  0.0387  0.1956
15268SOL    HW147543   0.053   7.342   4.161 -1.4473 -1.7627 -1.3616
15268SOL    HW247544   0.015   7.312   4.304  0.3795  1.2177 -0.1439
15269SOL     OW47545   5.223   3.377   7.447  0.3311 -0.0361  1.1861
15269SOL    HW147546   5.234   3.446   7.381 -3.1347 -0.0866  0.3387
15269SOL    HW247547   5.258   3.415   7.527  2.6854  0.8817 -0.1879
15270SOL     OW47548   8.642   3.375   5.552 -0.2349  0.6252 -0.2944
15270SOL    HW147549   8.658   3.400   5.461  2.4592  1.4423  0.3262
15270SOL    HW247550   8.704   3.305   5.569  1.4115  2.4254  1.6708
15271SOL     OW47551   2.758   6.845   8.829  0.4034 -0.1735  0.0858
15271SOL    HW147552   2.732   6.801   8.748  0.2682  2.8812 -1.6514
15271SOL    HW247553   2.852   6.827   8.837  0.5095 -0.1346 -0.9857
15272SOL     OW47554   0.789   8.264   5.582  0.4917  0.1146  0.1546
15272SOL    HW147555   0.811   8.209   5.507 -2.2531  0.0837 -0.7177
15272SOL    HW247556   0.774   8.351   5.545 -0.6010  0.1683  0.6764
15273SOL     OW47557   9.388   9.505   6.736  0.1322 -0.3891  0.1479
15273SOL    HW147558   9.325   9.502   6.809  0.6326  0.2416  0.6148
15273SOL    HW247559   9.401   9.413   6.714 -0.3412 -0.5730  0.5828
15274SOL     OW47560   7.153   2.433   0.048  0.2985 -0.1670 -0.4347
15274SOL    HW147561   7.220   2.370   0.022 -0.7538 -1.4048 -0.2315
15274SOL    HW247562   7.089   2.432  -0.024 -1.6767 -2.2262  1.2167
15275SOL     OW47563   9.472   6.469   2.089  0.1222 -0.6534  0.3368
15275SOL    HW147564   9.380   6.450   2.104 -0.0869 -0.9286 -1.1700
15275SOL    HW247565   9.517   6.387   2.110  0.2805 -0.0236  2.8171
15276SOL     OW47566   1.586   6.744   5.972 -0.0865 -0.0572  0.0177
15276SOL    HW147567   1.618   6.667   5.925 -1.3000 -0.5107 -0.0785
15276SOL    HW247568   1.663   6.801   5.979  0.2367 -0.1539 -2.1518
15277SOL     OW47569   8.112   2.187   8.368 -0.0598  0.3224  0.2671
15277SOL    HW147570   8.149   2.170   8.455 -1.4616 -0.4155  0.7356
15277SOL    HW247571   8.137   2.110   8.317 -1.0391 -0.2476  0.6259
15278SOL     OW47572   4.154   4.528   9.131 -0.0321 -0.4424  0.1342
15278SOL    HW147573   4.203   4.596   9.178 -1.1380 -0.7052  1.7683
15278SOL    HW247574   4.100   4.576   9.069 -0.7145  0.2012  1.1885
15279SOL     OW47575   0.114   1.822   8.986  0.3224 -0.1653 -0.7181
15279SOL    HW147576   0.201   1.782   8.993  0.5021  0.0237 -1.7038
15279SOL    HW247577   0.111   1.886   9.057  1.3482  0.4902 -1.2477
15280SOL     OW47578   0.817   4.487   3.028  0.0661  0.6089 -0.1366
15280SOL    HW147579   0.734   4.532   3.012 -0.7718 -0.9286 -0.2612
15280SOL    HW247580   0.846   4.520   3.114 -1.5635 -0.1158  0.7224
15281SOL     OW47581   7.210   3.508   8.596  0.7769  0.4776 -0.0097
15281SOL    HW147582   7.271   3.468   8.534 -0.2362 -2.2414  0.6073
15281SOL    HW247583   7.126   3.510   8.549  0.3472 -0.1349  0.7210
15282SOL     OW47584   5.129   1.555   9.045 -0.1814  0.2956 -0.5521
15282SOL    HW147585   5.095   1.481   8.994  0.3634 -0.0135 -0.4769
15282SOL    HW247586   5.069   1.627   9.026 -1.1207 -0.3486 -0.0793
15283SOL     OW47587   4.848   4.396   2.455 -0.7764  0.5545  0.5519
15283SOL    HW147588   4.912   4.415   2.523  1.4388 -2.3928 -0.4690
15283SOL    HW247589   4.785   4.338   2.497 -0.0031 -0.4156  0.4100
15284SOL     OW47590   6.704   4.458   9.528  0.3581  0.0244  0.2486
15284SOL    HW147591   6.635   4.500   9.477  0.2608 -0.3222  0.0916
15284SOL    HW247592   6.683   4.365   9.526  1.2353 -0.1801 -0.4382
15285SOL     OW47593   6.500   2.649   6.853 -0.4765  0.1563  0.4267
15285SOL    HW147594   6.435   2.686   6.913  0.2893  0.3841  1.1294
15285SOL    HW247595   6.460   2.568   6.822 -0.6903 -0.2270  1.6359
15286SOL     OW47596   1.940   3.408   4.812 -0.1335 -0.0513 -0.4882
15286SOL    HW147597   1.958   3.323   4.851  1.4243  1.1690  1.6894
15286SOL    HW247598   1.915   3.464   4.886 -0.7723  1.4806 -1.7926
15287SOL     OW47599   2.755   9.300   5.896  0.1226  0.0884  0.1220
15287SOL    HW147600   2.838   9.294   5.944  0.1320  0.9875  0.2359
15287SOL    HW247601   2.757   9.387   5.856 -0.2221 -0.3560 -0.9008
15288SOL     OW47602   8.387   6.022   6.158  0.3849 -0.5503  0.2872
15288SOL    HW147603   8.305   5.984   6.190  0.2087 -0.1806  0.2802
15288SOL    HW247604   8.400   6.100   6.212  1.1572 -1.0482  0.8325
15289SOL     OW47605   4.155   2.146   8.059 -0.0549 -0.4119 -0.2439
15289SOL    HW147606   4.095   2.214   8.029  0.2884 -0.1771 -0.4021
15289SOL    HW247607   4.237   2.163   8.012  0.8240  0.5554  1.5072
15290SOL     OW47608   9.200   9.051   8.616  0.1071 -0.2829 -0.3656
15290SOL    HW147609   9.241   8.982   8.563 -0.7691 -1.5391  0.5383
15290SOL    HW247610   9.267   9.119   8.621  0.6177 -0.5789 -2.1666
15291SOL     OW47611   6.725   4.484   6.913  0.0609  0.3424  0.1333
15291SOL    HW147612   6.771   4.559   6.876  0.0163  0.1171 -0.3840
15291SOL    HW247613   6.728   4.417   6.845 -1.8360  0.6417 -0.2978
15292SOL     OW47614   3.817   4.314   0.729  0.1533 -0.6008 -0.0564
15292SOL    HW147615   3.739   4.260   0.720  0.5123 -1.2751  0.7667
15292SOL    HW247616   3.865   4.301   0.647  0.2230 -1.5049  0.1244
15293SOL     OW47617   2.979   6.139   1.403 -0.0512  0.2682 -0.2359
15293SOL    HW147618   2.911   6.165   1.464 -0.9921  0.2348 -1.2330
15293SOL    HW247619   2.968   6.199   1.328  1.1122  0.3584 -0.3605
15294SOL     OW47620   9.095   8.695   6.179 -0.6257  0.4594 -0.1897
15294SOL    HW147621   9.118   8.605   6.201  0.6157  0.0973 -2.6571
15294SOL    HW247622   9.066   8.733   6.262 -0.9306 -2.1032  0.9831
15295SOL     OW47623   9.266   4.673   0.433  0.6013 -0.1305  0.4657
15295SOL    HW147624   9.290   4.755   0.477  0.9816  1.9294 -3.1418
15295SOL    HW247625   9.179   4.690   0.398  0.2204 -1.7432  0.5688
15296SOL     OW47626   3.644   5.228   0.167 -0.0380 -0.3630  1.0987
15296SOL    HW147627   3.560   5.198   0.201 -0.4273 -0.2300  0.2842
15296SOL    HW247628   3.700   5.150   0.168 -0.1253 -0.4169  1.7792
15297SOL     OW47629   7.549   0.927   7.964 -0.1588 -0.4181 -0.0498
15297SOL    HW147630   7.524   0.942   7.873 -1.9934  1.3634  0.6697
15297SOL    HW247631   7.470   0.891   8.004  1.2658 -3.2952  0.4533
15298SOL     OW47632   1.952   1.622   5.090  0.2878  0.3685 -0.0847
15298SOL    HW147633   1.986   1.673   5.016 -0.6893 -0.1682 -0.9275
15298SOL    HW247634   1.858   1.641   5.091  0.0194 -0.8862  0.0093
15299SOL     OW47635   6.803   6.450   6.189  0.2315 -0.1330 -0.1017
15299SOL    HW147636   6.791   6.406   6.273  2.7148  0.1025  0.4735
15299SOL    HW247637   6.805   6.378   6.125  3.7314 -1.0134  0.7697
15300SOL     OW47638   7.720   9.508   1.925 -0.2001  0.3516  0.1578
15300SOL    HW147639   7.754   9.500   2.015  1.1067 -2.2374 -0.4392
15300SOL    HW247640   7.739   9.598   1.900  0.2319  0.8785  2.1784
15301SOL     OW47641   4.598   4.257   2.551  0.5136  0.2943  0.4378
15301SOL    HW147642   4.546   4.335   2.533  1.8547  1.3650  0.9595
15301SOL    HW247643   4.595   4.249   2.647 -1.5249 -1.7071  0.2673
15302SOL     OW47644   5.472   1.863   8.395 -0.0404  0.1558 -0.0727
15302SOL    HW147645   5.483   1.776   8.434 -0.0839  0.6277  1.0207
15302SOL    HW247646   5.381   1.886   8.413 -0.1637  0.2459 -0.7764
15303SOL     OW47647   2.252   2.082   8.591 -0.8441  0.5113  0.0186
15303SOL    HW147648   2.278   1.994   8.618  0.7399  0.9896  0.1342
15303SOL    HW247649   2.173   2.100   8.643 -0.8660 -0.6162  0.4129
15304SOL     OW47650   4.145   7.345   5.135 -0.1043  0.5416  0.3360
15304SOL    HW147651   4.198   7.313   5.062  1.6411  1.9305  0.9121
15304SOL    HW247652   4.055   7.341   5.103  0.1985 -2.6069 -0.4251
15305SOL     OW47653   1.554   5.230   1.926 -0.4522 -0.0790 -0.1167
15305SOL    HW147654   1.599   5.162   1.875  2.9664  1.0739  1.0500
15305SOL    HW247655   1.556   5.307   1.870 -1.1988 -0.0449 -0.1068
15306SOL     OW47656   6.693   7.693   2.825  0.2267 -0.1599  0.2865
15306SOL    HW147657   6.759   7.624   2.822  0.3116 -0.0992  0.6902
15306SOL    HW247658   6.611   7.647   2.843  0.4490 -0.0621  1.6559
15307SOL     OW47659   6.640   0.255   1.791 -0.1267 -0.2612  0.4849
15307SOL    HW147660   6.647   0.210   1.876 -0.7630 -0.3456  0.4975
15307SOL    HW247661   6.635   0.348   1.813 -0.1424 -0.2734  0.5337
15308SOL     OW47662   4.408   8.019   2.959 -0.3512 -0.4855  0.8836
15308SOL    HW147663   4.451   8.099   2.986  0.4654 -1.1816  1.7143
15308SOL    HW247664   4.384   7.975   3.041 -4.3734  0.6987  0.5409
15309SOL     OW47665   2.747   7.443   1.752  0.3928  0.5080  0.2197
15309SOL    HW147666   2.708   7.527   1.776 -0.4716 -0.0957  1.0005
15309SOL    HW247667   2.790   7.413   1.832  1.3219  0.5280 -0.2567
15310SOL     OW47668   4.944   2.877   9.462  0.5747  0.6592 -0.2211
15310SOL    HW147669   4.984   2.919   9.385  0.6169 -0.7337 -0.9961
15310SOL    HW247670   4.916   2.791   9.430 -2.7993  1.4307  0.3542
15311SOL     OW47671   1.240   1.496   3.653 -0.2110  0.4356 -0.0051
15311SOL    HW147672   1.236   1.509   3.558 -1.1693  1.6027  0.1723
15311SOL    HW247673   1.320   1.541   3.679  0.9880 -1.3640 -0.4516
15312SOL     OW47674   2.716   1.136   6.519 -0.6062 -0.1140 -0.1897
15312SOL    HW147675   2.756   1.050   6.529  2.3601  0.9901 -1.4614
15312SOL    HW247676   2.749   1.187   6.593  1.7469  1.2176 -2.0121
15313SOL     OW47677   4.536   5.742   3.759 -0.3179  0.1720  0.1714
15313SOL    HW147678   4.491   5.827   3.758  0.1411  0.4127 -0.5095
15313SOL    HW247679   4.612   5.755   3.703  0.8643 -0.0910  1.6564
15314SOL     OW47680   8.673   8.532   1.206 -0.0962  0.2667 -0.0879
15314SOL    HW147681   8.747   8.586   1.233  0.4935 -0.4081 -0.3436
15314SOL    HW247682   8.605   8.550   1.272  1.2228 -1.1793  1.8014
15315SOL     OW47683   9.130   2.353   6.137 -0.2810  0.1337  0.2409
15315SOL    HW147684   9.064   2.372   6.070 -0.7116  0.4375  0.7404
15315SOL    HW247685   9.134   2.258   6.140  0.5771  0.1076 -1.0153
15316SOL     OW47686   2.568   7.961   5.954 -0.3096 -0.0919  0.1757
15316SOL    HW147687   2.662   7.976   5.944 -0.5993  2.4426  0.4550
15316SOL    HW247688   2.548   7.888   5.896  1.7585 -0.3844 -0.2243
15317SOL     OW47689   1.011   8.449   4.162  0.2231 -0.1833  0.1378
15317SOL    HW147690   0.934   8.503   4.147 -0.0701 -0.8565 -0.9020
15317SOL    HW247691   0.997   8.409   4.248 -1.8404 -2.2661 -1.0650
15318SOL     OW47692   4.402   9.024   9.586  0.2095  0.5662 -0.2741
15318SOL    HW147693   4.373   9.114   9.598  0.8735  0.6683  0.6009
15318SOL    HW247694   4.479   9.031   9.530  1.9181  0.8200  2.0021
15319SOL     OW47695   8.874   1.788   0.636 -0.2113  0.3178  0.4703
15319SOL    HW147696   8.902   1.877   0.615  0.7099  0.4008  1.9117
15319SOL    HW247697   8.954   1.742   0.661 -0.1771 -1.7915 -2.8388
15320SOL     OW47698   4.296   0.265   5.771 -0.1864  0.4328 -0.0464
15320SOL    HW147699   4.379   0.266   5.818  0.2955  1.9510 -0.8570
15320SOL    HW247700   4.254   0.183   5.797  0.9896  0.2459  1.3649
15321SOL     OW47701   8.201   8.584   0.501 -0.2699  0.3261  0.0003
15321SOL    HW147702   8.288   8.598   0.464 -0.3521 -1.7239 -1.0757
15321SOL    HW247703   8.212   8.512   0.563 -0.9831  0.8987  0.8229
15322SOL     OW47704   3.928   7.212   9.468  0.4186 -0.0719  0.1049
15322SOL    HW147705   3.934   7.122   9.499  1.5209  0.4140  1.4036
15322SOL    HW247706   4.015   7.231   9.431  0.1700  0.4286 -0.2361
15323SOL     OW47707   6.404   5.464   6.955 -0.4212  0.0094  0.2827
15323SOL    HW147708   6.420   5.556   6.931  1.9512 -0.1453  0.9994
15323SOL    HW247709   6.408   5.463   7.051 -1.1127 -0.7554  0.3167
15324SOL     OW47710   5.894   8.998   0.298  0.2441 -0.2872  0.1025
15324SOL    HW147711   5.912   8.964   0.211  2.7673  0.5297  0.2212
15324SOL    HW247712   5.883   8.920   0.353  1.5010 -0.8705 -0.4396
15325SOL     OW47713   0.177   1.995   5.056 -0.6577  0.3925  0.1482
15325SOL    HW147714   0.144   2.084   5.050 -2.0204 -0.1882 -2.0130
15325SOL    HW247715   0.266   1.999   5.023 -0.8244  0.9115 -0.2419
15326SOL     OW47716   4.406   0.579   6.896 -0.4565 -0.4479  0.5212
15326SOL    HW147717   4.368   0.539   6.974 -0.3484 -0.6533  0.4678
15326SOL    HW247718   4.398   0.673   6.912 -1.2274 -0.4842  0.3890
15327SOL     OW47719   7.002   5.896   0.953 -0.6343  0.2579  0.0874
15327SOL    HW147720   6.935   5.868   1.014 -0.5654  2.4479  1.2750
15327SOL    HW247721   6.954   5.943   0.885 -0.8733 -3.2823 -2.4581
15328SOL     OW47722   5.288   8.781   6.448 -0.5092  0.0820  0.7902
15328SOL    HW147723   5.322   8.752   6.532 -0.5877 -0.9784  0.4706
15328SOL    HW247724   5.267   8.700   6.402 -0.8977  0.6635 -0.0700
15329SOL     OW47725   8.272   5.675   7.594  0.4481  0.1554 -0.1636
15329SOL    HW147726   8.210   5.613   7.555  1.8829 -1.9655  0.7551
15329SOL    HW247727   8.282   5.744   7.528 -2.5899  0.4557 -0.4690
15330SOL     OW47728   5.076   4.071   0.508  0.2779  0.0980  0.0955
15330SOL    HW147729   5.099   4.070   0.415  1.4003 -0.1059  0.3568
15330SOL    HW247730   5.157   4.098   0.553 -0.0366 -0.5059  1.0641
15331SOL     OW47731   3.425   3.540   2.354 -0.2016 -0.0129 -0.1010
15331SOL    HW147732   3.457   3.451   2.371 -1.2848 -1.0524 -2.8687
15331SOL    HW247733   3.332   3.536   2.375  0.0103  0.9293  1.1192
15332SOL     OW47734   2.252   1.696   6.333 -0.0069 -0.7998  0.1407
15332SOL    HW147735   2.301   1.700   6.415 -0.8905 -2.5779  0.7838
15332SOL    HW247736   2.161   1.688   6.360 -0.3557 -0.8873 -1.0339
15333SOL     OW47737   7.441   6.394   1.261 -0.1657  0.3976 -0.0968
15333SOL    HW147738   7.511   6.458   1.268  0.0249  0.1695  0.1031
15333SOL    HW247739   7.437   6.372   1.168 -0.3058  0.7782 -0.1846
15334SOL     OW47740   7.336   9.382   5.422  0.0778  0.7258  0.0935
15334SOL    HW147741   7.291   9.298   5.425  1.8446 -0.2532  0.4343
15334SOL    HW247742   7.379   9.383   5.336  1.7609  0.3180  0.8908
15335SOL     OW47743   9.546   3.719   8.302 -0.2551  0.6085 -0.2662
15335SOL    HW147744   9.631   3.680   8.279  1.1346  1.6431  2.5924
15335SOL    HW247745   9.530   3.689   8.392 -2.9461  0.4909 -0.7226
15336SOL     OW47746   0.329   6.209   7.310  0.0217 -0.2485  0.4360
15336SOL    HW147747   0.358   6.118   7.321  2.2109  0.6373  3.3345
15336SOL    HW247748   0.403   6.253   7.268  0.1062  0.6746  1.4948
15337SOL     OW47749   5.198   3.989   1.395  0.0660  0.0593  0.1827
15337SOL    HW147750   5.118   4.013   1.349  1.1163 -0.6891 -2.1538
15337SOL    HW247751   5.256   3.954   1.328  2.3804  0.5537  1.7850
15338SOL     OW47752   4.266   5.619   2.871  0.0829  0.1827  0.7713
15338SOL    HW147753   4.227   5.601   2.956 -1.3252 -0.8413 -0.0561
15338SOL    HW247754   4.305   5.536   2.843 -0.8261  0.0667 -0.2413
15339SOL     OW47755   8.770   4.015   4.942 -0.2187 -0.1766 -0.2469
15339SOL    HW147756   8.678   4.009   4.916 -0.5133 -0.9123  0.8828
15339SOL    HW247757   8.784   4.108   4.961 -0.3544  0.1575 -1.6320
15340SOL     OW47758   1.245   2.300   8.617  0.6032 -0.4158 -0.1509
15340SOL    HW147759   1.236   2.207   8.639 -0.0005 -0.1250  0.8914
15340SOL    HW247760   1.329   2.325   8.656  0.8019 -0.5316 -0.4965
15341SOL     OW47761   0.123   9.195   8.851 -0.2951  0.2767  0.3319
15341SOL    HW147762   0.185   9.236   8.911 -0.1195 -1.6775  1.5797
15341SOL    HW247763   0.075   9.268   8.812  0.5385  1.6826  1.8240
15342SOL     OW47764   8.899   8.293   4.076 -0.5189  0.3469 -0.0288
15342SOL    HW147765   8.954   8.270   4.151 -0.8716  0.9270  0.4192
15342SOL    HW247766   8.944   8.254   4.001 -0.4662 -0.7373  0.5441
15343SOL     OW47767   4.444   3.079   6.298  0.7527 -0.0832  0.0494
15343SOL    HW147768   4.485   3.106   6.380 -1.0618 -0.1907  1.0598
15343SOL    HW247769   4.462   2.985   6.293 -1.7590 -0.7967  2.0718
15344SOL     OW47770   5.626   0.985   4.066 -0.4516 -0.8477 -0.6331
15344SOL    HW147771   5.593   0.917   4.125  0.6966 -1.4741 -0.6860
15344SOL    HW247772   5.705   1.018   4.110 -0.5314 -0.1241 -1.0145
15345SOL     OW47773   4.846   6.407   6.879 -0.4905  0.1834  0.1713
15345SOL    HW147774   4.843   6.475   6.812 -2.0076 -1.1445 -1.2222
15345SOL    HW247775   4.796   6.443   6.952 -1.5907  0.4602 -0.6848
15346SOL     OW47776   4.396   7.176   1.999  0.9271  0.9466 -0.1405
15346SOL    HW147777   4.468   7.239   1.996 -0.0639  2.1002 -1.7642
15346SOL    HW247778   4.396   7.135   1.913  0.8733 -0.5283  0.5302
15347SOL     OW47779   9.303   9.213   8.971 -0.1636 -0.7766  0.0391
15347SOL    HW147780   9.223   9.178   8.931 -2.1995  0.5666  2.6474
15347SOL    HW247781   9.276   9.297   9.008  2.5428 -0.1844  0.8452
15348SOL     OW47782   5.956   2.565   3.937  0.8109  0.4927 -0.5693
15348SOL    HW147783   5.977   2.473   3.923 -0.3036  0.3006 -1.0887
15348SOL    HW247784   6.039   2.605   3.964  1.2744 -0.6819 -0.1904
15349SOL     OW47785   2.774   6.486   9.407 -0.2118  0.3380  0.3546
15349SOL    HW147786   2.776   6.581   9.418 -0.1550  0.2740  0.9272
15349SOL    HW247787   2.711   6.471   9.336 -0.8805  0.7539  0.8448
15350SOL     OW47788   7.930   7.805   5.433  0.6492 -0.2218 -0.1150
15350SOL    HW147789   8.008   7.809   5.377 -0.2172 -1.4784 -1.4386
15350SOL    HW247790   7.871   7.744   5.390 -0.9839  0.4765  1.0184
15351SOL     OW47791   2.482   6.528   6.556  1.0891 -0.0510 -0.4069
15351SOL    HW147792   2.475   6.621   6.537  1.2775  0.0104 -0.1902
15351SOL    HW247793   2.447   6.484   6.478 -2.2968  0.2027  0.8131
15352SOL     OW47794   6.612   8.460   8.010 -0.2562 -0.3286  0.5392
15352SOL    HW147795   6.654   8.404   7.944 -3.1852 -0.5370 -1.3203
15352SOL    HW247796   6.523   8.425   8.018 -0.3587  0.3625  3.9157
15353SOL     OW47797   1.321   0.107   3.257  0.1490 -0.0668  0.0466
15353SOL    HW147798   1.355   0.147   3.337  0.7934 -0.8713  0.1848
15353SOL    HW247799   1.234   0.144   3.247  0.0872  0.0936  1.0828
15354SOL     OW47800   1.955   8.592   3.244  0.1517 -0.1363 -0.3063
15354SOL    HW147801   2.049   8.592   3.263  0.1377 -0.3288 -0.2367
15354SOL    HW247802   1.914   8.619   3.327  0.1716  0.4169 -0.4717
15355SOL     OW47803   6.088   8.559   8.551 -0.0475  0.5052  0.7308
15355SOL    HW147804   6.179   8.547   8.525 -0.3319 -0.5117  0.1469
15355SOL    HW247805   6.051   8.617   8.485 -0.1876 -0.2745  0.1020
15356SOL     OW47806   8.312   3.550   3.092  0.3983  0.2143  0.2216
15356SOL    HW147807   8.289   3.563   3.000 -1.5507 -0.5968  0.5589
15356SOL    HW247808   8.407   3.538   3.091  0.4463  0.4377 -1.6544
15357SOL     OW47809   8.684   8.283   5.234  0.2824  0.1310  0.1023
15357SOL    HW147810   8.666   8.222   5.163 -0.6268  0.6647 -0.1457
15357SOL    HW247811   8.746   8.346   5.197 -1.0497  1.0643 -0.6045
15358SOL     OW47812   3.636   2.127   8.223 -0.3933 -0.1671  0.2333
15358SOL    HW147813   3.683   2.137   8.306  1.3194  1.9203 -0.8863
15358SOL    HW247814   3.656   2.038   8.194  2.2030  0.3460  0.2513
15359SOL     OW47815   7.976   1.160   4.480 -0.5350 -0.2038  0.1414
15359SOL    HW147816   7.896   1.108   4.476 -0.7786  0.2564 -1.1834
15359SOL    HW247817   7.953   1.236   4.534 -1.1362  0.1718 -0.6329
15360SOL     OW47818   1.243   4.979   0.678 -0.6509  0.0655  0.3117
15360SOL    HW147819   1.210   4.941   0.759  0.7318 -0.7103  0.5382
15360SOL    HW247820   1.313   5.038   0.706  0.9687 -1.4420 -0.3651
15361SOL     OW47821   9.140   0.408   4.720  0.4551  0.4776  0.2019
15361SOL    HW147822   9.133   0.342   4.651  1.3603 -1.1967  1.6266
15361SOL    HW247823   9.051   0.441   4.731 -0.3265 -1.5431  0.3823
15362SOL     OW47824   2.505   6.855   2.580  0.4194 -0.0637  0.2121
15362SOL    HW147825   2.465   6.775   2.546  0.5009 -0.2101  0.4532
15362SOL    HW247826   2.461   6.871   2.663  0.3718  0.1684  0.1436
15363SOL     OW47827   8.075   4.127   6.683  0.5988 -0.1666 -0.8571
15363SOL    HW147828   8.148   4.097   6.737 -1.6742 -2.0663  1.3559
15363SOL    HW247829   8.020   4.050   6.670 -2.3216  1.6353 -0.2514
15364SOL     OW47830   1.171   7.861   6.186  0.0788 -0.5082 -0.1827
15364SOL    HW147831   1.213   7.879   6.270 -3.0127 -0.3793  1.4927
15364SOL    HW247832   1.202   7.773   6.162 -1.6928 -2.1729  3.0435
15365SOL     OW47833   8.639   0.247   5.420  0.1160 -0.4919 -0.4455
15365SOL    HW147834   8.554   0.220   5.453  0.2086  0.4351  0.6282
15365SOL    HW247835   8.627   0.339   5.394  0.6999 -0.4514 -0.5927
15366SOL     OW47836   6.999   4.857   6.199 -0.3889  0.4546 -0.1249
15366SOL    HW147837   6.941   4.843   6.125 -1.9554  1.2852  0.9090
15366SOL    HW247838   6.960   4.929   6.248  0.9324  0.3316  1.1884
15367SOL     OW47839   7.745   4.929   6.627  0.4373 -0.0877  0.2595
15367SOL    HW147840   7.820   4.984   6.608  0.1454 -0.5993 -3.0541
15367SOL    HW247841   7.702   4.970   6.702  3.0275  1.1765  1.1337
15368SOL     OW47842   6.306   4.871   0.597 -0.3322 -0.1182 -0.1248
15368SOL    HW147843   6.337   4.825   0.520  0.0287 -1.2870  0.6928
15368SOL    HW247844   6.214   4.846   0.605 -0.2012 -0.5087  0.1793
15369SOL     OW47845   3.960   6.563   5.407  0.1685 -1.0818 -0.6490
15369SOL    HW147846   3.920   6.501   5.346 -0.9373  0.0995 -1.1572
15369SOL    HW247847   3.923   6.648   5.384  0.0524 -0.5225  1.3860
15370SOL     OW47848   8.232   8.602   2.591 -0.1514  0.3377 -0.2840
15370SOL    HW147849   8.315   8.603   2.639 -0.1917  0.2308 -0.2127
15370SOL    HW247850   8.255   8.562   2.506 -0.2415 -0.1942 -0.0611
15371SOL     OW47851   4.047   5.811   0.244 -0.4415  0.3582 -0.0310
15371SOL    HW147852   4.033   5.719   0.218 -1.1834  0.2773  0.6335
15371SOL    HW247853   4.054   5.858   0.161 -0.6751 -0.2098 -0.3800
15372SOL     OW47854   7.246   9.325   6.664 -0.1021  0.1885 -0.7263
15372SOL    HW147855   7.337   9.297   6.653 -0.4422 -2.5508  2.0094
15372SOL    HW247856   7.197   9.274   6.600 -0.0289 -0.8433  0.0203
15373SOL     OW47857   8.108   2.181   9.433  0.5655  0.1517  0.0801
15373SOL    HW147858   8.182   2.203   9.377  0.9618  1.1160  0.9356
15373SOL    HW247859   8.030   2.197   9.379  0.9635 -1.2050 -0.9410
15374SOL     OW47860   5.493   1.849   1.384  0.0205 -0.2549 -0.1955
15374SOL    HW147861   5.560   1.910   1.413 -1.1024  1.7870 -1.6632
15374SOL    HW247862   5.436   1.838   1.461  0.8022 -0.2880  0.3886
15375SOL     OW47863   5.129   3.869   0.273  0.0462 -0.1433  0.6048
15375SOL    HW147864   5.061   3.822   0.224  1.1139 -1.0710 -0.0390
15375SOL    HW247865   5.205   3.810   0.272  2.1584  2.2706 -2.0023
15376SOL     OW47866   4.896   4.971   8.677 -0.7616 -0.0876  0.4750
15376SOL    HW147867   4.818   5.008   8.635 -1.4573 -1.5162  0.4636
15376SOL    HW247868   4.963   4.972   8.609 -1.9128 -2.5143 -0.8023
15377SOL     OW47869   5.627   2.129   8.054  0.3213  0.1825  0.5309
15377SOL    HW147870   5.602   2.037   8.061  0.4860  0.2824  4.0024
15377SOL    HW247871   5.551   2.172   8.014 -0.6387 -1.1409  0.8752
15378SOL     OW47872   4.583   7.512   5.253  0.5146 -0.5494 -0.0113
15378SOL    HW147873   4.495   7.495   5.287  0.4436  0.5108  0.3488
15378SOL    HW247874   4.574   7.591   5.199  1.4888  0.3449  1.0855
15379SOL     OW47875   3.198   7.634   6.779 -0.2397  0.0080  0.0760
15379SOL    HW147876   3.265   7.684   6.825 -0.9470 -0.1578  1.3398
15379SOL    HW247877   3.245   7.593   6.706  1.1986 -0.6618  1.3126
15380SOL     OW47878   3.520   3.694   7.626 -0.0850 -0.9622 -0.3669
15380SOL    HW147879   3.430   3.668   7.610 -0.7859  0.5164  0.8786
15380SOL    HW247880   3.514   3.785   7.654  1.7025 -1.0850  0.5679
15381SOL     OW47881   5.602   1.283   9.291 -0.0580  0.1110  0.5767
15381SOL    HW147882   5.655   1.247   9.220 -0.7104  0.6074 -0.1881
15381SOL    HW247883   5.538   1.214   9.310  1.5138 -0.9864  2.3187
15382SOL     OW47884   7.602   0.245   3.543 -0.5896  0.4760 -0.0717
15382SOL    HW147885   7.535   0.284   3.599 -0.2683  0.5145  0.2908
15382SOL    HW247886   7.563   0.163   3.512 -0.1509 -0.3920  1.5618
15383SOL     OW47887   5.565   9.186   5.723 -0.5717 -0.6048  0.2844
15383SOL    HW147888   5.659   9.193   5.704 -0.6808 -0.3612 -0.1736
15383SOL    HW247889   5.543   9.270   5.762 -0.5094 -0.8248  0.8005
15384SOL     OW47890   8.533   2.857   3.494 -0.0267  0.3827 -0.7730
15384SOL    HW147891   8.496   2.896   3.415 -1.2504  0.9929  0.0581
15384SOL    HW247892   8.628   2.861   3.481 -0.2052  0.6048 -2.1345
15385SOL     OW47893   3.905   9.047   2.767  0.0175  0.2268 -0.1221
15385SOL    HW147894   3.928   8.987   2.696 -1.5760 -1.2188  0.5201
15385SOL    HW247895   3.984   9.051   2.820  0.6819 -0.0102 -1.0499
15386SOL     OW47896   9.522   0.532   2.035 -0.0497  0.3773  0.1498
15386SOL    HW147897   9.473   0.614   2.033 -3.1297 -1.3129 -0.3974
15386SOL    HW247898   9.539   0.517   2.128 -0.9545  0.8594  0.4075
15387SOL     OW47899   3.459   3.034   3.883  0.5371 -0.1295  0.1375
15387SOL    HW147900   3.475   3.028   3.789  1.9196  1.0365  0.2581
15387SOL    HW247901   3.392   3.101   3.892  0.8177  0.1719  0.0059
15388SOL     OW47902   7.738   2.544   9.597 -0.0821  0.5910 -0.0416
15388SOL    HW147903   7.771   2.632   9.581 -0.8066  0.8130 -0.3512
15388SOL    HW247904   7.816   2.491   9.615  0.4615  1.0282 -1.0760
15389SOL     OW47905   3.565   7.492   8.812  0.6813 -0.8376 -0.0342
15389SOL    HW147906   3.557   7.544   8.733 -2.1113 -0.6810  0.2530
15389SOL    HW247907   3.579   7.557   8.882  0.8767 -0.7938 -0.1125
15390SOL     OW47908   2.418   6.139   9.448 -0.7248 -0.6563  0.0647
15390SOL    HW147909   2.412   6.108   9.358  0.6898  0.4063 -0.4315
15390SOL    HW247910   2.511   6.137   9.468 -1.0854 -1.6309  1.8026
15391SOL     OW47911   6.179   1.967   8.429 -0.0809  0.5893 -0.0097
15391SOL    HW147912   6.104   1.925   8.470 -0.6629  1.3651 -0.2653
15391SOL    HW247913   6.165   2.061   8.443  1.3532  0.7136  0.8213
15392SOL     OW47914   2.179   2.077   0.738  0.1438  0.3986  0.5292
15392SOL    HW147915   2.225   2.078   0.822 -0.9889 -0.2285  1.1779
15392SOL    HW247916   2.202   1.993   0.699 -1.5858 -0.5876  1.5341
15393SOL     OW47917   0.528   0.730   6.951  0.2035  0.7595  0.0233
15393SOL    HW147918   0.528   0.755   7.043 -0.9812 -0.9287  0.5277
15393SOL    HW247919   0.437   0.745   6.923  0.5498  1.2381 -0.8782
15394SOL     OW47920   4.780   7.495   5.425  0.1312 -0.5637  0.0561
15394SOL    HW147921   4.745   7.454   5.504 -1.2745 -3.3864 -1.8642
15394SOL    HW247922   4.704   7.510   5.369  0.9723  2.1781 -0.5187
15395SOL     OW47923   7.721   1.827   1.843 -0.1298  0.0285 -0.3898
15395SOL    HW147924   7.665   1.886   1.793  2.4010  0.8172 -2.5316
15395SOL    HW247925   7.756   1.880   1.914 -1.1858 -0.1588  0.2863
15396SOL     OW47926   5.030   0.190   1.664 -0.0026  0.1527  0.1072
15396SOL    HW147927   4.997   0.258   1.605 -0.9457 -1.0927 -0.8437
15396SOL    HW247928   5.097   0.145   1.613  0.1588 -0.0523  0.4980
15397SOL     OW47929   1.081   2.372   6.656  0.1267 -0.0455 -0.0510
15397SOL    HW147930   1.003   2.425   6.640 -0.2750 -0.4308  0.6063
15397SOL    HW247931   1.153   2.425   6.622 -0.2904  0.8101  0.3710
15398SOL     OW47932   0.301   6.671   7.411 -0.1814  0.2992  0.2242
15398SOL    HW147933   0.383   6.646   7.369  0.6150  0.9561  1.3327
15398SOL    HW247934   0.233   6.629   7.358  0.7817  0.8030 -1.4875
15399SOL     OW47935   8.765   3.761   7.720 -0.2182  0.0300 -0.1414
15399SOL    HW147936   8.745   3.676   7.681 -2.1291  0.0979  0.6034
15399SOL    HW247937   8.695   3.776   7.783  0.6149  1.7302  0.4469
15400SOL     OW47938   3.977   2.552   4.004  0.7802  0.3372  0.2295
15400SOL    HW147939   4.040   2.508   4.061 -0.3596 -0.2853  1.0668
15400SOL    HW247940   3.983   2.507   3.920 -0.4056 -1.5176  1.0821
15401SOL     OW47941   3.887   0.868   3.878  0.2636  0.2005  0.3285
15401SOL    HW147942   3.879   0.826   3.793 -1.0367 -0.9818  0.9816
15401SOL    HW247943   3.882   0.961   3.860  1.3189  0.0282 -0.9941
15402SOL     OW47944   8.468   4.750   5.406  0.3963  0.4789  0.0357
15402SOL    HW147945   8.420   4.735   5.324  1.2777  1.2609 -0.6363
15402SOL    HW247946   8.515   4.668   5.422  0.6631  0.5213 -0.5359
15403SOL     OW47947   7.568   8.846   1.367 -0.8222  0.4029 -0.3720
15403SOL    HW147948   7.477   8.876   1.369 -0.7800  0.7413 -2.2714
15403SOL    HW247949   7.573   8.780   1.437 -2.5135  0.3788 -0.2423
15404SOL     OW47950   1.700   1.051   6.848  0.0547 -0.2170 -0.0809
15404SOL    HW147951   1.722   1.136   6.886  0.2555  0.1828 -1.0705
15404SOL    HW247952   1.614   1.063   6.809  0.3074 -0.3220 -0.6716
15405SOL     OW47953   1.585   7.962   3.936  0.1297  0.5196  0.0033
15405SOL    HW147954   1.544   7.885   3.895 -2.8967  1.6706  0.5700
15405SOL    HW247955   1.661   7.981   3.881  0.5964 -2.4327 -0.5326
15406SOL     OW47956   3.869   5.921   6.409  0.0409 -0.4281  0.4737
15406SOL    HW147957   3.912   5.989   6.461 -0.1624 -0.6818  0.9784
15406SOL    HW247958   3.777   5.928   6.431  0.1853 -1.8565  1.7249
15407SOL     OW47959   5.802   3.636   5.997 -0.2296 -0.5947  0.2800
15407SOL    HW147960   5.842   3.718   6.025 -2.0674  1.1312 -1.8182
15407SOL    HW247961   5.872   3.571   6.008  1.9399  1.5561  0.2302
15408SOL     OW47962   7.361   8.185   5.710  0.2328 -0.4441  0.7618
15408SOL    HW147963   7.340   8.198   5.803  4.1148  0.1924  1.7076
15408SOL    HW247964   7.455   8.171   5.708  0.9005  2.7042 -3.3816
15409SOL     OW47965   1.188   3.662   4.874  0.0893  0.0691 -0.6129
15409SOL    HW147966   1.218   3.622   4.792  1.0017  2.0136 -1.2835
15409SOL    HW247967   1.092   3.657   4.870  0.1147  0.3811 -1.9334
15410SOL     OW47968   5.727   7.473   3.930 -0.4198 -0.8936  0.1442
15410SOL    HW147969   5.669   7.488   4.004  0.4845  1.3401  0.4833
15410SOL    HW247970   5.714   7.381   3.907 -2.9062 -0.8683  1.1657
15411SOL     OW47971   4.708   7.862   4.107 -0.8362  0.4986 -0.0263
15411SOL    HW147972   4.714   7.956   4.123  0.2112  0.5686 -0.7690
15411SOL    HW247973   4.795   7.837   4.077 -0.6153 -1.0233  1.7106
15412SOL     OW47974   8.860   6.410   8.362  0.2118 -0.2425  0.4026
15412SOL    HW147975   8.863   6.505   8.348  1.8964  0.0413  2.2618
15412SOL    HW247976   8.865   6.373   8.274  0.4301  1.3815 -0.3173
15413SOL     OW47977   3.739   2.391   5.282  0.7282 -0.3471 -0.0262
15413SOL    HW147978   3.766   2.469   5.330  1.8660 -1.3474  1.0299
15413SOL    HW247979   3.807   2.379   5.215  1.2151 -1.0580  0.5703
15414SOL     OW47980   2.172   0.741   3.870 -0.2800  0.3609  0.1324
15414SOL    HW147981   2.248   0.730   3.814 -0.7674  3.4350 -1.3550
15414SOL    HW247982   2.197   0.809   3.933 -1.5869  1.0658 -0.0610
15415SOL     OW47983   4.544   0.790   6.065  0.0859 -0.1894 -0.0491
15415SOL    HW147984   4.465   0.735   6.069  0.1132 -0.1489  1.5514
15415SOL    HW247985   4.590   0.773   6.147  0.9522  0.9751 -0.2613
15416SOL     OW47986   4.428   2.002   9.605 -0.4623  0.2358  0.3165
15416SOL    HW147987   4.493   2.071   9.616  0.2145 -0.4107  0.5179
15416SOL    HW247988   4.344   2.047   9.606 -0.0353  1.0512  0.4150
15417SOL     OW47989   8.390   2.530   1.357  0.5133 -0.3435  0.3172
15417SOL    HW147990   8.382   2.435   1.369 -2.1886 -0.2660 -0.2284
15417SOL    HW247991   8.386   2.542   1.263 -1.3760  0.3929  0.4488
15418SOL     OW47992   4.464   5.710   8.675  0.6923  0.5781 -0.4726
15418SOL    HW147993   4.555   5.679   8.681  0.3736 -0.2315  0.3896
15418SOL    HW247994   4.472   5.803   8.652  1.8495  1.2617  2.2999
15419SOL     OW47995   4.223   3.137   0.574 -0.1099 -0.3241  0.1100
15419SOL    HW147996   4.137   3.165   0.605 -0.5181  0.0697 -1.3322
15419SOL    HW247997   4.217   3.041   0.570 -0.7691 -0.2489 -0.7883
15420SOL     OW47998   7.843   0.339   9.261 -0.4559 -0.0696  0.0203
15420SOL    HW147999   7.928   0.319   9.300  0.2870  0.0669 -1.4486
15420SOL    HW248000   7.862   0.353   9.168 -1.9106  1.1103 -0.1396
15421SOL     OW48001   4.625   7.268   5.598 -0.1407  0.0942 -0.0834
15421SOL    HW148002   4.598   7.188   5.644  2.1739  0.2842  1.8439
15421SOL    HW248003   4.570   7.271   5.520 -1.2630 -2.6363  0.4817
15422SOL     OW48004   9.033   4.933   1.158  0.4477 -0.0974  0.6914
15422SOL    HW148005   8.950   4.981   1.160 -1.5074 -3.0203 -1.0715
15422SOL    HW248006   9.059   4.925   1.250 -1.4319  0.6459  1.3295
15423SOL     OW48007   4.931   7.957   9.372 -0.3566 -0.6305 -0.8202
15423SOL    HW148008   4.989   8.025   9.406  0.1704 -1.4280 -0.0875
15423SOL    HW248009   4.968   7.875   9.405 -3.2371 -1.0732  1.8037
15424SOL     OW48010   0.708   6.092   4.345 -0.4661 -0.1275  0.7371
15424SOL    HW148011   0.719   6.184   4.371  0.0447  0.2949 -0.8935
15424SOL    HW248012   0.657   6.096   4.264 -0.1289 -1.2643  0.4573
15425SOL     OW48013   0.827   0.603   2.006  0.0244  0.5834  0.2328
15425SOL    HW148014   0.816   0.543   2.080 -0.0907 -2.7385 -2.2203
15425SOL    HW248015   0.744   0.650   2.001 -1.3625 -1.6863  0.2525
15426SOL     OW48016   6.449   4.887   8.139  0.7200 -0.1018 -0.1563
15426SOL    HW148017   6.359   4.865   8.113  1.0325  0.9463 -2.3294
15426SOL    HW248018   6.444   4.897   8.234 -0.9606 -2.2256  0.0619
15427SOL     OW48019   1.542   3.322   8.929 -0.0775  0.0880  0.1807
15427SOL    HW148020   1.628   3.291   8.902 -1.3266 -1.1070 -2.8391
15427SOL    HW248021   1.548   3.329   9.024  3.3432  0.1676  0.0765
15428SOL     OW48022   8.762   7.086   1.844 -0.0920 -0.1382  0.0427
15428SOL    HW148023   8.671   7.111   1.831 -0.2474  0.1699  1.5334
15428SOL    HW248024   8.810   7.131   1.775 -0.8817  1.0034  0.2232
15429SOL     OW48025   8.121   4.450   7.194 -0.3100 -0.1734  0.1889
15429SOL    HW148026   8.029   4.429   7.178 -0.1123 -1.2454  0.3787
15429SOL    HW248027   8.150   4.386   7.259  0.8303 -0.4962 -0.5930
15430SOL     OW48028   2.258   1.781   5.420  0.3196 -0.8273  0.0167
15430SOL    HW148029   2.191   1.821   5.364 -1.6508 -1.1402  1.9911
15430SOL    HW248030   2.271   1.693   5.384 -1.8929 -1.5048  0.7335
15431SOL     OW48031   5.816   9.290   9.245 -0.0406  0.1704 -0.3689
15431SOL    HW148032   5.761   9.336   9.308  0.1556 -0.9214  0.6232
15431SOL    HW248033   5.782   9.317   9.159 -0.9807  0.8637  0.2064
15432SOL     OW48034   2.158   0.326   6.025 -0.4940 -0.2879 -0.3434
15432SOL    HW148035   2.209   0.401   6.056 -1.5087  0.8990 -1.4259
15432SOL    HW248036   2.118   0.289   6.103 -0.7600  0.9110  0.1063
15433SOL     OW48037   4.821   1.072   6.358  0.0865  0.7510 -0.2333
15433SOL    HW148038   4.895   1.110   6.310  0.4274  0.2902 -0.0735
15433SOL    HW248039   4.813   0.983   6.323 -0.0037  0.5934  0.1877
15434SOL     OW48040   7.827   8.699   9.044  0.7464 -0.7344 -0.4815
15434SOL    HW148041   7.892   8.664   9.106  1.4665 -1.9876 -1.8921
15434SOL    HW248042   7.743   8.667   9.077  1.0445 -0.8264  0.2167
15435SOL     OW48043   8.519   8.049   1.569  0.3493  0.0792  0.0148
15435SOL    HW148044   8.583   8.116   1.594  1.0345 -0.6443  0.2427
15435SOL    HW248045   8.443   8.067   1.623 -0.3413  2.0257 -1.4886
15436SOL     OW48046   4.523   3.858   9.589 -0.1157  0.3306  0.1496
15436SOL    HW148047   4.488   3.779   9.547  0.8042 -1.0747  1.8797
15436SOL    HW248048   4.604   3.876   9.541  1.0032 -1.3414  1.3077
15437SOL     OW48049   8.941   9.152   3.586  0.0461 -0.1327  0.1182
15437SOL    HW148050   8.915   9.075   3.636  0.4800 -0.2634  0.1461
15437SOL    HW248051   8.964   9.118   3.500 -1.2729  0.1632 -0.3735
15438SOL     OW48052   8.975   8.629   1.365  0.1524 -0.1776  0.2173
15438SOL    HW148053   8.986   8.534   1.366  1.4061 -0.0511 -0.1467
15438SOL    HW248054   8.968   8.653   1.458  0.3932 -0.5670  0.3381
15439SOL     OW48055   4.655   1.940   4.925  0.0624 -0.0182 -0.6618
15439SOL    HW148056   4.736   1.892   4.908  0.6240 -0.0485  1.7459
15439SOL    HW248057   4.597   1.916   4.852  1.8595 -0.7434 -1.9293
15440SOL     OW48058   8.199   2.653   2.625 -0.2405 -0.0712 -0.3715
15440SOL    HW148059   8.274   2.604   2.658  0.6230  0.9875 -0.7063
15440SOL    HW248060   8.210   2.654   2.530 -1.3998 -1.0091 -0.5452
15441SOL     OW48061   6.511   4.628   8.060 -0.8581  0.1493 -0.3108
15441SOL    HW148062   6.557   4.613   7.978 -2.0228 -0.7495 -0.8288
15441SOL    HW248063   6.502   4.723   8.065 -0.7934  0.2161 -1.2454
15442SOL     OW48064   4.817   6.703   3.362 -0.0840  0.1902 -0.6543
15442SOL    HW148065   4.889   6.641   3.377  0.3729  0.6799 -0.8174
15442SOL    HW248066   4.739   6.656   3.393  0.3036 -0.3384 -0.4577
15443SOL     OW48067   6.994   5.719   4.419 -0.2527  0.6073 -0.2506
15443SOL    HW148068   6.979   5.625   4.425  0.4870  0.4368 -0.9220
15443SOL    HW248069   6.982   5.739   4.326 -3.6788  1.7777  0.3159
15444SOL     OW48070   2.881   1.143   2.560  0.2656 -0.3148 -0.5544
15444SOL    HW148071   2.915   1.135   2.470  0.0903  0.4306 -0.6926
15444SOL    HW248072   2.859   1.053   2.585  0.7789 -0.5966 -1.0748
15445SOL     OW48073   1.639   4.613   7.224  0.4527  0.2585  0.0237
15445SOL    HW148074   1.720   4.647   7.262 -0.3558  2.5186 -0.1163
15445SOL    HW248075   1.666   4.576   7.139  1.1454  2.4633 -0.7726
15446SOL     OW48076   2.668   6.621   1.233 -1.1338  0.4269  0.1355
15446SOL    HW148077   2.720   6.598   1.156 -1.0057 -0.2600  0.4215
15446SOL    HW248078   2.674   6.716   1.239  1.4453  0.2619  1.1101
15447SOL     OW48079   3.305   9.218   8.860 -0.3781  0.0991 -0.0240
15447SOL    HW148080   3.216   9.197   8.888 -0.7892  2.1540  0.3326
15447SOL    HW248081   3.295   9.287   8.795  0.9574  0.3496 -0.0022
15448SOL     OW48082   2.827   0.195   8.785 -0.4375  0.1356 -0.5403
15448SOL    HW148083   2.904   0.217   8.733  1.7536  1.2101  2.8063
15448SOL    HW248084   2.770   0.272   8.777  0.9499  1.3261  0.3443
15449SOL     OW48085   6.563   5.444   5.892 -0.7247  0.3979  0.1858
15449SOL    HW148086   6.497   5.389   5.850 -0.7963  0.6604 -0.0514
15449SOL    HW248087   6.617   5.383   5.942 -0.6732  0.0858 -0.2413
15450SOL     OW48088   7.631   7.807   0.466  0.1174 -0.2003 -0.3697
15450SOL    HW148089   7.540   7.777   0.455  0.5461 -1.2367 -1.2918
15450SOL    HW248090   7.645   7.866   0.391 -0.3398  1.4502  0.7783
15451SOL     OW48091   4.850   0.840   0.887 -0.2178 -0.5947 -0.5902
15451SOL    HW148092   4.861   0.925   0.929  0.2391 -1.4177  1.0210
15451SOL    HW248093   4.775   0.851   0.829  0.2900  1.1062 -0.9731
15452SOL     OW48094   7.170   2.598   4.575 -0.3094 -0.2691 -0.3266
15452SOL    HW148095   7.142   2.574   4.663  2.1722 -0.9641  0.3648
15452SOL    HW248096   7.111   2.669   4.549 -2.9823 -2.0049  0.6643
15453SOL     OW48097   5.824   6.213   8.332 -0.2100 -0.0094  0.4071
15453SOL    HW148098   5.887   6.145   8.308 -1.3337 -0.9705  0.0462
15453SOL    HW248099   5.807   6.198   8.425 -1.1524 -0.8532  0.1186
15454SOL     OW48100   2.280   0.325   5.134 -0.0742  0.0106  0.2774
15454SOL    HW148101   2.193   0.336   5.095  0.3588  0.5386 -0.5828
15454SOL    HW248102   2.340   0.352   5.064  0.7336  1.1505  1.3738
15455SOL     OW48103   3.538   0.542   6.397  0.2478 -0.1312 -0.2921
15455SOL    HW148104   3.547   0.449   6.414  0.1133 -0.0876  0.0313
15455SOL    HW248105   3.501   0.578   6.478  1.4416  0.3944  0.0488
15456SOL     OW48106   8.560   2.491   8.339  0.5605 -0.0399 -0.2063
15456SOL    HW148107   8.599   2.403   8.344  2.4436  0.6249 -2.0354
15456SOL    HW248108   8.473   2.480   8.376  0.5486 -2.8056 -0.8304
15457SOL     OW48109   3.785   3.019   7.411 -0.9400  0.7155  0.2643
15457SOL    HW148110   3.763   2.993   7.500 -1.5060  0.6795  0.1159
15457SOL    HW248111   3.724   3.089   7.390  0.8330  2.5153  0.8088
15458SOL     OW48112   2.880   8.425   7.942  0.3172 -0.4099 -0.4501
15458SOL    HW148113   2.808   8.470   7.987  0.2980 -0.0347 -0.8529
15458SOL    HW248114   2.957   8.479   7.960  0.0396  0.6585 -2.1744
15459SOL     OW48115   3.390   2.965   4.218  0.7089 -0.2240 -0.4464
15459SOL    HW148116   3.358   2.943   4.306 -1.7211  0.5468 -1.0396
15459SOL    HW248117   3.420   3.055   4.225  0.1611 -0.0333 -0.4504
15460SOL     OW48118   1.092   0.901   5.237 -0.2667  0.6080 -0.4237
15460SOL    HW148119   1.075   0.807   5.230 -1.3630  0.6430  1.2002
15460SOL    HW248120   1.146   0.921   5.161  2.3386 -1.8834  0.5804
15461SOL     OW48121   6.123   0.203   5.644 -0.3089 -0.5899  0.8853
15461SOL    HW148122   6.100   0.279   5.591  1.4728  0.3782  1.3934
15461SOL    HW248123   6.073   0.214   5.725 -1.6510 -1.1088  0.1532
15462SOL     OW48124   1.964   7.687   6.664  0.5854 -0.3894 -0.3496
15462SOL    HW148125   2.004   7.628   6.728 -0.3235 -1.2268 -0.5300
15462SOL    HW248126   1.878   7.708   6.701  0.1665 -0.6599 -1.1480
15463SOL     OW48127   4.839   8.801   7.105  0.1018  0.0857 -0.1336
15463SOL    HW148128   4.763   8.855   7.125  0.3377  0.1924  0.4817
15463SOL    HW248129   4.913   8.849   7.142  0.4456 -0.1345 -0.5185
15464SOL     OW48130   3.723   1.512   7.529 -0.6618 -0.1917  0.4586
15464SOL    HW148131   3.802   1.458   7.520 -0.4259  0.3381 -0.8426
15464SOL    HW248132   3.723   1.538   7.621  1.8412  1.4927  0.0848
15465SOL     OW48133   5.857   9.226   4.412 -0.5452 -0.0427 -0.4650
15465SOL    HW148134   5.768   9.227   4.378  0.0464  0.5772 -2.0866
15465SOL    HW248135   5.912   9.213   4.335  1.0348  4.0340 -0.2433
15466SOL     OW48136   8.972   3.672   1.023  0.1598 -0.0006  0.4955
15466SOL    HW148137   8.958   3.581   1.052 -0.8443 -0.4495 -1.2504
15466SOL    HW248138   8.954   3.725   1.101 -0.9627 -1.2159  1.1036
15467SOL     OW48139   4.723   1.276   0.430  0.1132  0.2976 -0.8815
15467SOL    HW148140   4.680   1.220   0.495  1.6474  0.1500  0.0562
15467SOL    HW248141   4.790   1.220   0.391  0.0454  0.7724 -1.7184
15468SOL     OW48142   7.146   9.275   5.909 -0.0605 -0.0323  0.5867
15468SOL    HW148143   7.102   9.191   5.925 -0.3496 -0.0901 -0.4760
15468SOL    HW248144   7.110   9.306   5.826  1.0098  0.5056  0.3045
15469SOL     OW48145   5.087   1.822   8.181 -0.2195  0.0745  0.5560
15469SOL    HW148146   5.121   1.871   8.255 -1.1731  1.3183  0.2169
15469SOL    HW248147   5.134   1.857   8.105 -1.6060  1.2599  0.1833
15470SOL     OW48148   3.501   9.156   0.879 -0.1691 -0.4022  0.1423
15470SOL    HW148149   3.434   9.090   0.865  0.1938 -0.8457  0.4841
15470SOL    HW248150   3.511   9.199   0.794 -0.9589 -0.2554  0.1175
15471SOL     OW48151   9.433   9.152   2.046 -0.2142 -0.3175 -0.2745
15471SOL    HW148152   9.354   9.206   2.038  0.9180  1.3121 -1.1717
15471SOL    HW248153   9.488   9.199   2.109  0.5688 -0.7061 -0.6535
15472SOL     OW48154   5.291   6.835   0.828 -0.2918 -0.1310 -0.5297
15472SOL    HW148155   5.300   6.755   0.881 -1.4306  0.3025  0.3543
15472SOL    HW248156   5.233   6.809   0.757 -0.2861 -0.2110 -0.5058
15473SOL     OW48157   7.547   6.152   1.345 -0.5351 -0.1440 -0.3990
15473SOL    HW148158   7.516   6.148   1.254 -0.0886 -0.0094 -0.5601
15473SOL    HW248159   7.554   6.245   1.363 -1.8663 -0.1422  0.2127
15474SOL     OW48160   0.499   7.071   9.598  0.0645  0.0965  0.2464
15474SOL    HW148161   0.406   7.071   9.574 -0.2894 -0.5394  1.4757
15474SOL    HW248162   0.546   7.090   9.517 -1.1740  1.2286 -0.2380
15475SOL     OW48163   1.142   7.760   6.866  0.1313  0.5275 -0.4471
15475SOL    HW148164   1.142   7.678   6.816 -2.6823  1.4761 -2.2276
15475SOL    HW248165   1.188   7.823   6.810  2.5941  0.1973  1.0673
15476SOL     OW48166   2.186   8.408   3.258 -0.1688  0.0484  0.0217
15476SOL    HW148167   2.272   8.375   3.231 -0.4526  0.4442 -1.4326
15476SOL    HW248168   2.187   8.400   3.354  1.2731 -0.4594 -0.0035
15477SOL     OW48169   8.876   0.350   9.045  0.0831 -0.4851 -0.6148
15477SOL    HW148170   8.944   0.417   9.043 -0.5463  0.1763 -0.4102
15477SOL    HW248171   8.913   0.276   8.996  0.3139  0.4674 -1.9354
15478SOL     OW48172   2.226   4.975   4.766 -0.4510 -0.2624  0.0824
15478SOL    HW148173   2.182   5.058   4.784 -1.9983 -0.7989 -1.0579
15478SOL    HW248174   2.211   4.960   4.673  2.5689 -0.2789 -0.5119
15479SOL     OW48175   8.433   1.271   8.150 -0.5938 -0.1858 -0.5931
15479SOL    HW148176   8.410   1.180   8.168 -0.9459 -0.0611 -0.4184
15479SOL    HW248177   8.431   1.314   8.235 -0.1731 -0.0681 -0.6381
15480SOL     OW48178   2.688   2.601   8.240 -0.1419 -0.0177  0.3728
15480SOL    HW148179   2.608   2.548   8.234  0.4905 -0.8484 -1.8779
15480SOL    HW248180   2.682   2.661   8.166  0.7826  0.7252  0.8816
15481SOL     OW48181   2.770   0.339   9.455  0.5686 -0.1088 -0.2449
15481SOL    HW148182   2.802   0.429   9.462  1.2618 -0.3091 -0.6921
15481SOL    HW248183   2.676   0.345   9.472  1.1193  0.1852  3.3481
15482SOL     OW48184   2.837   6.062   4.317 -0.8957  0.1173 -0.1157
15482SOL    HW148185   2.830   6.121   4.392  1.9426 -1.1254  1.2977
15482SOL    HW248186   2.751   6.022   4.310 -1.0900 -0.2781  3.0070
15483SOL     OW48187   4.927   4.246   0.099 -0.7381 -0.0711  1.2622
15483SOL    HW148188   4.893   4.157   0.111 -2.7878  0.2046 -1.5237
15483SOL    HW248189   4.855   4.303   0.127 -0.2803  0.6831  0.9170
15484SOL     OW48190   6.831   8.290   2.458  0.0068 -0.0974  0.4212
15484SOL    HW148191   6.751   8.299   2.406 -0.1308  0.0633  0.6638
15484SOL    HW248192   6.806   8.234   2.531 -0.4532  1.6759  1.6854
15485SOL     OW48193   2.276   8.332   5.901  0.0571  0.0304  0.2730
15485SOL    HW148194   2.266   8.248   5.856 -2.6567  0.1824  0.4420
15485SOL    HW248195   2.298   8.309   5.991 -3.2653 -0.7199  1.0091
15486SOL     OW48196   8.969   6.570   1.904 -0.2363  0.5799  0.4470
15486SOL    HW148197   8.975   6.665   1.908 -1.6382  0.6501  2.5463
15486SOL    HW248198   8.892   6.549   1.957 -0.6189 -1.6614 -0.8754
15487SOL     OW48199   8.797   0.826   0.625  0.4788  0.4626  0.6648
15487SOL    HW148200   8.889   0.813   0.648  0.8133  0.8195 -0.4033
15487SOL    HW248201   8.752   0.831   0.709  0.9822 -2.6379  1.2657
15488SOL     OW48202   3.798   3.091   3.726 -0.1340  0.2152 -0.1419
15488SOL    HW148203   3.711   3.050   3.724  1.0431 -2.4495 -1.5128
15488SOL    HW248204   3.851   3.033   3.780  1.8162 -0.6452 -2.7586
15489SOL     OW48205   6.414   7.198   6.394  0.2364  0.4622  0.2079
15489SOL    HW148206   6.443   7.260   6.328 -0.8987  0.1789 -0.5805
15489SOL    HW248207   6.356   7.249   6.451 -0.2041  0.2911 -0.0781
15490SOL     OW48208   3.327   4.158   8.688  0.0247  0.1969  0.0940
15490SOL    HW148209   3.309   4.250   8.706  2.0768  0.5792  0.5094
15490SOL    HW248210   3.322   4.150   8.593 -2.2595  0.2068  0.1705
15491SOL     OW48211   5.672   6.914   8.694  0.2287  0.8262 -0.3711
15491SOL    HW148212   5.705   7.002   8.673  0.5615  1.3404  2.0255
15491SOL    HW248213   5.750   6.866   8.722 -0.2191  0.3229  0.0224
15492SOL     OW48214   3.022   3.224   6.615 -0.1901  0.0615 -0.0860
15492SOL    HW148215   3.048   3.277   6.539 -1.1433  0.5508 -0.0844
15492SOL    HW248216   3.098   3.168   6.632  0.9200  1.5238  0.0020
15493SOL     OW48217   1.583   4.426   1.118  0.1902 -0.1447  0.4106
15493SOL    HW148218   1.658   4.389   1.164  0.9789  1.4573  0.4946
15493SOL    HW248219   1.528   4.462   1.188 -0.3418 -0.7303  0.3045
15494SOL     OW48220   1.079   6.767   8.366  0.2533 -0.0290 -0.2687
15494SOL    HW148221   1.164   6.733   8.394 -0.3338 -0.1471  1.5619
15494SOL    HW248222   1.052   6.709   8.295  0.4349 -1.8822  1.0802
15495SOL     OW48223   2.353   0.033   2.725  0.4228 -0.2911 -0.5475
15495SOL    HW148224   2.370  -0.045   2.672 -0.1445  0.5830 -2.0719
15495SOL    HW248225   2.281   0.078   2.680  1.3451  1.5851 -0.2556
15496SOL     OW48226   9.442   7.674   6.192 -0.1851 -0.1363  0.2313
15496SOL    HW148227   9.391   7.642   6.267 -2.6604 -0.9239 -1.6388
15496SOL    HW248228   9.494   7.599   6.165 -0.6697 -0.4230  0.0800
15497SOL     OW48229   0.907   0.041   2.448 -0.4333  0.4037 -0.3081
15497SOL    HW148230   0.932   0.124   2.409 -1.3747  0.2462 -1.2633
15497SOL    HW248231   0.991  -0.004   2.463  0.0126  1.0048 -0.9315
15498SOL     OW48232   0.483   6.184   0.073  0.0562 -0.2956 -0.2274
15498SOL    HW148233   0.390   6.201   0.086  0.1640  0.3904 -0.3019
15498SOL    HW248234   0.493   6.090   0.088 -0.5886 -0.3153  0.1061
15499SOL     OW48235   0.235   0.201   8.350  0.6298  0.1607  0.2615
15499SOL    HW148236   0.193   0.268   8.297  0.1925 -0.6559 -0.4402
15499SOL    HW248237   0.326   0.230   8.357  0.2193  1.3897  0.9039
15500SOL     OW48238   4.820   2.931   3.072 -0.0417 -0.5282 -0.2214
15500SOL    HW148239   4.808   2.906   3.164  1.3189  1.5097  0.5703
15500SOL    HW248240   4.731   2.953   3.042 -0.7845 -2.9064 -0.0079
15501SOL     OW48241   7.683   1.906   0.514  0.1358  0.2772  0.1271
15501SOL    HW148242   7.698   1.861   0.597 -0.6304  0.2302  0.2430
15501SOL    HW248243   7.748   1.977   0.514  0.9982 -0.4867  0.1795
15502SOL     OW48244   6.576   4.333   2.138 -0.0817 -0.3920  0.3805
15502SOL    HW148245   6.649   4.376   2.184 -0.3780  0.3707  0.1538
15502SOL    HW248246   6.521   4.299   2.208 -0.1443  0.1159  0.5841
15503SOL     OW48247   6.806   8.093   2.715 -0.2150 -0.5570 -0.3086
15503SOL    HW148248   6.766   8.007   2.698 -0.0850 -0.7773  0.4605
15503SOL    HW248249   6.743   8.137   2.772 -0.2934 -0.1257 -0.7265
15504SOL     OW48250   4.519   3.369   8.351  0.4348 -0.3589  0.1908
15504SOL    HW148251   4.528   3.332   8.263  1.5802  2.2100 -0.8701
15504SOL    HW248252   4.607   3.395   8.375 -0.3282  2.0971  0.6040
15505SOL     OW48253   1.078   0.519   1.232  0.2727  0.2249  0.0009
15505SOL    HW148254   1.054   0.584   1.299  0.1330  0.8972 -0.6865
15505SOL    HW248255   1.048   0.558   1.150  1.5555 -0.0354 -0.6036
15506SOL     OW48256   0.710   3.666   1.764 -0.0161 -0.3533 -0.0869
15506SOL    HW148257   0.678   3.653   1.675 -0.6188 -1.0472  0.2216
15506SOL    HW248258   0.728   3.577   1.796 -1.4948 -0.2622  1.0928
15507SOL     OW48259   4.332   7.832   3.153  0.2060  0.3140 -0.6404
15507SOL    HW148260   4.365   7.749   3.118  1.0288  0.0073  0.7788
15507SOL    HW248261   4.396   7.857   3.219 -0.8362  1.3031  0.0342
15508SOL     OW48262   8.335   2.152   6.765 -0.3710  0.6739 -0.3906
15508SOL    HW148263   8.336   2.067   6.721  0.9975 -0.1225  1.0991
15508SOL    HW248264   8.426   2.180   6.767 -0.3965  0.7892  1.6610
15509SOL     OW48265   9.218   0.944   8.726 -0.5457  0.3919 -0.6777
15509SOL    HW148266   9.195   1.034   8.703  1.3937  1.3176  0.6891
15509SOL    HW248267   9.185   0.891   8.654 -1.6854  2.2059 -1.5445
15510SOL     OW48268   8.486   6.485   0.048  0.7405 -0.5402 -0.2297
15510SOL    HW148269   8.468   6.466  -0.044  2.3935 -0.7412 -0.5453
15510SOL    HW248270   8.490   6.399   0.089  0.5758 -0.4760 -0.0779
15511SOL     OW48271   1.349   8.003   1.676  0.1999  0.0192 -0.4857
15511SOL    HW148272   1.272   7.966   1.634  1.0932 -1.1543 -1.1566
15511SOL    HW248273   1.412   8.015   1.605  1.1353 -0.4018  0.2503
15512SOL     OW48274   9.311   7.272   6.792  0.2003  0.3371  0.7577
15512SOL    HW148275   9.387   7.326   6.767 -0.3574  0.8508  0.1340
15512SOL    HW248276   9.346   7.210   6.855  0.9072  1.3201  1.3695
15513SOL     OW48277   9.357   1.469   2.204  0.0418 -0.2568  0.0736
15513SOL    HW148278   9.395   1.464   2.117  1.1717  0.7290  0.4845
15513SOL    HW248279   9.280   1.525   2.193 -0.1850 -0.6586 -0.4018
15514SOL     OW48280   1.086   0.227   5.288  0.3669 -0.7756 -0.5487
15514SOL    HW148281   1.037   0.213   5.369 -0.6028 -1.7400 -1.2736
15514SOL    HW248282   1.168   0.267   5.316  0.1006 -1.2101  0.9240
15515SOL     OW48283   2.537   1.031   3.124 -0.0226  0.0294 -0.2295
15515SOL    HW148284   2.457   0.978   3.117  0.5059 -0.9258  0.6556
15515SOL    HW248285   2.584   1.014   3.043  1.2553 -2.7985  0.9886
15516SOL     OW48286   2.330   3.948   7.690 -0.0766  0.0220 -0.1794
15516SOL    HW148287   2.298   3.958   7.780 -0.0408  1.3684 -0.2864
15516SOL    HW248288   2.416   3.906   7.700 -0.5563 -0.8648  0.3266
15517SOL     OW48289   4.795   0.550   1.711  0.0465 -0.0442 -0.2428
15517SOL    HW148290   4.779   0.638   1.676 -0.3990  0.0301  0.1432
15517SOL    HW248291   4.716   0.529   1.760 -0.4869 -1.2774 -1.5604
15518SOL     OW48292   8.866   1.443   3.773  0.4818 -0.0769 -0.0415
15518SOL    HW148293   8.868   1.432   3.868  1.0458  0.4616  0.0120
15518SOL    HW248294   8.925   1.375   3.740  0.2930 -0.2579 -0.0144
15519SOL     OW48295   8.052   1.679   9.484 -0.0059 -0.2541 -0.2244
15519SOL    HW148296   8.080   1.626   9.410 -1.0305  1.1241 -1.6766
15519SOL    HW248297   8.043   1.768   9.448  0.1707  0.6118  1.7277
15520SOL     OW48298   5.851   3.650   1.501 -0.4162 -0.5155  0.4195
15520SOL    HW148299   5.857   3.739   1.534 -1.0179 -0.6770  0.9864
15520SOL    HW248300   5.816   3.599   1.575 -1.8550 -0.8750 -0.4645
15521SOL     OW48301   0.941   5.709   4.858  0.1941  0.0109 -0.3834
15521SOL    HW148302   0.871   5.662   4.813 -0.2198 -0.4850  0.7635
15521SOL    HW248303   0.962   5.782   4.799  0.1089 -0.9672 -1.6860
15522SOL     OW48304   2.809   6.233   3.036  0.6785 -0.1003  0.3850
15522SOL    HW148305   2.874   6.175   3.074  0.7399  0.2280  0.7949
15522SOL    HW248306   2.768   6.276   3.112  1.7517  1.6047  0.0580
15523SOL     OW48307   2.630   4.120   7.188 -0.2465  0.2273 -0.0764
15523SOL    HW148308   2.590   4.202   7.160  1.5334  0.9606 -0.5680
15523SOL    HW248309   2.589   4.053   7.133 -1.1082  0.8823 -0.2487
15524SOL     OW48310   2.316   6.559   7.472 -0.4439 -0.0316  0.1610
15524SOL    HW148311   2.366   6.483   7.502  2.1422  1.5174  0.0990
15524SOL    HW248312   2.382   6.627   7.459 -2.7446  2.5960  1.2482
15525SOL     OW48313   4.189   2.843   4.490 -0.5073 -0.4890 -0.1902
15525SOL    HW148314   4.106   2.840   4.443 -0.1749 -0.8560 -0.7588
15525SOL    HW248315   4.230   2.924   4.461 -0.1638 -0.8692 -0.7749
15526SOL     OW48316   3.365   6.173   2.895 -0.2034 -0.0291 -0.4714
15526SOL    HW148317   3.287   6.120   2.873 -1.1227  1.1263 -0.0981
15526SOL    HW248318   3.421   6.165   2.817 -2.7951  2.8842 -2.9070
15527SOL     OW48319   4.212   9.251   6.719 -0.1467  0.2746  0.0641
15527SOL    HW148320   4.220   9.333   6.768  2.0809  2.0758 -2.9821
15527SOL    HW248321   4.296   9.207   6.732 -0.7201 -0.7814  0.3362
15528SOL     OW48322   4.918   7.691   3.304  0.2287  0.1729 -0.4528
15528SOL    HW148323   4.971   7.770   3.294 -0.5825  0.8352  0.2954
15528SOL    HW248324   4.945   7.655   3.388 -0.1392  0.2287 -0.3107
15529SOL     OW48325   3.428   8.839   9.475 -0.1716 -0.2331 -0.2432
15529SOL    HW148326   3.407   8.746   9.483 -0.8970 -0.2049 -1.5303
15529SOL    HW248327   3.361   8.874   9.417  0.4145  0.9885 -0.2167
15530SOL     OW48328   0.135   8.648   4.510  0.0264 -0.3542 -0.2998
15530SOL    HW148329   0.045   8.678   4.492 -0.0999 -0.8033 -0.4154
15530SOL    HW248330   0.188   8.727   4.500 -0.5223  0.2219  1.1219
15531SOL     OW48331   7.014   9.136   2.727 -0.1334  0.0436  0.3318
15531SOL    HW148332   7.045   9.135   2.637 -1.2759  0.3286 -0.0791
15531SOL    HW248333   6.919   9.137   2.720 -0.2399  0.0423  1.5444
15532SOL     OW48334   4.174   9.336   6.428  0.2177  0.1242 -0.4392
15532SOL    HW148335   4.206   9.420   6.397 -1.7143  0.4793 -1.6609
15532SOL    HW248336   4.220   9.321   6.510  1.5884  1.7114 -0.8722
15533SOL     OW48337   2.187   7.369   8.752 -0.0607  0.0353  0.2118
15533SOL    HW148338   2.216   7.389   8.841 -2.9700  0.7754  1.1357
15533SOL    HW248339   2.262   7.387   8.696  1.5255  0.5802  2.4162
15534SOL     OW48340   2.261   0.523   9.268 -0.0770 -0.0935  0.3955
15534SOL    HW148341   2.228   0.434   9.259 -2.1231  0.6096  0.4541
15534SOL    HW248342   2.250   0.544   9.361  0.1185  0.3208  0.3301
15535SOL     OW48343   0.344   3.433   2.841 -0.1129 -0.0020 -0.3215
15535SOL    HW148344   0.259   3.430   2.798 -1.3412  0.7623  1.8626
15535SOL    HW248345   0.384   3.349   2.823 -1.6810 -0.6763 -0.7887
15536SOL     OW48346   6.612   5.614   5.675  0.6220 -0.3699 -0.1220
15536SOL    HW148347   6.680   5.565   5.628  1.5569 -0.4790  1.2740
15536SOL    HW248348   6.602   5.566   5.757  1.1997  1.4849  1.0699
15537SOL     OW48349   9.425   9.167   1.354  0.0682  1.2017 -0.0559
15537SOL    HW148350   9.417   9.081   1.396  2.0840  0.6868 -0.6337
15537SOL    HW248351   9.366   9.162   1.279 -2.4749  1.6233  1.7605
15538SOL     OW48352   1.968   5.783   0.919 -0.0773  0.7526  0.5052
15538SOL    HW148353   1.933   5.696   0.902  0.6635  0.5326  0.0455
15538SOL    HW248354   1.891   5.838   0.934 -0.5546  0.0447  0.6807
15539SOL     OW48355   4.634   3.770   4.606 -0.2613 -0.0867 -0.0246
15539SOL    HW148356   4.581   3.840   4.569  0.0976  0.1151 -0.1629
15539SOL    HW248357   4.570   3.708   4.642 -0.5788  1.0217  1.4214
15540SOL     OW48358   7.148   8.540   7.637 -0.2430 -0.4280 -0.2546
15540SOL    HW148359   7.053   8.530   7.632 -0.4535  1.2410 -0.0528
15540SOL    HW248360   7.172   8.581   7.554  0.7829 -3.7857 -1.7617
15541SOL     OW48361   6.331   1.105   3.224 -0.1783  0.3031  0.3141
15541SOL    HW148362   6.237   1.119   3.213 -0.5203 -0.5366  1.8374
15541SOL    HW248363   6.343   1.011   3.213  0.2739  0.2278  1.3088
15542SOL     OW48364   7.119   7.201   3.975  0.1374 -0.7515  0.2645
15542SOL    HW148365   7.084   7.287   3.950  0.8853 -0.8178 -1.1437
15542SOL    HW248366   7.042   7.146   3.985 -0.3294 -0.0191  0.7688
15543SOL     OW48367   8.840   2.528   1.492 -0.3889 -0.3563  0.0796
15543SOL    HW148368   8.894   2.461   1.450 -0.1687 -0.1129 -0.0285
15543SOL    HW248369   8.810   2.487   1.573  0.7534 -0.1627  0.6225
15544SOL     OW48370   1.299   4.375   7.801  0.1222  0.3333  0.2737
15544SOL    HW148371   1.207   4.392   7.819  0.2612  1.6429 -0.1585
15544SOL    HW248372   1.346   4.413   7.876  0.3235 -0.3529  0.5073
15545SOL     OW48373   1.023   1.507   2.632 -0.3407  0.1465  0.2015
15545SOL    HW148374   1.113   1.534   2.648 -0.6712  0.8296  0.9726
15545SOL    HW248375   0.991   1.568   2.566 -0.6559  0.7916  0.9341
15546SOL     OW48376   9.542   3.368   8.769  0.6904 -0.3834  0.3675
15546SOL    HW148377   9.494   3.357   8.851 -0.3585  0.0173 -0.1618
15546SOL    HW248378   9.499   3.308   8.708 -0.2382  1.1279 -0.5483
15547SOL     OW48379   7.325   5.164   8.623 -0.3017  0.4807  0.0055
15547SOL    HW148380   7.420   5.157   8.628 -0.4228 -1.4807  0.3122
15547SOL    HW248381   7.299   5.210   8.703  0.4676  2.8520 -1.0002
15548SOL     OW48382   3.525   6.979   3.900 -0.2961  0.1777 -0.4282
15548SOL    HW148383   3.595   7.044   3.892 -0.6101  0.4176 -1.3201
15548SOL    HW248384   3.570   6.896   3.916  0.1051  0.6392  1.0978
15549SOL     OW48385   3.025   2.364   6.955 -0.3972  0.5685 -0.0809
15549SOL    HW148386   3.108   2.397   6.991  0.4254  0.1874 -1.5392
15549SOL    HW248387   3.044   2.273   6.931 -1.8461 -0.1542  1.3774
15550SOL     OW48388   5.518   1.955   5.836 -0.4850  0.0324 -0.1530
15550SOL    HW148389   5.566   1.997   5.908 -0.5560 -0.1461 -0.0023
15550SOL    HW248390   5.578   1.889   5.802 -1.2318 -1.3402  1.1094
15551SOL     OW48391   6.420   8.405   4.065 -0.0290 -0.1985  0.2958
15551SOL    HW148392   6.511   8.417   4.037  0.2495 -0.4328  1.0830
15551SOL    HW248393   6.426   8.369   4.153 -0.9014  0.5944  0.6906
15552SOL     OW48394   1.057   1.207   7.187 -0.3916 -0.9983 -0.6169
15552SOL    HW148395   1.086   1.257   7.111 -0.9331 -0.0416 -0.2294
15552SOL    HW248396   0.964   1.192   7.172 -0.6932 -0.0801  0.2108
15553SOL     OW48397   0.322   1.402   6.813 -0.0372 -0.0924  0.4443
15553SOL    HW148398   0.307   1.496   6.799 -3.3939 -0.3927  1.0957
15553SOL    HW248399   0.412   1.396   6.844  0.0290  3.0148  1.1707
15554SOL     OW48400   6.428   0.085   0.955 -0.4310 -0.6736  0.4395
15554SOL    HW148401   6.351   0.030   0.970 -0.8389  0.3560  2.5335
15554SOL    HW248402   6.435   0.138   1.034  0.2551  1.9185 -1.2332
15555SOL     OW48403   9.087   6.627   4.998 -0.6419 -0.5021  0.2586
15555SOL    HW148404   9.060   6.583   4.917 -0.6984  0.4492 -0.2527
15555SOL    HW248405   9.069   6.720   4.982  2.5548  0.1744  0.0386
15556SOL     OW48406   7.067   2.112   2.149 -0.0613 -0.6271  0.4831
15556SOL    HW148407   6.991   2.151   2.106  0.8200 -0.0076 -0.5542
15556SOL    HW248408   7.057   2.018   2.134 -0.7571 -0.5744  0.5939
15557SOL     OW48409   9.456   8.077   9.451  0.4187 -0.4969 -0.4020
15557SOL    HW148410   9.412   8.121   9.378  0.4966  2.0697  0.9846
15557SOL    HW248411   9.418   7.990   9.453 -1.5042  0.2430 -1.8647
15558SOL     OW48412   0.529   3.406   6.265  0.3911 -0.6670 -0.3059
15558SOL    HW148413   0.621   3.383   6.273  0.8540  0.6249 -1.5826
15558SOL    HW248414   0.494   3.396   6.354  1.6255 -1.6590  0.0908
15559SOL     OW48415   8.914   2.526   3.289  0.1895 -0.0718 -0.1719
15559SOL    HW148416   8.823   2.523   3.316 -0.3071  0.6372 -1.6560
15559SOL    HW248417   8.916   2.591   3.218  1.8479 -0.0376 -0.1325
15560SOL     OW48418   0.260   7.185   1.416 -0.3935  0.4353 -0.7270
15560SOL    HW148419   0.339   7.143   1.382 -0.6839  1.1642 -2.3911
15560SOL    HW248420   0.215   7.116   1.465  1.3610  0.0692  0.4542
15561SOL     OW48421   0.994   3.528   0.431 -0.2255  0.1250  0.0774
15561SOL    HW148422   0.963   3.505   0.343 -1.5379  0.3218  0.4748
15561SOL    HW248423   1.003   3.624   0.428  0.3816  0.0697 -0.0362
15562SOL     OW48424   5.615   7.722   2.402  0.0599 -0.4422 -0.2711
15562SOL    HW148425   5.612   7.626   2.402  2.7638 -0.6018  0.1752
15562SOL    HW248426   5.523   7.749   2.398 -0.9329 -3.0455  1.8024
15563SOL     OW48427   5.710   0.016   4.061  0.3149 -0.0949 -0.6321
15563SOL    HW148428   5.786  -0.018   4.107 -0.0848 -1.3007 -0.8461
15563SOL    HW248429   5.660  -0.061   4.035 -1.2070  0.6750 -0.1315
15564SOL     OW48430   1.926   2.113   4.742  0.7329 -0.0010 -0.3459
15564SOL    HW148431   1.983   2.169   4.794 -0.6957  2.0375 -0.8702
15564SOL    HW248432   1.839   2.125   4.779  0.1259 -0.5881 -1.5021
15565SOL     OW48433   9.235   7.414   7.181  0.1493  0.0207  0.5923
15565SOL    HW148434   9.212   7.322   7.187  0.2066  0.0274  0.8849
15565SOL    HW248435   9.176   7.458   7.242  1.4646 -0.0440  1.9550
15566SOL     OW48436   6.004   9.331   7.834  0.2087 -0.3196 -0.3149
15566SOL    HW148437   5.956   9.413   7.846 -0.1150 -0.7103  1.3518
15566SOL    HW248438   6.086   9.345   7.883  0.9432 -0.3659 -1.5050
15567SOL     OW48439   4.569   8.791   9.282 -0.4005  0.3250  0.1628
15567SOL    HW148440   4.488   8.767   9.327 -0.4055 -2.1812 -1.0170
15567SOL    HW248441   4.548   8.874   9.238 -2.5818 -0.5650 -0.6265
15568SOL     OW48442   2.974   9.487   0.409  0.2809 -0.2588 -0.3527
15568SOL    HW148443   3.031   9.424   0.453  1.6191 -0.0711 -1.7479
15568SOL    HW248444   3.019   9.571   0.418 -0.2199  0.0572 -0.7227
15569SOL     OW48445   4.588   9.406   1.865 -0.0274 -0.1778 -0.9755
15569SOL    HW148446   4.581   9.432   1.957  2.0526 -1.2748 -0.4287
15569SOL    HW248447   4.615   9.486   1.819  0.6386 -0.0076 -0.3114
15570SOL     OW48448   7.196   1.373   7.181  0.3620 -0.4374 -0.7054
15570SOL    HW148449   7.102   1.367   7.162  0.6410  0.3496 -2.4917
15570SOL    HW248450   7.210   1.309   7.251 -1.6098 -0.1134  0.0637
15571SOL     OW48451   4.595   1.535   3.194  0.7094 -0.2517 -0.6466
15571SOL    HW148452   4.663   1.564   3.255 -1.3105  0.5490  1.3791
15571SOL    HW248453   4.522   1.507   3.250 -0.6452 -1.0753 -2.6932
15572SOL     OW48454   7.923   7.728   2.216 -0.4952  0.2906  0.4424
15572SOL    HW148455   7.928   7.743   2.311 -2.4531  0.8266  0.4956
15572SOL    HW248456   7.913   7.815   2.178 -0.8994 -0.0124 -0.1564
15573SOL     OW48457   5.434   0.096   8.672  0.6888 -0.8082 -0.4197
15573SOL    HW148458   5.450   0.183   8.637  1.5123 -0.6783  0.2503
15573SOL    HW248459   5.386   0.051   8.603 -0.1295  0.3046 -0.6041
15574SOL     OW48460   6.981   5.145   2.940  0.4419 -0.2297  0.2909
15574SOL    HW148461   7.016   5.062   2.909  1.1631  0.4997 -0.9468
15574SOL    HW248462   7.056   5.188   2.982  0.5029  0.4443 -0.4830
15575SOL     OW48463   4.971   6.524   4.483  0.4153  0.6756  0.0906
15575SOL    HW148464   5.009   6.607   4.452  3.1557 -0.7502 -0.7040
15575SOL    HW248465   5.007   6.513   4.571  1.9013 -0.6433 -0.6266
15576SOL     OW48466   9.055   3.780   2.718 -0.1521 -0.3127  0.2352
15576SOL    HW148467   9.102   3.786   2.801 -1.0185  0.2820  0.7013
15576SOL    HW248468   9.029   3.870   2.698  1.8421 -0.1026 -1.7887
15577SOL     OW48469   1.076   7.981   1.298 -0.3561 -0.2046 -0.2366
15577SOL    HW148470   1.029   7.927   1.233 -0.1762 -1.3238  0.5288
15577SOL    HW248471   1.122   8.046   1.245 -2.1184  0.4330 -1.0654
15578SOL     OW48472   4.570   4.379   7.191 -0.8610 -0.2605  0.6623
15578SOL    HW148473   4.512   4.309   7.163 -1.8230 -0.3993  2.8215
15578SOL    HW248474   4.570   4.374   7.287  2.1606  0.2004  0.7870
15579SOL     OW48475   1.203   4.179   2.661 -0.3877  0.2085 -0.5669
15579SOL    HW148476   1.136   4.235   2.622 -0.4563 -0.3958 -1.3263
15579SOL    HW248477   1.283   4.201   2.614 -0.2127  0.3487 -0.2095
15580SOL     OW48478   8.021   5.031   8.602 -0.8130  0.3544  0.6580
15580SOL    HW148479   8.095   4.985   8.562  0.3684  0.9015  2.0998
15580SOL    HW248480   8.033   5.018   8.696 -2.5818  0.4578  0.9328
15581SOL     OW48481   5.749   3.872   5.324 -0.4401 -0.1971  0.6327
15581SOL    HW148482   5.660   3.849   5.351 -1.1043  1.1707 -0.3242
15581SOL    HW248483   5.739   3.911   5.237  1.4608 -3.0061 -1.0172
15582SOL     OW48484   8.884   3.827   5.147 -0.3865 -0.0713  0.4302
15582SOL    HW148485   8.853   3.885   5.078 -1.3860 -0.3307  0.6359
15582SOL    HW248486   8.806   3.811   5.202 -0.1558 -1.5893  0.3747
15583SOL     OW48487   2.280   5.220   9.440  0.2104  0.0846  0.7116
15583SOL    HW148488   2.275   5.271   9.360 -1.6718 -1.1294 -0.0115
15583SOL    HW248489   2.320   5.137   9.413  1.4004  0.3882  1.4585
15584SOL     OW48490   7.333   4.298   6.765 -0.0019  0.6026 -0.0997
15584SOL    HW148491   7.318   4.220   6.818 -0.8884  1.2881  0.6849
15584SOL    HW248492   7.320   4.269   6.675 -2.6223  0.3100  0.3015
15585SOL     OW48493   3.958   5.696   9.263 -0.0284 -0.7470  0.0298
15585SOL    HW148494   3.997   5.774   9.224 -0.9272  0.7773  1.9944
15585SOL    HW248495   4.026   5.661   9.321  0.1483 -1.0608 -0.3617
15586SOL     OW48496   6.933   1.698   1.045  0.6130 -0.3493 -0.2779
15586SOL    HW148497   6.984   1.701   1.126  1.5749 -0.6943 -0.8543
15586SOL    HW248498   6.989   1.651   0.983  0.0801  0.2914 -1.2709
15587SOL     OW48499   8.513   0.547   0.701  0.7640 -0.2330 -0.0199
15587SOL    HW148500   8.510   0.642   0.715  2.2135 -0.0508 -0.7412
15587SOL    HW248501   8.505   0.509   0.788 -2.6381  0.4009  0.0801
15588SOL     OW48502   3.355   0.174   1.334 -1.0256 -0.3072 -0.0223
15588SOL    HW148503   3.408   0.102   1.300  0.0789  0.4639  0.0244
15588SOL    HW248504   3.409   0.215   1.401 -1.9935  0.0374  0.5662
15589SOL     OW48505   9.235   3.079   4.894 -0.0440  0.1427 -0.2495
15589SOL    HW148506   9.309   3.026   4.924 -0.2854 -0.3241 -0.4748
15589SOL    HW248507   9.272   3.134   4.825 -0.0716 -0.6468 -0.9127
15590SOL     OW48508   8.191   2.763   7.387  0.0100  0.3861 -0.5254
15590SOL    HW148509   8.164   2.680   7.426  0.9586  0.1927 -0.2579
15590SOL    HW248510   8.217   2.818   7.461  3.4124 -0.5522 -0.8815
15591SOL     OW48511   3.646   7.838   4.489 -0.5213 -0.7338 -0.0697
15591SOL    HW148512   3.741   7.820   4.489 -0.4534 -0.6516  2.0398
15591SOL    HW248513   3.620   7.828   4.398  1.6519 -0.0620 -0.8451
15592SOL     OW48514   0.636   4.394   7.555 -0.1647 -0.0232  0.0443
15592SOL    HW148515   0.681   4.415   7.638 -3.0370 -0.1392  1.7628
15592SOL    HW248516   0.607   4.479   7.522 -0.2042 -0.1037 -0.1293
15593SOL     OW48517   7.765   3.795   4.248 -0.3330 -0.0224  0.2324
15593SOL    HW148518   7.803   3.877   4.282  2.4919 -1.4234  0.7527
15593SOL    HW248519   7.682   3.786   4.294 -0.4896  2.2594  0.5416
15594SOL     OW48520   7.528   6.951   0.224  0.4319 -0.0611 -0.1765
15594SOL    HW148521   7.439   6.933   0.193  0.5535 -1.2381  0.1269
15594SOL    HW248522   7.563   7.014   0.161 -0.5908  0.3627 -0.3386
15595SOL     OW48523   7.024   8.278   7.353 -0.2136  0.3672 -0.5582
15595SOL    HW148524   7.036   8.355   7.298  0.3891  0.1125 -0.7835
15595SOL    HW248525   7.004   8.313   7.440  1.2237  0.8083 -0.3784
15596SOL     OW48526   0.630   1.561   6.308  0.1510  0.0101  0.1970
15596SOL    HW148527   0.618   1.615   6.386 -0.8900 -1.1338  0.8676
15596SOL    HW248528   0.684   1.488   6.337  2.1441  0.9775 -0.8759
15597SOL     OW48529   3.266   0.381   6.232 -0.5365 -0.1451  0.0597
15597SOL    HW148530   3.245   0.473   6.221  0.4932 -0.0407 -1.2239
15597SOL    HW248531   3.361   0.379   6.241 -0.6801 -0.9150  2.2278
15598SOL     OW48532   2.533   7.634   3.487 -0.3998  0.2469 -0.0783
15598SOL    HW148533   2.467   7.658   3.553  1.5557 -0.3428  2.2537
15598SOL    HW248534   2.560   7.545   3.512 -0.8536 -0.7790 -2.8656
15599SOL     OW48535   8.264   9.459   4.736  0.6377 -0.4156 -0.0404
15599SOL    HW148536   8.326   9.467   4.808 -0.0273 -0.6538  0.5708
15599SOL    HW248537   8.273   9.368   4.706  1.4172 -0.1180 -0.7281
15600SOL     OW48538   3.090   9.066   4.486  0.4216 -0.4714 -0.2462
15600SOL    HW148539   3.125   9.136   4.430 -1.3787  0.1178 -0.7044
15600SOL    HW248540   3.063   8.998   4.425  1.9677 -1.5267  0.1881
15601SOL     OW48541   9.443   7.500   4.525  0.7821 -0.4599 -0.1478
15601SOL    HW148542   9.532   7.467   4.514  0.3809 -1.6654  0.0324
15601SOL    HW248543   9.432   7.564   4.455  0.7617 -2.5959 -2.2581
15602SOL     OW48544   1.463   0.347   4.109 -0.1179  0.1106  0.0809
15602SOL    HW148545   1.494   0.437   4.096 -0.7115  0.3118  0.0434
15602SOL    HW248546   1.466   0.334   4.204  0.3460  0.0284  0.0596
15603SOL     OW48547   5.860   7.273   4.230  0.0976 -0.4111  0.1267
15603SOL    HW148548   5.774   7.296   4.194  0.4475  2.3693  0.8347
15603SOL    HW248549   5.860   7.311   4.317  0.9882 -3.0324  1.3773
15604SOL     OW48550   8.733   4.023   9.390 -0.0011 -0.0707 -0.2327
15604SOL    HW148551   8.765   4.085   9.456  0.5547 -1.0403  0.4323
15604SOL    HW248552   8.760   3.937   9.423  1.1772 -0.5130 -2.2165
15605SOL     OW48553   4.303   8.647   5.797 -0.0765 -0.0033 -0.0420
15605SOL    HW148554   4.300   8.586   5.870 -0.4356  0.1838  0.1015
15605SOL    HW248555   4.326   8.593   5.721  2.6557  0.1337  0.5647
15606SOL     OW48556   5.199   6.880   5.967  0.0642 -0.3174  0.0257
15606SOL    HW148557   5.205   6.975   5.974 -0.4508 -0.1947 -1.0690
15606SOL    HW248558   5.112   6.864   5.930  0.0944 -1.2286  0.3176
15607SOL     OW48559   2.065   8.728   3.011  0.0687 -0.4791  0.2599
15607SOL    HW148560   1.987   8.739   3.064 -0.9515  0.6360 -1.3558
15607SOL    HW248561   2.137   8.758   3.067 -0.8274 -0.2456  1.3184
15608SOL     OW48562   7.049   1.597   3.477  0.3145 -0.1541  0.8117
15608SOL    HW148563   7.021   1.617   3.387 -0.9008 -0.3581  1.1238
15608SOL    HW248564   7.119   1.533   3.466 -0.2429 -0.6555  0.0105
15609SOL     OW48565   1.606   6.475   7.895 -0.1496  0.4489 -0.2727
15609SOL    HW148566   1.642   6.528   7.824 -2.8086  0.1891 -1.9530
15609SOL    HW248567   1.581   6.538   7.962  1.4319  0.7881  0.0512
15610SOL     OW48568   5.097   3.676   1.234  0.5586 -0.1237 -0.4413
15610SOL    HW148569   5.126   3.763   1.261  0.3198 -0.5384  1.2778
15610SOL    HW248570   5.174   3.620   1.248  0.5248 -0.3008 -0.9398
15611SOL     OW48571   3.067   5.976   6.858 -0.3384  0.2055 -0.4162
15611SOL    HW148572   3.007   5.952   6.928  0.7911 -0.9499  0.2001
15611SOL    HW248573   3.145   5.923   6.874  0.1282  0.2407 -2.2870
15612SOL     OW48574   1.902   1.476   9.583 -0.0439 -0.3205 -0.0833
15612SOL    HW148575   1.859   1.476   9.497 -0.2058 -1.0595 -0.0067
15612SOL    HW248576   1.830   1.470   9.646  0.0189  1.0260  0.1503
15613SOL     OW48577   1.970   6.831   3.925  0.4502 -0.7515 -0.2604
15613SOL    HW148578   1.956   6.812   3.832  1.6184  1.4247 -0.9491
15613SOL    HW248579   2.065   6.828   3.936  0.5260  1.6624  0.1785
15614SOL     OW48580   4.547   0.827   0.734 -0.0136 -0.1728  0.4966
15614SOL    HW148581   4.456   0.856   0.741 -0.4324 -1.3672  0.2777
15614SOL    HW248582   4.554   0.791   0.645  0.8123  0.3366  0.3398
15615SOL     OW48583   1.283   3.551   8.062 -0.0471  0.2564 -0.6586
15615SOL    HW148584   1.265   3.468   8.019 -0.6275  1.9122 -3.9148
15615SOL    HW248585   1.226   3.551   8.139 -0.9073 -1.8327 -1.2283
15616SOL     OW48586   4.775   6.970   0.254 -0.3041  0.3413 -0.2014
15616SOL    HW148587   4.756   6.927   0.171  0.3273  0.2525 -0.3047
15616SOL    HW248588   4.755   7.062   0.238 -0.8874  0.2133 -0.2256
15617SOL     OW48589   3.734   4.280   3.861 -0.2740 -0.1004 -0.3190
15617SOL    HW148590   3.693   4.321   3.937 -0.3876 -0.9681  0.0988
15617SOL    HW248591   3.821   4.320   3.856 -0.0837 -0.3749  0.5699
15618SOL     OW48592   3.274   4.894   4.342 -0.0697 -0.6969  0.1113
15618SOL    HW148593   3.201   4.867   4.287 -0.8149  2.3488 -0.5495
15618SOL    HW248594   3.329   4.948   4.285  0.4281  0.5303  1.6853
15619SOL     OW48595   4.791   4.370   8.234  0.1037  0.0982  0.1498
15619SOL    HW148596   4.720   4.425   8.202  0.2909  0.3739  0.2067
15619SOL    HW248597   4.849   4.430   8.280 -0.7050 -0.4466  1.9631
15620SOL     OW48598   5.519   4.055   9.292  0.1998  0.3502 -0.7112
15620SOL    HW148599   5.484   4.076   9.206  2.2217 -0.1889 -1.7354
15620SOL    HW248600   5.554   4.138   9.325 -0.7639  0.6009 -0.2947
15621SOL     OW48601   0.884   3.583   7.777  0.0982  0.0089  0.2732
15621SOL    HW148602   0.795   3.613   7.757 -0.9033 -2.7549  0.1328
15621SOL    HW248603   0.871   3.501   7.826  2.5876 -0.0389  0.9788
15622SOL     OW48604   4.895   6.658   1.826  0.0108  0.2094  0.6650
15622SOL    HW148605   4.861   6.639   1.739 -0.0425 -0.2236  0.7751
15622SOL    HW248606   4.887   6.753   1.836 -0.4863  0.1957  0.4100
15623SOL     OW48607   0.620   1.568   3.435  0.0479 -0.3495  0.1134
15623SOL    HW148608   0.681   1.494   3.427  2.1382  0.9639  2.5310
15623SOL    HW248609   0.548   1.533   3.488 -0.2302 -1.2893 -0.8407
15624SOL     OW48610   7.672   4.070   3.693 -0.4924 -0.3133  0.4399
15624SOL    HW148611   7.657   4.085   3.600  1.9227  0.4438  0.1242
15624SOL    HW248612   7.765   4.086   3.706 -0.7937 -0.2283  3.0360
15625SOL     OW48613   4.836   5.319   9.434  0.0665  0.1646  0.3872
15625SOL    HW148614   4.854   5.235   9.475  1.4560 -0.4503 -1.3682
15625SOL    HW248615   4.913   5.337   9.379  1.0761  3.8936  2.6789
15626SOL     OW48616   6.043   4.855   4.554 -0.3101  0.6349  0.1618
15626SOL    HW148617   6.094   4.930   4.526  0.2474 -0.2017 -1.1659
15626SOL    HW248618   6.088   4.824   4.634  1.3176 -0.0760 -0.9676
15627SOL     OW48619   7.482   4.643   6.751  0.8158  0.3393 -0.3964
15627SOL    HW148620   7.408   4.702   6.765  1.1074  0.6142  0.0078
15627SOL    HW248621   7.540   4.691   6.692  1.0145  0.4228 -0.1335
15628SOL     OW48622   8.018   4.356   5.847  0.4074  0.5454  0.3544
15628SOL    HW148623   8.100   4.307   5.851  1.5800  2.4054  0.6671
15628SOL    HW248624   8.031   4.428   5.910 -1.5092  0.8186  0.4792
15629SOL     OW48625   1.246   2.528   8.479  0.2735 -0.6670 -0.2667
15629SOL    HW148626   1.217   2.460   8.540  0.0771 -0.5157 -0.1920
15629SOL    HW248627   1.279   2.598   8.535 -0.3723 -0.3196 -0.3231
15630SOL     OW48628   4.958   6.993   5.483 -0.1109 -0.6557 -0.2531
15630SOL    HW148629   4.915   7.034   5.408 -1.9613 -0.2038  1.0059
15630SOL    HW248630   5.045   7.033   5.486 -0.8491  1.0413 -0.7736
15631SOL     OW48631   4.268   5.995   7.976  0.1350  0.2161 -0.2334
15631SOL    HW148632   4.288   6.083   7.943  0.6120  0.4525  0.6693
15631SOL    HW248633   4.352   5.950   7.980 -0.3285 -1.1072 -2.8711
15632SOL     OW48634   1.646   0.043   9.278 -0.1027  0.0798  0.3349
15632SOL    HW148635   1.552   0.041   9.297 -0.0656 -1.0818  0.4354
15632SOL    HW248636   1.684  -0.019   9.339  0.5214 -0.7300 -0.8442
15633SOL     OW48637   6.424   2.099   4.152 -0.5666  0.3892 -0.0114
15633SOL    HW148638   6.388   2.173   4.104 -0.6559  0.3971  0.0683
15633SOL    HW248639   6.440   2.033   4.085 -0.0548  0.6457 -0.1501
15634SOL     OW48640   3.793   0.028   7.502 -0.4782  0.6888  0.1107
15634SOL    HW148641   3.744   0.111   7.498 -2.1014 -0.2139  0.1741
15634SOL    HW248642   3.801   0.010   7.596 -0.2052  0.7257  0.0949
15635SOL     OW48643   3.990   1.784   7.377 -0.6239  0.3125  0.3538
15635SOL    HW148644   4.013   1.877   7.370  0.2435  0.3930  3.1256
15635SOL    HW248645   3.903   1.784   7.417 -0.0123 -0.0220  1.7427
15636SOL     OW48646   4.588   3.417   8.855  0.8632  0.1036  0.0456
15636SOL    HW148647   4.672   3.459   8.835  1.5627 -1.7710 -1.2635
15636SOL    HW248648   4.526   3.456   8.795  0.7174  1.6076  1.1161
15637SOL     OW48649   0.396   0.858   1.054  0.1956  0.1298  0.1284
15637SOL    HW148650   0.486   0.833   1.033  0.4003  1.0267 -0.0990
15637SOL    HW248651   0.404   0.942   1.098 -0.4099 -0.6114  1.7397
15638SOL     OW48652   7.408   4.443   1.083  0.0758  0.4498 -0.2463
15638SOL    HW148653   7.403   4.373   1.019  1.0255  0.7180 -0.6412
15638SOL    HW248654   7.322   4.445   1.125  0.1882 -1.2660  0.1293
15639SOL     OW48655   3.619   8.798   1.644  0.3041  0.7643  0.0880
15639SOL    HW148656   3.615   8.831   1.554  2.3801  1.1649  0.0920
15639SOL    HW248657   3.710   8.810   1.670 -0.0417 -0.2225  1.9347
15640SOL     OW48658   4.202   9.483   2.524 -0.2843  0.0822 -0.1036
15640SOL    HW148659   4.193   9.567   2.570 -0.9763 -0.3041  0.4997
15640SOL    HW248660   4.207   9.418   2.594  0.9664 -0.3332 -0.5515
15641SOL     OW48661   5.350   7.938   6.405  0.1771 -0.1888  0.6678
15641SOL    HW148662   5.328   7.873   6.339 -0.3774  1.4065 -0.7672
15641SOL    HW248663   5.272   7.943   6.461  0.6210 -1.4805  1.4598
15642SOL     OW48664   4.257   7.044   0.021  0.0441 -0.6366 -0.0121
15642SOL    HW148665   4.276   6.951   0.027 -2.2478 -1.2522 -1.3541
15642SOL    HW248666   4.183   7.058   0.080 -2.2248 -0.5571 -2.6867
15643SOL     OW48667   4.437   3.378   7.631  0.0392  0.4635 -0.3372
15643SOL    HW148668   4.510   3.437   7.647  1.0963 -0.5174 -1.3474
15643SOL    HW248669   4.368   3.408   7.690  2.3219 -0.5420  3.1426
15644SOL     OW48670   4.700   4.654   5.680 -0.0440 -0.4415  0.0657
15644SOL    HW148671   4.776   4.674   5.625  0.3798 -1.0026  0.4388
15644SOL    HW248672   4.702   4.559   5.691 -1.2672 -0.5663 -0.5799
15645SOL     OW48673   1.398   8.734   4.228  0.1741 -0.7119 -0.2549
15645SOL    HW148674   1.364   8.779   4.305 -2.3763  0.1535 -1.7684
15645SOL    HW248675   1.359   8.646   4.233  1.2251 -1.1794  0.1604
15646SOL     OW48676   1.699   3.780   5.426  0.1468 -0.6412 -0.1007
15646SOL    HW148677   1.611   3.818   5.427  0.6915  0.6834 -0.4216
15646SOL    HW248678   1.699   3.720   5.501 -0.6307  0.2984  0.6973
15647SOL     OW48679   7.151   0.818   4.572 -0.1404 -0.0306 -0.8125
15647SOL    HW148680   7.190   0.793   4.488 -0.4189  2.7021 -1.8622
15647SOL    HW248681   7.068   0.859   4.548 -1.0614 -0.7568  0.9750
15648SOL     OW48682   2.627   1.174   1.133  0.0154  0.0318 -0.3676
15648SOL    HW148683   2.546   1.211   1.167  0.9171  0.4394  1.4232
15648SOL    HW248684   2.665   1.244   1.080 -0.7009 -0.1214 -1.1190
15649SOL     OW48685   1.632   3.714   9.597 -0.5513 -0.0422 -0.2304
15649SOL    HW148686   1.712   3.671   9.565 -0.4739  0.2583 -0.4560
15649SOL    HW248687   1.639   3.804   9.563 -0.8199  0.0803  0.0376
15650SOL     OW48688   4.450   3.758   6.539 -0.6418  0.3427  0.4736
15650SOL    HW148689   4.490   3.673   6.523 -2.8005 -0.9157  1.2930
15650SOL    HW248690   4.499   3.794   6.613 -0.4678 -0.7409  0.9024
15651SOL     OW48691   2.269   1.797   0.848  0.0756 -0.2989  0.0230
15651SOL    HW148692   2.237   1.829   0.932  0.0018 -0.8529  0.2054
15651SOL    HW248693   2.226   1.713   0.836  0.5745 -0.5131 -0.2734
15652SOL     OW48694   9.576   6.782   0.446  0.4108 -0.5584  0.0282
15652SOL    HW148695   9.594   6.729   0.368  0.6817  2.0158 -1.8021
15652SOL    HW248696   9.622   6.737   0.517  0.3030 -2.9229 -1.2780
15653SOL     OW48697   5.759   4.887   3.161 -0.4753  0.1563 -0.6462
15653SOL    HW148698   5.781   4.978   3.139  1.1785 -0.0351  0.0648
15653SOL    HW248699   5.798   4.835   3.092  0.9897 -0.1603  0.3731
15654SOL     OW48700   3.564   6.335   0.725 -0.6285 -0.3438  0.3201
15654SOL    HW148701   3.473   6.359   0.743 -0.7898 -1.0165  0.4374
15654SOL    HW248702   3.570   6.243   0.752  0.6061  0.2344  2.2110
15655SOL     OW48703   0.763   4.372   1.680 -0.1933 -0.0017  0.1848
15655SOL    HW148704   0.714   4.315   1.740 -1.9733  1.7638  0.4790
15655SOL    HW248705   0.850   4.330   1.674 -1.0575 -2.1078  1.2429
15656SOL     OW48706   8.111   8.151   3.178  0.3140 -0.4489  0.3067
15656SOL    HW148707   8.170   8.115   3.112  2.3999  1.4406  0.9991
15656SOL    HW248708   8.137   8.243   3.186 -0.1739 -0.4626  3.3576
15657SOL     OW48709   4.515   1.087   5.547 -0.1326  0.5689  0.1049
15657SOL    HW148710   4.525   1.092   5.452 -0.9483  0.4301  0.0107
15657SOL    HW248711   4.605   1.084   5.580  0.1797 -1.4555 -0.7780
15658SOL     OW48712   4.157   0.002   5.689 -0.3028  0.2000 -0.0127
15658SOL    HW148713   4.131   0.089   5.660 -1.5032 -0.2597 -0.3958
15658SOL    HW248714   4.119  -0.058   5.624  0.0812 -0.6314  0.5048
15659SOL     OW48715   4.882   4.484   6.019  0.8134  0.0690  0.1158
15659SOL    HW148716   4.803   4.453   5.973  0.1561 -0.0587  1.3047
15659SOL    HW248717   4.909   4.410   6.073  2.0310 -0.0415 -0.6197
15660SOL     OW48718   5.926   6.486   3.269  0.0482 -0.1912 -0.1360
15660SOL    HW148719   5.915   6.490   3.364 -0.4960 -1.5255 -0.1172
15660SOL    HW248720   5.999   6.426   3.256  1.0146  1.0319 -0.5493
15661SOL     OW48721   1.920   8.493   5.168  0.0146 -0.3214 -0.1591
15661SOL    HW148722   1.870   8.441   5.104  1.4745  0.8553 -2.4162
15661SOL    HW248723   1.918   8.582   5.133  2.6221 -0.0111  0.2766
15662SOL     OW48724   1.479   1.939   6.571  0.0971 -0.0853  0.5102
15662SOL    HW148725   1.403   1.906   6.523  0.8339  0.1531 -0.8836
15662SOL    HW248726   1.528   1.989   6.506  1.2274  0.1202  1.4870
15663SOL     OW48727   4.409   5.654   0.407  0.1034 -0.4592 -0.7701
15663SOL    HW148728   4.372   5.655   0.495 -1.4381  0.8394 -1.3787
15663SOL    HW248729   4.499   5.684   0.419  0.4304 -1.8230  0.5189
15664SOL     OW48730   7.384   1.279   2.538 -0.0318 -0.0445 -0.1537
15664SOL    HW148731   7.366   1.363   2.494  0.5781 -0.6288 -1.5955
15664SOL    HW248732   7.424   1.225   2.470  0.8389 -1.0579  1.1117
15665SOL     OW48733   5.715   7.013   4.099 -0.0040  0.2141  0.8548
15665SOL    HW148734   5.808   7.024   4.120  0.2424 -2.9963  2.0135
15665SOL    HW248735   5.711   6.930   4.052 -2.3196  0.2050  0.9622
15666SOL     OW48736   2.919   3.701   3.524  0.7298 -0.1526  0.3176
15666SOL    HW148737   2.924   3.794   3.547  1.0694 -0.2911  0.8197
15666SOL    HW248738   3.008   3.677   3.500  0.6650 -0.3752  0.2915
15667SOL     OW48739   0.200   0.999   4.043 -0.1877  0.2922  0.0496
15667SOL    HW148740   0.233   1.042   3.965  0.6980  1.9312  1.2610
15667SOL    HW248741   0.233   0.910   4.037  1.1262  0.8018 -0.7252
15668SOL     OW48742   6.442   6.321   7.596  0.5134 -0.0799  0.0960
15668SOL    HW148743   6.532   6.331   7.628  0.8050  1.0876 -1.0326
15668SOL    HW248744   6.389   6.371   7.659  0.9341  1.1133 -0.4625
15669SOL     OW48745   8.512   4.878   4.540 -0.6004  0.6897  0.2722
15669SOL    HW148746   8.548   4.834   4.617 -0.4579  0.4155  0.0500
15669SOL    HW248747   8.437   4.825   4.514 -1.5761  1.6057  1.1133
15670SOL     OW48748   0.960   1.729   3.078  0.2046 -0.3509 -0.0926
15670SOL    HW148749   1.031   1.666   3.061  0.3600 -0.2237  0.0786
15670SOL    HW248750   0.999   1.814   3.057  0.3431 -0.2080  0.7202
15671SOL     OW48751   5.737   1.960   0.850  1.0614 -0.2215  0.1180
15671SOL    HW148752   5.806   2.025   0.864  1.6022 -0.1856 -2.3211
15671SOL    HW248753   5.780   1.889   0.803 -0.4398 -0.4036 -1.0538
15672SOL     OW48754   2.142   4.674   3.834  0.1552 -0.6496  0.6117
15672SOL    HW148755   2.049   4.672   3.811  0.5388 -1.2657 -0.9664
15672SOL    HW248756   2.169   4.764   3.816  0.3907 -1.0609 -1.2247
15673SOL     OW48757   7.631   7.937   3.630 -0.0647 -0.3246  0.1066
15673SOL    HW148758   7.706   7.878   3.633  0.4206  0.2330 -0.5855
15673SOL    HW248759   7.658   8.007   3.570 -1.3758 -0.4341 -0.6356
15674SOL     OW48760   3.045   1.970   9.569 -0.2281  0.3487  0.1906
15674SOL    HW148761   3.044   1.913   9.645  3.0532 -0.3898 -0.2012
15674SOL    HW248762   2.967   2.025   9.580  0.2267  0.4633  4.1769
15675SOL     OW48763   7.613   1.762   7.716  0.8838 -0.3579 -0.5399
15675SOL    HW148764   7.586   1.836   7.771  1.2116  0.3559 -1.3018
15675SOL    HW248765   7.632   1.802   7.631  0.7841 -1.3721 -1.0569
15676SOL     OW48766   5.285   7.599   1.462  0.0827  0.2147 -0.4123
15676SOL    HW148767   5.248   7.686   1.446 -1.0508 -0.3466 -0.9333
15676SOL    HW248768   5.217   7.538   1.434 -0.1375 -0.8688  2.2425
15677SOL     OW48769   6.206   0.635   2.915 -0.0414  0.2890 -0.1342
15677SOL    HW148770   6.159   0.578   2.854 -0.9267 -0.6645  1.3907
15677SOL    HW248771   6.287   0.588   2.934 -1.2800 -1.1345  2.0279
15678SOL     OW48772   0.375   4.613   5.901 -0.5273  0.3083  0.2040
15678SOL    HW148773   0.455   4.583   5.944  0.2750 -0.1597 -1.5299
15678SOL    HW248774   0.345   4.537   5.850 -1.0285  1.0530 -0.6387
15679SOL     OW48775   6.979   8.733   0.520 -0.1479 -0.4355  0.0220
15679SOL    HW148776   7.025   8.713   0.438 -0.4578 -0.0004 -0.2652
15679SOL    HW248777   7.046   8.725   0.587  0.9082  2.1164 -0.5864
15680SOL     OW48778   1.378   8.163   7.656 -0.2231 -0.6937  0.3500
15680SOL    HW148779   1.320   8.135   7.727 -1.5340 -0.9445 -0.7788
15680SOL    HW248780   1.327   8.227   7.607  0.2831 -1.2666 -0.9578
15681SOL     OW48781   8.029   0.730   3.823  0.3654 -0.4351  0.3029
15681SOL    HW148782   7.939   0.753   3.847  0.4660  2.7691 -1.7343
15681SOL    HW248783   8.020   0.653   3.767 -1.1994  0.1537 -0.3182
15682SOL     OW48784   1.139   0.627   2.482  0.5314 -0.1218 -0.4044
15682SOL    HW148785   1.060   0.578   2.461  0.3674 -0.8330  1.6225
15682SOL    HW248786   1.161   0.673   2.401 -2.0145  0.2138 -0.9880
15683SOL     OW48787   8.842   5.474   4.759  0.4043 -0.2913  0.2462
15683SOL    HW148788   8.899   5.470   4.683 -0.3235  0.6385 -0.3855
15683SOL    HW248789   8.816   5.384   4.776  0.7411 -0.5259 -0.4874
15684SOL     OW48790   7.543   5.931   8.326  0.4790 -0.9219  0.2635
15684SOL    HW148791   7.558   5.855   8.382 -1.5457  0.0150  2.2421
15684SOL    HW248792   7.449   5.947   8.333  0.5356  0.6255 -1.6696
15685SOL     OW48793   1.522   6.189   1.475 -0.1109  0.7575 -0.1942
15685SOL    HW148794   1.489   6.268   1.518  1.6300  0.6508  1.4925
15685SOL    HW248795   1.576   6.221   1.403 -1.5165  0.9931 -1.1800
15686SOL     OW48796   3.869   4.274   2.591 -0.6533  0.0258  0.3730
15686SOL    HW148797   3.781   4.300   2.564  0.7223  4.0724 -1.0022
15686SOL    HW248798   3.900   4.347   2.644  1.9378 -1.1966  0.6877
15687SOL     OW48799   5.367   2.782   1.961 -0.5882 -0.2648 -0.4797
15687SOL    HW148800   5.320   2.858   1.997  0.8087  0.8649 -0.9292
15687SOL    HW248801   5.438   2.766   2.022  0.5121  0.2923 -1.5774
15688SOL     OW48802   4.161   3.282   2.241  0.1245  0.2270 -0.3550
15688SOL    HW148803   4.210   3.286   2.323  0.0192  0.8840 -0.3174
15688SOL    HW248804   4.074   3.253   2.266 -0.0707  0.9588 -0.1476
15689SOL     OW48805   5.903   2.540   0.701  0.4801  0.3360  0.1262
15689SOL    HW148806   5.890   2.560   0.609  0.1698  0.4313  0.1874
15689SOL    HW248807   5.941   2.620   0.738 -1.7055  1.2592  0.5801
15690SOL     OW48808   0.936   0.379   1.903  0.5106 -0.0873  0.6224
15690SOL    HW148809   0.899   0.457   1.943  0.7154 -0.0388  0.7166
15690SOL    HW248810   0.908   0.307   1.959  1.0021  0.0069  0.9933
15691SOL     OW48811   3.305   6.601   4.327 -0.7440 -0.1537  0.0244
15691SOL    HW148812   3.328   6.560   4.411 -0.5805 -0.0068  0.0516
15691SOL    HW248813   3.210   6.591   4.321 -0.5724 -1.7050 -0.5678
15692SOL     OW48814   0.351   4.628   6.417  0.2334 -0.1497  0.2725
15692SOL    HW148815   0.343   4.542   6.377  0.5976  0.2842 -0.7542
15692SOL    HW248816   0.378   4.686   6.346 -1.6751  1.1545  0.5394
15693SOL     OW48817   4.177   4.107   4.108  0.0430  0.4046 -0.5708
15693SOL    HW148818   4.270   4.126   4.113  0.0036  0.3512  0.6827
15693SOL    HW248819   4.157   4.106   4.014  1.3672  0.0614 -0.8635
15694SOL     OW48820   2.292   5.914   0.518  0.5623 -0.2736  0.1478
15694SOL    HW148821   2.217   5.878   0.564 -1.3024  1.7605 -1.1103
15694SOL    HW248822   2.264   5.920   0.427  2.5673 -0.2034 -0.5209
15695SOL     OW48823   0.751   9.464   3.488  0.0180 -0.0335  0.2365
15695SOL    HW148824   0.723   9.554   3.499  0.2318 -0.0474  0.9216
15695SOL    HW248825   0.807   9.446   3.564  1.6658 -0.0947 -0.9218
15696SOL     OW48826   8.989   5.174   5.758  0.3258  0.3291  0.0849
15696SOL    HW148827   8.935   5.099   5.783 -0.8688  1.1136 -0.0310
15696SOL    HW248828   9.004   5.221   5.840  0.4046  0.3773  0.0429
15697SOL     OW48829   5.845   3.845   3.176 -0.5205  0.4043  0.0927
15697SOL    HW148830   5.812   3.848   3.086 -1.5631 -0.8650  0.4140
15697SOL    HW248831   5.858   3.938   3.199  2.4238  0.7355 -2.2474
15698SOL     OW48832   2.576   1.874   2.672  0.2732 -0.5092 -0.3636
15698SOL    HW148833   2.585   1.794   2.620 -0.5334 -0.1188 -1.1145
15698SOL    HW248834   2.502   1.857   2.731 -2.1231  0.8471 -2.7974
15699SOL     OW48835   9.300   2.323   9.205  0.0559 -0.1785  0.1058
15699SOL    HW148836   9.365   2.280   9.261 -0.7699 -0.9637  0.4909
15699SOL    HW248837   9.293   2.267   9.128  0.5012  0.4019 -0.3675
15700SOL     OW48838   3.690   5.412   2.074  0.1283  0.1040 -0.5484
15700SOL    HW148839   3.608   5.414   2.123  0.0342 -0.5019 -0.6691
15700SOL    HW248840   3.682   5.335   2.018 -0.4211  1.6448 -2.7015
15701SOL     OW48841   4.116   1.244   1.624 -0.1325 -0.1595  0.3747
15701SOL    HW148842   4.190   1.281   1.577  1.8306  0.0703  3.3865
15701SOL    HW248843   4.093   1.311   1.689 -2.5364 -0.5434  0.0215
15702SOL     OW48844   0.655   6.760   0.263 -0.2102  0.0452  0.1839
15702SOL    HW148845   0.607   6.721   0.190  0.3484  1.7204 -1.1447
15702SOL    HW248846   0.741   6.718   0.260  0.5328  1.5519 -1.5020
15703SOL     OW48847   0.888   8.793   1.769 -0.2548  0.3660  0.3032
15703SOL    HW148848   0.795   8.809   1.749 -0.3980  3.1947  2.4877
15703SOL    HW248849   0.935   8.854   1.713  0.2924 -0.7668 -0.4982
15704SOL     OW48850   5.467   5.251   4.246 -0.4200  0.0731  0.5841
15704SOL    HW148851   5.511   5.335   4.233 -0.3594  0.5426  3.1902
15704SOL    HW248852   5.537   5.190   4.269 -0.6319 -0.3486  0.1376
15705SOL     OW48853   8.825   6.359   9.538  0.0167  0.1001  0.2532
15705SOL    HW148854   8.835   6.266   9.559  0.0316 -0.1537 -0.8233
15705SOL    HW248855   8.847   6.405   9.619 -0.7804 -0.8612  1.0345
15706SOL     OW48856   7.652   1.222   0.820 -0.2466 -0.1334  0.9396
15706SOL    HW148857   7.586   1.154   0.831 -2.0479  1.1947 -0.8438
15706SOL    HW248858   7.612   1.285   0.760  0.5883  3.3849  3.6809
15707SOL     OW48859   6.330   2.266   3.957 -0.7452  0.0481  0.0064
15707SOL    HW148860   6.357   2.208   3.885 -3.3871 -1.2767 -0.0364
15707SOL    HW248861   6.384   2.344   3.946  0.0077 -0.7277 -2.5128
15708SOL     OW48862   5.197   6.565   8.127  0.2454 -0.3482 -0.0916
15708SOL    HW148863   5.206   6.615   8.208  0.4108  0.8310 -0.7977
15708SOL    HW248864   5.151   6.485   8.152  0.2961 -0.0078  1.1547
15709SOL     OW48865   7.071   3.502   0.263 -0.1925 -0.0694  0.4622
15709SOL    HW148866   7.036   3.591   0.267 -1.1543 -0.4559  1.5983
15709SOL    HW248867   7.039   3.467   0.180  0.4700  0.7358 -0.1447
15710SOL     OW48868   9.217   4.379   8.335 -0.1959 -0.2144 -0.0279
15710SOL    HW148869   9.245   4.350   8.248  0.6845 -0.2470  0.2562
15710SOL    HW248870   9.230   4.303   8.392  0.0117  0.0604  0.2935
15711SOL     OW48871   4.043   8.551   8.406 -0.4983 -0.2584 -0.1434
15711SOL    HW148872   4.133   8.564   8.436 -0.3492 -1.7805  0.1456
15711SOL    HW248873   4.025   8.627   8.350  1.3881 -0.5314 -1.1841
15712SOL     OW48874   1.500   1.711   9.358 -0.7140 -0.5077 -0.8809
15712SOL    HW148875   1.494   1.776   9.428 -1.0263  0.5806 -1.8690
15712SOL    HW248876   1.567   1.650   9.387  0.8407  1.2245 -0.6218
15713SOL     OW48877   2.091   3.979   9.353  0.8589  0.4651 -0.2783
15713SOL    HW148878   2.086   3.950   9.261  1.5175 -0.7476  0.0382
15713SOL    HW248879   2.184   3.970   9.375  0.6015  0.0523  0.7091
15714SOL     OW48880   5.733   9.182   3.057  0.4462 -0.6303  0.6137
15714SOL    HW148881   5.772   9.095   3.056  0.9384 -0.4081  0.4271
15714SOL    HW248882   5.728   9.205   3.149  0.2047 -0.9034  0.6705
15715SOL     OW48883   2.051   6.957   1.090  0.6005  0.2293 -0.2670
15715SOL    HW148884   2.022   7.048   1.098 -1.4261 -0.3066 -0.9584
15715SOL    HW248885   2.047   6.922   1.179  2.5910  1.0893  0.2266
15716SOL     OW48886   5.037   2.908   6.577  0.3097  0.0587 -0.3021
15716SOL    HW148887   5.016   2.989   6.624  0.2572 -0.6685  0.9894
15716SOL    HW248888   5.014   2.926   6.486  0.0358  1.3980  0.0101
15717SOL     OW48889   9.582   0.725   6.793  0.3450  0.4560  0.1105
15717SOL    HW148890   9.507   0.772   6.758 -0.0301  0.7134  1.2207
15717SOL    HW248891   9.545   0.667   6.859  1.1602  0.8359  0.9175
15718SOL     OW48892   9.093   9.591   6.438  0.4887 -0.0846  0.0378
15718SOL    HW148893   9.105   9.584   6.533  2.1850 -0.9841 -0.1990
15718SOL    HW248894   9.138   9.672   6.414 -1.1384  0.8975  0.1333
15719SOL     OW48895   0.424   6.587   5.123  0.0231  0.0602 -0.3287
15719SOL    HW148896   0.471   6.524   5.178  0.6163  0.2432 -0.6197
15719SOL    HW248897   0.407   6.539   5.041 -0.8808 -0.2202  0.0164
15720SOL     OW48898   7.262   9.311   2.046 -0.5174  0.0947  0.1247
15720SOL    HW148899   7.261   9.404   2.026 -1.5989  0.3221  1.1211
15720SOL    HW248900   7.354   9.285   2.039 -0.3550  0.9610 -1.3088
15721SOL     OW48901   6.945   5.215   4.216 -0.1470  0.3678 -0.1243
15721SOL    HW148902   7.031   5.231   4.256  0.2072 -0.2070 -0.6392
15721SOL    HW248903   6.961   5.147   4.151 -1.1564 -0.3787  0.3706
15722SOL     OW48904   0.345   1.797   1.034  0.1374 -0.0775 -0.2794
15722SOL    HW148905   0.257   1.768   1.009 -0.4654 -0.7197  2.2688
15722SOL    HW248906   0.333   1.886   1.065  0.5339  0.0818 -0.5750
15723SOL     OW48907   8.229   3.234   7.096 -0.3180 -0.0124  0.3401
15723SOL    HW148908   8.164   3.166   7.117  1.1741 -1.4993  0.3045
15723SOL    HW248909   8.312   3.187   7.092  0.8223  1.9064  0.6774
15724SOL     OW48910   9.495   2.542   5.098  0.4099  0.4420  0.3747
15724SOL    HW148911   9.456   2.629   5.109  0.1815  0.3446  0.3360
15724SOL    HW248912   9.540   2.546   5.014  0.4147  0.5300  0.3813
15725SOL     OW48913   4.029   9.312   3.910 -0.4118  0.0066  0.1514
15725SOL    HW148914   3.935   9.306   3.928 -0.6766 -1.4713 -1.5189
15725SOL    HW248915   4.037   9.388   3.852 -0.8285 -0.8641 -1.0758
15726SOL     OW48916   5.142   5.564   3.023  0.4107 -0.1375 -0.4557
15726SOL    HW148917   5.151   5.659   3.035  1.7406 -0.4735  1.7487
15726SOL    HW248918   5.217   5.527   3.069 -0.3201 -2.2980 -0.9052
15727SOL     OW48919   1.980   9.456   0.326  0.0154  0.5213  0.2276
15727SOL    HW148920   1.956   9.548   0.334 -1.1419  0.2078  0.4496
15727SOL    HW248921   1.976   9.422   0.415  0.1174  0.1661  0.0987
15728SOL     OW48922   5.439   5.461   6.304  0.7244 -0.0373 -0.3099
15728SOL    HW148923   5.517   5.490   6.259  0.1719 -0.0744 -1.3270
15728SOL    HW248924   5.414   5.534   6.360  2.3734 -0.6168  1.2721
15729SOL     OW48925   6.327   0.203   2.958 -0.1108  0.3214  0.2064
15729SOL    HW148926   6.262   0.209   3.028  0.6274  1.5643  0.8055
15729SOL    HW248927   6.411   0.209   3.003  0.5411 -2.5670 -0.3987
15730SOL     OW48928   7.120   0.335   2.371  0.1690  0.6452  0.4825
15730SOL    HW148929   7.056   0.264   2.374  0.2592  0.5595  0.3610
15730SOL    HW248930   7.182   0.309   2.303 -0.0804  1.0791  0.0897
15731SOL     OW48931   8.682   3.680   2.447  0.5579  0.2957  0.1109
15731SOL    HW148932   8.695   3.646   2.359 -0.4400 -0.0268  0.0778
15731SOL    HW248933   8.661   3.773   2.433 -3.6083 -0.5412 -0.3659
15732SOL     OW48934   1.613   3.974   4.670  0.0476 -0.0871  0.1345
15732SOL    HW148935   1.525   3.952   4.701  0.1137  0.3963  0.6916
15732SOL    HW248936   1.601   3.996   4.578 -0.4804  0.3321  0.2961
15733SOL     OW48937   3.637   0.651   0.831 -0.2338 -0.4541 -0.2072
15733SOL    HW148938   3.649   0.675   0.923 -0.5134 -0.0462 -0.2719
15733SOL    HW248939   3.598   0.564   0.833  3.1484 -2.1112  0.0126
15734SOL     OW48940   7.876   2.378   6.371 -0.2573  0.2935  0.3160
15734SOL    HW148941   7.902   2.403   6.460 -1.1619  0.0346  0.6559
15734SOL    HW248942   7.806   2.440   6.348 -1.0485 -0.5681  0.3582
15735SOL     OW48943   2.875   3.186   1.338  0.0219 -0.2372 -0.5870
15735SOL    HW148944   2.927   3.181   1.419 -1.2029  2.5186  0.4914
15735SOL    HW248945   2.789   3.152   1.363 -1.0344  2.6236  0.0227
15736SOL     OW48946   5.689   8.851   4.841  0.1375 -0.5573 -0.2936
15736SOL    HW148947   5.687   8.863   4.746 -1.1584  1.5701 -0.0691
15736SOL    HW248948   5.734   8.929   4.874 -1.6354 -0.0043  0.9470
15737SOL     OW48949   9.371   7.198   8.548 -0.3860 -0.3558  0.5106
15737SOL    HW148950   9.437   7.151   8.497  0.3436  1.6127 -0.4578
15737SOL    HW248951   9.288   7.157   8.522  0.1247 -0.5241 -1.0038
15738SOL     OW48952   7.401   1.323   5.315 -0.5216 -1.0839 -0.3408
15738SOL    HW148953   7.331   1.368   5.267  0.0704  0.1683 -0.0907
15738SOL    HW248954   7.421   1.382   5.388  1.3190 -1.0249 -0.8478
15739SOL     OW48955   9.061   4.677   3.295  0.6700  0.0272 -0.1276
15739SOL    HW148956   9.122   4.603   3.290 -0.0626 -0.7229  1.3683
15739SOL    HW248957   9.092   4.728   3.370  0.7307  0.8541 -0.7003
15740SOL     OW48958   3.779   4.594   0.819  0.2024 -0.4080  0.6432
15740SOL    HW148959   3.749   4.580   0.909 -0.0508 -0.2734  0.5795
15740SOL    HW248960   3.773   4.507   0.778  3.0396 -1.1391  1.5503
15741SOL     OW48961   6.601   5.038   2.848 -0.0426 -0.5458 -0.6528
15741SOL    HW148962   6.627   5.058   2.758 -0.0604 -0.4636 -0.6397
15741SOL    HW248963   6.585   5.124   2.888 -1.6109 -0.6150 -1.0359
15742SOL     OW48964   6.293   3.647   4.136 -0.9712 -0.6519  0.1361
15742SOL    HW148965   6.315   3.672   4.226 -0.7341  1.0564 -0.3719
15742SOL    HW248966   6.212   3.596   4.145 -1.4182  0.2286  1.2444
15743SOL     OW48967   0.295   6.096   1.492  0.1492 -0.1107 -0.0583
15743SOL    HW148968   0.209   6.059   1.513  0.1762 -1.1777 -1.6968
15743SOL    HW248969   0.287   6.188   1.518 -1.0238 -0.4855  1.0519
15744SOL     OW48970   8.383   0.594   3.892  0.4529 -0.4131 -0.1625
15744SOL    HW148971   8.309   0.549   3.852 -0.8360  2.2196 -0.9198
15744SOL    HW248972   8.365   0.591   3.986 -0.2465 -0.4232 -0.2945
15745SOL     OW48973   8.866   2.451   0.583  0.1520  0.1521  0.4313
15745SOL    HW148974   8.900   2.395   0.653 -0.7322 -1.4718 -0.4102
15745SOL    HW248975   8.779   2.417   0.565  0.0901  1.0065 -0.9897
15746SOL     OW48976   7.369   6.862   9.347  0.4697  0.0378  0.2273
15746SOL    HW148977   7.402   6.841   9.435 -2.0920 -0.3518  1.1838
15746SOL    HW248978   7.328   6.781   9.317  1.5330  0.0846 -1.4969
15747SOL     OW48979   2.067   1.525   4.271  0.5382 -0.2300  0.0230
15747SOL    HW148980   2.132   1.576   4.223  0.8396 -0.9379 -0.3302
15747SOL    HW248981   2.037   1.458   4.208 -1.0643  0.5176 -0.0702
15748SOL     OW48982   0.269   2.377   3.310  0.2884  0.5696  0.2316
15748SOL    HW148983   0.194   2.372   3.369 -0.1568  2.5967 -0.1006
15748SOL    HW248984   0.317   2.295   3.326 -1.5316 -0.4035  1.0321
15749SOL     OW48985   1.563   3.287   3.000  0.3739  0.1766 -0.0688
15749SOL    HW148986   1.499   3.301   3.069  1.1955 -1.6374  1.1264
15749SOL    HW248987   1.643   3.261   3.045  1.2367 -0.0798 -1.6548
15750SOL     OW48988   2.673   2.583   6.274 -0.0145  0.5519  0.3506
15750SOL    HW148989   2.593   2.556   6.229 -1.6339  1.9131  2.2473
15750SOL    HW248990   2.680   2.523   6.348 -0.4521  1.6762  1.3321
15751SOL     OW48991   7.482   2.580   6.634  0.3823  0.4711 -0.3719
15751SOL    HW148992   7.531   2.583   6.552  0.8036 -0.0255 -0.1435
15751SOL    HW248993   7.439   2.494   6.633 -0.2756  0.7874 -0.4417
15752SOL     OW48994   4.291   2.024   0.830 -0.1294  0.0051  0.0270
15752SOL    HW148995   4.299   1.939   0.872 -2.2171  0.0208  0.5278
15752SOL    HW248996   4.341   2.015   0.749  1.5987 -0.9216  1.1098
15753SOL     OW48997   7.327   0.954   8.737  0.5357  0.0399  0.1737
15753SOL    HW148998   7.248   1.008   8.748 -0.1370 -0.6257 -1.1283
15753SOL    HW248999   7.392   1.014   8.701  1.8792  1.5269  4.5586
15754SOL     OW49000   2.410   0.453   5.595 -0.0227 -0.0997 -0.4902
15754SOL    HW149001   2.346   0.472   5.663 -0.9826  1.0293 -1.6684
15754SOL    HW249002   2.381   0.370   5.557  0.0107 -0.2792 -0.1340
15755SOL     OW49003   9.425   7.661   8.982  0.7678 -0.1952 -0.2655
15755SOL    HW149004   9.351   7.657   9.042 -0.0921  0.0924 -1.2632
15755SOL    HW249005   9.421   7.750   8.947  0.2826 -0.8281 -1.9031
15756SOL     OW49006   8.181   3.139   8.943 -0.2506 -0.2313 -0.3489
15756SOL    HW149007   8.112   3.202   8.921 -0.2198  0.5006  1.4665
15756SOL    HW249008   8.161   3.112   9.032  0.6705 -1.5897 -0.5168
15757SOL     OW49009   0.402   7.629   4.038  0.5783 -0.1814  0.3236
15757SOL    HW149010   0.313   7.657   4.058  0.7654  0.6106  0.0775
15757SOL    HW249011   0.394   7.578   3.958  0.4736  0.8113 -0.3234
15758SOL     OW49012   3.320   4.306   3.983 -0.2798 -0.1137 -0.3298
15758SOL    HW149013   3.284   4.385   3.943 -1.6562 -0.5580 -0.0467
15758SOL    HW249014   3.256   4.282   4.051  0.9367 -0.5531  0.7082
15759SOL     OW49015   8.486   7.177   6.679 -0.3449 -0.9819 -0.3194
15759SOL    HW149016   8.409   7.222   6.713  0.8318  1.0341 -0.1708
15759SOL    HW249017   8.494   7.208   6.588  0.5849 -0.7212 -0.1652
15760SOL     OW49018   3.371   7.403   8.239  0.0462  0.6324  0.3422
15760SOL    HW149019   3.422   7.472   8.197  0.8657 -0.0036  0.2712
15760SOL    HW249020   3.404   7.399   8.329  1.8391 -1.3738 -0.3326
15761SOL     OW49021   7.326   0.967   3.548 -0.0558 -0.6202  0.4552
15761SOL    HW149022   7.259   1.034   3.538  0.9919  0.4649  0.4967
15761SOL    HW249023   7.403   1.014   3.579  0.9579 -1.7179 -0.3060
15762SOL     OW49024   6.703   8.131   3.700 -0.4153 -0.2281  0.2223
15762SOL    HW149025   6.738   8.043   3.714 -0.5539 -0.2781  0.2564
15762SOL    HW249026   6.647   8.123   3.623 -0.8445 -0.2869  0.5385
15763SOL     OW49027   0.916   1.256   1.081 -0.0204 -0.3426  0.1345
15763SOL    HW149028   0.829   1.218   1.081  0.3019 -1.1033  0.3046
15763SOL    HW249029   0.930   1.284   0.990 -0.1604 -0.8960 -0.0636
15764SOL     OW49030   5.336   0.253   8.908  0.5142 -0.3802 -0.1322
15764SOL    HW149031   5.387   0.192   8.856 -0.3706 -0.5889 -0.7748
15764SOL    HW249032   5.272   0.289   8.847  1.0261  1.2279  0.2116
15765SOL     OW49033   3.255   5.335   1.950 -0.3951  0.3654  0.6872
15765SOL    HW149034   3.280   5.392   1.877 -0.4364  0.8284  1.0334
15765SOL    HW249035   3.204   5.265   1.909 -0.4539  0.6469  0.2759
15766SOL     OW49036   0.677   2.243   8.193  0.2429 -0.4091 -0.4160
15766SOL    HW149037   0.600   2.214   8.144 -0.6979  0.3321  0.5668
15766SOL    HW249038   0.660   2.216   8.283 -0.8108  3.1415  0.6372
15767SOL     OW49039   4.356   5.133   0.256  0.0073  0.2462  0.2799
15767SOL    HW149040   4.381   5.103   0.168  2.6801  1.0673  0.6700
15767SOL    HW249041   4.377   5.226   0.255 -0.1609  0.3079  1.7349
15768SOL     OW49042   1.920   4.151   9.265  0.0013 -0.0578 -0.4207
15768SOL    HW149043   1.973   4.092   9.318 -0.3991 -0.9919 -1.0525
15768SOL    HW249044   1.983   4.213   9.228  0.5882 -0.8155 -0.7140
15769SOL     OW49045   0.032   3.870   0.414  0.3180  0.0138  0.1914
15769SOL    HW149046   0.123   3.892   0.435  1.4900 -2.4404 -1.7400
15769SOL    HW249047  -0.008   3.953   0.388  3.0304  0.7453 -2.1578
15770SOL     OW49048   7.417   2.475   0.723  0.0062 -0.0842  0.4012
15770SOL    HW149049   7.453   2.405   0.668 -0.8569  0.9161 -1.5434
15770SOL    HW249050   7.494   2.525   0.751  0.6622 -1.8817  2.0371
15771SOL     OW49051   8.610   7.799   3.121  0.9667  0.2432  0.5048
15771SOL    HW149052   8.681   7.737   3.139  1.4075  0.6144  0.0900
15771SOL    HW249053   8.566   7.763   3.044  1.3612  0.5524  0.1288
15772SOL     OW49054   3.132   3.584   7.021  0.0095 -1.0418 -0.0777
15772SOL    HW149055   3.198   3.568   7.089 -0.6146 -1.2987  0.4746
15772SOL    HW249056   3.128   3.680   7.014 -1.1972 -0.9361  1.5441
15773SOL     OW49057   8.566   4.451   2.420 -0.1682  0.2534 -0.0678
15773SOL    HW149058   8.514   4.377   2.390  2.4572 -1.1113 -1.6471
15773SOL    HW249059   8.589   4.430   2.510 -2.4605  1.0242  0.7541
15774SOL     OW49060   6.349   5.861   3.556  0.0457  0.1686  0.6366
15774SOL    HW149061   6.411   5.855   3.483  0.8476 -1.3049  1.3903
15774SOL    HW249062   6.267   5.828   3.519  0.4190 -0.4700  0.3463
15775SOL     OW49063   0.613   0.185   3.990  0.0623  0.0795 -0.3636
15775SOL    HW149064   0.661   0.194   4.072 -0.0468 -0.0577 -0.2856
15775SOL    HW249065   0.565   0.268   3.981 -0.1620 -0.0268 -0.1387
15776SOL     OW49066   4.909   5.073   5.955 -0.0200 -0.0142 -0.1082
15776SOL    HW149067   4.882   4.982   5.959  0.1819 -0.0255  2.1897
15776SOL    HW249068   4.901   5.105   6.045  0.4762  2.0685 -0.7436
15777SOL     OW49069   6.431   1.641   4.136 -0.2750 -0.2287  0.0857
15777SOL    HW149070   6.351   1.612   4.092 -1.2518  0.7048  1.1853
15777SOL    HW249071   6.410   1.639   4.229  0.1453  2.2390  0.3163
15778SOL     OW49072   7.716   9.378   3.414 -0.2151 -0.3643  0.3840
15778SOL    HW149073   7.674   9.313   3.470  1.2692 -0.5140  1.4061
15778SOL    HW249074   7.646   9.435   3.384 -1.1304 -0.5938  2.0058
15779SOL     OW49075   2.591   7.914   3.498 -0.2604  0.2880 -0.0434
15779SOL    HW149076   2.675   7.929   3.542 -0.4666 -0.8963  0.7676
15779SOL    HW249077   2.577   7.820   3.503 -0.1072  0.0081 -3.0127
15780SOL     OW49078   4.958   3.075   0.053  0.3483 -0.0617 -0.2024
15780SOL    HW149079   4.961   2.991   0.007 -0.0850 -0.7006  0.8966
15780SOL    HW249080   4.990   3.055   0.141  0.0426  0.8810  0.1305
15781SOL     OW49081   4.664   7.842   3.189 -0.4319 -0.1584 -0.0173
15781SOL    HW149082   4.606   7.844   3.265 -1.0589  2.1337 -0.4765
15781SOL    HW249083   4.743   7.886   3.218 -1.1344  1.8509 -0.9615
15782SOL     OW49084   7.497   3.687   1.320 -0.0101  0.6470  0.6637
15782SOL    HW149085   7.563   3.628   1.356 -0.9044 -0.4026  0.6325
15782SOL    HW249086   7.415   3.639   1.329 -0.3261  0.2129 -2.8979
15783SOL     OW49087   8.739   2.566   9.432 -0.3099 -0.1306  0.4439
15783SOL    HW149088   8.707   2.635   9.374  0.3594  1.5877  2.0319
15783SOL    HW249089   8.754   2.610   9.516  1.9230 -1.7906  1.0183
15784SOL     OW49090   8.889   0.651   8.816  0.0402  0.3885  0.3755
15784SOL    HW149091   8.880   0.740   8.782 -2.1309 -0.3156 -1.0986
15784SOL    HW249092   8.900   0.596   8.738  0.5883 -0.7178  1.2031
15785SOL     OW49093   7.106   4.580   1.071 -0.4049 -0.4338  0.6220
15785SOL    HW149094   7.106   4.676   1.078 -2.6111 -0.3401  0.1755
15785SOL    HW249095   7.166   4.551   1.139 -0.5046  1.2338  1.4765
15786SOL     OW49096   8.545   6.634   1.948 -0.2947  0.2180  0.5550
15786SOL    HW149097   8.607   6.563   1.969 -0.8293 -0.0452  1.2987
15786SOL    HW249098   8.463   6.606   1.989 -0.4930  1.3122  0.9200
15787SOL     OW49099   8.437   2.783   4.526  0.3273  0.4516 -0.2669
15787SOL    HW149100   8.413   2.808   4.437 -3.9544 -1.5228  0.0669
15787SOL    HW249101   8.460   2.690   4.519  2.3098  0.8528  0.4188
15788SOL     OW49102   5.815   7.520   1.397  0.1765 -0.1165  0.3990
15788SOL    HW149103   5.734   7.567   1.418  1.0097  0.9848  1.1811
15788SOL    HW249104   5.786   7.452   1.336 -1.5864 -0.6424  1.7036
15789SOL     OW49105   2.654   6.637   3.200 -0.2758  0.0615 -0.4609
15789SOL    HW149106   2.721   6.675   3.143  1.8802  0.3627  2.1018
15789SOL    HW249107   2.631   6.554   3.158  3.0942 -0.9428 -0.5904
15790SOL     OW49108   9.315   4.292   0.314  0.3605 -0.3193  0.2662
15790SOL    HW149109   9.367   4.334   0.383 -0.3012  0.2566  0.4315
15790SOL    HW249110   9.324   4.352   0.239  1.1677 -0.9983 -0.1986
15791SOL     OW49111   7.712   3.121   1.531 -0.2177  0.1572  0.2120
15791SOL    HW149112   7.736   3.033   1.560  1.2213  0.4275 -0.0472
15791SOL    HW249113   7.685   3.110   1.440 -0.8535 -0.1311  0.4346
15792SOL     OW49114   0.136   8.759   9.574 -0.2540 -0.0945 -0.7392
15792SOL    HW149115   0.046   8.749   9.606 -0.2400  1.4995 -0.1563
15792SOL    HW249116   0.191   8.746   9.651  0.0601 -1.1910 -1.1176
15793SOL     OW49117   6.640   0.485   2.429 -0.5815  0.3104 -0.0637
15793SOL    HW149118   6.734   0.506   2.423 -0.5976  0.0554 -2.1195
15793SOL    HW249119   6.618   0.500   2.520  1.4981  0.2714  0.5085
15794SOL     OW49120   8.929   7.261   3.324 -0.5718 -0.0567  0.1223
15794SOL    HW149121   8.955   7.191   3.263  0.9047  1.6115 -1.2752
15794SOL    HW249122   8.912   7.215   3.406 -0.1688 -2.1138 -0.8563
15795SOL     OW49123   6.340   5.375   3.041 -0.4932  0.4618  0.4783
15795SOL    HW149124   6.257   5.404   3.079 -0.7644 -1.7537  1.7189
15795SOL    HW249125   6.365   5.298   3.092  0.7726 -0.7604 -1.7940
15796SOL     OW49126   2.684   0.516   4.203 -0.0559  0.2344  0.1577
15796SOL    HW149127   2.623   0.484   4.270  0.3876  0.5755  0.7452
15796SOL    HW249128   2.698   0.440   4.146  0.3049 -0.3774  1.0215
15797SOL     OW49129   8.341   6.772   3.024  0.6174  0.2967 -0.0082
15797SOL    HW149130   8.319   6.806   3.111 -0.7275 -0.8720  0.1404
15797SOL    HW249131   8.265   6.794   2.970  1.5043  1.1465 -0.9605
15798SOL     OW49132   3.352   8.883   1.926 -0.1840  0.1809 -0.3579
15798SOL    HW149133   3.328   8.938   2.001  1.1998  1.5159 -0.8394
15798SOL    HW249134   3.272   8.833   1.907 -1.4493  1.8493  0.2640
15799SOL     OW49135   8.004   0.233   8.183  0.5835  0.0368 -0.2684
15799SOL    HW149136   7.972   0.182   8.258  0.6112  1.5900  0.8446
15799SOL    HW249137   8.094   0.256   8.207  0.7773  0.0950 -1.0306
15800SOL     OW49138   2.085   9.465   4.561 -0.2247  0.3039 -0.1978
15800SOL    HW149139   2.160   9.425   4.518 -0.6075 -0.8383  0.1533
15800SOL    HW249140   2.053   9.530   4.499  0.5490  0.2109 -0.6976
15801SOL     OW49141   6.575   1.512   1.471 -0.3370 -0.0119 -0.0972
15801SOL    HW149142   6.561   1.437   1.529 -3.0723  0.3522 -0.1446
15801SOL    HW249143   6.499   1.568   1.486  0.9430  2.1088 -1.0765
15802SOL     OW49144   7.768   7.761   9.184  0.3136 -0.1542 -0.9191
15802SOL    HW149145   7.832   7.690   9.194  0.6313  0.3298  0.9884
15802SOL    HW249146   7.814   7.838   9.217 -0.9788  0.3663 -0.2761
15803SOL     OW49147   5.145   8.714   8.137  0.4463 -0.2897  0.5285
15803SOL    HW149148   5.158   8.653   8.065 -0.4761  0.5109 -0.3503
15803SOL    HW249149   5.193   8.676   8.210  3.6345  0.1384 -1.1585
15804SOL     OW49150   3.239   7.329   5.855  0.1846 -0.0410 -0.4469
15804SOL    HW149151   3.212   7.242   5.826 -1.6926  0.2372  0.3768
15804SOL    HW249152   3.319   7.313   5.906 -0.0690 -1.2569 -0.3960
15805SOL     OW49153   3.480   8.630   0.162 -0.4220 -0.0175 -0.2073
15805SOL    HW149154   3.454   8.538   0.174  0.2799 -0.0983  0.9087
15805SOL    HW249155   3.401   8.674   0.132 -0.8323 -0.9445 -0.5190
15806SOL     OW49156   4.581   5.534   7.605  0.7803  0.3278 -0.3982
15806SOL    HW149157   4.558   5.511   7.695  3.6604 -2.4177 -0.1671
15806SOL    HW249158   4.498   5.539   7.559 -0.6450 -1.6581  1.7205
15807SOL     OW49159   7.312   3.334   3.301  0.1511 -0.5562 -0.0465
15807SOL    HW149160   7.265   3.344   3.384  0.8002  0.0535  0.2653
15807SOL    HW249161   7.362   3.415   3.293 -1.2545  0.1826 -1.9205
15808SOL     OW49162   6.165   1.537   4.047 -0.5498  0.2546  0.1231
15808SOL    HW149163   6.104   1.567   3.979  0.7955  1.0574 -0.7780
15808SOL    HW249164   6.188   1.449   4.020  0.1455  0.6455 -0.6176
15809SOL     OW49165   7.174   0.840   1.279  0.5870 -0.3134  0.3415
15809SOL    HW149166   7.232   0.875   1.212  0.9787  1.0612  1.3557
15809SOL    HW249167   7.094   0.816   1.231  1.4905 -1.0484 -0.8667
15810SOL     OW49168   4.645   1.142   1.710  0.1066 -0.3908 -0.1924
15810SOL    HW149169   4.563   1.093   1.723  0.0608  0.2710  2.6191
15810SOL    HW249170   4.617   1.233   1.699  0.4493 -0.2338  0.2356
15811SOL     OW49171   2.405   6.000   1.163  0.0947  0.1521 -0.5462
15811SOL    HW149172   2.410   5.923   1.106  1.0603  0.3898 -0.8002
15811SOL    HW249173   2.449   6.069   1.114 -0.1251  0.6823 -0.0101
15812SOL     OW49174   0.379   4.377   4.061  0.1205  0.2194  0.0883
15812SOL    HW149175   0.410   4.298   4.106 -1.4321 -0.4897 -0.0344
15812SOL    HW249176   0.449   4.441   4.076  0.7933 -0.7521  1.3563
15813SOL     OW49177   1.931   7.422   2.053  0.0175 -0.8748 -0.6803
15813SOL    HW149178   1.838   7.419   2.079 -0.0217 -1.4505 -0.8742
15813SOL    HW249179   1.969   7.342   2.090  0.6219 -0.2417  0.0783
15814SOL     OW49180   1.390   0.716   1.092  0.1851  0.0955 -0.2283
15814SOL    HW149181   1.340   0.794   1.065 -0.8215 -1.0123 -1.7332
15814SOL    HW249182   1.437   0.744   1.171 -1.6710  1.6533  0.4134
15815SOL     OW49183   5.656   3.613   9.303  0.3754  0.3607 -0.0653
15815SOL    HW149184   5.659   3.558   9.225 -0.3627  0.0771  0.0986
15815SOL    HW249185   5.590   3.680   9.283 -0.6266 -0.3519  0.7046
15816SOL     OW49186   7.605   7.847   1.238  0.1543 -0.0008 -0.4093
15816SOL    HW149187   7.545   7.779   1.207 -1.0332  1.1141 -0.6035
15816SOL    HW249188   7.553   7.898   1.301  1.4308 -0.0506  0.7408
15817SOL     OW49189   0.134   4.762   5.488 -0.2295 -0.7641  0.0530
15817SOL    HW149190   0.081   4.840   5.503 -0.5174 -0.2432 -2.9657
15817SOL    HW249191   0.070   4.692   5.474 -0.0034 -1.1911  1.1152
15818SOL     OW49192   0.315   5.000   0.757 -0.0551  0.1475 -0.3893
15818SOL    HW149193   0.318   5.023   0.664  1.9957  2.4356  0.1400
15818SOL    HW249194   0.393   4.947   0.772  0.6091  1.2590  0.2973
15819SOL     OW49195   0.352   1.659   8.057  0.6182 -0.7901  0.5106
15819SOL    HW149196   0.367   1.714   8.134  0.5109  2.7842 -1.7988
15819SOL    HW249197   0.330   1.721   7.987  1.9405 -3.6744 -2.7453
15820SOL     OW49198   3.137   8.936   6.401  0.3242 -0.2452 -0.1424
15820SOL    HW149199   3.061   8.987   6.375  0.0271  0.2545  1.5684
15820SOL    HW249200   3.203   8.954   6.333 -0.6799  0.2231 -1.0156
15821SOL     OW49201   1.864   9.308   2.041 -0.4176  0.2795 -0.2416
15821SOL    HW149202   1.803   9.241   2.071  0.2529 -0.6744 -0.8978
15821SOL    HW249203   1.893   9.276   1.955  0.9182  0.7314  0.0119
15822SOL     OW49204   3.718   6.392   5.535 -0.0139  0.3654 -0.0019
15822SOL    HW149205   3.684   6.453   5.469 -3.2175  0.9347  1.9945
15822SOL    HW249206   3.701   6.305   5.498  0.2355  0.6498 -0.8210
15823SOL     OW49207   4.277   4.417   4.400 -0.0595  0.5575  0.1358
15823SOL    HW149208   4.345   4.394   4.337  0.7349  0.1963  1.1060
15823SOL    HW249209   4.209   4.460   4.347  0.7484  0.6017 -0.8986
15824SOL     OW49210   9.447   8.661   7.326  0.5624 -0.5255  0.1261
15824SOL    HW149211   9.379   8.595   7.335 -1.3091  1.3750  0.7001
15824SOL    HW249212   9.517   8.632   7.384 -1.0907 -0.9559  2.0071
15825SOL     OW49213   0.983   6.716   7.751 -0.3562  0.1013 -0.2563
15825SOL    HW149214   0.991   6.621   7.753  0.5617  0.1679  2.0570
15825SOL    HW249215   1.070   6.747   7.726 -0.8661  0.3756 -1.8504
15826SOL     OW49216   4.814   3.500   8.120 -0.4866 -0.1537  0.1700
15826SOL    HW149217   4.836   3.488   8.027 -0.3193  0.5935  0.1129
15826SOL    HW249218   4.851   3.585   8.143  1.0597 -1.1083  1.4067
15827SOL     OW49219   0.050   2.513   1.385 -0.3646  0.0905 -0.1127
15827SOL    HW149220  -0.037   2.523   1.424 -0.1082 -0.0031  0.5057
15827SOL    HW249221   0.068   2.598   1.344 -1.1734 -0.2232 -1.1601
15828SOL     OW49222   5.688   4.339   7.650 -0.2474  0.1951 -0.4429
15828SOL    HW149223   5.771   4.363   7.691  0.1535 -1.0700 -0.4625
15828SOL    HW249224   5.621   4.375   7.708  0.3174 -0.2081  0.4855
15829SOL     OW49225   4.759   1.668   2.639 -0.3413 -0.1612  0.3379
15829SOL    HW149226   4.843   1.657   2.684 -0.7116 -0.2717  1.0282
15829SOL    HW249227   4.696   1.681   2.710 -1.0442 -0.9603 -0.1250
15830SOL     OW49228   7.167   3.053   7.227 -0.6369  0.1783  0.3234
15830SOL    HW149229   7.153   3.085   7.138 -2.4840  0.2300  0.5998
15830SOL    HW249230   7.262   3.057   7.239 -0.0371 -2.1168 -2.4628
15831SOL     OW49231   4.694   3.818   7.242  0.1128  0.2199  0.6906
15831SOL    HW149232   4.635   3.879   7.286 -0.3989 -0.1578  0.5358
15831SOL    HW249233   4.755   3.874   7.193 -0.6848  0.6022  0.1140
15832SOL     OW49234   1.526   3.594   8.837  1.0296  0.1183 -0.2930
15832SOL    HW149235   1.526   3.499   8.853 -0.2797  0.1390 -0.0059
15832SOL    HW249236   1.433   3.616   8.832  1.3367  1.1654 -1.7878
15833SOL     OW49237   6.372   8.872   8.348 -0.0155  0.4663  0.1056
15833SOL    HW149238   6.304   8.920   8.396  0.1033  0.5316  0.2123
15833SOL    HW249239   6.355   8.892   8.256  0.5610  1.4497  0.1899
15834SOL     OW49240   7.927   3.246   5.550 -0.7184 -0.0111  0.0226
15834SOL    HW149241   7.842   3.277   5.582 -0.5432  1.2762 -0.6806
15834SOL    HW249242   7.941   3.163   5.595 -2.1871 -0.0721  0.4178
15835SOL     OW49243   4.106   7.236   2.213  0.1342  0.3891  1.0909
15835SOL    HW149244   4.061   7.305   2.164  0.2940 -0.6555 -0.6035
15835SOL    HW249245   4.036   7.178   2.241  0.2210 -0.1055  0.2995
15836SOL     OW49246   5.271   5.801   5.214  0.3143  0.6397  0.2496
15836SOL    HW149247   5.203   5.768   5.155 -0.5821 -1.0777  2.1095
15836SOL    HW249248   5.353   5.765   5.180 -0.0807  0.2668 -0.3304
15837SOL     OW49249   5.950   2.034   8.128 -0.3957 -0.5819  0.0555
15837SOL    HW149250   5.960   2.091   8.052 -0.0139  0.4067  0.8193
15837SOL    HW249251   6.001   2.077   8.197 -0.0072 -1.9107  0.6337
15838SOL     OW49252   9.204   1.951   7.514  0.3160  0.1659  1.0453
15838SOL    HW149253   9.185   1.952   7.420  1.1346  1.0922  0.8612
15838SOL    HW249254   9.120   1.937   7.556 -0.0722 -0.1851  0.1663
15839SOL     OW49255   5.896   2.770   8.015  0.1611 -0.5323 -0.0450
15839SOL    HW149256   5.952   2.693   8.025  0.2171 -0.1906  3.1519
15839SOL    HW249257   5.808   2.738   8.031  0.0244 -0.1489 -0.0176
15840SOL     OW49258   6.189   1.463   3.105  0.1096  0.2774  0.2039
15840SOL    HW149259   6.252   1.466   3.177  0.2323  1.1304  0.0679
15840SOL    HW249260   6.241   1.439   3.029  0.9390  3.9309 -0.5519
15841SOL     OW49261   8.790   4.436   6.590  0.3101 -0.6588  0.4598
15841SOL    HW149262   8.836   4.495   6.532  1.4583 -1.8063  0.1486
15841SOL    HW249263   8.706   4.421   6.547  0.5913 -0.4017 -0.1934
15842SOL     OW49264   9.290   1.870   3.083  0.5439 -0.4948  0.3930
15842SOL    HW149265   9.307   1.776   3.076  0.9807 -0.3739 -0.2002
15842SOL    HW249266   9.328   1.908   3.004  0.5087  0.2031  0.7006
15843SOL     OW49267   1.948   1.041   8.046  0.6527  0.1042  0.3983
15843SOL    HW149268   1.963   1.114   8.105  0.6604  0.2719  0.1907
15843SOL    HW249269   1.857   1.015   8.061  0.2626  0.9366 -0.3849
15844SOL     OW49270   0.539   2.626   3.868  0.3214  0.3159 -0.0665
15844SOL    HW149271   0.631   2.648   3.883  0.3134  1.6157 -1.6043
15844SOL    HW249272   0.528   2.539   3.906  2.3026 -0.0685 -0.2696
15845SOL     OW49273   6.737   3.565   2.639 -0.7344 -0.3096 -0.0468
15845SOL    HW149274   6.734   3.473   2.611  0.0743 -0.4194  0.2104
15845SOL    HW249275   6.666   3.607   2.590 -0.2627 -0.7870 -1.1787
15846SOL     OW49276   7.097   2.710   6.911 -0.5176  0.3696  0.1394
15846SOL    HW149277   7.103   2.805   6.916 -1.8420  0.4517  0.4171
15846SOL    HW249278   7.118   2.680   6.999 -1.4115  0.4968  0.4068
15847SOL     OW49279   0.521   1.132   9.409  0.6879 -0.2906  0.0407
15847SOL    HW149280   0.570   1.085   9.476 -0.0652  0.8550  1.4542
15847SOL    HW249281   0.429   1.115   9.430  0.4328  0.7389 -0.1875
15848SOL     OW49282   7.924   4.125   0.907  0.0082  0.3873  0.0307
15848SOL    HW149283   7.991   4.193   0.908  0.8137 -0.3841  1.9819
15848SOL    HW249284   7.960   4.054   0.959 -2.7547  0.4386  2.2883
15849SOL     OW49285   2.177   4.733   4.891 -0.3594 -0.1727  0.0136
15849SOL    HW149286   2.177   4.790   4.814 -0.4840 -1.1390 -0.7212
15849SOL    HW249287   2.267   4.699   4.895 -0.6496 -1.0241 -0.4101
15850SOL     OW49288   8.692   7.637   1.144  0.1567 -0.2097  0.3984
15850SOL    HW149289   8.645   7.619   1.225  1.2143 -1.2051  0.8277
15850SOL    HW249290   8.760   7.570   1.140 -0.5522 -0.8946 -1.8987
15851SOL     OW49291   1.551   7.373   4.106  0.3423  0.2815  0.2959
15851SOL    HW149292   1.644   7.355   4.090  0.3129  0.7377 -0.4380
15851SOL    HW249293   1.541   7.466   4.084  0.0064  0.6065  1.7352
15852SOL     OW49294   8.809   7.671   4.143 -0.3060 -0.2719 -0.0001
15852SOL    HW149295   8.886   7.649   4.091 -0.5918 -1.8886  0.2213
15852SOL    HW249296   8.735   7.649   4.085 -0.6311  1.4610 -0.2949
15853SOL     OW49297   1.116   7.759   3.245 -0.2963  0.3335 -0.2428
15853SOL    HW149298   1.152   7.757   3.157  0.8314 -1.1277  0.2204
15853SOL    HW249299   1.193   7.768   3.302 -0.8448 -0.4972  0.6575
15854SOL     OW49300   5.896   3.036   5.165  0.4656 -0.0866  0.0927
15854SOL    HW149301   5.869   3.067   5.251 -2.2221  0.3637 -0.8372
15854SOL    HW249302   5.902   2.940   5.175  2.7603  0.1058  1.3625
15855SOL     OW49303   8.314   4.924   5.638  0.7524 -0.0977  0.2292
15855SOL    HW149304   8.277   4.855   5.693  0.7519 -2.0036 -1.9830
15855SOL    HW249305   8.237   4.967   5.600  0.7633  0.8266  1.2088
15856SOL     OW49306   7.672   8.385   8.226 -0.4866  0.0510  0.4030
15856SOL    HW149307   7.703   8.415   8.140  0.1794  1.1768  1.0131
15856SOL    HW249308   7.579   8.368   8.213 -0.5225  0.7653 -0.4122
15857SOL     OW49309   1.550   5.717   2.575 -0.8056 -0.0863  0.6416
15857SOL    HW149310   1.511   5.741   2.659  0.6206  2.8043  0.5764
15857SOL    HW249311   1.638   5.687   2.597 -0.2692  1.1062  0.1702
15858SOL     OW49312   5.850   8.317   6.720  0.2025  0.1738  0.0492
15858SOL    HW149313   5.775   8.267   6.690 -0.8181  0.8939  1.3028
15858SOL    HW249314   5.909   8.320   6.644  0.2318 -2.6803 -0.1295
15859SOL     OW49315   8.267   4.026   7.548 -0.1878  0.3248 -0.7198
15859SOL    HW149316   8.356   3.997   7.566 -0.0297  1.2196  0.0165
15859SOL    HW249317   8.221   3.947   7.521 -0.0280 -0.8396  2.0809
15860SOL     OW49318   1.479   0.469   4.577 -0.0375  0.2972  0.1546
15860SOL    HW149319   1.412   0.483   4.511  1.3591  0.7370 -1.2418
15860SOL    HW249320   1.557   0.511   4.541  0.6181  1.1837  2.4143
15861SOL     OW49321   2.252   5.017   7.547  0.0034 -0.2439 -0.0065
15861SOL    HW149322   2.217   5.083   7.608  0.0303  1.2390 -1.5089
15861SOL    HW249323   2.279   4.944   7.603  0.1209  1.0808  1.7548
15862SOL     OW49324   7.372   1.813   8.962 -0.1894  0.4341 -0.1899
15862SOL    HW149325   7.305   1.778   8.903  0.3521  0.0927 -0.6129
15862SOL    HW249326   7.327   1.881   9.011 -0.5593  1.0457 -1.3245
15863SOL     OW49327   3.819   2.994   2.356 -0.2761 -0.4518 -0.2154
15863SOL    HW149328   3.878   2.962   2.288  1.1595  0.3042  0.6306
15863SOL    HW249329   3.803   2.917   2.412 -0.9734 -0.9188 -1.0182
15864SOL     OW49330   4.043   0.292   3.722 -0.0731 -0.2956 -0.0059
15864SOL    HW149331   4.114   0.273   3.661 -0.7709  0.1234 -0.9697
15864SOL    HW249332   3.999   0.369   3.685  1.1419  1.7139  2.4579
15865SOL     OW49333   2.366   9.033   1.268  0.5745 -0.1409 -0.4255
15865SOL    HW149334   2.273   9.055   1.260  0.6728  0.5522  0.2477
15865SOL    HW249335   2.405   9.063   1.186  0.3958  0.5970 -0.2465
15866SOL     OW49336   8.705   6.667   4.536  0.0091  0.2120 -0.2242
15866SOL    HW149337   8.671   6.627   4.616 -0.2747 -0.7551 -0.8132
15866SOL    HW249338   8.639   6.732   4.512 -0.5256 -0.3620 -0.3412
15867SOL     OW49339   8.301   8.368   5.420 -0.6378 -0.1185  0.2004
15867SOL    HW149340   8.282   8.305   5.351 -0.8823 -0.5008  0.6071
15867SOL    HW249341   8.281   8.321   5.501 -1.6297  0.7375  0.4888
15868SOL     OW49342   0.905   0.701   9.229 -0.9555  0.2886  0.3003
15868SOL    HW149343   0.919   0.771   9.292 -0.9255  2.0096 -1.5346
15868SOL    HW249344   0.845   0.641   9.273 -0.1247  0.8789  2.3311
15869SOL     OW49345   0.072   8.014   8.659 -0.5723  0.6674  0.1962
15869SOL    HW149346   0.098   8.102   8.688  0.5458  0.6483 -0.7198
15869SOL    HW249347   0.131   7.993   8.588 -1.0384 -0.7174  0.1857
15870SOL     OW49348   0.783   0.669   3.806 -0.3102 -0.7313  0.4321
15870SOL    HW149349   0.815   0.587   3.769  1.6287  0.2756 -0.2529
15870SOL    HW249350   0.752   0.645   3.893 -0.8557 -2.3683 -0.1670
15871SOL     OW49351   8.210   5.079   9.110  0.6216  0.4375  0.1318
15871SOL    HW149352   8.236   5.169   9.131  1.6175  0.2066 -0.0324
15871SOL    HW249353   8.215   5.033   9.194  0.6292  0.4207  0.1221
15872SOL     OW49354   6.511   1.031   3.886 -0.0421  0.0666 -0.6111
15872SOL    HW149355   6.458   1.063   3.958  1.9119  0.1473  0.8814
15872SOL    HW249356   6.494   0.937   3.882 -1.0701  0.2522 -0.8812
15873SOL     OW49357   5.619   5.674   0.410  0.0727  0.0287  0.0533
15873SOL    HW149358   5.629   5.610   0.340  1.6861 -0.9060  1.0913
15873SOL    HW249359   5.660   5.754   0.375  2.3168 -0.8795  0.4448
15874SOL     OW49360   3.209   0.052   2.525 -0.4377 -0.1098 -0.3064
15874SOL    HW149361   3.181  -0.035   2.554  1.6236 -0.4408  0.9476
15874SOL    HW249362   3.300   0.058   2.554 -0.7837  2.8446  0.4605
15875SOL     OW49363   2.172   5.865   2.137 -0.4020 -0.2537  0.4182
15875SOL    HW149364   2.262   5.895   2.148  0.1903 -1.7077 -0.2435
15875SOL    HW249365   2.172   5.817   2.054 -1.5974 -0.9431  0.7911
15876SOL     OW49366   5.823   3.420   6.358 -0.4903 -0.2201  0.6019
15876SOL    HW149367   5.733   3.446   6.339 -1.0025 -1.1110  1.7325
15876SOL    HW249368   5.815   3.331   6.394  1.0068 -1.1313 -1.1261
15877SOL     OW49369   3.495   1.113   2.022  0.0406  0.1017 -0.0941
15877SOL    HW149370   3.521   1.203   2.043 -1.1489  0.1859  1.2328
15877SOL    HW249371   3.515   1.103   1.929  0.7980  1.5236 -0.1112
15878SOL     OW49372   9.167   1.313   7.835  0.0006  0.2437 -0.1573
15878SOL    HW149373   9.207   1.239   7.789  0.0831 -0.0475  0.3727
15878SOL    HW249374   9.219   1.389   7.809 -0.9107  0.3622 -1.7765
15879SOL     OW49375   9.475   6.959   2.205  0.1554 -0.1466 -0.1577
15879SOL    HW149376   9.507   6.892   2.145 -1.0128 -1.0581  0.1725
15879SOL    HW249377   9.498   7.042   2.164  1.3059 -0.7445 -0.7708
15880SOL     OW49378   2.994   4.742   1.833  0.1447  0.0813  0.3102
15880SOL    HW149379   2.959   4.826   1.863  0.5806  0.8407 -1.2088
15880SOL    HW249380   2.918   4.683   1.831 -0.6563  1.1079 -0.9036
15881SOL     OW49381   3.048   3.058   5.791 -0.0140  0.4249  0.3659
15881SOL    HW149382   3.106   3.124   5.829  0.8633  0.2671 -0.6467
15881SOL    HW249383   2.961   3.098   5.793  0.3086  1.1194  0.8650
15882SOL     OW49384   0.593   2.129   5.093 -0.3083  0.0110 -0.2641
15882SOL    HW149385   0.625   2.039   5.103 -0.1778  0.1243  0.3255
15882SOL    HW249386   0.648   2.181   5.151 -0.7452  0.3983 -0.1935
15883SOL     OW49387   0.516   5.975   6.317 -0.0122  0.3685  0.2614
15883SOL    HW149388   0.534   6.018   6.400 -0.9649 -0.4441  0.9168
15883SOL    HW249389   0.420   5.971   6.313  0.0011 -2.4721  0.6800
15884SOL     OW49390   7.380   8.307   2.669 -0.0005  0.2041  0.7101
15884SOL    HW149391   7.294   8.287   2.634  0.5414 -0.3732 -0.3369
15884SOL    HW249392   7.389   8.250   2.746 -1.1698  1.4393  1.8063
15885SOL     OW49393   1.079   1.444   8.972  0.1546  0.1829 -0.7150
15885SOL    HW149394   1.167   1.408   8.973  0.0735  0.0061  0.0929
15885SOL    HW249395   1.076   1.504   9.046 -0.6844 -0.4887 -0.1860
15886SOL     OW49396   1.530   4.490   6.418  0.1479  0.3692 -0.0704
15886SOL    HW149397   1.533   4.439   6.499 -2.4701  0.7964  0.3850
15886SOL    HW249398   1.539   4.581   6.446  0.0776  0.4659 -0.3598
15887SOL     OW49399   5.028   3.697   7.824  0.3248  0.0348 -0.0794
15887SOL    HW149400   5.028   3.789   7.797  0.0742  0.0840  0.0928
15887SOL    HW249401   5.062   3.698   7.913  0.0922 -0.0146  0.0095
15888SOL     OW49402   6.716   5.774   2.670  0.2089 -0.4192  0.2259
15888SOL    HW149403   6.660   5.843   2.706  1.3584  1.7029 -1.7216
15888SOL    HW249404   6.793   5.773   2.727  0.8094  0.9905 -0.4968
15889SOL     OW49405   0.330   0.694   5.432 -0.4044  0.1881  0.1406
15889SOL    HW149406   0.246   0.732   5.408 -0.4689 -0.2737 -0.3737
15889SOL    HW249407   0.386   0.711   5.356 -0.3748 -0.5635 -0.0062
15890SOL     OW49408   2.121   8.629   2.535 -0.3481  0.6323  0.3210
15890SOL    HW149409   2.157   8.717   2.541 -1.8234  1.2412  0.6620
15890SOL    HW249410   2.142   8.589   2.619  1.0834  0.3162 -0.1479
15891SOL     OW49411   2.521   8.329   6.453  0.4650 -0.0211  0.2984
15891SOL    HW149412   2.445   8.302   6.402  1.1809  1.7469 -1.8557
15891SOL    HW249413   2.526   8.424   6.440  2.0427  0.1579  1.8125
15892SOL     OW49414   9.086   8.857   4.171  0.0646 -0.3768  0.7034
15892SOL    HW149415   9.121   8.890   4.254 -1.7635  1.9020  0.6735
15892SOL    HW249416   9.013   8.915   4.151 -0.5322 -1.8217 -1.7511
15893SOL     OW49417   7.075   8.848   7.570 -0.4309  0.2427 -0.3031
15893SOL    HW149418   6.994   8.897   7.558 -0.9706 -0.1843  1.3110
15893SOL    HW249419   7.068   8.811   7.658 -0.1705 -2.9408 -1.4707
15894SOL     OW49420   8.138   7.915   1.487 -0.3542 -0.4819 -0.0299
15894SOL    HW149421   8.175   7.965   1.414 -1.1063  1.4227  0.8382
15894SOL    HW249422   8.045   7.937   1.487 -0.1460  0.6425  2.2919
15895SOL     OW49423   0.736   5.363   8.415  0.1595 -0.1006  0.2469
15895SOL    HW149424   0.782   5.447   8.411  0.3174 -0.2097 -0.3189
15895SOL    HW249425   0.644   5.384   8.403  0.2556 -0.0548 -0.4878
15896SOL     OW49426   0.864   8.222   3.377  0.7787  0.1045  0.6245
15896SOL    HW149427   0.818   8.289   3.326 -0.4196 -1.3862 -0.3373
15896SOL    HW249428   0.956   8.247   3.370  0.3010  2.2153  1.1730
15897SOL     OW49429   1.426   6.940   8.051 -0.4536  0.0284  0.5270
15897SOL    HW149430   1.425   6.927   8.146 -1.5728 -0.0431  0.5224
15897SOL    HW249431   1.416   7.035   8.040 -0.1368  0.0558  0.4865
15898SOL     OW49432   7.978   8.521   4.679 -0.8338  0.1348  0.0195
15898SOL    HW149433   7.979   8.464   4.757 -2.6874 -1.6491 -1.1474
15898SOL    HW249434   8.065   8.561   4.677 -0.5205 -0.2579  2.6274
15899SOL     OW49435   1.829   8.083   3.428 -0.5807  0.3115  0.0544
15899SOL    HW149436   1.790   8.014   3.374 -0.7459  0.3306  0.1492
15899SOL    HW249437   1.909   8.043   3.463  0.5744  0.9229 -1.7523
15900SOL     OW49438   5.621   3.801   8.853  0.2787 -0.5605 -0.0570
15900SOL    HW149439   5.671   3.733   8.809 -2.3510 -3.0711  0.5545
15900SOL    HW249440   5.588   3.856   8.783  1.6192 -0.4327 -0.6264
15901SOL     OW49441   7.132   6.149   8.131 -0.2526 -0.1345 -0.1241
15901SOL    HW149442   7.145   6.232   8.175 -0.2432  1.1206 -2.3358
15901SOL    HW249443   7.044   6.155   8.094 -0.4731 -1.3563  0.1462
15902SOL     OW49444   2.656   6.698   5.346 -0.1206 -0.4020 -0.2677
15902SOL    HW149445   2.645   6.759   5.419 -2.2812 -1.1931  0.1324
15902SOL    HW249446   2.619   6.616   5.378 -0.9149 -0.8296 -2.1576
15903SOL     OW49447   5.797   1.116   4.447 -0.7074  0.4091 -0.1538
15903SOL    HW149448   5.824   1.203   4.474  1.0047 -0.1070 -0.0951
15903SOL    HW249449   5.835   1.104   4.360 -2.4801  0.3894 -0.9756
15904SOL     OW49450   1.911   7.204   8.842  0.5416 -0.5040 -0.2340
15904SOL    HW149451   1.981   7.266   8.863  0.0875 -0.5084  1.4853
15904SOL    HW249452   1.950   7.118   8.853  0.1561 -0.5115  1.3040
15905SOL     OW49453   3.250   6.690   5.553 -0.1272 -0.4436 -0.1355
15905SOL    HW149454   3.288   6.768   5.513  0.2144 -1.1678 -1.2492
15905SOL    HW249455   3.302   6.617   5.520 -0.5160 -1.1738  0.7914
15906SOL     OW49456   1.789   6.971   9.211 -0.2989 -0.3958  0.0606
15906SOL    HW149457   1.818   6.888   9.171 -0.1049  0.0786 -0.8203
15906SOL    HW249458   1.757   7.022   9.137 -3.0652 -0.7309  0.9114
15907SOL     OW49459   5.608   1.527   1.769  0.4806 -0.3552 -0.5169
15907SOL    HW149460   5.567   1.563   1.848 -1.4619  0.2688 -1.7554
15907SOL    HW249461   5.632   1.604   1.717  0.4182 -0.7805 -1.1819
15908SOL     OW49462   1.905   0.852   5.589  0.3199  0.2062  0.0394
15908SOL    HW149463   1.886   0.773   5.538  0.9874 -0.7524  1.1980
15908SOL    HW249464   1.949   0.910   5.528  1.0270 -0.8787 -0.5301
15909SOL     OW49465   5.211   2.932   7.941  1.3187 -0.1486 -0.0262
15909SOL    HW149466   5.278   2.925   8.010  2.6730  1.0906 -1.1262
15909SOL    HW249467   5.260   2.917   7.860  0.1295  0.2213 -0.8293
15910SOL     OW49468   1.338   3.090   9.370 -0.5641 -0.6098  0.1573
15910SOL    HW149469   1.263   3.046   9.409 -0.6172 -1.3455 -0.7479
15910SOL    HW249470   1.407   3.024   9.369  0.0168 -0.0337  0.6919
15911SOL     OW49471   9.561   4.634   3.902 -0.4215  0.2669  0.1519
15911SOL    HW149472   9.594   4.549   3.931  1.6176  0.3243 -1.6822
15911SOL    HW249473   9.489   4.614   3.843  1.0318 -0.3632 -1.5031
15912SOL     OW49474   3.781   8.913   4.850 -0.5163 -0.7626  0.0628
15912SOL    HW149475   3.740   8.894   4.934 -0.4806 -2.3517 -0.2538
15912SOL    HW249476   3.710   8.943   4.794 -0.1667  3.1018  1.3488
15913SOL     OW49477   8.255   3.955   2.466  0.1520 -0.0848  0.5054
15913SOL    HW149478   8.178   3.998   2.427 -0.8677 -1.4077  0.9739
15913SOL    HW249479   8.240   3.962   2.561  1.9463  1.9392  0.7123
15914SOL     OW49480   2.503   9.417   0.438 -0.9759  0.2250  0.8601
15914SOL    HW149481   2.423   9.420   0.386 -1.0520  1.6165  1.0136
15914SOL    HW249482   2.474   9.403   0.528 -0.9135 -1.1089  0.6850
15915SOL     OW49483   2.965   7.000   0.633 -0.1865 -0.0411 -0.6140
15915SOL    HW149484   2.969   7.082   0.583 -1.4660 -0.4055 -1.3644
15915SOL    HW249485   2.894   6.950   0.591  0.8756 -1.7395 -0.4665
15916SOL     OW49486   3.772   0.247   4.520 -0.0273  0.8797 -0.6239
15916SOL    HW149487   3.711   0.316   4.546 -0.6149  0.2114 -0.1911
15916SOL    HW249488   3.858   0.288   4.525 -0.4197  1.7708 -1.0244
15917SOL     OW49489   4.896   9.069   6.703  0.6496  0.1857 -0.2828
15917SOL    HW149490   4.920   9.016   6.627 -0.4218  0.0901 -0.5626
15917SOL    HW249491   4.925   9.017   6.778  1.9737  0.4103 -0.6010
15918SOL     OW49492   0.495   4.359   8.223 -0.1680  0.2096 -0.0704
15918SOL    HW149493   0.536   4.378   8.307  1.2520 -0.4096 -0.5822
15918SOL    HW249494   0.462   4.444   8.193 -3.0354  0.0452  2.2204
15919SOL     OW49495   7.550   0.659   7.621  0.2550  0.0002 -0.2117
15919SOL    HW149496   7.545   0.569   7.653 -1.3873  0.2858  0.4641
15919SOL    HW249497   7.518   0.655   7.531  2.1724 -0.3755 -0.9145
15920SOL     OW49498   1.444   7.460   1.924 -0.2412  0.6603 -0.2629
15920SOL    HW149499   1.478   7.406   1.854  0.4770 -1.9434  1.9207
15920SOL    HW249500   1.359   7.491   1.891 -0.1165 -0.7841 -2.1122
15921SOL     OW49501   8.457   8.563   4.650 -0.2865 -0.1926  0.4524
15921SOL    HW149502   8.464   8.479   4.696  0.6312  0.1165  0.9008
15921SOL    HW249503   8.483   8.542   4.560 -1.1859 -0.6118  0.2776
15922SOL     OW49504   3.148   5.481   6.221 -0.3939 -0.0188 -0.5237
15922SOL    HW149505   3.167   5.464   6.313 -1.9238  0.8976  0.0085
15922SOL    HW249506   3.194   5.562   6.201  0.9299 -0.8401 -0.9531
15923SOL     OW49507   3.480   8.200   0.284  0.1580 -0.1220 -0.0442
15923SOL    HW149508   3.512   8.220   0.372 -0.4714  1.6839 -0.1899
15923SOL    HW249509   3.405   8.142   0.298 -0.5444  0.9281  0.6951
15924SOL     OW49510   8.401   6.701   9.407 -0.1610 -0.0826  0.4157
15924SOL    HW149511   8.415   6.627   9.466 -0.3785 -0.0100  0.5590
15924SOL    HW249512   8.413   6.778   9.462 -0.4963 -0.0154  0.3924
15925SOL     OW49513   8.130   4.696   1.960 -0.0303  0.1463 -0.0024
15925SOL    HW149514   8.212   4.649   1.975 -0.2285 -0.0589  0.4580
15925SOL    HW249515   8.064   4.628   1.953 -0.3067  0.3472  0.5951
15926SOL     OW49516   2.679   1.807   0.522 -0.5077  0.4053 -0.4414
15926SOL    HW149517   2.678   1.891   0.477  1.5232  2.3094  2.5993
15926SOL    HW249518   2.606   1.812   0.584 -0.4463 -0.1187 -0.3232
15927SOL     OW49519   1.952   5.113   0.422 -0.1363  0.4081  0.0722
15927SOL    HW149520   1.980   5.187   0.476 -0.5324  1.3258 -0.9479
15927SOL    HW249521   1.868   5.085   0.460 -0.3293  0.9378  0.0410
15928SOL     OW49522   4.553   1.088   0.530 -0.4119 -0.3769  0.4198
15928SOL    HW149523   4.568   1.041   0.448  2.6400 -0.5411  0.9616
15928SOL    HW249524   4.592   1.032   0.597 -1.2520  0.5933  1.7678
15929SOL     OW49525   3.578   0.906   8.065 -0.4047  0.4657 -0.0291
15929SOL    HW149526   3.550   0.884   8.153 -0.3352  0.6614  0.0430
15929SOL    HW249527   3.514   0.865   8.008 -2.5704  3.2430  0.1804
15930SOL     OW49528   8.102   2.584   3.919  0.0353 -0.3388  0.4686
15930SOL    HW149529   8.060   2.637   3.987 -0.0802  0.4068 -0.1669
15930SOL    HW249530   8.120   2.500   3.961  3.5736  1.2987  2.7008
15931SOL     OW49531   5.182   6.084   1.016  0.4418  0.3681 -0.2051
15931SOL    HW149532   5.145   6.076   1.104 -2.0326 -1.4435 -1.3288
15931SOL    HW249533   5.169   6.176   0.993 -1.0965  0.3276  0.4198
15932SOL     OW49534   0.705   7.743   8.428  0.2722  0.0468 -0.6232
15932SOL    HW149535   0.759   7.725   8.504 -0.7806  0.6361  0.2973
15932SOL    HW249536   0.754   7.707   8.354  1.4211 -0.3257  0.2957
15933SOL     OW49537   6.792   1.216   2.845  0.3438  0.3858  0.3136
15933SOL    HW149538   6.719   1.162   2.875 -0.2794  1.1355  0.1681
15933SOL    HW249539   6.751   1.295   2.811  1.3116  1.7794  2.2105
15934SOL     OW49540   2.819   1.686   7.041 -0.0405 -0.4347 -0.3346
15934SOL    HW149541   2.729   1.660   7.019 -1.0884  0.0882  2.8164
15934SOL    HW249542   2.862   1.603   7.063 -1.2186 -0.3996  2.5839
15935SOL     OW49543   5.015   7.550   9.450  0.3926  0.2154 -0.0963
15935SOL    HW149544   4.964   7.481   9.493 -1.6355  0.9077 -1.2793
15935SOL    HW249545   5.009   7.625   9.509 -2.5707  1.2335 -1.4755
15936SOL     OW49546   2.195   7.323   5.991  0.4129  0.1807 -0.2897
15936SOL    HW149547   2.205   7.417   6.001 -0.5400  0.2408  0.2823
15936SOL    HW249548   2.133   7.313   5.919  0.9460 -0.0349 -0.7279
15937SOL     OW49549   4.790   6.620   5.799 -0.1317  0.1017 -0.6312
15937SOL    HW149550   4.802   6.530   5.831  0.7251  0.2273 -0.5710
15937SOL    HW249551   4.705   6.619   5.755 -0.5191 -0.5257  0.1001
15938SOL     OW49552   5.610   6.926   5.099 -0.0021 -0.0162 -0.5738
15938SOL    HW149553   5.685   6.906   5.043  1.7334  2.6327  0.5757
15938SOL    HW249554   5.610   6.857   5.165  2.5953  0.7789  0.4028
15939SOL     OW49555   5.829   7.678   0.848  0.3956  0.2279  0.1125
15939SOL    HW149556   5.749   7.665   0.898  0.3149  0.8575  0.1498
15939SOL    HW249557   5.879   7.743   0.898  0.4353  0.6569 -0.4755
15940SOL     OW49558   4.386   6.623   2.959 -0.1444  0.0021 -0.1587
15940SOL    HW149559   4.424   6.632   3.047  0.1867  0.7077 -0.3662
15940SOL    HW249560   4.292   6.630   2.973 -0.2242 -1.7447  0.3630
15941SOL     OW49561   4.697   9.542   4.315 -0.2137  0.1699  0.0495
15941SOL    HW149562   4.736   9.623   4.282 -0.6151 -0.3674 -1.8537
15941SOL    HW249563   4.614   9.534   4.268 -0.9269 -0.5623  1.3720
15942SOL     OW49564   1.966   2.025   2.695 -0.0981  0.2170  0.0731
15942SOL    HW149565   1.974   2.087   2.768 -0.9331  0.7134 -0.2553
15942SOL    HW249566   2.030   2.055   2.631  0.0415  0.2767  0.2371
15943SOL     OW49567   2.216   7.446   3.727 -0.3769  0.7686 -0.3113
15943SOL    HW149568   2.241   7.534   3.699  0.0005  0.5634 -0.6251
15943SOL    HW249569   2.249   7.439   3.816  0.3634  0.6286 -0.5966
15944SOL     OW49570   1.215   2.378   4.177 -0.0897 -0.3529  0.0608
15944SOL    HW149571   1.290   2.437   4.183 -0.1485 -0.3929  1.8393
15944SOL    HW249572   1.225   2.335   4.093  1.5884  0.0352  0.0211
15945SOL     OW49573   8.049   3.271   5.309  0.2473 -0.0053 -0.4466
15945SOL    HW149574   8.124   3.324   5.335  1.1850 -1.1937 -0.6201
15945SOL    HW249575   7.999   3.259   5.390  0.2904  0.7113 -0.3075
15946SOL     OW49576   2.172   1.722   8.174 -0.7966 -0.3459  0.0333
15946SOL    HW149577   2.240   1.733   8.108  1.4834  1.2151  2.3960
15946SOL    HW249578   2.129   1.807   8.179  0.1346  0.0926  1.5169
15947SOL     OW49579   7.494   4.456   6.939  0.2189 -0.2128  0.3033
15947SOL    HW149580   7.527   4.508   6.865  1.3046 -0.3627  0.6612
15947SOL    HW249581   7.418   4.411   6.904 -0.8262  1.6723 -0.0037
15948SOL     OW49582   5.686   4.626   0.327  0.0156  0.5166 -0.6193
15948SOL    HW149583   5.739   4.706   0.330 -0.2462  0.7443 -1.5546
15948SOL    HW249584   5.729   4.566   0.388  0.6649  1.1066 -0.4813
15949SOL     OW49585   2.061   3.262   7.456  0.1234 -0.3833 -0.1115
15949SOL    HW149586   2.013   3.213   7.389  0.3590 -0.1378 -0.4678
15949SOL    HW249587   2.127   3.311   7.406  0.6632 -0.6250  0.3524
15950SOL     OW49588   8.967   4.126   8.656  0.5001 -0.3865  0.7862
15950SOL    HW149589   8.984   4.208   8.702  0.3900 -0.3867  0.8277
15950SOL    HW249590   8.949   4.062   8.725  1.8018 -0.7386  0.8078
15951SOL     OW49591   6.825   5.838   4.892  0.1167  0.0722 -0.4512
15951SOL    HW149592   6.871   5.919   4.913  1.3742 -1.0242  1.3489
15951SOL    HW249593   6.743   5.866   4.852  0.8654  2.1901 -0.6142
15952SOL     OW49594   1.643   8.485   4.457 -0.1376  0.5742 -0.0943
15952SOL    HW149595   1.642   8.439   4.373 -1.5107 -0.4391  0.4343
15952SOL    HW249596   1.734   8.514   4.468  0.2118  0.1181 -1.5936
15953SOL     OW49597   5.494   4.782   7.514 -0.1387 -0.1131 -0.2824
15953SOL    HW149598   5.489   4.695   7.474 -1.9977 -0.7233  1.1577
15953SOL    HW249599   5.425   4.783   7.580  0.0181  2.3742 -0.0458
15954SOL     OW49600   4.131   1.033   4.474 -0.4432  0.0400 -0.0752
15954SOL    HW149601   4.187   0.959   4.493  0.7022  0.6597 -0.8893
15954SOL    HW249602   4.055   0.995   4.430 -1.2393 -0.9317  2.0426
15955SOL     OW49603   2.290   6.157   6.821  0.2388 -0.1846  0.4641
15955SOL    HW149604   2.264   6.238   6.864 -2.0190 -1.0559  0.8723
15955SOL    HW249605   2.260   6.166   6.731 -0.4859 -0.7467  0.6402
15956SOL     OW49606   7.282   0.836   7.997 -0.2461 -0.1032 -0.5796
15956SOL    HW149607   7.216   0.868   7.935  0.8711  0.6365 -1.4294
15956SOL    HW249608   7.297   0.745   7.971 -0.2828 -0.0037 -0.9591
15957SOL     OW49609   7.334   7.060   9.529  0.1522  0.5600  0.2990
15957SOL    HW149610   7.310   7.006   9.453 -0.3425 -0.2192  0.9845
15957SOL    HW249611   7.310   7.006   9.605 -0.9420  2.0029  1.0165
15958SOL     OW49612   9.610   1.093   3.866 -0.0753 -0.9963  0.2132
15958SOL    HW149613   9.523   1.074   3.832 -0.9280  1.6159  0.6489
15958SOL    HW249614   9.606   1.068   3.958 -1.0086  0.6214  0.6658
15959SOL     OW49615   5.943   6.379   6.869 -0.4894 -0.1971  0.1637
15959SOL    HW149616   5.884   6.339   6.933 -0.8634 -0.4077 -0.3068
15959SOL    HW249617   5.905   6.465   6.852  0.4819  0.5079  1.4034
15960SOL     OW49618   3.798   9.029   0.461  0.3575 -0.5681 -0.2631
15960SOL    HW149619   3.815   8.942   0.424  0.1179  0.1738 -2.2557
15960SOL    HW249620   3.885   9.066   0.477  0.4621 -1.0067  0.2074
15961SOL     OW49621   4.322   4.252   0.638  0.1897  0.2590 -0.3948
15961SOL    HW149622   4.335   4.211   0.724 -0.2993  0.2097 -0.3416
15961SOL    HW249623   4.257   4.320   0.654  1.3462  1.4035 -0.3831
15962SOL     OW49624   4.742   1.283   4.677  0.3480  0.2544 -0.2086
15962SOL    HW149625   4.795   1.203   4.668  0.2301  0.1031  0.3998
15962SOL    HW249626   4.690   1.286   4.597 -0.4611 -0.8889  0.2493
15963SOL     OW49627   0.593   5.740   1.167  0.1073 -0.2221  0.0277
15963SOL    HW149628   0.685   5.759   1.186  0.5534  0.3090 -2.2901
15963SOL    HW249629   0.594   5.654   1.125 -0.9389 -1.8330  2.9813
15964SOL     OW49630   4.575   7.866   8.023  0.1219  0.6270 -0.3794
15964SOL    HW149631   4.617   7.798   7.971  0.5550  0.4859  0.1487
15964SOL    HW249632   4.606   7.851   8.113 -0.4932  0.9570 -0.1009
15965SOL     OW49633   4.194   7.409   7.987 -0.7316 -0.0986 -0.2662
15965SOL    HW149634   4.213   7.349   8.060 -2.9091 -0.6844 -0.1077
15965SOL    HW249635   4.261   7.477   7.994  0.7332 -1.5451  0.6449
15966SOL     OW49636   9.393   5.476   2.459  0.2016  0.5766 -0.1691
15966SOL    HW149637   9.467   5.486   2.399  1.1241 -1.6823  0.5149
15966SOL    HW249638   9.326   5.431   2.407  0.6963 -0.6419  0.2148
15967SOL     OW49639   3.962   6.683   0.677  0.0632  0.8281  0.7564
15967SOL    HW149640   3.935   6.738   0.750 -0.0497 -1.8928  2.9482
15967SOL    HW249641   3.885   6.629   0.657  0.3485  0.9582 -0.8576
15968SOL     OW49642   9.172   1.493   1.096  0.4874 -0.2346  0.9750
15968SOL    HW149643   9.114   1.523   1.026 -0.4328 -1.8582  0.9814
15968SOL    HW249644   9.113   1.462   1.165  1.2522 -2.7913  0.6094
15969SOL     OW49645   2.119   4.918   5.925 -0.0493  0.2319  0.0096
15969SOL    HW149646   2.031   4.917   5.887 -0.6984  0.4679  1.4485
15969SOL    HW249647   2.133   5.009   5.952  0.1948 -0.0172  0.7586
15970SOL     OW49648   2.925   4.225   2.812 -0.1679  0.1044  0.2370
15970SOL    HW149649   2.945   4.154   2.873 -0.6211 -0.7638 -0.6067
15970SOL    HW249650   2.915   4.302   2.868 -0.0424 -0.5662  1.2102
15971SOL     OW49651   1.286   1.851   7.808 -0.1720 -0.0905  0.1569
15971SOL    HW149652   1.271   1.898   7.727 -1.0727  0.1027  0.4182
15971SOL    HW249653   1.200   1.849   7.851  0.1452 -0.7629  0.7919
15972SOL     OW49654   2.587   0.217   7.452 -0.0037  0.3714  0.3794
15972SOL    HW149655   2.669   0.249   7.490 -0.2549  0.1521  1.1149
15972SOL    HW249656   2.579   0.128   7.485  0.2973 -0.2104 -1.0323
15973SOL     OW49657   9.539   5.234   0.965 -0.0852  0.0108  0.6356
15973SOL    HW149658   9.613   5.187   1.002  0.1633 -0.6395 -0.6364
15973SOL    HW249659   9.508   5.178   0.894 -1.4690  0.5232  0.8037
15974SOL     OW49660   9.056   5.237   1.928  0.4173 -0.6338  0.6080
15974SOL    HW149661   9.039   5.262   1.837 -0.0794  1.2745  1.1644
15974SOL    HW249662   8.979   5.267   1.976  1.4231  0.0107  1.8939
15975SOL     OW49663   8.083   5.671   0.694  0.6616  0.4882  0.0973
15975SOL    HW149664   8.029   5.748   0.711 -0.2642  0.4844 -2.4476
15975SOL    HW249665   8.164   5.705   0.658  1.1414  0.3445  1.0163
15976SOL     OW49666   8.270   8.121   5.982  0.2344 -0.8175  0.0754
15976SOL    HW149667   8.339   8.114   6.047  0.2907 -0.3372  0.0705
15976SOL    HW249668   8.314   8.158   5.905  0.2851 -1.8670 -0.4156
15977SOL     OW49669   2.028   1.303   4.948  0.1273 -0.2393 -0.3112
15977SOL    HW149670   1.985   1.217   4.945  0.1970 -0.2687 -0.4772
15977SOL    HW249671   2.073   1.310   4.863  0.0925 -0.0238 -0.3105
15978SOL     OW49672   6.826   7.405   5.780 -0.0200  0.1752 -0.6794
15978SOL    HW149673   6.805   7.349   5.705  1.2052 -0.3236 -0.6757
15978SOL    HW249674   6.782   7.488   5.761 -1.6537 -0.6684 -0.8143
15979SOL     OW49675   3.433   0.090   0.953 -0.1239  0.0084  0.0949
15979SOL    HW149676   3.399   0.006   0.924 -1.2020 -0.1613  1.7306
15979SOL    HW249677   3.461   0.075   1.043  2.0495  0.7845 -0.3918
15980SOL     OW49678   1.819   3.162   1.394  0.3616 -0.1865  0.0220
15980SOL    HW149679   1.729   3.153   1.424 -0.2072 -0.2406 -1.6210
15980SOL    HW249680   1.826   3.254   1.366  0.9348 -0.0897  0.4517
15981SOL     OW49681   6.892   4.728   4.489 -0.2813 -0.0447  0.3729
15981SOL    HW149682   6.895   4.817   4.454 -0.2320 -0.3328 -0.3649
15981SOL    HW249683   6.973   4.719   4.539  0.5111 -0.2248 -0.9043
15982SOL     OW49684   1.103   1.518   2.973  0.2393  0.7703 -0.1119
15982SOL    HW149685   1.069   1.451   2.914  0.7520 -1.6668  2.1734
15982SOL    HW249686   1.194   1.531   2.945  0.5516 -0.5405  0.2115
15983SOL     OW49687   3.277   0.693   4.509  0.8690  0.0302  0.3297
15983SOL    HW149688   3.224   0.712   4.432 -2.2970 -0.8160  2.0971
15983SOL    HW249689   3.263   0.600   4.526  0.7343  0.3596  2.3567
15984SOL     OW49690   3.583   9.393   2.856 -0.0832  0.8051 -1.2032
15984SOL    HW149691   3.488   9.398   2.871 -0.1793 -0.9556 -1.0442
15984SOL    HW249692   3.621   9.424   2.938 -0.5357  0.5792 -0.8987
15985SOL     OW49693   1.435   0.390   2.416 -0.1085  0.1132  0.0019
15985SOL    HW149694   1.425   0.469   2.469  2.0617  1.7050 -1.7914
15985SOL    HW249695   1.376   0.403   2.342 -1.9449 -1.3893  1.0866
15986SOL     OW49696   0.961   3.450   3.128 -0.0561  0.1903  0.2239
15986SOL    HW149697   1.004   3.458   3.214 -0.3038 -1.6396  0.5463
15986SOL    HW249698   0.875   3.412   3.148  0.2086 -1.0454 -0.8984
15987SOL     OW49699   0.795   1.029   5.044 -0.0747  0.0082 -0.2052
15987SOL    HW149700   0.874   1.059   5.089  0.7273  0.0879 -1.6027
15987SOL    HW249701   0.823   1.012   4.954 -1.7624  0.5793 -0.8921
15988SOL     OW49702   9.496   6.527   7.673 -0.0780  0.2671 -0.5020
15988SOL    HW149703   9.590   6.547   7.675  0.0220 -0.2199 -0.1410
15988SOL    HW249704   9.486   6.463   7.603  0.2856 -1.6949  1.1553
15989SOL     OW49705   5.250   8.276   6.114  0.0511 -0.2933  0.1743
15989SOL    HW149706   5.287   8.364   6.100 -0.1291  0.1532  2.2125
15989SOL    HW249707   5.156   8.292   6.125 -0.0454 -0.8002  0.0748
15990SOL     OW49708   4.122   7.861   5.672 -0.2900 -0.1929  0.5787
15990SOL    HW149709   4.207   7.905   5.667  0.2119 -0.6782  3.1889
15990SOL    HW249710   4.110   7.842   5.765 -2.4309 -1.8060  0.0702
15991SOL     OW49711   1.673   1.331   5.224 -0.1081 -0.0354 -0.2850
15991SOL    HW149712   1.687   1.419   5.192  0.8336  0.0956  0.4513
15991SOL    HW249713   1.582   1.331   5.254  0.0253  0.8254  0.1480
15992SOL     OW49714   2.922   4.822   8.467 -0.9560  0.4599 -0.4024
15992SOL    HW149715   2.867   4.747   8.492 -2.2954  1.1155 -1.2867
15992SOL    HW249716   3.010   4.797   8.495 -1.6812 -0.6271  1.0593
15993SOL     OW49717   4.664   9.591   6.083 -0.1051  0.3283  0.0681
15993SOL    HW149718   4.682   9.594   5.989 -0.8641 -0.4446 -0.1178
15993SOL    HW249719   4.654   9.683   6.109  0.4113  0.5608 -0.5409
15994SOL     OW49720   2.997   5.430   2.497 -0.0493  0.2724 -0.5108
15994SOL    HW149721   2.938   5.361   2.466 -1.1997  1.4567 -1.1092
15994SOL    HW249722   2.970   5.447   2.587  0.7555 -0.5634 -0.0951
15995SOL     OW49723   7.684   8.119   6.688  0.2847  0.3468  0.1748
15995SOL    HW149724   7.652   8.156   6.605  0.2385  2.1560  0.9424
15995SOL    HW249725   7.691   8.025   6.671 -0.4100  0.5700 -1.6511
15996SOL     OW49726   2.810   4.762   5.446  0.2535 -0.0917  0.1218
15996SOL    HW149727   2.864   4.686   5.466 -0.6859 -0.9093 -0.4071
15996SOL    HW249728   2.723   4.740   5.479  0.1612  1.1079  0.7392
15997SOL     OW49729   4.178   1.319   7.300 -0.3679  0.1657  0.0150
15997SOL    HW149730   4.273   1.328   7.289  0.7110 -3.8798  3.2744
15997SOL    HW249731   4.148   1.406   7.326  2.3574  1.6135 -1.2883
15998SOL     OW49732   2.757   9.413   7.333 -0.3325 -0.2252 -0.1289
15998SOL    HW149733   2.797   9.479   7.389 -2.4405 -0.9433  2.4098
15998SOL    HW249734   2.669   9.447   7.316 -0.4870 -1.0913 -1.1540
15999SOL     OW49735   6.195   0.962   1.076 -0.0737  0.3809 -0.2769
15999SOL    HW149736   6.148   0.942   0.995  0.6137 -0.3370 -0.5077
15999SOL    HW249737   6.244   1.041   1.056  1.8668 -0.9947 -1.3499
16000SOL     OW49738   4.420   1.146   6.666 -0.3607  0.2747  0.6936
16000SOL    HW149739   4.424   1.216   6.601 -0.4564  0.9779  1.4226
16000SOL    HW249740   4.442   1.189   6.749  3.4534 -1.2786  0.6905
16001SOL     OW49741   7.783   7.491   0.449 -0.3924  0.3787  0.3658
16001SOL    HW149742   7.829   7.467   0.368 -1.9063 -1.5574 -0.0195
16001SOL    HW249743   7.847   7.477   0.518 -0.4864 -3.1075 -0.0528
16002SOL     OW49744   4.009   0.133   7.017 -0.5039  0.4317 -0.5463
16002SOL    HW149745   3.989   0.225   6.997  1.6507  1.3732  1.1445
16002SOL    HW249746   3.991   0.086   6.936 -1.1856  2.4390 -1.6287
16003SOL     OW49747   2.161   7.702   0.373 -0.2314 -0.4955  0.0826
16003SOL    HW149748   2.138   7.643   0.301 -3.9505  1.0209 -0.1963
16003SOL    HW249749   2.137   7.653   0.452 -2.9167  0.3012 -0.1327
16004SOL     OW49750   2.793   1.637   0.721 -0.0909 -0.3112  0.1453
16004SOL    HW149751   2.805   1.705   0.787  1.2034  0.1888 -0.5533
16004SOL    HW249752   2.749   1.682   0.648 -0.0899 -0.4611  0.0519
16005SOL     OW49753   3.145   4.942   8.813 -0.7166  0.7935  0.0587
16005SOL    HW149754   3.056   4.913   8.791 -0.4424  0.8459 -1.2017
16005SOL    HW249755   3.157   5.022   8.762 -0.0005  0.8656  0.3392
16006SOL     OW49756   8.281   3.157   6.519 -0.0271  0.0861 -0.1963
16006SOL    HW149757   8.270   3.251   6.536  1.4371  0.5176 -1.4462
16006SOL    HW249758   8.271   3.149   6.425 -1.6849 -1.2908  0.0539
16007SOL     OW49759   6.526   8.263   4.613  0.8609  0.1772  0.0042
16007SOL    HW149760   6.483   8.269   4.528 -0.5371 -1.3148  0.5596
16007SOL    HW249761   6.468   8.313   4.672  0.6359 -0.6381  0.4860
16008SOL     OW49762   5.301   0.416   4.606 -0.3889 -0.0741  0.1756
16008SOL    HW149763   5.373   0.372   4.652 -1.4233 -1.2976  0.6920
16008SOL    HW249764   5.290   0.366   4.525  1.0152  1.6979 -1.1968
16009SOL     OW49765   8.692   2.439   4.356  0.2321 -0.1442 -0.1568
16009SOL    HW149766   8.726   2.370   4.414  0.2293  1.1560  1.4654
16009SOL    HW249767   8.760   2.450   4.290  0.5523 -1.2080 -0.0220
16010SOL     OW49768   8.819   7.180   6.165  0.5622 -0.3401  0.3757
16010SOL    HW149769   8.884   7.112   6.184  1.4945  0.8214  1.5445
16010SOL    HW249770   8.802   7.172   6.072  1.5953 -1.3714  0.2588
16011SOL     OW49771   8.746   6.973   5.738  0.1870 -0.5643  0.1257
16011SOL    HW149772   8.715   6.908   5.676  0.0501 -0.7102  0.3480
16011SOL    HW249773   8.670   7.028   5.755  0.3397 -0.2543 -0.1743
16012SOL     OW49774   8.376   3.231   4.251  0.7945  0.3372 -0.1911
16012SOL    HW149775   8.358   3.155   4.306 -1.2543  0.2128 -0.9843
16012SOL    HW249776   8.351   3.306   4.305  0.3481  0.3087 -0.3610
16013SOL     OW49777   8.396   4.972   1.704 -0.0965 -0.2760 -0.0511
16013SOL    HW149778   8.442   4.984   1.787  1.0814 -0.8706 -0.5925
16013SOL    HW249779   8.378   4.878   1.700 -0.6325 -0.1698 -0.2317
16014SOL     OW49780   8.540   0.453   8.487 -0.2371 -0.1545  0.6577
16014SOL    HW149781   8.464   0.395   8.488 -0.1500 -0.3333 -0.7327
16014SOL    HW249782   8.613   0.399   8.517 -0.4325 -0.3379  0.7985
16015SOL     OW49783   4.950   6.910   1.736 -0.6676 -0.0592 -0.6758
16015SOL    HW149784   4.908   6.918   1.651  0.2799  2.4919 -0.9697
16015SOL    HW249785   5.043   6.898   1.717 -0.5217 -0.0860 -0.0017
16016SOL     OW49786   6.072   1.180   4.065  0.5497  0.0037 -0.2378
16016SOL    HW149787   6.165   1.177   4.087  0.5287  2.6139  0.5634
16016SOL    HW249788   6.067   1.245   3.995 -0.6487 -0.3571 -0.4979
16017SOL     OW49789   7.507   7.014   0.853 -0.3087 -0.5664  0.1505
16017SOL    HW149790   7.438   6.949   0.840 -0.2269 -0.7513  0.6408
16017SOL    HW249791   7.588   6.968   0.828 -0.3364 -0.4085 -0.2443
16018SOL     OW49792   2.954   7.910   7.159 -0.1565 -0.6480 -0.3249
16018SOL    HW149793   2.996   7.855   7.093 -0.1463 -0.5245 -0.4204
16018SOL    HW249794   3.017   7.980   7.176  0.0412 -0.9332  0.1516
16019SOL     OW49795   1.464   6.675   0.948 -0.4776  0.4042  0.3547
16019SOL    HW149796   1.551   6.688   0.984 -0.4037  0.7529  0.0565
16019SOL    HW249797   1.436   6.589   0.981 -0.5116  0.8126  1.4189
16020SOL     OW49798   5.230   5.499   5.419  0.7256  0.6363  0.2216
16020SOL    HW149799   5.251   5.592   5.430  0.0508  1.0455 -1.5857
16020SOL    HW249800   5.135   5.495   5.426  0.6346  0.3067 -0.8940
16021SOL     OW49801   5.343   0.540   4.027  0.2029  0.1979  0.5410
16021SOL    HW149802   5.282   0.519   3.956  0.0196  1.5080  0.2736
16021SOL    HW249803   5.423   0.567   3.983  0.8684 -1.1614  0.8883
16022SOL     OW49804   7.812   7.469   6.832 -0.4398  0.0620  0.3769
16022SOL    HW149805   7.772   7.387   6.805 -1.1946  0.1933  1.0398
16022SOL    HW249806   7.836   7.513   6.751  0.7334 -1.1716  0.0325
16023SOL     OW49807   6.477   6.857   9.589  0.7233 -0.2791  0.7991
16023SOL    HW149808   6.525   6.804   9.525 -1.7995 -0.6896 -0.8773
16023SOL    HW249809   6.526   6.938   9.594  2.0888 -1.0065 -0.1433
16024SOL     OW49810   5.666   6.851   6.435  0.4279 -0.3595  0.5969
16024SOL    HW149811   5.735   6.863   6.370 -0.4231 -0.5567 -0.3838
16024SOL    HW249812   5.647   6.940   6.466  1.4626 -0.3585  1.2616
16025SOL     OW49813   5.606   0.194   1.631  0.6929 -0.5472  0.1216
16025SOL    HW149814   5.702   0.183   1.630  0.7578  0.0266 -0.1213
16025SOL    HW249815   5.584   0.216   1.541  0.6742  2.0920  0.7001
16026SOL     OW49816   7.750   0.012   7.596 -0.1287  0.2499  0.4098
16026SOL    HW149817   7.760  -0.075   7.557 -1.1390  0.2934  0.0085
16026SOL    HW249818   7.664   0.009   7.639 -0.2465  1.0906  0.2611
16027SOL     OW49819   9.419   5.514   6.617 -0.5114 -0.4576  0.4598
16027SOL    HW149820   9.476   5.510   6.694  2.1675 -0.5498 -1.3537
16027SOL    HW249821   9.398   5.422   6.599 -1.5370 -0.4035  1.3072
16028SOL     OW49822   8.565   1.882   2.319  0.3229 -0.0260  0.5466
16028SOL    HW149823   8.629   1.831   2.367 -0.3267  0.4963  2.0484
16028SOL    HW249824   8.615   1.954   2.280  1.0173 -1.0086 -0.4548
16029SOL     OW49825   7.973   9.307   2.654 -0.6490  0.6358 -0.0805
16029SOL    HW149826   8.028   9.268   2.587  0.4963 -0.7492  1.5783
16029SOL    HW249827   7.936   9.232   2.702 -2.3232  1.5630  0.1500
16030SOL     OW49828   4.467   3.602   3.103 -0.1152 -0.0932  0.1856
16030SOL    HW149829   4.374   3.624   3.098 -0.2900 -1.0237 -0.8665
16030SOL    HW249830   4.472   3.535   3.171  0.1138  1.4405  1.7705
16031SOL     OW49831   3.512   8.030   2.105  1.1331 -0.0777 -0.0946
16031SOL    HW149832   3.447   8.006   2.039 -0.3992  2.8961  0.1425
16031SOL    HW249833   3.586   8.063   2.055  0.7320  0.4462 -0.3484
16032SOL     OW49834   3.774   9.559   7.745  0.6081  0.0517 -0.1305
16032SOL    HW149835   3.681   9.562   7.769  0.5452  0.0167 -0.3699
16032SOL    HW249836   3.806   9.478   7.784  1.0084  1.0002  1.6325
16033SOL     OW49837   9.159   0.057   2.260 -0.1725 -0.1091  0.0532
16033SOL    HW149838   9.171   0.009   2.179 -0.5149 -2.0967  1.1192
16033SOL    HW249839   9.064   0.058   2.274 -0.0280 -1.8604  1.5542
16034SOL     OW49840   4.498   7.895   3.383  0.2699  0.0579  0.4475
16034SOL    HW149841   4.478   7.952   3.457  0.7788 -0.7696  1.2359
16034SOL    HW249842   4.466   7.809   3.410  1.3554 -0.4629  0.1181
16035SOL     OW49843   5.894   8.110   3.065 -0.2582 -0.0510 -0.5067
16035SOL    HW149844   5.872   8.202   3.050 -1.6490 -0.4109 -0.8087
16035SOL    HW249845   5.850   8.089   3.148 -0.0641 -0.4809 -0.5141
16036SOL     OW49846   6.869   4.646   3.311  0.2264 -0.1892  0.0909
16036SOL    HW149847   6.897   4.567   3.266  0.6862 -0.7814  1.3756
16036SOL    HW249848   6.774   4.640   3.314  0.2805 -0.8464  0.4705
16037SOL     OW49849   6.162   8.244   0.616 -0.0675 -1.0018  0.0340
16037SOL    HW149850   6.082   8.251   0.667  0.1618 -1.2274  0.4340
16037SOL    HW249851   6.232   8.245   0.681  0.1666 -3.3160 -0.0930
16038SOL     OW49852   6.221   1.254   6.902  0.2885 -0.1397 -0.4203
16038SOL    HW149853   6.259   1.329   6.856 -1.0172  0.7465 -0.1250
16038SOL    HW249854   6.142   1.233   6.852  0.4692 -1.1170 -0.3091
16039SOL     OW49855   0.466   4.401   3.024 -0.3744 -0.4306  0.2912
16039SOL    HW149856   0.493   4.309   3.026  0.5770 -0.1941 -0.7796
16039SOL    HW249857   0.371   4.399   3.028 -0.5015 -1.5828 -1.9159
16040SOL     OW49858   9.191   5.226   0.352 -0.4736 -0.4859 -0.7721
16040SOL    HW149859   9.106   5.249   0.313 -0.6141  0.1503 -0.0992
16040SOL    HW249860   9.171   5.203   0.443 -0.0684 -1.4555 -0.9074
16041SOL     OW49861   8.234   7.088   4.947 -0.2289 -0.5158 -0.4184
16041SOL    HW149862   8.285   7.051   5.018 -0.5586 -0.7963 -0.3246
16041SOL    HW249863   8.208   7.013   4.893  0.8144 -0.2099 -1.3713
16042SOL     OW49864   6.882   1.065   1.901  0.0427  0.0441 -0.2538
16042SOL    HW149865   6.976   1.066   1.921  0.1927  0.7569 -0.9473
16042SOL    HW249866   6.841   1.033   1.981  0.7749  0.9659  0.5091
16043SOL     OW49867   8.870   2.447   4.121  0.0376  0.9220  0.7530
16043SOL    HW149868   8.943   2.391   4.145 -0.1878 -0.4227 -1.4168
16043SOL    HW249869   8.910   2.522   4.077  0.1574 -0.1052 -0.9823
16044SOL     OW49870   0.047   2.551   0.830  0.1817  0.4161  0.0763
16044SOL    HW149871   0.044   2.600   0.911 -0.5880  1.4460 -0.5524
16044SOL    HW249872   0.124   2.585   0.784 -0.0799  0.7006 -0.1532
16045SOL     OW49873   7.861   1.718   7.039 -0.1541 -0.2547 -0.0928
16045SOL    HW149874   7.767   1.725   7.050 -0.2994 -1.1097 -0.6586
16045SOL    HW249875   7.881   1.776   6.966 -0.1442  0.3846  0.4075
16046SOL     OW49876   5.838   8.698   3.102  0.3181  0.1207  0.4235
16046SOL    HW149877   5.841   8.665   3.012 -0.7268  2.0421 -0.3560
16046SOL    HW249878   5.924   8.674   3.138 -0.0885 -2.7382 -0.2682
16047SOL     OW49879   2.175   8.607   8.401  0.2403  0.5576  0.3334
16047SOL    HW149880   2.212   8.608   8.313  1.0074  1.4889  0.6370
16047SOL    HW249881   2.234   8.663   8.452 -1.4537  1.9272  0.9123
16048SOL     OW49882   6.385   0.751   8.503  0.0264  0.0187  0.1791
16048SOL    HW149883   6.346   0.737   8.417  0.6942 -0.8423 -0.0049
16048SOL    HW249884   6.467   0.701   8.500 -0.0565 -0.2142  1.3983
16049SOL     OW49885   7.697   2.002   7.139 -0.8175  0.3301  0.2777
16049SOL    HW149886   7.611   2.043   7.151 -0.7480  0.4126  0.5023
16049SOL    HW249887   7.681   1.909   7.152 -0.7123  0.4303  1.2396
16050SOL     OW49888   9.210   3.612   6.877  0.3287 -0.1833  0.2378
16050SOL    HW149889   9.198   3.542   6.813 -0.2604 -1.3224  1.5563
16050SOL    HW249890   9.129   3.663   6.873  0.3883 -0.1052 -0.0612
16051SOL     OW49891   1.240   8.424   8.054 -0.0996  0.3918 -0.1957
16051SOL    HW149892   1.297   8.374   8.112  0.9073  0.6338 -0.9583
16051SOL    HW249893   1.182   8.359   8.014  0.3753 -0.0042 -0.2388
16052SOL     OW49894   0.149   4.809   4.165  0.5617 -0.1533 -0.6807
16052SOL    HW149895   0.217   4.832   4.228 -0.4475 -0.0299  0.4038
16052SOL    HW249896   0.196   4.791   4.083  1.8363  0.3792 -0.0827
16053SOL     OW49897   1.057   1.739   3.932  0.0992 -0.1680  0.0616
16053SOL    HW149898   1.150   1.744   3.912 -0.3346  0.1089 -2.1078
16053SOL    HW249899   1.017   1.809   3.880 -1.4497 -1.0434  0.0136
16054SOL     OW49900   9.070   6.306   4.223 -0.2485 -0.1587  0.0813
16054SOL    HW149901   9.020   6.224   4.230 -0.9132  0.2569  0.2191
16054SOL    HW249902   9.036   6.361   4.293 -1.4795  1.1144 -1.4530
16055SOL     OW49903   4.907   3.774   8.111  0.7841 -0.4488 -0.0322
16055SOL    HW149904   4.897   3.856   8.063 -0.8148 -1.3656 -1.3949
16055SOL    HW249905   4.959   3.797   8.187  2.0392  1.4320 -1.3579
16056SOL     OW49906   8.607   5.886   5.230  0.0620  0.0192  0.3505
16056SOL    HW149907   8.578   5.976   5.215 -0.3952 -0.0400  0.8178
16056SOL    HW249908   8.702   5.890   5.227  0.0294  0.3247 -0.6773
16057SOL     OW49909   2.364   1.701   0.324 -0.5172 -0.3683  0.0555
16057SOL    HW149910   2.370   1.635   0.393  0.3793  1.1782  1.5521
16057SOL    HW249911   2.434   1.679   0.263 -0.0990 -0.7199  0.6446
16058SOL     OW49912   4.289   0.275   1.056 -0.2458 -0.5169 -0.5863
16058SOL    HW149913   4.198   0.286   1.028 -0.6076 -1.2434  0.2663
16058SOL    HW249914   4.295   0.183   1.084  0.0769  0.1454  1.7107
16059SOL     OW49915   3.602   0.172   5.404  0.1032 -0.7324  0.2249
16059SOL    HW149916   3.613   0.187   5.310 -1.2280  0.1806  0.1870
16059SOL    HW249917   3.612   0.259   5.443  1.5369 -1.2258  1.0564
16060SOL     OW49918   0.651   8.855   2.720 -0.1480 -0.1059  0.5599
16060SOL    HW149919   0.737   8.813   2.722 -0.3948 -0.6050  1.4550
16060SOL    HW249920   0.650   8.909   2.799 -0.5832  0.0619  0.4411
16061SOL     OW49921   5.302   4.785   7.716 -0.3001  0.3838  0.2667
16061SOL    HW149922   5.315   4.699   7.757  4.7889  0.3590 -0.8208
16061SOL    HW249923   5.282   4.843   7.790  1.0870 -0.9270  1.7505
16062SOL     OW49924   4.929   6.211   0.269  0.3858 -0.2518  0.0741
16062SOL    HW149925   4.890   6.297   0.250 -0.7033 -0.8824 -0.6521
16062SOL    HW249926   5.018   6.217   0.236  0.1354  0.4024 -0.5092
16063SOL     OW49927   4.540   1.368   1.576  0.2471  0.3618  0.2049
16063SOL    HW149928   4.615   1.410   1.535 -0.7254  1.2920 -0.6848
16063SOL    HW249929   4.465   1.419   1.547 -0.8939 -1.4057 -0.0962
16064SOL     OW49930   4.321   1.859   1.894 -0.1518 -0.0856  0.5727
16064SOL    HW149931   4.395   1.914   1.867  0.4608 -1.1219  0.0497
16064SOL    HW249932   4.354   1.770   1.886 -1.4129 -0.5672  0.4998
16065SOL     OW49933   7.405   2.039   3.361 -0.2196 -0.0986  0.0679
16065SOL    HW149934   7.387   2.012   3.451 -0.8748  0.4359  0.1131
16065SOL    HW249935   7.386   2.133   3.361  0.1298 -0.0254 -0.5384
16066SOL     OW49936   2.570   3.433   2.750  0.1127  0.3973  0.1142
16066SOL    HW149937   2.504   3.419   2.818 -1.0097 -0.7272 -1.1417
16066SOL    HW249938   2.633   3.494   2.789 -0.5563 -0.1180  2.0861
16067SOL     OW49939   6.141   7.202   5.927 -0.0699 -0.8624  0.3381
16067SOL    HW149940   6.071   7.245   5.877  2.2343  1.2150 -1.3671
16067SOL    HW249941   6.129   7.235   6.017 -0.6450  0.3458 -0.1525
16068SOL     OW49942   1.729   2.664   8.186 -0.4804  0.1515  0.1619
16068SOL    HW149943   1.688   2.612   8.255 -0.9103 -0.7317 -0.7393
16068SOL    HW249944   1.656   2.690   8.129  0.0134 -0.2011 -0.6495
16069SOL     OW49945   5.753   5.610   4.860 -0.0147 -0.2654  0.6230
16069SOL    HW149946   5.703   5.574   4.786 -0.0338 -0.9865  0.9879
16069SOL    HW249947   5.693   5.605   4.934  0.7361 -1.5309  1.1588
16070SOL     OW49948   2.538   5.932   4.269  0.0765  0.6847 -0.0074
16070SOL    HW149949   2.584   5.862   4.224  0.8145  1.4737 -0.5229
16070SOL    HW249950   2.516   5.995   4.201 -2.5738 -0.0213  0.0646
16071SOL     OW49951   2.096   4.852   8.961  0.3468 -0.3726  0.3435
16071SOL    HW149952   2.032   4.881   9.025 -0.3386  1.3421 -1.0436
16071SOL    HW249953   2.045   4.821   8.887  1.1280 -1.3361  0.1798
16072SOL     OW49954   8.014   3.742   2.347  0.0615  0.4411 -0.6074
16072SOL    HW149955   8.071   3.748   2.424 -0.0551 -0.6593 -0.4174
16072SOL    HW249956   7.947   3.809   2.362  0.1662  0.3898  0.1437
16073SOL     OW49957   0.727   1.345   7.398 -0.2605 -0.1239 -0.1562
16073SOL    HW149958   0.704   1.434   7.371 -1.2331 -0.5042 -0.6552
16073SOL    HW249959   0.745   1.300   7.316  1.2976 -0.1239  0.1635
16074SOL     OW49960   4.104   9.051   9.358 -0.5558  0.0149  0.8280
16074SOL    HW149961   4.056   9.009   9.430  2.3301  0.3701  3.1358
16074SOL    HW249962   4.144   9.129   9.398  0.6471  0.5831 -1.3445
16075SOL     OW49963   2.398   6.299   2.486  0.0365 -0.5960  0.2927
16075SOL    HW149964   2.358   6.376   2.448  1.1905  0.4310  1.0782
16075SOL    HW249965   2.330   6.232   2.484 -1.0320  0.4908 -0.2540
16076SOL     OW49966   5.795   8.901   4.069  0.4624  0.0042  0.1901
16076SOL    HW149967   5.740   8.964   4.022  0.0451 -0.1478  0.4642
16076SOL    HW249968   5.853   8.955   4.123 -0.3859  0.1631  0.9803
16077SOL     OW49969   1.199   9.512   8.498  0.7309  0.2366 -0.2196
16077SOL    HW149970   1.263   9.515   8.427 -0.1657  0.0566 -1.0586
16077SOL    HW249971   1.188   9.603   8.525  1.9207  0.1919  0.4872
16078SOL     OW49972   3.082   4.478   9.177 -0.1538 -0.4750 -0.1983
16078SOL    HW149973   3.057   4.389   9.203 -0.8304 -0.2917 -0.1899
16078SOL    HW249974   3.002   4.529   9.189  0.8434  0.6676  2.2579
16079SOL     OW49975   2.463   4.208   4.708 -0.0509  0.0299  0.0038
16079SOL    HW149976   2.390   4.226   4.649  0.9160 -0.3298 -1.3586
16079SOL    HW249977   2.514   4.289   4.709 -0.7547  0.4948  1.4410
16080SOL     OW49978   4.700   5.437   3.564 -0.1802  0.5410 -0.2436
16080SOL    HW149979   4.705   5.350   3.603 -2.6198  1.2287  1.9115
16080SOL    HW249980   4.606   5.451   3.551  0.0682  3.1883  0.3379
16081SOL     OW49981   4.285   6.787   0.110 -0.6058  0.5413 -0.1686
16081SOL    HW149982   4.328   6.702   0.106 -1.6160  0.0432 -0.9291
16081SOL    HW249983   4.192   6.766   0.116 -0.7602  1.5688  2.3939
16082SOL     OW49984   7.255   0.701   0.930  0.1285 -0.0319 -0.2650
16082SOL    HW149985   7.342   0.661   0.932  0.5372  0.8066 -0.7041
16082SOL    HW249986   7.195   0.629   0.949  1.0129 -0.3392  1.5977
16083SOL     OW49987   6.851   4.189   7.465 -0.0802 -0.3597  0.2856
16083SOL    HW149988   6.843   4.178   7.370  2.0593 -1.6089  0.1900
16083SOL    HW249989   6.901   4.270   7.475  2.0729 -1.5903  0.1661
16084SOL     OW49990   4.781   2.322   4.184 -0.2903  0.1639  0.1851
16084SOL    HW149991   4.725   2.299   4.259  0.0217  0.6807  0.5784
16084SOL    HW249992   4.819   2.238   4.157  0.9933  0.2024  1.7392
16085SOL     OW49993   1.374   9.529   8.302 -0.1329 -0.0930  0.0142
16085SOL    HW149994   1.404   9.472   8.230 -1.3324  0.4785 -0.9847
16085SOL    HW249995   1.435   9.603   8.301  0.5195 -0.6198  0.3183
16086SOL     OW49996   5.867   0.266   1.909 -0.6688  0.6014  0.8601
16086SOL    HW149997   5.825   0.338   1.957  1.5769  2.3730  0.3497
16086SOL    HW249998   5.951   0.302   1.880 -0.1255 -1.7538 -0.8085
16087SOL     OW49999   7.201   0.248   2.762 -0.1791 -0.6291 -0.3410
16087SOL    HW150000   7.216   0.343   2.760  0.9725 -0.7824  0.2945
16087SOL    HW250001   7.142   0.232   2.689  0.0095  0.5167 -0.7665
16088SOL     OW50002   0.272   0.080   8.715 -0.2920 -0.1578  0.4962
16088SOL    HW150003   0.309  -0.007   8.732 -0.8887 -0.5429 -0.1140
16088SOL    HW250004   0.197   0.063   8.658  0.0542  0.8281 -0.2895
16089SOL     OW50005   2.093   3.818   2.909  0.4247 -0.2269 -0.3381
16089SOL    HW150006   2.069   3.819   2.817  0.2956  1.2340 -0.3075
16089SOL    HW250007   2.025   3.869   2.953  0.3441 -1.1145  0.6153
16090SOL     OW50008   2.034   4.201   1.881 -0.5312  0.6755  0.3009
16090SOL    HW150009   1.959   4.143   1.869  1.2676 -1.6152 -0.6174
16090SOL    HW250010   2.079   4.166   1.958 -0.1002  1.7078  0.5366
16091SOL     OW50011   0.641   6.526   2.594 -0.1601  0.1911  0.1390
16091SOL    HW150012   0.555   6.533   2.635 -0.0340  0.1389  0.4198
16091SOL    HW250013   0.672   6.617   2.588 -0.3482  0.2338 -0.2142
16092SOL     OW50014   0.424   0.162   1.022  0.1501  0.2209  0.0407
16092SOL    HW150015   0.340   0.135   1.059 -0.2064  1.1440 -0.0554
16092SOL    HW250016   0.460   0.083   0.983 -0.6645 -0.1930  0.1085
16093SOL     OW50017   3.435   8.998   2.709 -0.1085 -0.2132  0.1277
16093SOL    HW150018   3.454   9.055   2.784 -0.1697 -0.3627  0.2574
16093SOL    HW250019   3.520   8.965   2.682  0.0044  0.4370 -0.3486
16094SOL     OW50020   5.919   1.608   4.634  0.5931 -0.2610 -0.0408
16094SOL    HW150021   5.917   1.594   4.729 -3.7342 -0.1661  0.0656
16094SOL    HW250022   5.957   1.695   4.623 -0.1773  0.3539  1.7891
16095SOL     OW50023   5.603   3.483   2.424 -0.2492 -0.1939 -0.5244
16095SOL    HW150024   5.544   3.460   2.352  0.5181 -1.2703 -0.8261
16095SOL    HW250025   5.635   3.399   2.457 -1.5334  0.1856  1.9186
16096SOL     OW50026   7.074   7.065   7.466 -0.5193 -0.0265  0.5656
16096SOL    HW150027   7.036   6.979   7.449  0.8598 -0.6398  0.4463
16096SOL    HW250028   7.127   7.053   7.545  0.1615  0.5490  0.2075
16097SOL     OW50029   4.663   0.056   5.793  0.0851  0.2841  0.0898
16097SOL    HW150030   4.737   0.007   5.757  1.4722  2.3395 -0.0052
16097SOL    HW250031   4.590  -0.006   5.789  1.3961 -1.2930 -1.3105
16098SOL     OW50032   8.244   6.278   3.104 -0.1975 -0.2048 -0.4555
16098SOL    HW150033   8.334   6.248   3.108  0.2406  0.9227 -1.3593
16098SOL    HW250034   8.209   6.261   3.191  1.2811  0.5269  0.3097
16099SOL     OW50035   4.852   5.562   5.901 -0.2873 -0.4306 -0.0801
16099SOL    HW150036   4.768   5.566   5.948  0.0077 -0.3751  0.4491
16099SOL    HW250037   4.862   5.470   5.878  0.1206 -0.6658  0.9948
16100SOL     OW50038   4.806   3.715   6.020 -0.7626 -0.0516  0.1001
16100SOL    HW150039   4.759   3.789   5.981 -0.2866  0.1986 -0.0158
16100SOL    HW250040   4.893   3.750   6.039 -0.4175 -0.6802 -0.2887
16101SOL     OW50041   6.269   6.131   8.397 -0.6132  0.1497  0.3426
16101SOL    HW150042   6.218   6.116   8.318  0.9283 -2.6212 -0.2868
16101SOL    HW250043   6.208   6.113   8.469 -0.5259 -4.0525 -0.3909
16102SOL     OW50044   9.320   4.062   9.544 -0.4428  0.0186  0.8185
16102SOL    HW150045   9.241   4.087   9.496 -0.2808  0.9507  1.0110
16102SOL    HW250046   9.367   4.005   9.484 -0.4228  0.8685 -0.0004
16103SOL     OW50047   1.972   6.972   4.394  0.2179  0.0200  0.0400
16103SOL    HW150048   1.900   6.957   4.456 -0.9976  0.2780 -1.2527
16103SOL    HW250049   2.045   7.001   4.449 -0.7770  0.1560  1.3538
16104SOL     OW50050   4.760   1.913   6.979  0.4482  0.3395 -0.2628
16104SOL    HW150051   4.802   1.839   6.936  0.2235 -0.5076  0.9418
16104SOL    HW250052   4.672   1.916   6.941  0.6742  0.4252 -0.7960
16105SOL     OW50053   4.403   7.073   1.735 -0.0137  0.4778  0.2116
16105SOL    HW150054   4.391   7.062   1.641  1.8928 -0.4025  0.0304
16105SOL    HW250055   4.389   6.986   1.772  1.3020  0.3668  0.4771
16106SOL     OW50056   4.512   8.041   1.608 -0.3475 -0.1904 -0.4871
16106SOL    HW150057   4.453   8.082   1.544 -1.1728 -0.3725  0.1390
16106SOL    HW250058   4.531   8.112   1.670  0.9812  0.1720 -1.2688
16107SOL     OW50059   9.225   0.087   4.690  0.1082 -0.6859 -0.3340
16107SOL    HW150060   9.200  -0.002   4.666 -1.0143 -0.1354 -1.3106
16107SOL    HW250061   9.258   0.125   4.608 -3.0016  0.9674 -0.9837
16108SOL     OW50062   2.120   3.629   5.349 -0.2016 -0.0539  0.2235
16108SOL    HW150063   2.163   3.713   5.364  0.3231  0.0501 -1.5877
16108SOL    HW250064   2.111   3.623   5.254  0.3572 -2.3229  0.2436
16109SOL     OW50065   5.985   0.364   0.411  0.0417 -0.2415  0.0495
16109SOL    HW150066   6.032   0.364   0.328  1.3054 -0.9671  0.7237
16109SOL    HW250067   6.023   0.290   0.459 -0.3906  0.3989  1.4114
16110SOL     OW50068   7.006   1.685   2.480 -0.1514  0.7326 -0.1959
16110SOL    HW150069   7.083   1.704   2.426  0.1281  0.3986  0.0719
16110SOL    HW250070   7.014   1.591   2.499 -0.5749  0.7177 -0.0863
16111SOL     OW50071   6.682   4.800   5.145 -0.2574 -0.3432  0.0518
16111SOL    HW150072   6.742   4.727   5.130  0.4684  0.4178 -0.8841
16111SOL    HW250073   6.676   4.806   5.241  0.7648 -0.7509  0.1568
16112SOL     OW50074   8.903   3.558   6.386 -0.0321 -0.3591 -0.0469
16112SOL    HW150075   8.967   3.487   6.395  0.1243 -0.2625 -0.3863
16112SOL    HW250076   8.818   3.513   6.381 -0.1547 -0.4263  1.9012
16113SOL     OW50077   5.014   9.204   8.753 -0.0148 -0.2117  0.5062
16113SOL    HW150078   5.070   9.129   8.774 -0.5235 -0.4850  0.9209
16113SOL    HW250079   4.954   9.170   8.687  0.4121  0.1324 -0.0722
16114SOL     OW50080   3.891   6.619   3.242  0.4594  0.4652  0.0219
16114SOL    HW150081   3.876   6.577   3.157  1.4482  3.2554 -1.6691
16114SOL    HW250082   3.978   6.589   3.268  0.9469  1.0312 -0.9058
16115SOL     OW50083   3.584   0.204   3.935 -0.1862  0.1565  0.4820
16115SOL    HW150084   3.593   0.300   3.939 -2.6910  0.4781 -0.1546
16115SOL    HW250085   3.648   0.172   3.999  0.1075  2.2953  1.3580
16116SOL     OW50086   0.381   3.908   0.941 -0.1181  0.1798 -0.5770
16116SOL    HW150087   0.331   3.989   0.954  0.2111  0.7609 -2.5883
16116SOL    HW250088   0.331   3.842   0.989 -1.2874  1.2585 -0.2392
16117SOL     OW50089   9.454   6.964   1.877 -0.6749  0.0718  0.2502
16117SOL    HW150090   9.428   6.935   1.789  0.3605 -1.2347  0.3379
16117SOL    HW250091   9.454   6.884   1.929  2.7551  0.0509  0.4089
16118SOL     OW50092   2.268   9.451   0.275 -0.0131  0.2532 -0.2611
16118SOL    HW150093   2.173   9.445   0.279 -0.1059  0.6878 -1.3757
16118SOL    HW250094   2.290   9.415   0.189  0.9680 -1.2429  0.5628
16119SOL     OW50095   7.789   2.943   4.520 -0.1104 -0.0630 -0.1135
16119SOL    HW150096   7.850   2.871   4.504 -0.4220  0.2525 -3.4744
16119SOL    HW250097   7.843   3.022   4.514  0.1689  0.1318  3.2215
16120SOL     OW50098   2.049   6.742   0.374  0.2117 -0.0442  0.1045
16120SOL    HW150099   2.087   6.665   0.333  0.0811  0.1831 -0.4494
16120SOL    HW250100   2.085   6.742   0.463 -1.6410 -2.0696  0.9472
16121SOL     OW50101   0.448   6.079   2.394 -0.0114 -0.3145  0.4842
16121SOL    HW150102   0.423   6.171   2.387 -0.1646 -0.4249 -0.5459
16121SOL    HW250103   0.391   6.043   2.461 -0.5469  0.1449  0.2763
16122SOL     OW50104   1.606   0.469   3.733  0.0755  0.0900  0.1651
16122SOL    HW150105   1.611   0.375   3.753  1.8694  0.3177  1.0561
16122SOL    HW250106   1.568   0.508   3.811 -0.6194  0.1334 -0.1846
16123SOL     OW50107   1.182   9.117   4.712 -0.1876 -0.1833 -0.2907
16123SOL    HW150108   1.225   9.052   4.767  1.3369  2.8768  2.5562
16123SOL    HW250109   1.090   9.112   4.736  0.1978 -0.0875  1.3345
16124SOL     OW50110   4.693   0.040   7.287 -0.5176  0.0058 -0.2114
16124SOL    HW150111   4.647   0.088   7.218 -0.1712  1.5127  0.5402
16124SOL    HW250112   4.675   0.091   7.366 -0.2205 -1.2146  0.6694
16125SOL     OW50113   1.101   9.353   0.519  0.0702  0.0396 -0.0396
16125SOL    HW150114   1.090   9.258   0.529  1.3790 -0.1354 -0.1141
16125SOL    HW250115   1.012   9.385   0.502  0.0546 -1.6924 -4.7465
16126SOL     OW50116   7.623   1.093   4.237  0.1572  0.4363 -0.4514
16126SOL    HW150117   7.648   1.186   4.237 -0.0753  0.5323 -2.4189
16126SOL    HW250118   7.559   1.086   4.308 -0.1572  1.8738 -0.5561
16127SOL     OW50119   5.703   9.363   2.694 -0.1801 -0.6376 -0.5996
16127SOL    HW150120   5.704   9.268   2.688 -0.3734 -0.6771 -0.0710
16127SOL    HW250121   5.617   9.384   2.730  0.1735 -0.3137  0.0692
16128SOL     OW50122   7.596   7.594   6.419  0.1693  0.4119  0.2685
16128SOL    HW150123   7.635   7.519   6.373 -0.0371  1.1270 -1.1466
16128SOL    HW250124   7.568   7.559   6.503  0.3698 -1.0271 -0.2286
16129SOL     OW50125   3.849   7.530   8.350  0.1829  0.3675  0.0828
16129SOL    HW150126   3.942   7.547   8.340  0.3172 -0.9634 -1.3620
16129SOL    HW250127   3.815   7.526   8.260 -0.7025 -1.8838  0.4371
16130SOL     OW50128   9.134   0.204   0.711 -0.3393 -0.7918  0.1648
16130SOL    HW150129   9.083   0.135   0.666 -0.2116 -0.9630  0.2814
16130SOL    HW250130   9.218   0.203   0.666 -0.6653 -0.0348 -0.4892
16131SOL     OW50131   4.085   7.283   3.308 -0.2036  0.0514 -0.2498
16131SOL    HW150132   4.146   7.277   3.382  0.7363 -0.1833 -1.0224
16131SOL    HW250133   4.017   7.218   3.328  0.2687 -0.3144  0.2017
16132SOL     OW50134   7.874   6.629   2.600 -0.1413  0.3684 -0.3196
16132SOL    HW150135   7.870   6.697   2.667  0.8841 -0.5885  0.7576
16132SOL    HW250136   7.892   6.676   2.519 -1.9865  1.6158 -0.0733
16133SOL     OW50137   9.049   0.098   5.306  0.3742 -0.1147 -0.5909
16133SOL    HW150138   8.988   0.140   5.245 -0.8013 -1.4517 -0.3897
16133SOL    HW250139   9.020   0.126   5.393  0.5221 -0.1736 -0.5216
16134SOL     OW50140   1.026   2.073   5.725  0.1699  0.3971 -0.2864
16134SOL    HW150141   1.049   2.025   5.645 -0.9193 -0.3969 -0.1500
16134SOL    HW250142   0.965   2.141   5.695  0.0545  0.3386 -0.1843
16135SOL     OW50143   9.611   5.012   5.556 -0.0596  0.0879  0.3323
16135SOL    HW150144   9.552   5.009   5.631 -0.5436 -0.3023 -0.0563
16135SOL    HW250145   9.587   5.093   5.511 -1.2258 -0.7080 -0.5480
16136SOL     OW50146   0.188   8.824   7.623  0.4174 -0.5645 -0.0256
16136SOL    HW150147   0.171   8.738   7.587 -0.1234 -0.3028 -0.3983
16136SOL    HW250148   0.113   8.843   7.679  0.0697  0.0644 -0.6926
16137SOL     OW50149   1.433   7.589   6.972  0.3763 -0.7454  0.0157
16137SOL    HW150150   1.374   7.517   6.995  0.5469 -0.8161  0.2347
16137SOL    HW250151   1.476   7.613   7.054 -0.6631  0.5079  0.2202
16138SOL     OW50152   3.070   3.930   5.330 -0.0304  0.0761 -0.1960
16138SOL    HW150153   3.165   3.922   5.318  0.9144  3.8839  2.8093
16138SOL    HW250154   3.033   3.889   5.252  3.9246 -3.1377 -0.7381
16139SOL     OW50155   2.649   4.484   5.129  0.1458  1.1578  0.4562
16139SOL    HW150156   2.709   4.557   5.115 -0.7420  1.9612  0.6959
16139SOL    HW250157   2.575   4.501   5.070  0.4573 -0.2042 -0.3827
16140SOL     OW50158   8.319   1.319   1.394 -0.5301 -0.0325 -0.6571
16140SOL    HW150159   8.318   1.314   1.490  1.9893  0.3483 -0.5247
16140SOL    HW250160   8.253   1.256   1.366 -0.5347 -1.0020  1.3114
16141SOL     OW50161   3.575   2.814   0.977  0.3795  0.2093 -0.1481
16141SOL    HW150162   3.631   2.808   0.900  0.3670  2.0491 -0.3475
16141SOL    HW250163   3.536   2.901   0.972 -0.1112  0.1392  1.6051
16142SOL     OW50164   3.240   1.144   5.655 -0.3439  0.6679 -0.6386
16142SOL    HW150165   3.200   1.057   5.656 -0.3175  0.6327  1.5922
16142SOL    HW250166   3.333   1.129   5.671 -0.6727  1.1477  2.3525
16143SOL     OW50167   2.449   8.119   2.991  0.3755 -0.3493 -1.0221
16143SOL    HW150168   2.492   8.059   3.052 -0.7899  0.0608  0.2509
16143SOL    HW250169   2.380   8.068   2.950 -1.2992  0.3194  0.8292
16144SOL     OW50170   1.238   2.098   5.942  0.3575  0.0863  0.0567
16144SOL    HW150171   1.257   2.038   5.869  0.7870 -0.9633  1.0047
16144SOL    HW250172   1.271   2.053   6.019 -0.2627  1.1043  0.9401
16145SOL     OW50173   6.830   9.020   2.094  0.0309  0.4962  0.0873
16145SOL    HW150174   6.901   9.066   2.050 -1.5800  2.5477 -0.5408
16145SOL    HW250175   6.823   9.062   2.180 -1.9717  2.1233 -0.7885
16146SOL     OW50176   0.611   3.422   0.719  0.1161  0.4415  0.0801
16146SOL    HW150177   0.688   3.479   0.729 -0.3365  0.8432  1.6726
16146SOL    HW250178   0.539   3.473   0.756 -0.4567 -0.8274  0.7720
16147SOL     OW50179   5.645   5.067   6.128 -0.4293  0.4843  0.1167
16147SOL    HW150180   5.642   4.992   6.187  2.1948 -0.2181 -0.4744
16147SOL    HW250181   5.618   5.031   6.043  0.8803  0.1221 -0.1784
16148SOL     OW50182   3.273   3.530   0.496  0.0725  0.7897  0.1109
16148SOL    HW150183   3.302   3.586   0.568  0.2318  1.7835 -0.6885
16148SOL    HW250184   3.180   3.551   0.485  0.0276  0.5803  0.0853
16149SOL     OW50185   0.522   2.199   5.661 -0.1045 -0.3617 -0.0107
16149SOL    HW150186   0.616   2.217   5.660 -0.2316  0.3327 -0.6505
16149SOL    HW250187   0.513   2.121   5.716  0.8951 -0.7403 -0.3581
16150SOL     OW50188   8.539   6.207   2.285 -0.7277  0.8372 -0.7633
16150SOL    HW150189   8.614   6.154   2.259  0.1974  2.0795 -0.7136
16150SOL    HW250190   8.549   6.219   2.379 -1.5479  0.1946 -0.5777
16151SOL     OW50191   6.608   7.220   6.083 -0.0431  0.2154  0.1206
16151SOL    HW150192   6.596   7.250   5.993 -1.7711 -0.3913  0.1226
16151SOL    HW250193   6.650   7.293   6.128  0.5450  0.6415 -1.0947
16152SOL     OW50194   3.843   3.433   5.503  0.6774  0.0852 -0.3912
16152SOL    HW150195   3.895   3.511   5.479  0.2286  0.5182  0.0270
16152SOL    HW250196   3.891   3.360   5.463  2.8962  0.1901  1.8233
16153SOL     OW50197   1.110   7.264   1.682 -0.1425  0.9558  0.2032
16153SOL    HW150198   1.035   7.226   1.728  0.4013  0.8766  1.0286
16153SOL    HW250199   1.109   7.221   1.596 -0.6333  0.4527  0.4514
16154SOL     OW50200   3.824   0.344   2.910 -0.0358 -0.2852 -0.5255
16154SOL    HW150201   3.861   0.417   2.861  0.7878  0.1098  0.6384
16154SOL    HW250202   3.739   0.376   2.941  0.0353 -0.0564 -0.5646
16155SOL     OW50203   1.966   5.715   4.878  0.1096  1.3008 -0.3764
16155SOL    HW150204   2.005   5.691   4.794  0.9290  1.8642 -0.1640
16155SOL    HW250205   1.920   5.636   4.907 -0.7187  1.2836 -1.6447
16156SOL     OW50206   0.217   1.557   1.452 -0.3096 -0.2961 -0.0824
16156SOL    HW150207   0.216   1.634   1.509  2.0331  1.2971 -2.0201
16156SOL    HW250208   0.305   1.522   1.460  0.3361  0.3729 -3.0849
16157SOL     OW50209   2.646   2.771   8.648 -0.5049 -0.3868 -0.0275
16157SOL    HW150210   2.597   2.742   8.725  1.4455 -0.5564  1.2363
16157SOL    HW250211   2.581   2.810   8.591 -2.0650 -0.4314  1.6315
16158SOL     OW50212   2.512   5.468   8.871  0.3903  0.1387  0.3243
16158SOL    HW150213   2.433   5.418   8.851 -0.7156  0.5925  3.1689
16158SOL    HW250214   2.489   5.558   8.846  0.6974 -0.0103 -0.5230
16159SOL     OW50215   4.577   0.646   2.422  0.1852  0.1043  0.1487
16159SOL    HW150216   4.495   0.617   2.461  0.3101 -0.5184 -0.0387
16159SOL    HW250217   4.551   0.713   2.358 -0.0846  0.5691  0.7342
16160SOL     OW50218   3.078   7.245   9.468  0.1870 -0.1732 -0.2525
16160SOL    HW150219   3.139   7.210   9.532 -0.9335  1.3514  1.7917
16160SOL    HW250220   3.060   7.172   9.409  1.7592 -1.4731  0.7887
16161SOL     OW50221   4.993   6.720   1.196 -0.0279 -0.1646 -0.7075
16161SOL    HW150222   5.007   6.629   1.225 -2.4206 -0.4361 -0.1247
16161SOL    HW250223   5.040   6.727   1.113  1.3281 -1.5094 -0.0981
16162SOL     OW50224   2.541   7.813   6.246 -0.0238  0.1618  0.6843
16162SOL    HW150225   2.635   7.800   6.235 -0.0051  0.3703  0.5940
16162SOL    HW250226   2.501   7.735   6.207  0.1277 -0.1249  1.1027
16163SOL     OW50227   5.615   6.075   5.509 -0.4292  0.1621  0.1710
16163SOL    HW150228   5.570   6.002   5.553 -1.5726 -0.3617 -1.7183
16163SOL    HW250229   5.603   6.057   5.416  1.8844  1.2083 -0.3995
16164SOL     OW50230   3.782   2.517   2.174 -0.2535 -0.1397 -0.1016
16164SOL    HW150231   3.786   2.607   2.140 -1.5052 -0.2304 -0.5271
16164SOL    HW250232   3.722   2.521   2.248  0.0278 -0.5551  0.1562
16165SOL     OW50233   1.966   3.348   2.614 -0.3146  0.4190 -0.1734
16165SOL    HW150234   1.976   3.399   2.533  0.3950 -1.9207 -1.6725
16165SOL    HW250235   1.872   3.343   2.627 -0.4719  0.4119 -1.1698
16166SOL     OW50236   2.883   0.640   3.894  0.4265 -0.4321 -0.2709
16166SOL    HW150237   2.797   0.636   3.935 -0.4274 -0.0150 -1.9593
16166SOL    HW250238   2.943   0.655   3.967 -1.2691  2.8598  0.6621
16167SOL     OW50239   4.014   9.571   6.796 -0.5015  0.6389  0.3624
16167SOL    HW150240   4.097   9.531   6.821 -1.2392 -1.1268  0.1117
16167SOL    HW250241   4.031   9.610   6.710  0.2391  0.8691  0.6130
16168SOL     OW50242   5.749   9.422   1.520  0.1967  0.8187  0.6216
16168SOL    HW150243   5.819   9.401   1.458 -0.6130  1.4691 -0.5603
16168SOL    HW250244   5.758   9.357   1.589  0.1899 -0.9383 -0.9382
16169SOL     OW50245   4.925   5.549   2.011 -0.8371  0.4040 -0.0141
16169SOL    HW150246   4.912   5.470   1.958 -1.3966 -0.2728  1.1039
16169SOL    HW250247   5.004   5.589   1.974 -1.0470 -0.2034 -1.1616
16170SOL     OW50248   4.356   2.502   0.131  0.3165 -0.1112  0.1553
16170SOL    HW150249   4.399   2.582   0.100 -2.2006  1.0938 -0.5259
16170SOL    HW250250   4.378   2.498   0.224  1.5279  0.6673 -0.0720
16171SOL     OW50251   9.367   4.487   6.197  0.4394 -0.6120 -0.1275
16171SOL    HW150252   9.446   4.479   6.250  1.1570 -0.8077 -1.2084
16171SOL    HW250253   9.369   4.577   6.164  0.0845 -0.5459  0.0188
16172SOL     OW50254   3.405   7.683   1.337  0.3379  0.7674  0.0474
16172SOL    HW150255   3.313   7.666   1.315  0.1971  2.8271 -1.2142
16172SOL    HW250256   3.407   7.775   1.362  1.9450  0.5455  0.8699
16173SOL     OW50257   6.178   5.661   5.827 -0.3709 -0.5868 -0.1206
16173SOL    HW150258   6.238   5.653   5.753  0.0272  2.2073 -0.2070
16173SOL    HW250259   6.156   5.570   5.850  0.7270 -1.5874 -2.6187
16174SOL     OW50260   8.546   4.104   8.407 -0.7763 -0.5274 -0.2239
16174SOL    HW150261   8.497   4.026   8.432 -1.1850 -0.7598 -1.6685
16174SOL    HW250262   8.581   4.138   8.490 -2.2543 -1.1125  0.6801
16175SOL     OW50263   7.123   9.285   2.301 -0.0070 -1.0833 -0.0625
16175SOL    HW150264   7.138   9.280   2.206 -0.4986  1.4580 -0.3348
16175SOL    HW250265   7.188   9.225   2.338  1.5303 -0.6509 -1.8933
16176SOL     OW50266   1.802   3.654   6.581 -0.3134 -0.0699  0.2088
16176SOL    HW150267   1.851   3.733   6.604  0.1260 -0.2614 -0.0452
16176SOL    HW250268   1.732   3.685   6.524  0.3123  0.0530 -0.5097
16177SOL     OW50269   3.936   8.610   4.322 -0.3846  0.4696 -0.0302
16177SOL    HW150270   3.939   8.527   4.369 -0.0549 -0.8976 -2.3559
16177SOL    HW250271   3.963   8.675   4.388  1.0906 -1.4528  1.3793
16178SOL     OW50272   2.336   2.692   7.092  0.6289  0.3653  0.8864
16178SOL    HW150273   2.245   2.663   7.081  0.7213 -1.2398  3.5503
16178SOL    HW250274   2.371   2.696   7.003 -2.0911  1.2846 -0.2341
16179SOL     OW50275   1.441   1.613   6.565 -0.2028  0.7142 -0.1437
16179SOL    HW150276   1.421   1.683   6.502 -0.7972  0.3872 -0.3322
16179SOL    HW250277   1.516   1.568   6.527 -0.7583  0.3146 -0.8093
16180SOL     OW50278   2.015   8.175   1.293  0.1263  0.3565 -0.3141
16180SOL    HW150279   1.935   8.124   1.309  0.6346 -0.1180  0.8021
16180SOL    HW250280   1.983   8.262   1.269 -0.7354  0.2839  0.5089
16181SOL     OW50281   4.591   1.112   3.542 -0.3805 -0.4963  0.1925
16181SOL    HW150282   4.625   1.162   3.616 -1.9070 -1.2989  1.5042
16181SOL    HW250283   4.585   1.022   3.575  1.3319 -1.4242 -1.7704
16182SOL     OW50284   4.573   7.055   4.322  0.6581  0.1889 -0.0507
16182SOL    HW150285   4.502   7.066   4.385 -0.1739 -0.0777 -0.9227
16182SOL    HW250286   4.629   7.131   4.336  0.5994  0.0340  1.1432
16183SOL     OW50287   7.388   9.535   5.624 -0.4356  0.3582 -0.4473
16183SOL    HW150288   7.361   9.467   5.562  2.6760 -1.5885  0.0968
16183SOL    HW250289   7.466   9.573   5.584 -0.1501  1.2293  0.8803
16184SOL     OW50290   7.499   1.150   3.363  0.4441  0.0533 -0.4817
16184SOL    HW150291   7.527   1.240   3.343  0.6437  0.1334  0.1484
16184SOL    HW250292   7.521   1.101   3.284  1.2108  0.3699 -0.4814
16185SOL     OW50293   4.246   3.558   5.746  0.1389 -0.4596 -0.0670
16185SOL    HW150294   4.303   3.634   5.751  0.4444 -0.7172  0.4342
16185SOL    HW250295   4.302   3.487   5.716 -0.3634 -0.2818 -1.5122
16186SOL     OW50296   2.357   7.167   6.993  0.1278 -0.6178 -0.0483
16186SOL    HW150297   2.356   7.249   7.043 -2.2471  0.8855 -2.3256
16186SOL    HW250298   2.447   7.161   6.960  1.3074 -0.8133  2.8537
16187SOL     OW50299   1.482   5.677   2.898 -0.5048 -0.6155 -1.1664
16187SOL    HW150300   1.418   5.682   2.969  0.1195 -0.4503 -0.6089
16187SOL    HW250301   1.463   5.594   2.855  1.2852 -2.4939  1.3504
16188SOL     OW50302   4.483   5.986   0.394  0.3885 -0.1504 -0.3234
16188SOL    HW150303   4.417   5.950   0.454 -0.5036  1.9854  0.0820
16188SOL    HW250304   4.566   5.969   0.438 -0.1097 -0.2942  0.6110
16189SOL     OW50305   0.700   9.411   2.324 -0.2371 -0.0460  0.3177
16189SOL    HW150306   0.665   9.501   2.326 -2.3960 -0.8303  1.8328
16189SOL    HW250307   0.726   9.393   2.414 -2.6207 -1.8632  0.7525
16190SOL     OW50308   1.329   0.615   7.386 -0.1094 -0.0210 -0.2877
16190SOL    HW150309   1.249   0.640   7.433 -0.3390 -1.8727  0.3858
16190SOL    HW250310   1.299   0.551   7.321  0.7194 -0.1269 -0.5712
16191SOL     OW50311   6.206   3.059   3.979  0.8531  0.2320 -0.0352
16191SOL    HW150312   6.224   3.098   4.065 -2.6518  0.6230  0.6735
16191SOL    HW250313   6.200   3.133   3.919 -2.1562  0.6572  0.6006
16192SOL     OW50314   8.205   6.886   7.487  0.1029  0.1307 -0.2041
16192SOL    HW150315   8.286   6.902   7.438  1.0326 -1.0871  0.8621
16192SOL    HW250316   8.231   6.891   7.579 -1.2840  0.8103  0.1812
16193SOL     OW50317   5.138   1.022   3.664 -0.5422  0.0911  0.9154
16193SOL    HW150318   5.132   0.936   3.622  0.4129 -0.6714  2.2446
16193SOL    HW250319   5.054   1.032   3.709 -0.5813 -0.2432  0.9216
16194SOL     OW50320   7.610   3.073   5.322  0.4063 -0.1191  0.1338
16194SOL    HW150321   7.613   3.019   5.401 -1.8206 -0.3382  0.1330
16194SOL    HW250322   7.615   3.163   5.355  3.3360 -0.1920  0.1847
16195SOL     OW50323   0.184   8.262   7.145  0.0647  0.2071  0.8973
16195SOL    HW150324   0.238   8.332   7.107 -0.5460  0.9553  1.3862
16195SOL    HW250325   0.222   8.181   7.111  0.5936  0.7913  0.0714
16196SOL     OW50326   5.322   8.941   3.294  0.0032  0.0811 -0.1363
16196SOL    HW150327   5.311   9.026   3.336 -1.0172 -0.8831  1.6652
16196SOL    HW250328   5.260   8.943   3.220 -0.9146  0.4662  0.6255
16197SOL     OW50329   9.168   4.229   1.899  0.0660  0.9056 -0.0992
16197SOL    HW150330   9.123   4.314   1.891 -1.0022  0.5349  1.5660
16197SOL    HW250331   9.247   4.248   1.950 -0.3028  0.8706  0.4933
16198SOL     OW50332   2.276   0.708   2.179 -0.4784  0.2722  0.2374
16198SOL    HW150333   2.300   0.801   2.172  2.0770 -0.4206 -1.3611
16198SOL    HW250334   2.202   0.698   2.120 -0.8660  1.2888  0.5207
16199SOL     OW50335   2.878   8.236   6.149 -0.5581  0.4096 -0.1149
16199SOL    HW150336   2.811   8.304   6.138 -1.3104 -0.5429 -2.0334
16199SOL    HW250337   2.858   8.173   6.080  0.7363 -1.2504  0.9633
16200SOL     OW50338   1.657   2.538   0.685  0.1551  0.3733 -0.8466
16200SOL    HW150339   1.570   2.561   0.653  0.0655 -0.8376 -1.5131
16200SOL    HW250340   1.717   2.587   0.630 -0.0774  2.9604  0.9983
16201SOL     OW50341   2.668   2.982   5.044  0.3161  0.0437  0.0268
16201SOL    HW150342   2.753   2.967   5.086  0.6389  2.1947  0.2613
16201SOL    HW250343   2.606   2.987   5.117  0.3436  0.5971  0.0118
16202SOL     OW50344   8.126   8.419   9.037  0.6833  0.3383 -0.2215
16202SOL    HW150345   8.101   8.501   9.081 -0.9292 -0.0496 -0.3690
16202SOL    HW250346   8.161   8.446   8.952  0.0421  0.8660 -0.3182
16203SOL     OW50347   3.767   6.093   7.301  0.0060  0.8695 -0.1509
16203SOL    HW150348   3.808   6.025   7.354 -0.0907  1.4313  0.6591
16203SOL    HW250349   3.752   6.051   7.216  1.0812  0.2673 -0.0632
16204SOL     OW50350   1.810   6.786   3.571  0.5389  0.1369 -0.2270
16204SOL    HW150351   1.753   6.855   3.604 -0.5592 -1.2276  0.8790
16204SOL    HW250352   1.752   6.731   3.517  1.4096  0.1179 -1.1755
16205SOL     OW50353   6.751   4.733   2.563  0.0365  0.0635 -0.2166
16205SOL    HW150354   6.695   4.712   2.637 -0.5322  1.4193 -0.2281
16205SOL    HW250355   6.826   4.673   2.571  0.3609  0.6802  1.8918
16206SOL     OW50356   9.059   1.177   6.802 -0.2397  0.1406  0.2963
16206SOL    HW150357   9.134   1.153   6.747 -0.8515  1.2171 -1.0869
16206SOL    HW250358   9.098   1.213   6.882  0.7326  0.5132 -0.3205
16207SOL     OW50359   0.969   5.904   9.345  0.3883  0.4570 -0.7505
16207SOL    HW150360   0.932   5.989   9.323  0.4017  1.3082  2.1519
16207SOL    HW250361   0.899   5.842   9.325 -1.9864  1.8096  2.4509
16208SOL     OW50362   8.306   4.078   0.651 -0.2654  0.2031 -0.1289
16208SOL    HW150363   8.401   4.087   0.655 -0.2651 -0.0386  0.7863
16208SOL    HW250364   8.284   4.087   0.559  0.8458 -1.6483 -0.6366
16209SOL     OW50365   3.785   5.741   9.586 -0.2920 -0.0839  0.1751
16209SOL    HW150366   3.729   5.813   9.557  0.5149  0.4021 -0.1863
16209SOL    HW250367   3.728   5.688   9.642 -0.6485  1.3458  1.2414
16210SOL     OW50368   7.900   7.161   2.434  0.1556  0.0703  0.0514
16210SOL    HW150369   7.932   7.201   2.353  3.2862 -1.8586  0.1845
16210SOL    HW250370   7.805   7.158   2.423  0.4270  0.1918 -3.4278
16211SOL     OW50371   0.066   5.937   1.570 -0.0621  0.3579  0.0718
16211SOL    HW150372   0.020   5.868   1.521 -0.4660  1.9533 -1.9377
16211SOL    HW250373   0.128   5.889   1.625 -2.1217 -1.7252  0.7556
16212SOL     OW50374   3.522   5.464   2.805 -0.1080 -0.5448  0.1686
16212SOL    HW150375   3.596   5.498   2.855 -0.0475  0.6931 -0.7220
16212SOL    HW250376   3.506   5.530   2.738 -2.8715 -0.1014  1.1208
16213SOL     OW50377   2.587   6.809   0.005  0.2527 -0.2138  0.6525
16213SOL    HW150378   2.563   6.852  -0.077  0.8490 -0.0579  0.5587
16213SOL    HW250379   2.507   6.762   0.031  0.5194 -1.5638 -0.8224
16214SOL     OW50380   2.731   4.495   7.424 -0.0924 -0.3891  0.0401
16214SOL    HW150381   2.791   4.486   7.350  1.2850  1.4119  0.8578
16214SOL    HW250382   2.773   4.448   7.496  0.0366  0.3152  0.4390
16215SOL     OW50383   4.415   7.772   8.446  0.3017  0.1827  0.0359
16215SOL    HW150384   4.345   7.790   8.383 -0.9698 -0.3724  1.2354
16215SOL    HW250385   4.491   7.817   8.411 -1.1117  2.4323 -0.3558
16216SOL     OW50386   5.024   1.339   5.572 -0.2995  0.9120 -0.3080
16216SOL    HW150387   5.113   1.362   5.601 -0.0476 -1.5197  1.1448
16216SOL    HW250388   4.974   1.329   5.653 -2.3744  3.5381 -1.1064
16217SOL     OW50389   4.995   5.735   3.627 -0.3593 -0.0855 -0.0891
16217SOL    HW150390   4.971   5.655   3.580  0.7670 -0.9568  0.7687
16217SOL    HW250391   5.048   5.785   3.564  0.5285 -0.9071 -0.0166
16218SOL     OW50392   8.364   3.699   1.186  0.8699  0.5099 -0.1738
16218SOL    HW150393   8.270   3.714   1.173  1.1239  0.9846 -1.5792
16218SOL    HW250394   8.370   3.661   1.274 -0.6492  0.3271 -0.1228
16219SOL     OW50395   0.333   7.124   1.111 -0.1501  0.0085  0.1770
16219SOL    HW150396   0.258   7.076   1.145  0.5744  0.7277  3.0925
16219SOL    HW250397   0.401   7.057   1.100 -0.8992 -0.5024 -1.6182
16220SOL     OW50398   8.713   6.509   6.759  0.3485  0.1251 -0.3009
16220SOL    HW150399   8.806   6.509   6.780  0.2635 -1.6669  0.2765
16220SOL    HW250400   8.679   6.589   6.798  1.3118 -0.1659  1.2461
16221SOL     OW50401   2.639   5.893   0.823 -0.3670  0.0553 -0.4409
16221SOL    HW150402   2.730   5.913   0.844 -0.4464 -1.3991  1.5682
16221SOL    HW250403   2.617   5.954   0.753  1.4058  2.1242  0.6630
16222SOL     OW50404   0.793   4.949   0.342 -0.1321 -0.2509 -0.7716
16222SOL    HW150405   0.773   4.860   0.371 -0.8999 -0.2312 -1.2057
16222SOL    HW250406   0.865   4.977   0.398 -0.1645 -0.9893 -0.3438
16223SOL     OW50407   4.441   6.326   3.842  0.0404  0.5153 -0.1592
16223SOL    HW150408   4.368   6.282   3.884  0.3818 -0.5738 -0.6809
16223SOL    HW250409   4.519   6.289   3.882  0.3285  1.3589  0.0874
16224SOL     OW50410   2.758   7.419   9.292 -0.0475 -0.0282 -0.6310
16224SOL    HW150411   2.680   7.465   9.324  0.1896  1.2987 -1.8727
16224SOL    HW250412   2.822   7.428   9.362 -0.8883 -0.9137  0.3016
16225SOL     OW50413   6.912   8.272   0.217 -0.2679 -0.6905 -0.0535
16225SOL    HW150414   6.972   8.198   0.229  0.7727 -0.1416 -1.5781
16225SOL    HW250415   6.836   8.235   0.174 -1.0861 -1.3906  1.8695
16226SOL     OW50416   0.479   1.058   3.458 -0.2343  0.2461 -0.0790
16226SOL    HW150417   0.522   0.990   3.406 -0.1685 -0.2808  0.6495
16226SOL    HW250418   0.517   1.140   3.427  0.1086 -0.0937 -0.5689
16227SOL     OW50419   1.029   2.620   0.942 -0.9093 -0.5007  0.0933
16227SOL    HW150420   1.075   2.650   1.020 -2.5686  0.2941  0.8183
16227SOL    HW250421   0.949   2.672   0.940  0.0446  1.0899 -3.3713
16228SOL     OW50422   4.214   6.236   1.745  0.2643 -0.3113  0.0726
16228SOL    HW150423   4.202   6.325   1.712  1.9459 -0.4592 -1.0857
16228SOL    HW250424   4.206   6.181   1.667 -0.9851 -1.2142  0.8108
16229SOL     OW50425   1.971   8.805   1.253 -0.4335 -0.5452 -0.0366
16229SOL    HW150426   1.973   8.832   1.161  1.0418  1.2378  0.4433
16229SOL    HW250427   2.032   8.731   1.257  0.1842 -0.0666 -0.3545
16230SOL     OW50428   5.422   0.072   4.642 -0.4035 -0.2200 -0.0283
16230SOL    HW150429   5.397   0.013   4.570  1.9187 -1.7011  0.2625
16230SOL    HW250430   5.411   0.018   4.721  1.4430 -0.2125  0.2735
16231SOL     OW50431   7.784   3.352   8.391  0.0316  0.4124 -0.3307
16231SOL    HW150432   7.864   3.350   8.339  0.9968 -0.4910  1.1168
16231SOL    HW250433   7.764   3.260   8.409 -0.6935  0.6724  0.2695
16232SOL     OW50434   7.375   3.119   1.963 -0.1109  0.1566  0.3044
16232SOL    HW150435   7.308   3.051   1.964 -0.0143  0.0505 -0.1044
16232SOL    HW250436   7.457   3.072   1.979  0.2174 -0.1462 -1.9388
16233SOL     OW50437   1.741   6.621   0.761 -0.3444 -0.2017  0.2045
16233SOL    HW150438   1.750   6.634   0.667  0.6192 -0.7032  0.2159
16233SOL    HW250439   1.681   6.547   0.771  1.0738 -1.4334 -0.0835
16234SOL     OW50440   5.053   3.192   2.812  0.0470  0.1901 -0.1235
16234SOL    HW150441   5.131   3.136   2.809 -1.6087 -2.3148  0.0374
16234SOL    HW250442   4.993   3.152   2.749 -0.4050  3.3439 -1.9123
16235SOL     OW50443   4.605   8.256   3.641 -0.1945 -0.1243 -0.5027
16235SOL    HW150444   4.515   8.279   3.666  0.6390 -0.1169  2.9721
16235SOL    HW250445   4.654   8.338   3.649  0.4482 -0.4842 -0.7100
16236SOL     OW50446   2.908   8.506   5.782  0.0606  0.1876  0.2076
16236SOL    HW150447   2.883   8.594   5.811 -0.3432  0.1838 -0.1268
16236SOL    HW250448   3.004   8.509   5.779  0.0498  0.6304  0.1516
16237SOL     OW50449   3.816   1.218   0.841 -0.1707 -0.4501 -0.6436
16237SOL    HW150450   3.850   1.129   0.837  0.2204 -0.2993 -0.7140
16237SOL    HW250451   3.894   1.273   0.847 -0.4123 -0.2479  3.2203
16238SOL     OW50452   1.838   8.750   3.479 -0.0046 -0.3828 -0.3669
16238SOL    HW150453   1.887   8.831   3.494  1.4096 -1.0565 -1.1822
16238SOL    HW250454   1.746   8.775   3.493  0.3587  1.4451 -0.9370
16239SOL     OW50455   5.910   1.558   7.480  0.2617  0.1877  0.0267
16239SOL    HW150456   5.941   1.501   7.550 -0.5530 -0.5135 -0.1585
16239SOL    HW250457   5.907   1.501   7.403  0.9593  0.9025 -0.5374
16240SOL     OW50458   5.384   7.297   2.566  0.1188 -0.1173 -0.4358
16240SOL    HW150459   5.397   7.317   2.658  1.3215 -1.3046 -0.3115
16240SOL    HW250460   5.291   7.314   2.550 -0.4573 -1.3575  1.3690
16241SOL     OW50461   0.108   5.536   0.272  0.0022 -0.2399  0.2724
16241SOL    HW150462   0.066   5.599   0.214  0.3762  0.6748  0.9675
16241SOL    HW250463   0.064   5.453   0.254 -1.0957  0.3966 -0.0501
16242SOL     OW50464   1.131   2.520   6.157 -0.1816 -0.4237 -0.1433
16242SOL    HW150465   1.166   2.467   6.085 -1.4186  1.4418 -2.2421
16242SOL    HW250466   1.187   2.597   6.160 -0.6248 -0.1167  0.3696
16243SOL     OW50467   4.909   9.407   3.371  0.5841  0.0632 -0.3015
16243SOL    HW150468   4.873   9.418   3.283  1.7009  0.1261 -0.7683
16243SOL    HW250469   4.913   9.496   3.407 -0.9018 -0.0655  0.2627
16244SOL     OW50470   0.159   9.388   1.538  0.3082 -0.6914 -0.1133
16244SOL    HW150471   0.068   9.360   1.547 -0.6034  1.3279 -2.1161
16244SOL    HW250472   0.173   9.448   1.612  0.6991 -2.4428  1.3067
16245SOL     OW50473   6.484   7.196   9.001  0.0499  0.4071  1.0550
16245SOL    HW150474   6.464   7.129   9.067 -0.9997  0.8043  1.1575
16245SOL    HW250475   6.577   7.213   9.013  1.0297 -2.9242 -0.7610
16246SOL     OW50476   3.351   1.364   8.970 -0.5535 -0.2697  0.2359
16246SOL    HW150477   3.310   1.398   8.890 -0.5735 -0.0571  0.3361
16246SOL    HW250478   3.315   1.275   8.979 -0.6302 -0.2575  0.0657
16247SOL     OW50479   8.090   0.901   0.318 -0.2528  0.7488  0.4236
16247SOL    HW150480   8.153   0.971   0.336 -0.5261  0.6850  1.7540
16247SOL    HW250481   8.005   0.946   0.316 -0.3515  0.5705  0.5524
16248SOL     OW50482   1.737   0.651   8.439 -0.8016  0.0691 -0.2857
16248SOL    HW150483   1.791   0.719   8.400 -1.7455  0.5896 -0.7351
16248SOL    HW250484   1.747   0.576   8.381 -1.7662  0.6640 -1.2682
16249SOL     OW50485   0.897   7.645   2.775 -0.5727  0.0711 -0.3887
16249SOL    HW150486   0.930   7.695   2.701 -0.1354 -0.9618 -0.9186
16249SOL    HW250487   0.824   7.595   2.738 -0.1021 -0.7478 -0.2314
16250SOL     OW50488   5.845   0.323   9.067  0.0010 -0.1920 -0.5085
16250SOL    HW150489   5.796   0.348   9.145  0.0196  0.8345 -0.8059
16250SOL    HW250490   5.930   0.292   9.100 -0.7198 -1.7288 -0.0101
16251SOL     OW50491   5.179   3.302   4.396  0.4036  0.5195  0.0258
16251SOL    HW150492   5.234   3.257   4.331  0.3064  1.1963 -0.5283
16251SOL    HW250493   5.230   3.379   4.422  0.1680  0.5873  0.2966
16252SOL     OW50494   3.327   1.141   4.166  0.2102 -0.4264 -0.3915
16252SOL    HW150495   3.249   1.089   4.146  0.1935 -1.0619  1.1561
16252SOL    HW250496   3.312   1.171   4.256  0.7104  1.3852 -0.8744
16253SOL     OW50497   4.678   2.471   1.931 -0.5062 -0.5536 -0.9088
16253SOL    HW150498   4.723   2.386   1.934 -0.7828 -0.6863 -0.3435
16253SOL    HW250499   4.733   2.525   1.875  0.0122 -0.9098 -0.7539
16254SOL     OW50500   7.413   2.249   3.871 -0.5249 -0.0713  0.2482
16254SOL    HW150501   7.451   2.333   3.897 -0.1290  0.1291 -0.9421
16254SOL    HW250502   7.383   2.210   3.954  0.7027  0.5261  1.0071
16255SOL     OW50503   0.121   1.899   5.331 -0.0571 -0.3304 -0.3951
16255SOL    HW150504   0.130   1.962   5.403 -2.8225 -0.6967  0.3654
16255SOL    HW250505   0.147   1.949   5.253 -1.3559  1.5392  0.2890
16256SOL     OW50506   5.336   5.625   4.249 -0.6089  0.3737  0.5161
16256SOL    HW150507   5.421   5.669   4.252 -1.0400  1.5115 -1.8136
16256SOL    HW250508   5.275   5.695   4.227 -2.1078 -0.5413  1.6014
16257SOL     OW50509   5.742   5.660   7.676  0.1992 -0.3081 -0.1645
16257SOL    HW150510   5.761   5.631   7.765  0.2255  0.8652  0.2212
16257SOL    HW250511   5.816   5.628   7.624  0.6848 -0.1287  0.4119
16258SOL     OW50512   5.654   8.593   2.137 -0.1149 -0.0552  0.3253
16258SOL    HW150513   5.703   8.635   2.065  0.6575 -0.2673  0.7168
16258SOL    HW250514   5.568   8.574   2.099  0.6560 -1.2271 -0.9199
16259SOL     OW50515   7.162   9.509   6.069  0.0957 -0.4573  0.4258
16259SOL    HW150516   7.194   9.444   6.007  0.2005 -0.8114  0.8468
16259SOL    HW250517   7.088   9.551   6.025  1.9879  1.4143 -1.1897
16260SOL     OW50518   4.655   1.943   1.318 -0.5116  0.4526 -0.0101
16260SOL    HW150519   4.629   1.885   1.389  0.2875  2.8356  2.3826
16260SOL    HW250520   4.734   1.986   1.349  1.3022 -0.0569 -3.3751
16261SOL     OW50521   0.460   1.054   6.840  0.1854  0.0115  0.0242
16261SOL    HW150522   0.480   1.142   6.871 -0.6804 -0.0946  0.9015
16261SOL    HW250523   0.450   1.002   6.919  1.5252 -1.0902 -0.4867
16262SOL     OW50524   5.773   6.710   0.953 -0.1170 -0.8833 -0.4490
16262SOL    HW150525   5.792   6.735   0.862  0.9950 -2.9681 -0.8643
16262SOL    HW250526   5.714   6.635   0.946  0.1371 -1.1967  0.5272
16263SOL     OW50527   1.179   4.618   8.425 -0.5725  0.0357 -0.2888
16263SOL    HW150528   1.169   4.645   8.516 -0.1586 -2.0590  0.4542
16263SOL    HW250529   1.092   4.627   8.386 -0.9534  0.1330  0.5758
16264SOL     OW50530   1.373   3.644   7.190  0.3375  0.2009 -0.4618
16264SOL    HW150531   1.445   3.703   7.213 -1.3524  1.7992  1.0073
16264SOL    HW250532   1.306   3.661   7.256 -2.5368  0.8274 -3.3142
16265SOL     OW50533   0.545   2.708   1.521  0.0326  0.1192 -0.0435
16265SOL    HW150534   0.641   2.707   1.514 -0.0578 -0.5245 -1.6052
16265SOL    HW250535   0.517   2.629   1.475 -1.3378  1.3165 -1.3808
16266SOL     OW50536   7.370   6.773   0.822 -0.2314  0.2989  0.3302
16266SOL    HW150537   7.459   6.744   0.843  0.7881  2.7627 -0.2835
16266SOL    HW250538   7.348   6.728   0.741  1.3468  1.2703 -0.6803
16267SOL     OW50539   6.213   9.061   4.055 -0.0095  0.2880  0.1262
16267SOL    HW150540   6.301   9.036   4.083 -0.5611 -0.2086  1.4982
16267SOL    HW250541   6.221   9.076   3.961  0.8778 -2.8811 -0.3985
16268SOL     OW50542   3.193   8.616   4.506 -0.3657  0.1884 -0.3918
16268SOL    HW150543   3.149   8.655   4.582  0.9397  2.1735 -0.5876
16268SOL    HW250544   3.286   8.630   4.523 -0.0420  0.7252 -2.3697
16269SOL     OW50545   3.465   1.869   6.019  0.2164  0.0016 -0.3029
16269SOL    HW150546   3.463   1.779   6.053 -0.9854  0.2333  0.3030
16269SOL    HW250547   3.534   1.868   5.953 -0.6219 -1.6975 -1.2179
16270SOL     OW50548   4.380   7.097   4.486 -0.3979 -0.2171 -0.1004
16270SOL    HW150549   4.297   7.063   4.519 -0.4472  0.9695  1.0853
16270SOL    HW250550   4.422   7.135   4.562  1.7733 -1.7640 -0.4490
16271SOL     OW50551   6.707   7.233   5.154  0.1092 -0.2519 -0.2279
16271SOL    HW150552   6.766   7.285   5.099  1.2033  0.0634  1.1890
16271SOL    HW250553   6.703   7.148   5.112 -0.4752  0.4715 -1.7363
16272SOL     OW50554   3.689   2.736   1.206 -0.3226  0.5254 -0.2179
16272SOL    HW150555   3.673   2.780   1.122  1.1606 -0.1801 -0.9101
16272SOL    HW250556   3.671   2.803   1.272  1.4389  2.0850 -1.2145
16273SOL     OW50557   2.977   2.427   0.225  0.7485 -0.0960 -0.4103
16273SOL    HW150558   3.050   2.477   0.189  2.6933 -0.5770  2.5471
16273SOL    HW250559   3.002   2.336   0.212  0.4864 -0.2628  0.2206
16274SOL     OW50560   5.418   6.583   4.636  0.2869 -0.0086  0.6671
16274SOL    HW150561   5.375   6.637   4.570 -1.8056 -1.7220  0.5051
16274SOL    HW250562   5.503   6.561   4.598  0.0324  0.8703 -0.4501
16275SOL     OW50563   0.273   8.499   0.181 -0.2573  0.3564  0.1907
16275SOL    HW150564   0.291   8.435   0.249 -2.7938  0.3176  0.9074
16275SOL    HW250565   0.249   8.447   0.104  0.3475  0.4318 -0.0550
16276SOL     OW50566   9.036   1.204   9.178  0.3711  0.1939 -0.1209
16276SOL    HW150567   9.024   1.268   9.109  0.4891  0.4645  0.1071
16276SOL    HW250568   8.985   1.128   9.150 -0.3076  0.6258 -0.0757
16277SOL     OW50569   8.926   9.083   6.466 -0.1811 -0.0057  0.1618
16277SOL    HW150570   8.958   9.157   6.517 -1.8737  0.2204  0.9922
16277SOL    HW250571   9.000   9.022   6.461  1.1392  1.5841 -0.2746
16278SOL     OW50572   3.337   1.351   8.061 -0.0608  0.5217 -0.1383
16278SOL    HW150573   3.331   1.444   8.084  1.0671  0.4266  0.6720
16278SOL    HW250574   3.322   1.305   8.144 -0.7825 -0.0335 -0.5663
16279SOL     OW50575   5.697   7.706   6.406  0.5745 -0.4681 -0.3872
16279SOL    HW150576   5.659   7.767   6.343  0.1642  0.0360  0.3387
16279SOL    HW250577   5.661   7.733   6.491  0.2649 -1.8020 -0.0720
16280SOL     OW50578   3.473   8.111   2.855  0.1886  0.2127  0.1290
16280SOL    HW150579   3.525   8.053   2.800  0.5677  2.3408 -1.8907
16280SOL    HW250580   3.537   8.156   2.910  0.0523 -0.1188  0.5645
16281SOL     OW50581   6.374   1.610   7.273 -0.2300 -0.4545 -0.2669
16281SOL    HW150582   6.468   1.625   7.265 -0.1275 -0.2477  1.0357
16281SOL    HW250583   6.340   1.618   7.184  0.9107 -0.0579 -0.6826
16282SOL     OW50584   2.657   1.408   0.990 -0.7544 -0.1763  0.2770
16282SOL    HW150585   2.593   1.437   0.925 -0.1694  0.2416 -0.1238
16282SOL    HW250586   2.738   1.452   0.964  0.1203 -2.0033 -0.2383
16283SOL     OW50587   3.247   0.573   1.335  0.2682 -0.4053  0.8404
16283SOL    HW150588   3.185   0.530   1.393 -1.8021  0.4147 -0.6547
16283SOL    HW250589   3.265   0.509   1.266  1.7936 -0.9385  1.6800
16284SOL     OW50590   5.086   8.690   5.410 -0.0696  0.3813  0.2043
16284SOL    HW150591   5.169   8.710   5.366  0.0029 -0.0308  0.1501
16284SOL    HW250592   5.110   8.682   5.502 -0.2589  1.4654  0.3686
16285SOL     OW50593   4.418   1.748   9.264  0.2569 -0.2226  0.2197
16285SOL    HW150594   4.412   1.833   9.309  1.9250 -0.3108  0.6633
16285SOL    HW250595   4.492   1.757   9.204  0.0848 -1.1807 -0.1567
16286SOL     OW50596   5.990   0.702   3.747  0.3625 -0.3456 -0.5031
16286SOL    HW150597   5.920   0.646   3.716 -0.1439 -0.7826  1.2955
16286SOL    HW250598   5.969   0.789   3.713 -0.9690 -0.5094 -0.1514
16287SOL     OW50599   3.750   5.662   2.237 -0.2477  0.0741  0.4019
16287SOL    HW150600   3.789   5.658   2.325 -0.7150 -0.7108  0.5870
16287SOL    HW250601   3.728   5.571   2.217 -0.9497  0.3623 -0.1657
16288SOL     OW50602   5.604   2.375   3.656  0.6025  0.5167  1.0475
16288SOL    HW150603   5.649   2.315   3.715  1.3245 -0.5888 -0.5606
16288SOL    HW250604   5.557   2.319   3.594  0.2031  1.6214  0.3059
16289SOL     OW50605   1.730   9.540   3.857 -0.4805 -0.9252 -0.0030
16289SOL    HW150606   1.696   9.478   3.921 -0.1045 -2.0098 -0.8117
16289SOL    HW250607   1.657   9.554   3.796 -0.2436 -1.4136 -0.4107
16290SOL     OW50608   3.206   6.900   3.072 -0.0271 -0.5778 -0.4484
16290SOL    HW150609   3.201   6.845   3.150  1.0576 -1.8356 -1.2162
16290SOL    HW250610   3.282   6.955   3.087 -0.3887 -0.1383 -0.2110
16291SOL     OW50611   1.713   0.018   0.887  0.4748 -0.4932  0.6353
16291SOL    HW150612   1.719  -0.035   0.807  1.4584  2.0509 -1.0679
16291SOL    HW250613   1.620   0.014   0.909 -0.1729  0.1082 -1.6593
16292SOL     OW50614   7.613   6.670   8.686 -0.1076  0.4762 -0.1277
16292SOL    HW150615   7.631   6.590   8.736 -0.9775 -0.0157 -0.5747
16292SOL    HW250616   7.649   6.653   8.599  0.0267  0.7124 -0.1190
16293SOL     OW50617   1.952   5.382   0.573  0.4112  0.1483 -0.0347
16293SOL    HW150618   2.004   5.425   0.505  0.9359 -2.0809 -1.1138
16293SOL    HW250619   2.013   5.320   0.614 -1.7273 -4.3102 -2.9208
16294SOL     OW50620   9.118   0.975   0.276 -0.4800 -0.3716 -0.0820
16294SOL    HW150621   9.157   0.977   0.189 -1.2429  2.0967 -0.4677
16294SOL    HW250622   9.182   0.931   0.331  2.2456  2.1611 -0.9756
16295SOL     OW50623   1.880   5.376   0.060 -0.6012  0.1394 -0.1631
16295SOL    HW150624   1.785   5.360   0.060 -0.7270  0.8461 -0.5383
16295SOL    HW250625   1.893   5.441  -0.008  0.1287  0.2463  0.0736
16296SOL     OW50626   1.612   5.685   7.061  0.0003 -0.9392  0.2997
16296SOL    HW150627   1.675   5.730   7.004 -1.1771  1.1459  0.5495
16296SOL    HW250628   1.618   5.593   7.035  1.4860 -0.4527 -1.2664
16297SOL     OW50629   5.387   7.366   4.896 -0.0168  0.6019  0.0875
16297SOL    HW150630   5.458   7.312   4.862 -0.7356 -0.7211  0.6433
16297SOL    HW250631   5.431   7.445   4.928  1.0295  0.4410 -0.8808
16298SOL     OW50632   0.747   7.070   1.276 -0.1372 -0.4089  0.2711
16298SOL    HW150633   0.814   7.137   1.264 -0.3183 -0.6127 -2.3149
16298SOL    HW250634   0.793   6.998   1.320  0.2187  1.0430  2.4684
16299SOL     OW50635   3.456   2.712   3.319 -0.0699 -0.5628  0.4068
16299SOL    HW150636   3.447   2.656   3.241  1.2202  1.3656 -1.2303
16299SOL    HW250637   3.380   2.770   3.315 -0.4799 -1.0506  1.1048
16300SOL     OW50638   7.170   1.211   8.428  0.0394  0.2175 -0.1702
16300SOL    HW150639   7.187   1.280   8.492 -2.2411  1.3393 -0.6899
16300SOL    HW250640   7.081   1.182   8.447 -0.0505 -0.6336 -1.7349
16301SOL     OW50641   5.380   8.543   6.100  0.0483  0.1153  0.3969
16301SOL    HW150642   5.377   8.633   6.067  0.1110 -0.5591 -1.5847
16301SOL    HW250643   5.472   8.528   6.121 -0.1303  0.8389  1.7872
16302SOL     OW50644   9.560   6.985   7.193  0.3847  0.4307 -0.2437
16302SOL    HW150645   9.647   6.971   7.155  1.6215 -0.9482  2.7808
16302SOL    HW250646   9.520   6.898   7.195  0.9053  0.1546  2.5569
16303SOL     OW50647   6.586   4.549   6.018 -0.4578  0.6791  0.4255
16303SOL    HW150648   6.553   4.600   6.092 -0.6040 -0.8038  1.4073
16303SOL    HW250649   6.527   4.570   5.946 -0.9079  1.3879  0.9911
16304SOL     OW50650   8.749   5.184   4.767 -0.1674  0.6961 -0.1056
16304SOL    HW150651   8.689   5.152   4.834  0.1916  2.1150  0.9265
16304SOL    HW250652   8.829   5.134   4.781 -1.2487 -1.7937 -2.0000
16305SOL     OW50653   0.340   7.177   7.710  0.3476 -0.4866  0.3640
16305SOL    HW150654   0.365   7.228   7.633 -0.2514 -2.3599 -1.1529
16305SOL    HW250655   0.415   7.119   7.726 -0.4856 -1.8465 -0.4155
16306SOL     OW50656   1.777   8.177   9.544  0.1229 -0.3184 -0.2534
16306SOL    HW150657   1.864   8.216   9.547  0.0205 -0.1673  1.2623
16306SOL    HW250658   1.725   8.229   9.604 -1.6502  1.0222 -2.7699
16307SOL     OW50659   8.701   3.441   3.496 -0.3643 -0.2718  0.4067
16307SOL    HW150660   8.775   3.385   3.518 -0.1023 -0.1498 -0.1525
16307SOL    HW250661   8.714   3.520   3.549  0.4228  0.1428 -0.3811
16308SOL     OW50662   2.055   0.039   4.344  0.3534 -0.6095  0.2257
16308SOL    HW150663   2.096   0.092   4.276 -0.2667 -0.1828  0.1838
16308SOL    HW250664   2.043  -0.047   4.303  0.8578 -0.6309  0.1163
16309SOL     OW50665   7.462   4.240   2.727  0.3617  0.4176 -0.2796
16309SOL    HW150666   7.419   4.269   2.647 -0.2258 -1.2143 -0.5889
16309SOL    HW250667   7.460   4.144   2.723  0.1869  0.2844  1.7440
16310SOL     OW50668   3.243   4.348   3.444  0.1144  0.2069 -0.0164
16310SOL    HW150669   3.235   4.349   3.349  0.2611 -0.0758 -0.0312
16310SOL    HW250670   3.331   4.382   3.461  0.1783  0.0260  0.0101
16311SOL     OW50671   5.878   1.459   7.164  0.4458 -0.0175 -0.3202
16311SOL    HW150672   5.826   1.483   7.087  1.1555  1.2583 -0.4354
16311SOL    HW250673   5.968   1.479   7.138  0.5975  1.4581  1.2054
16312SOL     OW50674   7.259   1.089   5.411  0.4218 -0.2028 -0.0448
16312SOL    HW150675   7.325   1.046   5.356 -0.7140  0.4322 -2.0028
16312SOL    HW250676   7.307   1.160   5.454  1.2641 -0.4378 -0.5676
16313SOL     OW50677   5.081   7.200   3.340  0.2014 -0.2264 -0.6675
16313SOL    HW150678   5.061   7.107   3.349  1.2734 -0.3692  0.4790
16313SOL    HW250679   5.125   7.208   3.255 -0.6916 -0.6062 -1.1735
16314SOL     OW50680   2.237   0.896   5.300  0.2315 -0.3320  0.3182
16314SOL    HW150681   2.208   0.936   5.218 -0.7906  0.3993  1.0167
16314SOL    HW250682   2.217   0.961   5.367  0.3126 -1.2393  1.2492
16315SOL     OW50683   5.215   2.829   0.541  0.5961  0.4454  0.2873
16315SOL    HW150684   5.125   2.858   0.528  0.6565  0.3141 -0.5204
16315SOL    HW250685   5.211   2.769   0.615 -0.2947 -0.8776 -0.7694
16316SOL     OW50686   5.200   9.060   1.506  0.1190  0.5938  0.2341
16316SOL    HW150687   5.281   9.111   1.508  0.4224  0.1661 -0.5901
16316SOL    HW250688   5.182   9.048   1.412 -1.8197  2.1039  0.3470
16317SOL     OW50689   4.779   2.743   4.701  0.4271  0.2178  0.4160
16317SOL    HW150690   4.848   2.802   4.731  0.2514 -0.5352  2.4945
16317SOL    HW250691   4.805   2.718   4.613  3.3278 -0.7068  1.4096
16318SOL     OW50692   7.752   3.138   2.525 -0.1847  0.1249 -0.5225
16318SOL    HW150693   7.670   3.156   2.478 -0.9710 -0.5621  0.5294
16318SOL    HW250694   7.778   3.051   2.496 -0.4806 -0.1525  0.0367
16319SOL     OW50695   7.902   8.746   6.257 -0.2815  0.5030 -0.2226
16319SOL    HW150696   7.821   8.721   6.214  0.3384 -0.5053 -0.8474
16319SOL    HW250697   7.875   8.779   6.342 -1.3136 -0.2793 -0.2270
16320SOL     OW50698   4.587   5.279   6.755  0.2994  0.2053  0.3558
16320SOL    HW150699   4.613   5.188   6.744 -1.1443 -0.0325 -1.5511
16320SOL    HW250700   4.497   5.276   6.786  0.6839  1.0200  1.6549
16321SOL     OW50701   3.820   1.346   2.909  0.0067  0.1580 -0.1845
16321SOL    HW150702   3.737   1.302   2.891 -0.3672  1.2041 -1.2199
16321SOL    HW250703   3.813   1.374   3.001 -1.4146  1.4483 -0.6405
16322SOL     OW50704   7.062   2.126   5.250  0.1560  0.2342  0.3860
16322SOL    HW150705   6.986   2.090   5.295  0.1749  0.5892  0.7105
16322SOL    HW250706   7.125   2.143   5.320  0.8638 -0.8381  0.0339
16323SOL     OW50707   4.599   8.221   1.074 -0.2356  0.0846 -0.4522
16323SOL    HW150708   4.554   8.275   1.008  1.0843  0.2428 -1.2653
16323SOL    HW250709   4.569   8.255   1.158 -0.1612  1.4713 -0.9572
16324SOL     OW50710   5.573   4.102   5.649 -0.1250 -0.1349 -0.1189
16324SOL    HW150711   5.612   4.046   5.716  1.4282 -0.3210 -1.1127
16324SOL    HW250712   5.635   4.098   5.576 -0.4939  2.0409 -0.6254
16325SOL     OW50713   9.347   5.874   1.574  0.4909  0.7029  1.0378
16325SOL    HW150714   9.389   5.822   1.505  1.4205  2.8989 -0.1853
16325SOL    HW250715   9.388   5.844   1.655 -2.6824 -4.0337  1.2706
16326SOL     OW50716   3.582   1.070   1.768  0.0936 -0.4754  0.2501
16326SOL    HW150717   3.619   0.983   1.760 -0.6477 -0.9005  1.2583
16326SOL    HW250718   3.657   1.129   1.774  0.6075 -1.2382  1.5091
16327SOL     OW50719   3.240   6.556   8.867 -0.5827  0.1360  0.2573
16327SOL    HW150720   3.282   6.533   8.784  0.6985  2.6265  0.1261
16327SOL    HW250721   3.167   6.494   8.875 -0.8753 -0.0754 -2.8124
16328SOL     OW50722   7.270   3.854   1.941  0.2049 -0.1643  0.0435
16328SOL    HW150723   7.206   3.855   1.869  1.7287 -1.4541 -1.3916
16328SOL    HW250724   7.282   3.947   1.963 -0.3769  0.2613 -1.3003
16329SOL     OW50725   3.831   1.983   3.542 -0.3386 -0.6328 -0.4600
16329SOL    HW150726   3.871   1.913   3.594 -0.8308 -2.1526 -2.0542
16329SOL    HW250727   3.737   1.977   3.563 -0.2898  0.1249  0.0231
16330SOL     OW50728   3.511   8.440   5.423 -0.2886 -0.1630 -0.3344
16330SOL    HW150729   3.531   8.369   5.362 -1.2131 -1.5078  0.8505
16330SOL    HW250730   3.553   8.413   5.505 -1.2183  0.3115  0.3155
16331SOL     OW50731   5.984   7.365   5.385 -0.2068 -0.0058 -0.1119
16331SOL    HW150732   5.914   7.360   5.319 -1.8989 -0.0632  1.5839
16331SOL    HW250733   6.064   7.375   5.334 -1.6344  2.4183 -2.1316
16332SOL     OW50734   5.599   6.718   1.635  0.3188  0.2825  0.2418
16332SOL    HW150735   5.652   6.638   1.634  0.4975  0.3693 -2.2627
16332SOL    HW250736   5.659   6.787   1.605 -0.5599  0.8263 -0.3156
16333SOL     OW50737   9.481   9.306   6.441 -0.7476  0.3239  0.1645
16333SOL    HW150738   9.440   9.253   6.510 -0.7336  0.7537  0.5071
16333SOL    HW250739   9.407   9.338   6.389 -0.7950  0.4051  0.2799
16334SOL     OW50740   8.837   1.272   1.912  0.0505 -0.3214 -0.1222
16334SOL    HW150741   8.855   1.181   1.932  1.3459 -0.0413  0.0920
16334SOL    HW250742   8.828   1.315   1.997 -1.3709 -0.3883 -0.2258
16335SOL     OW50743   1.753   6.959   3.013  0.3925  0.7509  0.1660
16335SOL    HW150744   1.822   7.026   3.014 -0.2212  1.4345  2.2809
16335SOL    HW250745   1.673   7.006   3.035 -0.0797 -0.6225  1.5786
16336SOL     OW50746   8.908   1.470   4.331 -0.2907  0.4919  0.1095
16336SOL    HW150747   8.942   1.461   4.420  0.4478 -2.9895 -0.4019
16336SOL    HW250748   8.813   1.464   4.340 -0.2147  0.0426  0.6484
16337SOL     OW50749   1.654   5.927   0.602 -0.0130 -0.8859 -0.0727
16337SOL    HW150750   1.656   5.843   0.647  0.0800 -1.2504 -0.7538
16337SOL    HW250751   1.625   5.907   0.513  1.2840 -0.3799 -0.6308
16338SOL     OW50752   1.944   4.879   0.886 -0.2797 -0.1768 -0.2351
16338SOL    HW150753   1.862   4.921   0.912  0.2681  1.2309 -0.6779
16338SOL    HW250754   1.949   4.801   0.941 -0.9042  0.8102  1.3255
16339SOL     OW50755   4.484   3.341   6.056  0.1884  0.5192  0.5408
16339SOL    HW150756   4.480   3.288   6.136  1.3281  1.3998  1.2080
16339SOL    HW250757   4.553   3.300   6.003  0.1163  0.5253  0.4416
16340SOL     OW50758   9.445   4.683   5.647  0.1657  0.2978  0.1516
16340SOL    HW150759   9.496   4.698   5.568  0.4952 -0.0937  0.2887
16340SOL    HW250760   9.387   4.610   5.625 -0.4617  0.8466 -0.0594
16341SOL     OW50761   6.858   0.335   2.678  0.2079  0.2887 -0.2897
16341SOL    HW150762   6.923   0.401   2.657  1.3146  0.5761  3.3441
16341SOL    HW250763   6.882   0.259   2.625  2.1584  1.1015 -0.6385
16342SOL     OW50764   7.509   5.227   2.089  0.1824 -0.1552 -0.5591
16342SOL    HW150765   7.502   5.188   2.002  0.8284  0.0572 -0.7117
16342SOL    HW250766   7.422   5.215   2.128 -0.6469  1.3102 -1.8784
16343SOL     OW50767   8.595   6.335   3.430 -0.3241  0.2706 -0.4743
16343SOL    HW150768   8.576   6.428   3.439 -2.5688 -0.2661  1.1598
16343SOL    HW250769   8.522   6.300   3.378 -1.2467 -1.0451  1.5803
16344SOL     OW50770   0.746   1.103   1.450 -0.3760 -0.0989 -0.3374
16344SOL    HW150771   0.813   1.088   1.383  1.0692  0.7874  0.8086
16344SOL    HW250772   0.743   1.021   1.500 -1.5288 -0.7942 -1.5158
16345SOL     OW50773   3.787   3.985   7.876  0.1135 -0.1301  0.0005
16345SOL    HW150774   3.698   3.998   7.844 -0.3165  1.6816  1.7252
16345SOL    HW250775   3.781   4.001   7.970  2.8274  3.6644 -0.2365
16346SOL     OW50776   0.118   8.839   4.740  0.2580  0.4313  0.0988
16346SOL    HW150777   0.099   8.918   4.690  1.8494  0.7708 -0.0470
16346SOL    HW250778   0.191   8.798   4.693 -0.8284 -1.3930 -0.0953
16347SOL     OW50779   9.077   3.989   5.357 -0.3279  0.7494  0.7453
16347SOL    HW150780   9.102   3.939   5.280  0.7162  1.1112  0.8408
16347SOL    HW250781   9.000   3.943   5.392 -1.0353  0.7778 -0.7002
16348SOL     OW50782   6.706   9.077   6.800 -0.2441  0.0973 -0.0522
16348SOL    HW150783   6.656   9.134   6.858 -0.1569 -0.1495  0.2681
16348SOL    HW250784   6.667   8.990   6.811  0.0439 -0.0320 -0.0485
16349SOL     OW50785   9.534   6.267   0.330  0.3063  0.1183  0.0656
16349SOL    HW150786   9.599   6.260   0.400  1.0172 -0.1634 -0.6045
16349SOL    HW250787   9.508   6.176   0.313  1.4081 -0.0003 -1.1771
16350SOL     OW50788   4.441   9.409   2.843  0.2187  0.2621  0.6042
16350SOL    HW150789   4.457   9.338   2.905 -0.2614 -1.0441 -0.7076
16350SOL    HW250790   4.349   9.401   2.819  0.3518  0.8132 -0.1679
16351SOL     OW50791   5.330   9.526   6.999 -0.2495 -0.1032 -0.0669
16351SOL    HW150792   5.301   9.489   7.082 -2.5584 -0.8645 -1.1176
16351SOL    HW250793   5.301   9.462   6.933  0.2539  1.1423 -1.5639
16352SOL     OW50794   1.145   1.089   9.176 -0.5889  0.5479  0.1768
16352SOL    HW150795   1.163   1.129   9.261 -0.1341 -1.7119  1.2275
16352SOL    HW250796   1.219   1.115   9.121  0.5039 -0.0844  1.2929
16353SOL     OW50797   2.734   4.634   6.822  0.1037  0.1140  0.1376
16353SOL    HW150798   2.671   4.618   6.892 -1.1794  3.4216 -0.1001
16353SOL    HW250799   2.812   4.665   6.867 -0.7418  2.3028  0.2297
16354SOL     OW50800   4.396   9.152   2.274  0.2224  0.6033  0.1233
16354SOL    HW150801   4.450   9.152   2.353 -1.8893  0.9828  1.6713
16354SOL    HW250802   4.335   9.079   2.287 -0.7769  1.2667 -0.6909
16355SOL     OW50803   3.668   3.932   8.653  0.5186 -0.3023  0.0244
16355SOL    HW150804   3.578   3.933   8.620  0.0182 -1.4660  1.2622
16355SOL    HW250805   3.706   3.853   8.614  0.0205 -1.5136  1.8880
16356SOL     OW50806   4.147   8.857   5.896  0.8182 -0.5177 -0.2615
16356SOL    HW150807   4.198   8.785   5.858  1.4063  0.1425 -0.7449
16356SOL    HW250808   4.056   8.832   5.880  1.0301 -0.8446 -1.0023
16357SOL     OW50809   6.777   9.132   3.323  0.3022  0.6216  0.0028
16357SOL    HW150810   6.725   9.091   3.392  1.1999  0.6249  0.6913
16357SOL    HW250811   6.810   9.213   3.362  1.2443  0.3651 -0.2433
16358SOL     OW50812   5.731   7.476   6.531  0.0152 -0.4213  0.2381
16358SOL    HW150813   5.730   7.558   6.482  0.3353 -0.9668 -0.7186
16358SOL    HW250814   5.729   7.502   6.623  0.1782  0.6544 -0.0548
16359SOL     OW50815   4.740   3.449   2.564 -0.2109  0.8955 -0.3050
16359SOL    HW150816   4.785   3.530   2.590  3.0135 -0.7362 -0.3296
16359SOL    HW250817   4.770   3.383   2.626 -0.8321 -0.7827 -1.6947
16360SOL     OW50818   6.449   7.596   2.915  0.0549  0.3147  0.1999
16360SOL    HW150819   6.385   7.550   2.859 -1.0649  0.3095  1.4264
16360SOL    HW250820   6.412   7.683   2.926  1.4031  1.0631 -0.8504
16361SOL     OW50821   9.274   9.568   4.151  0.3262 -0.8990 -0.1079
16361SOL    HW150822   9.253   9.538   4.063  2.2541  1.2867 -1.4007
16361SOL    HW250823   9.332   9.500   4.186  1.2073 -0.8000 -1.3325
16362SOL     OW50824   2.409   0.024   3.465  0.1020  0.1879 -0.1060
16362SOL    HW150825   2.359   0.082   3.523  0.0067 -0.9999  1.0361
16362SOL    HW250826   2.431   0.079   3.390 -1.3747  1.2487  0.1938
16363SOL     OW50827   0.650   7.757   5.351  0.4724  0.1173 -0.2857
16363SOL    HW150828   0.596   7.726   5.279 -1.7890 -0.5429  1.5828
16363SOL    HW250829   0.735   7.715   5.336 -0.6125 -1.9106 -1.3164
16364SOL     OW50830   8.939   4.814   6.080  0.0535 -0.1791  0.1642
16364SOL    HW150831   8.871   4.879   6.062  1.2626  1.4660  1.1633
16364SOL    HW250832   9.011   4.865   6.118  0.7430 -2.2316  1.8131
16365SOL     OW50833   6.545   7.434   4.950  0.8370  0.4667 -0.5442
16365SOL    HW150834   6.632   7.450   4.914  0.5953 -1.1675 -2.0036
16365SOL    HW250835   6.555   7.354   5.001  0.4498  0.9717  0.3396
16366SOL     OW50836   4.922   8.358   6.777 -0.2098  0.1488  0.0373
16366SOL    HW150837   5.011   8.353   6.742 -0.1833  0.0231  0.1232
16366SOL    HW250838   4.899   8.268   6.799 -0.9397 -0.0486 -1.4116
16367SOL     OW50839   9.235   4.869   8.905 -0.0670 -0.1020 -0.6715
16367SOL    HW150840   9.311   4.836   8.857 -0.0001 -0.2782 -0.4499
16367SOL    HW250841   9.270   4.895   8.990  0.0094  1.2121 -1.0842
16368SOL     OW50842   9.417   4.699   7.549  0.5111 -0.1738  0.1087
16368SOL    HW150843   9.430   4.608   7.574 -0.0668  0.0389  1.2178
16368SOL    HW250844   9.454   4.705   7.460 -0.8631 -1.8515 -0.6308
16369SOL     OW50845   6.232   3.112   8.090  0.0057  0.3542  0.1402
16369SOL    HW150846   6.220   3.093   8.183  0.6132  0.3882  0.2280
16369SOL    HW250847   6.326   3.122   8.079  0.1484 -1.5414 -0.8381
16370SOL     OW50848   7.325   6.335   9.484 -0.6581 -0.0403  0.0015
16370SOL    HW150849   7.390   6.398   9.513 -1.9198  1.2866  0.0524
16370SOL    HW250850   7.311   6.355   9.391 -0.3332 -0.9341 -0.2565
16371SOL     OW50851   7.473   3.023   2.650  0.1306  0.2079  0.0787
16371SOL    HW150852   7.445   3.115   2.651 -0.5457  0.0243 -1.0987
16371SOL    HW250853   7.393   2.974   2.634  0.8158 -0.4558 -1.4045
16372SOL     OW50854   3.254   1.294   3.854  0.3382 -0.1683 -0.2245
16372SOL    HW150855   3.286   1.364   3.911  0.0682 -0.6730  0.5618
16372SOL    HW250856   3.162   1.316   3.839  0.5385  0.2430 -0.9067
16373SOL     OW50857   3.882   4.056   9.465 -0.0900  0.2827  0.4348
16373SOL    HW150858   3.843   4.004   9.535  0.7700 -1.2119 -0.1627
16373SOL    HW250859   3.818   4.053   9.394 -0.7636  1.4317  0.9645
16374SOL     OW50860   3.925   9.459   1.408  0.2193  0.2460 -0.4300
16374SOL    HW150861   3.837   9.454   1.447  0.2815 -0.2620 -0.3475
16374SOL    HW250862   3.916   9.415   1.324  0.4139  0.1109 -0.3818
16375SOL     OW50863   7.590   3.367   9.098  0.5321 -0.1471 -0.3338
16375SOL    HW150864   7.608   3.298   9.162  0.3662 -1.6818 -1.8729
16375SOL    HW250865   7.542   3.433   9.147  0.9940 -0.9523  1.2799
16376SOL     OW50866   0.635   3.352   2.961  0.4366  0.4636 -0.7401
16376SOL    HW150867   0.568   3.304   2.913  0.2701  0.3922 -0.4360
16376SOL    HW250868   0.705   3.365   2.897  1.8834 -2.8943 -0.0557
16377SOL     OW50869   3.583   5.154   8.134  0.2133 -0.0270  0.1160
16377SOL    HW150870   3.675   5.139   8.114 -0.3596 -0.6477 -2.3689
16377SOL    HW250871   3.548   5.198   8.057 -2.2126 -2.5699 -0.3870
16378SOL     OW50872   5.462   8.133   7.806  0.3499 -0.1340  0.2334
16378SOL    HW150873   5.409   8.208   7.779  0.9338  0.0360 -0.4479
16378SOL    HW250874   5.540   8.171   7.846  0.3913 -0.3786  0.3880
16379SOL     OW50875   0.452   5.869   0.855 -0.1583  0.4717  0.9910
16379SOL    HW150876   0.473   5.879   0.762  1.8110  0.4383  1.4094
16379SOL    HW250877   0.437   5.959   0.886  1.5626  0.7275  1.1523
16380SOL     OW50878   2.426   4.684   8.452 -0.6914 -0.7203 -0.0410
16380SOL    HW150879   2.400   4.764   8.496  1.2589 -1.7312  3.3219
16380SOL    HW250880   2.475   4.714   8.375 -0.6532  1.2931  0.7122
16381SOL     OW50881   1.240   7.530   1.710 -0.4552  0.7069  0.1985
16381SOL    HW150882   1.276   7.552   1.624 -0.7375 -0.0306 -0.1178
16381SOL    HW250883   1.199   7.444   1.698 -0.7412  0.7187  1.0015
16382SOL     OW50884   0.495   4.843   4.944 -0.3307  1.0444  0.4048
16382SOL    HW150885   0.478   4.825   5.037 -2.6963 -1.5900 -0.3749
16382SOL    HW250886   0.562   4.780   4.919 -2.1794 -0.7605 -0.3332
16383SOL     OW50887   2.960   5.256   5.612 -0.1484 -0.0621 -0.0605
16383SOL    HW150888   2.939   5.317   5.683 -0.1292  0.3892 -0.4382
16383SOL    HW250889   2.932   5.301   5.532 -1.6633 -1.2363 -0.2226
16384SOL     OW50890   6.493   6.933   1.672 -0.1400  0.5910  0.3696
16384SOL    HW150891   6.556   6.867   1.700 -0.2782  0.7147  0.9960
16384SOL    HW250892   6.539   7.016   1.681  0.0872  0.5729 -0.5729
16385SOL     OW50893   7.716   0.885   1.801 -0.3827 -0.8874 -0.1053
16385SOL    HW150894   7.652   0.824   1.837 -0.7169 -0.7229 -0.4088
16385SOL    HW250895   7.666   0.965   1.785  0.1451 -0.3711  0.7285
16386SOL     OW50896   7.008   4.455   2.092  0.2649 -0.5523  0.6526
16386SOL    HW150897   6.967   4.421   2.172 -0.3599  0.6029  0.8371
16386SOL    HW250898   6.971   4.401   2.022 -1.6804  0.4986  0.8046
16387SOL     OW50899   7.069   0.480   2.601 -0.3793 -0.0582  0.5006
16387SOL    HW150900   7.025   0.547   2.549  0.3599  0.9096  1.0873
16387SOL    HW250901   7.100   0.417   2.537  0.5784  1.1494 -0.2725
16388SOL     OW50902   4.492   8.164   7.427 -0.2962 -0.8436  0.7224
16388SOL    HW150903   4.555   8.179   7.357 -0.6449 -0.9175  0.3902
16388SOL    HW250904   4.464   8.073   7.415 -0.3465 -0.8629  0.9700
16389SOL     OW50905   5.736   3.368   4.007 -0.3904 -0.1981  0.1935
16389SOL    HW150906   5.759   3.419   4.085  1.0945 -0.4275 -0.0671
16389SOL    HW250907   5.784   3.286   4.016 -0.0995 -0.1840 -1.0067
16390SOL     OW50908   6.838   1.844   7.668  0.4096  0.0561  0.0310
16390SOL    HW150909   6.928   1.818   7.687  0.3426  1.9818  3.8405
16390SOL    HW250910   6.846   1.931   7.629  0.1776 -0.7120 -1.8616
16391SOL     OW50911   6.086   9.519   3.909  0.1533  0.0997 -0.5331
16391SOL    HW150912   6.059   9.432   3.938  0.2847 -0.1606 -1.1653
16391SOL    HW250913   6.005   9.569   3.904 -0.0118 -0.1864 -0.8053
16392SOL     OW50914   7.770   8.192   4.726  0.1157 -0.1017  0.2455
16392SOL    HW150915   7.844   8.131   4.734 -0.5648 -0.8813  0.7925
16392SOL    HW250916   7.789   8.262   4.788  0.9523  0.3143 -0.4561
16393SOL     OW50917   4.218   2.497   8.806  0.3258  0.1512  0.0888
16393SOL    HW150918   4.153   2.564   8.784  0.5271  0.5239  0.6140
16393SOL    HW250919   4.183   2.455   8.884  0.5240  0.0892  0.1432
16394SOL     OW50920   2.550   2.366   3.201  0.0271 -1.1981  0.2023
16394SOL    HW150921   2.603   2.334   3.128  0.4568  1.6562 -0.8770
16394SOL    HW250922   2.598   2.339   3.279  1.4086 -1.3674 -0.6757
16395SOL     OW50923   1.973   4.773   9.432  0.2893  0.3055  0.1410
16395SOL    HW150924   2.041   4.715   9.466 -0.1434 -1.4643 -1.8183
16395SOL    HW250925   1.896   4.753   9.485  0.3710 -0.3248  0.0280
16396SOL     OW50926   7.327   6.274   6.472 -0.2641 -0.5545  0.0104
16396SOL    HW150927   7.259   6.314   6.418  0.1678 -0.7448 -0.6858
16396SOL    HW250928   7.409   6.299   6.430  0.0238 -2.2159 -0.5029
16397SOL     OW50929   7.644   7.198   4.407  0.2704  0.4136 -0.3073
16397SOL    HW150930   7.589   7.271   4.432 -1.1296 -1.1147  1.3157
16397SOL    HW250931   7.703   7.185   4.481  0.4528 -0.1618 -0.5433
16398SOL     OW50932   3.639   0.869   6.026 -0.2439  0.2060  0.2916
16398SOL    HW150933   3.667   0.923   5.952 -2.3912  2.1665  0.8079
16398SOL    HW250934   3.717   0.863   6.082 -0.0587  3.5856  0.6145
16399SOL     OW50935   5.212   0.393   3.842  0.2127  0.0996 -0.1564
16399SOL    HW150936   5.120   0.380   3.868  0.4295  0.3811  0.7848
16399SOL    HW250937   5.258   0.318   3.879  0.2017 -0.6602 -1.6175
16400SOL     OW50938   3.449   1.698   7.612 -0.1451 -0.5078  0.6414
16400SOL    HW150939   3.495   1.706   7.695 -0.8942  1.7543  0.8858
16400SOL    HW250940   3.360   1.726   7.631 -1.0274 -2.4350 -0.3849
16401SOL     OW50941   4.961   2.968   5.253 -0.0505 -0.6507 -0.0443
16401SOL    HW150942   4.928   2.914   5.325  2.0369 -1.7012  0.2006
16401SOL    HW250943   4.942   2.916   5.174 -0.0078 -0.7153 -0.0125
16402SOL     OW50944   4.335   7.589   4.035  0.1246 -0.1527 -0.2410
16402SOL    HW150945   4.385   7.662   3.998  0.7783 -0.0989  0.7097
16402SOL    HW250946   4.393   7.513   4.024  0.0379 -0.2596  0.0488
16403SOL     OW50947   6.610   5.501   5.324  0.5265  0.3257  0.4013
16403SOL    HW150948   6.649   5.479   5.239  0.7962  0.1914  0.5579
16403SOL    HW250949   6.543   5.566   5.303  0.6238  0.3304  0.0907
16404SOL     OW50950   7.851   4.912   9.537 -0.1757 -0.0502 -0.2513
16404SOL    HW150951   7.893   4.843   9.487 -0.2377 -0.8402  0.7688
16404SOL    HW250952   7.757   4.894   9.529 -0.4884  2.1176 -3.1321
16405SOL     OW50953   1.868   0.444   5.973  0.1253 -0.2551  0.1706
16405SOL    HW150954   1.925   0.381   5.928 -1.0356  1.0994 -3.5723
16405SOL    HW250955   1.912   0.461   6.057  4.3859 -0.5280 -1.7645
16406SOL     OW50956   3.086   2.085   5.706  0.1970  0.4946 -0.1731
16406SOL    HW150957   3.177   2.097   5.734  0.5764 -0.5858 -0.8822
16406SOL    HW250958   3.057   2.173   5.682  0.4163  1.1756  1.8532
16407SOL     OW50959   0.546   5.619   4.309  0.2048  0.4167  0.4851
16407SOL    HW150960   0.536   5.690   4.373 -0.7666  1.6938 -0.9751
16407SOL    HW250961   0.456   5.588   4.294  0.0092  1.8404 -1.9750
16408SOL     OW50962   2.793   4.037   9.258  0.1526 -0.6737  0.6569
16408SOL    HW150963   2.812   3.956   9.211 -0.0614 -0.8787  0.9222
16408SOL    HW250964   2.787   4.011   9.350  0.9006 -0.2192  0.8445
16409SOL     OW50965   4.500   8.989   4.254  0.4005 -0.1814  0.0124
16409SOL    HW150966   4.565   9.053   4.284 -0.1696  0.0522  0.8006
16409SOL    HW250967   4.426   9.002   4.313  0.2921 -1.6135  0.2152
16410SOL     OW50968   7.971   8.047   6.633 -0.0091  0.5759  0.3911
16410SOL    HW150969   7.929   8.005   6.559  0.2785  0.4120  0.3171
16410SOL    HW250970   7.931   8.134   6.639  1.5001  1.4648 -1.3463
16411SOL     OW50971   7.858   9.330   5.225 -0.1872 -0.4720  0.0016
16411SOL    HW150972   7.820   9.381   5.153  0.8119  0.8471  0.3562
16411SOL    HW250973   7.845   9.385   5.303  0.5783 -0.9192  0.4649
16412SOL     OW50974   5.165   8.062   7.811 -0.4133  0.0978 -0.1042
16412SOL    HW150975   5.240   8.119   7.793 -0.4886  0.6873  1.3309
16412SOL    HW250976   5.096   8.093   7.752 -0.2520  1.0730  0.2118
16413SOL     OW50977   5.548   5.510   2.584 -0.4192 -0.4954 -0.4389
16413SOL    HW150978   5.467   5.524   2.535  0.2409  0.5400 -1.2639
16413SOL    HW250979   5.529   5.435   2.640 -0.6481 -2.9834 -3.5637
16414SOL     OW50980   1.952   2.932   9.147  0.7513 -0.3732  0.2860
16414SOL    HW150981   1.926   2.883   9.225 -0.5431 -0.5911 -0.2603
16414SOL    HW250982   2.048   2.926   9.145  0.7605 -0.8069  1.5616
16415SOL     OW50983   7.078   8.870   7.885 -0.5576 -0.5251  0.5877
16415SOL    HW150984   7.153   8.811   7.898 -0.5053 -0.7382 -0.5934
16415SOL    HW250985   7.114   8.958   7.897 -0.3587 -0.6747  1.1060
16416SOL     OW50986   5.204   2.827   5.274  0.5522 -0.5787 -0.1829
16416SOL    HW150987   5.244   2.868   5.198  0.8116 -1.5163 -0.5615
16416SOL    HW250988   5.128   2.882   5.294  1.1815  0.3724 -0.3570
16417SOL     OW50989   1.264   7.303   8.219  0.2843  0.1894  0.2595
16417SOL    HW150990   1.238   7.246   8.291 -0.4657  1.0160  0.6600
16417SOL    HW250991   1.351   7.335   8.243 -0.1460  0.8057  1.0185
16418SOL     OW50992   7.830   1.844   3.163 -0.0025  0.2194  0.2339
16418SOL    HW150993   7.916   1.861   3.123 -0.4452 -0.2175 -0.9648
16418SOL    HW250994   7.808   1.925   3.208  0.9582  0.4035  0.3965
16419SOL     OW50995   5.731   2.646   8.210 -0.1629  0.3640  0.7194
16419SOL    HW150996   5.728   2.575   8.273 -0.9535  0.5066  0.8527
16419SOL    HW250997   5.665   2.708   8.241  0.2331  0.9605  0.3768
16420SOL     OW50998   3.056   4.567   8.861  0.1579 -0.6837  0.2109
16420SOL    HW150999   3.048   4.519   8.779  0.1498 -0.0088 -0.1885
16420SOL    HW251000   3.005   4.647   8.847  2.0423  0.5491  0.0129
16421SOL     OW51001   9.069   0.224   0.987  0.4655 -0.0757  0.0349
16421SOL    HW151002   9.073   0.250   0.895  0.4127 -0.1506  0.0117
16421SOL    HW251003   8.984   0.180   0.996 -1.0118  2.6599  0.8138
16422SOL     OW51004   0.290   8.817   9.350 -0.1818 -0.1304  0.3065
16422SOL    HW151005   0.255   8.791   9.436 -3.0503  1.2358 -0.3414
16422SOL    HW251006   0.294   8.912   9.354  0.4457 -0.1024 -0.7963
16423SOL     OW51007   6.852   3.169   4.119 -0.1769  0.4178  0.1543
16423SOL    HW151008   6.909   3.098   4.090 -0.3633  1.0495 -1.9469
16423SOL    HW251009   6.764   3.135   4.109 -0.2367  0.3102  0.9764
16424SOL     OW51010   9.485   7.347   5.060 -0.2353  0.0689 -0.2358
16424SOL    HW151011   9.545   7.300   5.117  1.0708  0.6456 -1.0970
16424SOL    HW251012   9.416   7.283   5.039 -0.5604 -0.2513  1.6749
16425SOL     OW51013   6.417   9.125   6.610 -0.3257  0.7233  0.0746
16425SOL    HW151014   6.354   9.139   6.539 -0.4311  1.0790  0.2367
16425SOL    HW251015   6.402   9.034   6.638  2.0166 -0.6601 -2.6245
16426SOL     OW51016   8.221   9.307   1.426 -0.4233  0.6338  0.4981
16426SOL    HW151017   8.161   9.343   1.361 -1.4855  2.4167  2.3639
16426SOL    HW251018   8.289   9.373   1.436  0.5163 -0.2589  0.2056
16427SOL     OW51019   1.379   1.615   1.626 -0.4460 -0.2179 -0.1987
16427SOL    HW151020   1.385   1.593   1.719  1.0755  0.7598 -0.0239
16427SOL    HW251021   1.305   1.675   1.620 -1.0214 -0.8688  0.2478
16428SOL     OW51022   1.970   0.744   3.121 -0.2495 -0.2826 -0.0842
16428SOL    HW151023   2.027   0.705   3.187  0.0336  0.4829  0.1401
16428SOL    HW251024   1.944   0.671   3.065 -1.5846 -1.2175  1.6423
16429SOL     OW51025   2.019   0.692   1.208  0.4456 -0.3016  0.4921
16429SOL    HW151026   2.022   0.600   1.235 -0.7489 -1.2300 -2.2496
16429SOL    HW251027   1.947   0.697   1.146 -0.5933  2.8896  1.7380
16430SOL     OW51028   0.844   7.037   8.899 -0.2915  0.3512  0.2819
16430SOL    HW151029   0.809   6.948   8.899 -1.9073  0.9213  1.7816
16430SOL    HW251030   0.878   7.050   8.988  0.3912  1.0769 -0.0645
16431SOL     OW51031   4.427   6.966   0.303  0.1914  0.2055 -0.5004
16431SOL    HW151032   4.391   6.884   0.338  1.1662 -0.5491 -1.1783
16431SOL    HW251033   4.401   6.965   0.211 -2.4961  2.2497  0.1192
16432SOL     OW51034   0.905   6.165   9.291 -0.5558 -0.4209  0.2081
16432SOL    HW151035   0.916   6.225   9.216  3.0489 -0.6485  0.4020
16432SOL    HW251036   0.861   6.218   9.357  1.7479  1.8516  0.0646
16433SOL     OW51037   1.661   6.491   6.118 -0.6916 -0.0021 -0.5418
16433SOL    HW151038   1.604   6.479   6.042 -1.7601 -0.8965  0.3653
16433SOL    HW251039   1.608   6.464   6.193  0.4117  0.6285  0.5146
16434SOL     OW51040   0.876   7.578   3.790  0.2454 -0.1039  0.2983
16434SOL    HW151041   0.921   7.579   3.706 -1.6579  0.8723 -0.7602
16434SOL    HW251042   0.889   7.488   3.823  0.6776 -0.6224 -1.2100
16435SOL     OW51043   3.405   4.094   6.544  0.3040 -0.2284  0.3747
16435SOL    HW151044   3.480   4.054   6.588  1.5199 -0.4913 -1.8112
16435SOL    HW251045   3.424   4.084   6.451 -2.7188 -0.7679 -0.2731
16436SOL     OW51046   0.202   5.049   2.491  0.0111 -0.1649  0.0616
16436SOL    HW151047   0.167   5.067   2.403 -0.4547  0.8855  0.4403
16436SOL    HW251048   0.135   4.995   2.532 -0.3175  0.2980  0.1492
16437SOL     OW51049   7.410   0.305   3.141  0.2246  0.2438 -0.1063
16437SOL    HW151050   7.363   0.261   3.212 -1.4626  1.8015 -0.2024
16437SOL    HW251051   7.413   0.397   3.166  3.0488  0.2824 -0.2555
16438SOL     OW51052   2.571   3.288   5.946 -0.1173 -0.1023 -0.3485
16438SOL    HW151053   2.580   3.367   5.999 -1.3889  0.2441 -0.6381
16438SOL    HW251054   2.497   3.241   5.984 -0.1711 -0.5292 -0.9629
16439SOL     OW51055   5.262   2.636   2.170 -0.0644  0.3609  0.0153
16439SOL    HW151056   5.181   2.586   2.174 -0.2942  0.7251 -0.0243
16439SOL    HW251057   5.332   2.571   2.176 -0.3388  0.1974  2.1251
16440SOL     OW51058   0.094   7.763   0.092 -0.8753 -0.0935 -0.1683
16440SOL    HW151059   0.026   7.800   0.149 -0.1744 -1.0727  1.3945
16440SOL    HW251060   0.105   7.827   0.022 -2.9833  0.3530 -0.1562
16441SOL     OW51061   3.506   0.308   2.746  0.1470  0.5176 -0.2523
16441SOL    HW151062   3.494   0.401   2.724 -1.0765  0.5609  0.5304
16441SOL    HW251063   3.422   0.280   2.782  0.6283 -0.7957 -0.0853
16442SOL     OW51064   7.740   1.705   4.190  0.1114  0.6816  0.0856
16442SOL    HW151065   7.687   1.785   4.188 -0.3789  0.3554 -0.0794
16442SOL    HW251066   7.681   1.638   4.223  0.2391  0.1785 -0.6800
16443SOL     OW51067   5.766   5.235   9.016 -0.7599 -0.3960  0.2203
16443SOL    HW151068   5.751   5.308   8.956 -0.4673 -1.1485 -0.8049
16443SOL    HW251069   5.795   5.276   9.097  0.8461  0.5775 -0.7907
16444SOL     OW51070   4.926   7.477   8.109  0.2597  0.4998 -0.1391
16444SOL    HW151071   4.956   7.386   8.105  0.8616  0.7073 -0.4978
16444SOL    HW251072   4.929   7.508   8.019 -0.5771  0.6853 -0.1110
16445SOL     OW51073   9.233   5.451   3.740  0.3082  0.4084  0.3519
16445SOL    HW151074   9.293   5.452   3.814 -0.0883  3.6714  0.7742
16445SOL    HW251075   9.285   5.482   3.666  0.3988 -1.7119 -0.5317
16446SOL     OW51076   7.767   4.465   6.427 -0.0059 -0.9765  0.9917
16446SOL    HW151077   7.832   4.533   6.445 -0.0841 -1.4679  3.3875
16446SOL    HW251078   7.704   4.507   6.368  2.2436 -0.3905 -1.1343
16447SOL     OW51079   2.072   5.395   6.021 -0.5117  0.2520  0.3032
16447SOL    HW151080   1.981   5.415   6.000 -0.4949 -0.1368 -0.1503
16447SOL    HW251081   2.067   5.329   6.090 -0.5920 -0.7366 -0.6222
16448SOL     OW51082   6.716   3.245   3.393 -0.4312  0.5524 -0.5767
16448SOL    HW151083   6.783   3.227   3.459  1.8272 -1.9796 -3.2773
16448SOL    HW251084   6.713   3.341   3.387  2.8403  0.8058 -0.1102
16449SOL     OW51085   5.062   7.322   2.174 -0.1254  0.1139  0.1280
16449SOL    HW151086   5.139   7.334   2.118  0.0736  1.3428  0.6263
16449SOL    HW251087   5.068   7.232   2.205  0.7144 -0.0273 -0.4150
16450SOL     OW51088   0.200   4.378   5.764  0.3405 -0.3096 -0.3479
16450SOL    HW151089   0.112   4.354   5.736 -0.6467  0.4572  1.8372
16450SOL    HW251090   0.240   4.416   5.686 -0.2769 -3.0360 -2.1099
16451SOL     OW51091   5.903   3.827   9.036  0.4127 -1.0596  0.2948
16451SOL    HW151092   5.832   3.771   9.007 -0.3181  0.0629 -0.1489
16451SOL    HW251093   5.884   3.912   8.996  1.3050 -0.4045  1.2229
16452SOL     OW51094   3.379   0.788   0.532  0.7355 -0.0255 -0.5104
16452SOL    HW151095   3.470   0.769   0.506  0.6879  0.0161 -0.7080
16452SOL    HW251096   3.381   0.787   0.628  0.5820 -1.8233 -0.4806
16453SOL     OW51097   1.091   8.958   4.046  0.2771 -0.2032 -0.2725
16453SOL    HW151098   1.112   8.895   3.977  0.3681 -0.2791 -0.1766
16453SOL    HW251099   1.008   8.996   4.020  0.5191  0.0781 -0.6476
16454SOL     OW51100   8.381   5.690   2.209  0.2491 -0.6195  0.1992
16454SOL    HW151101   8.438   5.619   2.181 -0.2007 -0.4330 -1.2887
16454SOL    HW251102   8.440   5.758   2.240  0.7169 -1.3291  0.8994
16455SOL     OW51103   1.589   0.999   7.811 -0.0323 -0.3350  0.2598
16455SOL    HW151104   1.557   1.050   7.886 -1.0831  0.6467 -0.8179
16455SOL    HW251105   1.639   0.927   7.851 -0.3494  0.2947  1.8858
16456SOL     OW51106   8.385   3.192   2.655  0.0853 -0.0652  0.1946
16456SOL    HW151107   8.351   3.130   2.590  0.0486  0.2431 -0.0797
16456SOL    HW251108   8.468   3.221   2.620  0.5701 -0.6847  0.7853
16457SOL     OW51109   7.581   1.758   6.582  0.2794  0.1935  0.2392
16457SOL    HW151110   7.550   1.697   6.515 -1.0098 -0.7716  1.6474
16457SOL    HW251111   7.651   1.807   6.539 -0.7601 -0.1084 -1.9203
16458SOL     OW51112   8.228   8.638   8.490  1.1691  0.4265 -0.1199
16458SOL    HW151113   8.323   8.634   8.503  1.4888  1.5642 -1.8280
16458SOL    HW251114   8.216   8.704   8.423 -0.6934 -1.1722 -1.4531
16459SOL     OW51115   4.472   2.530   0.409 -0.2790 -0.3809  0.3189
16459SOL    HW151116   4.385   2.526   0.449 -0.0626  0.6873  0.9420
16459SOL    HW251117   4.529   2.562   0.479  0.8751 -2.2255  0.2999
16460SOL     OW51118   8.229   8.217   7.409  0.2029  0.2630 -0.0638
16460SOL    HW151119   8.279   8.298   7.417  0.0299  0.3813 -0.1555
16460SOL    HW251120   8.191   8.221   7.321  0.6073 -0.1601 -0.2613
16461SOL     OW51121   4.331   1.471   7.702  0.1538  0.2151 -0.1911
16461SOL    HW151122   4.393   1.451   7.771  0.3593 -1.6451 -0.8814
16461SOL    HW251123   4.257   1.512   7.748  0.5317 -0.4475  1.0468
16462SOL     OW51124   4.317   0.417   5.267 -0.5618  0.2504  0.6307
16462SOL    HW151125   4.411   0.430   5.253 -0.5597  1.3078  1.4462
16462SOL    HW251126   4.312   0.349   5.333 -0.3345  0.6729  1.0915
16463SOL     OW51127   7.068   0.496   6.587  0.1607  0.5982  0.2271
16463SOL    HW151128   6.980   0.533   6.598  0.0994  0.5328 -0.0495
16463SOL    HW251129   7.120   0.538   6.656 -0.2580  0.0937  0.8612
16464SOL     OW51130   3.002   4.974   0.986  0.2650 -0.4771  0.3161
16464SOL    HW151131   3.086   5.011   1.011 -1.1199  0.8862  3.5003
16464SOL    HW251132   2.966   5.037   0.923  0.4667  0.4858  1.1334
16465SOL     OW51133   4.698   4.288   2.218 -0.5598 -0.1621  0.8513
16465SOL    HW151134   4.691   4.193   2.227  0.5852 -0.4510 -0.8806
16465SOL    HW251135   4.755   4.314   2.291  0.4881 -1.0565  0.3922
16466SOL     OW51136   1.897   1.443   8.649 -0.2728  0.6432 -0.2228
16466SOL    HW151137   1.983   1.457   8.688  0.0852  2.9388 -1.6511
16466SOL    HW251138   1.910   1.373   8.585  0.1487 -0.0672  0.6308
16467SOL     OW51139   1.293   6.816   4.043  0.6206  0.0334  0.4639
16467SOL    HW151140   1.375   6.812   3.993  1.4103  2.1483  1.4505
16467SOL    HW251141   1.287   6.908   4.070 -1.8138 -0.2075  0.8947
16468SOL     OW51142   1.665   3.424   8.466  0.9649  0.0886 -0.1618
16468SOL    HW151143   1.701   3.345   8.425 -2.7862 -2.0823  0.3275
16468SOL    HW251144   1.645   3.482   8.392  0.4527 -0.9701 -0.8885
16469SOL     OW51145   6.386   0.121   7.569  0.2315  0.6758 -0.1643
16469SOL    HW151146   6.326   0.191   7.541  0.7959  1.0157 -0.5552
16469SOL    HW251147   6.350   0.041   7.531  0.1029  0.9013 -0.5168
16470SOL     OW51148   6.348   1.656   4.442  0.0905 -0.3138  0.6162
16470SOL    HW151149   6.434   1.666   4.482 -0.7116  1.9213  1.9840
16470SOL    HW251150   6.301   1.595   4.500  0.4740 -0.8823  0.3333
16471SOL     OW51151   6.170   3.951   2.994  0.0477  0.2603  0.2430
16471SOL    HW151152   6.080   3.980   3.007  0.3517  0.7144  1.4966
16471SOL    HW251153   6.196   3.991   2.911 -0.0223  2.4520  1.1947
16472SOL     OW51154   6.758   9.252   1.765 -0.4295 -0.2051  0.2136
16472SOL    HW151155   6.684   9.210   1.808  1.2077 -0.9858  2.4198
16472SOL    HW251156   6.814   9.180   1.736  0.7664  0.3854  1.0038
16473SOL     OW51157   2.815   5.239   2.543 -0.2512 -0.4231 -0.5767
16473SOL    HW151158   2.734   5.289   2.552  0.5302  1.3057 -2.2997
16473SOL    HW251159   2.788   5.147   2.543 -1.8138 -0.0497  2.1298
16474SOL     OW51160   0.102   1.552   7.860 -0.3587 -0.6658  0.4456
16474SOL    HW151161   0.089   1.622   7.796  0.6481 -0.0262  0.9219
16474SOL    HW251162   0.164   1.588   7.923  1.9665 -2.7127 -0.4937
16475SOL     OW51163   4.861   1.699   0.293  0.6149 -0.3486  0.0589
16475SOL    HW151164   4.915   1.628   0.257 -1.1427 -1.9864  0.4890
16475SOL    HW251165   4.876   1.772   0.233  1.4610 -1.4901 -1.1966
16476SOL     OW51166   4.772   2.098   6.359 -0.1245 -0.7601  0.4148
16476SOL    HW151167   4.725   2.019   6.388  1.5439 -2.1274 -0.4552
16476SOL    HW251168   4.789   2.083   6.267  0.1732  0.6806  0.2202
16477SOL     OW51169   6.987   1.456   8.203  0.6095 -0.0468  0.1226
16477SOL    HW151170   6.933   1.486   8.275  1.6419 -1.2528  1.4663
16477SOL    HW251171   6.936   1.475   8.125 -2.2723 -2.0474  1.3351
16478SOL     OW51172   8.794   2.027   8.021 -0.2080 -0.1150 -0.0027
16478SOL    HW151173   8.795   2.080   8.101  0.2689  1.1230 -0.7984
16478SOL    HW251174   8.712   2.050   7.978 -1.1462 -1.8313  0.7667
16479SOL     OW51175   9.287   2.081   4.752  0.6245  0.6142 -0.0741
16479SOL    HW151176   9.319   2.019   4.817 -1.1788  0.7586  1.0492
16479SOL    HW251177   9.242   2.027   4.687  0.8012  0.6052 -0.1893
16480SOL     OW51178   2.361   1.456   7.064  0.2484 -0.4132  0.4850
16480SOL    HW151179   2.363   1.372   7.109 -2.9284 -0.7419  0.1868
16480SOL    HW251180   2.291   1.448   7.000 -0.5229  2.6407  0.7907
16481SOL     OW51181   7.368   7.920   2.432  0.0830 -0.0439 -0.2735
16481SOL    HW151182   7.317   7.844   2.461  0.3727 -0.5057 -0.9378
16481SOL    HW251183   7.412   7.951   2.511 -0.0766 -0.5492  0.0177
16482SOL     OW51184   2.338   3.871   0.337  0.1095  0.2094  0.6724
16482SOL    HW151185   2.314   3.932   0.407 -1.8171  1.1748 -0.7392
16482SOL    HW251186   2.303   3.787   0.365  1.5930 -0.0258  1.9968
16483SOL     OW51187   8.934   5.789   7.038  0.1456 -0.1571 -0.5228
16483SOL    HW151188   8.971   5.709   7.075  0.6490  0.2631 -0.1156
16483SOL    HW251189   8.854   5.759   6.994  0.3185 -0.8816 -0.3651
16484SOL     OW51190   4.396   2.447   1.932  0.3492  0.1123  0.1114
16484SOL    HW151191   4.487   2.453   1.903  0.0143 -1.4678 -1.5004
16484SOL    HW251192   4.400   2.393   2.011  0.6580 -2.4704 -1.5208
16485SOL     OW51193   2.573   2.146   2.757  0.3637  0.1814  0.3227
16485SOL    HW151194   2.480   2.136   2.774  0.1503  2.0881  0.4650
16485SOL    HW251195   2.597   2.067   2.708 -1.4945  0.0432 -0.4407
16486SOL     OW51196   1.223   8.964   3.683  0.6469 -0.6641 -0.4910
16486SOL    HW151197   1.135   8.966   3.721  0.3508 -0.6198 -1.1598
16486SOL    HW251198   1.225   9.039   3.623  1.6858  0.2817  0.6852
16487SOL     OW51199   9.109   3.982   6.114 -0.1080 -0.0382  0.3633
16487SOL    HW151200   9.046   4.021   6.054 -0.7406  0.2510  1.1859
16487SOL    HW251201   9.065   3.903   6.146  0.4907 -0.5424 -0.0466
16488SOL     OW51202   8.353   2.255   1.429  0.8761 -0.6168 -0.2081
16488SOL    HW151203   8.289   2.238   1.359  0.2185 -1.7997  0.6431
16488SOL    HW251204   8.310   2.223   1.508  1.2137  1.5748  0.9213
16489SOL     OW51205   6.894   2.053   8.482 -0.5555  0.1680  0.2729
16489SOL    HW151206   6.799   2.049   8.472 -0.7102 -1.0354  1.8089
16489SOL    HW251207   6.915   1.981   8.542  1.1231  1.4658  1.3465
16490SOL     OW51208   2.565   7.209   7.549 -0.3798 -0.0870 -0.2818
16490SOL    HW151209   2.547   7.248   7.463  2.0070 -1.0834 -1.3292
16490SOL    HW251210   2.620   7.133   7.529  1.2933  0.3657  2.2050
16491SOL     OW51211   1.383   4.076   7.762  0.6337  0.1084  0.8179
16491SOL    HW151212   1.302   4.101   7.807 -0.9243 -0.9221 -1.2295
16491SOL    HW251213   1.410   4.156   7.717  0.3217  0.2704  0.9126
16492SOL     OW51214   0.037   2.227   8.212 -0.1663  0.4774 -0.5309
16492SOL    HW151215  -0.039   2.279   8.186  0.0107  1.0034 -0.0256
16492SOL    HW251216   0.006   2.172   8.284 -0.0412  0.7868 -0.2369
16493SOL     OW51217   0.486   9.239   9.008 -0.0965 -0.4966  0.3368
16493SOL    HW151218   0.558   9.293   8.974  1.5968 -1.6783  1.7918
16493SOL    HW251219   0.485   9.162   8.952 -0.9123 -0.0383 -0.2876
16494SOL     OW51220   7.363   2.595   9.488  0.3854 -0.2231 -0.0665
16494SOL    HW151221   7.299   2.540   9.443 -0.0176 -0.6983  1.0403
16494SOL    HW251222   7.410   2.640   9.418 -2.0096  1.1288 -0.9017
16495SOL     OW51223   2.792   8.032   9.317 -0.4744  0.1437 -0.0904
16495SOL    HW151224   2.812   8.098   9.383 -0.2740 -0.6652  0.6856
16495SOL    HW251225   2.871   8.027   9.264 -0.6127  0.7560 -0.3613
16496SOL     OW51226   0.921   5.589   5.249  0.1015  0.0135 -0.3222
16496SOL    HW151227   0.925   5.495   5.229 -3.1980  0.2783 -3.2676
16496SOL    HW251228   0.906   5.593   5.343  1.2454 -2.3023  0.0400
16497SOL     OW51229   3.319   7.479   9.591  0.2523  0.2395 -0.1972
16497SOL    HW151230   3.331   7.567   9.626  0.2458 -0.0888  0.6583
16497SOL    HW251231   3.296   7.426   9.667  0.7729 -0.6058 -0.6068
16498SOL     OW51232   8.310   8.638   2.141 -0.1546  0.0228 -0.0720
16498SOL    HW151233   8.315   8.622   2.047  0.3817  0.1236 -0.0629
16498SOL    HW251234   8.261   8.720   2.149  2.4532  1.7390 -0.4506
16499SOL     OW51235   3.193   8.648   2.528  0.1204 -0.4395  0.0943
16499SOL    HW151236   3.254   8.712   2.493 -1.8728  2.1770  1.0893
16499SOL    HW251237   3.107   8.677   2.498 -0.9870 -2.0076  1.5046
16500SOL     OW51238   7.674   6.577   8.425  0.1711  0.4834  0.1017
16500SOL    HW151239   7.617   6.511   8.386 -1.8178  1.2863  1.4808
16500SOL    HW251240   7.762   6.547   8.406 -0.6307 -2.7899  0.9824
16501SOL     OW51241   4.501   4.550   6.294  0.6411 -0.2853  0.0956
16501SOL    HW151242   4.512   4.459   6.264  0.2050 -0.1311 -0.5616
16501SOL    HW251243   4.587   4.575   6.326  1.1118 -0.5110 -0.9322
16502SOL     OW51244   1.770   4.569   5.488  0.2471  0.0414 -0.1017
16502SOL    HW151245   1.697   4.567   5.550  1.5666 -1.0971  1.5047
16502SOL    HW251246   1.841   4.612   5.536  1.0930 -0.2125 -1.0902
16503SOL     OW51247   3.309   8.093   3.082  0.6239  0.2627  0.0238
16503SOL    HW151248   3.355   8.128   3.005 -0.9236  1.7153 -0.3067
16503SOL    HW251249   3.246   8.161   3.104 -0.6433 -1.2111  1.0923
16504SOL     OW51250   2.668   4.264   1.523  0.3144 -0.2578 -0.5593
16504SOL    HW151251   2.603   4.307   1.578  1.3202 -0.8405  1.1330
16504SOL    HW251252   2.700   4.333   1.465 -2.7056 -0.2225 -2.4414
16505SOL     OW51253   1.276   0.936   3.286  0.3748 -0.1815  0.3557
16505SOL    HW151254   1.353   0.924   3.341 -0.3773  2.4321  2.2070
16505SOL    HW251255   1.241   1.021   3.312 -1.3322  0.2170 -2.6899
16506SOL     OW51256   9.504   4.568   4.826  0.0186 -0.4787  0.2238
16506SOL    HW151257   9.425   4.585   4.774 -0.1425  1.0792  0.9080
16506SOL    HW251258   9.513   4.646   4.880  0.0981 -2.0934  2.6715
16507SOL     OW51259   1.999   2.313   0.204 -0.4020 -0.0956 -0.2894
16507SOL    HW151260   1.953   2.376   0.259  0.4289 -0.1353  0.4697
16507SOL    HW251261   2.089   2.316   0.235 -0.0660 -0.6372 -1.1867
16508SOL     OW51262   1.907   2.989   5.141  0.3286  0.5756  0.1784
16508SOL    HW151263   1.858   3.027   5.213  1.1499  0.2815  0.9172
16508SOL    HW251264   1.995   2.974   5.177  0.9226  0.9337 -1.0421
16509SOL     OW51265   0.952   5.541   8.740  0.7394  0.0110  0.0866
16509SOL    HW151266   1.003   5.483   8.682  0.8076 -0.3861  0.5419
16509SOL    HW251267   0.876   5.489   8.765 -0.3385  0.8766 -1.2268
16510SOL     OW51268   9.579   2.297   1.640 -0.0787  0.2417  0.2640
16510SOL    HW151269   9.580   2.201   1.630  1.3587  0.2245  0.3180
16510SOL    HW251270   9.541   2.328   1.558 -1.0328 -0.3903  0.4524
16511SOL     OW51271   4.817   6.236   0.938  0.4496 -0.3259 -0.2479
16511SOL    HW151272   4.793   6.303   0.873  0.4237 -0.7442 -0.6762
16511SOL    HW251273   4.801   6.153   0.893 -1.5033 -0.6651  0.9580
16512SOL     OW51274   5.156   0.317   8.067 -0.1093  0.2011 -0.1737
16512SOL    HW151275   5.085   0.302   8.005 -1.1770  0.5342  0.9402
16512SOL    HW251276   5.208   0.236   8.063 -0.4950 -0.0173 -1.0477
16513SOL     OW51277   1.301   6.261   1.052 -0.3496  0.0282  0.0128
16513SOL    HW151278   1.383   6.300   1.023 -0.0620 -1.4814 -1.3132
16513SOL    HW251279   1.327   6.192   1.114 -0.3206 -2.2919 -2.4086
16514SOL     OW51280   3.939   0.120   7.881  0.1456 -0.0237 -0.0182
16514SOL    HW151281   3.869   0.081   7.829  0.2273 -0.0641 -0.0966
16514SOL    HW251282   3.896   0.145   7.963  0.0615 -0.1410 -0.0261
16515SOL     OW51283   2.310   7.726   8.530  0.6868 -0.2532  0.1259
16515SOL    HW151284   2.343   7.642   8.563 -0.2276 -1.2088 -1.2994
16515SOL    HW251285   2.352   7.737   8.445 -0.4637 -0.0732 -0.4313
16516SOL     OW51286   2.677   4.390   5.449 -0.2759 -0.2953 -0.2792
16516SOL    HW151287   2.617   4.441   5.502  0.5293  0.7076 -0.3052
16516SOL    HW251288   2.757   4.385   5.501 -1.2987 -4.5469  1.3627
16517SOL     OW51289   6.662   5.978   6.521 -0.0991 -0.0423 -0.1992
16517SOL    HW151290   6.691   5.899   6.566 -0.1699 -0.6517 -1.1933
16517SOL    HW251291   6.653   5.952   6.430 -3.5234  0.1786 -0.0399
16518SOL     OW51292   0.542   9.423   6.237  0.3164 -0.1861 -0.6401
16518SOL    HW151293   0.482   9.453   6.306 -0.7181  1.8288 -2.2789
16518SOL    HW251294   0.559   9.332   6.258 -0.2810  0.2378  2.0254
16519SOL     OW51295   3.460   2.233   8.571  0.0660  0.5351  0.5684
16519SOL    HW151296   3.484   2.315   8.529 -1.5655  0.8496  0.1727
16519SOL    HW251297   3.485   2.244   8.663  0.5176  1.1924  0.3683
16520SOL     OW51298   3.457   4.288   3.656 -0.2925  0.5745  0.3790
16520SOL    HW151299   3.419   4.203   3.679 -0.9893  0.0084 -2.4385
16520SOL    HW251300   3.552   4.272   3.656 -0.3097  0.3551  1.6706
16521SOL     OW51301   0.479   5.959   7.301 -0.3756  0.2579  0.5864
16521SOL    HW151302   0.516   5.870   7.298  1.0264  0.7588  1.7332
16521SOL    HW251303   0.555   6.016   7.310 -1.2034  1.6668 -0.8406
16522SOL     OW51304   7.014   8.361   2.229  0.3012  0.0159  0.5079
16522SOL    HW151305   7.026   8.280   2.179  0.2417 -1.2637  2.4593
16522SOL    HW251306   7.032   8.430   2.166  2.5364 -1.5231 -0.7042
16523SOL     OW51307   3.824   8.946   0.967  0.4587 -0.8124  0.2598
16523SOL    HW151308   3.866   8.888   0.903  0.1058 -1.4945  0.6308
16523SOL    HW251309   3.737   8.908   0.980  0.0822  0.0288  0.2229
16524SOL     OW51310   7.298   2.342   7.293 -0.3966  0.0693 -0.0764
16524SOL    HW151311   7.312   2.349   7.388 -1.6392 -2.4230  0.3625
16524SOL    HW251312   7.210   2.375   7.279 -0.0202  0.9411 -0.4857
16525SOL     OW51313   1.573   7.133   2.412  0.4973  0.2682 -0.5795
16525SOL    HW151314   1.635   7.100   2.478  0.3263  0.1759 -0.4637
16525SOL    HW251315   1.507   7.064   2.405 -0.3357  0.9477  0.2894
16526SOL     OW51316   8.728   4.896   2.181 -0.1643  0.7371  0.3145
16526SOL    HW151317   8.782   4.839   2.235 -2.0098 -0.1195  1.3640
16526SOL    HW251318   8.647   4.846   2.168 -0.0425  1.1508 -2.7937
16527SOL     OW51319   5.623   9.262   1.045  0.3662 -0.4242 -0.0247
16527SOL    HW151320   5.664   9.321   0.982  0.8633 -1.1704 -0.4016
16527SOL    HW251321   5.560   9.212   0.994 -0.6946  0.3724  0.4618
16528SOL     OW51322   0.928   3.828   2.496  0.4086 -0.7926 -0.4125
16528SOL    HW151323   0.962   3.874   2.573  0.8199  0.0259 -1.0672
16528SOL    HW251324   0.976   3.865   2.423  0.4929 -2.0399 -1.0073
16529SOL     OW51325   8.274   5.538   7.224 -0.7255  0.2706 -0.3435
16529SOL    HW151326   8.219   5.576   7.156  0.9976 -0.2943 -2.1345
16529SOL    HW251327   8.361   5.574   7.208 -0.0564 -0.6690  0.9548
16530SOL     OW51328   8.885   3.708   8.765 -0.0640  0.2728  0.1365
16530SOL    HW151329   8.892   3.801   8.785 -1.7963  0.5751 -0.4736
16530SOL    HW251330   8.796   3.684   8.792 -0.1657 -0.8479 -1.0835
16531SOL     OW51331   6.875   8.795   4.762 -0.0014  0.3477 -0.0074
16531SOL    HW151332   6.780   8.806   4.770 -0.0533  0.5200 -0.7977
16531SOL    HW251333   6.910   8.846   4.836 -0.5517 -0.8261  1.1144
16532SOL     OW51334   4.623   8.576   3.028 -0.5539  0.2497  0.4125
16532SOL    HW151335   4.692   8.555   2.966 -2.0132  0.3455 -1.3326
16532SOL    HW251336   4.660   8.645   3.084  0.5152  0.8026 -0.9422
16533SOL     OW51337   5.954   1.734   2.406 -0.0266 -0.2562  0.2342
16533SOL    HW151338   6.000   1.789   2.468 -0.0186  0.0060 -0.0002
16533SOL    HW251339   6.023   1.691   2.355 -0.0343 -0.2311  0.2021
16534SOL     OW51340   2.596   4.019   0.925  0.1669  0.8635 -0.7421
16534SOL    HW151341   2.591   4.021   1.021  1.8575 -0.1782 -0.5940
16534SOL    HW251342   2.687   3.996   0.906 -0.2956  0.4240 -2.6043
16535SOL     OW51343   0.852   6.379   8.795  0.3259 -0.2800 -0.3561
16535SOL    HW151344   0.776   6.410   8.744 -0.5047  0.1574  1.0855
16535SOL    HW251345   0.886   6.458   8.836 -0.5012 -0.9057  1.6563
16536SOL     OW51346   0.741   7.052   0.452 -0.3905  0.4412 -0.3673
16536SOL    HW151347   0.678   7.097   0.509 -1.9344 -2.2758  0.2793
16536SOL    HW251348   0.689   7.024   0.377  1.0105  1.5455 -1.7972
16537SOL     OW51349   1.372   5.667   0.563 -0.2979 -0.0993  0.6156
16537SOL    HW151350   1.447   5.678   0.622 -0.3466  0.3212  0.5998
16537SOL    HW251351   1.404   5.610   0.493 -0.5207 -1.4445  1.5591
16538SOL     OW51352   4.920   2.706   3.805  0.1816 -0.5187  0.1682
16538SOL    HW151353   4.859   2.642   3.766  0.2501 -1.3345  1.3483
16538SOL    HW251354   4.871   2.744   3.878  0.4467  0.1670 -0.0071
16539SOL     OW51355   2.488   5.738   8.789  0.2597  0.6706 -0.0688
16539SOL    HW151356   2.583   5.751   8.795  0.6705 -1.1982 -1.6816
16539SOL    HW251357   2.458   5.813   8.738  1.1354  0.4467 -0.9521
16540SOL     OW51358   5.319   6.594   7.181  0.3550  0.0966 -0.1008
16540SOL    HW151359   5.318   6.581   7.086  0.9500 -1.4786  0.0764
16540SOL    HW251360   5.240   6.550   7.212 -0.1906  1.1842  0.0885
16541SOL     OW51361   9.192   6.725   6.365 -0.1120  0.3541 -0.7747
16541SOL    HW151362   9.104   6.741   6.333 -0.3784 -0.2432 -0.3584
16541SOL    HW251363   9.224   6.652   6.312 -0.9547 -1.3673  0.9773
16542SOL     OW51364   0.122   2.159   3.929  0.4878 -0.1802 -0.2425
16542SOL    HW151365   0.064   2.091   3.895  0.2230 -0.1007  0.0356
16542SOL    HW251366   0.118   2.229   3.863  1.2920 -0.7081 -0.8539
16543SOL     OW51367   0.429   7.761   6.792 -0.0151 -0.5718  0.3427
16543SOL    HW151368   0.458   7.852   6.803 -0.4777 -0.2630 -0.8662
16543SOL    HW251369   0.366   7.748   6.863  2.9166 -1.2560  3.0351
16544SOL     OW51370   7.104   2.101   6.960  0.2037 -0.3056 -0.5303
16544SOL    HW151371   7.036   2.154   7.002  1.0999 -0.5964  1.4368
16544SOL    HW251372   7.081   2.011   6.980  0.3208 -0.4965 -1.2305
16545SOL     OW51373   0.488   6.027   7.016 -0.0975 -0.5020 -0.6333
16545SOL    HW151374   0.582   6.046   7.015  0.0856 -1.3485 -0.4286
16545SOL    HW251375   0.455   6.074   7.093  0.0460  0.2651 -1.0308
16546SOL     OW51376   0.421   8.097   6.720 -0.3992  0.1742 -0.2561
16546SOL    HW151377   0.362   8.156   6.672 -0.6240  0.1473 -0.0125
16546SOL    HW251378   0.437   8.025   6.660  0.7333  0.9925 -0.9836
16547SOL     OW51379   4.962   3.916   2.475  0.0585  0.5358  0.2293
16547SOL    HW151380   4.880   3.943   2.433 -0.2113 -1.2809 -0.5102
16547SOL    HW251381   5.023   3.906   2.402  0.1385 -0.7774  0.4494
16548SOL     OW51382   3.893   1.578   9.138  0.2843 -0.1937 -0.6101
16548SOL    HW151383   3.952   1.566   9.064 -0.0967 -3.1433 -0.5833
16548SOL    HW251384   3.806   1.571   9.100  0.0781 -3.0505  0.1264
16549SOL     OW51385   3.727   1.414   1.087 -0.1107  0.5170 -0.6326
16549SOL    HW151386   3.665   1.483   1.063  1.2167  2.0943  0.2650
16549SOL    HW251387   3.700   1.339   1.035 -2.8390  1.0863 -0.2141
16550SOL     OW51388   3.994   8.243   5.261  0.6834 -0.3031  0.3116
16550SOL    HW151389   3.939   8.165   5.256 -0.7227  0.7243 -0.9979
16550SOL    HW251390   4.084   8.208   5.267 -0.0283 -2.0170  2.5070
16551SOL     OW51391   8.716   1.102   6.593  0.5336 -0.0861 -0.2654
16551SOL    HW151392   8.745   1.070   6.679  1.0221  0.0223 -0.3871
16551SOL    HW251393   8.796   1.133   6.551  0.3019 -0.1840 -0.7836
16552SOL     OW51394   5.739   8.305   1.027  0.4613  0.3955 -0.0458
16552SOL    HW151395   5.667   8.261   0.983  0.1715  0.8368 -0.0179
16552SOL    HW251396   5.704   8.391   1.051  0.9208  0.5257  0.1759
16553SOL     OW51397   0.776   3.245   0.960  0.3243  0.0171  0.4344
16553SOL    HW151398   0.703   3.183   0.956  1.0224 -0.8736  1.1114
16553SOL    HW251399   0.734   3.330   0.971 -0.6181 -0.4660  0.6829
16554SOL     OW51400   0.444   7.573   4.739  0.0517  0.1768  0.1200
16554SOL    HW151401   0.491   7.581   4.655 -2.1940  1.0277 -1.1520
16554SOL    HW251402   0.465   7.485   4.770  0.7808 -0.2467 -1.4662
16555SOL     OW51403   1.004   2.897   0.047 -0.0407  0.4137  0.4654
16555SOL    HW151404   0.910   2.912   0.060 -0.3409 -1.2405  0.3515
16555SOL    HW251405   1.046   2.969   0.095 -1.3313  0.2079  1.9991
16556SOL     OW51406   8.380   3.444   5.142 -0.3962  0.1298 -0.0295
16556SOL    HW151407   8.399   3.363   5.190  0.6987  1.6607  2.2719
16556SOL    HW251408   8.319   3.492   5.198 -0.1767  1.3847 -0.8210
16557SOL     OW51409   6.160   6.620   3.188 -0.1425  0.0068 -0.1621
16557SOL    HW151410   6.113   6.649   3.266  0.0164 -1.2154  0.4088
16557SOL    HW251411   6.187   6.531   3.208  0.0502 -0.2692 -1.5586
16558SOL     OW51412   0.894   7.683   7.838 -0.6342  0.2634  0.0717
16558SOL    HW151413   0.964   7.624   7.865  1.5437  2.9556  0.6811
16558SOL    HW251414   0.859   7.719   7.920 -0.3799  1.4982 -0.3487
16559SOL     OW51415   3.059   2.699   9.494 -0.2233  0.3972  0.8690
16559SOL    HW151416   3.132   2.728   9.440 -0.7787  1.0560  0.4562
16559SOL    HW251417   3.096   2.630   9.549  0.1071 -1.0076 -1.0313
16560SOL     OW51418   1.311   7.234   6.858 -0.1359 -0.1807 -0.2203
16560SOL    HW151419   1.387   7.286   6.830  0.8238 -0.3091  1.9538
16560SOL    HW251420   1.348   7.150   6.885 -0.5955  0.5509  3.1692
16561SOL     OW51421   3.812   4.616   0.283  0.0072 -0.3318 -0.4233
16561SOL    HW151422   3.826   4.691   0.341 -0.1548  0.1350 -0.9756
16561SOL    HW251423   3.814   4.653   0.195  0.4190 -1.0598 -0.7274
16562SOL     OW51424   7.215   8.012   0.925  0.1091 -0.5841  0.4004
16562SOL    HW151425   7.291   8.069   0.923 -2.2100  2.7996  0.2832
16562SOL    HW251426   7.211   7.974   0.837  1.9343 -1.3549  0.6075
16563SOL     OW51427   1.953   4.826   2.999 -0.1383 -0.6637 -0.0011
16563SOL    HW151428   1.973   4.734   2.986 -0.8842 -0.6762 -1.2401
16563SOL    HW251429   2.036   4.866   3.024  0.3926 -1.5041 -0.3817
16564SOL     OW51430   6.889   5.370   2.809  0.6049 -0.8892 -0.6028
16564SOL    HW151431   6.936   5.313   2.870  0.0957 -1.6726 -0.9296
16564SOL    HW251432   6.796   5.359   2.832  0.5644  1.3302  0.6523
16565SOL     OW51433   5.885   4.202   1.965  0.2615 -0.6804  0.0260
16565SOL    HW151434   5.837   4.283   1.944  0.7286 -0.2699  0.5024
16565SOL    HW251435   5.861   4.142   1.895  0.3177  0.0415 -0.6349
16566SOL     OW51436   3.888   4.999   6.269 -0.2798  0.0736  0.2055
16566SOL    HW151437   3.948   4.964   6.335 -1.9516 -0.7900  1.3615
16566SOL    HW251438   3.943   5.051   6.211  1.1771  1.6274  2.7932
16567SOL     OW51439   3.835   9.499   3.250 -0.0392 -0.5865 -0.4589
16567SOL    HW151440   3.817   9.542   3.334  1.5102 -0.8728  0.0598
16567SOL    HW251441   3.908   9.549   3.213  0.2956 -1.3948 -0.9150
16568SOL     OW51442   4.573   7.849   7.198 -0.0375 -0.3578 -0.0980
16568SOL    HW151443   4.479   7.836   7.209 -0.3766 -0.8812 -2.8014
16568SOL    HW251444   4.609   7.760   7.195  0.4493 -0.1750  0.2035
16569SOL     OW51445   5.052   5.298   0.619  0.3451 -0.4190 -0.6838
16569SOL    HW151446   4.971   5.339   0.650 -0.1867 -1.4047 -0.7278
16569SOL    HW251447   5.027   5.208   0.600  1.6045 -0.9086 -0.0939
16570SOL     OW51448   0.718   9.103   3.871  0.5630  0.2645  0.0784
16570SOL    HW151449   0.647   9.156   3.908  0.8775  0.1782  0.8258
16570SOL    HW251450   0.692   9.089   3.780 -0.8544 -0.5658  0.5692
16571SOL     OW51451   4.905   0.647   5.768  0.5153  0.4061 -0.6229
16571SOL    HW151452   4.812   0.664   5.776  0.6034  0.2538  0.8766
16571SOL    HW251453   4.914   0.607   5.681 -0.7158  0.9921 -1.0411
16572SOL     OW51454   1.902   5.890   5.185 -0.8415 -0.1165  0.3171
16572SOL    HW151455   1.987   5.873   5.224 -0.9201 -1.6780 -0.0955
16572SOL    HW251456   1.916   5.876   5.091 -1.0289  1.9457 -0.0621
16573SOL     OW51457   2.206   6.837   8.050 -0.8588 -0.0316 -0.1844
16573SOL    HW151458   2.215   6.836   8.146  0.7881 -0.2855 -0.3149
16573SOL    HW251459   2.165   6.922   8.031 -3.5462 -0.9719  0.8732
16574SOL     OW51460   1.649   2.083   6.382  0.3153 -0.4386 -0.3664
16574SOL    HW151461   1.677   2.116   6.297  0.5779 -0.4492 -0.2863
16574SOL    HW251462   1.656   2.158   6.441  1.6281 -0.8080 -0.0260
16575SOL     OW51463   4.788   8.672   0.083  0.4293  0.6054 -0.3188
16575SOL    HW151464   4.746   8.635   0.006 -0.8693  0.3398  0.4858
16575SOL    HW251465   4.759   8.763   0.086  1.4836  0.9754 -0.8173
16576SOL     OW51466   0.911   5.037   8.393 -0.3703  0.5729 -0.6953
16576SOL    HW151467   0.901   5.112   8.452 -1.8688 -1.0200  1.2174
16576SOL    HW251468   1.005   5.021   8.389 -0.1019  1.9843 -0.4046
16577SOL     OW51469   0.648   3.382   2.313 -0.4502 -0.0150  0.1153
16577SOL    HW151470   0.558   3.392   2.342 -0.6115 -0.3183 -0.2626
16577SOL    HW251471   0.693   3.461   2.343 -0.8623  0.1760  0.2245
16578SOL     OW51472   6.790   3.037   0.343  0.0025 -0.1420  0.2403
16578SOL    HW151473   6.819   2.986   0.419  1.5379  0.0469 -0.1884
16578SOL    HW251474   6.813   2.984   0.267  0.6213  0.6856 -0.1722
16579SOL     OW51475   6.589   3.980   6.208  0.0702  0.3696 -0.0762
16579SOL    HW151476   6.628   3.893   6.209  0.0493  0.3520 -0.4652
16579SOL    HW251477   6.640   4.028   6.142  0.1468  0.6821  0.2059
16580SOL     OW51478   8.893   2.070   0.537 -0.8888  0.7519 -0.2599
16580SOL    HW151479   8.897   2.089   0.631  0.1547 -3.9216  0.8713
16580SOL    HW251480   8.966   2.118   0.499  0.5995  0.3225  1.9088
16581SOL     OW51481   4.108   5.554   8.142 -0.2115 -0.2100 -0.4723
16581SOL    HW151482   4.013   5.552   8.156 -0.2165  0.7441 -0.3184
16581SOL    HW251483   4.138   5.632   8.189  0.6062 -0.3336 -0.7718
16582SOL     OW51484   8.412   3.836   9.564 -0.2580  0.3483  0.3144
16582SOL    HW151485   8.448   3.884   9.489  1.0865  0.8649  1.2577
16582SOL    HW251486   8.412   3.899   9.636  1.1995 -0.9301  1.5001
16583SOL     OW51487   0.743   6.038   0.809  0.2052  0.1725 -0.1679
16583SOL    HW151488   0.712   6.121   0.775  2.3063  0.8248 -0.6319
16583SOL    HW251489   0.764   5.986   0.732 -1.4611 -1.0119  0.1007
16584SOL     OW51490   3.975   4.057   6.822  0.9761 -0.1723 -0.2989
16584SOL    HW151491   3.971   3.962   6.807  1.5438 -0.1855 -0.3838
16584SOL    HW251492   4.035   4.089   6.755 -0.0243  0.3975 -0.9430
16585SOL     OW51493   8.544   7.211   9.206  0.0393  0.0505  0.0605
16585SOL    HW151494   8.501   7.256   9.133  0.7048 -1.7122 -1.4977
16585SOL    HW251495   8.623   7.262   9.222 -1.0927  1.6178  0.9772
16586SOL     OW51496   9.456   2.358   2.904 -0.2501  0.5085 -0.3751
16586SOL    HW151497   9.526   2.336   2.965 -0.1192  1.2256 -0.2630
16586SOL    HW251498   9.475   2.447   2.876 -1.4984  0.9616  0.1776
16587SOL     OW51499   1.051   4.824   3.138  0.3330  0.2235  0.6146
16587SOL    HW151500   1.124   4.837   3.197  0.0011 -1.4679  1.4685
16587SOL    HW251501   1.085   4.765   3.071 -0.2247 -0.5832  1.0240
16588SOL     OW51502   7.829   1.308   2.276 -0.0065 -0.0994  0.1398
16588SOL    HW151503   7.836   1.403   2.273 -0.1835 -0.0076  1.8395
16588SOL    HW251504   7.896   1.277   2.216  1.9663  1.0687  1.6261
16589SOL     OW51505   7.223   4.636   3.814 -0.3409 -0.2144 -0.5683
16589SOL    HW151506   7.170   4.632   3.893 -1.2677 -1.3109 -1.2207
16589SOL    HW251507   7.301   4.585   3.834 -1.3995 -2.0378 -0.9414
16590SOL     OW51508   2.172   2.725   7.904 -0.0381  0.0667 -0.0108
16590SOL    HW151509   2.244   2.665   7.881 -0.1255 -0.4744  1.0726
16590SOL    HW251510   2.160   2.713   7.998 -1.8591 -0.1996 -0.2447
16591SOL     OW51511   8.907   4.006   7.778  0.3390 -0.2937  0.1966
16591SOL    HW151512   8.978   4.057   7.817  0.0681  0.9494 -0.8826
16591SOL    HW251513   8.834   4.067   7.770 -1.1454 -1.7168  1.8973
16592SOL     OW51514   8.485   4.306   4.938 -0.4197  0.7210 -0.6224
16592SOL    HW151515   8.412   4.263   4.894  0.2573 -0.6750 -0.4200
16592SOL    HW251516   8.557   4.304   4.874 -0.1513  0.8751 -0.3308
16593SOL     OW51517   7.640   3.141   3.380  0.5217  0.2458  0.0224
16593SOL    HW151518   7.621   3.127   3.287 -1.1628  1.1928  0.1814
16593SOL    HW251519   7.683   3.060   3.408 -0.0890 -0.5698 -1.2965
16594SOL     OW51520   8.578   2.208   2.425  0.7657  0.1603  0.2960
16594SOL    HW151521   8.601   2.251   2.507 -1.1395  1.5992  0.1202
16594SOL    HW251522   8.517   2.139   2.451 -1.9500  2.2795 -0.0532
16595SOL     OW51523   5.000   9.024   1.788  0.2416 -0.6057  0.7497
16595SOL    HW151524   5.052   8.974   1.851  0.4463 -0.5061  0.6583
16595SOL    HW251525   5.001   9.114   1.820 -1.4508 -0.9052  1.8058
16596SOL     OW51526   8.412   1.003   0.141  0.3566 -0.0047 -0.2592
16596SOL    HW151527   8.371   1.073   0.190  0.7871 -0.7859  1.3024
16596SOL    HW251528   8.501   0.997   0.178  0.7157 -0.5732 -1.1851
16597SOL     OW51529   2.219   4.029   8.409  0.0134 -0.2299  0.0254
16597SOL    HW151530   2.203   3.943   8.448 -0.5207  0.0506  0.4364
16597SOL    HW251531   2.285   4.069   8.466 -1.5775  0.6286  1.3642
16598SOL     OW51532   2.776   2.386   2.186 -0.0420  0.0167 -0.2036
16598SOL    HW151533   2.856   2.361   2.234  0.2022 -2.3253 -1.6632
16598SOL    HW251534   2.705   2.349   2.239  0.0620 -0.3885 -0.3385
16599SOL     OW51535   1.922   1.873   5.588  0.4402  0.4487  0.6587
16599SOL    HW151536   1.909   1.889   5.681  1.2610  1.7226  0.5805
16599SOL    HW251537   2.017   1.870   5.576  0.3646  1.1050 -0.2502
16600SOL     OW51538   4.939   7.986   1.292  0.0577 -0.0314  0.0828
16600SOL    HW151539   4.877   7.932   1.242  0.8207 -0.5051 -0.3779
16600SOL    HW251540   4.885   8.053   1.334 -0.8270 -0.7420  0.1041
16601SOL     OW51541   9.084   2.329   3.386  0.1368 -0.0215 -0.5586
16601SOL    HW151542   9.034   2.382   3.323  1.0445  0.9124 -0.5176
16601SOL    HW251543   9.079   2.378   3.468 -0.4285 -0.8686 -0.0727
16602SOL     OW51544   8.271   2.537   9.010  0.2409  0.2976 -0.6392
16602SOL    HW151545   8.195   2.553   9.065  0.3348  0.1497 -0.4639
16602SOL    HW251546   8.336   2.499   9.069 -0.5597 -2.3721 -1.3311
16603SOL     OW51547   5.507   4.644   2.225 -0.2372  0.3560  0.5739
16603SOL    HW151548   5.419   4.680   2.223 -0.6688 -0.6744  0.1531
16603SOL    HW251549   5.516   4.597   2.141  0.1317 -0.8403  1.2522
16604SOL     OW51550   3.049   1.313   2.703 -0.0267  0.4293 -0.1702
16604SOL    HW151551   2.984   1.259   2.659  1.0042  0.4523 -1.7715
16604SOL    HW251552   3.006   1.340   2.784 -1.6439 -0.3431 -0.7329
16605SOL     OW51553   4.408   0.275   2.417  0.0764  0.0886 -0.2832
16605SOL    HW151554   4.375   0.185   2.413 -1.2242  0.4047  1.9683
16605SOL    HW251555   4.332   0.330   2.403  0.2502  0.8146  1.3438
16606SOL     OW51556   3.650   3.192   5.013  0.5371 -0.3105 -0.1659
16606SOL    HW151557   3.727   3.228   5.057  1.0507 -0.6981 -0.7256
16606SOL    HW251558   3.594   3.161   5.084 -0.5265  2.6608  0.4301
16607SOL     OW51559   0.644   9.314   5.513  0.1025  0.0508  0.4694
16607SOL    HW151560   0.613   9.328   5.424  0.9978  0.5362  0.2214
16607SOL    HW251561   0.626   9.221   5.531 -0.3709  0.0340 -0.0910
16608SOL     OW51562   5.489   5.035   7.070 -0.3459  0.5611 -0.3182
16608SOL    HW151563   5.471   5.122   7.034  0.4421  0.6741 -0.4469
16608SOL    HW251564   5.411   5.014   7.122 -0.0266  1.8796  0.7343
16609SOL     OW51565   6.874   7.346   1.748 -0.4073  0.2111 -0.0028
16609SOL    HW151566   6.951   7.319   1.799 -0.0745 -0.9217 -1.0662
16609SOL    HW251567   6.826   7.405   1.807  0.9834  0.5077  0.8759
16610SOL     OW51568   2.661   5.628   5.683 -0.3326  0.5579  0.0124
16610SOL    HW151569   2.662   5.534   5.701  2.2708  0.7752  1.4312
16610SOL    HW251570   2.604   5.665   5.750  0.6311  0.2212  1.0345
16611SOL     OW51571   2.167   8.839   3.761  0.3883 -0.1471 -0.1698
16611SOL    HW151572   2.254   8.814   3.730 -0.3237 -0.4198 -2.1380
16611SOL    HW251573   2.121   8.868   3.681 -1.4462 -0.3886  0.7389
16612SOL     OW51574   4.553   5.613   9.203  0.3583 -0.0530 -0.3418
16612SOL    HW151575   4.585   5.626   9.293 -0.8103 -1.1359  0.2634
16612SOL    HW251576   4.617   5.554   9.163  0.9328  0.5047 -0.2628
16613SOL     OW51577   7.007   2.792   7.917 -0.7498 -0.1329 -0.3443
16613SOL    HW151578   7.075   2.764   7.979  1.2429 -0.5008 -2.5141
16613SOL    HW251579   7.055   2.844   7.852 -3.0086  1.5949 -0.7548
16614SOL     OW51580   5.467   8.406   5.657  0.5036 -0.1142 -0.1711
16614SOL    HW151581   5.550   8.375   5.694 -0.5438 -1.8432  0.8472
16614SOL    HW251582   5.401   8.380   5.721 -0.8007  1.7959 -0.6427
16615SOL     OW51583   2.243   7.524   7.595  0.1076  0.4692  0.1272
16615SOL    HW151584   2.183   7.505   7.668 -0.3778  0.2995 -0.3142
16615SOL    HW251585   2.315   7.572   7.636 -0.5518  1.0924  0.5856
16616SOL     OW51586   3.357   9.010   7.768 -0.0522 -0.0417 -0.1326
16616SOL    HW151587   3.371   9.104   7.773 -0.2555 -0.0615  0.9498
16616SOL    HW251588   3.262   9.001   7.761  0.0522 -0.1178 -2.0972
16617SOL     OW51589   7.471   4.157   7.205 -0.2145 -0.1038  0.1384
16617SOL    HW151590   7.520   4.080   7.233 -0.5393 -0.2887  0.1978
16617SOL    HW251591   7.443   4.137   7.116 -0.6052 -0.2042  0.2812
16618SOL     OW51592   2.538   5.188   0.219 -0.2761 -0.4818 -0.2572
16618SOL    HW151593   2.497   5.169   0.304  0.2013 -1.3120 -0.1983
16618SOL    HW251594   2.494   5.129   0.158 -2.0380  1.5044 -1.0239
16619SOL     OW51595   0.019   1.255   0.717 -0.7408 -0.1824 -0.4629
16619SOL    HW151596  -0.005   1.179   0.770  0.1222  0.2925  0.6633
16619SOL    HW251597  -0.032   1.327   0.754  1.0689  0.4943  0.8735
16620SOL     OW51598   5.969   7.853   2.935 -0.3565  0.5799 -0.0110
16620SOL    HW151599   5.936   7.777   2.983  1.6126 -1.0169 -1.0301
16620SOL    HW251600   5.948   7.928   2.991  0.5352 -1.0292  2.6467
16621SOL     OW51601   0.277   1.221   2.675 -0.7301 -0.6556  0.2216
16621SOL    HW151602   0.205   1.224   2.612 -1.6362 -2.7460  1.0642
16621SOL    HW251603   0.346   1.172   2.630  0.8657  2.6102 -1.1499
16622SOL     OW51604   9.305   4.111   4.927  0.3279 -0.6255 -0.6493
16622SOL    HW151605   9.354   4.168   4.868 -0.5522  2.0019  0.9848
16622SOL    HW251606   9.220   4.100   4.884 -0.8636  2.5215  0.6068
16623SOL     OW51607   3.192   8.776   0.957  0.1644 -0.6549  0.2311
16623SOL    HW151608   3.113   8.828   0.941  1.1881  1.2034  0.9898
16623SOL    HW251609   3.236   8.821   1.029  1.3995 -2.2764  0.5463
16624SOL     OW51610   4.450   0.057   2.791  0.6235  0.0643  0.0734
16624SOL    HW151611   4.436  -0.034   2.818  0.8448  0.4381  1.5768
16624SOL    HW251612   4.373   0.079   2.739  0.0529 -0.6658  0.5810
16625SOL     OW51613   9.283   2.549   8.042 -0.4389  0.0717  0.3461
16625SOL    HW151614   9.222   2.504   7.982  0.9859 -0.9971 -0.3646
16625SOL    HW251615   9.261   2.641   8.033 -1.2302 -0.1965 -0.7214
16626SOL     OW51616   3.849   9.223   3.180 -0.1173  0.0470  0.3583
16626SOL    HW151617   3.774   9.271   3.146  0.3503  0.1635 -0.5536
16626SOL    HW251618   3.852   9.245   3.273  0.6316  2.5589 -0.1805
16627SOL     OW51619   6.907   6.773   4.117  0.1461  0.6371  0.0948
16627SOL    HW151620   6.830   6.826   4.139 -0.6085 -0.5107  0.3442
16627SOL    HW251621   6.918   6.783   4.023 -0.6083  0.4411 -0.0193
16628SOL     OW51622   8.469   8.755   8.555  0.5797 -0.5524 -0.9469
16628SOL    HW151623   8.478   8.848   8.531 -0.7907 -0.7078 -2.2070
16628SOL    HW251624   8.554   8.717   8.536  0.8834  0.2685 -1.2888
16629SOL     OW51625   0.232   7.708   1.615 -0.4905 -0.4617 -0.2606
16629SOL    HW151626   0.304   7.723   1.554 -0.7107  1.1678 -0.1705
16629SOL    HW251627   0.275   7.677   1.695  0.1288  0.5075 -0.2036
16630SOL     OW51628   7.284   7.631   5.788  0.2372 -0.0070  0.3486
16630SOL    HW151629   7.292   7.722   5.814 -0.1594 -0.0320  0.5829
16630SOL    HW251630   7.265   7.585   5.870  1.2371 -0.4164  0.3670
16631SOL     OW51631   2.285   0.049   0.450 -0.3128 -0.1685  0.6776
16631SOL    HW151632   2.304  -0.019   0.387  1.1999  0.2852  0.6020
16631SOL    HW251633   2.209   0.095   0.414  0.1030 -0.3442 -0.4626
16632SOL     OW51634   4.225   6.860   9.343  0.5180  0.1317 -0.3800
16632SOL    HW151635   4.246   6.922   9.413  0.6652 -0.5359  0.1705
16632SOL    HW251636   4.258   6.903   9.264  2.1206  0.0446  0.1967
16633SOL     OW51637   4.389   6.993   5.413  0.1803  0.3189  0.4367
16633SOL    HW151638   4.317   7.029   5.362 -1.0401 -0.4560  1.5406
16633SOL    HW251639   4.392   6.900   5.389 -0.4788 -0.0817  1.8077
16634SOL     OW51640   3.040   6.265   6.148  0.0770  0.4889 -0.1310
16634SOL    HW151641   2.974   6.334   6.148  2.0581  2.6739  3.1901
16634SOL    HW251642   3.040   6.232   6.238  3.5723  0.8284  0.1352
16635SOL     OW51643   0.996   1.939   8.211 -0.0329 -0.0237  0.3781
16635SOL    HW151644   1.050   2.018   8.208  0.9760 -0.6321  1.5201
16635SOL    HW251645   1.030   1.889   8.285 -0.1790 -1.8513 -0.7061
16636SOL     OW51646   2.633   8.838   4.315 -0.2773 -0.4318 -0.2600
16636SOL    HW151647   2.697   8.791   4.260 -0.6350 -1.1809 -0.0460
16636SOL    HW251648   2.551   8.790   4.302 -0.3578 -0.6402  0.9667
16637SOL     OW51649   1.049   2.184   3.615  0.4752  0.3344 -1.0048
16637SOL    HW151650   1.067   2.112   3.554 -2.2514 -2.5226  1.2584
16637SOL    HW251651   0.963   2.216   3.589  0.3908  0.7886 -0.1915
16638SOL     OW51652   5.463   5.665   8.585 -0.2125 -0.0255  0.6178
16638SOL    HW151653   5.481   5.643   8.493  0.0126 -0.1474  0.6899
16638SOL    HW251654   5.405   5.595   8.615 -0.1294 -0.0920  0.6241
16639SOL     OW51655   0.131   4.047   2.135 -0.1180 -0.2147 -0.2694
16639SOL    HW151656   0.209   4.100   2.147  0.8476 -1.0940 -2.2209
16639SOL    HW251657   0.063   4.091   2.187  0.8573  2.3753 -1.0394
16640SOL     OW51658   9.508   7.362   2.736 -0.2717 -0.8380  0.3860
16640SOL    HW151659   9.542   7.451   2.738  0.2527 -0.9734 -1.1209
16640SOL    HW251660   9.574   7.309   2.780  1.0111 -0.9292 -1.5363
16641SOL     OW51661   4.662   7.490   0.545  0.0758 -0.0797  0.5167
16641SOL    HW151662   4.685   7.399   0.524 -0.3269  0.2620 -1.7107
16641SOL    HW251663   4.693   7.540   0.469 -0.9813  1.4396  1.0469
16642SOL     OW51664   7.945   0.762   1.802  0.5794 -0.0560 -0.2878
16642SOL    HW151665   7.858   0.802   1.796  1.0223  1.3128  1.4549
16642SOL    HW251666   7.928   0.671   1.827 -0.3779 -0.0428 -0.8678
16643SOL     OW51667   7.937   4.654   8.921  1.1184  0.5128  0.2193
16643SOL    HW151668   7.881   4.669   8.998  1.1581  1.2271  0.1134
16643SOL    HW251669   7.973   4.567   8.935 -1.6985 -0.9178 -0.7415
16644SOL     OW51670   6.358   2.216   0.406 -0.4709 -0.3725 -0.5377
16644SOL    HW151671   6.290   2.179   0.462 -0.0863  1.0754  0.9625
16644SOL    HW251672   6.421   2.256   0.467  2.4554 -2.6996 -1.7577
16645SOL     OW51673   1.005   8.142   2.185 -0.3011 -0.0395  0.3951
16645SOL    HW151674   1.030   8.176   2.099  0.6227  1.5625  1.2328
16645SOL    HW251675   1.069   8.074   2.204 -0.5916 -0.4929 -0.2307
16646SOL     OW51676   1.221   0.067   5.862  0.6440 -0.2833 -0.3050
16646SOL    HW151677   1.277   0.140   5.836  1.4393 -1.0271 -0.7236
16646SOL    HW251678   1.172   0.045   5.782 -0.1015  0.2138 -0.0024
16647SOL     OW51679   3.708   4.581   4.003  0.1713 -0.4117 -0.0564
16647SOL    HW151680   3.695   4.599   3.910 -0.0821  0.4666  0.1465
16647SOL    HW251681   3.656   4.502   4.019 -1.8008  0.8053 -0.1318
16648SOL     OW51682   6.379   7.479   7.591  0.5634  0.2883 -0.5721
16648SOL    HW151683   6.297   7.516   7.558  0.5959  0.4441 -0.4789
16648SOL    HW251684   6.428   7.554   7.623 -0.4255 -0.0708  1.9919
16649SOL     OW51685   9.207   7.844   6.200 -0.6805  0.0078 -0.2280
16649SOL    HW151686   9.255   7.788   6.140 -1.8903 -2.2614  0.8195
16649SOL    HW251687   9.257   7.841   6.282 -0.2167  1.3327 -0.4260
16650SOL     OW51688   6.819   5.228   1.399  0.3526 -0.2848  0.4590
16650SOL    HW151689   6.893   5.287   1.411  0.1594 -0.2683  1.8281
16650SOL    HW251690   6.743   5.279   1.428  0.2356 -1.3014  2.0630
16651SOL     OW51691   7.152   9.419   6.903 -0.2654 -0.4464 -0.2219
16651SOL    HW151692   7.180   9.376   6.822 -0.1332 -0.2584 -0.2784
16651SOL    HW251693   7.196   9.504   6.901 -0.1416 -0.4985  0.1189
16652SOL     OW51694   4.677   0.083   2.922 -0.1521  0.0911  0.3909
16652SOL    HW151695   4.658   0.037   3.004 -0.5592  0.4704  0.5172
16652SOL    HW251696   4.598   0.070   2.869  1.4975 -3.4332 -1.5245
16653SOL     OW51697   1.827   2.272   8.003  0.6039 -0.8628  0.1082
16653SOL    HW151698   1.750   2.231   8.042 -1.6490  2.3493 -0.6475
16653SOL    HW251699   1.849   2.343   8.063  0.7912  0.4159 -1.4178
16654SOL     OW51700   6.928   2.230   7.920  0.2320  0.0368 -0.2960
16654SOL    HW151701   6.835   2.249   7.932  0.7199  2.3210  0.2656
16654SOL    HW251702   6.959   2.204   8.006 -0.1536 -2.3085 -0.7979
16655SOL     OW51703   1.179   7.285   1.948 -0.2823 -0.5605  0.2363
16655SOL    HW151704   1.157   7.320   1.861  0.4809 -0.9619 -0.1242
16655SOL    HW251705   1.186   7.362   2.004  3.8543  0.2255 -1.0724
16656SOL     OW51706   9.185   7.822   0.210 -0.5244 -0.0219 -0.3191
16656SOL    HW151707   9.186   7.806   0.304 -1.3089 -0.2442 -0.3422
16656SOL    HW251708   9.181   7.734   0.171 -0.9939  0.0930 -0.5362
16657SOL     OW51709   8.599   1.648   3.958 -0.4444 -0.2752  0.0755
16657SOL    HW151710   8.680   1.597   3.964 -0.2671 -0.1113 -0.7483
16657SOL    HW251711   8.619   1.718   3.896 -0.8326  0.5255  0.8239
16658SOL     OW51712   1.977   0.180   4.631  0.4094  0.5289  0.6921
16658SOL    HW151713   2.051   0.162   4.573  0.2305 -0.4324  0.7357
16658SOL    HW251714   1.939   0.262   4.599  0.0941 -0.1628 -0.7785
16659SOL     OW51715   6.672   0.826   1.793  0.3298  0.5926  0.2893
16659SOL    HW151716   6.760   0.800   1.822  0.1640  0.6080  0.8073
16659SOL    HW251717   6.683   0.843   1.699  0.1332 -2.7646 -0.4580
16660SOL     OW51718   5.714   7.018   6.869  0.5949  0.0025 -0.4066
16660SOL    HW151719   5.660   7.030   6.791 -0.6191  0.7709  0.5208
16660SOL    HW251720   5.693   7.092   6.925  0.9549 -0.8639  0.9273
16661SOL     OW51721   9.308   2.001   7.116  0.8325  0.5452  0.0920
16661SOL    HW151722   9.296   2.070   7.181  0.6035  2.1740 -1.5662
16661SOL    HW251723   9.351   2.045   7.042 -1.0197 -0.5673 -1.7890
16662SOL     OW51724   1.918   2.229   2.856 -0.3801 -0.3646  0.0191
16662SOL    HW151725   1.987   2.291   2.878 -2.0044  1.4882  0.1698
16662SOL    HW251726   1.867   2.220   2.937  0.0708 -2.3161  0.1504
16663SOL     OW51727   5.481   6.405   6.100 -0.4596  0.3388 -0.3096
16663SOL    HW151728   5.427   6.380   6.024  2.3475 -0.9050 -2.0491
16663SOL    HW251729   5.488   6.325   6.152 -0.5303  0.5784  0.0713
16664SOL     OW51730   5.782   4.360   6.121 -0.2237 -0.1964 -0.0638
16664SOL    HW151731   5.777   4.275   6.077 -2.2746 -2.1779  3.4689
16664SOL    HW251732   5.723   4.417   6.072 -0.9281 -1.6614 -0.9935
16665SOL     OW51733   9.464   6.141   4.639  0.0779 -0.0170  0.0151
16665SOL    HW151734   9.559   6.149   4.633  0.0067  0.1532 -1.0195
16665SOL    HW251735   9.432   6.165   4.552 -0.8778 -0.5996  0.1888
16666SOL     OW51736   5.450   0.240   7.985  0.5032 -0.3319  0.3976
16666SOL    HW151737   5.384   0.172   7.995  0.7343 -0.2191  3.3608
16666SOL    HW251738   5.465   0.245   7.890 -1.7633 -2.1935 -0.1418
16667SOL     OW51739   4.520   2.660   1.745 -0.1279  0.1032  0.1319
16667SOL    HW151740   4.552   2.586   1.797 -1.0961 -0.9470 -0.6978
16667SOL    HW251741   4.435   2.681   1.784 -0.2621  0.1743 -0.1981
16668SOL     OW51742   9.161   9.155   1.562  0.0681  0.3032 -0.5023
16668SOL    HW151743   9.107   9.085   1.525 -0.0494 -0.3386  0.8334
16668SOL    HW251744   9.251   9.124   1.550  0.0192 -0.0570  0.0315
16669SOL     OW51745   2.203   2.131   7.604 -0.0153 -0.2082  0.3797
16669SOL    HW151746   2.278   2.151   7.660  0.0768 -1.3722  0.6929
16669SOL    HW251747   2.139   2.199   7.625  1.4127  1.6210 -0.8603
16670SOL     OW51748   0.371   5.548   0.162 -0.0631 -0.4119 -1.0931
16670SOL    HW151749   0.302   5.527   0.225 -0.2581 -0.6409 -1.3820
16670SOL    HW251750   0.382   5.643   0.169 -1.3453 -0.1771 -2.0014
16671SOL     OW51751   2.103   8.926   1.857  0.5890  0.6539  0.4116
16671SOL    HW151752   2.055   8.896   1.934 -1.1339  2.0135 -0.0678
16671SOL    HW251753   2.129   8.845   1.813 -1.6830 -0.2014  0.4699
16672SOL     OW51754   9.019   3.272   0.840  0.1499 -0.2082 -0.0789
16672SOL    HW151755   8.995   3.287   0.749  0.1265 -0.0575 -0.0485
16672SOL    HW251756   9.087   3.337   0.858 -0.5583  0.4365  0.3066
16673SOL     OW51757   0.116   6.939   8.157 -0.4869 -0.0938  0.0706
16673SOL    HW151758   0.167   6.896   8.226  0.9800  1.8781  0.3195
16673SOL    HW251759   0.028   6.946   8.193  0.0718  0.2180  1.4409
16674SOL     OW51760   5.050   2.854   0.836  0.6552 -0.2289  0.2907
16674SOL    HW151761   5.137   2.815   0.831  1.6396  1.9752 -1.2785
16674SOL    HW251762   5.064   2.940   0.877 -1.1686 -0.7245  2.1254
16675SOL     OW51763   0.638   2.820   7.103  0.8794 -0.4040 -0.4978
16675SOL    HW151764   0.635   2.814   7.007  0.5729  0.7149 -0.5801
16675SOL    HW251765   0.730   2.807   7.125  1.1459  0.4205 -1.0553
16676SOL     OW51766   4.429   0.869   7.276 -0.5442  0.0090 -0.3330
16676SOL    HW151767   4.499   0.896   7.336 -0.3637  1.0141 -0.9679
16676SOL    HW251768   4.357   0.929   7.295 -0.2928  0.7140 -1.4668
16677SOL     OW51769   5.145   7.361   3.556  0.5028 -0.1554 -0.1111
16677SOL    HW151770   5.110   7.296   3.495  0.2436 -1.3359  1.2401
16677SOL    HW251771   5.234   7.377   3.526 -0.1307  0.5105 -1.7247
16678SOL     OW51772   4.865   1.569   5.867 -0.1668 -0.2622 -0.3538
16678SOL    HW151773   4.958   1.565   5.845  0.4457 -1.1265  2.1421
16678SOL    HW251774   4.830   1.484   5.840  0.2269 -0.7109  0.5254
16679SOL     OW51775   6.703   7.943   3.444 -0.2195 -0.2773  0.1228
16679SOL    HW151776   6.709   7.853   3.476  0.7515 -0.5194 -0.6767
16679SOL    HW251777   6.632   7.940   3.380 -3.3070  0.5658  3.1973
16680SOL     OW51778   6.106   9.195   4.793 -0.2340 -0.2526  0.4601
16680SOL    HW151779   6.090   9.172   4.884 -0.2831  0.3723  0.6134
16680SOL    HW251780   6.026   9.167   4.747 -0.2753 -0.4227  0.6353
16681SOL     OW51781   7.347   5.202   5.982 -0.5675  0.3335  0.0599
16681SOL    HW151782   7.427   5.196   6.034  0.7343 -1.1897 -1.9565
16681SOL    HW251783   7.337   5.296   5.965  0.4265  0.6020  0.8461
16682SOL     OW51784   3.091   5.492   8.407  0.2799  0.3616 -0.9227
16682SOL    HW151785   3.019   5.535   8.361 -0.9967  1.6816  2.0275
16682SOL    HW251786   3.052   5.411   8.441  0.7394  0.1457 -0.9095
16683SOL     OW51787   0.298   8.263   1.304  0.2841 -0.0806  0.4974
16683SOL    HW151788   0.281   8.206   1.229 -0.1300  1.8318 -0.9162
16683SOL    HW251789   0.391   8.252   1.322  0.3243 -0.7891 -0.0862
16684SOL     OW51790   8.180   2.724   5.098  0.2609 -0.3725  0.0193
16684SOL    HW151791   8.104   2.759   5.052  0.0907 -0.6687  0.0745
16684SOL    HW251792   8.255   2.750   5.043  0.1367  0.0420  0.0399
16685SOL     OW51793   9.260   9.453   0.642  0.3948 -0.4518  0.7927
16685SOL    HW151794   9.208   9.525   0.678  1.1639  0.6656 -0.2444
16685SOL    HW251795   9.234   9.377   0.693 -1.9812  0.1247  0.5720
16686SOL     OW51796   4.115   6.794   1.275 -0.5491  0.7592 -0.2648
16686SOL    HW151797   4.142   6.886   1.283  0.5695  0.3441  1.0738
16686SOL    HW251798   4.196   6.744   1.285 -0.7452 -0.3682 -3.2380
16687SOL     OW51799   4.831   6.006   6.617 -0.1236  0.2263  0.0541
16687SOL    HW151800   4.897   6.061   6.576  0.6128 -1.0625 -0.5430
16687SOL    HW251801   4.830   5.926   6.565 -0.5400 -0.6838  1.4057
16688SOL     OW51802   3.006   5.720   2.625 -0.4163  0.1868 -0.4803
16688SOL    HW151803   2.953   5.649   2.662  0.7497 -0.2929  0.3371
16688SOL    HW251804   2.995   5.712   2.531 -1.2743 -0.3046 -0.3510
16689SOL     OW51805   7.176   2.049   8.551  0.1312 -0.4435 -0.2582
16689SOL    HW151806   7.090   2.069   8.513  0.5474  0.0623 -0.9481
16689SOL    HW251807   7.202   2.130   8.593  0.8465 -0.1786 -1.1786
16690SOL     OW51808   0.660   1.855   5.141 -1.1085  0.7622  0.0705
16690SOL    HW151809   0.713   1.870   5.219 -1.2616 -0.8885  0.5394
16690SOL    HW251810   0.593   1.793   5.169 -0.3029 -1.0231 -1.6655
16691SOL     OW51811   8.091   4.765   9.165  0.0696  0.1972 -0.0811
16691SOL    HW151812   8.148   4.825   9.214  1.2472  1.9447 -3.2749
16691SOL    HW251813   8.148   4.728   9.098 -1.6090 -1.5101 -0.6407
16692SOL     OW51814   7.354   5.983   1.519  0.6412 -0.2302  0.1597
16692SOL    HW151815   7.359   5.890   1.497  1.7384 -0.1251 -0.1415
16692SOL    HW251816   7.421   6.023   1.464 -0.8234  0.9708 -0.8149
16693SOL     OW51817   8.529   6.597   2.647  0.3337  0.5912  0.2390
16693SOL    HW151818   8.526   6.573   2.740 -1.1978 -0.2729  0.0133
16693SOL    HW251819   8.501   6.688   2.644  0.7633  0.7359  0.6606
16694SOL     OW51820   2.273   2.072   6.730 -0.1043  0.1009 -0.1661
16694SOL    HW151821   2.202   2.045   6.673  0.3818  1.5004 -1.5185
16694SOL    HW251822   2.237   2.147   6.779 -0.2768 -0.6220  0.8382
16695SOL     OW51823   6.633   4.209   2.894  0.0348  0.0803 -0.3407
16695SOL    HW151824   6.614   4.116   2.879  0.1096  0.1772 -1.0708
16695SOL    HW251825   6.720   4.222   2.856  0.2031  0.3525  0.1388
16696SOL     OW51826   1.028   1.919   5.115  0.3681  0.2543 -0.0215
16696SOL    HW151827   0.958   1.936   5.052  2.2110 -1.5427 -2.7744
16696SOL    HW251828   1.086   1.995   5.107  0.2803  0.3167 -0.0645
16697SOL     OW51829   8.754   3.421   9.577  0.2468  0.0012 -0.3213
16697SOL    HW151830   8.769   3.344   9.521  1.6669 -0.1158  0.1848
16697SOL    HW251831   8.668   3.453   9.550  0.5620 -0.4799 -2.0571
16698SOL     OW51832   7.633   4.120   5.473  0.0485  0.2091  0.0381
16698SOL    HW151833   7.584   4.157   5.399 -0.0940  0.7609  0.4039
16698SOL    HW251834   7.680   4.194   5.510  2.5741 -0.5983 -1.3452
16699SOL     OW51835   5.262   5.675   1.691 -0.0538  0.2626 -0.5642
16699SOL    HW151836   5.250   5.594   1.740  0.6611  1.7157  2.2302
16699SOL    HW251837   5.320   5.651   1.618 -0.3079 -1.8109 -0.1381
16700SOL     OW51838   5.522   5.287   3.234  0.2132  0.1213  0.1719
16700SOL    HW151839   5.430   5.268   3.217  0.1489  0.6343 -0.0576
16700SOL    HW251840   5.549   5.346   3.164  0.7233 -0.0375  0.2267
16701SOL     OW51841   0.495   5.999   8.042  0.2439 -0.5126  0.1841
16701SOL    HW151842   0.467   5.944   7.969  0.0851  0.8325 -0.8082
16701SOL    HW251843   0.426   6.065   8.051  1.8443  1.3968 -0.7383
16702SOL     OW51844   7.053   7.185   2.769  0.5455  0.2813 -0.3673
16702SOL    HW151845   7.108   7.117   2.731 -0.8454 -0.9766 -0.2401
16702SOL    HW251846   7.005   7.141   2.839 -1.4226  1.0069 -1.1829
16703SOL     OW51847   4.286   4.279   5.805 -0.1313 -0.1361 -0.6324
16703SOL    HW151848   4.256   4.270   5.896 -0.3114  0.1566 -0.6600
16703SOL    HW251849   4.377   4.306   5.813 -0.2130  0.1173 -0.5337
16704SOL     OW51850   6.924   0.241   6.600  0.7039 -0.4757  0.5488
16704SOL    HW151851   6.938   0.205   6.512  0.6686 -2.1574  1.2003
16704SOL    HW251852   6.980   0.319   6.602 -0.3095  0.3858 -1.3949
16705SOL     OW51853   7.105   5.586   8.907 -0.0923  0.0075  0.5071
16705SOL    HW151854   7.183   5.598   8.853  2.0847 -0.6131  3.2775
16705SOL    HW251855   7.082   5.494   8.896  0.1636 -0.0443  0.4023
16706SOL     OW51856   4.638   0.037   8.054 -0.2248  0.0651 -0.0276
16706SOL    HW151857   4.584  -0.042   8.054 -0.3240  0.1336  0.6096
16706SOL    HW251858   4.655   0.056   8.146 -1.2892  1.5250 -0.0793
16707SOL     OW51859   6.241   2.885   4.943  0.7791 -0.4105 -0.0947
16707SOL    HW151860   6.230   2.980   4.946  1.0363 -0.3667 -0.6443
16707SOL    HW251861   6.281   2.867   4.859  0.2088 -1.0634 -0.2379
16708SOL     OW51862   8.842   6.987   7.251  0.0185 -0.7121 -0.3863
16708SOL    HW151863   8.817   7.075   7.281 -1.2485 -1.1765 -0.0218
16708SOL    HW251864   8.902   6.955   7.318 -0.8300 -0.7639  0.3662
16709SOL     OW51865   5.220   2.691   3.312  0.8063 -0.0039  0.2490
16709SOL    HW151866   5.144   2.678   3.255  2.0143  2.6296 -2.2323
16709SOL    HW251867   5.285   2.629   3.279  0.4579 -0.7992  1.0120
16710SOL     OW51868   2.932   3.018   1.016 -0.1710 -1.0077 -0.0522
16710SOL    HW151869   2.996   3.060   0.958  0.2734 -2.1453 -0.4290
16710SOL    HW251870   2.985   2.979   1.086 -0.6695  0.0147  0.9332
16711SOL     OW51871   0.239   5.342   2.578 -0.2733  1.0803 -0.2070
16711SOL    HW151872   0.150   5.355   2.611 -0.4508  0.2065 -0.3115
16711SOL    HW251873   0.228   5.289   2.499  0.4239 -0.1360  0.4857
16712SOL     OW51874   0.231   9.444   9.584 -0.0241 -0.5403 -0.1096
16712SOL    HW151875   0.199   9.404   9.503 -1.2925 -1.0079  0.5882
16712SOL    HW251876   0.172   9.518   9.599 -0.2924 -0.9143  0.7692
16713SOL     OW51877   7.484   0.062   1.472  0.1373  0.0354  0.5245
16713SOL    HW151878   7.431   0.067   1.392  1.2956 -0.5124 -0.3028
16713SOL    HW251879   7.511  -0.029   1.478 -0.5787 -0.0999  1.9926
16714SOL     OW51880   0.524   4.521   6.830 -0.0008  0.2373 -0.0880
16714SOL    HW151881   0.615   4.545   6.846  0.2477 -0.5490 -0.3069
16714SOL    HW251882   0.504   4.557   6.744  0.1119  0.3915 -0.0496
16715SOL     OW51883   0.850   5.280   3.572 -0.0602  0.3788 -0.8731
16715SOL    HW151884   0.759   5.266   3.545 -1.1003  2.9871  0.7325
16715SOL    HW251885   0.850   5.257   3.665  0.3768  2.0798 -0.4089
16716SOL     OW51886   5.591   8.165   6.133  0.4292 -0.6990  0.2546
16716SOL    HW151887   5.510   8.178   6.183 -0.0178  0.2403 -0.6745
16716SOL    HW251888   5.607   8.249   6.091  0.9793 -1.3578 -0.9085
16717SOL     OW51889   3.686   0.706   4.463 -0.1041  0.2935 -0.2572
16717SOL    HW151890   3.635   0.784   4.485  0.0690  0.3098  0.1044
16717SOL    HW251891   3.675   0.696   4.369 -1.7599 -0.3936 -0.0320
16718SOL     OW51892   0.986   8.283   4.386 -0.1642  0.5097 -0.1977
16718SOL    HW151893   0.970   8.357   4.445 -0.3963 -1.2381  2.0643
16718SOL    HW251894   0.911   8.226   4.399 -0.0619 -0.0744 -2.0232
16719SOL     OW51895   4.841   8.790   9.221  0.3301  0.1231 -0.2270
16719SOL    HW151896   4.750   8.761   9.227  0.6079 -0.8716 -0.5247
16719SOL    HW251897   4.864   8.817   9.310  0.9495 -3.5569  0.9098
16720SOL     OW51898   1.241   1.625   9.396 -0.2123  0.6083  0.1474
16720SOL    HW151899   1.221   1.708   9.353  0.8887  2.5297  3.0207
16720SOL    HW251900   1.337   1.624   9.401 -0.2018 -0.8904  0.1511
16721SOL     OW51901   0.207   5.712   4.006  0.2449  0.6373  0.5051
16721SOL    HW151902   0.160   5.691   4.087  1.0417  1.6377  1.2622
16721SOL    HW251903   0.280   5.767   4.034 -0.2980  2.2780 -1.0291
16722SOL     OW51904   8.738   1.333   6.766 -0.3149  0.1149  0.1635
16722SOL    HW151905   8.831   1.344   6.746 -0.2087  0.4188  0.7991
16722SOL    HW251906   8.736   1.274   6.841 -0.8122 -3.0070 -2.0933
16723SOL     OW51907   3.891   9.181   0.805 -0.1345 -0.2481 -0.6907
16723SOL    HW151908   3.929   9.137   0.728 -1.3881  0.6058 -1.8318
16723SOL    HW251909   3.890   9.113   0.873 -0.6884 -1.5775 -1.9721
16724SOL     OW51910   3.251   7.956   6.353  0.5644  0.4090 -0.0744
16724SOL    HW151911   3.176   8.015   6.347  0.8793  0.7449 -0.8775
16724SOL    HW251912   3.212   7.870   6.368 -0.0044  0.5371 -0.7272
16725SOL     OW51913   1.264   5.992   6.441  0.0043 -0.2599  0.5740
16725SOL    HW151914   1.349   5.980   6.482 -0.7955 -2.5485  1.7482
16725SOL    HW251915   1.223   6.063   6.491  1.2402  1.0000 -0.1362
16726SOL     OW51916   9.445   4.524   2.671 -0.2663  0.1123  0.2792
16726SOL    HW151917   9.489   4.439   2.672 -2.3969 -1.0976 -1.2907
16726SOL    HW251918   9.491   4.575   2.604  1.6053  0.6254  1.8527
16727SOL     OW51919   2.355   2.600   0.039  0.0724 -0.4509 -0.6602
16727SOL    HW151920   2.300   2.678   0.046 -1.7090 -1.6988 -0.0829
16727SOL    HW251921   2.437   2.632  -0.000 -0.1567  1.8887  0.6004
16728SOL     OW51922   8.361   0.533   4.615 -0.5009  0.1951 -0.4444
16728SOL    HW151923   8.388   0.613   4.571  0.6576  2.1090  3.2844
16728SOL    HW251924   8.265   0.534   4.612 -0.4756  1.3142 -1.1164
16729SOL     OW51925   0.205   5.953   0.006  0.1041 -0.3872  0.0452
16729SOL    HW151926   0.202   5.975   0.099  0.7501 -1.0288  0.2224
16729SOL    HW251927   0.179   6.034  -0.038 -2.0117 -0.5569  0.8296
16730SOL     OW51928   5.757   3.815   6.504 -0.2885  0.5901  0.3573
16730SOL    HW151929   5.795   3.901   6.486  1.3845 -0.2834 -0.5027
16730SOL    HW251930   5.775   3.800   6.597  0.7559  0.5568  0.1633
16731SOL     OW51931   8.206   7.541   0.692  0.1742  0.0361 -0.6394
16731SOL    HW151932   8.277   7.595   0.726  0.5700 -0.5673 -0.4828
16731SOL    HW251933   8.237   7.515   0.604 -0.1114  0.2467 -0.8022
16732SOL     OW51934   2.998   8.605   4.728 -0.8028 -0.0042  0.0960
16732SOL    HW151935   3.026   8.697   4.728 -0.2086 -0.0883  3.1692
16732SOL    HW251936   2.904   8.609   4.747 -0.9575 -0.0379 -0.6242
16733SOL     OW51937   2.104   6.899   6.571  0.2730  0.5203 -0.1425
16733SOL    HW151938   2.071   6.951   6.497  0.7539  0.6954 -0.2399
16733SOL    HW251939   2.049   6.821   6.573  0.6273  0.2413 -1.0482
16734SOL     OW51940   0.547   2.557   6.578  0.0138 -0.1036 -0.4894
16734SOL    HW151941   0.622   2.604   6.540  0.0807 -1.3304 -1.9778
16734SOL    HW251942   0.473   2.580   6.522 -0.7713  1.1246  0.9929
16735SOL     OW51943   3.270   7.843   9.410 -1.0086 -0.8011 -0.5917
16735SOL    HW151944   3.241   7.761   9.450 -2.5989 -0.0380 -0.1030
16735SOL    HW251945   3.288   7.901   9.484  1.2838 -1.0397 -0.8950
16736SOL     OW51946   6.697   4.944   3.122  0.5800  0.0650 -0.4122
16736SOL    HW151947   6.654   4.895   3.192  2.6173 -0.0332  0.8776
16736SOL    HW251948   6.693   4.885   3.046 -2.1272  0.3892 -0.5965
16737SOL     OW51949   9.523   0.993   4.155  0.1810  0.4241  0.4542
16737SOL    HW151950   9.443   0.940   4.149 -0.1122  0.8638  0.4660
16737SOL    HW251951   9.492   1.083   4.165  0.6791  0.6090  0.3595
16738SOL     OW51952   2.042   2.778   4.961 -0.3482  0.0901  0.3393
16738SOL    HW151953   2.036   2.698   5.014  1.0144  1.0660  2.0916
16738SOL    HW251954   1.996   2.844   5.013 -0.4989  0.7022 -0.5513
16739SOL     OW51955   0.941   3.294   5.586 -0.5919 -0.0302  0.0446
16739SOL    HW151956   0.980   3.381   5.585  0.4415 -0.4549  0.6798
16739SOL    HW251957   0.924   3.276   5.679  0.9368 -1.2098  0.1412
16740SOL     OW51958   7.282   3.169   1.015  0.2308 -0.0361  0.8545
16740SOL    HW151959   7.197   3.175   0.972 -0.2034  0.7319  1.7761
16740SOL    HW251960   7.327   3.250   0.989  0.1657  0.1826  1.4092
16741SOL     OW51961   6.248   1.314   0.480  0.1928  0.5579  0.1256
16741SOL    HW151962   6.196   1.280   0.553 -0.9582 -1.7669 -1.6507
16741SOL    HW251963   6.300   1.385   0.518 -0.9905  0.0150  2.9700
16742SOL     OW51964   1.452   6.930   1.177 -0.1876  0.1419 -0.5299
16742SOL    HW151965   1.473   6.912   1.085 -1.5950 -0.7391 -0.7117
16742SOL    HW251966   1.378   6.989   1.173  0.5210  1.0987  0.0711
16743SOL     OW51967   7.622   8.515   1.798 -0.6763 -0.0289  0.1344
16743SOL    HW151968   7.558   8.465   1.850  0.3051 -0.1314  1.2941
16743SOL    HW251969   7.704   8.466   1.808  0.0075  1.1143  0.2437
16744SOL     OW51970   1.518   9.459   1.712  0.2242 -0.6218 -0.0050
16744SOL    HW151971   1.506   9.383   1.769 -0.0414  0.8971  2.0975
16744SOL    HW251972   1.449   9.451   1.646 -0.0061 -2.0034  0.3714
16745SOL     OW51973   8.811   1.802   3.291  0.4830 -0.0469  0.0878
16745SOL    HW151974   8.789   1.796   3.199 -0.9894 -1.0345  0.4702
16745SOL    HW251975   8.726   1.809   3.336  1.0820 -1.1468  1.4628
16746SOL     OW51976   6.894   2.150   5.871 -0.5308 -0.4370 -0.0226
16746SOL    HW151977   6.949   2.185   5.941 -0.8876 -0.0407  0.0665
16746SOL    HW251978   6.888   2.056   5.890 -0.9945 -0.2648  0.7439
16747SOL     OW51979   4.089   5.548   7.843 -0.3164  0.3373  0.1427
16747SOL    HW151980   4.100   5.511   7.755  0.9016  0.0701  0.3920
16747SOL    HW251981   3.997   5.534   7.863 -0.1794 -1.4318 -0.2899
16748SOL     OW51982   6.012   5.878   2.603  0.1417  0.3768  0.4631
16748SOL    HW151983   6.023   5.937   2.529  0.5143  0.0801  0.2758
16748SOL    HW251984   5.974   5.933   2.672  0.1586  0.7491  0.1809
16749SOL     OW51985   7.220   6.072   4.163 -0.4892 -0.0571 -0.0989
16749SOL    HW151986   7.258   5.999   4.214  0.0781 -1.1636 -2.0111
16749SOL    HW251987   7.291   6.136   4.157 -0.3962 -0.1402  0.0911
16750SOL     OW51988   5.926   6.566   4.689  0.5308  0.1239  0.1803
16750SOL    HW151989   5.909   6.488   4.636  1.4262  0.6383 -0.8937
16750SOL    HW251990   5.987   6.617   4.637  1.2335  0.7774  1.6091
16751SOL     OW51991   8.385   6.272   8.989 -0.4706  1.2414 -0.0356
16751SOL    HW151992   8.423   6.353   8.954 -0.0392  0.8494 -0.4689
16751SOL    HW251993   8.292   6.293   8.998 -0.2296  2.0796  0.6873
16752SOL     OW51994   0.378   1.202   3.029  0.0388  1.0322  0.0402
16752SOL    HW151995   0.355   1.197   2.937 -1.7983 -0.5541  0.5180
16752SOL    HW251996   0.469   1.175   3.033 -0.4786 -1.1389 -1.1380
16753SOL     OW51997   7.093   3.729   3.364 -0.1406  0.3373  0.1013
16753SOL    HW151998   7.172   3.695   3.321  0.2802 -0.0246  1.1038
16753SOL    HW251999   7.092   3.822   3.342  0.2718  0.2387 -0.3616
16754SOL     OW52000   7.543   7.858   8.418 -0.3918  0.1975 -0.3557
16754SOL    HW152001   7.491   7.938   8.409 -0.0976  0.3731 -0.4765
16754SOL    HW252002   7.493   7.805   8.480 -0.3499  0.6688  0.0922
16755SOL     OW52003   1.015   6.313   2.293  0.3415 -0.9633 -0.1042
16755SOL    HW152004   0.965   6.373   2.349  0.8633 -0.1397 -0.4881
16755SOL    HW252005   1.096   6.296   2.342  0.9212 -0.0249 -0.6838
16756SOL     OW52006   6.261   6.172   1.613 -0.1909 -0.1254  0.0685
16756SOL    HW152007   6.311   6.243   1.652 -0.5695 -0.5402  1.3648
16756SOL    HW252008   6.305   6.092   1.642  0.0647 -0.4458 -1.1414
16757SOL     OW52009   6.540   4.539   6.621 -0.2566  0.3385  0.2239
16757SOL    HW152010   6.514   4.500   6.537 -0.6995  1.4453 -0.1733
16757SOL    HW252011   6.508   4.477   6.687  0.5565 -0.8119 -0.4241
16758SOL     OW52012   2.038   3.882   6.567 -0.0293 -0.1075  0.7002
16758SOL    HW152013   2.119   3.863   6.520 -0.7278 -1.6910  0.0743
16758SOL    HW252014   2.014   3.970   6.539  0.8771 -0.0599  0.0304
16759SOL     OW52015   3.492   2.496   8.205  0.3316  0.2402  0.0472
16759SOL    HW152016   3.556   2.516   8.274  1.3160 -1.2694 -0.3735
16759SOL    HW252017   3.416   2.462   8.252  1.2772 -1.4896  0.4013
16760SOL     OW52018   6.203   1.357   1.795  0.2407  0.3497 -0.0786
16760SOL    HW152019   6.144   1.358   1.720  1.2762 -4.6730 -1.3485
16760SOL    HW252020   6.149   1.323   1.867  0.7327 -1.2375 -0.4194
16761SOL     OW52021   2.325   3.464   4.909  0.3557  0.0896  0.1567
16761SOL    HW152022   2.416   3.467   4.940  0.1850  1.0459  0.5888
16761SOL    HW252023   2.328   3.510   4.825  0.5100 -1.0750 -0.5040
16762SOL     OW52024   4.642   3.839   8.113  0.5346  0.1991 -0.0037
16762SOL    HW152025   4.721   3.788   8.093  0.2701  0.2707 -1.2827
16762SOL    HW252026   4.653   3.864   8.205  0.9126 -1.7021  0.5033
16763SOL     OW52027   7.616   2.862   5.965  0.2580  0.4938 -0.8999
16763SOL    HW152028   7.665   2.781   5.950 -3.4845 -2.2270  0.0989
16763SOL    HW252029   7.551   2.864   5.894 -1.3784  1.1132  0.5258
16764SOL     OW52030   3.358   2.644   6.151 -0.3125 -0.0119 -0.1580
16764SOL    HW152031   3.337   2.717   6.093 -0.1695  0.2881  0.1696
16764SOL    HW252032   3.282   2.635   6.207 -0.8369 -0.8780 -0.9631
16765SOL     OW52033   0.053   7.658   8.630 -0.2296  0.2031 -0.1582
16765SOL    HW152034   0.029   7.643   8.539  1.0394  2.5701 -0.9464
16765SOL    HW252035  -0.029   7.687   8.672 -0.6492 -0.1781 -0.7060
16766SOL     OW52036   6.644   2.062   9.453  0.0257  0.5691  0.2307
16766SOL    HW152037   6.642   2.109   9.370  0.8057  1.4679  0.7082
16766SOL    HW252038   6.646   2.130   9.520 -0.1466 -0.1432  0.9808
16767SOL     OW52039   0.186   8.920   3.798  0.3232 -0.1820  0.5373
16767SOL    HW152040   0.131   8.842   3.808  0.0367 -0.0927 -0.2697
16767SOL    HW252041   0.128   8.994   3.817 -0.3275  0.0136 -1.8110
16768SOL     OW52042   2.663   5.971   6.088  0.2459  0.0770 -0.2867
16768SOL    HW152043   2.567   5.972   6.084  0.2667  0.6889 -0.9545
16768SOL    HW252044   2.684   5.954   6.180 -0.4986 -0.5693 -0.2311
16769SOL     OW52045   4.593   7.364   1.935 -0.2179  0.3615  0.0361
16769SOL    HW152046   4.592   7.416   1.855  0.4008  1.9991  1.0365
16769SOL    HW252047   4.677   7.318   1.933 -0.0461  0.6826 -0.0742
16770SOL     OW52048   6.179   6.585   8.505  0.2122 -0.2301 -0.2002
16770SOL    HW152049   6.164   6.524   8.578  0.8096  1.0142  1.0123
16770SOL    HW252050   6.267   6.620   8.521  0.5674 -0.2810 -1.8239
16771SOL     OW52051   0.186   1.160   6.714 -0.0135 -0.1432  0.1960
16771SOL    HW152052   0.169   1.128   6.802 -2.4873  0.2652 -0.0532
16771SOL    HW252053   0.236   1.241   6.727 -2.4720  1.2857  1.4572
16772SOL     OW52054   3.043   6.750   4.182 -0.3673  0.3214 -0.3053
16772SOL    HW152055   3.050   6.709   4.096 -2.0744  0.8461 -0.7303
16772SOL    HW252056   3.093   6.831   4.173 -0.3566  0.2712 -0.7354
16773SOL     OW52057   6.130   6.692   0.432 -0.1892  0.2349 -0.2294
16773SOL    HW152058   6.130   6.640   0.351  0.0038 -1.7015  0.9695
16773SOL    HW252059   6.062   6.654   0.486 -1.5236  2.6255 -0.0870
16774SOL     OW52060   7.076   5.401   3.962 -0.8946  0.6170  0.0725
16774SOL    HW152061   6.989   5.441   3.973 -0.6503  1.2058 -0.0818
16774SOL    HW252062   7.132   5.447   4.024 -0.9890 -0.7524  1.2071
16775SOL     OW52063   6.146   6.248   0.125  0.1562 -0.0105  0.2059
16775SOL    HW152064   6.056   6.224   0.105  0.2939  0.7287 -1.5017
16775SOL    HW252065   6.139   6.329   0.175 -0.1334  0.5409 -0.6983
16776SOL     OW52066   3.987   5.829   7.969  0.0262  0.1846  0.5771
16776SOL    HW152067   4.060   5.854   8.026  0.7856  1.2430 -0.8171
16776SOL    HW252068   3.997   5.734   7.958  1.8853  0.4416 -0.4541
16777SOL     OW52069   5.831   2.339   6.267 -0.0925  0.4632 -0.1297
16777SOL    HW152070   5.904   2.372   6.319 -0.6483  1.2420  0.1687
16777SOL    HW252071   5.869   2.266   6.217  0.7465  0.4934  0.4323
16778SOL     OW52072   2.381   1.160   1.793 -0.0440 -0.3409 -0.2371
16778SOL    HW152073   2.304   1.169   1.737  0.2960  0.9870 -0.5295
16778SOL    HW252074   2.438   1.099   1.746 -0.0662  0.2180 -1.0204
16779SOL     OW52075   6.237   4.053   2.204 -0.1394 -0.0374  0.6734
16779SOL    HW152076   6.256   3.962   2.182  2.1099  0.7629 -1.1877
16779SOL    HW252077   6.166   4.049   2.268  0.3500 -3.0989  1.1519
16780SOL     OW52078   4.979   3.029   8.167  0.3368 -0.5762  0.2542
16780SOL    HW152079   4.951   3.116   8.196  1.0751  0.1979 -1.2318
16780SOL    HW252080   5.044   3.002   8.232  0.8031  0.4167  0.2199
16781SOL     OW52081   5.884   8.297   6.181 -0.4374  0.7656 -0.3846
16781SOL    HW152082   5.922   8.279   6.095  1.4815  0.7025  0.4289
16781SOL    HW252083   5.876   8.210   6.222  1.6339  1.0221  0.6577
16782SOL     OW52084   4.305   3.280   6.498  0.5787  0.1105  0.1551
16782SOL    HW152085   4.288   3.289   6.592  0.4848  0.2935  0.1213
16782SOL    HW252086   4.220   3.297   6.457 -0.1642 -2.9458  0.1764
16783SOL     OW52087   0.776   5.225   7.005 -0.2152 -0.1143  0.0951
16783SOL    HW152088   0.702   5.165   6.993 -0.0472 -0.0697 -1.2802
16783SOL    HW252089   0.734   5.311   7.015 -0.3507 -0.0407 -1.0225
16784SOL     OW52090   4.747   4.487   1.796 -0.2276 -0.2860  0.0917
16784SOL    HW152091   4.799   4.548   1.743  0.7178  0.2083  1.5442
16784SOL    HW252092   4.803   4.410   1.806 -0.3628 -0.3370  0.4637
16785SOL     OW52093   3.638   8.186   6.043 -0.3707 -0.4480  0.2912
16785SOL    HW152094   3.683   8.104   6.024  2.5003  0.8214  1.0198
16785SOL    HW252095   3.589   8.168   6.123  1.6106 -1.0716  1.4433
16786SOL     OW52096   1.201   7.474   5.303  0.4616 -0.0979 -0.0915
16786SOL    HW152097   1.181   7.565   5.279 -0.3243 -0.4288 -0.7176
16786SOL    HW252098   1.164   7.422   5.232  2.6695 -0.8224 -0.7910
16787SOL     OW52099   7.853   0.028   1.171 -0.0805  0.0027  0.0319
16787SOL    HW152100   7.867  -0.067   1.174 -0.3962 -0.0612 -0.5452
16787SOL    HW252101   7.937   0.064   1.141  0.3355 -0.0130  1.1113
16788SOL     OW52102   8.035   1.451   1.224  0.1001 -0.6895 -0.5150
16788SOL    HW152103   8.026   1.539   1.188 -0.1373 -0.8343 -0.8093
16788SOL    HW252104   8.091   1.462   1.301  1.0455 -0.4619 -1.2298
16789SOL     OW52105   9.430   8.298   0.709  0.0043 -0.2139  0.1328
16789SOL    HW152106   9.512   8.336   0.740 -0.5841  1.4005 -0.1415
16789SOL    HW252107   9.369   8.311   0.781 -0.9649  2.1556 -0.9849
16790SOL     OW52108   7.983   4.373   8.930 -0.0603 -0.0184  0.6497
16790SOL    HW152109   7.909   4.330   8.973 -0.6670 -0.1606 -0.5076
16790SOL    HW252110   8.006   4.314   8.858  1.1081  0.0898  0.9149
16791SOL     OW52111   7.598   3.667   6.062 -0.2888  0.1519 -0.0265
16791SOL    HW152112   7.549   3.681   6.143 -1.7909  0.8209 -1.0155
16791SOL    HW252113   7.652   3.590   6.080 -1.9097 -0.7984  1.0199
16792SOL     OW52114   3.074   3.531   2.439  0.1210  0.8641  0.3349
16792SOL    HW152115   2.992   3.562   2.476 -0.3644 -0.2540  0.2339
16792SOL    HW252116   3.047   3.469   2.371  1.0508  0.7369  0.0706
16793SOL     OW52117   5.668   5.771   7.456  0.7217  0.4141  0.4531
16793SOL    HW152118   5.701   5.728   7.535 -1.3783  0.4398  1.4120
16793SOL    HW252119   5.584   5.729   7.439  0.8824  0.7802 -1.4967
16794SOL     OW52120   7.949   9.281   1.933 -0.0321 -0.3080 -0.3057
16794SOL    HW152121   8.017   9.349   1.928 -1.3398  1.1643  0.8316
16794SOL    HW252122   7.868   9.328   1.912 -0.8909 -1.7018 -0.1753
16795SOL     OW52123   8.420   5.381   7.430  0.0141  0.5500  0.1414
16795SOL    HW152124   8.364   5.433   7.372  0.6274 -0.2299 -1.1865
16795SOL    HW252125   8.480   5.444   7.468 -0.4908  1.1002  0.0509
16796SOL     OW52126   7.983   5.392   8.945  0.2131  0.8654  0.4187
16796SOL    HW152127   7.980   5.425   9.035 -0.2458  3.7258 -0.5549
16796SOL    HW252128   7.912   5.327   8.942  0.6061  0.2747  2.2186
16797SOL     OW52129   7.438   6.778   4.363  0.2553 -0.6806  0.2755
16797SOL    HW152130   7.482   6.827   4.433 -0.9601 -1.2511  1.5071
16797SOL    HW252131   7.423   6.843   4.295 -0.2571  0.4010  1.3664
16798SOL     OW52132   7.069   3.926   6.679  0.7337 -0.0250 -0.3456
16798SOL    HW152133   7.159   3.943   6.707  0.5692  1.4627 -0.6154
16798SOL    HW252134   7.015   3.965   6.747  0.2817 -0.9391 -0.1708
16799SOL     OW52135   2.577   0.927   5.346  0.2133 -0.6639 -0.3473
16799SOL    HW152136   2.656   0.907   5.396 -1.1525 -0.0462  2.2305
16799SOL    HW252137   2.510   0.871   5.384 -1.5344  1.8438  0.5098
16800SOL     OW52138   3.966   2.511   8.653  0.0020 -0.0004  0.4780
16800SOL    HW152139   3.958   2.535   8.561  0.3239 -1.6314 -0.0115
16800SOL    HW252140   4.016   2.582   8.693 -0.3884  0.8618 -0.5330
16801SOL     OW52141   5.426   1.902   7.833 -0.0027 -0.1563 -0.2203
16801SOL    HW152142   5.472   1.982   7.809 -0.8345  0.3737 -0.0925
16801SOL    HW252143   5.477   1.865   7.905 -0.2753  0.9114  0.5501
16802SOL     OW52144   5.941   4.083   4.295 -0.1762  0.5778  0.1129
16802SOL    HW152145   5.993   4.148   4.343 -0.3739  1.1397 -0.4142
16802SOL    HW252146   5.861   4.073   4.346  1.0983 -1.5367  1.8411
16803SOL     OW52147   3.608   6.915   9.282  0.1253  0.3181  0.1222
16803SOL    HW152148   3.701   6.893   9.291 -0.3428 -1.2971  1.4996
16803SOL    HW252149   3.593   6.919   9.188  0.8867 -2.7570 -0.2244
16804SOL     OW52150   7.327   3.942   4.049  0.2195 -0.5177 -0.1200
16804SOL    HW152151   7.260   3.880   4.078  0.2253 -1.3374 -1.7221
16804SOL    HW252152   7.298   3.969   3.962  1.1842  0.3101 -0.2016
16805SOL     OW52153   2.109   3.791   1.667  0.0733 -0.1423 -0.7915
16805SOL    HW152154   2.102   3.794   1.762  0.2084  0.8011 -0.8023
16805SOL    HW252155   2.025   3.757   1.637 -0.3088  0.4377 -0.3829
16806SOL     OW52156   3.898   6.531   1.945 -0.2557  0.3212 -0.2834
16806SOL    HW152157   3.808   6.521   1.976 -1.1854 -1.5750 -3.1532
16806SOL    HW252158   3.927   6.442   1.924  3.0757  0.6138  2.2087
16807SOL     OW52159   4.456   1.122   1.475  0.1961 -0.1053 -0.3320
16807SOL    HW152160   4.495   1.179   1.541 -0.7615  0.3763 -0.1621
16807SOL    HW252161   4.498   1.147   1.393  2.0777 -1.3411  0.2010
16808SOL     OW52162   8.307   0.502   0.302 -0.7113  0.3989 -0.4846
16808SOL    HW152163   8.296   0.434   0.236 -0.2532 -0.2753  0.1164
16808SOL    HW252164   8.218   0.517   0.336 -0.6492 -0.8402  0.2823
16809SOL     OW52165   6.797   7.287   3.143 -0.0205  0.2109  0.3549
16809SOL    HW152166   6.726   7.351   3.152 -0.4389  0.1216 -1.8806
16809SOL    HW252167   6.760   7.206   3.179 -1.1247  0.1457 -0.8508
16810SOL     OW52168   5.419   2.691   4.855 -0.1889  0.4967  0.2168
16810SOL    HW152169   5.331   2.693   4.892 -1.0440 -0.0197 -1.7044
16810SOL    HW252170   5.425   2.607   4.810  1.3130  0.4975  0.3616
16811SOL     OW52171   7.781   6.112   6.684  0.2409  0.1548 -0.1776
16811SOL    HW152172   7.784   6.055   6.607 -0.2884 -1.5566  1.0277
16811SOL    HW252173   7.689   6.132   6.695 -0.1714 -2.3659  1.8879
16812SOL     OW52174   9.096   5.984   7.105  0.3779  0.0928  0.6047
16812SOL    HW152175   9.059   6.000   7.192 -0.2437  1.3408  0.1420
16812SOL    HW252176   9.045   5.911   7.070 -0.9818  1.1026  0.3943
16813SOL     OW52177   1.427   7.811   7.794  0.2337 -0.2087  0.5711
16813SOL    HW152178   1.346   7.835   7.840 -1.7256 -0.1699 -2.6188
16813SOL    HW252179   1.412   7.837   7.703  3.8323 -0.3427 -0.2176
16814SOL     OW52180   8.004   3.978   7.886  0.9004 -0.6002 -0.2041
16814SOL    HW152181   7.944   4.020   7.947  1.6750  1.8832 -1.0099
16814SOL    HW252182   8.044   3.907   7.936 -1.1564 -1.0240  0.9642
16815SOL     OW52183   4.780   7.356   3.578 -0.1546  0.5517 -0.3516
16815SOL    HW152184   4.803   7.264   3.562  0.9169  0.8955 -0.8930
16815SOL    HW252185   4.696   7.367   3.534 -0.5834 -0.3072  0.2125
16816SOL     OW52186   8.752   4.724   8.680 -0.0998  0.2776  0.0517
16816SOL    HW152187   8.756   4.819   8.692  0.8465  0.1875  0.5109
16816SOL    HW252188   8.721   4.713   8.590 -0.9450  1.0055  0.2322
16817SOL     OW52189   4.004   5.163   7.375  0.0700 -0.5999  0.5160
16817SOL    HW152190   3.988   5.109   7.452 -2.2668 -0.0746  0.4772
16817SOL    HW252191   3.991   5.105   7.300 -0.7644 -0.3940  0.4952
16818SOL     OW52192   9.055   9.482   9.354 -0.0677  0.1296 -0.6892
16818SOL    HW152193   9.104   9.472   9.273  1.1336  1.1262 -0.1199
16818SOL    HW252194   8.964   9.488   9.326 -0.2397 -4.1226 -1.6167
16819SOL     OW52195   9.145   9.407   2.948 -0.5740  0.2378  0.1657
16819SOL    HW152196   9.160   9.478   2.885  0.3666  0.0744  0.1917
16819SOL    HW252197   9.113   9.334   2.895 -0.3509  0.2896 -0.0431
16820SOL     OW52198   2.352   1.802   6.859 -0.3561 -0.8207  0.2718
16820SOL    HW152199   2.309   1.877   6.819  0.9178  0.0884  0.5419
16820SOL    HW252200   2.282   1.755   6.904 -0.9673  1.1095  1.4558
16821SOL     OW52201   2.294   1.503   5.750  0.1661 -0.6047 -0.2065
16821SOL    HW152202   2.326   1.591   5.766 -0.3671 -0.9124  3.7545
16821SOL    HW252203   2.211   1.515   5.705 -0.0219  0.9582  0.4991
16822SOL     OW52204   8.924   9.063   7.624  0.3838 -0.3832  0.3615
16822SOL    HW152205   8.952   9.153   7.608 -1.5059  0.2047  0.1929
16822SOL    HW252206   8.935   9.051   7.718 -0.1056  0.3117  0.5195
16823SOL     OW52207   8.101   0.441   3.081 -0.3763 -0.2900  0.3989
16823SOL    HW152208   8.111   0.346   3.089  0.6839 -0.4195 -1.6069
16823SOL    HW252209   8.148   0.462   3.000  0.1857  2.0724  1.2747
16824SOL     OW52210   3.483   8.429   4.850  0.1073 -0.1335  0.1383
16824SOL    HW152211   3.475   8.525   4.850 -1.7421 -0.2697  0.6073
16824SOL    HW252212   3.394   8.397   4.863  0.7986 -1.9293  0.7122
16825SOL     OW52213   3.291   5.159   1.331 -0.0867 -0.2422 -0.0714
16825SOL    HW152214   3.360   5.154   1.265 -0.4152 -0.2835 -0.4175
16825SOL    HW252215   3.222   5.100   1.298  0.0401 -0.8162  0.6621
16826SOL     OW52216   7.159   6.789   6.055  0.1489 -0.2340 -0.8455
16826SOL    HW152217   7.065   6.794   6.073  0.6140  0.0082  2.0710
16826SOL    HW252218   7.171   6.704   6.013 -1.3158 -0.4853 -0.8121
16827SOL     OW52219   8.158   4.201   7.777 -0.7775 -0.0257  0.4833
16827SOL    HW152220   8.107   4.132   7.818 -1.9360  0.3437 -0.3037
16827SOL    HW252221   8.210   4.157   7.710 -3.5312  0.1220 -1.9351
16828SOL     OW52222   2.825   0.339   0.501  0.0913 -0.1597  0.2313
16828SOL    HW152223   2.766   0.270   0.470  1.5616 -0.6733 -1.6045
16828SOL    HW252224   2.837   0.320   0.594 -0.5051 -1.6397  0.0366
16829SOL     OW52225   2.868   1.027   4.608 -0.4423 -0.0161  0.1809
16829SOL    HW152226   2.864   1.108   4.558  0.8648 -0.0357  0.0242
16829SOL    HW252227   2.776   1.008   4.629 -0.8205  1.1638 -0.3024
16830SOL     OW52228   2.881   4.371   4.419  0.0715  0.0706 -0.1780
16830SOL    HW152229   2.898   4.456   4.459  0.8616 -0.0921 -0.1621
16830SOL    HW252230   2.913   4.307   4.483  1.1871 -0.1975 -0.9653
16831SOL     OW52231   6.462   7.020   6.593 -0.0497 -0.2724  0.4845
16831SOL    HW152232   6.540   6.969   6.573 -0.6771 -1.4382  0.9099
16831SOL    HW252233   6.455   7.082   6.521  2.2659  1.1046  1.3472
16832SOL     OW52234   1.657   9.169   6.942 -0.5550 -0.3924  0.4794
16832SOL    HW152235   1.609   9.173   7.025  1.4085  0.7983  1.6409
16832SOL    HW252236   1.620   9.240   6.889  0.2259  0.8685  1.5673
16833SOL     OW52237   1.450   5.123   4.352 -0.2478  0.0465  0.2535
16833SOL    HW152238   1.393   5.199   4.340 -0.5995 -0.4220 -1.1944
16833SOL    HW252239   1.441   5.073   4.271 -0.0341 -1.5616  1.1847
16834SOL     OW52240   4.980   4.947   4.370 -0.5817 -0.1280  0.6174
16834SOL    HW152241   5.027   4.863   4.375 -0.2803 -0.1534 -1.7021
16834SOL    HW252242   5.047   5.009   4.341 -1.7834 -0.0796 -2.3318
16835SOL     OW52243   6.565   4.732   4.192 -0.0343 -0.3083  0.0961
16835SOL    HW152244   6.479   4.730   4.151 -0.2522  2.2359  0.2554
16835SOL    HW252245   6.626   4.723   4.119 -0.4264 -1.3966 -0.1037
16836SOL     OW52246   8.225   6.187   6.442 -0.1387  0.2780  0.2452
16836SOL    HW152247   8.307   6.226   6.410 -0.7127 -0.4151 -2.2969
16836SOL    HW252248   8.156   6.236   6.397 -0.9713 -1.6720 -0.6859
16837SOL     OW52249   4.897   7.518   7.843  0.1264  0.0458 -1.1914
16837SOL    HW152250   4.911   7.600   7.796 -1.5626 -0.0950 -2.0324
16837SOL    HW252251   4.865   7.457   7.777 -0.5162 -0.7100 -0.2239
16838SOL     OW52252   5.229   1.645   4.667 -0.1045  0.7536  0.5396
16838SOL    HW152253   5.193   1.721   4.712 -1.4353  0.4757 -0.0273
16838SOL    HW252254   5.154   1.589   4.649  0.4638  0.6007 -1.5460
16839SOL     OW52255   3.284   8.702   7.909 -0.4511  0.2683  0.6127
16839SOL    HW152256   3.336   8.781   7.923 -2.6420  2.0397 -0.4891
16839SOL    HW252257   3.279   8.693   7.814 -0.1147 -1.3235  0.7221
16840SOL     OW52258   6.459   4.850   5.732 -0.4314  0.0308  0.1877
16840SOL    HW152259   6.526   4.788   5.761 -0.4902 -0.9881 -1.6939
16840SOL    HW252260   6.410   4.870   5.812 -0.6362 -2.6649  0.8619
16841SOL     OW52261   6.722   6.732   8.744 -0.8560 -0.2736  0.0947
16841SOL    HW152262   6.665   6.749   8.669  0.4464 -0.9324 -1.0940
16841SOL    HW252263   6.663   6.729   8.819 -2.5200 -1.7464 -1.1899
16842SOL     OW52264   7.891   2.145   1.424 -0.0704  0.3098 -0.1512
16842SOL    HW152265   7.871   2.106   1.509  1.8945 -1.6258 -0.4883
16842SOL    HW252266   7.823   2.113   1.365 -1.6005  1.8704  0.6527
16843SOL     OW52267   5.068   0.253   9.063  0.1387  0.6886  0.4545
16843SOL    HW152268   5.031   0.177   9.018 -1.5112  0.3724  2.2349
16843SOL    HW252269   5.073   0.320   8.995  0.2132 -0.5234 -0.8016
16844SOL     OW52270   2.216   6.609   8.704 -0.3235 -0.0822 -0.2636
16844SOL    HW152271   2.265   6.643   8.629 -0.1853 -0.7936 -0.5052
16844SOL    HW252272   2.125   6.633   8.686 -0.2305  0.1496 -0.4294
16845SOL     OW52273   2.447   0.558   3.740  0.6846  0.2651  0.7238
16845SOL    HW152274   2.502   0.587   3.813  1.5401  1.2158 -0.2629
16845SOL    HW252275   2.436   0.635   3.685 -0.9226 -0.1458  0.4349
16846SOL     OW52276   2.358   4.009   4.418 -0.1637 -0.2249  0.0217
16846SOL    HW152277   2.282   3.986   4.472  0.5172  0.3407  1.2742
16846SOL    HW252278   2.388   4.093   4.454  2.3970 -1.4993  1.1209
16847SOL     OW52279   8.666   3.913   0.448 -0.3456  0.1980 -0.3465
16847SOL    HW152280   8.676   3.990   0.504 -0.0079 -0.4408  0.4868
16847SOL    HW252281   8.672   3.839   0.508  2.0979 -0.6080 -1.4498
16848SOL     OW52282   9.321   6.504   2.985  0.1904  0.1235 -0.1629
16848SOL    HW152283   9.375   6.576   2.951 -1.4569  1.6787  0.3767
16848SOL    HW252284   9.302   6.528   3.075  2.3913 -2.7182  1.2302
16849SOL     OW52285   0.002   6.488   4.355  0.3119 -0.0131 -0.2362
16849SOL    HW152286   0.038   6.466   4.441 -1.0924  0.1059  0.4021
16849SOL    HW252287   0.026   6.580   4.343 -0.7216  0.4014  0.6997
16850SOL     OW52288   7.138   8.438   8.407 -0.3557 -0.8402 -0.0496
16850SOL    HW152289   7.054   8.392   8.397 -0.9395  0.4494 -1.3940
16850SOL    HW252290   7.122   8.500   8.478 -0.3767 -0.9373  0.0316
16851SOL     OW52291   8.197   1.435   0.261  0.0638  0.4932 -0.2533
16851SOL    HW152292   8.235   1.441   0.174  0.6050  3.1958  0.0765
16851SOL    HW252293   8.103   1.452   0.248 -0.1226 -0.6060 -0.4415
16852SOL     OW52294   7.087   1.147   7.536  0.1869 -0.2115 -0.0938
16852SOL    HW152295   7.088   1.235   7.573 -0.9664 -0.2187 -0.0052
16852SOL    HW252296   6.999   1.114   7.555  0.9220 -1.7624  0.7358
16853SOL     OW52297   7.112   0.760   0.596 -0.1536  0.6927 -0.2994
16853SOL    HW152298   7.046   0.802   0.541  0.8012  2.0516 -0.4791
16853SOL    HW252299   7.063   0.708   0.659 -1.4222  2.2380  0.0367
16854SOL     OW52300   5.139   2.601   0.022  0.0096 -0.4803  0.1937
16854SOL    HW152301   5.231   2.615  -0.000  0.5923 -3.3633  0.4507
16854SOL    HW252302   5.133   2.624   0.114  0.3094  0.3147  0.0241
16855SOL     OW52303   0.673   2.505   7.121 -0.0259 -0.0130 -0.4346
16855SOL    HW152304   0.671   2.531   7.213  0.3779 -2.8403  0.4675
16855SOL    HW252305   0.733   2.567   7.079  0.5537  0.7273  1.4000
16856SOL     OW52306   3.675   4.955   8.834  0.0926 -0.3198  0.1374
16856SOL    HW152307   3.587   4.933   8.805  0.2317  0.4945 -0.9641
16856SOL    HW252308   3.667   4.964   8.929 -0.4861 -2.5180  0.3480
16857SOL     OW52309   6.858   1.658   8.023 -0.5079 -0.3024  0.3066
16857SOL    HW152310   6.953   1.659   8.039 -0.6969  0.1438  1.4515
16857SOL    HW252311   6.828   1.744   8.052 -1.2666 -0.4119 -0.1274
16858SOL     OW52312   6.808   9.453   6.117 -0.6813 -0.1824  0.0707
16858SOL    HW152313   6.745   9.444   6.045 -1.8765 -1.1639  1.2003
16858SOL    HW252314   6.833   9.546   6.115 -2.6759  0.3955 -0.0177
16859SOL     OW52315   6.615   6.051   8.372  0.3084  0.2600  0.2394
16859SOL    HW152316   6.630   5.978   8.432  0.8861 -1.6744 -2.0516
16859SOL    HW252317   6.622   6.129   8.426  1.6990 -1.2788  2.4820
16860SOL     OW52318   6.910   8.337   5.646  0.6405  0.8286 -0.5499
16860SOL    HW152319   6.875   8.425   5.631  0.3665  0.6784 -0.8057
16860SOL    HW252320   6.842   8.279   5.612  0.5272  0.5030  0.2211
16861SOL     OW52321   3.579   6.782   8.199 -0.6100 -0.4066  0.2852
16861SOL    HW152322   3.616   6.861   8.161 -1.3701  0.2370  0.8565
16861SOL    HW252323   3.607   6.712   8.140 -1.0073  0.4481 -0.9504
16862SOL     OW52324   4.326   3.761   8.672  0.2558  0.2417 -0.1863
16862SOL    HW152325   4.289   3.673   8.678  0.3392  0.3037  1.5275
16862SOL    HW252326   4.302   3.790   8.583  1.1169 -1.8627 -1.1746
16863SOL     OW52327   6.437   0.548   1.315  0.1893  0.0695 -0.6154
16863SOL    HW152328   6.443   0.640   1.292  0.1555 -0.2465 -1.9593
16863SOL    HW252329   6.376   0.511   1.251 -1.6476 -0.4567  1.2875
16864SOL     OW52330   3.850   6.958   1.848  0.2255 -0.1373 -0.1077
16864SOL    HW152331   3.769   6.910   1.835 -0.3355  0.4876  0.8875
16864SOL    HW252332   3.822   7.047   1.868  1.1785  0.2152 -0.2640
16865SOL     OW52333   4.260   2.660   5.979  0.0469 -0.6377  0.1513
16865SOL    HW152334   4.338   2.715   5.971 -0.3766 -0.1424 -0.7439
16865SOL    HW252335   4.284   2.578   5.936 -0.5692  0.2451 -2.0045
16866SOL     OW52336   4.285   0.988   8.804  0.1130  0.3117 -0.1902
16866SOL    HW152337   4.321   0.972   8.891 -0.6106 -1.2756 -0.1410
16866SOL    HW252338   4.353   0.957   8.744  0.9555  2.1426 -0.2700
16867SOL     OW52339   7.741   7.342   9.221 -0.6058  0.4525 -0.0405
16867SOL    HW152340   7.649   7.369   9.229 -0.7982 -0.0658 -0.4148
16867SOL    HW252341   7.736   7.248   9.202  0.0879 -0.2092  2.6884
16868SOL     OW52342   6.364   1.393   2.887 -0.1263  0.0819 -0.5889
16868SOL    HW152343   6.318   1.460   2.838 -1.5771 -0.4385 -0.0048
16868SOL    HW252344   6.455   1.423   2.892 -0.7556  2.0144 -0.2762
16869SOL     OW52345   7.917   3.417   9.416 -0.3198  0.1499 -0.1671
16869SOL    HW152346   7.889   3.486   9.355 -0.1512  0.2794 -0.0985
16869SOL    HW252347   7.867   3.340   9.388 -1.5402  0.6229  0.6031
16870SOL     OW52348   3.517   7.876   4.713 -0.2650  0.2595  0.7100
16870SOL    HW152349   3.553   7.853   4.627  0.6927  1.1570  0.8459
16870SOL    HW252350   3.472   7.797   4.742 -0.3757 -0.1438 -0.4958
16871SOL     OW52351   8.401   8.883   4.340 -0.0188  0.3906 -0.2611
16871SOL    HW152352   8.377   8.790   4.348  0.4743  0.4089  2.3111
16871SOL    HW252353   8.448   8.888   4.257  0.3826 -1.7715 -0.2346
16872SOL     OW52354   2.378   4.898   6.669  0.1638  0.5200 -0.0442
16872SOL    HW152355   2.404   4.990   6.673  0.6413  0.5945 -2.5955
16872SOL    HW252356   2.458   4.853   6.640 -0.2068 -0.6169  0.6610
16873SOL     OW52357   5.761   2.626   2.465  0.6224  0.4090  0.2593
16873SOL    HW152358   5.822   2.566   2.509 -0.4932 -0.1552  1.1151
16873SOL    HW252359   5.807   2.656   2.387  2.2020  0.4695  1.1929
16874SOL     OW52360   1.483   9.261   5.169 -0.1020  0.8304 -0.4176
16874SOL    HW152361   1.525   9.181   5.198 -2.3967  0.0151  0.9436
16874SOL    HW252362   1.464   9.246   5.076  0.0633  0.0684 -0.3345
16875SOL     OW52363   6.739   7.042   2.736  0.0225  0.7662 -0.3784
16875SOL    HW152364   6.659   7.002   2.702  0.3484 -0.9933  0.8338
16875SOL    HW252365   6.808   7.015   2.675  0.2875 -0.8454  0.5738
16876SOL     OW52366   5.690   9.426   8.327  0.1652  0.2007 -0.1968
16876SOL    HW152367   5.652   9.508   8.359  0.7669  0.0181  1.0382
16876SOL    HW252368   5.734   9.451   8.246 -0.1059  0.9963 -0.1103
16877SOL     OW52369   5.067   6.785   7.087 -0.0543 -0.3430  0.0851
16877SOL    HW152370   5.103   6.874   7.085  1.5498 -0.9777 -0.2468
16877SOL    HW252371   5.132   6.734   7.135 -0.6850 -1.4654 -0.2309
16878SOL     OW52372   1.499   6.382   8.617  0.2322  0.0869  0.4225
16878SOL    HW152373   1.421   6.409   8.665  0.7967 -0.1991  1.5269
16878SOL    HW252374   1.559   6.350   8.684  0.9139 -0.6527 -0.5103
16879SOL     OW52375   2.889   2.339   4.629 -0.1232 -0.0063  0.3033
16879SOL    HW152376   2.965   2.281   4.633  0.7841  1.2053  1.5569
16879SOL    HW252377   2.926   2.426   4.617 -1.2361  0.7404  1.8987
16880SOL     OW52378   7.369   3.247   5.092 -0.2072  0.2706  0.0038
16880SOL    HW152379   7.364   3.317   5.158  0.9824 -0.8018  1.3005
16880SOL    HW252380   7.387   3.292   5.010 -2.3062  1.7104  0.2635
16881SOL     OW52381   4.475   0.453   1.112 -0.4916 -0.4279 -0.0824
16881SOL    HW152382   4.490   0.479   1.021  0.3451  1.1936  0.4858
16881SOL    HW252383   4.414   0.379   1.106  1.0653 -1.6580 -2.0556
16882SOL     OW52384   3.486   8.536   2.672  0.0180  0.3556 -0.5354
16882SOL    HW152385   3.411   8.582   2.634 -0.7686 -1.1147 -0.8353
16882SOL    HW252386   3.456   8.508   2.758 -0.1242 -1.0079 -1.0032
16883SOL     OW52387   6.073   8.649   5.203  0.2189  0.7388  0.5960
16883SOL    HW152388   6.168   8.653   5.190  0.3477 -1.7090  0.2523
16883SOL    HW252389   6.063   8.636   5.297  0.3815 -1.1069  0.3889
16884SOL     OW52390   2.948   8.025   5.490  0.2604 -0.1082  0.7747
16884SOL    HW152391   2.903   8.101   5.455 -0.1405 -1.4008 -1.7458
16884SOL    HW252392   3.039   8.053   5.501  0.2113  0.6352 -0.5299
16885SOL     OW52393   5.251   2.597   1.415 -0.6295 -0.1053  0.2894
16885SOL    HW152394   5.340   2.627   1.395 -1.2807  2.0949  0.4345
16885SOL    HW252395   5.227   2.645   1.494 -2.3119  0.1338 -0.3331
16886SOL     OW52396   2.330   8.964   5.166  0.2200  0.0499 -0.1391
16886SOL    HW152397   2.272   8.899   5.126  0.8708  0.0108 -1.0668
16886SOL    HW252398   2.416   8.946   5.126  0.3637  1.6254 -0.5772
16887SOL     OW52399   9.392   0.399   5.192  0.2317  0.2085  0.5486
16887SOL    HW152400   9.481   0.429   5.211  1.8011 -2.6128 -1.5752
16887SOL    HW252401   9.372   0.340   5.265 -0.6028  1.9607  1.8100
16888SOL     OW52402   3.647   8.540   3.804  0.3416 -0.0710 -0.3068
16888SOL    HW152403   3.649   8.473   3.735  2.0125 -0.3684 -0.0194
16888SOL    HW252404   3.570   8.518   3.857 -2.1974  1.3164 -3.1067
16889SOL     OW52405   5.528   5.523   1.907 -0.1597 -0.0519 -0.2664
16889SOL    HW152406   5.432   5.528   1.909 -0.1907  0.1234 -1.5360
16889SOL    HW252407   5.554   5.539   1.998 -1.2079  3.0233 -0.3735
16890SOL     OW52408   0.948   0.882   0.359  0.0852  0.3729 -0.1475
16890SOL    HW152409   0.994   0.937   0.296  2.6025 -2.0881 -0.7079
16890SOL    HW252410   0.996   0.894   0.441 -0.3036  0.1433  0.1183
16891SOL     OW52411   7.263   7.882   8.714 -0.0409  0.4560 -0.2900
16891SOL    HW152412   7.183   7.885   8.662  0.5954  0.0748 -1.3418
16891SOL    HW252413   7.294   7.972   8.716 -0.1508  0.4971 -0.4511
16892SOL     OW52414   6.580   5.221   7.066  0.3907 -0.0856  0.1387
16892SOL    HW152415   6.593   5.262   6.980  1.2992 -0.4229  0.0975
16892SOL    HW252416   6.539   5.289   7.119 -1.5362 -0.3371 -0.9503
16893SOL     OW52417   2.586   7.953   3.138 -0.2381  0.5296 -0.0295
16893SOL    HW152418   2.581   7.860   3.114 -1.1690  0.7308 -0.6584
16893SOL    HW252419   2.679   7.974   3.130 -0.1718 -0.0642 -1.0315
16894SOL     OW52420   2.618   5.614   2.174 -0.1246  0.0919 -0.0937
16894SOL    HW152421   2.552   5.548   2.151  1.2501 -0.9469 -1.2979
16894SOL    HW252422   2.685   5.564   2.221  1.7076  0.1935 -2.3730
16895SOL     OW52423   4.473   3.512   2.354 -0.7792  0.8684  0.1560
16895SOL    HW152424   4.441   3.479   2.270  0.6164 -2.8530  0.8584
16895SOL    HW252425   4.557   3.552   2.333 -0.1295 -0.6212 -0.2232
16896SOL     OW52426   6.748   4.754   3.999 -0.0263  0.1976 -0.2373
16896SOL    HW152427   6.763   4.849   4.002  1.8586 -0.0594  0.4242
16896SOL    HW252428   6.763   4.730   3.908 -1.3120  0.6194 -0.5790
16897SOL     OW52429   5.109   8.317   1.078 -0.5263 -0.6312  0.1091
16897SOL    HW152430   5.164   8.349   1.008 -0.6678 -0.3419  0.1289
16897SOL    HW252431   5.155   8.240   1.112  0.2866  0.1013  0.6922
16898SOL     OW52432   7.042   4.667   3.614 -0.5131 -0.5482 -0.4456
16898SOL    HW152433   7.096   4.685   3.538 -0.9155 -0.0168 -0.6134
16898SOL    HW252434   7.099   4.684   3.689 -1.1002  2.5094 -0.5408
16899SOL     OW52435   6.506   3.459   5.030  0.2878 -0.0838 -0.3551
16899SOL    HW152436   6.458   3.376   5.028  2.2931 -1.3908  1.3029
16899SOL    HW252437   6.561   3.453   5.108 -0.8849  3.6729  1.0178
16900SOL     OW52438   1.087   8.011   8.790 -0.2955  0.2912  0.0674
16900SOL    HW152439   1.097   7.986   8.698 -0.6130  2.5494 -0.6363
16900SOL    HW252440   1.142   8.088   8.800 -0.1432 -0.0063  1.8428
16901SOL     OW52441   6.256   3.733   0.434 -0.7318 -0.8620  0.4054
16901SOL    HW152442   6.274   3.708   0.343 -2.7205 -1.6542  0.1806
16901SOL    HW252443   6.202   3.812   0.426  0.1039 -0.2252  0.9481
16902SOL     OW52444   3.748   1.265   9.222 -0.1351 -0.0672 -0.2813
16902SOL    HW152445   3.759   1.195   9.158  2.0224  0.5182 -0.6515
16902SOL    HW252446   3.694   1.330   9.177 -1.6510 -1.1911 -0.1523
16903SOL     OW52447   9.604   0.307   4.214 -0.2850 -0.8802 -0.4132
16903SOL    HW152448   9.512   0.328   4.232 -0.3353 -1.9450  0.7498
16903SOL    HW252449   9.625   0.356   4.135 -1.7872 -0.4388 -0.5716
16904SOL     OW52450   3.201   2.544   4.003  0.1079 -0.2935 -0.0723
16904SOL    HW152451   3.293   2.519   4.012  0.8574  2.1111 -0.4147
16904SOL    HW252452   3.157   2.504   4.078  1.1318 -2.5890 -0.6086
16905SOL     OW52453   6.736   2.733   2.684  0.1948 -0.4185  0.1077
16905SOL    HW152454   6.720   2.777   2.601  0.8174 -0.6351 -0.1339
16905SOL    HW252455   6.691   2.786   2.749  0.1027  0.0160 -0.3071
16906SOL     OW52456   7.742   5.862   5.571  1.3560  0.1219 -0.4825
16906SOL    HW152457   7.771   5.855   5.480  0.2799  0.0449 -0.8338
16906SOL    HW252458   7.731   5.956   5.585  1.9534  0.1645 -0.2872
16907SOL     OW52459   3.304   7.219   3.002  0.9452  0.0427 -0.4751
16907SOL    HW152460   3.370   7.285   2.981  0.5345  0.7416  0.3687
16907SOL    HW252461   3.302   7.216   3.098 -0.9189  0.7753 -0.4380
16908SOL     OW52462   0.902   3.162   0.250  0.0724 -0.0539  0.0879
16908SOL    HW152463   0.907   3.151   0.345 -0.0289  1.8225  0.3656
16908SOL    HW252464   0.988   3.136   0.218  0.3484 -0.0236  0.7896
16909SOL     OW52465   1.742   7.300   0.331 -0.2454 -1.0391  0.6103
16909SOL    HW152466   1.699   7.214   0.334  0.1022 -1.2810 -0.7080
16909SOL    HW252467   1.835   7.280   0.346 -0.1556 -0.9059  0.2443
16910SOL     OW52468   6.694   6.545   9.154  0.0675  0.1413 -0.1140
16910SOL    HW152469   6.677   6.474   9.093  0.4631 -0.6845  0.7160
16910SOL    HW252470   6.764   6.597   9.113 -0.5925  0.3662 -0.9643
16911SOL     OW52471   9.081   4.429   4.876 -0.7205 -0.1565 -0.3345
16911SOL    HW152472   9.149   4.458   4.815 -1.7622  0.0563 -1.4268
16911SOL    HW252473   9.053   4.508   4.921  0.9707 -0.4915  1.4660
16912SOL     OW52474   3.879   1.978   1.467  0.3863  0.2089  0.5267
16912SOL    HW152475   3.908   1.896   1.427  1.6660  0.6042  0.6182
16912SOL    HW252476   3.807   1.952   1.524  0.7768 -0.8559  0.5559
16913SOL     OW52477   1.391   5.261   9.425 -0.2295  0.2485 -0.3323
16913SOL    HW152478   1.338   5.210   9.486  0.3047 -0.4207 -0.4021
16913SOL    HW252479   1.339   5.338   9.406 -0.7503  0.0802  0.3514
16914SOL     OW52480   9.401   0.647   9.493 -0.0685  0.5939 -0.0969
16914SOL    HW152481   9.401   0.564   9.540  0.2633  0.3765 -0.4717
16914SOL    HW252482   9.378   0.623   9.403 -1.8024  1.1260  0.1553
16915SOL     OW52483   4.664   6.482   6.185  0.1588  0.1222  0.3892
16915SOL    HW152484   4.595   6.454   6.125 -1.9917  0.5919  2.5004
16915SOL    HW252485   4.674   6.576   6.169 -0.8756  0.3764  1.1838
16916SOL     OW52486   3.716   6.084   0.963  0.2467  0.3677  0.1776
16916SOL    HW152487   3.622   6.074   0.974  0.4345 -0.9305  0.6952
16916SOL    HW252488   3.738   6.026   0.891  0.6356  0.7860 -0.0446
16917SOL     OW52489   7.045   0.049   1.550 -0.2940  0.1564 -0.3112
16917SOL    HW152490   7.129   0.087   1.577  0.6526 -0.5275 -2.1122
16917SOL    HW252491   6.980   0.117   1.571  0.7480  0.8734  0.7323
16918SOL     OW52492   8.596   0.807   9.607  0.0281 -0.1342 -0.5140
16918SOL    HW152493   8.553   0.765   9.681  0.2520  1.6640  0.6750
16918SOL    HW252494   8.542   0.783   9.531 -1.3463 -0.3840  0.5062
16919SOL     OW52495   3.365   0.717   8.920  0.0480  0.0068 -0.0748
16919SOL    HW152496   3.374   0.799   8.871 -0.0600 -0.0837 -0.2469
16919SOL    HW252497   3.323   0.743   9.002  0.1711  0.1496 -0.0557
16920SOL     OW52498   5.040   2.505   0.593  0.2170 -0.0500 -0.1954
16920SOL    HW152499   5.133   2.491   0.575  0.0961  0.6655 -1.4736
16920SOL    HW252500   4.995   2.430   0.554  0.0763  0.7902 -1.7082
16921SOL     OW52501   4.311   9.080   1.591 -0.7163 -0.0527 -0.2108
16921SOL    HW152502   4.338   9.139   1.520 -1.8676  0.3673 -0.3190
16921SOL    HW252503   4.374   9.096   1.661 -1.0492  1.3757 -0.2065
16922SOL     OW52504   2.821   3.772   0.112  0.2396  0.1223  0.6656
16922SOL    HW152505   2.886   3.705   0.130  0.2156  0.3926  1.8376
16922SOL    HW252506   2.743   3.744   0.161 -0.1828  0.3525  0.1426
16923SOL     OW52507   4.000   9.130   5.957  0.0318  0.6270  0.5505
16923SOL    HW152508   4.060   9.056   5.946  0.2624  0.9656 -0.6493
16923SOL    HW252509   4.053   9.199   5.997  0.5671  1.0480 -0.8408
16924SOL     OW52510   7.982   5.592   8.438 -0.0789 -0.2962  0.1048
16924SOL    HW152511   8.053   5.528   8.437  2.1911  2.0092  0.2621
16924SOL    HW252512   7.962   5.608   8.346  1.0752  0.4406 -0.0472
16925SOL     OW52513   9.277   6.757   1.165 -0.2168 -0.1283  0.3515
16925SOL    HW152514   9.340   6.694   1.200  0.7354 -0.0710 -1.1549
16925SOL    HW252515   9.296   6.838   1.212  2.0389  0.3408 -1.1735
16926SOL     OW52516   7.269   5.200   9.049 -0.3923 -0.0368 -0.5981
16926SOL    HW152517   7.314   5.285   9.045  0.8634 -0.6266  0.1795
16926SOL    HW252518   7.210   5.201   8.973  0.3647  1.1049 -1.2172
16927SOL     OW52519   5.183   2.344   8.075  0.1959  0.1721  0.5009
16927SOL    HW152520   5.107   2.368   8.021 -0.6855  0.3588  1.7745
16927SOL    HW252521   5.194   2.418   8.134  1.6777  0.3456  0.0332
16928SOL     OW52522   4.747   8.495   2.741  0.5726 -0.0657 -0.3480
16928SOL    HW152523   4.717   8.566   2.684 -1.8224  1.2617  2.3631
16928SOL    HW252524   4.840   8.512   2.753  0.3585  1.7299 -0.9695
16929SOL     OW52525   3.670   1.802   7.124  0.4425 -1.5996 -0.1469
16929SOL    HW152526   3.683   1.773   7.214  1.2813 -1.3683 -0.1848
16929SOL    HW252527   3.682   1.897   7.127  0.5212 -1.5960 -0.5134
16930SOL     OW52528   5.704   4.177   0.022 -0.0961  0.0212  0.5493
16930SOL    HW152529   5.786   4.174   0.071  0.6642  1.1377 -0.5821
16930SOL    HW252530   5.713   4.254  -0.035 -2.3201  0.7443  1.0596
16931SOL     OW52531   3.219   8.898   9.058 -0.0490 -0.4369 -0.0880
16931SOL    HW152532   3.158   8.952   9.007  0.9319  0.1388 -0.6886
16931SOL    HW252533   3.290   8.958   9.080 -0.0301 -0.9161  1.2218
16932SOL     OW52534   0.294   7.663   8.461 -0.2632 -0.3221 -0.0115
16932SOL    HW152535   0.199   7.664   8.473  0.0250  0.4080  2.7703
16932SOL    HW252536   0.319   7.755   8.457  0.5596 -0.3868  2.2192
16933SOL     OW52537   6.188   3.557   5.722 -0.2774 -0.7043 -0.1174
16933SOL    HW152538   6.227   3.524   5.803  1.0974  0.1646 -0.3907
16933SOL    HW252539   6.229   3.505   5.652  1.3356  0.9604 -0.4938
16934SOL     OW52540   6.792   7.754   1.990 -0.0716 -0.0625 -0.3101
16934SOL    HW152541   6.702   7.755   2.022 -1.1200 -0.2532 -2.9564
16934SOL    HW252542   6.832   7.831   2.030 -1.4437  0.1098  0.8222
16935SOL     OW52543   3.920   3.280   6.923 -0.4377 -0.5857 -0.1231
16935SOL    HW152544   3.925   3.295   7.017 -0.4670 -1.7982  0.0907
16935SOL    HW252545   3.986   3.339   6.886  0.3464 -0.8872  0.7522
16936SOL     OW52546   6.348   3.959   5.333  0.3653  0.7311  0.1843
16936SOL    HW152547   6.262   3.988   5.365  0.1168  0.8618 -0.5905
16936SOL    HW252548   6.336   3.865   5.316  0.5009  0.6597  0.4782
16937SOL     OW52549   6.456   5.572   1.323  0.2402  0.6825 -0.0043
16937SOL    HW152550   6.505   5.587   1.243 -0.5750 -0.9794 -0.8486
16937SOL    HW252551   6.406   5.653   1.337  1.1659  1.3632 -0.5906
16938SOL     OW52552   4.942   4.809   4.058  0.3863 -0.0182 -0.7172
16938SOL    HW152553   4.849   4.791   4.041  0.0120  1.2179 -0.1142
16938SOL    HW252554   4.943   4.843   4.148  1.3559  0.4875 -0.9147
16939SOL     OW52555   9.222   6.391   4.013  0.2808  0.0697  0.2610
16939SOL    HW152556   9.309   6.354   4.013 -0.2523 -1.2942 -1.0677
16939SOL    HW252557   9.171   6.336   4.072 -0.3047 -0.8638 -1.0572
16940SOL     OW52558   0.600   7.621   4.489  0.7776 -0.3974  0.6734
16940SOL    HW152559   0.669   7.679   4.523  0.0051  1.1374 -0.2637
16940SOL    HW252560   0.594   7.643   4.396 -0.1882 -1.3308  0.4974
16941SOL     OW52561   0.409   8.944   6.883  0.4560 -0.1533 -0.2037
16941SOL    HW152562   0.314   8.930   6.889  0.6429 -1.0094  1.2185
16941SOL    HW252563   0.419   9.039   6.881 -0.4454 -0.0532 -0.7572
16942SOL     OW52564   0.974   9.259   8.207  0.7696  0.8011  0.0884
16942SOL    HW152565   1.054   9.252   8.155  0.9712 -0.1074  0.5074
16942SOL    HW252566   1.005   9.273   8.297  0.4386  1.3729  0.1193
16943SOL     OW52567   7.046   7.389   4.293  0.3218 -0.4953 -0.0460
16943SOL    HW152568   7.035   7.471   4.245 -0.8188 -0.4074  0.3394
16943SOL    HW252569   7.086   7.415   4.377 -0.5149 -0.2535  0.2879
16944SOL     OW52570   5.870   1.288   2.516 -0.1452  0.5021  0.2543
16944SOL    HW152571   5.877   1.195   2.493 -1.1424  0.2780  0.7669
16944SOL    HW252572   5.940   1.303   2.579 -1.0540 -0.3569  1.5054
16945SOL     OW52573   9.146   0.287   9.528  0.0965  0.3342 -0.2395
16945SOL    HW152574   9.200   0.208   9.524  1.1619  1.0338 -0.2125
16945SOL    HW252575   9.068   0.261   9.577 -0.4578 -1.1830 -1.8693
16946SOL     OW52576   8.737   5.504   9.375 -0.1461 -0.1232 -0.1066
16946SOL    HW152577   8.678   5.579   9.378  1.3782  1.2849 -2.1822
16946SOL    HW252578   8.700   5.447   9.307 -0.5146 -0.5604  0.4506
16947SOL     OW52579   6.424   1.588   5.763  0.4983 -0.3631  0.2002
16947SOL    HW152580   6.373   1.564   5.841  2.5120  0.1454  1.7500
16947SOL    HW252581   6.482   1.513   5.749  0.4311 -0.2748 -0.6092
16948SOL     OW52582   4.776   0.716   7.039  0.0653  0.4796  0.4027
16948SOL    HW152583   4.740   0.651   7.099  1.9091 -0.1066  0.9313
16948SOL    HW252584   4.745   0.688   6.952  1.2567 -1.4674  0.5477
16949SOL     OW52585   2.082   4.804   7.739 -0.3566 -0.1187  0.5189
16949SOL    HW152586   2.150   4.866   7.766 -0.5764  0.3742 -0.0591
16949SOL    HW252587   2.009   4.858   7.709  0.3179 -0.5981 -2.2616
16950SOL     OW52588   6.101   7.384   3.572 -0.3381  0.2409  0.5589
16950SOL    HW152589   6.039   7.317   3.599 -0.2959  0.4451  1.1805
16950SOL    HW252590   6.162   7.391   3.646 -0.3905  1.0152  0.5368
16951SOL     OW52591   8.607   4.577   9.126  0.4372 -0.2187 -0.4388
16951SOL    HW152592   8.690   4.532   9.110 -0.3517 -1.0198 -2.5576
16951SOL    HW252593   8.616   4.661   9.083 -0.4271 -0.9903 -2.2123
16952SOL     OW52594   5.312   3.234   1.124 -0.2946  0.0094 -0.1833
16952SOL    HW152595   5.221   3.265   1.119 -1.0590 -2.0767 -0.3055
16952SOL    HW252596   5.364   3.308   1.093 -1.8336  1.6654  0.9130
16953SOL     OW52597   4.111   3.430   9.186  0.0887  0.2116 -0.8387
16953SOL    HW152598   4.194   3.436   9.234  0.3011  1.5726 -1.3263
16953SOL    HW252599   4.133   3.456   9.097 -0.7548 -0.0096 -1.1204
16954SOL     OW52600   7.875   4.358   7.146  0.4464 -0.7494 -0.1926
16954SOL    HW152601   7.891   4.414   7.070  0.0028 -0.1249  0.1696
16954SOL    HW252602   7.780   4.363   7.160  0.3962 -1.5917 -0.1528
16955SOL     OW52603   5.184   6.287   0.179  0.0520 -0.0780 -0.1882
16955SOL    HW152604   5.258   6.236   0.145  0.0585  0.3863 -0.8869
16955SOL    HW252605   5.181   6.365   0.124 -0.6692  0.1343  0.1375
16956SOL     OW52606   7.039   0.947   4.287  0.5385 -0.2247 -0.1056
16956SOL    HW152607   6.999   1.013   4.345  0.5563 -1.2268  1.0785
16956SOL    HW252608   6.969   0.924   4.226 -0.1222 -0.6019  0.7748
16957SOL     OW52609   0.797   1.649   4.336  0.0351  0.0569  0.0584
16957SOL    HW152610   0.838   1.563   4.329  0.5858  0.3962 -1.2735
16957SOL    HW252611   0.822   1.694   4.255 -1.9198  0.7384 -0.2357
16958SOL     OW52612   2.242   7.911   7.072 -0.0272 -0.4132 -0.4898
16958SOL    HW152613   2.325   7.871   7.047  0.6320  0.4991  0.1568
16958SOL    HW252614   2.213   7.861   7.147  0.5682  0.0118  0.0394
16959SOL     OW52615   3.814   7.153   4.038  0.1774  0.0165  0.4025
16959SOL    HW152616   3.895   7.120   3.999 -0.3233 -2.4489  1.2298
16959SOL    HW252617   3.754   7.163   3.964  0.5419 -0.4014  0.0440
16960SOL     OW52618   7.475   8.876   4.637 -0.3279 -0.1534 -0.1464
16960SOL    HW152619   7.494   8.797   4.586  0.2572 -0.4490  0.5042
16960SOL    HW252620   7.381   8.889   4.628 -0.5388 -1.3094  0.2767
16961SOL     OW52621   3.147   3.636   1.008 -0.2245  0.1073  0.0864
16961SOL    HW152622   3.059   3.613   1.039  0.3070 -0.8830  0.9277
16961SOL    HW252623   3.154   3.730   1.025 -0.9951  0.1262  0.3480
16962SOL     OW52624   9.521   3.488   7.685  0.3173 -0.6155 -0.3931
16962SOL    HW152625   9.599   3.477   7.631  0.6152 -1.7201  0.2419
16962SOL    HW252626   9.483   3.401   7.692 -0.3374 -0.2912  0.2464
16963SOL     OW52627   7.223   4.728   0.650 -0.5696 -0.0021  0.2155
16963SOL    HW152628   7.242   4.773   0.732  1.9235 -0.1858 -0.1792
16963SOL    HW252629   7.213   4.636   0.675  1.6830 -0.3041  0.2256
16964SOL     OW52630   7.265   8.935   1.925  0.1744 -0.2938  0.0002
16964SOL    HW152631   7.317   8.958   1.848  1.0806  0.4855  0.8283
16964SOL    HW252632   7.224   8.852   1.902  1.8755 -0.9912 -0.6248
16965SOL     OW52633   0.306   8.708   5.381 -0.0219 -0.5964  0.0691
16965SOL    HW152634   0.398   8.694   5.405 -0.4288 -1.3054  1.3331
16965SOL    HW252635   0.307   8.718   5.286  1.6128  1.6185  0.2524
16966SOL     OW52636   8.912   4.137   2.264 -0.2558 -0.8239  0.1471
16966SOL    HW152637   8.899   4.228   2.291 -0.8414  0.5005 -3.9495
16966SOL    HW252638   8.832   4.092   2.292  0.4894 -0.4609  3.1699
16967SOL     OW52639   4.664   2.884   3.524  0.2651  0.0468  0.5746
16967SOL    HW152640   4.586   2.830   3.536  0.1800  0.0859  0.2028
16967SOL    HW252641   4.644   2.966   3.570  0.0867  0.0602  0.4730
16968SOL     OW52642   1.466   7.959   7.534  0.2389 -0.0491  0.0604
16968SOL    HW152643   1.409   7.966   7.457 -1.7872 -1.6744  1.3020
16968SOL    HW252644   1.435   8.028   7.592  1.1581  0.5861 -0.1875
16969SOL     OW52645   6.658   2.257   4.832  0.1874  1.2936  0.3743
16969SOL    HW152646   6.751   2.237   4.822  0.1666  1.4095 -0.1209
16969SOL    HW252647   6.621   2.181   4.876  0.0628  0.0845 -1.6748
16970SOL     OW52648   2.562   3.905   8.502  0.4101  0.2167 -0.4248
16970SOL    HW152649   2.537   3.850   8.428 -0.1132  1.9413 -1.5855
16970SOL    HW252650   2.523   3.990   8.483 -0.9717  0.3802  2.5173
16971SOL     OW52651   2.835   9.213   4.470  0.3706 -0.4925 -0.2410
16971SOL    HW152652   2.902   9.281   4.473 -0.1626  0.0346 -0.1781
16971SOL    HW252653   2.840   9.171   4.556 -0.2812  0.4230  0.2552
16972SOL     OW52654   5.534   3.722   6.966 -0.2041  0.1110 -0.4188
16972SOL    HW152655   5.446   3.760   6.963  0.1418  0.8824 -0.9755
16972SOL    HW252656   5.525   3.636   6.927 -0.6274  0.3745 -0.9074
16973SOL     OW52657   1.076   5.347   2.341  0.1123  0.3355 -0.1879
16973SOL    HW152658   1.165   5.314   2.331 -0.5601 -1.4828 -0.6079
16973SOL    HW252659   1.023   5.294   2.281 -1.7559 -0.9312  2.3416
16974SOL     OW52660   4.350   8.022   6.403  0.1215  0.3457 -0.2197
16974SOL    HW152661   4.436   7.997   6.370 -0.1953  0.9052 -1.5191
16974SOL    HW252662   4.368   8.088   6.470  0.6360  2.2636 -2.1655
16975SOL     OW52663   2.919   6.419   0.490 -0.2726  0.0113  0.4553
16975SOL    HW152664   2.950   6.498   0.534  0.8886  0.3093 -0.8121
16975SOL    HW252665   2.840   6.446   0.443  0.6852  0.7406 -0.8170
16976SOL     OW52666   4.070   1.629   6.494  0.7092 -0.1405  0.0746
16976SOL    HW152667   4.049   1.620   6.401  0.7817  0.8926 -0.0498
16976SOL    HW252668   4.063   1.722   6.511  1.2367 -0.2612  0.9839
16977SOL     OW52669   2.971   2.879   1.986  0.6363  0.1256 -0.1754
16977SOL    HW152670   2.899   2.816   1.992 -0.0209  0.9699  1.5766
16977SOL    HW252671   2.932   2.962   2.016  2.4096  0.5433  1.0796
16978SOL     OW52672   2.311   3.845   7.359 -0.0549 -0.1616  0.1260
16978SOL    HW152673   2.216   3.841   7.348 -0.1443  1.0478  0.3179
16978SOL    HW252674   2.325   3.918   7.418  0.9528 -0.9653  0.9068
16979SOL     OW52675   4.064   5.127   9.029  0.3217  0.2106 -0.4515
16979SOL    HW152676   4.010   5.168   9.098 -1.3774 -2.1390 -0.2412
16979SOL    HW252677   4.099   5.201   8.979 -1.3004  1.9343  0.7887
16980SOL     OW52678   1.076   3.821   8.222  0.0103 -0.2600  0.5554
16980SOL    HW152679   1.059   3.869   8.141 -0.9388  0.2149  1.0075
16980SOL    HW252680   1.161   3.853   8.252  0.2820 -0.3080 -0.1522
16981SOL     OW52681   5.498   1.967   0.138  0.2336 -0.0473 -0.1264
16981SOL    HW152682   5.409   1.963   0.174 -0.3540 -1.0215 -1.6025
16981SOL    HW252683   5.553   1.928   0.207 -0.6788 -0.7216  0.2446
16982SOL     OW52684   0.003   2.488   5.881  0.3278  0.4670 -0.1254
16982SOL    HW152685   0.035   2.552   5.943  1.5144  0.3100 -0.5523
16982SOL    HW252686   0.035   2.519   5.796  1.3507 -0.9260 -0.2818
16983SOL     OW52687   8.090   3.549   9.612 -0.2693 -0.3047 -0.7572
16983SOL    HW152688   8.034   3.472   9.608  0.5818 -0.9561 -0.4515
16983SOL    HW252689   8.169   3.523   9.564  0.3005  0.1285 -0.0766
16984SOL     OW52690   0.894   0.473   4.356  0.1572 -0.4065 -0.2282
16984SOL    HW152691   0.935   0.500   4.438 -1.3402 -2.0673  1.1396
16984SOL    HW252692   0.815   0.528   4.350 -0.2668 -0.9795 -0.0068
16985SOL     OW52693   6.148   6.036   6.700  0.1877  0.2847 -0.0199
16985SOL    HW152694   6.240   6.023   6.679  0.0138 -0.4015 -0.3852
16985SOL    HW252695   6.128   6.124   6.669 -0.2263 -0.8506 -3.4087
16986SOL     OW52696   9.325   3.524   8.159  0.0641 -0.0060 -0.1528
16986SOL    HW152697   9.262   3.484   8.099 -0.0719  0.5390 -0.3763
16986SOL    HW252698   9.405   3.534   8.107  0.5271 -1.1962  0.2818
16987SOL     OW52699   3.798   2.920   2.800  0.3985  0.3436 -0.6264
16987SOL    HW152700   3.862   2.871   2.749  1.6989  0.5034  0.7783
16987SOL    HW252701   3.735   2.854   2.830  0.3724  0.0490 -1.3112
16988SOL     OW52702   2.043   9.054   9.350 -0.0437 -0.1933 -0.1105
16988SOL    HW152703   2.039   8.962   9.376 -1.1139 -0.8303 -2.2655
16988SOL    HW252704   2.064   9.052   9.257  1.1042  1.8274  0.0316
16989SOL     OW52705   2.069   7.079   4.649  0.1072 -0.1763 -0.0384
16989SOL    HW152706   2.120   7.151   4.614 -1.5620 -0.6422 -3.9283
16989SOL    HW252707   1.992   7.120   4.690  0.8033  0.2977  0.8236
16990SOL     OW52708   4.741   4.223   1.431 -0.0691  0.3460  0.6815
16990SOL    HW152709   4.727   4.142   1.481 -0.7027  0.3268  0.4826
16990SOL    HW252710   4.831   4.248   1.450  0.0629 -0.2963  0.9129
16991SOL     OW52711   1.760   0.748   3.765 -0.0984  0.5498  0.2458
16991SOL    HW152712   1.754   0.827   3.711 -0.7421  1.5861  1.7686
16991SOL    HW252713   1.683   0.696   3.739 -2.5952  2.7323  2.6276
16992SOL     OW52714   7.602   2.231   0.338  0.6710  0.8251  0.5476
16992SOL    HW152715   7.689   2.215   0.301  0.3226  0.5990 -0.1993
16992SOL    HW252716   7.544   2.173   0.289  0.2572  0.1476  1.8157
16993SOL     OW52717   7.432   2.242   1.200  0.1164 -0.5540 -0.1194
16993SOL    HW152718   7.523   2.213   1.203 -0.1724 -1.4010  1.5747
16993SOL    HW252719   7.431   2.309   1.131  2.1254 -0.1270  0.1862
16994SOL     OW52720   8.845   4.305   2.852  0.8263 -0.1400 -0.0102
16994SOL    HW152721   8.932   4.330   2.884  1.4907  0.9607 -2.4570
16994SOL    HW252722   8.785   4.361   2.902  1.8207  1.6078 -0.6810
16995SOL     OW52723   4.419   7.009   1.447 -0.1598 -0.3045  0.2379
16995SOL    HW152724   4.326   7.005   1.424 -0.0691 -1.8330  0.0681
16995SOL    HW252725   4.451   7.089   1.404 -1.1655 -0.3144 -0.5610
16996SOL     OW52726   7.847   2.278   9.348  0.0932  0.2602 -0.0920
16996SOL    HW152727   7.773   2.230   9.386  0.5732 -0.3746  0.0609
16996SOL    HW252728   7.807   2.343   9.290 -0.6254  0.8738  1.0720
16997SOL     OW52729   1.137   7.009   8.746  0.1361  0.2076  0.5177
16997SOL    HW152730   1.047   6.986   8.723 -0.1703 -1.4785  3.0473
16997SOL    HW252731   1.128   7.076   8.814  0.8801  1.3911 -0.5068
16998SOL     OW52732   4.924   7.833   7.958 -0.6607 -0.3639  0.3980
16998SOL    HW152733   4.830   7.839   7.940 -0.6944 -0.3284  0.5936
16998SOL    HW252734   4.947   7.917   7.997 -0.8426 -0.9056  1.7302
16999SOL     OW52735   5.080   4.302   9.493 -0.1004  0.6172  0.0573
16999SOL    HW152736   5.025   4.288   9.570  0.7964 -1.2340  0.4192
16999SOL    HW252737   5.169   4.289   9.525  0.2752 -0.3787 -1.3257
17000SOL     OW52738   8.518   4.594   4.986 -0.3117  0.0006  0.2720
17000SOL    HW152739   8.519   4.498   4.987  1.2747 -0.0228 -0.7568
17000SOL    HW252740   8.513   4.617   4.894  1.2265  0.8872  0.3747
17001SOL     OW52741   5.117   4.631   5.872  0.1924  0.5024  0.7531
17001SOL    HW152742   5.021   4.625   5.877 -0.0593  1.0857 -1.9204
17001SOL    HW252743   5.147   4.552   5.916 -1.8165 -2.6776 -2.8720
17002SOL     OW52744   3.060   6.437   2.978 -0.1234 -0.6041 -0.1228
17002SOL    HW152745   3.043   6.517   3.027  1.6554  0.6862 -1.4790
17002SOL    HW252746   2.974   6.407   2.950 -0.8160  0.9843  0.2073
17003SOL     OW52747   4.366   4.252   8.268 -0.2607 -0.1570 -0.5957
17003SOL    HW152748   4.356   4.184   8.334  1.8918  0.5820  0.6066
17003SOL    HW252749   4.449   4.231   8.223  1.5555  2.5809  1.1449
17004SOL     OW52750   7.519   8.962   4.902 -0.4105  0.0519  0.3516
17004SOL    HW152751   7.533   8.918   4.818 -1.4043 -0.8949  0.6542
17004SOL    HW252752   7.554   8.901   4.967  0.1769  0.6924  0.6459
17005SOL     OW52753   9.095   3.239   3.841 -0.5286  0.0091 -0.0143
17005SOL    HW152754   9.185   3.247   3.873 -0.3332 -1.0507 -0.2406
17005SOL    HW252755   9.067   3.329   3.823  1.3939  0.2470 -2.3964
17006SOL     OW52756   7.881   1.052   4.033 -0.5995  0.2390  0.6302
17006SOL    HW152757   7.866   1.059   3.939  0.0048 -0.1596  0.5020
17006SOL    HW252758   7.836   1.128   4.070  1.5599  2.0687 -0.2620
17007SOL     OW52759   7.469   5.671   9.230 -0.3670  0.1438  0.2878
17007SOL    HW152760   7.439   5.663   9.320 -1.6805 -1.2031 -0.2385
17007SOL    HW252761   7.415   5.610   9.180  1.8347 -0.8416 -1.0640
17008SOL     OW52762   2.365   8.025   0.644  0.1396  0.4522 -0.0416
17008SOL    HW152763   2.285   8.000   0.597  0.2210  1.3249 -0.6634
17008SOL    HW252764   2.422   8.061   0.577  0.2930  1.6503  0.6995
17009SOL     OW52765   1.122   8.576   5.700  0.7352  0.4497  0.1974
17009SOL    HW152766   1.200   8.549   5.650  1.4441 -0.1481  1.5637
17009SOL    HW252767   1.118   8.513   5.773 -1.6833 -0.2173 -0.4324
17010SOL     OW52768   6.171   8.633   4.156  0.1891 -0.2778 -0.0558
17010SOL    HW152769   6.150   8.668   4.070 -0.5383 -1.7583 -0.5113
17010SOL    HW252770   6.257   8.670   4.177  0.9792 -0.9170 -1.9816
17011SOL     OW52771   3.300   0.910   5.413  0.0531  0.5332  0.5324
17011SOL    HW152772   3.235   0.932   5.346 -1.7618  0.8026  2.2771
17011SOL    HW252773   3.300   0.814   5.416  0.3839  0.5111 -0.0588
17012SOL     OW52774   1.166   9.216   1.918  0.2366  0.0403  0.2481
17012SOL    HW152775   1.144   9.129   1.953 -0.0159  0.3059  0.7538
17012SOL    HW252776   1.144   9.210   1.825 -0.0811 -0.3376  0.3444
17013SOL     OW52777   9.543   2.065   5.840 -0.3666  0.1540 -0.1926
17013SOL    HW152778   9.510   2.075   5.751 -1.8213  0.0138  0.3141
17013SOL    HW252779   9.570   2.153   5.866  0.5871  0.1041 -0.9457
17014SOL     OW52780   2.079   0.246   1.173 -0.3484 -0.1756 -0.0668
17014SOL    HW152781   2.007   0.183   1.174 -1.0428  0.5933 -0.7383
17014SOL    HW252782   2.055   0.311   1.239 -0.2333  0.0466 -0.2443
17015SOL     OW52783   3.681   1.732   7.397  0.1205  0.1325 -0.0037
17015SOL    HW152784   3.710   1.647   7.428  0.0249 -0.3129 -1.0789
17015SOL    HW252785   3.601   1.750   7.447 -0.4739 -0.9282 -0.5433
17016SOL     OW52786   7.815   8.717   0.675  0.8460  0.7982  0.1813
17016SOL    HW152787   7.789   8.802   0.712 -1.3308 -0.3344  1.4512
17016SOL    HW252788   7.833   8.663   0.752  0.3171 -0.4430 -0.5533
17017SOL     OW52789   8.840   4.152   6.828  0.3994  0.2489  0.0604
17017SOL    HW152790   8.853   4.237   6.786 -0.2843  0.1075 -0.4408
17017SOL    HW252791   8.851   4.088   6.758 -1.1688  0.0350 -0.0240
17018SOL     OW52792   3.532   1.884   0.890 -0.5223  0.0365 -0.2975
17018SOL    HW152793   3.521   1.972   0.853  1.4621  0.0921 -0.8504
17018SOL    HW252794   3.483   1.828   0.830 -0.3907  0.5746 -0.9259
17019SOL     OW52795   2.620   7.161   2.097 -0.4561  0.1988  0.1139
17019SOL    HW152796   2.631   7.099   2.169  3.7505 -0.8383 -1.1329
17019SOL    HW252797   2.630   7.108   2.018  1.8481  2.1117 -1.0295
17020SOL     OW52798   8.481   9.443   7.063  0.0175  0.7683 -0.0410
17020SOL    HW152799   8.458   9.516   7.005 -0.7767  0.3977 -0.2002
17020SOL    HW252800   8.459   9.474   7.151  2.4882  1.8607  0.2871
17021SOL     OW52801   8.150   6.238   8.730 -0.0513 -0.4641 -0.0840
17021SOL    HW152802   8.194   6.167   8.776  1.1504  0.9621  1.0646
17021SOL    HW252803   8.221   6.289   8.690 -0.9162 -0.2158 -1.3975
17022SOL     OW52804   4.400   0.775   5.498  0.2024  0.5934  0.3556
17022SOL    HW152805   4.351   0.775   5.580  1.3893  2.0476  1.1187
17022SOL    HW252806   4.358   0.842   5.445 -0.0962  0.1778  0.0610
17023SOL     OW52807   4.887   1.707   5.586  0.5550 -0.4361  0.1394
17023SOL    HW152808   4.899   1.799   5.561  0.0703 -0.8436 -1.7505
17023SOL    HW252809   4.806   1.708   5.638  0.5178  0.1896  0.0847
17024SOL     OW52810   1.347   8.424   9.008  0.2464 -0.1114 -0.4872
17024SOL    HW152811   1.355   8.369   9.086  0.0455 -0.0239 -0.4054
17024SOL    HW252812   1.350   8.362   8.935  0.4606 -0.1918 -0.4142
17025SOL     OW52813   1.423   7.448   8.772  0.3376 -0.6592 -0.1908
17025SOL    HW152814   1.430   7.478   8.862 -0.5838 -3.0403  0.7399
17025SOL    HW252815   1.508   7.469   8.732  0.0956  2.1778  0.5981
17026SOL     OW52816   8.195   6.653   0.519 -0.4283 -0.3799 -0.2504
17026SOL    HW152817   8.240   6.660   0.435  0.3537 -0.7373  0.1329
17026SOL    HW252818   8.115   6.705   0.507 -0.8420 -1.2375 -1.5426
17027SOL     OW52819   5.749   2.909   8.959  0.5503  0.2125  0.2205
17027SOL    HW152820   5.668   2.960   8.970  0.7441  0.0363  3.2870
17027SOL    HW252821   5.819   2.974   8.968  0.7730 -0.0161  0.1367
17028SOL     OW52822   8.358   4.053   8.925  0.0209 -0.3100  0.7944
17028SOL    HW152823   8.438   4.071   8.974 -1.9048  2.9068  3.2019
17028SOL    HW252824   8.345   4.132   8.871 -1.0024 -1.2450 -0.3834
17029SOL     OW52825   9.201   7.150   7.276 -0.1169  0.2803 -0.0565
17029SOL    HW152826   9.288   7.132   7.312 -0.6995  0.2808  1.3938
17029SOL    HW252827   9.147   7.173   7.351 -1.0860  1.5328 -1.0770
17030SOL     OW52828   7.437   1.644   9.141 -0.0697 -0.3436  0.6458
17030SOL    HW152829   7.431   1.694   9.060  1.5125 -1.1829 -0.0237
17030SOL    HW252830   7.446   1.710   9.210 -0.3307  0.3378  0.0411
17031SOL     OW52831   7.083   2.571   4.201  0.4011 -0.2758 -0.2475
17031SOL    HW152832   7.004   2.516   4.205 -0.2330  0.5066 -1.3725
17031SOL    HW252833   7.153   2.513   4.230 -0.3771 -1.4401 -0.5915
17032SOL     OW52834   3.053   9.075   9.375 -0.2970 -0.2285  0.4465
17032SOL    HW152835   3.102   8.996   9.355  0.1343 -0.2386  1.4884
17032SOL    HW252836   3.090   9.142   9.317  0.7582 -0.3021  1.0241
17033SOL     OW52837   6.728   3.284   2.099 -0.1087  0.4658  0.0377
17033SOL    HW152838   6.681   3.319   2.023 -2.5023 -1.0333  0.7249
17033SOL    HW252839   6.773   3.360   2.136 -0.0483  1.5112 -2.0240
17034SOL     OW52840   3.278   8.368   1.394 -0.0828 -0.1714  0.1453
17034SOL    HW152841   3.298   8.288   1.443  0.3329 -0.0470  0.1796
17034SOL    HW252842   3.216   8.340   1.327  0.1812 -0.5560  0.0594
17035SOL     OW52843   4.863   2.473   6.749 -0.1157  0.0289  0.2251
17035SOL    HW152844   4.901   2.409   6.688  1.6972  0.0317  1.2894
17035SOL    HW252845   4.925   2.546   6.749 -0.1485  0.0875  1.9526
17036SOL     OW52846   4.627   6.566   3.496 -0.0365  1.0338 -0.0444
17036SOL    HW152847   4.704   6.547   3.548 -0.5579 -0.1116  0.3330
17036SOL    HW252848   4.554   6.564   3.559 -0.4885  1.1921 -0.5533
17037SOL     OW52849   6.370   1.758   5.216 -0.1793 -0.6150  0.8663
17037SOL    HW152850   6.339   1.832   5.270 -1.5967  1.6734 -2.6668
17037SOL    HW252851   6.290   1.721   5.179  0.7778 -0.4221 -1.5540
17038SOL     OW52852   0.723   0.534   3.129 -0.2428  0.2983  0.0547
17038SOL    HW152853   0.762   0.600   3.185  0.3957  0.6500 -0.7883
17038SOL    HW252854   0.749   0.450   3.168  1.5556  0.5193 -0.6056
17039SOL     OW52855   0.600   7.560   3.710  0.1179  0.0328 -0.1400
17039SOL    HW152856   0.614   7.524   3.797  2.5585  0.7988 -0.1573
17039SOL    HW252857   0.686   7.588   3.681 -0.3261 -1.5374 -3.4392
17040SOL     OW52858   7.959   0.502   2.269 -0.2811  0.0961  0.1168
17040SOL    HW152859   7.900   0.544   2.207 -1.4843  1.1627  1.8842
17040SOL    HW252860   8.046   0.512   2.231 -1.0929 -0.6359 -2.0802
17041SOL     OW52861   8.145   0.788   6.227  0.4805 -0.2257 -0.3853
17041SOL    HW152862   8.178   0.877   6.236  0.4731 -0.1695 -0.9173
17041SOL    HW252863   8.129   0.777   6.134 -2.8970  0.4288 -0.0206
17042SOL     OW52864   8.185   7.957   6.278 -0.0880  0.6765 -0.1551
17042SOL    HW152865   8.183   7.888   6.345  0.7145  0.2714 -0.5433
17042SOL    HW252866   8.269   7.945   6.234  0.1968  2.0916 -0.0361
17043SOL     OW52867   1.198   1.460   6.523 -0.3698  0.2551  0.3760
17043SOL    HW152868   1.272   1.516   6.546 -0.3166  0.0695  0.6514
17043SOL    HW252869   1.134   1.520   6.484 -0.2243  0.4736  0.4728
17044SOL     OW52870   2.776   4.277   8.917 -0.4202  0.7590 -0.8337
17044SOL    HW152871   2.765   4.345   8.983  1.5042  0.7138 -0.4228
17044SOL    HW252872   2.784   4.324   8.834  0.7773  1.0574 -0.5645
17045SOL     OW52873   4.368   1.316   8.555 -0.6650 -0.3581 -0.1255
17045SOL    HW152874   4.427   1.388   8.576  2.1742 -3.0895  2.3226
17045SOL    HW252875   4.398   1.284   8.470 -1.3219  0.7150 -0.7735
17046SOL     OW52876   6.343   6.407   9.516 -0.2039  1.0545 -0.3369
17046SOL    HW152877   6.340   6.495   9.554  0.0396  0.8875  0.0769
17046SOL    HW252878   6.336   6.348   9.591  1.2235  0.7088 -0.4356
17047SOL     OW52879   2.314   3.722   9.611 -0.1205 -0.3322  0.0448
17047SOL    HW152880   2.374   3.766   9.551  0.9588 -1.5573  0.1741
17047SOL    HW252881   2.272   3.793   9.659 -0.5710  0.6530 -1.7301
17048SOL     OW52882   2.980   6.669   5.544 -0.2165  0.3318 -0.2458
17048SOL    HW152883   3.072   6.693   5.551 -0.2197 -0.0357  1.7775
17048SOL    HW252884   2.935   6.751   5.522  0.4824  0.7311 -0.1914
17049SOL     OW52885   8.382   0.113   0.444 -0.1686  0.2942 -0.2900
17049SOL    HW152886   8.409   0.188   0.497 -1.7474  1.8743 -1.6037
17049SOL    HW252887   8.451   0.102   0.380  0.5409 -0.0309  0.5102
17050SOL     OW52888   0.583   3.483   9.611 -0.3465 -0.1341  0.3267
17050SOL    HW152889   0.651   3.432   9.567  1.1207 -0.4469  2.7557
17050SOL    HW252890   0.609   3.483   9.704 -2.2029  2.0590  0.9460
17051SOL     OW52891   7.556   3.972   2.806  0.6079 -0.8203 -0.1227
17051SOL    HW152892   7.650   3.959   2.794  1.0654  2.4226 -0.9688
17051SOL    HW252893   7.540   3.951   2.899  2.2758 -0.8609  0.1804
17052SOL     OW52894   6.003   2.228   1.316 -0.1768  0.2300 -0.3995
17052SOL    HW152895   5.996   2.281   1.395  0.4739 -0.3111  0.0254
17052SOL    HW252896   5.915   2.230   1.278 -0.0803  1.9496 -0.6208
17053SOL     OW52897   0.486   5.299   4.630 -0.3269  0.0539  0.0087
17053SOL    HW152898   0.490   5.386   4.668 -0.6639 -0.0875  0.3705
17053SOL    HW252899   0.482   5.239   4.705 -0.4524 -0.2538 -0.2397
17054SOL     OW52900   3.804   8.708   3.290 -0.2573 -0.3636  0.3840
17054SOL    HW152901   3.814   8.803   3.294 -0.7297 -0.3248  3.2778
17054SOL    HW252902   3.882   8.674   3.333  0.2169 -1.3619 -1.1872
17055SOL     OW52903   1.252   6.936   2.110 -0.0380 -0.4304 -0.0402
17055SOL    HW152904   1.272   6.849   2.145 -0.3649 -0.6054 -0.2698
17055SOL    HW252905   1.323   6.954   2.048 -0.5004 -0.9901 -0.7580
17056SOL     OW52906   1.385   0.442   8.018 -0.3954  0.1699 -0.1522
17056SOL    HW152907   1.417   0.413   7.933  1.1760  1.1229  0.0901
17056SOL    HW252908   1.419   0.376   8.079 -2.4099 -1.1198 -0.3218
17057SOL     OW52909   3.961   6.211   8.245 -0.6676  0.2791  0.6555
17057SOL    HW152910   4.030   6.220   8.178 -1.8756  0.1806 -0.6431
17057SOL    HW252911   3.962   6.117   8.267 -1.1361  0.0652 -0.2011
17058SOL     OW52912   0.913   1.359   0.825 -0.3900 -0.2183 -0.5158
17058SOL    HW152913   0.977   1.387   0.759  1.3177  2.1632  1.8880
17058SOL    HW252914   0.836   1.413   0.808 -1.0191 -1.5480 -2.1152
17059SOL     OW52915   3.369   1.705   2.595  0.1957  0.2656  0.3023
17059SOL    HW152916   3.354   1.675   2.684  0.0997  0.3849  0.3261
17059SOL    HW252917   3.435   1.774   2.604 -0.6095  1.0246  0.3974
17060SOL     OW52918   6.806   1.067   4.994  0.0007 -0.2634  0.1726
17060SOL    HW152919   6.750   1.051   4.918 -2.2901 -0.2188  1.7608
17060SOL    HW252920   6.832   0.979   5.024  2.0587 -0.2543 -1.3833
17061SOL     OW52921   2.124   6.520   5.000  0.5354 -0.0954  0.2695
17061SOL    HW152922   2.108   6.461   5.073  0.7929  0.4093  0.7413
17061SOL    HW252923   2.219   6.520   4.989  0.4335 -1.2729 -1.0066
17062SOL     OW52924   0.056   0.057   5.897  0.1409 -0.4649 -0.0277
17062SOL    HW152925   0.072   0.083   5.806 -0.9404  0.1339 -0.0774
17062SOL    HW252926   0.142   0.034   5.931  0.6543 -0.1202 -1.0300
17063SOL     OW52927   5.970   9.234   3.744  0.2994 -0.5381 -0.0790
17063SOL    HW152928   5.968   9.316   3.695 -1.3446 -0.0631  0.7000
17063SOL    HW252929   5.999   9.168   3.681 -1.0109  0.1926 -1.4876
17064SOL     OW52930   7.270   7.763   0.741 -0.1917  0.2150  0.1567
17064SOL    HW152931   7.229   7.740   0.824 -0.7729  0.3955 -0.0776
17064SOL    HW252932   7.360   7.731   0.749 -0.0943  0.6863  1.0543
17065SOL     OW52933   1.860   1.143   3.283  0.3199 -0.4291 -0.3995
17065SOL    HW152934   1.930   1.182   3.335 -0.3627 -0.5628  0.6331
17065SOL    HW252935   1.822   1.076   3.339  0.5991 -1.6995 -1.6660
17066SOL     OW52936   1.887   4.636   1.374  0.0683 -0.3015 -0.0234
17066SOL    HW152937   1.906   4.683   1.455  1.1806  0.1376 -0.5218
17066SOL    HW252938   1.802   4.669   1.346 -0.4161 -0.5985  1.0591
17067SOL     OW52939   1.731   8.015   5.034 -0.0120 -0.0976 -0.0861
17067SOL    HW152940   1.715   8.085   5.097  0.4504  0.0388 -0.1181
17067SOL    HW252941   1.753   7.939   5.088  1.5455  0.3193 -0.1100
17068SOL     OW52942   1.069   1.458   4.427  0.0769 -0.5079 -0.4216
17068SOL    HW152943   1.061   1.552   4.414  0.4264 -0.2504  1.0624
17068SOL    HW252944   1.157   1.436   4.397  0.1914 -0.2655 -0.2630
17069SOL     OW52945   0.979   9.245   3.910 -0.1188  0.2272  0.0085
17069SOL    HW152946   0.996   9.163   3.862  0.1983  0.6995 -0.7016
17069SOL    HW252947   0.884   9.247   3.920 -0.0455 -0.8760  1.2094
17070SOL     OW52948   1.482   7.667   4.138  0.1373  0.4579  0.6126
17070SOL    HW152949   1.387   7.667   4.151 -0.3677  0.5226 -2.3773
17070SOL    HW252950   1.510   7.756   4.160 -0.7477  0.8677  0.1320
17071SOL     OW52951   4.609   2.174   6.687  0.7203 -0.0607 -0.2333
17071SOL    HW152952   4.612   2.175   6.782  0.7127  2.5804 -0.1949
17071SOL    HW252953   4.548   2.104   6.666  0.1453 -0.2032  1.7205
17072SOL     OW52954   0.451   1.040   1.998 -0.1528  0.1150  0.7471
17072SOL    HW152955   0.433   0.996   1.915 -1.3965 -0.3399  1.2325
17072SOL    HW252956   0.386   1.005   2.059  0.3802  0.8463  1.7806
17073SOL     OW52957   1.644   8.852   6.568  0.1147  0.0657  0.4001
17073SOL    HW152958   1.656   8.844   6.473 -0.2655 -1.4537  0.4470
17073SOL    HW252959   1.732   8.848   6.604  0.2854  0.9606  0.1040
17074SOL     OW52960   6.656   5.391   4.426 -0.3230  0.3473  0.7742
17074SOL    HW152961   6.675   5.374   4.334 -1.2172  0.8323  0.4909
17074SOL    HW252962   6.562   5.379   4.434 -0.5208  1.9409  1.2552
17075SOL     OW52963   5.723   4.740   2.422 -0.3355 -0.4096 -0.1914
17075SOL    HW152964   5.686   4.716   2.338  0.5244  2.2620 -1.4365
17075SOL    HW252965   5.654   4.788   2.467 -0.6070 -1.3574  0.4470
17076SOL     OW52966   1.195   7.093   9.456  0.2278  0.0077 -0.3414
17076SOL    HW152967   1.126   7.036   9.419 -1.0114 -0.0599  1.8882
17076SOL    HW252968   1.274   7.039   9.454 -1.2223 -2.6163  3.1804
17077SOL     OW52969   6.043   1.720   1.656  0.5818  0.5620  0.3175
17077SOL    HW152970   6.081   1.703   1.570 -1.1188 -0.0479 -0.3763
17077SOL    HW252971   6.082   1.802   1.684  1.3382  0.6576 -0.9408
17078SOL     OW52972   1.882   4.536   0.659 -0.1220  0.3847  0.3281
17078SOL    HW152973   1.834   4.614   0.631  0.3238  0.8038  0.7054
17078SOL    HW252974   1.823   4.463   0.641 -1.2224  0.9412  1.5160
17079SOL     OW52975   6.724   4.927   8.748  0.4164  0.3379  0.0556
17079SOL    HW152976   6.697   4.951   8.659 -0.4810 -1.1222 -0.0927
17079SOL    HW252977   6.799   4.984   8.766  0.3515  0.9549 -1.4756
17080SOL     OW52978   4.409   3.608   8.354  0.4405 -0.7669 -0.3071
17080SOL    HW152979   4.441   3.518   8.350 -0.5970 -1.2271  0.8272
17080SOL    HW252980   4.462   3.649   8.423 -1.6954 -1.7323  2.0814
17081SOL     OW52981   3.242   9.074   0.693  0.3126 -0.1927  0.3137
17081SOL    HW152982   3.186   9.033   0.759  0.8950  0.3462  1.1680
17081SOL    HW252983   3.262   9.004   0.631 -0.7391 -0.5595  0.3697
17082SOL     OW52984   8.198   1.281   9.243 -0.5021  0.3571 -0.0375
17082SOL    HW152985   8.276   1.322   9.280 -0.0686 -0.9781  0.6151
17082SOL    HW252986   8.231   1.204   9.196 -1.3894 -0.0745  0.0187
17083SOL     OW52987   4.737   0.826   2.732 -0.7892  0.1985  0.3714
17083SOL    HW152988   4.800   0.784   2.791 -1.0630 -0.3654  0.2701
17083SOL    HW252989   4.745   0.778   2.650 -0.4420  0.9528 -0.0494
17084SOL     OW52990   0.807   0.895   8.491 -0.0892  0.2856 -0.3007
17084SOL    HW152991   0.756   0.915   8.412  0.5699 -0.8228 -1.0322
17084SOL    HW252992   0.782   0.805   8.513  0.9581  0.0143 -0.2038
17085SOL     OW52993   3.658   6.266   9.235  0.0800 -0.3924 -0.2999
17085SOL    HW152994   3.746   6.289   9.207  0.1065 -1.0020 -0.7381
17085SOL    HW252995   3.645   6.177   9.203 -0.0911 -0.9307  1.1822
17086SOL     OW52996   1.461   1.415   6.325  0.2696 -0.4108  0.0241
17086SOL    HW152997   1.548   1.454   6.312  0.3377 -0.8146 -0.7877
17086SOL    HW252998   1.447   1.361   6.247 -0.9373  0.0591 -0.1076
17087SOL     OW52999   5.490   0.930   0.320  0.0391  0.3949 -0.0094
17087SOL    HW153000   5.458   0.976   0.242  1.5487 -1.2765 -1.7095
17087SOL    HW253001   5.481   0.995   0.390 -0.4414  2.3388 -1.7413
17088SOL     OW53002   0.362   1.736   8.332 -0.2631  0.5410 -0.0751
17088SOL    HW153003   0.301   1.810   8.327 -0.2115  0.7568  1.7822
17088SOL    HW253004   0.438   1.771   8.379 -1.4344 -1.3241  3.6080
17089SOL     OW53005   4.606   9.390   2.602 -0.2956 -0.1778 -0.2133
17089SOL    HW153006   4.699   9.397   2.621 -0.2619 -1.9647  0.4770
17089SOL    HW253007   4.563   9.401   2.686 -0.8610  2.0224 -0.7151
17090SOL     OW53008   2.596   4.833   4.051  0.0470  0.1752  0.0170
17090SOL    HW153009   2.525   4.828   3.987  0.2441  0.0994 -0.1944
17090SOL    HW253010   2.604   4.743   4.084 -1.5562  0.6162  1.7828
17091SOL     OW53011   5.690   1.789   6.610  0.0714  0.3876  0.1860
17091SOL    HW153012   5.633   1.851   6.564 -1.1752 -0.7702  0.1015
17091SOL    HW253013   5.777   1.805   6.575 -0.6102  0.5177 -1.5314
17092SOL     OW53014   0.707   9.024   5.165 -0.3652  0.4680  0.4852
17092SOL    HW153015   0.614   9.041   5.179 -0.2419  2.5628 -0.7584
17092SOL    HW253016   0.718   8.931   5.186 -3.4325 -0.8258 -2.5897
17093SOL     OW53017   5.296   7.821   6.990  0.3918 -0.0446  0.3364
17093SOL    HW153018   5.255   7.760   7.052 -0.9564  0.9861  0.4967
17093SOL    HW253019   5.335   7.889   7.046  0.6881 -0.0189  0.1018
17094SOL     OW53020   0.453   9.016   6.095 -0.0590  0.4425 -0.3259
17094SOL    HW153021   0.407   8.934   6.110 -0.1282  0.7919  1.6211
17094SOL    HW253022   0.498   9.035   6.177  1.2456  1.5735 -1.2372
17095SOL     OW53023   8.647   6.998   3.244 -0.1390  0.6260  0.5920
17095SOL    HW153024   8.717   6.996   3.178 -1.1474  2.4736 -0.6393
17095SOL    HW253025   8.692   6.984   3.327  1.4659  0.1759 -0.3043
17096SOL     OW53026   4.512   4.636   0.417  0.1396  0.0322  0.3804
17096SOL    HW153027   4.554   4.578   0.353 -0.4343 -0.4206  0.3990
17096SOL    HW253028   4.500   4.581   0.495 -0.3361  0.2010  0.4299
17097SOL     OW53029   9.590   8.511   2.243  0.2044  0.1017 -0.0481
17097SOL    HW153030   9.638   8.439   2.284  1.3540  0.4570 -0.7321
17097SOL    HW253031   9.562   8.477   2.158 -0.3265  0.0598  0.1421
17098SOL     OW53032   1.934   8.613   4.574  0.5918 -0.1204 -0.3769
17098SOL    HW153033   1.882   8.538   4.602  0.9744 -0.2682 -0.0455
17098SOL    HW253034   2.019   8.577   4.551  0.8846  0.2444  0.1030
17099SOL     OW53035   0.742   0.495   6.352 -0.0368 -0.2415  0.1830
17099SOL    HW153036   0.837   0.497   6.368  0.0382 -2.4687  0.4392
17099SOL    HW253037   0.708   0.438   6.421 -1.7122  1.2094  0.6146
17100SOL     OW53038   8.319   2.408   8.448  0.2464  0.0485 -0.1836
17100SOL    HW153039   8.316   2.444   8.537  1.9928  1.0430 -0.4914
17100SOL    HW253040   8.241   2.443   8.405 -0.2365  0.1384  0.7390
17101SOL     OW53041   1.564   5.431   7.350  0.4110 -0.2209  0.4801
17101SOL    HW153042   1.621   5.370   7.397  1.4261 -0.7311 -1.3126
17101SOL    HW253043   1.487   5.441   7.406  1.6573 -0.5781  2.3364
17102SOL     OW53044   4.492   5.254   5.201  0.5839  0.5269  0.2105
17102SOL    HW153045   4.429   5.191   5.236  2.1697 -1.4515 -0.2467
17102SOL    HW253046   4.568   5.200   5.176  1.4517  2.4484 -1.6322
17103SOL     OW53047   4.292   6.071   1.104  0.4090  0.0957  1.0130
17103SOL    HW153048   4.259   6.161   1.100  1.5772  0.5006 -1.4198
17103SOL    HW253049   4.233   6.022   1.046  0.5705 -0.4161  1.2816
17104SOL     OW53050   9.163   8.682   8.601 -0.5813 -0.2258 -0.1817
17104SOL    HW153051   9.218   8.604   8.592 -1.0092 -0.4872 -0.6045
17104SOL    HW253052   9.074   8.647   8.610 -0.6454  0.1761  0.8278
17105SOL     OW53053   6.053   3.845   6.876  0.1031  0.2346 -0.1355
17105SOL    HW153054   6.067   3.915   6.812  0.5175  0.2833  0.0070
17105SOL    HW253055   5.960   3.823   6.867 -0.4069  1.8256  0.8211
17106SOL     OW53056   4.393   9.440   9.137 -0.5030 -0.1258 -0.2591
17106SOL    HW153057   4.305   9.403   9.146 -0.4687  0.0537  0.9719
17106SOL    HW253058   4.379   9.535   9.141 -0.2336 -0.1033  0.2551
17107SOL     OW53059   5.553   3.130   8.198  0.4287 -0.2194  0.2917
17107SOL    HW153060   5.498   3.183   8.256  1.1240 -0.3516  1.0872
17107SOL    HW253061   5.504   3.049   8.186  0.1080 -0.0412  0.3894
17108SOL     OW53062   8.222   0.752   2.003 -0.7617  0.1357  0.1704
17108SOL    HW153063   8.144   0.805   2.020  0.7777  2.7348 -0.4339
17108SOL    HW253064   8.248   0.776   1.914  0.2020 -1.4326 -0.0103
17109SOL     OW53065   2.025   2.889   7.430  0.1887  0.3197 -0.2655
17109SOL    HW153066   1.930   2.892   7.420  0.2706  1.2647 -0.9054
17109SOL    HW253067   2.042   2.805   7.472 -0.9072  0.0255 -0.3756
17110SOL     OW53068   6.102   7.338   4.135  0.4331  0.1806 -0.3119
17110SOL    HW153069   6.011   7.338   4.163  0.3014  1.0368 -0.7020
17110SOL    HW253070   6.116   7.251   4.097 -0.9552  0.8667 -2.5635
17111SOL     OW53071   3.971   9.036   7.709  0.0634  0.2313  0.4915
17111SOL    HW153072   4.023   8.958   7.693 -1.7921 -1.3049  1.5333
17111SOL    HW253073   4.006   9.074   7.789  0.2691 -0.1649  0.5872
17112SOL     OW53074   4.835   7.143   8.297 -0.6982 -0.7241 -0.3914
17112SOL    HW153075   4.908   7.130   8.236 -0.5170 -2.2214  0.1166
17112SOL    HW253076   4.874   7.132   8.384 -0.8711  1.7864  0.0837
17113SOL     OW53077   0.217   0.344   7.199 -0.7194 -0.0318  0.0940
17113SOL    HW153078   0.280   0.413   7.215  0.0883 -0.7036 -0.1052
17113SOL    HW253079   0.263   0.263   7.224 -0.3198 -0.8807 -2.9266
17114SOL     OW53080   8.327   9.019   0.422  0.5862  0.0853 -0.6056
17114SOL    HW153081   8.411   9.055   0.450 -0.6697  2.0495  0.9303
17114SOL    HW253082   8.288   8.984   0.502 -0.4972  0.1443 -1.0884
17115SOL     OW53083   4.664   0.782   0.474 -0.3262 -0.0511 -0.6967
17115SOL    HW153084   4.630   0.835   0.401  1.3864  0.3431 -1.2443
17115SOL    HW253085   4.731   0.837   0.514  0.7529 -1.3770 -0.6135
17116SOL     OW53086   9.547   2.545   8.000 -0.0908 -0.3997 -0.2655
17116SOL    HW153087   9.567   2.535   8.093  2.2780  1.2174 -0.5075
17116SOL    HW253088   9.453   2.527   7.994 -0.3466 -0.4660  2.4469
17117SOL     OW53089   7.258   3.890   4.801 -0.3768 -0.2475  0.3297
17117SOL    HW153090   7.312   3.877   4.723 -2.9452 -0.5260 -1.5444
17117SOL    HW253091   7.235   3.983   4.799 -1.5473 -0.5381 -0.0236
17118SOL     OW53092   6.220   0.085   4.126  1.0277 -0.1012  0.0668
17118SOL    HW153093   6.185   0.048   4.045  0.9632 -0.5006  0.2742
17118SOL    HW253094   6.199   0.020   4.193  0.5840  0.4719  0.5038
17119SOL     OW53095   5.393   2.262   7.920  0.0346 -0.2567 -0.1254
17119SOL    HW153096   5.331   2.218   7.861  0.2934  0.8426 -1.2775
17119SOL    HW253097   5.338   2.307   7.984 -0.4787  1.4533 -1.6667
17120SOL     OW53098   5.445   0.274   2.812 -0.0164  0.0883 -0.5124
17120SOL    HW153099   5.392   0.283   2.733 -0.5848 -0.0917 -0.1567
17120SOL    HW253100   5.417   0.191   2.851  0.2623  0.1749 -0.1194
17121SOL     OW53101   5.172   3.157   7.143  0.4129 -0.2131  0.0335
17121SOL    HW153102   5.137   3.228   7.089  0.2672  0.6981  1.2673
17121SOL    HW253103   5.265   3.153   7.121  0.2257 -0.3209 -0.7642
17122SOL     OW53104   6.949   9.365   4.677  0.1074  0.3429 -0.0660
17122SOL    HW153105   7.029   9.393   4.632  0.1424 -0.6498 -0.6589
17122SOL    HW253106   6.897   9.445   4.685  1.6284  1.2470  1.3977
17123SOL     OW53107   5.829   3.012   3.058  0.0847 -0.1732 -0.3485
17123SOL    HW153108   5.854   2.955   2.985 -2.1504 -0.9688 -0.5622
17123SOL    HW253109   5.736   2.995   3.071  0.1414  0.8715  1.9039
17124SOL     OW53110   6.288   2.584   4.998  0.1450  0.2666  0.4126
17124SOL    HW153111   6.379   2.576   4.968  0.1166  3.4525 -0.9058
17124SOL    HW253112   6.294   2.578   5.094  1.5906 -0.5164  0.3013
17125SOL     OW53113   1.153   2.429   7.614  0.1051  0.0167 -0.0497
17125SOL    HW153114   1.215   2.365   7.578 -0.3610  0.2873 -1.3701
17125SOL    HW253115   1.077   2.424   7.557  0.1136  1.8747 -0.2865
17126SOL     OW53116   9.452   4.063   3.804 -0.1724  0.0270  0.0804
17126SOL    HW153117   9.458   4.140   3.747 -1.4812  0.1599  0.0879
17126SOL    HW253118   9.402   3.999   3.753 -0.2040 -0.3391  0.5651
17127SOL     OW53119   6.829   1.131   8.204 -0.5396  0.0733 -0.6698
17127SOL    HW153120   6.773   1.197   8.163 -1.1327 -0.8807 -1.4461
17127SOL    HW253121   6.875   1.090   8.131 -0.0386 -0.2612 -0.1763
17128SOL     OW53122   2.440   2.827   6.893 -0.3059  0.2242  0.0967
17128SOL    HW153123   2.510   2.891   6.903 -0.1858  0.2588 -0.8043
17128SOL    HW253124   2.383   2.865   6.826 -1.1167  0.1373  0.7365
17129SOL     OW53125   4.896   7.755   5.797 -0.4273  0.0343 -0.0812
17129SOL    HW153126   4.911   7.672   5.753 -1.5647  0.6574 -1.7361
17129SOL    HW253127   4.862   7.731   5.883 -1.0294 -1.2090 -0.6470
17130SOL     OW53128   6.752   5.695   5.176  0.0647 -0.3326  0.0794
17130SOL    HW153129   6.680   5.734   5.225 -1.1421  0.0780 -1.9313
17130SOL    HW253130   6.766   5.753   5.102  1.4757 -1.2023 -0.3894
17131SOL     OW53131   6.455   2.351   6.771 -0.1878 -0.6149  0.3603
17131SOL    HW153132   6.402   2.276   6.800  1.0621 -1.9945 -0.7529
17131SOL    HW253133   6.489   2.324   6.686 -0.1564  1.4868 -0.3406
17132SOL     OW53134   1.725   4.143   4.945  0.1108 -0.2653  0.6883
17132SOL    HW153135   1.641   4.130   4.988 -0.0074  1.1914  0.9367
17132SOL    HW253136   1.751   4.232   4.969  0.2674  0.4386 -1.8342
17133SOL     OW53137   2.737   7.329   6.639 -0.4160  0.0689 -0.2083
17133SOL    HW153138   2.729   7.419   6.671 -0.3789  0.4788 -1.3042
17133SOL    HW253139   2.830   7.310   6.644 -0.5585 -0.3489  1.1453
17134SOL     OW53140   5.335   8.283   3.239  0.0420 -0.4628  0.7304
17134SOL    HW153141   5.278   8.350   3.200  0.2837  0.0300  1.2066
17134SOL    HW253142   5.339   8.306   3.332  3.3334  1.3136  0.2985
17135SOL     OW53143   0.241   3.011   4.185 -0.3329 -0.1921 -0.2290
17135SOL    HW153144   0.216   2.991   4.095 -0.7997 -1.0071  0.0666
17135SOL    HW253145   0.165   3.058   4.221 -0.2284 -0.0437 -0.2008
17136SOL     OW53146   5.708   4.386   0.501 -0.3929 -0.0205 -0.0067
17136SOL    HW153147   5.714   4.391   0.597  0.5444 -2.2444  0.1244
17136SOL    HW253148   5.617   4.405   0.481 -0.3929  1.4778  1.2091
17137SOL     OW53149   7.531   6.883   5.881 -0.1787 -0.3494  0.4496
17137SOL    HW153150   7.459   6.866   5.820  1.2376 -1.6641 -0.9395
17137SOL    HW253151   7.533   6.979   5.888 -1.7576 -0.2671  0.1685
17138SOL     OW53152   8.563   0.973   3.130 -0.1323 -0.0190  0.0247
17138SOL    HW153153   8.551   0.879   3.116 -1.2646 -0.0124  0.8420
17138SOL    HW253154   8.653   0.980   3.163  0.0034 -0.8017 -0.1461
17139SOL     OW53155   3.433   1.395   4.743  0.1275  0.1181 -0.5929
17139SOL    HW153156   3.528   1.405   4.746  0.0453  0.7691  0.1328
17139SOL    HW253157   3.409   1.361   4.830 -0.5719  2.6426  0.2849
17140SOL     OW53158   3.952   4.444   8.040 -0.1514 -0.4149 -0.1034
17140SOL    HW153159   3.903   4.428   8.121 -1.7618 -3.5891 -1.5124
17140SOL    HW253160   4.036   4.400   8.055  0.8163  1.6180  0.8496
17141SOL     OW53161   9.119   0.003   1.659 -0.3100 -0.2439  0.0043
17141SOL    HW153162   9.039   0.044   1.627  1.1356  2.2289 -0.6959
17141SOL    HW253163   9.089  -0.067   1.717 -2.9725  1.5737  1.0177
17142SOL     OW53164   3.787   7.612   4.081 -0.5048  0.1499  0.1076
17142SOL    HW153165   3.877   7.590   4.105 -0.5448 -1.1631 -0.8021
17142SOL    HW253166   3.747   7.640   4.163  0.1771 -1.2832  0.9824
17143SOL     OW53167   6.822   8.653   7.067  0.1449  0.6418  0.3946
17143SOL    HW153168   6.790   8.564   7.079  1.4343  0.0864 -0.2014
17143SOL    HW253169   6.742   8.707   7.066 -0.6564 -0.5107  0.5364
17144SOL     OW53170   1.452   8.037   9.205 -0.0621 -0.1989 -0.4381
17144SOL    HW153171   1.524   8.087   9.243  0.8576  0.1806 -2.5341
17144SOL    HW253172   1.384   8.102   9.186 -0.9770 -0.5449  1.4653
17145SOL     OW53173   6.014   0.869   3.212  0.0618  0.0209  0.2797
17145SOL    HW153174   5.945   0.936   3.204  1.0624  0.8471 -2.8459
17145SOL    HW253175   6.000   0.811   3.138  1.3222 -1.2379  0.9727
17146SOL     OW53176   0.217   1.198   9.393  0.3538 -0.7170 -0.3477
17146SOL    HW153177   0.229   1.288   9.423 -0.6988 -0.3744 -0.9169
17146SOL    HW253178   0.233   1.202   9.298 -0.0191 -1.0566 -0.4298
17147SOL     OW53179   1.116   9.375   0.109 -0.2700  0.1588 -0.4508
17147SOL    HW153180   1.137   9.310   0.042 -1.1877  1.2293 -1.8375
17147SOL    HW253181   1.052   9.332   0.165  0.5575 -0.7725 -0.1815
17148SOL     OW53182   0.390   4.241   1.532 -0.5348 -0.3359  0.1034
17148SOL    HW153183   0.370   4.226   1.624 -2.9402 -0.3745 -0.3806
17148SOL    HW253184   0.392   4.154   1.493 -2.0048 -0.2131 -0.3123
17149SOL     OW53185   7.861   6.569   6.581  0.2006  0.0703 -0.2922
17149SOL    HW153186   7.837   6.530   6.497  2.6906 -0.2142 -0.9616
17149SOL    HW253187   7.817   6.514   6.646 -0.4713 -0.6968 -1.3514
17150SOL     OW53188   3.262   6.584   9.393 -0.6215 -0.3168  0.2087
17150SOL    HW153189   3.224   6.607   9.478  0.9720  0.3940  0.7568
17150SOL    HW253190   3.197   6.614   9.329 -1.5776 -0.3333  1.1486
17151SOL     OW53191   7.900   9.466   4.748  0.8339 -0.0133 -0.1507
17151SOL    HW153192   7.890   9.397   4.814 -1.6431  2.4752  2.3972
17151SOL    HW253193   7.993   9.487   4.749  1.1575 -1.3567  1.1529
17152SOL     OW53194   2.377   4.115   6.462  0.2721  0.2504 -0.7311
17152SOL    HW153195   2.419   4.180   6.518  1.7166 -1.5184  0.3519
17152SOL    HW253196   2.289   4.105   6.498  1.5935 -1.8865  2.3576
17153SOL     OW53197   9.215   6.518   3.255 -0.2248 -0.3754 -0.3069
17153SOL    HW153198   9.138   6.467   3.278 -1.1307  0.5299 -1.2462
17153SOL    HW253199   9.201   6.604   3.295 -0.2460  0.1480 -1.4144
17154SOL     OW53200   0.670   6.587   5.870 -0.4163 -0.0782 -0.0875
17154SOL    HW153201   0.679   6.495   5.895  1.1692  0.6082  2.1358
17154SOL    HW253202   0.586   6.614   5.908 -0.0579 -0.1672  0.7869
17155SOL     OW53203   5.357   1.999   4.397  0.1242  0.6173 -0.3986
17155SOL    HW153204   5.337   1.906   4.388 -0.8504  0.8919 -1.2319
17155SOL    HW253205   5.327   2.022   4.485 -0.9548  0.4578 -0.7211
17156SOL     OW53206   3.043   7.679   0.915  0.0971 -0.1578 -0.1728
17156SOL    HW153207   3.082   7.666   0.828  0.2259 -2.0959  0.1340
17156SOL    HW253208   3.116   7.710   0.969  1.0284 -2.5869  0.1026
17157SOL     OW53209   6.952   2.454   4.913  1.1351 -0.5407 -0.2352
17157SOL    HW153210   7.001   2.438   4.993 -0.2971  0.6578  0.9452
17157SOL    HW253211   6.982   2.540   4.883  1.1751 -0.6807 -0.5991
17158SOL     OW53212   5.467   4.556   5.245 -0.0712 -0.2053 -0.1725
17158SOL    HW153213   5.555   4.551   5.282  0.9058  1.2834 -2.1264
17158SOL    HW253214   5.469   4.497   5.170  0.5959  2.5201 -2.5056
17159SOL     OW53215   6.891   7.050   3.921  0.2375 -0.4086 -0.6033
17159SOL    HW153216   6.827   7.039   3.992 -0.5627  0.3546 -1.1864
17159SOL    HW253217   6.896   6.964   3.880  0.5572 -0.8084  0.2353
17160SOL     OW53218   2.900   0.844   2.029 -0.1700  0.1647  0.0353
17160SOL    HW153219   2.995   0.848   2.018 -0.1197 -0.9553 -0.0680
17160SOL    HW253220   2.886   0.766   2.083 -1.0172  0.4242  0.1969
17161SOL     OW53221   6.434   5.490   7.996 -0.2147  0.1563 -0.5762
17161SOL    HW153222   6.450   5.396   8.003  1.5968  0.4521 -0.1835
17161SOL    HW253223   6.388   5.512   8.077  0.9311 -0.1142  0.1687
17162SOL     OW53224   6.405   8.711   1.081  0.0535 -0.5814  0.1449
17162SOL    HW153225   6.477   8.691   1.021  1.6194 -1.4876  2.1963
17162SOL    HW253226   6.328   8.719   1.024  1.0466 -3.3263 -1.8000
17163SOL     OW53227   7.611   0.908   9.580  0.6250 -0.1475  0.8146
17163SOL    HW153228   7.700   0.941   9.592  0.8570 -1.0016  1.5615
17163SOL    HW253229   7.622   0.816   9.556 -0.0556 -0.6016  2.1358
17164SOL     OW53230   3.911   3.149   3.232 -0.1234  0.5714 -0.1736
17164SOL    HW153231   3.828   3.196   3.217 -0.3201  0.3496  0.2161
17164SOL    HW253232   3.892   3.089   3.304  0.9722  2.0284  1.3899
17165SOL     OW53233   4.810   6.950   1.501 -0.1830  0.2588 -0.1640
17165SOL    HW153234   4.772   6.943   1.414 -0.5485  0.9081 -0.0615
17165SOL    HW253235   4.795   7.041   1.527 -0.4222 -0.0258  0.7365
17166SOL     OW53236   4.095   2.047   4.686 -0.2714  0.6418  0.4640
17166SOL    HW153237   4.102   2.118   4.623  3.8271  1.7456  1.8851
17166SOL    HW253238   4.079   1.969   4.632  0.2821  1.9132 -1.6638
17167SOL     OW53239   4.372   5.930   6.330 -0.0521  0.2062 -0.0888
17167SOL    HW153240   4.397   5.911   6.420 -1.0372  0.9272  0.3670
17167SOL    HW253241   4.454   5.937   6.282  0.4855 -0.0751  0.7809
17168SOL     OW53242   6.153   3.707   9.121  0.4589 -0.0312 -0.3848
17168SOL    HW153243   6.076   3.764   9.119 -0.2185 -0.9198 -0.1418
17168SOL    HW253244   6.139   3.649   9.196  1.3022 -0.2987 -0.4157
17169SOL     OW53245   1.014   0.825   4.205  0.5451 -0.3798  0.0796
17169SOL    HW153246   0.937   0.789   4.248  0.3796  0.4822  0.5299
17169SOL    HW253247   1.000   0.808   4.112  1.1374 -2.7075  0.3547
17170SOL     OW53248   6.239   9.600   2.801  0.7821 -0.3850  0.3755
17170SOL    HW153249   6.273   9.684   2.832 -1.1817  0.6759 -0.1727
17170SOL    HW253250   6.164   9.581   2.858 -0.2111 -0.5803 -0.9488
17171SOL     OW53251   3.206   7.834   5.606 -0.4690  0.2160 -0.6377
17171SOL    HW153252   3.266   7.901   5.640 -1.4677  0.7215  0.1951
17171SOL    HW253253   3.258   7.754   5.603  1.1788  1.2495 -2.9768
17172SOL     OW53254   9.250   7.449   7.655 -0.4171  0.1110 -0.2454
17172SOL    HW153255   9.288   7.500   7.726 -2.6874 -0.2079  1.3020
17172SOL    HW253256   9.289   7.485   7.575  2.1745  0.5232  1.0893
17173SOL     OW53257   5.370   8.549   8.622 -0.1767 -0.1133 -0.5929
17173SOL    HW153258   5.453   8.552   8.669 -0.0638 -1.0970 -0.7096
17173SOL    HW253259   5.308   8.513   8.686  0.2328 -2.6346 -1.4882
17174SOL     OW53260   6.419   2.036   0.158  0.1748  0.0533 -0.1167
17174SOL    HW153261   6.511   2.054   0.138  0.1211 -0.0956 -0.4854
17174SOL    HW253262   6.397   2.100   0.226  0.7671 -0.3969  0.5130
17175SOL     OW53263   1.118   4.286   8.706  0.6337 -0.7213 -0.3589
17175SOL    HW153264   1.092   4.375   8.730 -0.3203 -0.7779 -1.1292
17175SOL    HW253265   1.149   4.248   8.787 -0.4260 -0.1916  0.3151
17176SOL     OW53266   6.919   1.876   0.721 -0.1285 -0.0865 -0.5498
17176SOL    HW153267   7.003   1.908   0.754 -0.3172 -0.3814  0.2482
17176SOL    HW253268   6.897   1.935   0.649  0.0526  0.9095  0.1867
17177SOL     OW53269   6.653   1.365   9.188 -0.5813 -0.4953  0.0132
17177SOL    HW153270   6.660   1.431   9.257 -1.4435 -0.3362 -0.0354
17177SOL    HW253271   6.719   1.390   9.124 -0.6763  0.1354  0.1577
17178SOL     OW53272   9.142   9.611   3.190 -0.0626  0.2982 -0.1047
17178SOL    HW153273   9.177   9.566   3.113 -0.7896 -1.0303  0.3227
17178SOL    HW253274   9.047   9.604   3.180 -0.1688 -0.9413  1.5038
17179SOL     OW53275   5.989   1.508   1.256  0.0023  0.3452 -0.1040
17179SOL    HW153276   5.904   1.526   1.298  1.1068  0.5960  2.1361
17179SOL    HW253277   6.004   1.415   1.271  1.6321  0.9465  2.6092
17180SOL     OW53278   0.381   6.806   1.345  0.4929 -0.2028  0.0100
17180SOL    HW153279   0.422   6.785   1.261  0.5232  0.4970 -0.1571
17180SOL    HW253280   0.445   6.779   1.410  0.6861 -0.2867 -0.2141
17181SOL     OW53281   5.172   6.357   4.815  0.1297 -0.3718  0.7166
17181SOL    HW153282   5.240   6.351   4.747 -0.3220  0.0272  0.2246
17181SOL    HW253283   5.130   6.441   4.799  0.6649  0.1843  2.1095
17182SOL     OW53284   1.298   3.793   0.677 -0.5432  0.1218 -0.0629
17182SOL    HW153285   1.382   3.747   0.675 -0.3308  0.4793  0.5638
17182SOL    HW253286   1.233   3.723   0.673 -0.2340 -0.1273 -1.3776
17183SOL     OW53287   5.903   7.163   5.589 -0.1513 -0.4635 -0.5109
17183SOL    HW153288   5.946   7.238   5.548 -0.9441 -0.4302 -1.3156
17183SOL    HW253289   5.892   7.188   5.680  1.6418 -0.5337 -0.2455
17184SOL     OW53290   6.548   3.204   8.068 -0.0608 -0.4634 -0.4372
17184SOL    HW153291   6.596   3.122   8.058 -1.3302 -1.2866  0.0279
17184SOL    HW253292   6.603   3.255   8.128  0.6461 -1.0447 -0.5679
17185SOL     OW53293   5.894   9.317   3.991  0.1763  0.1069  0.0420
17185SOL    HW153294   5.922   9.269   3.913  0.7715 -1.4168  1.1445
17185SOL    HW253295   5.809   9.280   4.013  0.0014  0.5420  0.1068
17186SOL     OW53296   4.171   2.684   7.040  0.1995  0.1216 -0.1820
17186SOL    HW153297   4.239   2.616   7.041 -1.2932 -1.4698 -1.3739
17186SOL    HW253298   4.096   2.643   7.084 -0.5720  1.1873 -0.4784
17187SOL     OW53299   5.683   4.355   6.984  0.1406  0.8882  0.7657
17187SOL    HW153300   5.694   4.428   6.923  1.0079 -0.0312 -0.2045
17187SOL    HW253301   5.689   4.277   6.930  0.6306  0.0519  1.9766
17188SOL     OW53302   8.909   6.980   1.622 -0.4035 -0.0637 -0.0712
17188SOL    HW153303   8.935   7.036   1.695 -1.8630  1.1164 -0.3954
17188SOL    HW253304   8.987   6.930   1.601  0.6248  1.0135  1.0111
17189SOL     OW53305   3.880   3.222   1.955 -0.5806 -0.0186 -0.6534
17189SOL    HW153306   3.848   3.217   1.865 -1.2933 -0.6614 -0.3801
17189SOL    HW253307   3.855   3.310   1.985  1.0255  0.7703 -1.5634
17190SOL     OW53308   8.256   5.257   3.305  0.1338  0.2363  0.1393
17190SOL    HW153309   8.163   5.233   3.301  0.1277  0.3050 -0.1128
17190SOL    HW253310   8.256   5.343   3.348  0.0589  0.3729 -0.1359
17191SOL     OW53311   5.621   0.892   1.858  0.8068  0.2316  0.3116
17191SOL    HW153312   5.564   0.968   1.868 -1.0348 -1.0484 -0.0797
17191SOL    HW253313   5.690   0.906   1.922  0.1474  1.8935  0.7185
17192SOL     OW53314   2.802   4.964   2.435 -0.7194 -0.0604 -0.5527
17192SOL    HW153315   2.788   4.902   2.364 -0.5447  0.0773 -0.7109
17192SOL    HW253316   2.859   4.918   2.497 -0.5676 -0.0474 -0.6828
17193SOL     OW53317   1.468   3.986   7.100  0.0744 -0.5765  0.1667
17193SOL    HW153318   1.388   3.956   7.142  0.7134  0.9457  2.6696
17193SOL    HW253319   1.489   4.069   7.144  2.6099 -0.5316 -0.9341
17194SOL     OW53320   7.684   8.823   2.395 -0.2993 -0.2835 -0.4306
17194SOL    HW153321   7.657   8.806   2.305 -0.2939 -0.6060 -0.3711
17194SOL    HW253322   7.665   8.742   2.442 -0.6474  0.0101 -0.0597
17195SOL     OW53323   4.621   2.484   2.421  0.5277 -0.5451  0.2036
17195SOL    HW153324   4.642   2.531   2.340 -0.6478  0.2013  0.3041
17195SOL    HW253325   4.705   2.474   2.466  0.9085  0.8565 -0.1528
17196SOL     OW53326   6.837   0.385   2.093 -0.2461 -0.4941 -0.6697
17196SOL    HW153327   6.810   0.294   2.106  0.3147 -0.7573 -1.2809
17196SOL    HW253328   6.755   0.433   2.081 -0.5380 -0.9448 -0.5084
17197SOL     OW53329   4.044   5.948   7.730 -0.4542 -0.2361 -0.1852
17197SOL    HW153330   4.028   5.904   7.813 -1.0000  0.6394  0.1875
17197SOL    HW253331   3.958   5.974   7.699 -0.1294  0.7795 -0.2697
17198SOL     OW53332   2.115   8.030   2.269 -0.0050 -0.0041  0.0038
17198SOL    HW153333   2.124   8.102   2.206 -0.0674  0.8271  0.9111
17198SOL    HW253334   2.070   8.069   2.344  0.4485 -0.8502  0.7455
17199SOL     OW53335   8.621   5.324   7.677 -0.3519 -0.8943  0.6042
17199SOL    HW153336   8.571   5.359   7.604  0.3130 -1.1408  0.0136
17199SOL    HW253337   8.564   5.333   7.753 -0.5938  0.4957  0.2774
17200SOL     OW53338   4.385   4.966   6.712 -0.2122 -0.2141 -0.1044
17200SOL    HW153339   4.479   4.947   6.711 -0.2245 -0.3083  0.3765
17200SOL    HW253340   4.377   5.045   6.765 -0.1720  1.1432 -2.0204
17201SOL     OW53341   5.668   8.449   7.038 -0.0278  0.4711  0.4304
17201SOL    HW153342   5.749   8.458   7.089  1.0568 -1.9483 -0.7044
17201SOL    HW253343   5.690   8.485   6.952 -0.9200  1.8614  0.7568
17202SOL     OW53344   6.217   6.047   3.335  0.0054 -0.3031 -0.1019
17202SOL    HW153345   6.305   6.081   3.317 -0.4512  0.0905 -1.7445
17202SOL    HW253346   6.215   5.962   3.291 -1.0791  0.5881 -1.8757
17203SOL     OW53347   2.240   7.155   4.026 -0.1185 -0.7439  0.5559
17203SOL    HW153348   2.146   7.143   4.040  0.0022 -0.3681  1.7902
17203SOL    HW253349   2.280   7.128   4.108  0.6705  1.3390  0.9162
17204SOL     OW53350   5.093   5.623   2.257  0.5055 -0.0512 -0.0602
17204SOL    HW153351   5.078   5.707   2.213  2.0596  0.6786  0.7087
17204SOL    HW253352   5.070   5.557   2.192  1.8932  0.9924 -1.6932
17205SOL     OW53353   6.272   9.124   0.917  0.0464 -0.7166 -0.0959
17205SOL    HW153354   6.353   9.161   0.882 -0.6068 -1.5455 -2.7214
17205SOL    HW253355   6.264   9.038   0.875 -2.2471 -0.6014 -0.0489
17206SOL     OW53356   7.186   6.902   8.771  0.3124 -0.3479 -0.2567
17206SOL    HW153357   7.098   6.939   8.770 -0.2692 -1.6443  0.1066
17206SOL    HW253358   7.172   6.808   8.779  1.7131 -0.6853 -1.3439
17207SOL     OW53359   2.576   5.679   6.349  0.3232  0.3265  0.4071
17207SOL    HW153360   2.491   5.689   6.307  1.4364  0.7907 -1.8811
17207SOL    HW253361   2.620   5.762   6.335  2.5390 -1.0877 -1.8771
17208SOL     OW53362   2.085   3.927   2.351  0.2189  0.1394  0.5156
17208SOL    HW153363   2.074   4.017   2.318  1.3854  0.4418  0.8941
17208SOL    HW253364   1.996   3.893   2.358 -0.2641  1.3784  0.6680
17209SOL     OW53365   3.839   4.422   8.947 -0.2082  0.3359  0.4149
17209SOL    HW153366   3.839   4.327   8.933 -1.1038  0.3983 -0.0993
17209SOL    HW253367   3.781   4.435   9.022  1.3437  0.3457  1.6517
17210SOL     OW53368   5.587   4.292   2.209  0.4281 -0.2714  0.2647
17210SOL    HW153369   5.495   4.295   2.237 -0.2120  0.4295 -1.7246
17210SOL    HW253370   5.592   4.357   2.138  2.4160 -0.4473  0.2026
17211SOL     OW53371   8.142   5.276   5.013  0.4893 -0.2671  0.0057
17211SOL    HW153372   8.116   5.255   4.923 -1.8040 -1.3336  0.8615
17211SOL    HW253373   8.124   5.369   5.022  2.5898  0.3267 -1.1703
17212SOL     OW53374   7.146   6.189   0.971 -0.0478 -0.2474  0.3536
17212SOL    HW153375   7.081   6.258   0.986  0.5452  0.4118 -0.0384
17212SOL    HW253376   7.108   6.134   0.902 -0.0023  0.3923 -0.1883
17213SOL     OW53377   0.115   3.798   3.309 -0.7193  0.0404  0.0582
17213SOL    HW153378   0.066   3.801   3.391 -0.6751 -1.4989  0.1672
17213SOL    HW253379   0.207   3.796   3.336 -0.6671  0.4027 -0.0739
17214SOL     OW53380   0.360   6.341   0.790  0.3371 -0.4443 -0.0190
17214SOL    HW153381   0.284   6.388   0.825 -0.0505 -1.4495  0.5630
17214SOL    HW253382   0.350   6.346   0.695  0.6114  1.0938  0.0190
17215SOL     OW53383   3.187   9.171   1.059 -0.1902  0.5049 -0.0413
17215SOL    HW153384   3.110   9.153   1.005 -0.3728  0.9393  0.0653
17215SOL    HW253385   3.152   9.215   1.137  0.0479 -0.2977  0.5311
17216SOL     OW53386   1.796   4.605   9.109 -0.2669  0.0724  0.0882
17216SOL    HW153387   1.735   4.611   9.182 -1.4360 -0.7795 -0.7768
17216SOL    HW253388   1.828   4.694   9.097 -1.3634  0.5529  0.5564
17217SOL     OW53389   8.708   4.869   4.079  0.3347  0.2852  0.1459
17217SOL    HW153390   8.753   4.914   4.007 -0.4546 -0.7777 -1.0404
17217SOL    HW253391   8.709   4.776   4.054  0.9936 -0.2462  2.0329
17218SOL     OW53392   9.071   7.780   4.960  0.1489 -0.3214  0.2137
17218SOL    HW153393   8.980   7.766   4.986 -0.2921  1.0821 -0.4630
17218SOL    HW253394   9.122   7.746   5.034 -0.9699  0.2902  1.3220
17219SOL     OW53395   5.330   9.006   2.095  0.1335 -0.0127 -0.4808
17219SOL    HW153396   5.272   8.949   2.045 -0.4938 -0.7654  1.0370
17219SOL    HW253397   5.348   9.079   2.036 -2.2542  0.1886 -1.0981
17220SOL     OW53398   8.269   2.376   5.944  0.1416  0.2508  0.1433
17220SOL    HW153399   8.284   2.468   5.966 -0.3398  0.1937  0.7591
17220SOL    HW253400   8.350   2.347   5.902  0.5569  0.7659  0.5822
17221SOL     OW53401   7.149   0.356   0.091  0.0896 -0.5911  0.1880
17221SOL    HW153402   7.191   0.412   0.026 -1.0104  0.0096 -0.0270
17221SOL    HW253403   7.118   0.416   0.158 -2.3467 -0.7268 -0.7185
17222SOL     OW53404   7.173   7.825   4.063  0.0612  0.6752  0.1305
17222SOL    HW153405   7.129   7.811   3.979  0.9002 -2.1808  0.0651
17222SOL    HW253406   7.266   7.814   4.044  0.2187 -0.8536  1.4835
17223SOL     OW53407   0.113   1.535   1.186  0.1444 -0.6136  0.1098
17223SOL    HW153408   0.140   1.450   1.151 -1.5552 -0.6550 -1.1903
17223SOL    HW253409   0.144   1.534   1.277  1.6311 -1.9097 -0.3692
17224SOL     OW53410   0.636   5.256   5.207  0.0044  0.0678  0.1001
17224SOL    HW153411   0.605   5.185   5.151  0.4642  0.2194 -0.3654
17224SOL    HW253412   0.599   5.335   5.168  0.1320  0.1527  0.1476
17225SOL     OW53413   4.441   3.537   4.625 -0.0103 -0.1800 -0.2238
17225SOL    HW153414   4.432   3.516   4.718 -0.2575  0.0030 -0.2062
17225SOL    HW253415   4.455   3.453   4.582 -1.5035 -0.4424 -0.2227
17226SOL     OW53416   6.360   6.456   3.984 -0.2164  0.2005 -1.0315
17226SOL    HW153417   6.446   6.439   4.023 -1.3587 -0.3628  1.4575
17226SOL    HW253418   6.366   6.545   3.950  0.6291  1.1514  1.3651
17227SOL     OW53419   5.411   8.680   7.284  0.0589 -0.1504 -0.1213
17227SOL    HW153420   5.464   8.635   7.218 -0.3204 -0.4549 -0.2241
17227SOL    HW253421   5.385   8.762   7.242 -0.0399 -0.2673 -0.2912
17228SOL     OW53422   4.871   3.062   8.843  0.1135  0.6149 -0.4572
17228SOL    HW153423   4.938   3.107   8.894 -0.1325  1.8414 -1.1732
17228SOL    HW253424   4.790   3.077   8.891  0.0651  0.7841 -0.5876
17229SOL     OW53425   7.860   3.181   7.025  0.2359  0.5083  0.5055
17229SOL    HW153426   7.921   3.252   7.006 -1.8336  2.3627  0.4113
17229SOL    HW253427   7.818   3.162   6.941  1.0100 -1.1364  0.4477
17230SOL     OW53428   4.654   3.689   2.888 -0.0973 -0.5368  0.0406
17230SOL    HW153429   4.668   3.610   2.836 -0.7606 -2.1494  2.1382
17230SOL    HW253430   4.584   3.666   2.949  0.4653  1.2939  1.4844
17231SOL     OW53431   7.885   5.454   6.167 -0.1782  0.0916  0.1812
17231SOL    HW153432   7.913   5.542   6.143  0.2854 -0.3043 -0.8135
17231SOL    HW253433   7.820   5.431   6.100 -1.0763  0.0606  1.0397
17232SOL     OW53434   6.031   4.143   3.756 -0.2036 -0.4014 -0.0303
17232SOL    HW153435   5.952   4.180   3.795 -0.4322  0.3896 -1.2099
17232SOL    HW253436   6.032   4.175   3.666  1.5228 -0.2969 -0.0223
17233SOL     OW53437   9.163   2.301   2.439  0.2842 -0.2390  0.4881
17233SOL    HW153438   9.218   2.240   2.487 -1.3781  0.6998  3.8478
17233SOL    HW253439   9.166   2.382   2.490 -1.3078  1.0234 -1.2439
17234SOL     OW53440   7.060   5.707   0.748  0.2579  0.8399 -0.1404
17234SOL    HW153441   7.040   5.698   0.841  1.8742 -1.4382  0.0550
17234SOL    HW253442   7.128   5.774   0.744  1.6500 -0.4634  0.6065
17235SOL     OW53443   0.099   9.390   8.584 -0.5960 -0.1564  0.7488
17235SOL    HW153444   0.023   9.369   8.638 -1.7235 -0.2590 -0.8284
17235SOL    HW253445   0.063   9.431   8.505  1.1956  3.4666  1.5794
17236SOL     OW53446   1.941   3.620   4.487 -0.3417  0.0727  0.0945
17236SOL    HW153447   1.988   3.603   4.406 -2.5008 -0.5956 -1.0972
17236SOL    HW253448   1.932   3.534   4.528 -1.7953 -0.0836 -0.4763
17237SOL     OW53449   4.409   3.493   1.835  0.4249  0.3446  0.2086
17237SOL    HW153450   4.371   3.563   1.889 -1.1492  0.1529 -0.6177
17237SOL    HW253451   4.470   3.538   1.777  0.8935  0.7594  0.9991
17238SOL     OW53452   9.207   0.204   2.952 -0.2035 -0.2098  0.5650
17238SOL    HW153453   9.133   0.220   2.893 -0.5526  1.9626  1.4871
17238SOL    HW253454   9.275   0.265   2.923  1.6037 -2.6551 -0.7229
17239SOL     OW53455   1.019   5.117   7.060 -0.0747 -0.4380  0.5333
17239SOL    HW153456   1.074   5.192   7.084  0.6740 -1.3797  1.9142
17239SOL    HW253457   0.929   5.149   7.067  0.1395  1.6843 -3.5051
17240SOL     OW53458   4.530   3.221   1.814 -0.1911  0.3909 -0.7718
17240SOL    HW153459   4.552   3.200   1.905  1.4488 -0.7536 -1.3775
17240SOL    HW253460   4.531   3.317   1.810 -1.5973  0.5112  0.6749
17241SOL     OW53461   2.130   9.546   6.438  0.2199  0.3555 -0.6345
17241SOL    HW153462   2.139   9.616   6.502  2.3358 -1.2869  1.0476
17241SOL    HW253463   2.220   9.520   6.417 -0.4190 -2.3916 -0.4623
17242SOL     OW53464   8.256   0.297   0.129 -0.4471  0.1716  0.1639
17242SOL    HW153465   8.187   0.231   0.139 -0.9533  0.8084  0.9507
17242SOL    HW253466   8.312   0.262   0.059 -1.8183 -0.1302 -0.8109
17243SOL     OW53467   8.990   1.131   7.521 -0.0803 -0.3628 -0.6909
17243SOL    HW153468   9.067   1.076   7.536  0.2531 -0.1371 -1.5228
17243SOL    HW253469   8.916   1.071   7.532  0.1485 -0.3640  1.1120
17244SOL     OW53470   7.841   3.691   8.892  0.1510  0.2285 -0.1913
17244SOL    HW153471   7.775   3.683   8.822  0.0029 -1.8624  0.1273
17244SOL    HW253472   7.905   3.623   8.873  1.9265  1.7668 -0.0967
17245SOL     OW53473   9.450   8.269   3.857  0.4239  0.3256  0.7109
17245SOL    HW153474   9.371   8.306   3.896 -0.1698 -0.2964  0.1478
17245SOL    HW253475   9.422   8.184   3.824  1.3256  0.1181  0.4521
17246SOL     OW53476   4.280   7.515   8.702 -0.2896 -0.5316  0.2523
17246SOL    HW153477   4.281   7.426   8.739  0.0421 -0.5290  0.2471
17246SOL    HW253478   4.372   7.538   8.691 -0.3753 -0.6825 -0.9552
17247SOL     OW53479   7.731   4.346   8.639  0.2093  0.6257 -0.3832
17247SOL    HW153480   7.660   4.283   8.625 -1.0905  1.5148  1.7686
17247SOL    HW253481   7.810   4.292   8.642 -0.6475 -0.6873 -0.4120
17248SOL     OW53482   7.203   2.907   2.971 -0.0875 -0.0597  0.2664
17248SOL    HW153483   7.144   2.859   3.029 -0.4365  1.8376  1.5918
17248SOL    HW253484   7.218   2.990   3.016  1.9506  0.3474 -1.0443
17249SOL     OW53485   7.962   8.533   2.661  0.9265 -0.1273 -0.2640
17249SOL    HW153486   7.969   8.449   2.704  1.5677 -0.1237 -0.3607
17249SOL    HW253487   8.039   8.582   2.689  0.1665  0.7127  0.4025
17250SOL     OW53488   1.378   2.264   9.320 -0.0410 -0.1349  0.0606
17250SOL    HW153489   1.422   2.332   9.370 -0.4077 -1.8841  2.9933
17250SOL    HW253490   1.420   2.182   9.346 -2.0858 -1.4260 -0.3742
17251SOL     OW53491   8.911   6.336   6.000 -0.0226 -0.1493  0.1873
17251SOL    HW153492   8.976   6.323   5.931 -0.3290 -0.8022  0.0070
17251SOL    HW253493   8.854   6.258   5.994 -1.1148  0.6415  0.0047
17252SOL     OW53494   0.046   0.554   0.126  0.5418  0.0382  0.0714
17252SOL    HW153495   0.026   0.463   0.148  1.6267 -0.1663  0.2870
17252SOL    HW253496   0.140   0.563   0.145  0.6691  0.9286 -0.8691
17253SOL     OW53497   6.818   7.897   8.121 -0.4043 -0.0512 -0.4266
17253SOL    HW153498   6.852   7.828   8.177 -1.9419 -0.9395 -0.5577
17253SOL    HW253499   6.777   7.851   8.048 -0.3998  1.0410 -1.1442
17254SOL     OW53500   4.571   5.283   9.373 -0.1704  0.5950  0.3788
17254SOL    HW153501   4.543   5.235   9.450  1.8984  0.0507  0.8638
17254SOL    HW253502   4.665   5.298   9.387  0.3421  0.2252 -2.1458
17255SOL     OW53503   5.109   1.844   3.782 -0.3410 -0.4292  0.3013
17255SOL    HW153504   5.034   1.785   3.791 -1.1669  0.4609 -0.4467
17255SOL    HW253505   5.070   1.931   3.774  0.9006  0.4086  2.6773
17256SOL     OW53506   8.730   2.745   1.610  0.2520 -0.0684  0.4277
17256SOL    HW153507   8.687   2.683   1.670  0.6604  0.3932  1.2146
17256SOL    HW253508   8.763   2.690   1.539 -2.2985 -0.3626 -0.6271
17257SOL     OW53509   5.887   8.832   3.419 -0.1293  0.6694  0.0677
17257SOL    HW153510   5.820   8.827   3.352 -2.0328 -2.2155  1.9626
17257SOL    HW253511   5.847   8.881   3.490  1.0952  1.8684 -0.0162
17258SOL     OW53512   7.056   1.127   0.510  0.2052  0.4794  0.0827
17258SOL    HW153513   7.031   1.046   0.466 -0.5748  1.6600 -1.7700
17258SOL    HW253514   6.994   1.135   0.583 -1.2681  0.5661 -1.1304
17259SOL     OW53515   0.826   5.166   4.645 -0.1200 -0.5819 -1.0216
17259SOL    HW153516   0.862   5.144   4.731 -0.7207 -0.9137 -0.8516
17259SOL    HW253517   0.879   5.239   4.615 -0.7591  0.4250  0.2218
17260SOL     OW53518   8.711   6.470   4.815  0.3353  0.4752  0.0416
17260SOL    HW153519   8.654   6.395   4.831  0.4852  0.3620  0.0440
17260SOL    HW253520   8.794   6.448   4.856 -0.1233  1.3581  1.5162
17261SOL     OW53521   1.965   2.244   0.821  0.1418  0.2361  0.3347
17261SOL    HW153522   1.942   2.206   0.906  2.5048 -1.8602  0.1533
17261SOL    HW253523   2.045   2.198   0.795 -1.0063  0.0545 -3.4775
17262SOL     OW53524   1.134   1.898   1.118  0.3097 -0.3982  0.1569
17262SOL    HW153525   1.059   1.840   1.127  0.9978 -1.4961 -0.8344
17262SOL    HW253526   1.101   1.985   1.139 -1.5160 -0.6641 -1.3722
17263SOL     OW53527   7.942   8.197   7.024  0.2450  0.1205 -0.2339
17263SOL    HW153528   7.914   8.204   7.115  0.7807 -2.0835  0.1725
17263SOL    HW253529   7.926   8.284   6.986  1.7836  1.6896  2.4329
17264SOL     OW53530   1.253   7.806   4.514  0.4909  0.1311 -0.4215
17264SOL    HW153531   1.217   7.744   4.451  0.3514 -0.5418  0.2970
17264SOL    HW253532   1.329   7.761   4.551 -0.7176 -0.4887  1.5196
17265SOL     OW53533   5.551   0.661   9.107  0.4230 -1.0117  0.4291
17265SOL    HW153534   5.537   0.689   9.197 -1.5472 -0.9764  0.1614
17265SOL    HW253535   5.642   0.685   9.087 -0.0089  1.7608  1.4113
17266SOL     OW53536   6.453   1.154   9.398 -0.9389  0.0142  0.4605
17266SOL    HW153537   6.418   1.104   9.472  0.1859 -0.6093  0.5888
17266SOL    HW253538   6.376   1.178   9.347 -1.6717 -0.1720  1.4416
17267SOL     OW53539   3.834   5.254   6.801 -0.5612  0.3234 -0.2707
17267SOL    HW153540   3.747   5.255   6.760 -1.2434  0.0427  1.0837
17267SOL    HW253541   3.837   5.171   6.848  0.2001  0.6047  0.1931
17268SOL     OW53542   8.706   2.151   8.878 -0.1297  0.0409 -0.4163
17268SOL    HW153543   8.764   2.223   8.903  1.6617 -1.2609 -0.6374
17268SOL    HW253544   8.744   2.073   8.919 -1.9338 -0.8426 -0.2965
17269SOL     OW53545   2.055   6.073   1.579  0.0234  0.0413  0.1232
17269SOL    HW153546   2.085   6.050   1.491 -1.7791 -0.2615 -0.4510
17269SOL    HW253547   2.104   6.153   1.600 -0.5574  0.9663 -1.7698
17270SOL     OW53548   0.629   6.064   8.553 -0.0518  0.4367  0.0855
17270SOL    HW153549   0.688   6.133   8.522  0.1491  0.4376  0.4678
17270SOL    HW253550   0.560   6.060   8.487 -0.2059  1.1914  0.1921
17271SOL     OW53551   4.637   4.067   1.194 -0.1341  0.3813 -0.4609
17271SOL    HW153552   4.545   4.094   1.187 -0.5512  0.0971  2.5856
17271SOL    HW253553   4.673   4.122   1.263  0.7559 -2.3545  1.4305
17272SOL     OW53554   8.919   7.070   6.729  0.3063  0.1884 -0.4553
17272SOL    HW153555   8.875   7.092   6.811  0.8027 -0.4754  0.0063
17272SOL    HW253556   8.937   6.976   6.736  0.4560  0.1446 -1.2808
17273SOL     OW53557   0.713   0.683   4.807  0.2519  0.5470 -0.5454
17273SOL    HW153558   0.696   0.606   4.752  2.1267 -0.1357 -0.2379
17273SOL    HW253559   0.714   0.757   4.745  1.6647 -0.1189 -1.3522
17274SOL     OW53560   0.880   9.267   1.982  0.7360  0.5879  0.5384
17274SOL    HW153561   0.889   9.276   2.077 -0.3850  0.0046  0.7189
17274SOL    HW253562   0.923   9.184   1.962 -0.1072  0.0836  0.7381
17275SOL     OW53563   4.596   0.454   0.851 -0.5279 -0.5575 -0.2606
17275SOL    HW153564   4.648   0.391   0.901  0.6124  2.2284  2.4629
17275SOL    HW253565   4.639   0.458   0.766  1.1115 -1.4566  0.4635
17276SOL     OW53566   5.211   2.828   6.886 -0.6196 -0.0541  0.0184
17276SOL    HW153567   5.266   2.763   6.842 -0.3274  1.7496 -2.4898
17276SOL    HW253568   5.238   2.824   6.978  0.7714 -2.0459 -0.4069
17277SOL     OW53569   7.338   4.530   5.830  0.1807 -0.0071  0.7782
17277SOL    HW153570   7.406   4.543   5.764 -1.1501 -0.3091 -0.6908
17277SOL    HW253571   7.287   4.611   5.828  1.1176  0.7094  2.7110
17278SOL     OW53572   0.439   3.691   3.572 -0.2689 -0.1450 -0.5571
17278SOL    HW153573   0.381   3.763   3.596  0.2924  0.0153  0.3631
17278SOL    HW253574   0.472   3.714   3.485 -1.7670 -0.3680 -1.2087
17279SOL     OW53575   2.525   1.577   5.113  0.3064  0.7799  0.5808
17279SOL    HW153576   2.434   1.555   5.090  0.6242 -0.3399  0.3259
17279SOL    HW253577   2.544   1.521   5.189  0.7209  1.1665  0.7623
17280SOL     OW53578   2.858   3.113   2.120  0.0244 -0.4524  0.2182
17280SOL    HW153579   2.783   3.076   2.166 -0.7347 -1.0382 -1.4317
17280SOL    HW253580   2.828   3.199   2.090  0.0998 -0.5783 -0.2215
17281SOL     OW53581   0.802   4.059   5.555  0.4548  0.0576 -0.5691
17281SOL    HW153582   0.826   4.143   5.516  2.1312 -0.2170 -0.1870
17281SOL    HW253583   0.717   4.076   5.595  0.2699  1.2749 -1.3843
17282SOL     OW53584   4.935   6.708   7.367 -1.0226 -0.0721 -0.0382
17282SOL    HW153585   4.986   6.643   7.318  2.4853  1.4679  1.2492
17282SOL    HW253586   4.907   6.661   7.445 -0.1732 -0.5540 -0.0068
17283SOL     OW53587   9.084   3.718   9.548  0.4044 -0.1505  0.6470
17283SOL    HW153588   9.072   3.743   9.639  2.9556  1.3528  0.6606
17283SOL    HW253589   9.135   3.637   9.551  1.2860  0.3919  0.5797
17284SOL     OW53590   1.004   4.432   6.003  0.2328 -0.1696 -0.4274
17284SOL    HW153591   1.008   4.481   6.085 -2.0258  0.0995 -0.4085
17284SOL    HW253592   0.944   4.483   5.948  0.4780 -1.1696 -1.6620
17285SOL     OW53593   5.096   9.281   7.359  0.9706  0.3987  0.2505
17285SOL    HW153594   5.029   9.309   7.421  0.0162 -1.3137  0.0591
17285SOL    HW253595   5.157   9.228   7.411  0.9187  0.0840 -0.0037
17286SOL     OW53596   3.059   1.071   0.378  0.0983 -0.1745 -0.3857
17286SOL    HW153597   3.035   1.157   0.343 -0.6245  0.1040  0.7173
17286SOL    HW253598   3.147   1.055   0.346  0.1320  0.8526 -0.8388
17287SOL     OW53599   6.177   2.235   4.416  0.0795  0.5905 -0.2305
17287SOL    HW153600   6.261   2.265   4.380 -0.1201  3.0869  1.1654
17287SOL    HW253601   6.162   2.292   4.492 -3.4769  1.1119 -1.1598
17288SOL     OW53602   3.582   2.247   0.106 -0.4094  0.1219 -0.0332
17288SOL    HW153603   3.528   2.298   0.045 -1.1010 -0.0564  0.4131
17288SOL    HW253604   3.667   2.291   0.106  0.3441 -1.0937 -2.7652
17289SOL     OW53605   8.542   3.364   2.488  0.1558  0.0308 -0.1303
17289SOL    HW153606   8.623   3.351   2.439  0.0583  0.4830 -0.4243
17289SOL    HW253607   8.475   3.372   2.420 -0.3104 -1.4268  0.1353
17290SOL     OW53608   8.629   4.764   6.693  0.1342 -0.7684  0.6791
17290SOL    HW153609   8.703   4.774   6.633 -0.5870 -1.7517 -0.4103
17290SOL    HW253610   8.668   4.771   6.780  1.8044 -2.8188  0.1778
17291SOL     OW53611   4.222   3.759   9.468 -0.0849 -0.3192  0.4216
17291SOL    HW153612   4.218   3.748   9.373  1.7422 -1.3305  0.4342
17291SOL    HW253613   4.282   3.691   9.499 -1.0605 -0.3763  2.3872
17292SOL     OW53614   6.023   5.567   7.612 -0.1959 -0.1359  0.2626
17292SOL    HW153615   6.055   5.538   7.697 -0.3481 -0.4281  0.2193
17292SOL    HW253616   6.048   5.498   7.551 -2.0126 -0.9844  0.4336
17293SOL     OW53617   0.268   8.866   4.120  0.8211  0.3019 -0.0365
17293SOL    HW153618   0.338   8.868   4.055 -0.3990  0.9192 -1.3771
17293SOL    HW253619   0.198   8.816   4.079 -0.2046  1.2290  0.5336
17294SOL     OW53620   4.045   5.754   3.733 -0.3832  0.0785 -0.2243
17294SOL    HW153621   4.105   5.759   3.659  0.3381 -0.6558  0.3005
17294SOL    HW253622   4.058   5.836   3.780  0.5671 -0.2868  0.1568
17295SOL     OW53623   1.427   1.999   9.203  0.2442 -0.1091  0.1574
17295SOL    HW153624   1.345   1.951   9.212  0.9137 -1.1573  0.9652
17295SOL    HW253625   1.488   1.953   9.261  2.7339 -2.3908 -3.8210
17296SOL     OW53626   3.128   8.824   5.188  0.6656  0.6256 -0.8361
17296SOL    HW153627   3.184   8.760   5.234  0.3331  0.4819 -0.6301
17296SOL    HW253628   3.108   8.782   5.105 -0.4391 -0.0155 -0.2700
17297SOL     OW53629   1.053   4.895   3.536  0.7500  0.7597 -0.1741
17297SOL    HW153630   1.042   4.982   3.497  0.1634  0.9176  0.3416
17297SOL    HW253631   0.979   4.844   3.503  0.6465  0.6871  0.1737
17298SOL     OW53632   2.032   1.638   0.348  0.4919 -0.0179  0.0651
17298SOL    HW153633   2.002   1.728   0.361 -0.1340 -0.3270  0.8791
17298SOL    HW253634   2.044   1.605   0.437  3.0590  0.0038 -0.2114
17299SOL     OW53635   1.593   2.813   1.457  0.4614 -0.6899  0.1310
17299SOL    HW153636   1.525   2.881   1.456 -0.1061 -1.1941 -2.0372
17299SOL    HW253637   1.630   2.817   1.545 -0.7223  1.2513  0.6058
17300SOL     OW53638   6.362   5.411   8.916 -0.0575 -0.2052 -0.2190
17300SOL    HW153639   6.316   5.433   8.997  0.4280  1.5408 -0.3661
17300SOL    HW253640   6.301   5.356   8.868 -0.6165 -0.7146  1.0405
17301SOL     OW53641   3.943   3.998   7.649  0.5598  0.6065  0.3800
17301SOL    HW153642   3.861   4.008   7.696  0.7743  0.4278  0.8008
17301SOL    HW253643   4.002   3.955   7.712  0.2350 -1.5386 -0.6999
17302SOL     OW53644   6.865   8.779   4.405  0.2827 -0.0920  0.2981
17302SOL    HW153645   6.864   8.873   4.387  0.4303 -0.3301 -0.9946
17302SOL    HW253646   6.890   8.773   4.498  3.2200  1.0441 -0.3144
17303SOL     OW53647   9.461   8.338   7.546 -0.1063  0.0634 -0.1298
17303SOL    HW153648   9.420   8.351   7.460 -0.3670  2.6631  0.2970
17303SOL    HW253649   9.534   8.399   7.546  0.8206 -1.0163  0.9593
17304SOL     OW53650   2.472   3.020   9.169 -0.2978  0.0308 -0.2303
17304SOL    HW153651   2.454   2.928   9.189  0.3398 -0.2126 -0.7480
17304SOL    HW253652   2.404   3.069   9.216 -0.5045 -0.6894  0.2265
17305SOL     OW53653   6.365   1.791   1.923 -0.2566 -0.4472  0.2072
17305SOL    HW153654   6.452   1.831   1.918 -0.1268 -0.2911  2.5804
17305SOL    HW253655   6.379   1.699   1.899  0.5017 -0.3399  0.2212
17306SOL     OW53656   7.720   4.239   7.878  0.5339  0.1832  0.2161
17306SOL    HW153657   7.640   4.252   7.827 -0.0485 -2.5952  0.2586
17306SOL    HW253658   7.790   4.241   7.813 -0.0459 -1.6612 -0.5414
17307SOL     OW53659   6.361   2.415   3.117 -0.3054  0.5022 -0.4124
17307SOL    HW153660   6.286   2.423   3.059 -0.0791 -0.5566 -0.8771
17307SOL    HW253661   6.351   2.329   3.157 -0.1257  0.9630  0.6588
17308SOL     OW53662   2.076   2.769   0.923 -0.7353 -0.3452 -0.3653
17308SOL    HW153663   2.033   2.801   0.844  0.5099  0.8269 -0.6066
17308SOL    HW253664   2.012   2.784   0.993 -0.9796  0.7363 -0.8082
17309SOL     OW53665   4.626   9.390   8.611 -0.1092 -0.3670 -0.2198
17309SOL    HW153666   4.565   9.461   8.633  2.5602  2.3218 -0.9348
17309SOL    HW253667   4.661   9.361   8.695  1.0536  1.3632 -0.0787
17310SOL     OW53668   6.441   3.144   5.572  0.8483 -0.1091  0.2463
17310SOL    HW153669   6.525   3.161   5.615 -0.0945 -0.8445  2.5963
17310SOL    HW253670   6.453   3.060   5.528  1.2976 -0.3206  0.7598
17311SOL     OW53671   0.460   2.100   8.075 -0.1559 -0.2890  0.3647
17311SOL    HW153672   0.430   2.062   8.157  0.0245  0.8635  0.9794
17311SOL    HW253673   0.380   2.121   8.027 -0.3489  1.4259  1.3727
17312SOL     OW53674   1.403   0.503   3.150 -0.3699  0.0573 -0.9139
17312SOL    HW153675   1.478   0.562   3.144  2.1288 -2.5798  1.2646
17312SOL    HW253676   1.357   0.531   3.229 -0.1912  0.0911 -0.8223
17313SOL     OW53677   3.763   7.739   2.735  0.2271 -0.1386 -0.4429
17313SOL    HW153678   3.711   7.814   2.707  0.1590  0.2644  0.7007
17313SOL    HW253679   3.728   7.665   2.685 -0.9077  0.2671 -0.2760
17314SOL     OW53680   8.209   2.626   6.599 -0.2819 -0.1225  0.0406
17314SOL    HW153681   8.172   2.608   6.685 -1.1884  2.4675  0.2728
17314SOL    HW253682   8.251   2.544   6.573  0.7241 -0.7545  3.2827
17315SOL     OW53683   8.932   2.592   2.209  0.6288  0.3405 -0.4909
17315SOL    HW153684   8.932   2.574   2.115  0.4956  1.3703 -0.7057
17315SOL    HW253685   9.018   2.630   2.226  0.4223  0.7474 -0.3295
17316SOL     OW53686   5.203   8.378   6.722  0.2862 -0.3273  0.5895
17316SOL    HW153687   5.217   8.463   6.679  1.4118 -0.7885  0.0008
17316SOL    HW253688   5.289   8.353   6.754 -0.3822 -0.3855  2.4575
17317SOL     OW53689   7.506   7.446   9.477 -0.5487 -0.3265 -0.9067
17317SOL    HW153690   7.484   7.404   9.394 -1.4924  0.9055 -1.3222
17317SOL    HW253691   7.435   7.510   9.491  0.9427  1.3316 -0.4758
17318SOL     OW53692   6.909   0.128   3.361  0.4502 -0.0408 -0.0722
17318SOL    HW153693   6.947   0.143   3.448  1.3675 -0.8764 -0.3170
17318SOL    HW253694   6.980   0.090   3.310  0.4599  1.9982 -1.7207
17319SOL     OW53695   1.233   2.540   2.606  0.2203  0.5656  0.1642
17319SOL    HW153696   1.181   2.478   2.656  1.6679 -1.3649 -0.5858
17319SOL    HW253697   1.222   2.512   2.515  0.4841  1.7692 -0.2594
17320SOL     OW53698   2.125   3.073   7.688  0.0606 -0.1497  0.0903
17320SOL    HW153699   2.110   2.986   7.650 -0.1749  0.2300 -0.7216
17320SOL    HW253700   2.111   3.133   7.614 -2.5333  0.7973  1.2160
17321SOL     OW53701   1.900   2.981   8.671 -0.1156  0.2303  0.0751
17321SOL    HW153702   1.815   2.991   8.628 -1.1080 -2.5681  1.1740
17321SOL    HW253703   1.884   3.006   8.762 -0.2607 -1.9023  0.6758
17322SOL     OW53704   3.993   3.677   5.471 -0.0858 -0.2382  0.3373
17322SOL    HW153705   4.077   3.658   5.428 -0.4051  0.1580 -0.4833
17322SOL    HW253706   3.995   3.772   5.486  1.2886 -0.6848  3.9482
17323SOL     OW53707   1.730   5.051   0.978  0.1236 -0.3981  0.1602
17323SOL    HW153708   1.740   5.064   1.073 -1.8846  1.5215  0.2181
17323SOL    HW253709   1.794   5.110   0.939  0.6188 -0.8283  0.3070
17324SOL     OW53710   6.232   1.653   7.492 -0.2646  0.6076 -0.1866
17324SOL    HW153711   6.139   1.656   7.473 -0.4632  0.2616  0.7061
17324SOL    HW253712   6.269   1.600   7.421 -0.7354  0.7624 -0.5538
17325SOL     OW53713   5.258   7.948   9.339  0.0001 -0.0263  0.4830
17325SOL    HW153714   5.230   8.005   9.410 -0.9489  0.6132 -0.3794
17325SOL    HW253715   5.181   7.939   9.283  0.9904  0.2526 -0.9768
17326SOL     OW53716   6.662   8.735   8.054  0.0993  0.1221 -0.3060
17326SOL    HW153717   6.655   8.642   8.035  1.9251 -0.0929 -0.1111
17326SOL    HW253718   6.718   8.770   7.985  0.2336  0.8709  0.1641
17327SOL     OW53719   3.340   4.248   7.615 -0.0360 -0.6789  0.1818
17327SOL    HW153720   3.336   4.339   7.587  0.5712 -0.4050  0.9547
17327SOL    HW253721   3.248   4.219   7.615 -0.1031 -0.5605 -1.5942
17328SOL     OW53722   2.285   3.638   8.659  0.2767  0.5773 -0.1917
17328SOL    HW153723   2.236   3.557   8.670  2.0697 -0.4533  0.8132
17328SOL    HW253724   2.357   3.614   8.601  0.8426  1.4385  0.1436
17329SOL     OW53725   7.851   3.884   2.746 -0.0286 -0.0771  0.3889
17329SOL    HW153726   7.907   3.952   2.708 -1.2432  0.6392 -0.1819
17329SOL    HW253727   7.901   3.852   2.821  0.9899  0.7781  0.1147
17330SOL     OW53728   3.276   1.663   9.378 -0.0768 -0.0733  0.0991
17330SOL    HW153729   3.370   1.679   9.383 -0.4227  1.9335  2.3291
17330SOL    HW253730   3.253   1.679   9.286  1.8647 -1.7617 -0.7467
17331SOL     OW53731   0.469   4.781   2.740  0.7288  0.0695  0.0813
17331SOL    HW153732   0.463   4.876   2.750 -0.1923  0.0525 -0.2188
17331SOL    HW253733   0.522   4.769   2.661 -0.0931  0.3723 -0.5378
17332SOL     OW53734   4.976   4.265   5.710  0.2023  0.3185  0.7228
17332SOL    HW153735   5.030   4.194   5.746  2.2351  1.9943  1.2096
17332SOL    HW253736   5.036   4.340   5.704 -0.3632  0.7119 -4.5984
17333SOL     OW53737   3.041   9.371   8.884 -0.1904  0.0214 -0.2057
17333SOL    HW153738   3.122   9.421   8.873 -0.1360  0.4227  1.6625
17333SOL    HW253739   2.973   9.438   8.891 -0.4712 -0.2607 -0.2564
17334SOL     OW53740   0.106   9.009   7.865  0.2098 -0.0518 -0.9934
17334SOL    HW153741   0.022   8.968   7.885 -0.1344  1.5687  1.3668
17334SOL    HW253742   0.084   9.099   7.841  1.2851  1.1513  2.0640
17335SOL     OW53743   8.806   5.408   5.816 -0.4347  0.0222  0.0549
17335SOL    HW153744   8.783   5.387   5.907  2.4033  1.1361  1.1248
17335SOL    HW253745   8.759   5.489   5.798  0.4746  0.8478  1.2488
17336SOL     OW53746   2.520   3.801   9.473 -0.1900  0.2594 -0.3199
17336SOL    HW153747   2.601   3.851   9.472 -0.3127  0.4598 -0.3126
17336SOL    HW253748   2.547   3.710   9.467  0.0794  0.2808  0.4429
17337SOL     OW53749   7.872   2.365   6.665  0.3309 -0.0522  0.5969
17337SOL    HW153750   7.948   2.327   6.710  0.6593 -0.7601 -0.5091
17337SOL    HW253751   7.799   2.309   6.691  0.3644  0.0306  0.8786
17338SOL     OW53752   5.061   5.631   8.869  0.2728 -0.7339 -0.3575
17338SOL    HW153753   5.104   5.661   8.949 -1.0404  0.2535  0.0019
17338SOL    HW253754   5.126   5.573   8.828  0.5062 -2.3143  2.0308
17339SOL     OW53755   8.433   3.546   4.076  0.1548  0.0905  0.3986
17339SOL    HW153756   8.471   3.536   3.989 -1.1802 -0.7082 -0.1166
17339SOL    HW253757   8.509   3.546   4.135  1.0117 -0.4603 -0.6612
17340SOL     OW53758   5.809   1.705   7.035 -0.3119 -0.1200 -0.0653
17340SOL    HW153759   5.870   1.764   6.990  0.6522 -1.1731 -0.1933
17340SOL    HW253760   5.808   1.737   7.125  1.3310 -0.7375  0.2083
17341SOL     OW53761   1.286   8.961   1.712 -0.1002 -0.2597 -0.1558
17341SOL    HW153762   1.260   8.872   1.690 -0.5636  0.4294 -2.8252
17341SOL    HW253763   1.381   8.962   1.703 -0.0153 -0.6498  0.6460
17342SOL     OW53764   7.661   7.970   7.183 -0.6388 -0.0082 -0.3250
17342SOL    HW153765   7.665   7.959   7.088  1.4671 -0.6292 -0.2230
17342SOL    HW253766   7.752   7.962   7.212 -1.0171  1.8223  1.5909
17343SOL     OW53767   4.782   4.947   6.202  0.0068  0.3060  0.1095
17343SOL    HW153768   4.692   4.971   6.225 -0.2035 -0.6174  0.2936
17343SOL    HW253769   4.778   4.852   6.186  0.8768  0.3162 -0.2282
17344SOL     OW53770   0.317   7.354   0.545  0.5375 -0.4254 -0.0944
17344SOL    HW153771   0.262   7.432   0.545  0.1979 -0.6605  0.3725
17344SOL    HW253772   0.395   7.380   0.495 -0.9615 -0.8022 -2.8395
17345SOL     OW53773   1.999   8.630   6.848  0.2561 -0.2887 -0.6870
17345SOL    HW153774   2.021   8.585   6.766  0.0432 -1.7724  0.0274
17345SOL    HW253775   2.082   8.637   6.895  0.4212  0.7848 -1.1182
17346SOL     OW53776   4.988   4.850   0.044 -0.2004 -0.4418 -0.3113
17346SOL    HW153777   5.056   4.790   0.014  0.5186  0.6678 -0.9634
17346SOL    HW253778   4.915   4.793   0.067 -0.3176 -1.4904 -2.8851
17347SOL     OW53779   2.658   3.527   3.091  0.7864 -0.0135  0.4197
17347SOL    HW153780   2.651   3.578   3.171  1.5770  1.2937 -0.2985
17347SOL    HW253781   2.681   3.591   3.024  0.9162 -1.1886 -0.7069
17348SOL     OW53782   2.236   9.601   9.614  0.3555 -0.5218  0.2606
17348SOL    HW153783   2.300   9.652   9.564  0.3324 -0.2325  0.5187
17348SOL    HW253784   2.284   9.574   9.692 -0.6938  2.4761  2.1061
17349SOL     OW53785   6.434   2.028   7.568 -0.2044  0.4776  0.1343
17349SOL    HW153786   6.367   2.090   7.540 -1.0237 -0.1697  0.6061
17349SOL    HW253787   6.517   2.071   7.548 -0.7540  1.5906  0.1775
17350SOL     OW53788   8.567   1.961   8.565  0.0776  0.4160  0.2646
17350SOL    HW153789   8.626   1.889   8.590 -0.0277  0.7892  1.6688
17350SOL    HW253790   8.506   1.921   8.503  2.0381  0.1225 -1.6176
17351SOL     OW53791   1.441   2.837   2.016 -0.0015 -0.0484 -0.6101
17351SOL    HW153792   1.402   2.872   2.097  0.4761  0.3862 -0.5597
17351SOL    HW253793   1.440   2.743   2.028 -2.3561 -0.1645 -1.2259
17352SOL     OW53794   9.161   8.463   5.301  0.0412  0.4594  0.2671
17352SOL    HW153795   9.243   8.422   5.327  0.7743  1.1390 -0.8874
17352SOL    HW253796   9.161   8.459   5.205 -1.5442 -0.0171  0.2381
17353SOL     OW53797   4.309   3.850   0.423  0.2529  0.2011 -0.5800
17353SOL    HW153798   4.341   3.764   0.396  2.5914  0.4914  1.0152
17353SOL    HW253799   4.388   3.902   0.437 -1.0834  2.5163 -1.0669
17354SOL     OW53800   4.519   6.456   4.120 -0.1466  0.8946 -0.1358
17354SOL    HW153801   4.598   6.431   4.070 -1.9703  1.3956 -3.5975
17354SOL    HW253802   4.473   6.373   4.133 -0.7911  1.0004 -1.5283
17355SOL     OW53803   3.418   0.963   2.312  0.3794  0.1748  0.3679
17355SOL    HW153804   3.350   0.994   2.371 -0.7865  1.1453 -1.3900
17355SOL    HW253805   3.483   1.033   2.311 -0.4171  0.9309 -0.7221
17356SOL     OW53806   3.364   7.854   4.095  0.0911  0.0247 -0.5438
17356SOL    HW153807   3.268   7.857   4.086  0.0034  3.3481 -0.1147
17356SOL    HW253808   3.397   7.855   4.005 -0.2608 -1.0444 -0.6938
17357SOL     OW53809   2.882   7.469   2.701 -0.2184  0.1646  0.0463
17357SOL    HW153810   2.828   7.389   2.699 -1.4857  0.9888  0.1966
17357SOL    HW253811   2.937   7.463   2.623 -0.7149 -0.5739 -0.2558
17358SOL     OW53812   5.285   7.323   4.015 -0.6356  0.1204 -0.3955
17358SOL    HW153813   5.231   7.269   3.958 -0.0985 -0.4111 -0.4099
17358SOL    HW253814   5.270   7.287   4.103  2.2215 -2.2818 -0.7425
17359SOL     OW53815   4.374   4.767   3.879 -0.2010  0.0619 -0.2084
17359SOL    HW153816   4.380   4.760   3.784 -0.6945  1.8254 -0.3854
17359SOL    HW253817   4.348   4.857   3.896 -0.7568 -0.3936  1.5858
17360SOL     OW53818   0.881   6.643   1.187 -0.0093 -0.2378 -0.2571
17360SOL    HW153819   0.836   6.622   1.104  0.9228  1.4668 -1.2563
17360SOL    HW253820   0.966   6.600   1.179  0.4558  0.7322 -0.6422
17361SOL     OW53821   8.181   2.167   6.472  0.0886  0.1630 -0.1122
17361SOL    HW153822   8.143   2.205   6.393  0.3783 -0.0522 -0.3537
17361SOL    HW253823   8.154   2.075   6.470  0.4397  0.0605 -0.1717
17362SOL     OW53824   5.989   5.125   6.243 -0.1202 -0.2874 -0.5433
17362SOL    HW153825   5.908   5.096   6.284 -0.0530 -1.0993 -0.9711
17362SOL    HW253826   6.011   5.055   6.182  2.6961 -1.8042  1.9226
17363SOL     OW53827   4.565   3.034   4.718 -0.4742  0.4355 -0.7791
17363SOL    HW153828   4.521   2.980   4.784 -1.5632  1.6874 -0.4486
17363SOL    HW253829   4.594   2.971   4.651  0.5174 -0.8628  0.7743
17364SOL     OW53830   3.173   6.759   8.196  0.3558  0.5792  0.2526
17364SOL    HW153831   3.127   6.741   8.278 -1.3622  0.5308 -0.6991
17364SOL    HW253832   3.246   6.816   8.223 -0.7229  1.3629  1.7003
17365SOL     OW53833   3.916   6.233   2.804 -0.3433  0.0782  0.4605
17365SOL    HW153834   3.889   6.207   2.716  0.0096 -0.8217  0.6102
17365SOL    HW253835   3.971   6.311   2.791  0.6697 -0.7333 -0.2224
17366SOL     OW53836   5.978   2.729   8.572 -0.1887 -0.0667  0.0767
17366SOL    HW153837   5.935   2.686   8.646  1.7665 -0.2653  1.1710
17366SOL    HW253838   6.050   2.778   8.611  0.0294  1.0292 -1.5714
17367SOL     OW53839   7.492   1.315   4.809  0.2171 -0.3783 -0.0796
17367SOL    HW153840   7.473   1.226   4.779  2.2110 -0.5348 -1.0478
17367SOL    HW253841   7.588   1.321   4.808  0.1676  1.4162  1.0868
17368SOL     OW53842   3.399   0.510   1.597 -0.3928 -0.2289 -0.3826
17368SOL    HW153843   3.366   0.531   1.510 -3.9450 -1.2589  0.5441
17368SOL    HW253844   3.377   0.417   1.609  0.7327 -0.3201  1.3274
17369SOL     OW53845   6.552   8.956   0.832 -0.0082  0.1589 -0.4003
17369SOL    HW153846   6.610   8.975   0.905 -1.7875  1.7338  0.7035
17369SOL    HW253847   6.551   8.861   0.826 -0.1351 -0.0394  1.9423
17370SOL     OW53848   9.376   5.849   6.849 -0.2379  0.1409 -0.5232
17370SOL    HW153849   9.378   5.862   6.944  0.3478  0.2805 -0.5540
17370SOL    HW253850   9.349   5.933   6.814  0.9360  0.5100 -0.5613
17371SOL     OW53851   2.253   3.630   0.398 -0.5537 -0.2762 -0.5640
17371SOL    HW153852   2.275   3.540   0.374  0.1468 -0.3236  0.2379
17371SOL    HW253853   2.182   3.621   0.461 -0.9538 -0.2365 -1.0065
17372SOL     OW53854   2.458   8.764   1.061 -0.6264  0.2483 -0.2752
17372SOL    HW153855   2.479   8.688   1.006 -1.3951  0.7173 -1.2681
17372SOL    HW253856   2.362   8.770   1.056 -0.8376 -0.3765  2.0902
17373SOL     OW53857   6.782   5.811   1.179  0.1566  0.1345 -0.4703
17373SOL    HW153858   6.795   5.748   1.250  0.6731 -0.7026 -1.2857
17373SOL    HW253859   6.749   5.890   1.223 -1.6488 -1.0663  0.4319
17374SOL     OW53860   6.501   4.500   3.955 -0.2696  0.1798  0.1822
17374SOL    HW153861   6.505   4.582   3.906 -0.8572 -0.7559 -1.4871
17374SOL    HW253862   6.408   4.488   3.976 -0.2084 -0.1298  0.2930
17375SOL     OW53863   6.231   1.958   6.487 -0.5705  0.0722  0.0687
17375SOL    HW153864   6.324   1.936   6.487 -0.4357  0.6589 -0.2588
17375SOL    HW253865   6.188   1.877   6.458  0.0246  0.6192 -2.5968
17376SOL     OW53866   9.444   2.339   6.004  0.0487 -0.2803 -0.1436
17376SOL    HW153867   9.425   2.395   6.079 -0.7583 -0.1842 -0.4125
17376SOL    HW253868   9.507   2.390   5.952 -0.7616  0.4516 -0.4429
17377SOL     OW53869   9.548   2.465   7.379  0.0543  0.7369  0.6363
17377SOL    HW153870   9.633   2.477   7.420  0.3545  1.7583 -0.2456
17377SOL    HW253871   9.489   2.521   7.430  0.3855  1.8384 -0.1404
17378SOL     OW53872   3.481   0.886   4.519 -0.1244  0.0351 -0.3359
17378SOL    HW153873   3.501   0.911   4.609  1.6538 -0.2636 -0.6089
17378SOL    HW253874   3.401   0.834   4.526  0.3853 -0.6004  1.1782
17379SOL     OW53875   6.139   1.457   4.348  0.4772 -0.0794 -0.3556
17379SOL    HW153876   6.169   1.513   4.276 -0.1911 -0.0025 -0.5853
17379SOL    HW253877   6.213   1.399   4.366  0.2486 -0.9310 -1.9422
17380SOL     OW53878   9.585   5.202   6.386 -0.2345  0.4876 -0.0963
17380SOL    HW153879   9.505   5.150   6.377  1.3048 -2.1605  0.2070
17380SOL    HW253880   9.576   5.246   6.470 -2.2680  2.0499 -1.0518
17381SOL     OW53881   9.017   2.209   2.756  0.2713  0.0883 -0.4214
17381SOL    HW153882   9.109   2.205   2.782 -0.1270 -0.6633  0.9395
17381SOL    HW253883   8.978   2.271   2.818 -0.4573 -0.8235  0.0427
17382SOL     OW53884   9.458   0.371   8.334 -0.1320 -0.1226  0.2009
17382SOL    HW153885   9.414   0.429   8.272 -2.1044 -0.0767  1.5388
17382SOL    HW253886   9.510   0.429   8.389 -1.2764  0.3272  0.8657
17383SOL     OW53887   1.448   4.327   0.548 -0.0037  0.1458 -0.0357
17383SOL    HW153888   1.421   4.372   0.468 -0.1129  1.1424  0.5439
17383SOL    HW253889   1.393   4.364   0.616  0.9154  0.1924  0.7059
17384SOL     OW53890   3.101   8.985   2.473 -0.0790 -0.1381 -0.2925
17384SOL    HW153891   3.068   8.987   2.563 -2.0440 -2.3475 -0.8436
17384SOL    HW253892   3.023   8.967   2.420  1.2658 -0.4232 -2.2664
17385SOL     OW53893   2.137   0.941   4.593 -0.5162 -0.3914  0.2383
17385SOL    HW153894   2.155   1.032   4.618 -0.3130 -0.2640 -0.3552
17385SOL    HW253895   2.120   0.945   4.499  1.5707 -1.2329 -0.2349
17386SOL     OW53896   9.079   5.580   7.139  0.2294  0.4995  0.2154
17386SOL    HW153897   9.068   5.492   7.177  0.8738  0.9228  1.4247
17386SOL    HW253898   9.129   5.565   7.059  2.7335 -0.0111  1.7869
17387SOL     OW53899   4.492   7.213   8.713  0.2087  0.5778  0.4632
17387SOL    HW153900   4.502   7.222   8.618 -0.6813  3.0202  0.5286
17387SOL    HW253901   4.401   7.184   8.724  0.5592 -0.5294  0.5745
17388SOL     OW53902   4.704   9.157   8.974  0.5414  0.2973  1.2232
17388SOL    HW153903   4.708   9.151   8.879  1.4888  0.9257  1.2195
17388SOL    HW253904   4.784   9.203   8.999  1.6676 -2.1604  2.5222
17389SOL     OW53905   1.544   6.233   8.353  0.2182 -0.4609 -0.0238
17389SOL    HW153906   1.600   6.294   8.305  1.5280 -1.5246  0.1018
17389SOL    HW253907   1.511   6.284   8.426 -0.2664  0.6320 -0.9630
17390SOL     OW53908   5.910   7.069   9.541 -0.3282 -0.2329  0.1363
17390SOL    HW153909   5.892   6.979   9.571 -0.8533 -0.9981 -2.2527
17390SOL    HW253910   5.829   7.096   9.497  0.2229  0.9744 -0.1755
17391SOL     OW53911   6.490   3.262   6.666  0.1984 -0.0391  0.1517
17391SOL    HW153912   6.571   3.241   6.712  0.2032 -1.1440 -0.3121
17391SOL    HW253913   6.484   3.357   6.668  0.7207 -0.0194  1.5297
17392SOL     OW53914   6.644   2.718   0.772  0.3675 -0.4529  0.0425
17392SOL    HW153915   6.736   2.721   0.747  0.6349  0.1413  1.0330
17392SOL    HW253916   6.596   2.709   0.690  1.2095  1.4149 -0.7159
17393SOL     OW53917   2.437   0.201   3.264 -0.4215  0.3132  0.3987
17393SOL    HW153918   2.346   0.184   3.236 -0.0259 -0.4332 -0.4983
17393SOL    HW253919   2.484   0.221   3.183  0.8376 -2.2666  0.3829
17394SOL     OW53920   8.288   7.124   3.057  0.1070  0.2707 -0.2617
17394SOL    HW153921   8.209   7.137   3.005  0.3208  1.2772 -0.3480
17394SOL    HW253922   8.278   7.184   3.131  0.8538  0.5038 -0.3473
17395SOL     OW53923   0.565   6.475   7.836 -0.6758  0.2137 -0.0510
17395SOL    HW153924   0.513   6.499   7.760 -2.1158  1.8417  1.3829
17395SOL    HW253925   0.506   6.422   7.890 -0.1929  0.3869  0.6597
17396SOL     OW53926   3.672   2.022   2.376 -0.4709  0.9984 -0.8056
17396SOL    HW153927   3.695   1.932   2.399 -1.5135  0.6328 -1.1368
17396SOL    HW253928   3.751   2.072   2.397 -0.6312  0.3788  1.5961
17397SOL     OW53929   3.804   2.788   7.944  0.3376 -0.0224 -0.1818
17397SOL    HW153930   3.758   2.804   8.026  2.0820 -1.2169  1.0890
17397SOL    HW253931   3.783   2.698   7.922 -0.6242  0.4797 -1.4211
17398SOL     OW53932   2.492   1.223   2.020  0.0087 -0.3245 -0.3577
17398SOL    HW153933   2.449   1.229   1.935 -0.5118  0.8223 -0.0347
17398SOL    HW253934   2.537   1.306   2.030 -1.2365  0.2214  1.1496
17399SOL     OW53935   2.647   5.867   9.475  0.0107  0.0177 -0.5325
17399SOL    HW153936   2.557   5.896   9.486  0.1393  0.5872 -0.9619
17399SOL    HW253937   2.689   5.886   9.559 -0.0292  0.6340 -0.6497
17400SOL     OW53938   2.797   4.171   5.716 -0.4198 -0.2358  0.6668
17400SOL    HW153939   2.840   4.101   5.668 -0.1240 -0.4020  1.1682
17400SOL    HW253940   2.821   4.156   5.807  1.5499  1.8233  0.5692
17401SOL     OW53941   0.309   0.334   4.652 -0.1185  0.3564  0.2113
17401SOL    HW153942   0.257   0.378   4.720 -1.0773 -1.8074  0.9954
17401SOL    HW253943   0.298   0.388   4.574 -0.9296  1.6616  1.1922
17402SOL     OW53944   1.431   0.212   7.129  0.5153 -0.7285  0.1210
17402SOL    HW153945   1.524   0.232   7.122  0.4153 -0.5669 -0.7835
17402SOL    HW253946   1.397   0.279   7.189  0.6223  0.4365 -1.0760
17403SOL     OW53947   1.567   5.167   0.370  0.2390 -0.3208 -0.3615
17403SOL    HW153948   1.607   5.132   0.449 -2.7728 -0.7529  1.1064
17403SOL    HW253949   1.605   5.115   0.299  0.7904 -2.0034  1.1073
17404SOL     OW53950   2.892   1.496   9.376  0.2242  0.0696 -0.1955
17404SOL    HW153951   2.820   1.458   9.327 -0.5818  1.4665 -0.1265
17404SOL    HW253952   2.948   1.536   9.310  0.5188 -0.3194 -0.1827
17405SOL     OW53953   1.672   9.483   6.609  0.0867  0.9100 -0.2202
17405SOL    HW153954   1.671   9.575   6.583  0.1782  1.0167  0.1489
17405SOL    HW253955   1.592   9.472   6.660 -0.7659  0.3836 -1.6089
17406SOL     OW53956   5.278   4.763   5.041  0.0187  0.0564 -0.2587
17406SOL    HW153957   5.259   4.708   4.964 -0.4358 -1.1103  0.6659
17406SOL    HW253958   5.239   4.848   5.019 -1.3534 -0.6619 -0.7576
17407SOL     OW53959   8.308   6.569   0.751  0.2023  0.2481 -0.2184
17407SOL    HW153960   8.263   6.616   0.821 -1.1136  0.4099 -1.1426
17407SOL    HW253961   8.308   6.630   0.677  0.5852 -0.3288 -0.7082
17408SOL     OW53962   7.822   7.675   2.921  0.5736  0.2932  0.3544
17408SOL    HW153963   7.754   7.742   2.927  1.8680  1.6996 -0.0681
17408SOL    HW253964   7.903   7.724   2.907  1.6788 -1.3299  0.7500
17409SOL     OW53965   8.043   6.469   4.887 -0.2495  0.1914 -0.3975
17409SOL    HW153966   8.083   6.454   4.973 -1.6201 -0.4942  0.1473
17409SOL    HW253967   8.071   6.393   4.835  0.6396  0.6428 -0.5982
17410SOL     OW53968   2.897   3.439   4.033  0.7296  0.2379  0.1736
17410SOL    HW153969   2.840   3.458   3.959 -0.8578  1.1930  1.5694
17410SOL    HW253970   2.851   3.371   4.083  1.2091  0.4129  0.8736
17411SOL     OW53971   2.929   5.684   0.793 -0.0262 -0.3211 -0.0870
17411SOL    HW153972   2.918   5.590   0.779  2.8634 -1.1577  2.0129
17411SOL    HW253973   2.918   5.695   0.888  3.0200  0.6896  0.2864
17412SOL     OW53974   7.330   1.847   7.160  0.3599  0.1779 -0.2128
17412SOL    HW153975   7.344   1.907   7.087  0.9652  0.3728  0.0560
17412SOL    HW253976   7.367   1.892   7.236 -1.6825  0.6841  0.5451
17413SOL     OW53977   1.761   7.580   7.062  0.4126  0.1427 -0.3745
17413SOL    HW153978   1.751   7.550   6.972 -0.4272 -1.2926  0.1760
17413SOL    HW253979   1.855   7.600   7.070  0.7216 -0.8715 -1.2126
17414SOL     OW53980   8.328   8.404   1.364 -0.3644 -0.0252 -0.2977
17414SOL    HW153981   8.283   8.447   1.291  2.6900  0.9938 -1.7473
17414SOL    HW253982   8.341   8.314   1.332 -2.1578 -0.6526  0.5793
17415SOL     OW53983   1.391   0.370   9.318 -0.3421 -0.3103  0.2005
17415SOL    HW153984   1.399   0.457   9.277 -0.8261 -0.5947 -0.5171
17415SOL    HW253985   1.298   0.361   9.336 -0.1997 -0.3976  0.9434
17416SOL     OW53986   7.005   3.230   3.887 -0.1715 -0.0310 -0.0452
17416SOL    HW153987   6.945   3.266   3.952 -0.9630 -1.2528 -0.0682
17416SOL    HW253988   7.027   3.143   3.919  0.0097 -0.3704 -1.0334
17417SOL     OW53989   8.399   1.092   9.495 -0.3357  0.3922  0.4754
17417SOL    HW153990   8.488   1.124   9.487  0.0102 -0.3753  1.1042
17417SOL    HW253991   8.392   1.062   9.586 -0.9487 -0.3537  0.1976
17418SOL     OW53992   4.517   1.827   8.532  0.4020  0.2376 -0.1630
17418SOL    HW153993   4.592   1.848   8.477 -0.0559 -0.4036 -1.0629
17418SOL    HW253994   4.442   1.827   8.472 -0.1984  0.0709  0.5617
17419SOL     OW53995   8.192   2.158   4.062 -0.0112  0.9583 -0.4062
17419SOL    HW153996   8.252   2.107   4.116  1.9092  1.3654 -2.0159
17419SOL    HW253997   8.210   2.128   3.972 -2.7246  0.6394 -0.9382
17420SOL     OW53998   6.589   7.458   9.462  0.2224  0.5144  0.3571
17420SOL    HW153999   6.681   7.452   9.488  0.5221  1.8725 -0.2884
17420SOL    HW254000   6.566   7.550   9.476 -0.4205  0.6644 -1.3889
17421SOL     OW54001   7.365   3.592   3.573 -0.2763  0.3125 -0.6802
17421SOL    HW154002   7.307   3.521   3.548  1.0422 -1.4643  1.0429
17421SOL    HW254003   7.308   3.655   3.618 -1.2118 -0.4097 -0.8326
17422SOL     OW54004   6.604   3.366   3.881  0.1625 -0.3502 -0.6273
17422SOL    HW154005   6.515   3.359   3.916  1.1460 -0.2665  2.1666
17422SOL    HW254006   6.604   3.448   3.831 -0.6712  1.3150  1.8608
17423SOL     OW54007   2.019   8.813   6.474 -0.1122  0.0286  0.2026
17423SOL    HW154008   2.098   8.789   6.524  0.1616 -0.4289 -0.4219
17423SOL    HW254009   2.049   8.880   6.413  0.2003 -1.2452 -1.1171
17424SOL     OW54010   2.734   5.458   6.321 -0.2487 -0.0003 -0.1126
17424SOL    HW154011   2.697   5.546   6.314 -0.7512 -0.3495 -3.4466
17424SOL    HW254012   2.823   5.472   6.352 -0.4348  1.6476 -0.2546
17425SOL     OW54013   4.655   3.228   4.927  0.0149  0.5008 -0.0755
17425SOL    HW154014   4.712   3.279   4.870 -0.5632  1.3497  0.0952
17425SOL    HW254015   4.652   3.141   4.886  1.4816  0.4130 -0.0296
17426SOL     OW54016   3.787   4.931   8.600 -0.2218 -0.1028 -0.0223
17426SOL    HW154017   3.771   4.950   8.693  0.1720  0.3810 -0.0474
17426SOL    HW254018   3.873   4.969   8.583 -0.5414  0.3279 -0.7289
17427SOL     OW54019   3.567   1.266   6.656 -0.7766  0.2779 -0.2597
17427SOL    HW154020   3.548   1.257   6.750  1.4487 -1.4822  0.1259
17427SOL    HW254021   3.504   1.331   6.625 -1.5382  0.9984  2.4586
17428SOL     OW54022   0.623   8.452   3.380 -0.7886  0.7047 -0.1714
17428SOL    HW154023   0.659   8.451   3.292 -0.5698 -0.1409 -0.0821
17428SOL    HW254024   0.679   8.513   3.429 -0.3425  0.4658 -0.3828
17429SOL     OW54025   3.456   3.451   3.897  0.5237 -0.7626  0.1535
17429SOL    HW154026   3.432   3.359   3.885  0.7890 -0.6341 -1.5901
17429SOL    HW254027   3.547   3.456   3.870  1.1963 -0.3499  2.2929
17430SOL     OW54028   1.859   2.330   8.716  0.0985  0.0465  0.6112
17430SOL    HW154029   1.905   2.307   8.797  1.2162 -0.1804 -0.0771
17430SOL    HW254030   1.785   2.270   8.713 -0.3624  0.5327  1.8194
17431SOL     OW54031   5.180   0.159   7.414 -0.1189  0.3982  0.1289
17431SOL    HW154032   5.125   0.219   7.364 -1.5130 -2.1449 -1.6007
17431SOL    HW254033   5.269   0.173   7.380 -0.7035  0.2904 -1.5395
17432SOL     OW54034   5.392   7.868   8.592  0.2835 -0.3948 -0.4847
17432SOL    HW154035   5.367   7.953   8.628 -0.9460 -1.2652  0.8106
17432SOL    HW254036   5.401   7.811   8.669  0.6362 -1.5508 -1.3538
17433SOL     OW54037   9.309   8.029   1.727 -0.0744  0.5011 -0.0458
17433SOL    HW154038   9.348   8.035   1.640 -0.0761  1.4616  0.0069
17433SOL    HW254039   9.380   8.051   1.787  0.0717 -0.6950  0.2374
17434SOL     OW54040   7.272   6.612   9.285  0.3366 -0.3635 -0.4607
17434SOL    HW154041   7.195   6.589   9.232  1.0631 -1.4508 -1.1080
17434SOL    HW254042   7.244   6.598   9.375 -0.8667  1.3131 -0.5330
17435SOL     OW54043   6.933   6.491   9.403  0.3331 -0.0543  0.1519
17435SOL    HW154044   6.887   6.425   9.350  1.7284 -1.0510  0.1408
17435SOL    HW254045   6.865   6.554   9.426 -0.9575 -1.2626 -0.2009
17436SOL     OW54046   4.994   8.909   6.896  0.3095  0.7835  0.1139
17436SOL    HW154047   4.926   8.886   6.959 -0.9435  1.7281 -0.8424
17436SOL    HW254048   5.050   8.831   6.893 -0.7330 -0.0383  0.9191
17437SOL     OW54049   8.620   9.150   3.325 -0.6553 -0.1997  1.0246
17437SOL    HW154050   8.670   9.209   3.382 -0.7069 -0.9985  1.9148
17437SOL    HW254051   8.686   9.101   3.276 -0.5840 -0.3864  1.3053
17438SOL     OW54052   7.564   5.631   8.093  0.0993  0.0916 -0.5486
17438SOL    HW154053   7.517   5.550   8.075  2.6727 -1.0777 -2.5401
17438SOL    HW254054   7.645   5.604   8.135  0.8662  1.6573 -0.9161
17439SOL     OW54055   7.888   7.354   6.302 -0.1338 -0.0599 -0.1474
17439SOL    HW154056   7.873   7.447   6.285 -0.7193  0.0511  0.8996
17439SOL    HW254057   7.975   7.337   6.267 -0.4376  0.6263 -1.3018
17440SOL     OW54058   3.235   9.464   4.476 -0.5096 -0.6636  0.2487
17440SOL    HW154059   3.273   9.380   4.448  0.3818 -0.6689  1.4043
17440SOL    HW254060   3.298   9.499   4.539 -0.8580  0.8983 -0.2212
17441SOL     OW54061   2.886   4.002   5.531  0.0746 -0.3263 -0.1575
17441SOL    HW154062   2.835   4.069   5.485  0.8043  0.7862  0.6123
17441SOL    HW254063   2.955   3.978   5.469 -0.2082 -0.3891 -0.4487
17442SOL     OW54064   7.296   3.286   3.912 -0.1991 -0.7557 -0.4735
17442SOL    HW154065   7.200   3.280   3.915 -0.1882 -0.7743  2.0915
17442SOL    HW254066   7.322   3.220   3.848 -1.8827 -0.8032 -1.1725
17443SOL     OW54067   1.046   8.809   4.282  0.2704 -0.0190 -0.3699
17443SOL    HW154068   1.068   8.843   4.196  0.9186  1.0488  0.1992
17443SOL    HW254069   1.120   8.751   4.304 -0.7819 -1.7809 -1.2937
17444SOL     OW54070   0.627   3.468   8.996  0.1556 -0.0146 -0.6272
17444SOL    HW154071   0.573   3.533   9.040 -1.5547 -0.6130 -1.7514
17444SOL    HW254072   0.635   3.396   9.060  1.5688  0.9955  0.3926
17445SOL     OW54073   5.281   8.498   0.167  0.0249 -0.0651 -0.2273
17445SOL    HW154074   5.283   8.582   0.214  0.6805 -0.5903  0.7204
17445SOL    HW254075   5.360   8.453   0.196 -0.2218 -0.9299 -0.8812
17446SOL     OW54076   6.947   3.034   5.782  0.5773 -0.6050 -0.2747
17446SOL    HW154077   6.937   3.054   5.875 -0.7384  0.4847 -0.6241
17446SOL    HW254078   6.987   3.113   5.745  0.3242 -0.7136 -0.7796
17447SOL     OW54079   0.763   6.990   5.092  0.7450  0.2997  0.6617
17447SOL    HW154080   0.682   6.971   5.138  0.8626 -0.9470  0.3891
17447SOL    HW254081   0.820   7.029   5.158 -0.3859  2.0956  0.6167
17448SOL     OW54082   3.025   1.747   3.811 -0.6478  0.1282  0.1258
17448SOL    HW154083   2.952   1.778   3.757 -0.7081  0.6320  0.4956
17448SOL    HW254084   3.087   1.711   3.748 -1.4854 -0.8903 -0.1488
17449SOL     OW54085   1.985   6.800   8.637  0.0185 -0.3305 -0.0205
17449SOL    HW154086   1.899   6.779   8.674 -0.0037 -0.3274 -0.0710
17449SOL    HW254087   1.977   6.782   8.544 -0.0122 -0.0588 -0.0707
17450SOL     OW54088   8.500   5.738   3.482 -0.5462  0.0456 -0.2654
17450SOL    HW154089   8.515   5.741   3.576  0.3615 -1.1819 -0.3400
17450SOL    HW254090   8.489   5.829   3.456 -0.2663  0.4383  0.9376
17451SOL     OW54091   0.137   5.818   3.448 -0.0983  0.0443  0.0069
17451SOL    HW154092   0.161   5.788   3.535 -0.8242  0.6164  0.4179
17451SOL    HW254093   0.213   5.869   3.418  0.2030 -0.2648  0.2489
17452SOL     OW54094   4.252   4.885   9.048  0.1572 -0.0228 -0.1923
17452SOL    HW154095   4.300   4.845   9.121  0.6446  0.8400 -0.0363
17452SOL    HW254096   4.316   4.942   9.006  0.0003 -0.8128 -1.5581
17453SOL     OW54097   3.672   4.552   1.069  0.5170  0.3637 -0.0383
17453SOL    HW154098   3.638   4.605   1.141 -0.4215 -1.5726  0.9979
17453SOL    HW254099   3.762   4.533   1.094 -0.4690 -2.2683  1.9065
17454SOL     OW54100   0.106   0.094   6.650  0.3021 -0.3792  0.1401
17454SOL    HW154101   0.048   0.119   6.722  1.2855  0.0263  0.8162
17454SOL    HW254102   0.188   0.068   6.692  0.3947 -1.6201 -0.7549
17455SOL     OW54103   0.648   5.318   6.375  0.2279 -0.3244  0.0798
17455SOL    HW154104   0.673   5.401   6.417  1.3633 -1.6066  2.1037
17455SOL    HW254105   0.553   5.325   6.363  0.2037  0.9977  0.8365
17456SOL     OW54106   4.184   5.838   2.372  0.3126 -0.8351  0.0794
17456SOL    HW154107   4.195   5.743   2.362 -0.5586 -0.9424  0.0530
17456SOL    HW254108   4.140   5.866   2.292  0.7064 -0.3744  0.0168
17457SOL     OW54109   3.719   1.633   0.745  0.0424 -0.3255 -0.2478
17457SOL    HW154110   3.668   1.555   0.765  1.2737 -1.3516 -1.0218
17457SOL    HW254111   3.792   1.631   0.807  1.0262 -0.7348 -1.3848
17458SOL     OW54112   3.112   8.580   9.372 -0.1562 -0.4978  0.2803
17458SOL    HW154113   3.083   8.528   9.297  1.3565  0.1275 -0.7818
17458SOL    HW254114   3.032   8.595   9.422 -1.4802  0.1725 -1.8992
17459SOL     OW54115   4.340   7.911   7.392 -0.4645 -0.3533  0.7219
17459SOL    HW154116   4.264   7.961   7.421 -1.1595 -0.6721 -0.4887
17459SOL    HW254117   4.314   7.874   7.308  0.5789 -1.5142  0.8820
17460SOL     OW54118   1.712   0.325   6.844  0.3789 -0.4057 -0.1151
17460SOL    HW154119   1.683   0.266   6.776  0.4113 -1.9024  1.1124
17460SOL    HW254120   1.804   0.343   6.823  0.2241 -0.3663 -0.7720
17461SOL     OW54121   5.983   9.316   5.322  0.4537  0.2006 -0.6116
17461SOL    HW154122   5.909   9.364   5.286  0.7580  1.5389  0.4754
17461SOL    HW254123   6.056   9.378   5.320  1.0100 -0.3992  0.2691
17462SOL     OW54124   8.005   6.443   4.439 -0.0099 -0.3587 -0.3183
17462SOL    HW154125   8.014   6.505   4.512 -0.4834 -1.2635  0.5438
17462SOL    HW254126   7.912   6.421   4.438 -0.1446  0.1861 -1.6890
17463SOL     OW54127   5.265   5.760   5.494 -0.5889 -0.0518  0.8445
17463SOL    HW154128   5.245   5.782   5.404  0.2247 -0.6741  0.5021
17463SOL    HW254129   5.265   5.843   5.541 -0.8529  0.2875  0.2432
17464SOL     OW54130   1.081   8.689   7.589 -0.1487  0.1981 -0.0996
17464SOL    HW154131   0.989   8.707   7.611 -0.2452 -2.2597  1.9622
17464SOL    HW254132   1.127   8.770   7.609 -1.6495  0.9489  0.4566
17465SOL     OW54133   5.866   4.706   6.097 -0.4631  0.5152 -0.5784
17465SOL    HW154134   5.786   4.661   6.071  0.2289 -1.9341  1.1298
17465SOL    HW254135   5.937   4.648   6.070  0.4902  0.5464  1.5911
17466SOL     OW54136   7.806   2.872   1.619  0.0081 -0.2431 -0.3214
17466SOL    HW154137   7.871   2.912   1.677  1.0262  0.0694 -1.6247
17466SOL    HW254138   7.822   2.778   1.628 -0.2706 -0.2332  0.3653
17467SOL     OW54139   8.835   9.161   4.880  0.1467  0.1123 -0.0613
17467SOL    HW154140   8.767   9.102   4.847  0.2680 -1.0156  1.5765
17467SOL    HW254141   8.909   9.149   4.820 -0.1812 -0.6620 -0.3137
17468SOL     OW54142   4.453   8.322   1.564  0.6503 -0.2361 -0.3434
17468SOL    HW154143   4.542   8.299   1.591  0.5556 -0.2112 -0.0037
17468SOL    HW254144   4.426   8.389   1.626  0.4311 -0.1702 -0.5098
17469SOL     OW54145   9.515   0.265   4.699 -0.0983 -0.4539 -0.0888
17469SOL    HW154146   9.434   0.246   4.653 -0.4059  2.2230 -0.8480
17469SOL    HW254147   9.487   0.298   4.784 -0.1440  2.9544 -1.2353
17470SOL     OW54148   6.354   7.955   0.996 -0.6573 -0.0777  0.0770
17470SOL    HW154149   6.377   8.037   1.041  0.1481 -1.0255  1.4779
17470SOL    HW254150   6.303   7.906   1.061 -0.2846 -1.0934 -0.3766
17471SOL     OW54151   9.037   3.154   7.331 -0.6082  0.5172  0.5810
17471SOL    HW154152   8.989   3.181   7.409 -0.0374  0.4669  0.9583
17471SOL    HW254153   9.060   3.235   7.287  0.4145  0.6333  1.2927
17472SOL     OW54154   8.037   2.601   6.880  0.6810 -0.4095  0.5241
17472SOL    HW154155   7.997   2.519   6.911  0.5807 -0.4154  0.3791
17472SOL    HW254156   7.965   2.663   6.877  0.4992 -0.6543 -0.5779
17473SOL     OW54157   5.890   6.618   7.638  0.1135  0.2640 -0.6958
17473SOL    HW154158   5.853   6.621   7.726 -2.0733  0.5868 -1.5612
17473SOL    HW254159   5.905   6.710   7.616  2.7729  0.0868  0.1194
17474SOL     OW54160   2.511   4.443   0.133 -0.0476  0.0932  0.2340
17474SOL    HW154161   2.577   4.393   0.182 -0.0517 -0.8201 -0.6627
17474SOL    HW254162   2.443   4.379   0.112 -0.3787  0.6285 -0.3618
17475SOL     OW54163   9.032   1.099   7.134 -0.1785  0.2438  0.4924
17475SOL    HW154164   9.010   1.037   7.203 -0.0640  1.1056  1.3364
17475SOL    HW254165   9.056   1.179   7.181 -1.4634  1.3065 -0.5784
17476SOL     OW54166   6.845   4.992   5.394 -0.1022 -0.7781 -0.0090
17476SOL    HW154167   6.761   5.028   5.422  0.2012 -0.5147  0.5785
17476SOL    HW254168   6.875   5.051   5.326  0.9169  0.7899  1.7005
17477SOL     OW54169   6.103   2.360   0.781 -0.4041 -0.1207 -0.1502
17477SOL    HW154170   6.025   2.415   0.783 -0.6266 -0.4571  0.9973
17477SOL    HW254171   6.109   2.324   0.869  1.4873  0.5192  0.0212
17478SOL     OW54172   2.701   0.566   9.056  0.0728 -0.8314  0.1452
17478SOL    HW154173   2.636   0.620   9.102 -0.3500 -1.6204  0.4860
17478SOL    HW254174   2.782   0.618   9.059  0.1003 -0.9384  1.9356
17479SOL     OW54175   7.361   3.755   5.079 -0.0036  0.3828 -0.1657
17479SOL    HW154176   7.372   3.836   5.028  1.4560  1.8881  2.3338
17479SOL    HW254177   7.274   3.763   5.118 -0.2684  0.2282 -0.7059
17480SOL     OW54178   4.912   8.247   2.845 -0.4569  0.7398  0.0548
17480SOL    HW154179   4.937   8.338   2.827  1.5383  0.1573 -0.2901
17480SOL    HW254180   4.831   8.235   2.795  0.5199  1.6336 -1.8539
17481SOL     OW54181   9.181   2.843   5.525  0.5710  0.4303 -0.6821
17481SOL    HW154182   9.195   2.749   5.519 -0.9892  0.1961 -1.1835
17481SOL    HW254183   9.200   2.876   5.438 -0.4979  0.3112 -0.9773
17482SOL     OW54184   9.526   3.446   9.407  0.0157  0.2621 -0.8611
17482SOL    HW154185   9.534   3.389   9.483  1.7907  0.5322 -0.8068
17482SOL    HW254186   9.473   3.396   9.345  0.8063 -1.0918 -0.4848
17483SOL     OW54187   1.985   5.680   0.427 -0.0123  0.1520 -0.1188
17483SOL    HW154188   2.044   5.683   0.352 -0.1750 -0.1009 -0.2574
17483SOL    HW254189   2.037   5.712   0.500  0.3093 -0.1070 -0.2344
17484SOL     OW54190   1.190   6.817   2.862  0.0315 -0.0519 -1.1674
17484SOL    HW154191   1.223   6.897   2.822  1.4460 -0.8543 -1.6832
17484SOL    HW254192   1.231   6.746   2.812 -1.7228 -1.1163 -1.1795
17485SOL     OW54193   6.571   5.786   8.229 -0.1078 -0.2143 -0.2393
17485SOL    HW154194   6.647   5.747   8.272  0.6870  1.3210 -0.1734
17485SOL    HW254195   6.607   5.840   8.159 -1.0528  1.2589  0.3617
17486SOL     OW54196   4.659   8.654   5.313  1.0570  0.1350 -0.2549
17486SOL    HW154197   4.613   8.599   5.251  2.3205 -0.3508 -0.7767
17486SOL    HW254198   4.739   8.607   5.333  1.8907  1.5000 -0.2640
17487SOL     OW54199   1.105   8.239   0.536  0.6367 -0.1576  0.3137
17487SOL    HW154200   1.056   8.317   0.508 -0.2834 -0.1275  1.8815
17487SOL    HW254201   1.121   8.191   0.455 -2.7256 -0.5592 -0.2768
17488SOL     OW54202   2.469   3.418   2.475  0.8037 -0.7021  0.5208
17488SOL    HW154203   2.488   3.441   2.566  1.6571  1.4072 -0.1172
17488SOL    HW254204   2.556   3.402   2.436  0.5576 -0.2250 -0.2404
17489SOL     OW54205   5.704   2.030   6.030 -0.0552 -0.0677  0.4666
17489SOL    HW154206   5.682   1.958   6.090  1.2898  0.1632  1.2702
17489SOL    HW254207   5.772   2.079   6.075  0.9805  0.1488 -1.2548
17490SOL     OW54208   1.738   8.801   7.875 -0.2948  0.9369  0.1732
17490SOL    HW154209   1.666   8.746   7.908 -0.8693  0.4937 -1.6724
17490SOL    HW254210   1.714   8.820   7.784  2.1186  0.4140 -0.6623
17491SOL     OW54211   6.474   3.879   8.104  0.0238  0.5068  0.3456
17491SOL    HW154212   6.475   3.914   8.015  0.2169  1.5679  0.7528
17491SOL    HW254213   6.532   3.803   8.101  0.3870  0.8063 -0.3228
17492SOL     OW54214   0.997   1.983   2.557  0.5401  0.5341 -0.4475
17492SOL    HW154215   1.075   1.927   2.553 -0.4670 -0.8232 -2.9504
17492SOL    HW254216   0.944   1.956   2.482 -2.3683  1.4165  1.1473
17493SOL     OW54217   0.061   5.966   3.203 -0.4595 -0.1432 -0.5505
17493SOL    HW154218   0.080   5.912   3.279 -1.8887  0.7304  0.4773
17493SOL    HW254219  -0.013   5.923   3.161  0.6856 -0.9504 -1.8456
17494SOL     OW54220   2.470   2.585   1.587 -0.1526 -0.1590  0.3182
17494SOL    HW154221   2.489   2.530   1.511  0.8516  0.9624 -0.2728
17494SOL    HW254222   2.543   2.647   1.590 -1.2466  1.1264  0.9710
17495SOL     OW54223   1.537   6.620   7.430  0.0653 -0.1288 -0.1443
17495SOL    HW154224   1.523   6.547   7.370 -0.5651  1.2642 -1.7877
17495SOL    HW254225   1.462   6.678   7.416  0.8761  1.1580  0.6026
17496SOL     OW54226   1.463   4.025   6.275  0.3381  0.7548  0.2880
17496SOL    HW154227   1.468   4.111   6.233 -2.2331  1.3381  0.9729
17496SOL    HW254228   1.398   4.037   6.344  0.3662 -1.6195  0.7915
17497SOL     OW54229   6.640   1.364   7.056 -0.3687  0.0838 -0.0714
17497SOL    HW154230   6.720   1.342   7.009 -1.1736 -0.6498 -1.1474
17497SOL    HW254231   6.670   1.415   7.132  0.9238  1.8484 -1.6858
17498SOL     OW54232   5.957   4.131   3.017 -0.5660 -0.5848 -0.4517
17498SOL    HW154233   5.976   4.212   2.970 -1.5782 -0.2741 -0.3618
17498SOL    HW254234   5.863   4.136   3.035 -0.3468 -1.0407  0.9521
17499SOL     OW54235   0.876   5.731   0.187  0.2245 -0.9618  0.2644
17499SOL    HW154236   0.810   5.721   0.119 -0.1129  1.7560  0.0561
17499SOL    HW254237   0.935   5.799   0.153  2.5141 -2.4970  0.9276
17500SOL     OW54238   8.253   4.681   8.962 -0.3868 -0.1257  0.6882
17500SOL    HW154239   8.273   4.764   8.918 -1.9367  0.0378  0.2479
17500SOL    HW254240   8.254   4.617   8.891 -0.3307 -0.2986  0.8471
17501SOL     OW54241   3.380   3.279   6.154 -0.5061 -0.7092  0.1411
17501SOL    HW154242   3.303   3.225   6.138 -1.4607  0.6873 -0.1448
17501SOL    HW254243   3.354   3.338   6.224  0.7418 -1.0208  0.9016
17502SOL     OW54244   4.458   5.607   4.996  0.7718  0.0632 -0.4326
17502SOL    HW154245   4.389   5.548   4.966 -0.4497  0.7091  0.9623
17502SOL    HW254246   4.460   5.677   4.931  0.0301  0.0959 -0.4207
17503SOL     OW54247   7.671   5.403   4.213  0.4942  0.2756 -0.4121
17503SOL    HW154248   7.608   5.345   4.172  0.1697  0.6043 -0.3789
17503SOL    HW254249   7.721   5.345   4.272 -0.8731  0.3019  0.8181
17504SOL     OW54250   2.177   5.799   7.803 -0.0581 -0.2815 -0.5519
17504SOL    HW154251   2.145   5.800   7.893  0.1586 -0.0618 -0.4754
17504SOL    HW254252   2.272   5.809   7.811 -0.0019 -0.6229 -0.7878
17505SOL     OW54253   7.717   0.792   5.707 -0.7766 -0.2162 -0.8420
17505SOL    HW154254   7.711   0.788   5.611  2.5015  1.3155 -1.2610
17505SOL    HW254255   7.777   0.865   5.724 -0.2906 -1.2083  2.3270
17506SOL     OW54256   7.174   5.315   3.711 -0.3669  0.0570 -0.0158
17506SOL    HW154257   7.083   5.306   3.684 -0.6847 -1.4633  1.4376
17506SOL    HW254258   7.171   5.372   3.787  0.0873  1.1616 -0.7988
17507SOL     OW54259   8.543   9.438   6.208 -0.3818  0.2685 -0.0575
17507SOL    HW154260   8.557   9.440   6.113  1.0166 -0.7662  0.1018
17507SOL    HW254261   8.525   9.529   6.231  1.2777  0.9082 -1.0650
17508SOL     OW54262   5.545   7.755   4.038  0.7856  0.2037 -0.3320
17508SOL    HW154263   5.465   7.730   4.084  0.5755  0.5334 -0.5123
17508SOL    HW254264   5.537   7.713   3.952  0.1927  1.2661 -0.8230
17509SOL     OW54265   9.137   3.158   8.469  0.4942  0.2976  0.3624
17509SOL    HW154266   9.081   3.161   8.392  0.9748 -3.0075 -0.2899
17509SOL    HW254267   9.078   3.176   8.543 -0.6775  0.2919 -0.5421
17510SOL     OW54268   3.718   9.454   0.822  0.6102  0.4500  0.4751
17510SOL    HW154269   3.737   9.363   0.844  1.1235 -0.3495 -2.7536
17510SOL    HW254270   3.623   9.461   0.826  0.3990 -0.8633 -1.0619
17511SOL     OW54271   4.227   5.503   1.517  0.0619 -0.2914  0.2097
17511SOL    HW154272   4.146   5.493   1.468 -0.5261 -1.9218  1.4251
17511SOL    HW254273   4.230   5.596   1.540 -1.4697 -0.2002  0.1482
17512SOL     OW54274   4.764   2.018   5.554  0.4505  0.1372  0.2937
17512SOL    HW154275   4.720   1.938   5.583  0.4328 -0.7247 -1.9381
17512SOL    HW254276   4.729   2.086   5.611 -1.9514 -0.9136  0.1980
17513SOL     OW54277   8.086   0.642   4.293  0.1978 -0.0797 -0.2696
17513SOL    HW154278   8.055   0.730   4.270  0.7164  0.0344 -0.5338
17513SOL    HW254279   8.007   0.587   4.290 -0.1682  0.4155  0.1012
17514SOL     OW54280   2.150   5.178   0.700 -0.3622 -0.0719 -0.3210
17514SOL    HW154281   2.232   5.218   0.672 -0.7044  0.6870 -0.2606
17514SOL    HW254282   2.159   5.086   0.675  0.4775  0.0149 -0.3687
17515SOL     OW54283   6.031   3.871   3.685 -0.4189 -0.3236  0.5099
17515SOL    HW154284   6.094   3.811   3.726  0.5697  0.5024  0.2215
17515SOL    HW254285   6.027   3.945   3.745 -0.6899 -0.1174  0.2363
17516SOL     OW54286   9.578   4.330   8.185 -0.3100 -0.7817 -0.2687
17516SOL    HW154287   9.667   4.311   8.155  0.7653  0.3800  1.8831
17516SOL    HW254288   9.556   4.257   8.242 -0.1899 -0.4569  0.2042
17517SOL     OW54289   8.811   1.791   1.597  0.2941 -1.0345  0.3475
17517SOL    HW154290   8.746   1.778   1.666 -1.1880  2.8065 -0.0867
17517SOL    HW254291   8.896   1.781   1.641 -0.5591 -2.6612  1.7267
17518SOL     OW54292   9.353   8.322   2.195 -0.4168  0.3930  0.0235
17518SOL    HW154293   9.320   8.390   2.254  0.7044 -0.0369  1.1884
17518SOL    HW254294   9.325   8.239   2.235  0.8150  0.0751  0.2856
17519SOL     OW54295   2.100   7.480   0.180  0.0407  0.5413  0.5773
17519SOL    HW154296   2.007   7.502   0.189 -0.4235 -0.8511 -0.3301
17519SOL    HW254297   2.106   7.389   0.211  1.0029  0.4655  0.2109
17520SOL     OW54298   9.011   4.528   4.144 -0.2972 -0.4158  0.2900
17520SOL    HW154299   8.942   4.547   4.208 -1.8538 -2.0525 -0.7953
17520SOL    HW254300   9.076   4.478   4.193 -0.2748  0.3947  1.1258
17521SOL     OW54301   3.119   1.002   2.908  0.1028  0.2583  0.7711
17521SOL    HW154302   3.151   1.016   2.819  0.6695 -0.5596  0.8337
17521SOL    HW254303   3.157   1.073   2.959  0.7306  0.0691  0.5793
17522SOL     OW54304   3.300   4.111   3.023 -0.3998 -0.3030  0.3778
17522SOL    HW154305   3.296   4.077   2.934 -0.3682 -0.7135  0.5288
17522SOL    HW254306   3.319   4.034   3.077  1.2281  0.2036  0.5766
17523SOL     OW54307   2.385   9.007   9.257  0.5942  0.0090 -0.3360
17523SOL    HW154308   2.298   8.980   9.228  1.5305 -1.8524 -1.6853
17523SOL    HW254309   2.395   9.095   9.221 -1.1315  0.7353  0.8402
17524SOL     OW54310   2.458   3.827   7.123 -0.2294 -0.5369  0.3182
17524SOL    HW154311   2.387   3.818   7.059  0.7766 -0.7793 -0.8115
17524SOL    HW254312   2.414   3.828   7.208 -1.5589 -0.9022 -0.3355
17525SOL     OW54313   6.948   8.502   5.932  0.3566 -0.3194  0.3943
17525SOL    HW154314   6.989   8.417   5.950  2.9040  1.2131  2.6554
17525SOL    HW254315   7.011   8.547   5.876 -0.9186  0.1649 -0.6908
17526SOL     OW54316   2.628   6.370   8.171 -0.5708 -0.0298 -0.3123
17526SOL    HW154317   2.637   6.463   8.152  0.2939 -0.3055 -1.3472
17526SOL    HW254318   2.716   6.342   8.196 -1.2586 -0.1104  2.3456
17527SOL     OW54319   5.006   8.359   5.013  0.0859 -0.0689 -0.1689
17527SOL    HW154320   5.080   8.383   5.069  0.6211 -0.6244 -0.6340
17527SOL    HW254321   5.023   8.405   4.931  0.8799 -1.6264 -0.9104
17528SOL     OW54322   4.177   2.636   7.393  0.2911  0.1465 -0.0028
17528SOL    HW154323   4.148   2.561   7.341  0.2624 -0.4972  0.9064
17528SOL    HW254324   4.116   2.706   7.370 -0.2933 -0.3956 -0.1492
17529SOL     OW54325   4.896   3.445   2.860  0.2533  0.1257  0.2926
17529SOL    HW154326   4.950   3.505   2.809  0.6402  0.6646  1.3027
17529SOL    HW254327   4.955   3.373   2.883 -0.2530 -0.7626 -1.0563
17530SOL     OW54328   5.161   7.131   7.531 -0.5552  0.3501  0.1227
17530SOL    HW154329   5.140   7.053   7.480 -0.5559  0.4920 -0.0949
17530SOL    HW254330   5.223   7.101   7.597  0.0478  0.3204 -0.4505
17531SOL     OW54331   6.123   1.628   8.786  0.2046 -0.0535 -0.2473
17531SOL    HW154332   6.028   1.641   8.794  0.2826 -0.4068  2.0663
17531SOL    HW254333   6.132   1.544   8.742 -0.6397 -1.0613  1.3950
17532SOL     OW54334   8.978   4.494   7.645 -0.2689 -0.9396  0.5789
17532SOL    HW154335   9.035   4.542   7.586 -0.5850 -1.3487 -0.0703
17532SOL    HW254336   9.035   4.430   7.687  0.2047  0.1379  1.6301
17533SOL     OW54337   4.392   7.564   7.836 -0.6378 -0.5254 -0.0697
17533SOL    HW154338   4.386   7.484   7.783 -1.5454 -2.1482  2.2900
17533SOL    HW254339   4.389   7.635   7.773 -1.0859 -2.3385 -2.2112
17534SOL     OW54340   6.561   8.386   6.099 -0.0473  0.0704 -0.1403
17534SOL    HW154341   6.593   8.452   6.039 -2.2250 -0.5849 -2.1730
17534SOL    HW254342   6.540   8.311   6.043 -0.1983 -1.3527  1.7300
17535SOL     OW54343   8.542   0.256   3.201  0.0670 -0.1555 -0.5185
17535SOL    HW154344   8.522   0.210   3.119  0.3070 -2.1135  0.4651
17535SOL    HW254345   8.478   0.221   3.264  0.3039  0.8287  0.2954
17536SOL     OW54346   3.589   3.882   5.874 -0.2579 -0.0715 -0.3655
17536SOL    HW154347   3.547   3.903   5.790  0.3181 -0.9511 -0.8816
17536SOL    HW254348   3.523   3.905   5.940 -2.0190 -2.4117 -1.1820
17537SOL     OW54349   4.771   2.103   8.234 -0.0819  0.3413 -0.0152
17537SOL    HW154350   4.792   2.015   8.202 -1.6988 -0.3636  0.7412
17537SOL    HW254351   4.734   2.148   8.158 -0.0208  0.0775 -0.2016
17538SOL     OW54352   8.707   5.811   7.238  0.2615  0.6925  0.2810
17538SOL    HW154353   8.787   5.771   7.274  0.7617  2.2013  0.9473
17538SOL    HW254354   8.655   5.833   7.315  0.0084  1.3228 -0.0694
17539SOL     OW54355   4.723   6.897   0.002  0.1783 -0.3379  0.2585
17539SOL    HW154356   4.651   6.836  -0.012  0.8283 -1.5340  1.8321
17539SOL    HW254357   4.733   6.942  -0.082  1.5809 -4.4154 -2.0342
17540SOL     OW54358   8.431   2.077   4.910 -0.4587 -0.0950  0.0707
17540SOL    HW154359   8.442   2.158   4.860 -1.2996  0.7618  1.1933
17540SOL    HW254360   8.351   2.038   4.875  0.5899 -1.1044 -1.2913
17541SOL     OW54361   6.266   8.851   9.481  0.0802 -0.2582  0.0296
17541SOL    HW154362   6.327   8.777   9.491  0.7603  0.1962 -0.6678
17541SOL    HW254363   6.182   8.810   9.463  0.6132 -0.8750 -1.1950
17542SOL     OW54364   7.540   2.884   8.479 -0.1866  0.1429  0.7024
17542SOL    HW154365   7.492   2.867   8.560  1.6509 -0.4436  1.7281
17542SOL    HW254366   7.583   2.801   8.459 -1.0232  0.1187 -1.2219
17543SOL     OW54367   0.804   8.153   8.983 -0.2112 -0.2269 -0.4959
17543SOL    HW154368   0.752   8.146   8.903 -0.9516 -0.8468  0.0265
17543SOL    HW254369   0.879   8.095   8.967 -1.2941 -1.8356 -0.0529
17544SOL     OW54370   2.109   4.234   4.283 -0.2251  0.1408  0.1705
17544SOL    HW154371   2.076   4.155   4.240  0.0213  0.3796 -0.4639
17544SOL    HW254372   2.061   4.305   4.241  1.5014  0.5576 -1.2178
17545SOL     OW54373   8.235   8.348   4.540  0.1432 -0.2397  0.1636
17545SOL    HW154374   8.308   8.292   4.515  0.6974  0.1344  0.9136
17545SOL    HW254375   8.259   8.436   4.509 -1.5381 -0.6568 -2.6755
17546SOL     OW54376   3.171   2.843   4.059  0.0316  0.0544 -0.0214
17546SOL    HW154377   3.258   2.856   4.099 -0.6763  1.3722  1.1977
17546SOL    HW254378   3.123   2.923   4.082 -2.7166 -2.1208  2.5225
17547SOL     OW54379   4.229   6.953   7.759  0.0918 -0.5242  0.5831
17547SOL    HW154380   4.199   7.017   7.695 -0.1528  0.5331  1.7046
17547SOL    HW254381   4.308   6.991   7.796 -0.4847 -0.4704  1.8161
17548SOL     OW54382   0.347   5.448   4.200  0.0132 -0.1876 -0.3531
17548SOL    HW154383   0.335   5.376   4.261 -0.4080  1.8733  2.1628
17548SOL    HW254384   0.262   5.458   4.158 -0.9875  0.8645  1.7542
17549SOL     OW54385   8.387   8.035   3.800  0.8637 -0.0220 -0.0726
17549SOL    HW154386   8.395   8.039   3.705 -2.8022  2.6489 -0.5158
17549SOL    HW254387   8.424   8.118   3.831 -0.0397  0.1824  0.5173
17550SOL     OW54388   2.163   6.515   0.278  0.3714  0.1517 -0.7660
17550SOL    HW154389   2.201   6.518   0.190  2.0258  0.2354 -0.0785
17550SOL    HW254390   2.213   6.448   0.324 -0.0550  0.5447  0.3015
17551SOL     OW54391   6.727   6.716   4.447  0.1679  0.1802 -0.0275
17551SOL    HW154392   6.800   6.723   4.385  0.5223  0.4450  0.4161
17551SOL    HW254393   6.768   6.685   4.528 -0.4674 -1.3662 -0.2608
17552SOL     OW54394   9.075   7.576   8.895  0.5572 -0.0079 -0.2745
17552SOL    HW154395   9.089   7.660   8.938  1.2366 -0.3756  0.2480
17552SOL    HW254396   9.080   7.596   8.802 -0.9533  0.8036 -0.2186
17553SOL     OW54397   7.947   6.064   7.232 -0.1507 -0.6332 -0.2129
17553SOL    HW154398   7.885   6.064   7.304 -0.5202 -2.6136 -0.4796
17553SOL    HW254399   7.899   6.103   7.159 -0.5812 -0.7868 -0.0164
17554SOL     OW54400   5.343   7.865   5.825  0.0557  0.4201  0.5056
17554SOL    HW154401   5.295   7.936   5.783 -0.7502  0.0498  0.7846
17554SOL    HW254402   5.429   7.902   5.843  0.0436  0.9407 -0.4366
17555SOL     OW54403   0.412   2.802   0.412  0.2505  0.2820 -0.0109
17555SOL    HW154404   0.331   2.799   0.463 -0.8468 -0.0261 -1.6971
17555SOL    HW254405   0.404   2.882   0.359  1.4606  0.7132  0.4142
17556SOL     OW54406   7.745   8.870   2.065  0.0400  0.0859  0.1973
17556SOL    HW154407   7.688   8.797   2.087 -1.1717  0.2292 -2.0838
17556SOL    HW254408   7.818   8.830   2.017  1.4393  0.0082  2.2907
17557SOL     OW54409   0.897   6.497   2.104 -0.0668 -0.4111  0.3062
17557SOL    HW154410   0.859   6.473   2.188  0.5734 -1.7073  0.2419
17557SOL    HW254411   0.971   6.438   2.093  1.8050  1.8106  0.2707
17558SOL     OW54412   0.534   0.056   0.702  0.9090  0.1009  0.1360
17558SOL    HW154413   0.506   0.141   0.737  1.0515 -0.1940  0.9800
17558SOL    HW254414   0.614   0.076   0.653 -0.1109  0.7622 -1.3555
17559SOL     OW54415   0.806   4.228   4.979  0.5424  0.5668 -0.2125
17559SOL    HW154416   0.891   4.190   5.000  0.1531 -1.0227 -1.3640
17559SOL    HW254417   0.761   4.160   4.928 -0.5222  2.2443 -1.6201
17560SOL     OW54418   4.418   5.524   1.182  0.5344 -0.1482  0.5027
17560SOL    HW154419   4.366   5.465   1.237  1.2211 -0.7720  0.4829
17560SOL    HW254420   4.502   5.481   1.172  1.0859  0.8733  0.5625
17561SOL     OW54421   0.166   6.971   7.738 -0.2022 -0.0203  0.4957
17561SOL    HW154422   0.171   6.957   7.643 -3.1538  1.4677  0.0032
17561SOL    HW254423   0.211   7.054   7.752  0.8244 -0.5712  0.5256
17562SOL     OW54424   7.483   7.594   3.310  0.2871  0.0675  0.4557
17562SOL    HW154425   7.525   7.509   3.292 -1.4243 -1.6435  3.6203
17562SOL    HW254426   7.556   7.652   3.331  1.4344 -0.9544 -0.5300
17563SOL     OW54427   5.880   3.280   3.428 -0.3414  0.1464 -0.1148
17563SOL    HW154428   5.954   3.275   3.489 -0.1964  0.3518 -0.2699
17563SOL    HW254429   5.912   3.237   3.348 -0.9557 -1.2362  0.3581
17564SOL     OW54430   6.876   2.622   7.726  0.4018  0.3172  0.3382
17564SOL    HW154431   6.800   2.635   7.782  0.2357  2.3262 -0.2919
17564SOL    HW254432   6.951   2.640   7.783  0.3756 -0.5647  0.6646
17565SOL     OW54433   5.523   4.478   2.001 -0.2899 -0.2010  0.3813
17565SOL    HW154434   5.510   4.456   1.908 -0.5232  2.9388 -0.4308
17565SOL    HW254435   5.618   4.486   2.010 -0.1162 -2.1953  0.9414
17566SOL     OW54436   7.472   5.740   5.524  0.4349  0.4519  0.3907
17566SOL    HW154437   7.429   5.795   5.459  1.0923  0.6597  0.1199
17566SOL    HW254438   7.455   5.784   5.608 -3.6869 -1.7764  0.9949
17567SOL     OW54439   9.195   3.472   2.118  0.0948  0.1556  0.2891
17567SOL    HW154440   9.167   3.416   2.190 -2.6072 -2.2351 -2.3460
17567SOL    HW254441   9.165   3.560   2.142  0.7022 -0.2358  2.6977
17568SOL     OW54442   4.431   8.158   2.174 -0.4123 -0.2310 -0.0198
17568SOL    HW154443   4.358   8.188   2.229  0.1719  1.0276  0.0935
17568SOL    HW254444   4.402   8.175   2.084 -0.7510 -0.8975 -0.0471
17569SOL     OW54445   6.054   7.719   5.743 -0.5324 -0.2274  0.4824
17569SOL    HW154446   6.033   7.812   5.749  0.3725  0.1348 -1.3554
17569SOL    HW254447   5.975   7.674   5.772 -2.1812  1.0982 -1.6965
17570SOL     OW54448   3.752   3.185   2.843  0.4167  0.3289  0.2695
17570SOL    HW154449   3.803   3.106   2.820 -1.2404 -0.9232  0.7038
17570SOL    HW254450   3.704   3.205   2.762 -2.3372 -1.6776  1.2480
17571SOL     OW54451   3.909   0.686   2.544  0.1972 -0.7045 -0.2539
17571SOL    HW154452   3.825   0.692   2.499  0.4203  0.2504 -0.5799
17571SOL    HW254453   3.959   0.760   2.510  1.2302 -1.3560 -0.1856
17572SOL     OW54454   5.515   9.550   1.550  0.1924  0.1052 -0.2463
17572SOL    HW154455   5.587   9.510   1.501  0.4766  0.0558  0.1986
17572SOL    HW254456   5.547   9.637   1.572 -1.1771  1.3817 -2.8939
17573SOL     OW54457   5.330   6.762   7.948 -0.0018 -0.1039  0.1134
17573SOL    HW154458   5.237   6.761   7.971 -0.2488  1.6994 -0.6911
17573SOL    HW254459   5.372   6.710   8.017 -1.2200  1.5810  2.2355
17574SOL     OW54460   2.363   7.491   5.607  0.7154 -0.2026  0.0724
17574SOL    HW154461   2.423   7.418   5.593  0.3022 -0.7903  1.2251
17574SOL    HW254462   2.419   7.568   5.613  1.4231 -0.7927  1.5777
17575SOL     OW54463   2.667   2.827   0.038  0.1135  0.0931  0.3262
17575SOL    HW154464   2.688   2.752   0.094 -1.1022  1.1329  2.2866
17575SOL    HW254465   2.630   2.892   0.098 -2.9255  0.6503 -1.9098
17576SOL     OW54466   2.658   4.593   0.594 -0.3091 -0.1355  0.1808
17576SOL    HW154467   2.721   4.619   0.527  0.6615 -1.9150  0.3284
17576SOL    HW254468   2.696   4.623   0.676  0.9556 -2.1141  0.3832
17577SOL     OW54469   2.108   6.611   9.088  0.3805  0.0130 -0.3335
17577SOL    HW154470   2.137   6.582   9.174  0.9386 -1.2799 -0.9372
17577SOL    HW254471   2.117   6.534   9.032  1.2392  1.1627 -1.8427
17578SOL     OW54472   3.218   2.123   7.663 -0.4248  0.2780 -0.4660
17578SOL    HW154473   3.250   2.162   7.745 -0.5944  1.1064 -0.7831
17578SOL    HW254474   3.265   2.171   7.594 -0.2889 -0.4113 -0.8596
17579SOL     OW54475   7.015   2.107   2.449 -0.3337  0.3420  0.7109
17579SOL    HW154476   7.056   2.184   2.489  1.2441  0.2014 -0.5211
17579SOL    HW254477   7.029   2.118   2.355 -0.5329 -1.1899  0.4721
17580SOL     OW54478   9.251   4.757   0.020  0.5494  0.3503 -0.4973
17580SOL    HW154479   9.338   4.795   0.022  0.7792 -0.1942  1.5260
17580SOL    HW254480   9.192   4.829   0.043  0.5807  0.4288 -0.6612
17581SOL     OW54481   4.094   0.980   4.755 -0.3924  0.4190 -0.4281
17581SOL    HW154482   4.069   0.903   4.806 -1.3125 -0.5993 -2.3072
17581SOL    HW254483   4.132   0.944   4.675  3.3358  1.9357  0.4344
17582SOL     OW54484   8.221   6.250   0.389 -0.5465 -0.2007  0.0309
17582SOL    HW154485   8.307   6.269   0.424 -0.9553 -0.4934  1.2267
17582SOL    HW254486   8.160   6.278   0.457 -1.3666 -0.7579 -0.4556
17583SOL     OW54487   8.716   5.255   1.148 -0.3413  0.3235  0.0301
17583SOL    HW154488   8.733   5.240   1.241  0.5639  0.5991 -0.0808
17583SOL    HW254489   8.795   5.299   1.116 -1.9579  3.3731 -0.1493
17584SOL     OW54490   8.741   4.194   7.459 -0.7301 -0.1235 -0.5416
17584SOL    HW154491   8.794   4.119   7.486  0.6190  1.1038  0.3457
17584SOL    HW254492   8.717   4.174   7.368  2.0734 -0.3096 -1.3154
17585SOL     OW54493   9.218   5.257   4.687 -0.8252  0.0714  0.0573
17585SOL    HW154494   9.152   5.229   4.750  0.5486  0.8451  1.9508
17585SOL    HW254495   9.229   5.181   4.629 -1.9764 -0.7648  0.8784
17586SOL     OW54496   3.963   7.800   5.409  0.3976  0.4920 -0.3719
17586SOL    HW154497   3.977   7.818   5.502  1.5386  0.7012 -0.5639
17586SOL    HW254498   4.009   7.718   5.393  1.8379  1.4020 -1.1271
17587SOL     OW54499   4.406   0.242   1.902 -0.2902  0.2082 -0.1924
17587SOL    HW154500   4.344   0.194   1.846 -1.4181  0.5643  0.7081
17587SOL    HW254501   4.489   0.196   1.890 -0.4361  0.4037 -2.3081
17588SOL     OW54502   1.052   8.303   3.769  0.9455  0.2889 -0.0966
17588SOL    HW154503   1.066   8.266   3.681 -0.6475  0.9432 -0.6693
17588SOL    HW254504   0.969   8.266   3.797 -0.5669  3.0463 -0.5573
17589SOL     OW54505   2.030   2.685   5.460  0.6878  0.9131  0.1670
17589SOL    HW154506   2.027   2.643   5.375  0.7895 -0.0513  0.6290
17589SOL    HW254507   1.945   2.728   5.469 -0.0164 -0.4643  0.3129
17590SOL     OW54508   5.270   5.564   4.835  0.1989 -0.6019 -0.3681
17590SOL    HW154509   5.287   5.590   4.744  0.0803 -1.0748 -0.5263
17590SOL    HW254510   5.263   5.647   4.882 -0.3603 -0.3424 -0.8995
17591SOL     OW54511   5.007   0.041   4.146  0.6356  0.0723  0.0127
17591SOL    HW154512   4.986  -0.033   4.089  1.3890 -1.4841  1.6657
17591SOL    HW254513   4.926   0.058   4.193  0.7997 -0.5557  0.5367
17592SOL     OW54514   5.727   3.365   5.839  0.5940  0.1837 -0.0022
17592SOL    HW154515   5.669   3.431   5.879  0.9003 -0.3001  1.2828
17592SOL    HW254516   5.790   3.417   5.788 -0.6377  0.7415 -1.0369
17593SOL     OW54517   8.051   5.958   7.511  0.1622  0.3981 -0.1321
17593SOL    HW154518   7.958   5.978   7.523  0.3081  0.3910  1.2305
17593SOL    HW254519   8.056   5.914   7.426 -1.1822 -0.2252  0.0838
17594SOL     OW54520   1.391   8.428   6.414  0.1813 -0.0952  0.2163
17594SOL    HW154521   1.397   8.499   6.478  1.6100  0.4300 -0.4509
17594SOL    HW254522   1.361   8.352   6.464 -3.1170  1.3286  0.6226
17595SOL     OW54523   2.244   7.630   2.796 -0.1785  0.7980 -0.2233
17595SOL    HW154524   2.235   7.614   2.890 -0.2215  0.7103 -0.2422
17595SOL    HW254525   2.227   7.724   2.786 -2.6325  0.4019 -0.4425
17596SOL     OW54526   1.727   2.318   3.496  0.4794 -0.2877  0.3130
17596SOL    HW154527   1.687   2.380   3.556  0.5257  0.3053 -0.2556
17596SOL    HW254528   1.663   2.247   3.488 -0.6724  0.8189 -0.8779
17597SOL     OW54529   5.637   2.925   1.930  0.1385 -0.0349 -0.1285
17597SOL    HW154530   5.629   2.874   2.010 -1.1135 -0.1603 -0.2990
17597SOL    HW254531   5.587   3.005   1.948  0.6593  0.3637 -0.4486
17598SOL     OW54532   5.207   1.154   7.820 -0.3299  0.2733  0.1437
17598SOL    HW154533   5.247   1.225   7.771 -3.1259  0.8399 -1.4546
17598SOL    HW254534   5.257   1.076   7.794  0.2408  1.0495 -1.1516
17599SOL     OW54535   9.291   3.504   6.213  0.2026  0.7292 -0.2812
17599SOL    HW154536   9.361   3.493   6.148 -0.3218  0.9030 -0.8966
17599SOL    HW254537   9.270   3.415   6.240  1.1654  0.7179  0.4712
17600SOL     OW54538   0.705   4.459   5.090  0.1479 -0.1682 -0.5550
17600SOL    HW154539   0.764   4.460   5.165 -1.2967 -1.0083  0.6381
17600SOL    HW254540   0.732   4.383   5.039  1.1584  0.4260 -0.9389
17601SOL     OW54541   2.942   2.921   6.884 -0.2805  0.4723 -0.4970
17601SOL    HW154542   3.016   2.867   6.855  0.2842  0.1225  1.4787
17601SOL    HW254543   2.877   2.858   6.915 -0.3422  0.8636  0.1825
17602SOL     OW54544   5.869   2.344   7.344 -0.0214 -0.4287 -0.8685
17602SOL    HW154545   5.938   2.304   7.291 -0.7941 -0.2416 -2.0321
17602SOL    HW254546   5.809   2.383   7.281 -1.3465 -0.8137  0.1146
17603SOL     OW54547   2.061   6.689   1.019 -0.1598  0.6232 -0.0093
17603SOL    HW154548   2.079   6.668   1.111  0.5028  0.8101 -0.0882
17603SOL    HW254549   2.076   6.783   1.012  2.3501  0.2317 -0.8429
17604SOL     OW54550   9.426   0.457   5.680  0.0050  0.9310  0.1486
17604SOL    HW154551   9.475   0.495   5.753  1.1708  0.3914 -0.3283
17604SOL    HW254552   9.480   0.475   5.603 -1.1987  1.4770 -0.6052
17605SOL     OW54553   2.378   9.107   7.065  0.2783  0.2331  0.0404
17605SOL    HW154554   2.404   9.178   7.006  0.6010 -0.4047 -0.5951
17605SOL    HW254555   2.290   9.132   7.094 -0.5279 -0.1630 -1.8824
17606SOL     OW54556   9.550   3.465   4.562  0.7438  0.6066 -0.3633
17606SOL    HW154557   9.560   3.515   4.643  2.3859 -2.0069  1.1761
17606SOL    HW254558   9.635   3.474   4.518  0.8936 -0.4379 -0.2969
17607SOL     OW54559   7.488   2.094   8.421  0.0254  0.0478  0.0862
17607SOL    HW154560   7.551   2.024   8.404 -0.4598  0.1248 -2.3727
17607SOL    HW254561   7.461   2.080   8.512  3.2148 -0.2365  1.1282
17608SOL     OW54562   5.610   0.555   4.896 -0.0923 -0.2037  0.4808
17608SOL    HW154563   5.516   0.572   4.896  0.0516  0.6229  0.7558
17608SOL    HW254564   5.621   0.486   4.831 -0.6629  1.0060 -0.9787
17609SOL     OW54565   0.330   4.991   7.383  0.2250  0.3514 -0.0089
17609SOL    HW154566   0.364   4.912   7.425  1.4475  1.4820  1.2153
17609SOL    HW254567   0.322   4.967   7.290 -0.3891 -1.4960  0.4706
17610SOL     OW54568   1.053   4.261   7.248 -0.0566 -0.1548  0.0079
17610SOL    HW154569   1.045   4.272   7.154  0.2153 -0.1829 -0.0180
17610SOL    HW254570   1.027   4.345   7.285 -0.8689 -0.3678 -0.0589
17611SOL     OW54571   8.140   7.877   5.689  0.1691 -0.3943 -0.5988
17611SOL    HW154572   8.142   7.802   5.630  1.1320 -0.7030 -0.1920
17611SOL    HW254573   8.230   7.888   5.717 -0.0984  0.4155 -0.0171
17612SOL     OW54574   4.996   5.273   8.627 -0.0563 -0.0212 -0.5084
17612SOL    HW154575   5.016   5.366   8.614  0.0075  0.2634  1.3757
17612SOL    HW254576   5.069   5.227   8.585  0.4095  0.8018 -0.6250
17613SOL     OW54577   5.174   1.118   1.566 -0.3315 -0.1194  0.1086
17613SOL    HW154578   5.113   1.181   1.529 -0.0819 -0.8574 -1.7030
17613SOL    HW254579   5.254   1.129   1.515  0.6923  0.0592  1.6892
17614SOL     OW54580   7.219   3.560   3.968 -0.3458 -0.4433  0.1256
17614SOL    HW154581   7.278   3.488   3.944 -1.9806 -1.8911  0.2120
17614SOL    HW254582   7.228   3.623   3.897  3.6447  0.9956  1.6349
17615SOL     OW54583   2.682   7.766   6.782  0.5703  0.5261  0.2182
17615SOL    HW154584   2.645   7.797   6.865 -0.7867  1.1639 -0.5806
17615SOL    HW254585   2.763   7.816   6.772  1.3731 -0.4188  1.7033
17616SOL     OW54586   3.899   5.007   1.762  0.0189 -0.2639  0.1541
17616SOL    HW154587   3.981   4.965   1.790 -0.9800  0.2309  4.7202
17616SOL    HW254588   3.833   4.939   1.775 -0.5489 -0.1697 -1.9806
17617SOL     OW54589   8.373   1.267   5.518  0.3538 -0.0573 -0.3238
17617SOL    HW154590   8.294   1.241   5.473 -1.0307  1.5735  1.0116
17617SOL    HW254591   8.357   1.358   5.544  3.1001  0.7080 -0.9457
17618SOL     OW54592   7.839   5.447   4.002 -0.5852 -0.1986  0.2150
17618SOL    HW154593   7.836   5.541   3.982  1.8966  0.0630  0.7511
17618SOL    HW254594   7.778   5.436   4.075 -0.2116  1.1948  0.7651
17619SOL     OW54595   3.129   2.245   3.441 -0.5454 -0.8909  0.0747
17619SOL    HW154596   3.179   2.308   3.388  0.1313 -1.8938 -0.5165
17619SOL    HW254597   3.149   2.269   3.532 -1.7593  0.8855 -0.0618
17620SOL     OW54598   5.719   9.389   0.802 -0.4373  0.0369 -0.3027
17620SOL    HW154599   5.748   9.478   0.818 -0.6186  0.2310 -1.0393
17620SOL    HW254600   5.779   9.355   0.736 -0.8244 -0.1367 -0.5697
17621SOL     OW54601   2.365   3.411   2.937  0.3680  0.0930 -0.4670
17621SOL    HW154602   2.276   3.393   2.908 -0.1591  0.2685  0.9919
17621SOL    HW254603   2.368   3.506   2.949  0.3576 -0.0413  0.6894
17622SOL     OW54604   1.007   0.028   5.099 -0.2165 -0.1223  0.0999
17622SOL    HW154605   1.027   0.045   5.191 -0.7394  1.1051  0.0043
17622SOL    HW254606   0.943   0.095   5.075  0.3399 -0.0608 -1.3190
17623SOL     OW54607   2.732   5.401   4.494  0.4927 -0.2214  0.4877
17623SOL    HW154608   2.783   5.425   4.417  1.6809 -0.6899  1.1066
17623SOL    HW254609   2.739   5.476   4.553  0.1771 -0.1459  0.4300
17624SOL     OW54610   3.632   0.896   8.368  0.0608 -0.0760 -0.2115
17624SOL    HW154611   3.699   0.856   8.422  0.2335  2.6587  1.8145
17624SOL    HW254612   3.551   0.886   8.419 -0.4403 -0.3739 -1.0452
17625SOL     OW54613   8.636   1.758   1.352 -0.5182  0.1914  0.1889
17625SOL    HW154614   8.574   1.824   1.384 -1.7169  0.3427 -2.2390
17625SOL    HW254615   8.681   1.728   1.431 -1.6052  2.1940  1.6733
17626SOL     OW54616   7.924   3.090   3.771 -0.0251  0.0221  0.5575
17626SOL    HW154617   7.953   3.172   3.732  0.1715 -0.5617 -0.5662
17626SOL    HW254618   7.855   3.058   3.711  0.9185 -1.3492  0.1502
17627SOL     OW54619   8.874   0.040   3.149  0.2781  0.3344  0.1676
17627SOL    HW154620   8.809  -0.028   3.171 -0.2183  1.2709  1.7549
17627SOL    HW254621   8.861   0.056   3.056  0.3174 -1.6369 -0.2295
17628SOL     OW54622   6.921   8.618   0.909 -0.7562 -0.9247  0.1553
17628SOL    HW154623   7.015   8.600   0.912 -0.2045  1.6319  0.3982
17628SOL    HW254624   6.892   8.582   0.825  0.8159 -0.2177 -0.7286
17629SOL     OW54625   4.911   5.112   1.753 -0.5328  0.4824  0.0324
17629SOL    HW154626   4.923   5.084   1.663  0.3124 -1.0820  0.5962
17629SOL    HW254627   4.956   5.046   1.805 -0.0663  1.9242  1.5560
17630SOL     OW54628   2.887   3.450   9.493 -0.8989 -0.2202  0.1394
17630SOL    HW154629   2.904   3.505   9.570 -0.8685 -0.4031  0.2629
17630SOL    HW254630   2.896   3.361   9.525  0.7624 -0.2980 -0.4505
17631SOL     OW54631   8.507   6.864   1.145  0.1175 -0.4214 -0.2183
17631SOL    HW154632   8.603   6.865   1.143  0.1306 -1.0408 -1.9780
17631SOL    HW254633   8.483   6.948   1.183  1.3659  0.2553 -0.8497
17632SOL     OW54634   2.670   8.679   3.503 -0.0156 -0.2808 -0.2154
17632SOL    HW154635   2.727   8.608   3.532  2.2600  1.3255 -0.4591
17632SOL    HW254636   2.712   8.758   3.537  0.0408  1.2915 -3.5216
17633SOL     OW54637   2.760   3.464   7.237 -0.6543 -0.3902  0.5587
17633SOL    HW154638   2.821   3.392   7.222 -1.4791 -1.3003  1.4233
17633SOL    HW254639   2.796   3.537   7.187 -0.3894 -1.7072 -1.2915
17634SOL     OW54640   8.420   0.156   3.413 -0.3972  0.1340 -0.0314
17634SOL    HW154641   8.339   0.167   3.463  0.6692  2.2061  1.4062
17634SOL    HW254642   8.471   0.094   3.464 -0.9471 -1.0352 -0.8465
17635SOL     OW54643   5.500   3.563   5.007  0.1875 -0.0262 -0.6198
17635SOL    HW154644   5.459   3.477   5.016 -0.1894  0.3907  2.4111
17635SOL    HW254645   5.427   3.624   4.993  0.2532  0.1054 -0.3810
17636SOL     OW54646   6.443   9.375   9.497 -0.7716  0.4123 -0.2789
17636SOL    HW154647   6.462   9.442   9.562 -0.8918  0.0786  0.1063
17636SOL    HW254648   6.379   9.318   9.540  0.4453 -0.8187 -0.0178
17637SOL     OW54649   2.703   9.479   5.213 -0.0548  0.4790 -1.0341
17637SOL    HW154650   2.742   9.405   5.260 -0.2147  1.1880  0.2651
17637SOL    HW254651   2.772   9.545   5.211 -0.4799  0.9424 -0.6106
17638SOL     OW54652   0.127   9.079   3.523 -0.6459  0.1331 -0.6456
17638SOL    HW154653   0.190   9.007   3.530 -2.3555 -1.3702  0.0689
17638SOL    HW254654   0.176   9.156   3.552  0.8622 -0.9767 -0.0879
17639SOL     OW54655   9.086   7.820   3.989 -0.0097  0.2153 -0.2398
17639SOL    HW154656   9.038   7.889   4.035  0.1969  0.6313 -0.6400
17639SOL    HW254657   9.021   7.753   3.971 -0.0153 -0.1576  1.0449
17640SOL     OW54658   5.444   2.257   5.922 -0.8281 -0.1323 -0.0750
17640SOL    HW154659   5.351   2.276   5.909 -0.5037  3.6549  1.7550
17640SOL    HW254660   5.459   2.274   6.015  2.0759  1.6467 -0.7715
17641SOL     OW54661   1.875   3.977   1.785  0.1018 -0.5205  0.0935
17641SOL    HW154662   1.796   4.029   1.778 -0.8601 -2.1030 -1.9137
17641SOL    HW254663   1.881   3.953   1.878 -1.7723 -0.3716  0.2757
17642SOL     OW54664   7.725   7.005   4.947 -0.5691  1.0997 -0.4265
17642SOL    HW154665   7.674   7.076   4.908 -0.4748  1.3143 -0.1641
17642SOL    HW254666   7.767   7.045   5.024 -0.1090  0.8959 -0.5638
17643SOL     OW54667   2.594   7.836   5.147  0.1143  0.2102  0.3289
17643SOL    HW154668   2.597   7.925   5.182 -0.2000 -0.1950  1.4423
17643SOL    HW254669   2.626   7.781   5.218  0.6763 -0.5438 -0.4808
17644SOL     OW54670   7.773   9.542   8.993  0.2589  0.0940 -0.4401
17644SOL    HW154671   7.736   9.491   9.065  1.3522  2.0320  1.6530
17644SOL    HW254672   7.806   9.477   8.931  0.4193 -1.7048  1.4402
17645SOL     OW54673   8.925   9.258   1.068  0.1790 -0.5231 -0.2477
17645SOL    HW154674   9.005   9.306   1.091 -0.0942 -0.3633  0.3917
17645SOL    HW254675   8.955   9.186   1.012  0.9127 -1.1620  0.9426
17646SOL     OW54676   3.753   2.965   6.761 -0.1183  0.6104 -0.7883
17646SOL    HW154677   3.810   2.890   6.778  0.8318  1.3165 -0.7004
17646SOL    HW254678   3.787   3.003   6.680  0.4466  1.8456 -0.0033
17647SOL     OW54679   1.405   2.929   7.175 -0.2300 -0.3409  0.1930
17647SOL    HW154680   1.396   2.880   7.256  2.6861 -0.2165  0.6801
17647SOL    HW254681   1.482   2.984   7.187  1.1259 -1.2560 -3.0841
17648SOL     OW54682   8.331   1.241   8.567 -0.3888 -0.1059 -0.0043
17648SOL    HW154683   8.398   1.300   8.532 -0.9818 -0.3181 -1.5510
17648SOL    HW254684   8.363   1.153   8.547 -0.0388 -0.3162  1.3291
17649SOL     OW54685   0.537   8.767   8.955  0.3939  0.5406 -0.1935
17649SOL    HW154686   0.494   8.747   9.039  0.5537 -0.3910 -0.3252
17649SOL    HW254687   0.565   8.682   8.922 -1.0498  0.7105 -1.9582
17650SOL     OW54688   8.033   5.063   5.793  0.2311  0.0421 -0.0506
17650SOL    HW154689   7.943   5.079   5.765  0.0855  0.3808  0.5921
17650SOL    HW254690   8.076   5.029   5.715 -0.3977  0.0861 -0.4278
17651SOL     OW54691   0.624   6.083   5.603 -0.7990  0.6365  0.0048
17651SOL    HW154692   0.598   6.111   5.515 -0.4777  1.9803  0.3169
17651SOL    HW254693   0.663   6.161   5.643  0.0935 -0.2536  0.9456
17652SOL     OW54694   6.893   8.513   6.728 -0.4534  0.2257 -0.3161
17652SOL    HW154695   6.931   8.527   6.642 -0.6427 -0.8819 -0.6021
17652SOL    HW254696   6.857   8.598   6.754 -0.7403  0.4720 -1.4934
17653SOL     OW54697   4.036   6.132   7.012 -0.2107  0.1762  0.4589
17653SOL    HW154698   4.056   6.124   7.106  0.2865 -1.0223  0.2571
17653SOL    HW254699   3.986   6.213   7.006 -1.1205 -0.2399  1.9152
17654SOL     OW54700   4.028   9.036   6.314 -0.4185 -0.1755 -0.3749
17654SOL    HW154701   4.090   9.018   6.385 -0.9927 -0.1577  0.1412
17654SOL    HW254702   4.080   9.083   6.248 -0.0160  0.3622  0.3046
17655SOL     OW54703   4.322   4.892   8.118  0.6319 -0.0335 -0.6605
17655SOL    HW154704   4.260   4.910   8.189  2.0353  1.4203  0.2390
17655SOL    HW254705   4.266   4.865   8.045 -1.0189  0.5894  0.3103
17656SOL     OW54706   9.518   1.926   8.054 -0.6116  0.4465 -0.1022
17656SOL    HW154707   9.595   1.955   8.005 -1.7490  3.0218 -0.5284
17656SOL    HW254708   9.465   1.878   7.989 -0.4490  0.7382 -0.4558
17657SOL     OW54709   0.170   6.047   4.860 -0.3953  0.1638 -0.0843
17657SOL    HW154710   0.190   6.114   4.926  0.6429 -0.4128  0.2074
17657SOL    HW254711   0.136   5.973   4.911 -0.8634  0.2072 -0.3342
17658SOL     OW54712   6.931   7.630   9.229 -1.0432  0.0366  0.0438
17658SOL    HW154713   6.844   7.668   9.221 -1.6001 -0.9044  1.2398
17658SOL    HW254714   6.986   7.703   9.260 -0.5294  1.5961 -4.0154
17659SOL     OW54715   0.331   7.863   3.131  0.3729  0.2408  0.1990
17659SOL    HW154716   0.386   7.940   3.144 -0.7078  1.2956 -1.1218
17659SOL    HW254717   0.272   7.888   3.059 -1.4928 -1.0109  1.2156
17660SOL     OW54718   4.607   3.947   5.091 -0.0628  0.4474  0.2413
17660SOL    HW154719   4.696   3.939   5.056  0.7442  0.0153  2.2507
17660SOL    HW254720   4.586   4.040   5.079  1.0466  0.7698  0.5919
17661SOL     OW54721   1.321   4.838   3.555 -0.4136  0.1129 -0.6902
17661SOL    HW154722   1.353   4.748   3.562  0.0318  0.3855  2.1984
17661SOL    HW254723   1.228   4.829   3.533 -0.3409 -1.0573 -0.6060
17662SOL     OW54724   4.065   9.160   0.465  0.5738  0.0432 -0.1472
17662SOL    HW154725   4.151   9.117   0.459  0.9334  0.5944  0.8236
17662SOL    HW254726   4.068   9.228   0.397  1.3400  0.7664  0.5876
17663SOL     OW54727   6.458   6.368   8.328  0.0763 -0.0860  0.2867
17663SOL    HW154728   6.407   6.295   8.364  2.2012 -1.1699  1.2949
17663SOL    HW254729   6.501   6.407   8.405  1.3275  0.3032 -0.5851
17664SOL     OW54730   2.136   9.257   2.416 -0.1865  0.0071  0.3457
17664SOL    HW154731   2.124   9.309   2.495 -0.2409  0.3231  0.1290
17664SOL    HW254732   2.146   9.321   2.345  1.0417 -0.2638  0.2630
17665SOL     OW54733   9.382   5.245   8.006  0.2131 -0.0660 -0.2324
17665SOL    HW154734   9.335   5.187   7.947 -0.0003 -1.8387  1.5929
17665SOL    HW254735   9.326   5.253   8.083  1.4850  0.3202  0.6941
17666SOL     OW54736   4.408   5.191   6.331  0.2993  0.4205 -0.2758
17666SOL    HW154737   4.426   5.233   6.247  0.9199 -0.3553 -0.5420
17666SOL    HW254738   4.353   5.254   6.378  0.8227  1.3215 -0.8422
17667SOL     OW54739   0.901   1.744   1.529 -0.6261 -0.1653 -0.2653
17667SOL    HW154740   0.904   1.666   1.474 -0.4223 -0.4173  0.0981
17667SOL    HW254741   0.859   1.714   1.610 -0.1115 -0.0197  0.0604
17668SOL     OW54742   9.268   8.193   0.529  0.1956 -0.1204 -0.2259
17668SOL    HW154743   9.299   8.151   0.448  0.6032  1.0389 -0.6911
17668SOL    HW254744   9.343   8.244   0.559  0.3133 -1.1205  1.3218
17669SOL     OW54745   3.117   1.841   4.799  0.6312  0.0365  0.0983
17669SOL    HW154746   3.170   1.920   4.788  0.5978 -0.1231 -1.3786
17669SOL    HW254747   3.156   1.777   4.738 -1.1658 -0.1210 -0.9361
17670SOL     OW54748   0.520   5.087   6.661  0.5608  0.2125 -0.0052
17670SOL    HW154749   0.591   5.136   6.620  0.0280  0.3246 -0.8224
17670SOL    HW254750   0.541   4.995   6.645  0.3248  0.2594 -0.5800
17671SOL     OW54751   5.146   1.974   1.843 -0.3071 -0.4971  0.2464
17671SOL    HW154752   5.173   2.034   1.774  1.0841 -1.4840 -0.1187
17671SOL    HW254753   5.054   1.957   1.824 -0.2323  0.0806 -0.7377
17672SOL     OW54754   1.720   7.535   3.443 -0.0345  0.2262 -0.3817
17672SOL    HW154755   1.663   7.533   3.520 -0.4477 -0.2133 -0.6974
17672SOL    HW254756   1.775   7.612   3.457  0.6457 -0.4518  0.8828
17673SOL     OW54757   3.765   7.991   3.050  0.3229  0.1250 -0.1948
17673SOL    HW154758   3.726   8.078   3.047 -1.6808 -0.7370 -0.6314
17673SOL    HW254759   3.841   7.996   2.992 -0.8736  1.0813 -1.7456
17674SOL     OW54760   1.270   5.427   9.174  0.1469  0.3047 -0.3973
17674SOL    HW154761   1.338   5.493   9.186  0.6237 -0.4580  1.4780
17674SOL    HW254762   1.318   5.344   9.164 -0.4111 -0.4032  1.9859
17675SOL     OW54763   3.711   3.954   2.612 -0.2709  0.7322 -0.2450
17675SOL    HW154764   3.672   4.011   2.678  0.8145  0.1973  0.9109
17675SOL    HW254765   3.697   3.866   2.646  0.4165  0.4562 -0.6637
17676SOL     OW54766   7.305   4.022   1.448 -0.6944  0.1151  0.1888
17676SOL    HW154767   7.210   4.010   1.450 -0.8569  1.3532  0.6374
17676SOL    HW254768   7.329   4.015   1.355 -1.1975 -0.3245  0.0884
17677SOL     OW54769   2.781   5.828   8.705  0.2456 -0.1471 -0.6885
17677SOL    HW154770   2.731   5.801   8.628 -0.7665  1.1663 -0.5134
17677SOL    HW254771   2.871   5.798   8.687 -0.0691 -0.2477 -2.1603
17678SOL     OW54772   0.673   9.216   7.678  0.1269 -0.1957  0.6941
17678SOL    HW154773   0.592   9.172   7.650  0.6602 -0.4353 -0.5376
17678SOL    HW254774   0.671   9.210   7.774 -0.7305 -1.2636  0.6404
17679SOL     OW54775   3.324   5.111   2.477 -0.8394 -0.4836  0.2935
17679SOL    HW154776   3.381   5.178   2.513 -1.4777 -0.1151  0.6217
17679SOL    HW254777   3.342   5.113   2.382  0.6813 -1.3108  0.5226
17680SOL     OW54778   3.732   9.368   6.153  0.0569  0.0253  0.0313
17680SOL    HW154779   3.705   9.441   6.098  0.0483  1.1344  1.4464
17680SOL    HW254780   3.734   9.293   6.094 -1.1656  0.9111 -1.2016
17681SOL     OW54781   4.698   6.453   0.076  0.0548  0.1818 -0.6283
17681SOL    HW154782   4.775   6.435   0.023 -1.5706 -0.1016 -3.0657
17681SOL    HW254783   4.635   6.386   0.050 -0.2572 -1.3030  3.2247
17682SOL     OW54784   3.691   4.694   7.354 -0.4093 -0.0102  0.1281
17682SOL    HW154785   3.651   4.778   7.333 -0.3062  0.7280  2.5306
17682SOL    HW254786   3.692   4.692   7.450 -1.7091 -3.3693  0.2007
17683SOL     OW54787   1.391   4.976   2.225  0.2354 -0.4095 -0.2974
17683SOL    HW154788   1.381   4.893   2.271  0.3718  0.6664  1.8049
17683SOL    HW254789   1.486   4.990   2.221  0.1931  0.1834  0.4592
17684SOL     OW54790   2.985   8.576   2.987  0.0762 -0.2227  0.2958
17684SOL    HW154791   3.068   8.611   3.020 -0.2104 -0.4998  1.3553
17684SOL    HW254792   2.999   8.563   2.894  0.7761  1.0312  0.2044
17685SOL     OW54793   8.804   7.828   3.575 -0.2686  0.5681  0.2005
17685SOL    HW154794   8.874   7.772   3.545 -0.3620 -0.2244  1.3899
17685SOL    HW254795   8.813   7.829   3.670 -1.3767  1.1032  0.3187
17686SOL     OW54796   0.712   4.706   0.443  0.0214 -0.0853  0.0257
17686SOL    HW154797   0.628   4.691   0.401 -1.2236 -0.9493  2.5945
17686SOL    HW254798   0.749   4.618   0.455  1.2277  0.2672 -0.8683
17687SOL     OW54799   9.456   2.183   6.916 -0.2458  0.0501 -0.1898
17687SOL    HW154800   9.458   2.248   6.986  2.3952 -0.9236  0.7526
17687SOL    HW254801   9.523   2.211   6.854  0.7562 -1.5520  0.1031
17688SOL     OW54802   9.493   1.209   3.488 -0.1488  1.1203  0.3931
17688SOL    HW154803   9.579   1.180   3.457 -0.8417 -1.5943  0.7316
17688SOL    HW254804   9.458   1.261   3.416  0.0618 -1.4015 -1.6987
17689SOL     OW54805   0.129   3.639   1.321 -0.0635 -0.3699  0.3614
17689SOL    HW154806   0.088   3.603   1.243  2.8607 -0.2271 -1.3679
17689SOL    HW254807   0.150   3.729   1.298 -1.5245  0.5418  2.3345
17690SOL     OW54808   5.386   2.380   4.482  0.2335  0.7237 -0.1456
17690SOL    HW154809   5.417   2.465   4.452  0.9229 -0.0888 -1.9031
17690SOL    HW254810   5.467   2.329   4.495 -0.1974 -0.3261 -1.3245
17691SOL     OW54811   1.919   0.760   4.351 -0.5386  0.2035 -0.2702
17691SOL    HW154812   1.959   0.688   4.302 -0.3039 -0.3591  0.7219
17691SOL    HW254813   1.966   0.838   4.322 -1.1969  0.0753 -1.8157
17692SOL     OW54814   6.173   8.270   9.002  0.4404 -0.2341  0.4214
17692SOL    HW154815   6.167   8.202   8.935  0.1701  0.7142 -0.5389
17692SOL    HW254816   6.258   8.254   9.045  0.5318 -0.9643 -0.0125
17693SOL     OW54817   1.353   0.153   0.796  0.0907 -0.0435  0.0685
17693SOL    HW154818   1.309   0.086   0.744  0.5294 -0.1859 -0.1227
17693SOL    HW254819   1.425   0.182   0.741 -0.8973  1.5733 -0.4393
17694SOL     OW54820   6.450   4.816   2.922  0.2330 -0.0339  0.4788
17694SOL    HW154821   6.381   4.847   2.981  0.7390 -0.4863  1.3099
17694SOL    HW254822   6.488   4.896   2.886 -2.3235  0.2744 -1.9448
17695SOL     OW54823   1.698   5.090   7.815 -0.3963  0.1654 -0.0894
17695SOL    HW154824   1.605   5.102   7.796 -0.7584 -1.7578  0.2339
17695SOL    HW254825   1.699   5.034   7.893  1.0168 -0.8198 -0.7759
17696SOL     OW54826   2.008   1.144   2.333  0.0144 -0.0998 -0.0412
17696SOL    HW154827   1.919   1.151   2.299 -0.8522 -2.0894  1.6360
17696SOL    HW254828   2.064   1.162   2.257 -1.7762  1.0641 -1.1533
17697SOL     OW54829   4.067   3.467   0.454 -0.3905 -0.3183 -0.3591
17697SOL    HW154830   4.103   3.391   0.409  2.1038  0.4663  0.1837
17697SOL    HW254831   4.033   3.523   0.383 -2.1383 -1.8049 -0.7652
17698SOL     OW54832   1.129   4.292   0.189  0.2894  0.0146 -0.0862
17698SOL    HW154833   1.120   4.369   0.245  1.0372  0.8766 -1.1300
17698SOL    HW254834   1.195   4.316   0.124  0.2976 -1.3884 -0.6379
17699SOL     OW54835   2.964   7.269   7.924 -0.1629 -0.7072 -0.0732
17699SOL    HW154836   2.894   7.333   7.935  0.9632  0.5385  0.0917
17699SOL    HW254837   2.964   7.219   8.006 -1.3074 -1.2160 -0.3591
17700SOL     OW54838   5.464   4.653   6.647  0.0054  0.2705 -0.1654
17700SOL    HW154839   5.431   4.731   6.604 -1.1779 -1.2663 -2.2671
17700SOL    HW254840   5.479   4.591   6.575  0.8339 -1.4504  1.4091
17701SOL     OW54841   1.443   6.510   0.710  0.0167  0.2938  0.1754
17701SOL    HW154842   1.461   6.577   0.776 -2.4091  0.6561  0.5844
17701SOL    HW254843   1.393   6.556   0.643  0.9673 -0.4679 -1.0921
17702SOL     OW54844   1.461   7.765   4.830  0.7218  0.1987 -0.1008
17702SOL    HW154845   1.418   7.766   4.916 -1.5507  0.6976 -1.1635
17702SOL    HW254846   1.525   7.837   4.835  1.3337 -0.4098  1.4675
17703SOL     OW54847   6.694   5.546   4.656  0.2780  0.1063  0.9812
17703SOL    HW154848   6.692   5.477   4.590  2.3075  2.3780 -1.6782
17703SOL    HW254849   6.605   5.582   4.655 -0.0583 -0.7027  0.4571
17704SOL     OW54850   0.084   0.332   3.015  0.2861  0.4832  0.5444
17704SOL    HW154851   0.067   0.420   2.981  2.0565  0.2505 -1.1145
17704SOL    HW254852   0.179   0.328   3.023  0.1022 -0.3814  3.2750
17705SOL     OW54853   8.380   7.489   1.332 -0.1250 -0.2074 -0.3185
17705SOL    HW154854   8.366   7.439   1.412 -0.1145  1.4600  0.7841
17705SOL    HW254855   8.304   7.547   1.327  0.2547  0.2401 -1.0990
17706SOL     OW54856   3.547   1.984   0.152  0.3899 -0.3930 -0.3114
17706SOL    HW154857   3.567   2.076   0.135  0.9449 -0.2624  0.8865
17706SOL    HW254858   3.471   1.965   0.098 -1.1378  1.4043  1.0926
17707SOL     OW54859   7.521   4.988   2.660  0.2449 -0.0420  0.7944
17707SOL    HW154860   7.580   4.952   2.726  0.1815  0.4092  1.0958
17707SOL    HW254861   7.434   4.981   2.699  0.1699 -0.0956  0.6175
17708SOL     OW54862   1.918   0.872   4.764 -0.5091 -0.5394  0.0660
17708SOL    HW154863   2.005   0.877   4.723 -0.3655  0.5578  0.4736
17708SOL    HW254864   1.863   0.930   4.711 -1.1539 -1.6830 -0.5418
17709SOL     OW54865   1.876   4.930   6.457  1.2679 -0.6014  0.2684
17709SOL    HW154866   1.970   4.934   6.438  1.2147 -0.5177  0.0125
17709SOL    HW254867   1.850   4.842   6.429  0.6601  0.3857 -2.6241
17710SOL     OW54868   1.956   8.715   8.023 -0.4615  0.1571  0.6496
17710SOL    HW154869   1.957   8.621   8.008 -2.5383  0.4270 -1.8117
17710SOL    HW254870   1.884   8.748   7.970  1.7527  3.4752 -0.6605
17711SOL     OW54871   7.897   2.081   6.327 -0.6389 -0.2777 -0.1057
17711SOL    HW154872   7.887   2.176   6.330 -1.1808 -0.3419  2.7277
17711SOL    HW254873   7.948   2.065   6.247  1.1333  2.5361  0.3067
17712SOL     OW54874   3.391   5.010   5.780  0.3587 -0.1676  0.7672
17712SOL    HW154875   3.338   5.082   5.747  1.6640  0.3598 -0.2604
17712SOL    HW254876   3.329   4.955   5.829 -0.9276  0.9024  0.3970
17713SOL     OW54877   6.042   5.440   3.079  0.0099 -0.2872 -0.3058
17713SOL    HW154878   5.990   5.448   2.999 -0.1477 -0.3252 -0.2081
17713SOL    HW254879   5.992   5.489   3.144  0.3736  0.1376 -0.3435
17714SOL     OW54880   1.195   8.306   1.982 -0.2143 -0.1994  0.2100
17714SOL    HW154881   1.187   8.354   1.900 -0.4640  0.1951  0.4609
17714SOL    HW254882   1.225   8.219   1.956  0.5982  0.1956 -0.2244
17715SOL     OW54883   6.223   5.127   0.008  0.1826 -0.8378  0.3300
17715SOL    HW154884   6.261   5.060  -0.048 -0.6708  0.7195 -2.2821
17715SOL    HW254885   6.271   5.207  -0.016 -0.6440  0.0017  1.3955
17716SOL     OW54886   4.436   4.783   9.495 -0.3425  0.2698 -0.0942
17716SOL    HW154887   4.489   4.768   9.573 -0.1563 -0.2647 -0.3192
17716SOL    HW254888   4.395   4.868   9.510  0.3758  0.5732  0.1929
17717SOL     OW54889   0.304   2.105   1.276  0.3275  0.4659  0.4156
17717SOL    HW154890   0.270   2.069   1.194 -0.3195  1.1042  0.3951
17717SOL    HW254891   0.399   2.105   1.265  0.4018 -1.6488  0.5891
17718SOL     OW54892   5.908   6.220   8.885 -1.1137 -0.4651  0.1000
17718SOL    HW154893   5.990   6.265   8.908  0.3460 -1.9952 -1.8276
17718SOL    HW254894   5.859   6.218   8.967  1.7608 -1.4862  1.9387
17719SOL     OW54895   4.058   0.352   4.500  0.6934  0.6551  0.2913
17719SOL    HW154896   4.131   0.291   4.492  0.3043  0.1739  0.3184
17719SOL    HW254897   4.063   0.384   4.591  0.5369  0.1857  0.4700
17720SOL     OW54898   6.639   4.614   7.788  0.0189 -0.3346 -0.3302
17720SOL    HW154899   6.633   4.586   7.697  0.9557 -2.6026  0.2277
17720SOL    HW254900   6.690   4.695   7.785 -0.6561  0.0710 -1.8583
17721SOL     OW54901   2.581   8.814   9.251 -0.2257 -1.0472 -0.5843
17721SOL    HW154902   2.551   8.768   9.173  1.2245 -0.7883 -1.3364
17721SOL    HW254903   2.519   8.887   9.261  0.9729  0.4706 -3.0654
17722SOL     OW54904   1.543   0.297   8.528  0.1266 -0.0116  0.4234
17722SOL    HW154905   1.592   0.297   8.611  0.3545  0.8044  0.2961
17722SOL    HW254906   1.466   0.350   8.546 -0.0261 -0.1607  0.2170
17723SOL     OW54907   2.441   2.498   3.528 -0.1600  0.2405 -0.3418
17723SOL    HW154908   2.426   2.407   3.502 -2.4435  0.1419  1.0802
17723SOL    HW254909   2.371   2.517   3.589  0.2045  3.0309 -0.6875
17724SOL     OW54910   9.197   4.682   4.008 -1.1697  0.0898 -0.3525
17724SOL    HW154911   9.129   4.637   4.057  0.5783 -1.5801  0.6817
17724SOL    HW254912   9.270   4.691   4.069  0.7449 -1.1941 -2.2799
17725SOL     OW54913   0.160   2.216   6.272 -0.6439  0.6828 -0.2116
17725SOL    HW154914   0.196   2.227   6.184 -2.1161  1.9903 -0.6993
17725SOL    HW254915   0.161   2.121   6.287  0.0644  0.4866 -1.4461
17726SOL     OW54916   3.399   1.689   0.690 -0.0175  0.3582 -0.2550
17726SOL    HW154917   3.321   1.723   0.646 -1.5365 -1.5392  0.8208
17726SOL    HW254918   3.382   1.595   0.699  2.3113 -0.0688  0.2281
17727SOL     OW54919   0.550   3.615   2.960 -0.1586  0.2126 -0.2555
17727SOL    HW154920   0.484   3.614   2.890 -0.5804 -3.4686  0.0042
17727SOL    HW254921   0.584   3.526   2.961  4.1900  1.6571  0.3146
17728SOL     OW54922   4.180   4.923   7.884 -0.1194  0.4050 -0.9135
17728SOL    HW154923   4.257   4.952   7.835  0.6163  1.5593  0.8142
17728SOL    HW254924   4.115   4.992   7.871  0.8054  1.8188  1.2825
17729SOL     OW54925   2.517   5.990   5.504  0.6700 -0.2439 -0.2232
17729SOL    HW154926   2.450   6.047   5.465  0.6151  0.1126  0.3827
17729SOL    HW254927   2.600   6.028   5.475  0.6341 -1.4618 -2.0896
17730SOL     OW54928   5.021   2.761   7.702 -0.5881  0.5238 -0.1845
17730SOL    HW154929   5.081   2.704   7.654  0.3511  0.4198  1.0731
17730SOL    HW254930   4.946   2.771   7.643  0.2267 -0.1305 -1.3868
17731SOL     OW54931   2.940   6.078   7.614 -0.4250  0.8471  0.4371
17731SOL    HW154932   2.876   6.132   7.660  0.3672  2.3702 -0.1755
17731SOL    HW254933   2.916   6.085   7.522 -0.0043  0.5516  0.3010
17732SOL     OW54934   8.014   2.202   1.859  0.2334 -0.1517 -0.2886
17732SOL    HW154935   8.043   2.285   1.821 -0.3836 -0.0844 -0.6162
17732SOL    HW254936   8.049   2.135   1.799  0.3248 -0.1094 -0.2834
17733SOL     OW54937   2.759   8.906   3.614  1.1062 -0.1046 -0.3656
17733SOL    HW154938   2.834   8.965   3.606  0.5855  0.5276 -0.8017
17733SOL    HW254939   2.723   8.926   3.700  0.0638  1.3291 -1.0784
17734SOL     OW54940   3.081   1.461   2.281 -0.4217 -0.3052 -0.0995
17734SOL    HW154941   3.065   1.505   2.364  0.1430  0.8706 -0.5929
17734SOL    HW254942   2.998   1.469   2.233 -0.5202 -0.3504  0.0633
17735SOL     OW54943   8.892   3.263   4.918 -0.8846 -0.6039  0.2956
17735SOL    HW154944   8.963   3.322   4.894 -1.0244 -1.2941 -2.0510
17735SOL    HW254945   8.843   3.310   4.985 -0.0163  1.2090 -0.2837
17736SOL     OW54946   8.690   0.071   4.320 -0.1536  0.1399 -0.4195
17736SOL    HW154947   8.728  -0.013   4.297  0.9889  0.0163  1.6855
17736SOL    HW254948   8.600   0.066   4.289  0.2634 -1.3165 -1.5014
17737SOL     OW54949   2.209   3.286   9.018  0.3709  0.2287  0.1039
17737SOL    HW154950   2.255   3.261   9.098 -1.7766  0.2154  1.4121
17737SOL    HW254951   2.185   3.378   9.032 -0.7994 -0.0294 -0.0978
17738SOL     OW54952   7.985   9.029   1.836  0.0637 -0.1747 -0.0970
17738SOL    HW154953   7.969   9.105   1.893  0.3353 -0.9935  1.1057
17738SOL    HW254954   7.899   8.990   1.824 -0.3104  1.0529 -1.8501
17739SOL     OW54955   9.006   4.868   0.081  0.5179 -0.1226 -0.0036
17739SOL    HW154956   8.956   4.805   0.028  1.7290 -0.7290 -0.4714
17739SOL    HW254957   8.962   4.952   0.067 -0.3022 -0.6249 -0.4779
17740SOL     OW54958   3.936   5.841   5.556 -0.1424  0.1585 -0.6725
17740SOL    HW154959   3.973   5.926   5.534 -0.8130  1.2211  1.9349
17740SOL    HW254960   3.866   5.827   5.492 -0.7779  2.1283 -0.4603
17741SOL     OW54961   4.994   7.644   5.002 -0.3944 -0.2441 -0.6354
17741SOL    HW154962   4.951   7.564   5.031 -3.2351  0.6292 -2.0076
17741SOL    HW254963   5.033   7.622   4.917  1.1844 -0.7976  0.1950
17742SOL     OW54964   4.937   3.084   6.810  0.1169 -0.4435 -0.2728
17742SOL    HW154965   4.928   3.024   6.885  3.0085 -1.0340 -0.2701
17742SOL    HW254966   5.029   3.112   6.813 -0.7222  2.7754 -1.2521
17743SOL     OW54967   7.549   0.358   0.887  0.3809 -0.3021 -0.0007
17743SOL    HW154968   7.478   0.295   0.901  0.6848 -0.2620  2.1426
17743SOL    HW254969   7.626   0.305   0.869  0.6902 -0.6352  2.0406
17744SOL     OW54970   9.032   3.037   3.172  0.1682  0.2790  0.0623
17744SOL    HW154971   9.056   2.945   3.174  0.2876  0.2852 -0.6566
17744SOL    HW254972   9.002   3.052   3.082 -0.5275  0.7707  0.3697
17745SOL     OW54973   6.453   5.485   1.847 -0.0079  0.1712  0.4216
17745SOL    HW154974   6.540   5.525   1.847 -0.6200  1.6660  2.8183
17745SOL    HW254975   6.456   5.424   1.773  3.0373  0.1847  0.3812
17746SOL     OW54976   4.671   4.337   4.580 -0.1013  0.0746 -0.3253
17746SOL    HW154977   4.720   4.258   4.602 -0.4902 -0.4642 -1.3284
17746SOL    HW254978   4.586   4.324   4.623 -0.6357 -0.6832 -1.5727
17747SOL     OW54979   6.286   9.415   7.495 -0.0138  0.0940 -0.2211
17747SOL    HW154980   6.277   9.321   7.480 -0.0140  0.3337 -1.8313
17747SOL    HW254981   6.380   9.431   7.495 -0.0352  0.3784 -2.0073
17748SOL     OW54982   0.191   2.874   0.573 -0.3564 -0.7955  0.4956
17748SOL    HW154983   0.134   2.879   0.650 -0.7209 -0.2874  0.1990
17748SOL    HW254984   0.175   2.956   0.526 -0.1449 -1.1081 -0.1305
17749SOL     OW54985   1.815   2.375   5.571 -0.3998  0.3250 -0.7638
17749SOL    HW154986   1.790   2.284   5.584  3.8392 -0.7099  2.3135
17749SOL    HW254987   1.887   2.372   5.508  0.2761  1.4116 -0.0906
17750SOL     OW54988   7.746   9.018   9.276 -0.1866 -0.2360 -0.3544
17750SOL    HW154989   7.700   9.060   9.204 -0.1029  2.6535  1.1542
17750SOL    HW254990   7.677   8.986   9.334 -0.3792  1.7919  0.6196
17751SOL     OW54991   4.037   6.349   5.548 -0.3637  0.7967 -0.2030
17751SOL    HW154992   3.992   6.420   5.503 -0.8495 -0.1170 -1.1815
17751SOL    HW254993   3.972   6.314   5.609  0.2734  1.9944  1.2561
17752SOL     OW54994   7.193   0.643   6.064  0.2558  0.3455 -0.1328
17752SOL    HW154995   7.287   0.630   6.048 -0.0697  0.0817 -2.0024
17752SOL    HW254996   7.175   0.588   6.141  2.0400  2.1449  1.7164
17753SOL     OW54997   6.116   5.007   0.233 -0.1852 -0.0804  0.1955
17753SOL    HW154998   6.161   5.053   0.162  1.1565 -0.2080  0.9208
17753SOL    HW254999   6.095   5.075   0.297 -0.5448 -0.1042  0.1055
17754SOL     OW55000   9.254   1.500   7.380  0.1755  0.4670  0.0646
17754SOL    HW155001   9.304   1.545   7.448 -1.5018  0.5891  1.2600
17754SOL    HW255002   9.211   1.571   7.332  0.3246  0.3112 -0.3007
17755SOL     OW55003   6.451   9.308   7.177 -0.6681  0.1720 -1.0553
17755SOL    HW155004   6.440   9.310   7.272  0.9191 -0.4181 -0.8338
17755SOL    HW255005   6.380   9.364   7.144 -0.7280  1.0842  0.5159
17756SOL     OW55006   6.597   4.744   1.721 -0.3983 -0.0914  0.4252
17756SOL    HW155007   6.660   4.729   1.792 -0.1323 -0.9334  0.0324
17756SOL    HW255008   6.518   4.775   1.764 -0.2001 -0.4783  1.0810
17757SOL     OW55009   8.193   8.318   8.214  0.2875 -0.2545  0.4485
17757SOL    HW155010   8.130   8.285   8.279 -1.5556  0.0588 -1.0865
17757SOL    HW255011   8.248   8.242   8.194  0.5613 -0.4993  1.9496
17758SOL     OW55012   1.232   4.507   1.684  0.1080 -0.6625  0.0592
17758SOL    HW155013   1.267   4.504   1.594 -0.0002  2.3936 -0.2076
17758SOL    HW255014   1.309   4.496   1.739  0.7301  0.6342 -0.4902
17759SOL     OW55015   0.439   2.325   0.761  0.2633 -0.2244 -0.1561
17759SOL    HW155016   0.358   2.322   0.813 -1.7019 -2.4751 -3.0709
17759SOL    HW255017   0.487   2.247   0.787  0.9064  0.4065  0.6020
17760SOL     OW55018   5.506   5.971   5.913  0.4679  0.3027  0.0681
17760SOL    HW155019   5.586   6.010   5.947  1.2859 -1.2612  0.0057
17760SOL    HW255020   5.473   5.918   5.986  0.3011 -0.2416 -0.3983
17761SOL     OW55021   4.078   0.697   7.769  0.3586 -0.1103 -0.0498
17761SOL    HW155022   4.106   0.613   7.808 -1.4742 -0.0048  1.6339
17761SOL    HW255023   4.081   0.759   7.842  0.4233  1.0065 -0.9741
17762SOL     OW55024   2.922   9.058   1.800  0.0050 -0.0832  0.3278
17762SOL    HW155025   2.852   9.003   1.765 -1.1467  0.6313  1.4194
17762SOL    HW255026   2.922   9.135   1.744  1.4496 -1.0171 -1.0449
17763SOL     OW55027   9.089   6.052   9.097 -0.6785  0.2169 -0.8524
17763SOL    HW155028   9.183   6.058   9.113 -0.9013  0.1684  0.6334
17763SOL    HW255029   9.050   6.052   9.185 -1.9032 -2.2906 -1.3009
17764SOL     OW55030   0.583   4.067   6.876 -0.1517 -0.4901  0.4117
17764SOL    HW155031   0.529   4.123   6.821 -1.0609  1.2232  2.8382
17764SOL    HW255032   0.529   3.990   6.893 -1.4023  0.6329  1.7768
17765SOL     OW55033   7.747   5.166   5.008  0.8630 -0.3745 -0.1171
17765SOL    HW155034   7.772   5.251   4.970  0.6878 -0.5517 -0.6283
17765SOL    HW255035   7.694   5.189   5.084  0.7496 -0.0235 -0.2995
17766SOL     OW55036   2.732   5.702   4.221  0.2122  0.0202 -0.2496
17766SOL    HW155037   2.713   5.620   4.175  1.0790 -0.1220 -0.3758
17766SOL    HW255038   2.807   5.681   4.277 -0.5536  0.3138  0.9187
17767SOL     OW55039   1.670   1.568   1.612  0.4772 -0.1955 -0.3262
17767SOL    HW155040   1.579   1.562   1.581  0.5862  0.3743 -0.7652
17767SOL    HW255041   1.690   1.661   1.609  1.0429 -0.3102 -0.1224
17768SOL     OW55042   7.688   6.083   5.218  0.1733 -0.5734  0.1485
17768SOL    HW155043   7.647   6.073   5.304  0.0582  1.1719  0.3477
17768SOL    HW255044   7.690   6.178   5.205 -0.7217 -0.8250 -2.2133
17769SOL     OW55045   6.373   2.613   0.364  0.4291  0.1251  0.1314
17769SOL    HW155046   6.321   2.587   0.440  1.4578  0.2451  0.8905
17769SOL    HW255047   6.309   2.648   0.302 -0.5056 -0.6148  0.6594
17770SOL     OW55048   3.599   0.983   3.552  0.2763  0.4566 -0.1371
17770SOL    HW155049   3.510   1.018   3.562  0.3186  0.7597 -0.7270
17770SOL    HW255050   3.614   0.930   3.630 -1.5319 -2.0835 -1.3745
17771SOL     OW55051   9.132   4.168   0.722 -0.2390  0.0241 -0.1761
17771SOL    HW155052   9.178   4.100   0.672  0.1119  0.4816 -0.4868
17771SOL    HW255053   9.142   4.247   0.669 -1.7406  0.0625 -0.4578
17772SOL     OW55054   6.973   4.436   7.464 -0.3123 -0.6357  0.1840
17772SOL    HW155055   6.974   4.457   7.371  2.0568  0.3750  0.3581
17772SOL    HW255056   6.885   4.461   7.493 -1.0041 -0.7130 -1.6991
17773SOL     OW55057   2.103   7.264   5.281 -0.0966 -0.0443  0.8593
17773SOL    HW155058   2.153   7.243   5.359 -1.3629 -1.3633  1.3481
17773SOL    HW255059   2.012   7.258   5.308 -0.6326  2.9602  0.1735
17774SOL     OW55060   4.387   7.644   4.312 -0.4931 -0.0452 -0.2697
17774SOL    HW155061   4.322   7.645   4.241 -1.5700  0.2239  0.6822
17774SOL    HW255062   4.396   7.551   4.334  0.2438 -0.1802 -1.0933
17775SOL     OW55063   5.827   7.998   9.057 -0.3059 -0.1098 -0.7128
17775SOL    HW155064   5.863   8.046   9.131  1.2469 -2.1380 -0.0443
17775SOL    HW255065   5.858   8.046   8.980  0.5418  0.3943 -0.0742
17776SOL     OW55066   8.016   3.183   0.905 -0.2499 -0.2647 -0.3705
17776SOL    HW155067   8.071   3.261   0.910 -1.0614  0.3410 -0.6530
17776SOL    HW255068   7.955   3.192   0.978 -0.5080 -0.5058 -0.5566
17777SOL     OW55069   3.455   4.240   0.715  0.2984 -0.2167  0.4237
17777SOL    HW155070   3.398   4.236   0.637  0.5902 -2.8057  0.2511
17777SOL    HW255071   3.411   4.302   0.773 -2.3874 -1.5518 -0.0037
17778SOL     OW55072   6.402   4.360   2.342  0.6199 -0.5527  0.7110
17778SOL    HW155073   6.313   4.328   2.326  0.8959 -0.4659 -1.2696
17778SOL    HW255074   6.393   4.422   2.414 -1.3461  1.2477 -0.9653
17779SOL     OW55075   3.810   1.078   6.662 -0.4683 -0.2729 -0.0277
17779SOL    HW155076   3.736   1.137   6.650 -0.0632  0.3615  0.5165
17779SOL    HW255077   3.887   1.132   6.642 -0.0788 -0.5421  0.7172
17780SOL     OW55078   3.041   6.396   8.976 -0.4959 -0.1350  0.0016
17780SOL    HW155079   2.956   6.417   9.015 -0.5981  0.8026 -0.6742
17780SOL    HW255080   3.096   6.372   9.050 -1.1245  0.0477  0.5415
17781SOL     OW55081   5.717   3.932   2.930  0.4036 -0.3722 -0.1572
17781SOL    HW155082   5.760   4.002   2.881  0.5452 -0.6235 -0.3952
17781SOL    HW255083   5.627   3.933   2.899 -0.5276  1.9419  2.2683
17782SOL     OW55084   4.296   8.468   5.318 -0.3142 -0.2238 -0.0735
17782SOL    HW155085   4.347   8.481   5.238  0.2599 -1.4045  0.0880
17782SOL    HW255086   4.257   8.381   5.308  1.6988 -1.4550  1.9345
17783SOL     OW55087   7.922   1.257   1.081 -0.0578 -0.1051 -0.1392
17783SOL    HW155088   7.887   1.319   1.016 -0.7344  0.0357  0.3460
17783SOL    HW255089   7.992   1.305   1.125  0.8051 -0.4033 -1.1513
17784SOL     OW55090   3.407   4.455   5.859 -0.2500 -0.3680  0.1118
17784SOL    HW155091   3.328   4.500   5.890 -0.3145 -0.9391  0.7900
17784SOL    HW255092   3.379   4.364   5.847  0.4700 -0.7102  0.9752
17785SOL     OW55093   1.531   0.889   1.785  0.4458 -0.1351  0.5358
17785SOL    HW155094   1.566   0.940   1.858 -0.6918 -1.6489  2.2178
17785SOL    HW255095   1.437   0.909   1.785  0.2152 -1.1821  0.3736
17786SOL     OW55096   5.266   5.836   9.360  0.4526 -0.4825  0.4310
17786SOL    HW155097   5.321   5.908   9.329  0.8620 -0.6337  0.8017
17786SOL    HW255098   5.252   5.854   9.453  0.8549 -1.0675  0.6097
17787SOL     OW55099   8.221   6.930   7.743 -0.0872 -0.4369  0.4910
17787SOL    HW155100   8.274   6.991   7.794 -0.5780 -0.5069  1.0921
17787SOL    HW255101   8.131   6.956   7.761 -0.2765 -0.7033 -0.0441
17788SOL     OW55102   5.252   3.567   2.278 -0.2283  0.8245  0.1910
17788SOL    HW155103   5.270   3.590   2.370 -0.7800 -0.9488  0.7802
17788SOL    HW255104   5.313   3.495   2.260 -0.9753  0.3449 -0.4427
17789SOL     OW55105   6.738   1.178   2.548 -0.8184  0.1510 -0.7048
17789SOL    HW155106   6.694   1.234   2.612  0.0045  0.3483 -0.2863
17789SOL    HW255107   6.789   1.117   2.601 -0.3088  0.1664 -1.1672
17790SOL     OW55108   7.738   5.313   8.093  0.5633  0.1407  0.1008
17790SOL    HW155109   7.783   5.228   8.087  0.0540 -0.1724  0.6804
17790SOL    HW255110   7.653   5.298   8.050  0.4544  0.3458  0.2441
17791SOL     OW55111   6.747   2.608   5.616 -0.1638 -0.0531  0.0766
17791SOL    HW155112   6.655   2.631   5.601 -0.0793 -0.8795 -1.9756
17791SOL    HW255113   6.797   2.681   5.578  0.0720  0.5941  1.5468
17792SOL     OW55114   1.546   3.415   1.679  0.4063  0.3726 -0.4913
17792SOL    HW155115   1.601   3.383   1.750 -0.1139 -0.0602 -0.2746
17792SOL    HW255116   1.565   3.356   1.606  0.2289  0.2231 -0.4164
17793SOL     OW55117   1.062   3.088   1.914  0.2194 -0.6564  0.4547
17793SOL    HW155118   1.135   3.032   1.889  0.4683 -0.4638  0.7486
17793SOL    HW255119   1.058   3.082   2.010  0.8572  0.5727  0.5710
17794SOL     OW55120   4.518   5.958   9.351 -0.2263  0.1354  0.2367
17794SOL    HW155121   4.587   5.928   9.410 -2.7800 -2.1262  2.3283
17794SOL    HW255122   4.492   5.880   9.302 -0.7115  1.1488 -1.2114
17795SOL     OW55123   1.751   7.514   1.330  0.8980  0.1441  0.2237
17795SOL    HW155124   1.704   7.549   1.255  0.1987 -0.2456  0.4733
17795SOL    HW255125   1.690   7.522   1.403  0.7696 -1.4221  0.3238
17796SOL     OW55126   7.248   7.241   2.320 -0.6568  0.1460 -0.5642
17796SOL    HW155127   7.275   7.284   2.239 -0.8027  1.2451 -0.0524
17796SOL    HW255128   7.323   7.252   2.379  0.0373 -1.9418 -0.9850
17797SOL     OW55129   2.069   6.961   5.567 -0.1080 -0.5703  0.0241
17797SOL    HW155130   2.065   7.027   5.498  1.4004  0.0625  0.5112
17797SOL    HW255131   2.010   6.891   5.537  0.6477 -0.3973 -1.9660
17798SOL     OW55132   7.234   2.684   5.039  0.5097 -0.1777  0.0735
17798SOL    HW155133   7.177   2.666   5.114 -1.1046  1.8688 -0.5612
17798SOL    HW255134   7.285   2.760   5.065 -0.1588  0.6349 -0.9217
17799SOL     OW55135   3.027   2.409   2.884  0.1767  0.0598 -0.3953
17799SOL    HW155136   2.984   2.324   2.879 -0.5133  0.1535  2.5378
17799SOL    HW255137   3.028   2.441   2.793 -3.0431 -1.3511 -1.0472
17800SOL     OW55138   5.494   6.127   9.072  0.4434 -0.3329  0.1969
17800SOL    HW155139   5.526   6.039   9.093  0.8208  0.2792  2.5408
17800SOL    HW255140   5.463   6.161   9.156  1.3733  2.1894 -0.3892
17801SOL     OW55141   7.714   3.517   7.420 -0.3059 -0.3571  0.4217
17801SOL    HW155142   7.756   3.435   7.446 -1.7125 -1.3247 -0.2137
17801SOL    HW255143   7.655   3.537   7.492  0.2761  0.2875  0.7234
17802SOL     OW55144   8.198   4.712   3.582 -0.3115 -0.0918 -0.5262
17802SOL    HW155145   8.248   4.655   3.640 -0.9080  0.9023  1.0118
17802SOL    HW255146   8.245   4.708   3.498  4.2691  3.0946  1.4925
17803SOL     OW55147   0.271   3.769   5.401 -0.1533  0.2763  0.3513
17803SOL    HW155148   0.272   3.757   5.496 -2.1433 -0.2404  0.3546
17803SOL    HW255149   0.329   3.701   5.368  1.1722  0.9569  1.2199
17804SOL     OW55150   5.292   5.837   4.914 -0.3196  0.3794  0.5307
17804SOL    HW155151   5.373   5.827   4.864 -0.9650  0.8971 -0.6514
17804SOL    HW255152   5.280   5.932   4.921 -0.9560  0.3067  0.4657
17805SOL     OW55153   1.531   2.513   4.475 -0.0136  0.1033  0.4382
17805SOL    HW155154   1.589   2.586   4.494  1.0134  0.1001 -2.2160
17805SOL    HW255155   1.578   2.435   4.506 -0.0360  0.3598  1.1205
17806SOL     OW55156   5.512   9.086   7.120  0.1796  0.0077  0.4749
17806SOL    HW155157   5.519   8.995   7.093  1.8160  0.7014 -1.6704
17806SOL    HW255158   5.419   9.108   7.108 -0.0983 -1.1613  0.3805
17807SOL     OW55159   5.202   2.994   2.104 -0.5306  0.0434  0.6152
17807SOL    HW155160   5.179   3.034   2.020 -0.2254  0.2090  0.6069
17807SOL    HW255161   5.214   3.068   2.163  0.4796 -0.0054  0.4889
17808SOL     OW55162   5.520   4.445   6.472  0.1452 -0.2584 -0.1093
17808SOL    HW155163   5.450   4.390   6.438  0.6109  1.0009 -3.5527
17808SOL    HW255164   5.600   4.399   6.448  0.5154  1.2755 -2.1922
17809SOL     OW55165   4.672   5.815   5.397  0.2069  0.0924 -0.2805
17809SOL    HW155166   4.726   5.784   5.470  1.5252  3.4753  0.3526
17809SOL    HW255167   4.582   5.799   5.425  0.7580 -1.2424  0.8164
17810SOL     OW55168   7.473   4.217   3.886 -0.4497 -0.1911  0.0845
17810SOL    HW155169   7.467   4.258   3.972 -2.4991 -2.4178  1.1102
17810SOL    HW255170   7.567   4.214   3.867 -0.0750  2.0869  1.2990
17811SOL     OW55171   1.803   1.462   8.211 -0.3546 -0.0805 -0.2226
17811SOL    HW155172   1.884   1.490   8.253  0.7271 -0.8966 -1.6678
17811SOL    HW255173   1.746   1.539   8.216  1.4930  1.4613 -1.5570
17812SOL     OW55174   6.315   2.212   3.326  0.2235  0.1498  0.3281
17812SOL    HW155175   6.375   2.167   3.267 -0.0862  0.3230 -0.1330
17812SOL    HW255176   6.362   2.218   3.409  1.8917  2.4753 -0.6583
17813SOL     OW55177   7.279   7.200   3.603  1.1189  0.3581  0.6412
17813SOL    HW155178   7.264   7.170   3.513 -0.0389  2.1779  0.1701
17813SOL    HW255179   7.305   7.291   3.594 -1.5325  1.3934  2.1807
17814SOL     OW55180   8.929   5.716   2.702  0.2761 -0.2626 -0.1322
17814SOL    HW155181   8.852   5.696   2.755 -0.3212 -2.6704 -1.7275
17814SOL    HW255182   8.938   5.640   2.644  3.0846  0.5483 -0.9118
17815SOL     OW55183   1.518   9.472   5.363  0.0762  0.0454  0.0195
17815SOL    HW155184   1.438   9.519   5.338  0.6692  1.5341  0.7497
17815SOL    HW255185   1.510   9.387   5.321 -1.0926  0.7786 -1.3508
17816SOL     OW55186   7.343   3.360   2.098 -0.2027 -0.2296 -0.2962
17816SOL    HW155187   7.354   3.433   2.037 -1.0687 -0.2395 -0.4701
17816SOL    HW255188   7.360   3.282   2.045 -1.8869 -0.2956 -0.7907
17817SOL     OW55189   0.858   1.896   4.726  0.4673  0.0832 -0.0013
17817SOL    HW155190   0.899   1.916   4.643 -0.3972 -0.9928 -0.7229
17817SOL    HW255191   0.812   1.813   4.711  0.9607 -0.5808  1.7724
17818SOL     OW55192   4.783   2.596   2.853  0.0067  0.5636 -0.2018
17818SOL    HW155193   4.715   2.530   2.841 -0.5993  0.9135  1.1441
17818SOL    HW255194   4.737   2.680   2.849  0.7293  0.9256 -1.6052
17819SOL     OW55195   4.821   3.420   8.487  0.0688 -0.4067 -0.0432
17819SOL    HW155196   4.806   3.369   8.567 -0.5730  0.5975  0.4916
17819SOL    HW255197   4.915   3.434   8.485  0.1219 -0.6867  0.3855
17820SOL     OW55198   6.369   0.449   0.827 -0.1612 -0.2148 -0.3482
17820SOL    HW155199   6.344   0.363   0.796  0.3696 -0.7064  0.5267
17820SOL    HW255200   6.363   0.506   0.750 -0.2058 -1.0927 -1.0072
17821SOL     OW55201   6.831   6.874   6.767  0.3443  0.1114  0.0155
17821SOL    HW155202   6.854   6.957   6.726  0.8382  0.1007  0.2624
17821SOL    HW255203   6.736   6.873   6.767  0.2930 -0.2934 -1.9591
17822SOL     OW55204   1.572   6.478   7.101 -0.2244 -0.1538 -0.5778
17822SOL    HW155205   1.520   6.406   7.137 -2.0281  0.6807 -1.3970
17822SOL    HW255206   1.514   6.554   7.106  1.5817  1.2630  0.1550
17823SOL     OW55207   4.604   9.078   9.408 -0.4191 -0.4665  0.4384
17823SOL    HW155208   4.576   9.051   9.321  0.1296 -0.9827  0.4230
17823SOL    HW255209   4.697   9.058   9.411 -0.2079  0.5118  0.7747
17824SOL     OW55210   6.371   6.857   7.983  0.0705 -0.1919  0.3608
17824SOL    HW155211   6.455   6.856   7.937  0.0917  0.3979  0.3813
17824SOL    HW255212   6.312   6.810   7.924  0.7379 -1.9114  1.0041
17825SOL     OW55213   0.332   1.267   8.342 -0.1081  0.1964  0.0480
17825SOL    HW155214   0.246   1.238   8.311  0.7744 -1.1018 -1.3375
17825SOL    HW255215   0.377   1.299   8.263  0.3767  1.7185  0.8982
17826SOL     OW55216   1.576   7.714   1.791 -0.2692  0.1314 -0.1957
17826SOL    HW155217   1.590   7.731   1.884 -0.9353  2.8971 -0.5244
17826SOL    HW255218   1.481   7.701   1.783 -0.4156  1.3447 -0.6422
17827SOL     OW55219   6.756   2.314   3.977 -0.9728 -0.2465 -0.2427
17827SOL    HW155220   6.750   2.221   3.996  0.4776 -0.3364 -0.1082
17827SOL    HW255221   6.849   2.330   3.963 -0.9988  1.4768  1.2169
17828SOL     OW55222   5.222   8.254   8.556 -0.2627  0.6511 -0.1063
17828SOL    HW155223   5.173   8.334   8.538 -2.6192 -0.8788 -1.0010
17828SOL    HW255224   5.169   8.184   8.517  1.6944 -1.3649  0.6142
17829SOL     OW55225   1.998   8.665   7.680  0.0427  0.6025 -0.0504
17829SOL    HW155226   1.905   8.644   7.674  0.2610 -0.8802  1.1889
17829SOL    HW255227   2.043   8.583   7.658  1.0530  1.1191  0.0074
17830SOL     OW55228   6.285   4.498   7.874  0.4248  0.9617  0.1534
17830SOL    HW155229   6.278   4.457   7.788  0.0195  1.7390 -0.1940
17830SOL    HW255230   6.378   4.497   7.894  0.4862  0.4553 -0.1274
17831SOL     OW55231   2.819   7.844   3.648 -0.2683 -0.3389 -0.5012
17831SOL    HW155232   2.883   7.813   3.712 -0.2696 -0.7343 -0.6874
17831SOL    HW255233   2.847   7.805   3.566  0.0664  0.6255 -0.8621
17832SOL     OW55234   2.893   9.164   7.754 -0.2925 -0.5904  0.3000
17832SOL    HW155235   2.924   9.187   7.667 -0.8746  0.3731  0.3340
17832SOL    HW255236   2.954   9.096   7.784  0.9696  0.3001 -0.1603
17833SOL     OW55237   1.642   2.030   4.449 -0.1334 -0.5424  0.0159
17833SOL    HW155238   1.737   2.038   4.457  0.0532 -2.6496  0.2553
17833SOL    HW255239   1.629   1.977   4.371 -1.1217 -0.4980  0.1434
17834SOL     OW55240   2.704   1.508   4.419  0.3600 -0.0607  0.1252
17834SOL    HW155241   2.670   1.541   4.502  1.7273 -0.0533  0.7018
17834SOL    HW255242   2.764   1.576   4.389  1.1990 -0.8391  0.0083
17835SOL     OW55243   0.474   1.662   4.581  0.1261  0.4095 -0.4051
17835SOL    HW155244   0.412   1.618   4.640  1.2360 -0.4875  0.1200
17835SOL    HW255245   0.447   1.635   4.493 -1.2677  1.4080 -0.3346
17836SOL     OW55246   0.790   8.753   3.719  0.3796 -0.3190 -0.1191
17836SOL    HW155247   0.852   8.756   3.792  0.7076  0.1143 -0.4077
17836SOL    HW255248   0.747   8.668   3.728  2.5679 -1.6353 -1.1748
17837SOL     OW55249   5.378   4.095   4.462 -0.1665 -0.4305 -0.6222
17837SOL    HW155250   5.341   4.107   4.375  0.5722  2.7573 -0.6355
17837SOL    HW255251   5.312   4.043   4.509 -0.9409 -1.5266 -2.7936
17838SOL     OW55252   8.571   0.311   6.913 -0.1448 -0.0413  0.2860
17838SOL    HW155253   8.598   0.373   6.980  0.3741  0.3200 -0.2544
17838SOL    HW255254   8.592   0.354   6.830  0.0397 -0.8555 -0.0972
17839SOL     OW55255   8.268   8.281   3.478 -0.0530  0.2375  0.1538
17839SOL    HW155256   8.229   8.328   3.552 -1.6814  0.2264 -0.6617
17839SOL    HW255257   8.193   8.248   3.428  1.0264 -2.1386 -0.0222
17840SOL     OW55258   3.966   8.249   1.434  0.1584 -0.2832 -0.5696
17840SOL    HW155259   4.036   8.241   1.370 -0.2783  1.1812 -1.2705
17840SOL    HW255260   4.008   8.234   1.518  1.8797  2.8183 -0.7268
17841SOL     OW55261   5.444   2.164   1.352  0.4230 -0.7478 -0.6100
17841SOL    HW155262   5.419   2.254   1.371  1.7922 -0.5224  0.2424
17841SOL    HW255263   5.449   2.160   1.256 -1.0677 -0.3532 -0.7356
17842SOL     OW55264   9.571   3.906   0.841 -0.3052  0.0370 -0.1142
17842SOL    HW155265   9.595   3.992   0.806 -0.4195  0.8389  1.6856
17842SOL    HW255266   9.477   3.912   0.858 -0.1652 -0.1685  0.7565
17843SOL     OW55267   9.598   8.177   2.045 -0.6199 -0.4382  0.3920
17843SOL    HW155268   9.665   8.245   2.039  0.6495 -1.3295  2.8221
17843SOL    HW255269   9.521   8.221   2.081  0.1592 -0.2191  1.8549
17844SOL     OW55270   3.335   2.191   1.517  0.7630  0.0944  0.4404
17844SOL    HW155271   3.328   2.115   1.460  2.2234  0.5970 -0.4796
17844SOL    HW255272   3.416   2.177   1.566  1.4821  1.3917 -0.3181
17845SOL     OW55273   6.692   3.868   1.627 -0.1248 -0.6176 -0.3350
17845SOL    HW155274   6.598   3.859   1.611 -0.1117  0.7021 -1.3623
17845SOL    HW255275   6.710   3.807   1.698 -1.5310 -1.7725 -0.9130
17846SOL     OW55276   5.718   2.592   2.912  0.3132  0.0216  0.1249
17846SOL    HW155277   5.762   2.563   2.991 -2.0591  0.6882  1.8244
17846SOL    HW255278   5.731   2.521   2.849  3.2060 -0.0225  0.6783
17847SOL     OW55279   6.686   6.761   1.807 -1.3710 -0.2618  0.0808
17847SOL    HW155280   6.661   6.794   1.893  0.6308  1.6429  0.0288
17847SOL    HW255281   6.764   6.709   1.823  1.3378  3.1485 -0.8060
17848SOL     OW55282   9.140   7.181   9.419 -0.1430  0.0145 -0.3724
17848SOL    HW155283   9.215   7.130   9.450 -0.6926 -0.9762 -0.6368
17848SOL    HW255284   9.123   7.244   9.490  1.5221  0.9033 -0.7306
17849SOL     OW55285   7.901   7.528   8.136 -0.0047  0.2717 -0.5311
17849SOL    HW155286   7.856   7.576   8.206  1.3538  0.9559 -0.0968
17849SOL    HW255287   7.843   7.454   8.117 -0.0232 -0.4357  1.9367
17850SOL     OW55288   0.858   2.980   7.729  0.6438 -0.4986  0.1883
17850SOL    HW155289   0.901   3.061   7.702  0.4599 -0.6407 -0.5758
17850SOL    HW255290   0.929   2.920   7.751  0.9726 -1.2188 -2.4685
17851SOL     OW55291   4.465   1.699   0.548  0.3679  0.4590 -0.1025
17851SOL    HW155292   4.501   1.719   0.461  1.7283  1.0374  0.5712
17851SOL    HW255293   4.534   1.651   0.593  0.2190  1.3227  1.1150
17852SOL     OW55294   3.446   0.372   2.076  0.2061 -0.0989 -0.4334
17852SOL    HW155295   3.424   0.464   2.066  0.2087 -0.3464 -4.6650
17852SOL    HW255296   3.536   0.372   2.109  0.2691  1.3986 -0.5311
17853SOL     OW55297   8.064   8.291   2.181  0.2006  0.4090 -0.0371
17853SOL    HW155298   8.143   8.238   2.192  0.7911  1.2938  0.1091
17853SOL    HW255299   8.052   8.333   2.266 -2.6304 -2.5871  1.2605
17854SOL     OW55300   2.390   4.565   0.845  0.0600 -0.3188 -0.2797
17854SOL    HW155301   2.432   4.650   0.856 -0.0091 -0.1691 -1.1152
17854SOL    HW255302   2.317   4.581   0.785 -0.5984 -0.7667  0.3744
17855SOL     OW55303   3.619   7.633   6.125 -0.4114  0.6710  0.1142
17855SOL    HW155304   3.672   7.567   6.080 -0.7136  0.1960  0.4451
17855SOL    HW255305   3.671   7.659   6.201 -0.4657  0.5236  0.2014
17856SOL     OW55306   8.993   1.703   4.812  0.0259 -0.1015  0.0051
17856SOL    HW155307   9.003   1.796   4.834 -1.1744 -0.5242  2.8051
17856SOL    HW255308   9.081   1.673   4.791  0.9162  1.1017  1.7641
17857SOL     OW55309   4.538   9.362   8.900 -0.1896 -0.4280  0.1459
17857SOL    HW155310   4.584   9.287   8.938  0.4028  0.1020  0.5026
17857SOL    HW255311   4.453   9.363   8.945 -0.7248 -1.6406 -0.7848
17858SOL     OW55312   0.006   7.923   6.365 -0.1964  0.3414 -0.0822
17858SOL    HW155313   0.090   7.910   6.409  1.0229 -0.9560 -2.5654
17858SOL    HW255314   0.026   7.983   6.293 -1.2112 -0.4819 -1.0901
17859SOL     OW55315   2.519   0.315   6.109 -0.4913 -0.4618  0.0676
17859SOL    HW155316   2.579   0.298   6.036  0.8140 -1.0957  1.2277
17859SOL    HW255317   2.513   0.411   6.113  0.5687 -0.3791  0.0070
17860SOL     OW55318   8.072   7.637   1.163 -0.4556 -0.2908 -1.0844
17860SOL    HW155319   7.986   7.598   1.178  0.6884 -1.9411  1.8214
17860SOL    HW255320   8.128   7.564   1.138  1.0993 -0.1418  1.6669
17861SOL     OW55321   7.564   7.730   5.027  0.0551  0.2146 -0.2741
17861SOL    HW155322   7.659   7.738   5.024  0.7161 -4.2083  0.9928
17861SOL    HW255323   7.537   7.731   4.935  1.1666  2.1833 -0.6281
17862SOL     OW55324   4.823   9.609   1.615 -0.3967  0.1566  0.8137
17862SOL    HW155325   4.849   9.570   1.531  0.5152 -1.0283  1.6223
17862SOL    HW255326   4.904   9.644   1.651 -0.6032 -0.1772  1.6184
17863SOL     OW55327   1.398   4.584   3.692  0.1869 -0.1334  0.2308
17863SOL    HW155328   1.330   4.549   3.749  0.7464  0.6464  1.4140
17863SOL    HW255329   1.462   4.623   3.752 -0.4019  2.9592 -0.9451
17864SOL     OW55330   0.624   7.158   6.164  0.6277  0.3282  0.1728
17864SOL    HW155331   0.545   7.130   6.117  0.2922  0.9245  0.3639
17864SOL    HW255332   0.591   7.215   6.234  1.2994  1.5689 -0.4743
17865SOL     OW55333   8.219   7.507   1.934  0.6181 -0.9585  0.2383
17865SOL    HW155334   8.311   7.490   1.952  1.8462  2.6238 -1.7860
17865SOL    HW255335   8.209   7.491   1.840 -0.9568 -1.4935  0.4480
17866SOL     OW55336   2.958   4.895   5.274  0.1991  0.5575 -0.4677
17866SOL    HW155337   2.934   4.987   5.269 -2.8354 -0.2029 -3.4849
17866SOL    HW255338   2.904   4.860   5.346 -0.1387  0.7816 -0.6089
17867SOL     OW55339   4.919   0.396   1.515 -0.1338 -0.0023 -0.0593
17867SOL    HW155340   4.870   0.412   1.435  0.6535  2.8411 -0.0727
17867SOL    HW255341   4.875   0.450   1.581  0.4158 -0.7670  0.9576
17868SOL     OW55342   4.971   3.531   2.262  0.0414  0.1937  0.1089
17868SOL    HW155343   5.064   3.554   2.268  0.9041 -2.8640  0.3721
17868SOL    HW255344   4.966   3.444   2.302 -2.7829 -0.1599 -0.8089
17869SOL     OW55345   7.943   0.288   2.630  0.0775 -0.7376  0.0828
17869SOL    HW155346   7.879   0.307   2.562  0.9470 -2.0487 -1.1669
17869SOL    HW255347   7.891   0.263   2.706 -1.0028  3.0072  0.7794
17870SOL     OW55348   8.537   6.186   3.171 -0.0777 -0.3727  0.5266
17870SOL    HW155349   8.500   6.111   3.126 -0.9263  0.0127  0.5544
17870SOL    HW255350   8.595   6.149   3.237  0.3378 -0.9662 -0.1622
17871SOL     OW55351   9.269   0.051   0.392 -0.2178  0.0138  0.0135
17871SOL    HW155352   9.361   0.031   0.410 -0.2700 -1.7239 -1.3936
17871SOL    HW255353   9.223   0.028   0.473  0.5490  0.8757  0.7223
17872SOL     OW55354   2.490   3.304   1.352  0.2443  0.4451 -0.1311
17872SOL    HW155355   2.499   3.381   1.408  0.0569  0.4818 -0.1502
17872SOL    HW255356   2.397   3.283   1.355 -0.1872  1.7513 -2.1487
17873SOL     OW55357   7.341   0.922   0.614 -0.3132 -0.0601  0.2431
17873SOL    HW155358   7.415   0.897   0.559 -1.6360  0.8896 -2.0878
17873SOL    HW255359   7.281   0.848   0.609 -0.3171 -0.0891  0.6734
17874SOL     OW55360   5.947   0.125   9.227  0.1013  0.3258  0.0635
17874SOL    HW155361   6.013   0.056   9.239  1.7697  1.7365 -0.5609
17874SOL    HW255362   5.904   0.132   9.312  1.8794  0.4345  0.9987
17875SOL     OW55363   9.325   0.097   5.968  0.6774  0.5682 -0.5961
17875SOL    HW155364   9.378   0.112   5.889  1.5130  0.8559 -0.0051
17875SOL    HW255365   9.238   0.074   5.936  0.2953  3.1240 -1.6178
17876SOL     OW55366   1.370   8.400   4.431 -0.2087 -0.8690  0.1743
17876SOL    HW155367   1.386   8.308   4.410 -0.7565 -0.7253 -0.9696
17876SOL    HW255368   1.457   8.437   4.444  0.0822 -1.3180 -0.4247
17877SOL     OW55369   2.211   6.918   9.419 -0.2740  0.2187 -0.3115
17877SOL    HW155370   2.170   6.996   9.455  1.1959  0.0802  1.8231
17877SOL    HW255371   2.253   6.948   9.338 -0.0331  1.5557  0.2819
17878SOL     OW55372   6.566   9.008   8.196 -0.3616 -0.7500  0.1849
17878SOL    HW155373   6.579   9.084   8.252 -0.3782  0.5664 -1.5338
17878SOL    HW255374   6.517   8.946   8.251 -0.8845  0.7055  1.4224
17879SOL     OW55375   7.441   1.320   1.217 -0.3864  0.3734 -0.3321
17879SOL    HW155376   7.346   1.319   1.217 -0.4274  1.4646  0.8241
17879SOL    HW255377   7.466   1.229   1.232 -1.2502  0.1629 -0.1222
17880SOL     OW55378   5.690   7.760   9.343  0.2667 -0.1478  0.1911
17880SOL    HW155379   5.620   7.812   9.304  0.8703  1.1285  0.7463
17880SOL    HW255380   5.749   7.742   9.269 -0.4412 -0.9172 -0.2037
17881SOL     OW55381   2.979   7.019   7.454 -0.2387  0.2470  0.0688
17881SOL    HW155382   3.014   6.930   7.465  0.9299  0.5397 -1.0931
17881SOL    HW255383   2.983   7.056   7.542  2.0203  0.0961  0.1048
17882SOL     OW55384   3.917   1.612   7.178  0.4392  0.4583 -0.6273
17882SOL    HW155385   3.930   1.675   7.249 -1.3947  0.3085 -0.0926
17882SOL    HW255386   3.849   1.651   7.124  0.9538 -0.0040 -1.6290
17883SOL     OW55387   9.118   6.252   5.239 -0.0825 -0.4260 -0.0233
17883SOL    HW155388   9.163   6.332   5.266 -2.3618 -0.0879  3.4093
17883SOL    HW255389   9.176   6.181   5.265 -0.3778  0.0593  2.0945
17884SOL     OW55390   1.814   2.864   0.996  0.2798 -0.0448  0.2368
17884SOL    HW155391   1.784   2.892   1.083 -1.2911 -1.6518  0.2677
17884SOL    HW255392   1.776   2.927   0.936 -0.4216 -0.1399  0.5652
17885SOL     OW55393   7.815   7.960   1.138  0.2469 -0.6495 -0.0668
17885SOL    HW155394   7.754   7.891   1.163  1.0976 -0.5684  2.4731
17885SOL    HW255395   7.761   8.026   1.096 -0.8663 -1.9796 -0.8209
17886SOL     OW55396   1.458   0.946   2.629  0.2286  0.1146  0.7676
17886SOL    HW155397   1.516   0.886   2.582 -0.7499  0.1138 -0.5070
17886SOL    HW255398   1.378   0.894   2.644 -0.1944  0.7391  0.6957
17887SOL     OW55399   0.995   6.293   3.814 -0.3229 -0.1382  0.1363
17887SOL    HW155400   0.926   6.351   3.847 -1.2378 -2.4590  2.7767
17887SOL    HW255401   1.075   6.325   3.856 -0.2396  0.9930 -0.8531
17888SOL     OW55402   9.468   8.183   6.586  0.5177 -0.4165  0.0267
17888SOL    HW155403   9.562   8.181   6.567  0.8262  0.4755  1.2965
17888SOL    HW255404   9.454   8.108   6.644  0.7947  0.3879  1.1706
17889SOL     OW55405   5.618   8.388   6.526 -0.5140  0.3421  0.2933
17889SOL    HW155406   5.566   8.410   6.603 -0.4416  0.5035  0.2960
17889SOL    HW255407   5.561   8.330   6.475 -0.3687 -0.1710  0.7116
17890SOL     OW55408   8.547   3.650   1.773  0.0729 -0.8021  0.2925
17890SOL    HW155409   8.460   3.685   1.756 -0.0931 -0.6124  1.4666
17890SOL    HW255410   8.552   3.570   1.721  0.0175  0.3091 -1.4924
17891SOL     OW55411   5.984   6.217   0.897 -0.4141  0.0343 -0.2095
17891SOL    HW155412   6.047   6.253   0.959 -3.1350  2.3155  1.4688
17891SOL    HW255413   5.917   6.176   0.952 -1.3404 -0.6769 -1.7943
17892SOL     OW55414   6.535   9.389   4.602  0.0684 -0.0019  0.0464
17892SOL    HW155415   6.461   9.374   4.661  1.2389  1.2919  1.9369
17892SOL    HW255416   6.496   9.386   4.514 -1.8357 -1.3807  0.8616
17893SOL     OW55417   9.451   8.913   6.259 -0.2583 -0.2897  0.0905
17893SOL    HW155418   9.475   8.926   6.351  0.2355  0.6991 -0.1633
17893SOL    HW255419   9.436   8.819   6.251  0.6781 -0.5267  0.9510
17894SOL     OW55420   8.258   7.706   2.698  0.4251 -0.2565 -0.2987
17894SOL    HW155421   8.317   7.710   2.623 -0.3972 -0.0907 -0.9584
17894SOL    HW255422   8.244   7.612   2.711 -0.7078 -0.2747 -1.4198
17895SOL     OW55423   5.012   8.649   2.528  0.8728  0.5126 -0.3063
17895SOL    HW155424   5.019   8.554   2.514  1.8769  0.6667 -0.9871
17895SOL    HW255425   4.925   8.661   2.566 -0.0580 -0.4870 -1.9866
17896SOL     OW55426   3.752   2.202   4.178 -0.5042  0.1736  1.0141
17896SOL    HW155427   3.735   2.209   4.272  0.0023  2.7938  0.9864
17896SOL    HW255428   3.846   2.219   4.169 -0.5548  0.0047  0.0379
17897SOL     OW55429   2.726   3.071   3.949 -0.1659  0.0689 -0.1689
17897SOL    HW155430   2.756   3.034   4.031  0.6689 -3.1704 -1.7724
17897SOL    HW255431   2.803   3.114   3.912 -0.5972  1.7248  0.7250
17898SOL     OW55432   4.025   0.296   0.946  0.4515  0.3792  0.6771
17898SOL    HW155433   3.934   0.276   0.967  0.2954  0.5112  0.1397
17898SOL    HW255434   4.022   0.381   0.904  0.6784 -0.1261 -0.4065
17899SOL     OW55435   4.431   6.563   2.026 -0.0244  0.2777 -0.4161
17899SOL    HW155436   4.489   6.517   2.087  1.3665  0.6005 -1.4405
17899SOL    HW255437   4.368   6.608   2.083  1.0772  0.3751  0.7888
17900SOL     OW55438   5.828   8.528   2.584  0.3214 -0.4294 -0.1680
17900SOL    HW155439   5.808   8.509   2.493  0.1272 -0.2660 -0.1606
17900SOL    HW255440   5.832   8.624   2.588  0.1018 -0.4278  0.0407
17901SOL     OW55441   7.625   2.501   9.299  0.3378  0.2323 -0.2026
17901SOL    HW155442   7.583   2.585   9.282  0.4243  0.1725 -0.7411
17901SOL    HW255443   7.635   2.498   9.394 -0.5133  0.4211 -0.0939
17902SOL     OW55444   4.048   9.019   3.360 -0.0828  0.4058  0.3649
17902SOL    HW155445   4.057   9.109   3.390  0.8260  0.6320 -0.5494
17902SOL    HW255446   4.012   8.972   3.436  0.2780  1.3513  1.1348
17903SOL     OW55447   0.171   1.317   3.159 -0.1393 -0.0146  0.1816
17903SOL    HW155448   0.108   1.340   3.091  0.0627 -1.4174 -0.5091
17903SOL    HW255449   0.239   1.267   3.114 -1.2220 -3.1878  1.7388
17904SOL     OW55450   8.495   1.133   7.031  0.0531  0.3057 -0.0156
17904SOL    HW155451   8.567   1.195   7.018  0.3409 -0.3609 -1.9216
17904SOL    HW255452   8.538   1.053   7.063  0.1438 -0.0291 -0.9635
17905SOL     OW55453   5.975   5.135   3.390 -0.2238  0.6065 -0.2216
17905SOL    HW155454   6.038   5.068   3.416  2.7004  2.8520 -0.8979
17905SOL    HW255455   5.966   5.191   3.467 -1.8339  0.0718  0.0147
17906SOL     OW55456   1.414   7.192   4.520 -0.0474 -0.3420 -0.1040
17906SOL    HW155457   1.427   7.271   4.468 -1.5272  0.0943  0.1394
17906SOL    HW255458   1.415   7.121   4.457 -0.9305  0.0987 -0.6400
17907SOL     OW55459   2.301   5.921   8.707 -0.1818  0.1689  0.2467
17907SOL    HW155460   2.313   6.016   8.705  0.0725  0.1511 -2.0004
17907SOL    HW255461   2.216   5.908   8.748 -1.1776  1.5208 -1.2715
17908SOL     OW55462   2.883   4.310   6.163 -0.2346  0.3766  0.1615
17908SOL    HW155463   2.968   4.355   6.170 -0.0179  0.1908 -1.0800
17908SOL    HW255464   2.828   4.372   6.115  0.8344 -1.5868 -4.0238
17909SOL     OW55465   6.930   2.790   6.225 -0.1912 -0.3736 -0.5558
17909SOL    HW155466   6.866   2.722   6.205  0.1442 -0.9351  0.2199
17909SOL    HW255467   6.954   2.826   6.140 -0.1778 -1.4069 -1.0064
17910SOL     OW55468   1.734   9.050   4.965  0.3776 -0.3442 -0.4454
17910SOL    HW155469   1.691   9.066   4.881  0.6788 -0.9115 -0.7048
17910SOL    HW255470   1.771   8.962   4.958  0.5815 -0.3177  0.2052
17911SOL     OW55471   1.413   5.972   0.760  0.1794  0.2202  0.5773
17911SOL    HW155472   1.454   5.929   0.685 -0.8315  0.6493 -0.2488
17911SOL    HW255473   1.348   5.909   0.792 -3.2766  1.9411 -2.3216
17912SOL     OW55474   6.658   6.288   9.023 -0.5869  0.0898  0.0911
17912SOL    HW155475   6.644   6.202   9.063  1.2661 -0.5821 -0.5921
17912SOL    HW255476   6.603   6.287   8.945 -0.0893 -0.7578 -0.2680
17913SOL     OW55477   2.085   7.469   6.863 -0.2768  0.1027  0.4999
17913SOL    HW155478   2.072   7.440   6.954 -1.0488 -1.2222 -0.0119
17913SOL    HW255479   2.112   7.390   6.816 -0.5428  0.6234 -0.5525
17914SOL     OW55480   2.414   4.079   2.977  0.4199  0.6658  0.0438
17914SOL    HW155481   2.426   4.170   3.005  1.1354  0.1502  1.4910
17914SOL    HW255482   2.322   4.060   2.996  0.2265  1.1369 -0.4200
17915SOL     OW55483   2.773   5.099   8.697 -0.2129 -0.4552 -0.3198
17915SOL    HW155484   2.820   5.083   8.616  0.3673  0.0181 -0.0821
17915SOL    HW255485   2.788   5.191   8.716 -0.7393 -0.4460  0.0765
17916SOL     OW55486   1.667   3.406   0.751  0.0144  0.3926  0.1024
17916SOL    HW155487   1.688   3.497   0.734  2.2065  0.1073  0.9580
17916SOL    HW255488   1.646   3.370   0.664  1.5313  1.1774 -0.6380
17917SOL     OW55489   9.346   0.234   4.471 -0.8283  0.0316 -0.2379
17917SOL    HW155490   9.295   0.170   4.422  0.7355 -0.0864 -1.8340
17917SOL    HW255491   9.344   0.313   4.417  3.5499 -1.0061 -2.4388
17918SOL     OW55492   4.137   7.968   2.386  0.6474  0.2588  0.2367
17918SOL    HW155493   4.217   7.916   2.375  0.6811  0.0199  1.4741
17918SOL    HW255494   4.088   7.922   2.454 -0.8783  0.0175 -0.9601
17919SOL     OW55495   5.838   1.566   2.171  0.3272  0.4034  0.0198
17919SOL    HW155496   5.895   1.500   2.210  0.3249  0.0141 -0.6090
17919SOL    HW255497   5.884   1.593   2.091 -1.5450 -1.8807 -1.9779
17920SOL     OW55498   7.460   9.027   8.365  0.1543 -0.6844 -0.0179
17920SOL    HW155499   7.448   8.952   8.423 -2.7684  1.2088  2.1219
17920SOL    HW255500   7.537   9.072   8.399  0.7961 -1.6637 -0.1372
17921SOL     OW55501   0.395   2.414   0.507 -0.1727 -0.0787 -0.3572
17921SOL    HW155502   0.403   2.391   0.599  1.4683  1.4676 -0.0839
17921SOL    HW255503   0.330   2.351   0.473 -0.1987 -1.2072  1.6248
17922SOL     OW55504   3.442   7.044   3.207  0.3582  0.5576  0.4999
17922SOL    HW155505   3.394   7.047   3.290  0.8932  0.6347  0.8116
17922SOL    HW255506   3.530   7.077   3.229  1.1388 -1.3051  0.3456
17923SOL     OW55507   1.184   6.814   0.278 -0.4410  0.7516 -0.0148
17923SOL    HW155508   1.139   6.751   0.221 -0.0992  1.1503 -0.7428
17923SOL    HW255509   1.118   6.839   0.342 -0.2242 -1.2963  1.0907
17924SOL     OW55510   3.096   3.301   4.830  0.0101  0.2638 -0.4461
17924SOL    HW155511   3.109   3.332   4.740 -1.2485  1.9225 -0.0997
17924SOL    HW255512   3.003   3.311   4.846 -0.1138 -1.7696  0.4667
17925SOL     OW55513   7.042   5.677   6.745  0.4497 -0.4171  0.3980
17925SOL    HW155514   7.048   5.768   6.773 -1.5080  0.3458 -1.4202
17925SOL    HW255515   7.133   5.652   6.727  0.9299  1.6097 -0.2981
17926SOL     OW55516   4.696   2.137   1.007 -0.0530  0.0874 -0.9816
17926SOL    HW155517   4.608   2.168   0.985 -0.3044 -0.9478 -1.5058
17926SOL    HW255518   4.752   2.214   0.997 -0.8531  0.6922 -0.9109
17927SOL     OW55519   3.186   8.849   9.313  0.0925 -0.3861 -0.1978
17927SOL    HW155520   3.197   8.841   9.218  0.1019  0.8401 -0.3137
17927SOL    HW255521   3.143   8.767   9.339  1.2350 -1.2886 -1.0648
17928SOL     OW55522   5.276   0.214   2.599  0.3589 -0.1542 -0.4086
17928SOL    HW155523   5.352   0.181   2.552  0.2893 -2.0995  0.7310
17928SOL    HW255524   5.226   0.263   2.533  2.1684  0.5218 -1.3542
17929SOL     OW55525   4.787   7.360   8.859 -0.2865 -0.2259 -0.4110
17929SOL    HW155526   4.875   7.344   8.825  0.2882 -0.2756  1.0268
17929SOL    HW255527   4.775   7.455   8.853  0.0403 -0.1713 -0.2128
17930SOL     OW55528   2.392   6.389   5.733 -0.5211  0.0059 -0.0520
17930SOL    HW155529   2.409   6.475   5.769 -1.2628 -0.2006  0.8374
17930SOL    HW255530   2.467   6.371   5.676 -0.9419  1.7516 -1.2534
17931SOL     OW55531   0.413   4.470   9.032 -0.1789  0.4499  0.1689
17931SOL    HW155532   0.334   4.429   8.997  2.3314 -1.4111 -4.1874
17931SOL    HW255533   0.448   4.405   9.093 -0.9638  0.3699  0.5446
17932SOL     OW55534   2.944   1.556   8.480 -0.1157  0.0641  0.4171
17932SOL    HW155535   2.950   1.618   8.408 -0.0333  0.6892  0.9515
17932SOL    HW255536   3.034   1.527   8.494 -0.3950 -1.6639 -1.0882
17933SOL     OW55537   8.750   2.044   3.620 -0.2634 -0.2279  0.0405
17933SOL    HW155538   8.722   2.029   3.530 -0.1682 -1.4894  0.2052
17933SOL    HW255539   8.699   2.121   3.648  0.8030  1.1276 -1.5393
17934SOL     OW55540   7.204   4.914   1.417  0.7497  0.6129  0.6629
17934SOL    HW155541   7.250   4.852   1.474  1.3500 -0.2786 -0.7395
17934SOL    HW255542   7.122   4.870   1.396  0.7916  0.6707  0.3724
17935SOL     OW55543   5.730   7.702   3.734  1.2571 -0.5872 -0.2089
17935SOL    HW155544   5.652   7.756   3.750  0.4814 -1.4136 -1.0597
17935SOL    HW255545   5.712   7.619   3.776  2.4402 -0.2406  1.0661
17936SOL     OW55546   8.184   0.051   0.826 -0.2630 -0.4318  0.3376
17936SOL    HW155547   8.193   0.120   0.893 -2.2703  0.1743  0.0255
17936SOL    HW255548   8.109  -0.001   0.855 -1.1465 -0.1796 -1.4071
17937SOL     OW55549   7.464   4.644   5.367 -0.5373 -0.0989 -0.2202
17937SOL    HW155550   7.380   4.660   5.411 -0.2273  0.3515  0.2236
17937SOL    HW255551   7.493   4.731   5.339  0.4495 -0.0552  0.8671
17938SOL     OW55552   9.430   5.233   6.635 -0.5136  0.3199  0.4335
17938SOL    HW155553   9.399   5.150   6.599  1.0023 -0.4888  0.8865
17938SOL    HW255554   9.440   5.216   6.729  2.4016  0.0889  0.1808
17939SOL     OW55555   5.919   7.524   8.668  0.2316  0.0662  0.4938
17939SOL    HW155556   5.868   7.470   8.608  0.2744  0.0835  0.4415
17939SOL    HW255557   5.886   7.613   8.654  0.2040  0.0622  0.5345
17940SOL     OW55558   7.741   0.045   0.755  0.0433  0.4679 -0.4105
17940SOL    HW155559   7.699   0.030   0.670 -1.2296  0.1961  0.2488
17940SOL    HW255560   7.768   0.136   0.753 -1.4660  0.9378 -0.4895
17941SOL     OW55561   8.922   0.932   9.582 -0.1424  0.6227 -0.3701
17941SOL    HW155562   8.983   0.924   9.655 -3.1650 -0.4522  2.2922
17941SOL    HW255563   8.896   0.842   9.561 -2.1650  1.0782 -0.0681
17942SOL     OW55564   5.035   8.966   8.054 -0.4125  0.7581 -0.4912
17942SOL    HW155565   5.118   9.007   8.079  1.6641 -0.7966 -4.0162
17942SOL    HW255566   5.045   8.874   8.077 -0.2862  0.1951 -2.6027
17943SOL     OW55567   1.678   5.093   3.005  0.6695 -0.2239  1.3632
17943SOL    HW155568   1.657   5.171   3.056 -0.2251 -0.3438  1.1899
17943SOL    HW255569   1.685   5.023   3.069  0.7519 -0.1456  1.4402
17944SOL     OW55570   5.829   2.418   7.748 -0.6634 -0.4826  0.5058
17944SOL    HW155571   5.897   2.484   7.763 -1.5530  0.4061  0.7075
17944SOL    HW255572   5.849   2.383   7.661 -1.0453  1.1528 -0.2917
17945SOL     OW55573   8.897   1.441   1.504  0.4498  0.1909 -0.1980
17945SOL    HW155574   8.926   1.531   1.487 -1.2779  0.9842  0.8115
17945SOL    HW255575   8.830   1.425   1.437  0.6333 -0.2893 -0.2669
17946SOL     OW55576   4.802   1.594   3.671 -0.0233  0.4301  0.9507
17946SOL    HW155577   4.750   1.596   3.591  1.2483 -0.5825  0.0496
17946SOL    HW255578   4.755   1.535   3.729 -0.0800 -0.1917  0.2877
17947SOL     OW55579   0.738   6.674   3.794 -0.1774  0.4485  0.0698
17947SOL    HW155580   0.670   6.661   3.860  0.0016 -0.6343  0.0608
17947SOL    HW255581   0.817   6.638   3.835 -0.1123 -0.4511 -0.8066
17948SOL     OW55582   5.533   0.503   9.417 -0.0001 -0.2982  0.0236
17948SOL    HW155583   5.514   0.527   9.508 -1.2196  1.3818 -0.6186
17948SOL    HW255584   5.484   0.421   9.403 -0.1709 -0.3228  0.7434
17949SOL     OW55585   5.282   0.192   0.351  0.1739  0.5194 -0.2489
17949SOL    HW155586   5.299   0.108   0.394  0.4623  1.1077  0.8214
17949SOL    HW255587   5.288   0.256   0.421 -2.1696  1.2394 -0.6400
17950SOL     OW55588   9.354   7.942   9.137 -0.1052  0.0458  0.0804
17950SOL    HW155589   9.354   8.034   9.163 -1.1267  0.3532 -0.9095
17950SOL    HW255590   9.322   7.895   9.214  1.4924  0.3695  0.9780
17951SOL     OW55591   0.734   5.105   3.257 -0.3888 -0.3627 -0.4218
17951SOL    HW155592   0.816   5.134   3.216 -0.3508 -0.3977 -0.3708
17951SOL    HW255593   0.666   5.151   3.209 -0.3930 -1.0260 -1.0597
17952SOL     OW55594   5.655   5.227   2.904  0.4836 -0.2346  0.2617
17952SOL    HW155595   5.566   5.192   2.912  0.4181  0.1658  1.6578
17952SOL    HW255596   5.696   5.207   2.989  1.3444  0.5922  0.0557
17953SOL     OW55597   7.172   7.167   9.155  0.0244 -0.4014  0.1774
17953SOL    HW155598   7.261   7.131   9.156 -0.0067 -0.4972  1.2164
17953SOL    HW255599   7.116   7.090   9.146  0.0541 -0.2903 -1.0593
17954SOL     OW55600   8.439   1.149   0.543  0.4324 -0.2382 -0.4322
17954SOL    HW155601   8.401   1.234   0.521  1.1876  0.3036  0.3288
17954SOL    HW255602   8.517   1.169   0.595  0.4766 -1.4022 -0.0088
17955SOL     OW55603   7.104   2.401   0.315  0.2447  0.0692 -0.2270
17955SOL    HW155604   7.180   2.440   0.359 -0.4509  1.2278 -0.0233
17955SOL    HW255605   7.125   2.406   0.222 -0.0517  1.4431 -0.2350
17956SOL     OW55606   0.177   7.421   1.598 -0.1080  0.0164 -0.3050
17956SOL    HW155607   0.232   7.351   1.562 -0.1038 -1.1262  1.7897
17956SOL    HW255608   0.214   7.501   1.560 -0.1599 -1.0349 -2.8234
17957SOL     OW55609   4.503   7.890   2.107  0.4446 -0.1004 -0.1967
17957SOL    HW155610   4.474   7.973   2.143 -0.4338 -1.8295  3.5257
17957SOL    HW255611   4.432   7.863   2.048  1.2484  2.1407 -2.3790
17958SOL     OW55612   6.840   6.375   5.541 -0.1584 -0.0882 -0.2045
17958SOL    HW155613   6.929   6.381   5.506 -0.2814  1.9764 -0.2799
17958SOL    HW255614   6.799   6.307   5.489  1.1598 -0.5844 -0.6480
17959SOL     OW55615   2.234   0.233   6.583  0.3613  0.2868 -0.0112
17959SOL    HW155616   2.217   0.297   6.514  0.4984  0.6970  0.3332
17959SOL    HW255617   2.326   0.209   6.572  0.5762  0.8693  0.4509
17960SOL     OW55618   1.580   6.397   8.992 -0.0958  0.2846  0.2535
17960SOL    HW155619   1.674   6.410   9.006 -0.1245  0.8492 -0.0679
17960SOL    HW255620   1.548   6.361   9.075  0.3398  0.4187  0.4821
17961SOL     OW55621   7.407   3.503   2.322 -0.1125 -0.1686 -0.2018
17961SOL    HW155622   7.320   3.496   2.360 -0.8455  0.2300 -1.7672
17961SOL    HW255623   7.400   3.462   2.236  1.7919 -2.0458  0.4425
17962SOL     OW55624   0.251   8.224   8.253 -0.4318  0.0721 -0.3535
17962SOL    HW155625   0.161   8.209   8.224 -0.6600 -1.2600  0.9272
17962SOL    HW255626   0.273   8.146   8.305  1.1457  0.7886  0.1213
17963SOL     OW55627   7.809   3.936   0.386 -0.4605 -0.5382 -0.3931
17963SOL    HW155628   7.904   3.923   0.396 -0.3241  0.9752  0.5668
17963SOL    HW255629   7.770   3.865   0.436  0.1187 -1.8159 -1.6675
17964SOL     OW55630   5.422   0.696   7.182  0.2206 -0.0913  0.5427
17964SOL    HW155631   5.421   0.761   7.252  1.7176  0.0426  0.4697
17964SOL    HW255632   5.433   0.747   7.102 -0.2399 -0.3251  0.3295
17965SOL     OW55633   5.554   1.661   0.188 -0.0395 -0.1747 -0.3155
17965SOL    HW155634   5.471   1.688   0.148 -0.2096 -1.0121 -0.5430
17965SOL    HW255635   5.535   1.576   0.227  1.3071 -1.5741 -2.4946
17966SOL     OW55636   3.955   2.593   0.895 -0.4476  0.3431 -0.1730
17966SOL    HW155637   3.994   2.519   0.848  1.1824  0.3259  1.1226
17966SOL    HW255638   3.864   2.567   0.908 -0.4942 -0.4157 -1.7246
17967SOL     OW55639   6.667   8.722   9.495 -0.4293  0.5551 -0.5780
17967SOL    HW155640   6.700   8.766   9.574  3.0275 -0.5930 -1.2043
17967SOL    HW255641   6.691   8.781   9.424 -0.0252 -0.1688 -1.0498
17968SOL     OW55642   5.524   9.020   7.400  0.4414  0.0675 -0.2391
17968SOL    HW155643   5.602   8.964   7.402  0.6017  0.2903 -0.2358
17968SOL    HW255644   5.540   9.081   7.328 -0.1406 -0.4724 -0.8292
17969SOL     OW55645   1.277   1.472   1.392 -0.6114 -0.1424  0.1069
17969SOL    HW155646   1.265   1.464   1.486  0.7350 -1.1569  0.2200
17969SOL    HW255647   1.269   1.566   1.375 -1.1864  0.0118  1.1790
17970SOL     OW55648   4.103   1.279   4.606 -0.2883 -0.6362  0.6391
17970SOL    HW155649   4.015   1.270   4.644 -0.6701 -0.5626 -0.2068
17970SOL    HW255650   4.106   1.214   4.536  1.0009 -1.9012  1.8347
17971SOL     OW55651   7.393   9.197   6.065  0.4296  0.5496  0.5404
17971SOL    HW155652   7.397   9.204   6.160 -0.9542  0.3711  0.6270
17971SOL    HW255653   7.332   9.265   6.038  0.1214  0.0257 -0.1313
17972SOL     OW55654   4.196   7.829   1.592 -0.3391 -0.3639  0.3326
17972SOL    HW155655   4.138   7.813   1.518 -0.6138 -0.8138  0.6455
17972SOL    HW255656   4.140   7.824   1.669 -0.3552  1.5533  0.5074
17973SOL     OW55657   8.343   1.957   0.731  0.2975 -0.5057  0.2314
17973SOL    HW155658   8.387   2.037   0.703 -1.7587  0.3566 -0.7424
17973SOL    HW255659   8.410   1.889   0.726  1.3310  0.5794 -1.9782
17974SOL     OW55660   2.186   1.780   5.927 -0.4666  0.4311 -0.0362
17974SOL    HW155661   2.259   1.737   5.972 -1.9218 -1.7295  0.4411
17974SOL    HW255662   2.151   1.842   5.991 -0.4358 -0.1962  0.6061
17975SOL     OW55663   1.534   3.378   6.408  0.0711 -0.2059  0.0636
17975SOL    HW155664   1.542   3.426   6.326 -0.1019  0.7851  0.6092
17975SOL    HW255665   1.510   3.445   6.473 -1.9171 -1.2892  0.5288
17976SOL     OW55666   8.062   2.451   7.234  0.1678 -0.2657  0.9140
17976SOL    HW155667   8.026   2.525   7.282  2.0667  1.1722  0.2517
17976SOL    HW255668   8.011   2.447   7.153  1.1164  1.4531  0.1793
17977SOL     OW55669   6.353   8.590   7.568 -0.1929 -0.3027  0.1090
17977SOL    HW155670   6.438   8.546   7.568  0.8276  1.5315  1.9085
17977SOL    HW255671   6.363   8.663   7.508 -0.9550 -0.8004 -0.6566
17978SOL     OW55672   4.897   8.656   8.293 -0.2046  0.3577  0.0695
17978SOL    HW155673   4.837   8.706   8.348 -0.6232  3.4111 -2.8699
17978SOL    HW255674   4.983   8.693   8.311 -0.2711  1.0071 -0.9059
17979SOL     OW55675   5.252   2.163   0.079 -0.0263  0.5969 -0.3215
17979SOL    HW155676   5.347   2.150   0.079 -0.0240  0.0682 -2.8262
17979SOL    HW255677   5.215   2.077   0.099 -0.0142  0.9000  1.1017
17980SOL     OW55678   6.139   1.263   3.449 -0.3765  0.6728  0.1324
17980SOL    HW155679   6.226   1.230   3.471 -0.5708  0.3973  0.4858
17980SOL    HW255680   6.137   1.350   3.488  0.8111  1.9242 -2.3169
17981SOL     OW55681   3.431   1.085   6.889  0.2416  0.4661  0.2762
17981SOL    HW155682   3.390   1.026   6.952  0.0570  1.2496  0.9064
17981SOL    HW255683   3.477   1.027   6.828  0.3206 -0.3181  1.0611
17982SOL     OW55684   7.768   6.475   6.884 -0.5444  0.4364 -0.1892
17982SOL    HW155685   7.686   6.450   6.926 -0.7319 -1.0964 -1.3628
17982SOL    HW255686   7.757   6.568   6.863 -1.3697  0.6286  0.9826
17983SOL     OW55687   6.709   7.064   7.711 -0.2219  0.2405 -0.5717
17983SOL    HW155688   6.734   7.056   7.619  0.4736  0.4394 -0.4081
17983SOL    HW255689   6.789   7.094   7.755 -0.7953  1.0600 -0.0502
17984SOL     OW55690   7.017   5.435   1.918 -0.4807  0.4607  0.1021
17984SOL    HW155691   7.084   5.382   1.963 -1.1988  1.3035  2.2941
17984SOL    HW255692   6.982   5.377   1.851 -0.9894 -1.7878  2.1572
17985SOL     OW55693   8.859   3.891   7.485  0.0577  0.5322  0.4235
17985SOL    HW155694   8.926   3.823   7.478 -1.6352 -1.1853  0.0391
17985SOL    HW255695   8.825   3.883   7.574  0.1391  1.2110  0.5265
17986SOL     OW55696   2.721   1.338   5.047  0.1612 -0.0838 -0.2613
17986SOL    HW155697   2.639   1.331   4.998 -0.2470 -1.3386  0.5359
17986SOL    HW255698   2.790   1.336   4.980 -0.4487  2.3735 -1.0424
17987SOL     OW55699   7.476   0.840   0.381  0.9404 -0.5785  0.0547
17987SOL    HW155700   7.467   0.751   0.347 -0.6863 -0.0573 -1.0282
17987SOL    HW255701   7.531   0.885   0.317  0.4843 -0.4185 -0.2314
17988SOL     OW55702   3.786   7.287   6.445  0.5515 -0.0017  0.3636
17988SOL    HW155703   3.811   7.200   6.415  0.1332  0.0004  0.0049
17988SOL    HW255704   3.738   7.272   6.527  0.0146 -0.1514  0.0266
17989SOL     OW55705   5.811   8.271   2.072  0.6584 -0.4319  0.2867
17989SOL    HW155706   5.813   8.211   2.147  0.9261  0.5172  1.0518
17989SOL    HW255707   5.899   8.265   2.034  0.0107 -2.2325 -1.0408
17990SOL     OW55708   2.929   9.162   6.393 -0.0015  0.4598 -0.2333
17990SOL    HW155709   2.936   9.221   6.318 -0.3398 -1.0512 -1.5254
17990SOL    HW255710   2.840   9.176   6.426 -0.2451  0.3336 -0.8278
17991SOL     OW55711   1.449   7.277   7.207  0.0217  0.6679 -0.4625
17991SOL    HW155712   1.431   7.184   7.192 -0.4092  1.0980 -3.0140
17991SOL    HW255713   1.477   7.281   7.299 -0.9392 -1.8096  0.0240
17992SOL     OW55714   2.561   1.699   5.510  0.0895 -0.0294  0.2409
17992SOL    HW155715   2.646   1.685   5.468 -0.4733 -1.1386 -0.5862
17992SOL    HW255716   2.498   1.701   5.438 -0.8612 -1.5573  0.9639
17993SOL     OW55717   0.888   4.582   0.167 -0.6660 -0.1007  0.6285
17993SOL    HW155718   0.873   4.527   0.244  2.8137 -1.3227  0.6148
17993SOL    HW255719   0.938   4.656   0.200 -0.7150  0.3002 -0.1726
17994SOL     OW55720   5.710   6.745   3.825  0.2143  0.3953 -0.0131
17994SOL    HW155721   5.675   6.662   3.794 -0.7549  0.4387  0.9284
17994SOL    HW255722   5.723   6.733   3.919  2.1623  0.5947 -0.2092
17995SOL     OW55723   8.699   4.829   0.872 -0.6575 -0.1644 -0.4493
17995SOL    HW155724   8.693   4.805   0.965 -1.2881  1.1687 -0.1280
17995SOL    HW255725   8.770   4.774   0.838 -0.7429 -1.0239  0.7023
17996SOL     OW55726   0.843   0.255   7.032  0.7284 -0.0845 -0.2933
17996SOL    HW155727   0.835   0.265   7.127  1.1355 -1.4333 -0.0876
17996SOL    HW255728   0.847   0.160   7.019  0.8345  0.0926 -1.6472
17997SOL     OW55729   1.018   7.984   5.716 -0.0518  0.5451 -0.8295
17997SOL    HW155730   0.977   8.068   5.699  1.4776  1.2228 -1.3629
17997SOL    HW255731   1.063   7.996   5.801 -0.0201  0.2010 -0.7963
17998SOL     OW55732   0.594   2.725   0.176  0.1521  0.8383 -0.3308
17998SOL    HW155733   0.558   2.736   0.263  0.6517  0.9659 -0.1366
17998SOL    HW255734   0.526   2.678   0.127 -0.3555  1.2641 -0.0364
17999SOL     OW55735   3.141   0.733   2.257 -0.2706 -0.4432  0.5005
17999SOL    HW155736   3.119   0.758   2.347 -1.5046  0.3561  0.0016
17999SOL    HW255737   3.236   0.725   2.257 -0.0349  1.8301  1.3085
18000SOL     OW55738   1.714   6.630   8.412  0.0078 -0.8740 -0.1221
18000SOL    HW155739   1.650   6.647   8.343  2.5780 -1.5191 -2.8519
18000SOL    HW255740   1.747   6.542   8.393  1.9857 -0.4248  0.9293
18001SOL     OW55741   0.808   8.344   7.849  0.2274  0.1635  0.2579
18001SOL    HW155742   0.872   8.287   7.805 -0.8390 -0.3636 -0.6529
18001SOL    HW255743   0.787   8.410   7.783 -1.1917 -0.4752  0.0259
18002SOL     OW55744   6.994   7.944   6.296  0.0324 -0.0491  0.7356
18002SOL    HW155745   6.999   7.964   6.389 -0.5623  0.2680  0.7063
18002SOL    HW255746   6.969   7.852   6.292 -0.2088  0.0085  0.8925
18003SOL     OW55747   9.009   5.562   5.676 -0.1076 -0.3992 -0.1473
18003SOL    HW155748   8.987   5.526   5.589 -1.1045  0.2911 -0.1968
18003SOL    HW255749   8.952   5.513   5.736 -0.6441  0.2877 -0.0864
18004SOL     OW55750   1.105   7.783   0.006  0.4827  0.2065 -0.5573
18004SOL    HW155751   1.127   7.727  -0.068  0.2770  0.8453 -1.1145
18004SOL    HW255752   1.130   7.732   0.083  2.5825  0.3189 -1.1071
18005SOL     OW55753   2.501   5.630   8.035 -0.0196 -0.1193 -0.0913
18005SOL    HW155754   2.592   5.621   8.061 -0.2788 -1.9554  0.2917
18005SOL    HW255755   2.460   5.679   8.106  0.9573  2.2665 -1.0537
18006SOL     OW55756   6.296   7.047   5.777  0.5064 -0.2928 -0.6794
18006SOL    HW155757   6.251   7.106   5.838 -0.6128 -1.7514 -0.0373
18006SOL    HW255758   6.355   7.105   5.728 -0.6963  1.4101 -0.2477
18007SOL     OW55759   7.816   4.990   6.201 -0.1843  0.2222 -0.2984
18007SOL    HW155760   7.869   4.955   6.129 -0.2134  0.8332 -0.6284
18007SOL    HW255761   7.726   4.964   6.180 -0.6481  2.8825 -2.1056
18008SOL     OW55762   4.297   1.012   6.183 -0.2089 -0.0364 -0.1515
18008SOL    HW155763   4.260   1.093   6.217 -0.6712  0.8388 -2.5064
18008SOL    HW255764   4.340   0.971   6.258 -2.7559  0.7422  1.8582
18009SOL     OW55765   2.848   6.311   5.030  0.0252 -0.3194  0.2644
18009SOL    HW155766   2.851   6.351   5.117 -0.0697 -0.4247  0.3174
18009SOL    HW255767   2.932   6.267   5.021  0.1603 -0.0402  0.1738
18010SOL     OW55768   7.112   5.410   5.908 -0.0171  0.9920 -0.5079
18010SOL    HW155769   7.189   5.425   5.853 -0.2648 -1.9805 -1.8429
18010SOL    HW255770   7.043   5.462   5.867  0.6989  1.8378 -0.6819
18011SOL     OW55771   0.579   8.398   4.001  0.1926  0.1199 -0.5595
18011SOL    HW155772   0.640   8.356   4.063  0.2979  2.0075  0.7274
18011SOL    HW255773   0.506   8.338   3.994  1.9109 -1.9783 -1.7274
18012SOL     OW55774   0.103   4.363   0.611  0.5636  0.2202 -0.0282
18012SOL    HW155775   0.125   4.456   0.605  1.6334  0.0728  1.2238
18012SOL    HW255776   0.091   4.335   0.520  0.7939  1.4466 -0.4514
18013SOL     OW55777   2.845   9.348   7.055  0.8489 -0.4878  0.0604
18013SOL    HW155778   2.930   9.305   7.060  0.1408 -2.0494 -0.6649
18013SOL    HW255779   2.817   9.356   7.146  1.4239 -0.6821  0.2577
18014SOL     OW55780   0.701   0.416   5.638  0.6344 -0.4783 -0.1007
18014SOL    HW155781   0.633   0.348   5.640  0.3537 -0.1759  0.6202
18014SOL    HW255782   0.659   0.491   5.596  1.0377 -0.8361 -1.1813
18015SOL     OW55783   9.104   4.487   1.999 -0.1957  0.0384 -0.0838
18015SOL    HW155784   9.144   4.563   1.956 -0.9098 -0.0356 -0.9210
18015SOL    HW255785   9.138   4.489   2.088 -0.6293  1.6571  0.0772
18016SOL     OW55786   7.110   8.260   9.267 -0.1040 -0.0595  0.1072
18016SOL    HW155787   7.128   8.188   9.207  0.4933 -1.0206  1.3970
18016SOL    HW255788   7.193   8.307   9.275 -0.3090  0.3616 -0.1847
18017SOL     OW55789   1.311   0.056   2.319 -0.3734 -0.5059 -0.4640
18017SOL    HW155790   1.390   0.098   2.354  0.0080 -1.9621  0.5353
18017SOL    HW255791   1.344  -0.015   2.264 -0.9466 -1.5657  0.5145
18018SOL     OW55792   7.409   4.408   7.527  0.6843 -0.0595  0.3431
18018SOL    HW155793   7.373   4.343   7.587  0.4819  0.0173  0.3052
18018SOL    HW255794   7.417   4.363   7.443 -1.5989  0.5916 -0.2849
18019SOL     OW55795   6.901   0.651   2.112 -0.2201  0.0204 -0.3030
18019SOL    HW155796   6.909   0.704   2.033  0.7073  0.6635  0.2093
18019SOL    HW255797   6.903   0.561   2.080  3.8704  0.1333 -0.8061
18020SOL     OW55798   1.343   8.989   0.070  0.2083  0.5329 -0.3562
18020SOL    HW155799   1.376   8.926   0.006 -0.7809 -2.9196  2.2575
18020SOL    HW255800   1.420   9.014   0.122  0.2514 -0.2675 -0.0314
18021SOL     OW55801   0.909   8.029   2.857 -0.3339 -0.1800 -0.2341
18021SOL    HW155802   0.847   8.066   2.919  1.1276  0.0052  1.1628
18021SOL    HW255803   0.864   8.036   2.772 -1.1968  2.3516  0.3285
18022SOL     OW55804   5.417   5.207   2.531 -0.1668 -0.5971  0.2158
18022SOL    HW155805   5.423   5.219   2.436  1.8342 -0.7008  0.2700
18022SOL    HW255806   5.339   5.255   2.557 -0.3381  0.0519 -1.4047
18023SOL     OW55807   0.707   1.716   1.060 -0.5056  0.4465 -0.4845
18023SOL    HW155808   0.678   1.673   1.141  0.6225  1.0258  0.2626
18023SOL    HW255809   0.802   1.702   1.059 -0.4390  0.9058 -1.4473
18024SOL     OW55810   1.074   1.227   7.479 -0.0188  0.2014  0.2694
18024SOL    HW155811   1.117   1.141   7.479  2.1252  1.1807 -0.3664
18024SOL    HW255812   1.089   1.261   7.390  1.0807  2.0484  1.0906
18025SOL     OW55813   7.380   2.795   6.789 -0.6703 -0.1214  0.1124
18025SOL    HW155814   7.421   2.723   6.742  0.9957  1.3209 -0.7779
18025SOL    HW255815   7.287   2.774   6.790 -0.5264 -1.1402 -2.2172
18026SOL     OW55816   4.467   9.488   4.182 -0.1829  0.0134  0.5137
18026SOL    HW155817   4.436   9.561   4.128  0.3857 -1.5114 -2.0311
18026SOL    HW255818   4.387   9.449   4.219 -0.6950  0.3848 -0.1848
18027SOL     OW55819   1.442   8.693   3.363 -0.0060  0.7343 -0.5643
18027SOL    HW155820   1.435   8.598   3.349 -1.9358  0.8841 -0.7991
18027SOL    HW255821   1.489   8.701   3.446 -1.2722 -0.5064  0.3223
18028SOL     OW55822   3.345   2.127   8.243 -0.4321 -0.6998 -0.2030
18028SOL    HW155823   3.440   2.132   8.236 -0.4741  0.1636 -0.2230
18028SOL    HW255824   3.316   2.218   8.246 -1.1497 -0.9446  1.3063
18029SOL     OW55825   4.767   1.946   7.258 -0.1667  0.0531  0.0407
18029SOL    HW155826   4.689   1.897   7.285 -1.1311  1.5222  0.0315
18029SOL    HW255827   4.776   1.928   7.165 -0.1010 -0.6541  0.1828
18030SOL     OW55828   6.029   4.167   8.883  0.1660  0.1390 -0.0726
18030SOL    HW155829   5.954   4.107   8.888  0.5769 -0.5209 -1.4694
18030SOL    HW255830   6.044   4.193   8.974 -1.1561 -0.4548  0.3486
18031SOL     OW55831   4.165   5.760   1.990  0.3879  0.0326 -0.2512
18031SOL    HW155832   4.243   5.802   1.954  0.0846  0.8587  0.0247
18031SOL    HW255833   4.097   5.773   1.923  0.4479 -0.5780 -0.4385
18032SOL     OW55834   8.655   4.609   4.050  0.5096 -0.9411  0.1618
18032SOL    HW155835   8.719   4.542   4.025  0.9538 -0.5755  0.2870
18032SOL    HW255836   8.579   4.560   4.080  0.7592 -1.3869  0.0794
18033SOL     OW55837   6.644   0.684   4.910  0.4924 -0.2989 -0.3169
18033SOL    HW155838   6.634   0.776   4.887  2.7627 -0.1030 -0.7482
18033SOL    HW255839   6.556   0.647   4.899 -0.6395  1.9098  0.5126
18034SOL     OW55840   5.609   9.507   4.377 -0.4409 -0.7176 -0.2935
18034SOL    HW155841   5.681   9.552   4.421 -0.8696 -0.5184  0.2225
18034SOL    HW255842   5.586   9.566   4.304 -1.2076  0.0814  0.5678
18035SOL     OW55843   6.546   2.868   3.067 -0.0644  0.4817 -0.9459
18035SOL    HW155844   6.571   2.859   2.975  0.1010  0.1389 -0.8693
18035SOL    HW255845   6.562   2.782   3.105 -0.9547  0.3723 -0.7881
18036SOL     OW55846   8.564   7.215   0.140 -0.0466  0.4656 -0.2770
18036SOL    HW155847   8.474   7.193   0.114 -0.1254  1.0968 -0.5734
18036SOL    HW255848   8.560   7.309   0.160  0.2750  0.2252  0.9393
18037SOL     OW55849   9.360   3.730   1.286  0.5780 -0.2290 -0.4458
18037SOL    HW155850   9.335   3.708   1.376 -0.0554 -1.3063 -0.8556
18037SOL    HW255851   9.398   3.648   1.252  0.3919  0.0313 -1.2944
18038SOL     OW55852   4.435   3.389   2.099  0.2573  0.3267  0.2586
18038SOL    HW155853   4.429   3.422   2.009  0.7182 -2.1272 -0.7494
18038SOL    HW255854   4.516   3.338   2.101 -0.6454 -1.1642  1.5313
18039SOL     OW55855   4.452   4.047   0.535 -0.4900 -0.2329  0.4510
18039SOL    HW155856   4.534   4.052   0.585 -0.3832  2.2284  0.1519
18039SOL    HW255857   4.394   4.108   0.579 -1.2604  0.0482 -0.9313
18040SOL     OW55858   0.305   3.442   0.799  0.4588 -0.0952 -0.4166
18040SOL    HW155859   0.232   3.475   0.747 -0.4317  2.0482  1.9717
18040SOL    HW255860   0.356   3.519   0.821  2.1299 -1.2532 -0.0632
18041SOL     OW55861   7.510   4.510   8.458  0.1899 -0.0997  0.0633
18041SOL    HW155862   7.506   4.534   8.366  0.6123 -0.2564  0.0009
18041SOL    HW255863   7.533   4.417   8.457 -0.7706 -0.3463  0.3096
18042SOL     OW55864   6.703   1.354   5.022  0.4150  0.8027  0.0057
18042SOL    HW155865   6.618   1.397   5.010  0.7593  1.0765 -1.7940
18042SOL    HW255866   6.728   1.325   4.934  1.4301 -0.7553  0.7568
18043SOL     OW55867   7.787   4.381   0.318 -0.4967  0.3065  0.1132
18043SOL    HW155868   7.782   4.336   0.234  1.1473 -0.6379  0.4877
18043SOL    HW255869   7.878   4.411   0.325 -0.5001  0.0443  1.7009
18044SOL     OW55870   9.373   1.049   6.378  0.9130 -1.0405 -0.1702
18044SOL    HW155871   9.433   1.061   6.452 -0.7979 -0.2942  1.1770
18044SOL    HW255872   9.361   1.137   6.342  1.0651 -1.2701 -0.7918
18045SOL     OW55873   2.396   9.260   0.067  0.1005  0.1309 -0.3204
18045SOL    HW155874   2.382   9.193   0.000  2.3098 -0.6047 -0.1300
18045SOL    HW255875   2.491   9.267   0.075 -0.0615  2.4123  0.5738
18046SOL     OW55876   3.678   3.335   2.587  0.1986 -0.5857 -0.0045
18046SOL    HW155877   3.758   3.377   2.557 -0.4004  1.7154  1.3538
18046SOL    HW255878   3.640   3.296   2.509  0.5424  1.9425 -1.5496
18047SOL     OW55879   0.995   6.641   8.871  0.4184 -0.1080 -0.6161
18047SOL    HW155880   0.946   6.620   8.950 -0.9204  0.7841 -1.1816
18047SOL    HW255881   1.068   6.695   8.901  0.3091 -0.3451  0.0837
18048SOL     OW55882   1.790   0.827   2.027 -0.1935  0.5257  0.0465
18048SOL    HW155883   1.751   0.911   2.004  0.2353  1.3334  2.0709
18048SOL    HW255884   1.862   0.849   2.086  2.4728 -1.0196 -2.3539
18049SOL     OW55885   1.916   7.030   9.447 -0.0127  0.2373  0.3018
18049SOL    HW155886   1.863   7.096   9.491 -1.8943 -1.2531  0.4405
18049SOL    HW255887   1.889   7.035   9.355 -0.4386 -0.5265  0.3710
18050SOL     OW55888   8.716   9.304   3.525 -0.4094 -0.6305 -0.3907
18050SOL    HW155889   8.670   9.310   3.609  0.5732  4.9390  0.1573
18050SOL    HW255890   8.801   9.265   3.548 -0.9857 -1.3397  0.6603
18051SOL     OW55891   7.715   4.708   0.336 -0.3059  0.2103 -0.3790
18051SOL    HW155892   7.750   4.745   0.255 -0.6777 -0.3405 -0.7978
18051SOL    HW255893   7.781   4.729   0.402 -0.6422  1.8797 -0.5261
18052SOL     OW55894   9.442   4.061   1.438 -0.0620 -0.2938  0.6028
18052SOL    HW155895   9.381   3.997   1.477 -0.9350  1.0148  1.4553
18052SOL    HW255896   9.428   4.051   1.344 -0.5089 -1.0606  0.7362
18053SOL     OW55897   3.758   4.886   3.832  0.4951  0.2698  0.4052
18053SOL    HW155898   3.848   4.889   3.799  0.8441 -2.2232  0.9879
18053SOL    HW255899   3.767   4.910   3.924  0.3353  1.4045  0.1405
18054SOL     OW55900   8.319   6.308   2.161 -0.3669 -0.3893  0.1664
18054SOL    HW155901   8.345   6.366   2.233  0.8085  0.0267 -0.5710
18054SOL    HW255902   8.387   6.241   2.158 -1.6726 -1.8248  0.9646
18055SOL     OW55903   3.707   8.823   6.669  0.4210  0.2788 -0.3442
18055SOL    HW155904   3.720   8.896   6.729  1.2803  0.0417 -0.2271
18055SOL    HW255905   3.763   8.844   6.593 -1.1950  0.9343 -1.4067
18056SOL     OW55906   8.072   1.473   3.613 -0.2817  0.1482 -0.2881
18056SOL    HW155907   7.987   1.480   3.656  0.5854 -1.0134  1.7862
18056SOL    HW255908   8.121   1.411   3.667  1.3042 -0.5765 -2.4062
18057SOL     OW55909   8.509   0.683   1.202  0.2932  0.1730 -0.2454
18057SOL    HW155910   8.425   0.704   1.243  0.4460  0.5468 -0.1204
18057SOL    HW255911   8.574   0.732   1.254  0.6164 -0.3430 -0.1610
18058SOL     OW55912   2.871   9.587   0.732  0.0581 -0.0127  0.0050
18058SOL    HW155913   2.840   9.671   0.697 -0.2688  0.6869  1.8625
18058SOL    HW255914   2.830   9.581   0.818  0.6052 -1.7937  0.1751
18059SOL     OW55915   6.563   0.745   7.040 -0.3903 -0.0487  0.4608
18059SOL    HW155916   6.474   0.710   7.038 -0.6391  0.6293 -0.7527
18059SOL    HW255917   6.604   0.699   7.114 -1.2107 -1.6388 -0.0214
18060SOL     OW55918   1.487   0.197   1.317 -0.1381  0.1637 -0.6659
18060SOL    HW155919   1.422   0.259   1.281 -1.2769  0.8035  2.2175
18060SOL    HW255920   1.544   0.251   1.372 -1.1328 -1.2196  1.9057
18061SOL     OW55921   4.442   3.608   9.538 -0.8695 -0.1357 -0.2560
18061SOL    HW155922   4.512   3.546   9.521 -1.1944 -0.9489  1.1991
18061SOL    HW255923   4.388   3.566   9.605 -1.3420  1.5275  0.4696
18062SOL     OW55924   4.331   4.163   0.904 -0.1544  0.4421 -0.4745
18062SOL    HW155925   4.372   4.191   0.986  0.4740  0.1096 -0.6691
18062SOL    HW255926   4.380   4.086   0.877 -0.4079  0.4984 -1.1265
18063SOL     OW55927   1.702   6.270   6.361  0.1135 -0.3310 -0.3138
18063SOL    HW155928   1.644   6.244   6.290  1.1123 -1.7035 -0.6609
18063SOL    HW255929   1.692   6.365   6.366  0.2963 -0.1455 -2.5578
18064SOL     OW55930   1.394   3.121   8.591  0.1826  0.3728 -0.1070
18064SOL    HW155931   1.478   3.084   8.562 -0.3788 -0.3206 -0.9068
18064SOL    HW255932   1.406   3.138   8.685  0.2433 -2.6230  0.5293
18065SOL     OW55933   5.173   7.744   0.251 -0.2706 -0.1974  0.1772
18065SOL    HW155934   5.196   7.652   0.235 -0.1313  0.1482 -1.9669
18065SOL    HW255935   5.137   7.774   0.167 -0.4559  1.6781  0.8804
18066SOL     OW55936   9.594   5.846   6.598  0.0605  0.5639  0.1574
18066SOL    HW155937   9.530   5.788   6.640 -0.2346  0.6230 -0.2044
18066SOL    HW255938   9.588   5.825   6.505  0.6332  0.5079  0.1250
18067SOL     OW55939   7.556   2.977   6.231 -0.9691 -0.4315  0.5100
18067SOL    HW155940   7.558   2.939   6.143 -2.4696  0.5553  0.0288
18067SOL    HW255941   7.621   2.925   6.280 -2.0338 -2.8136 -0.4362
18068SOL     OW55942   5.025   6.510   2.287  0.0172  0.5306 -0.4262
18068SOL    HW155943   4.978   6.431   2.313  0.6985  0.6116  1.1749
18068SOL    HW255944   4.969   6.551   2.221 -0.9770 -0.5992 -0.3195
18069SOL     OW55945   0.227   4.693   6.645 -0.2070  0.4462  0.2364
18069SOL    HW155946   0.272   4.650   6.573 -1.8221 -0.5581 -0.2469
18069SOL    HW255947   0.262   4.782   6.647  2.1562 -0.4200  0.2958
18070SOL     OW55948   6.119   9.412   5.958 -0.2977 -0.1720  0.2092
18070SOL    HW155949   6.176   9.435   6.032 -2.5209  1.9831  1.4003
18070SOL    HW255950   6.170   9.435   5.880  1.6475 -1.3680  1.0616
18071SOL     OW55951   2.069   1.929   6.121 -0.5999  0.3378 -0.1952
18071SOL    HW155952   2.124   1.979   6.182 -0.1054 -0.9972  0.5000
18071SOL    HW255953   1.985   1.920   6.166  0.1971 -1.8964  1.0610
18072SOL     OW55954   4.118   2.664   3.310 -0.4667 -0.6015  0.2967
18072SOL    HW155955   4.105   2.595   3.375 -0.4252 -1.8220 -0.9455
18072SOL    HW255956   4.031   2.701   3.296 -0.9782 -2.1858 -0.9183
18073SOL     OW55957   4.523   7.149   9.186 -0.3434 -0.1103  0.3300
18073SOL    HW155958   4.435   7.112   9.186 -0.3810 -0.0235  0.2257
18073SOL    HW255959   4.526   7.204   9.108  0.5167 -1.7715 -0.8730
18074SOL     OW55960   5.263   2.037   4.664  0.5054  0.5253 -0.0569
18074SOL    HW155961   5.301   2.073   4.745 -0.0587  0.8428  0.0752
18074SOL    HW255962   5.191   1.982   4.694  0.9655 -0.2183 -0.2964
18075SOL     OW55963   5.032   9.038   0.962  0.3990 -0.0123  0.1376
18075SOL    HW155964   4.961   9.033   1.026  1.2836  0.1494  1.1648
18075SOL    HW255965   4.990   9.069   0.882 -0.7478 -0.2806  0.6126
18076SOL     OW55966   2.816   3.558   2.550  0.6488  0.9224 -0.1305
18076SOL    HW155967   2.739   3.611   2.568 -0.4361 -0.7569  0.3548
18076SOL    HW255968   2.793   3.507   2.472 -0.7131 -2.9862  2.4818
18077SOL     OW55969   1.750   4.124   6.614  0.3346 -0.2009  0.0766
18077SOL    HW155970   1.838   4.150   6.586 -0.1645  0.5816 -0.8356
18077SOL    HW255971   1.724   4.192   6.677  0.4503 -0.5382  0.4945
18078SOL     OW55972   3.488   9.466   0.274 -0.2424 -0.2434  0.2369
18078SOL    HW155973   3.532   9.543   0.310  1.6117 -1.0917 -0.0759
18078SOL    HW255974   3.513   9.395   0.333  0.5663 -1.1241 -1.1093
18079SOL     OW55975   3.124   2.383   9.263  0.4068 -0.5406 -0.2456
18079SOL    HW155976   3.061   2.444   9.226  1.6970  0.2969 -1.1638
18079SOL    HW255977   3.147   2.325   9.190  1.3951 -0.2258 -0.1979
18080SOL     OW55978   5.515   7.133   7.936  0.0469  0.4121 -0.6923
18080SOL    HW155979   5.536   7.226   7.933 -0.6219  0.5764 -0.4098
18080SOL    HW255980   5.508   7.112   8.029 -1.0121  0.3679 -0.7674
18081SOL     OW55981   6.044   1.353   9.441  0.0438 -0.6132  0.1126
18081SOL    HW155982   6.030   1.360   9.347 -0.9353  1.5191  0.3572
18081SOL    HW255983   5.967   1.307   9.474  0.0051 -0.6564 -0.0398
18082SOL     OW55984   7.333   6.991   5.034 -0.5997 -0.4939 -0.1118
18082SOL    HW155985   7.395   6.918   5.032 -1.0181 -0.8664  0.1810
18082SOL    HW255986   7.373   7.055   5.092 -1.3332 -1.5330  1.6139
18083SOL     OW55987   6.842   8.983   7.529 -0.1275 -0.2469  0.1064
18083SOL    HW155988   6.785   9.008   7.456  0.7864  0.2951 -0.4418
18083SOL    HW255989   6.856   9.065   7.577 -1.0914 -0.6823  1.1852
18084SOL     OW55990   3.017   3.659   4.275  0.4043 -0.5641  0.5448
18084SOL    HW155991   2.938   3.611   4.248 -0.5220  2.6333 -3.3276
18084SOL    HW255992   2.983   3.729   4.330  0.7445 -0.0634  0.1143
18085SOL     OW55993   7.806   7.079   5.999  0.0766 -0.9311 -0.2720
18085SOL    HW155994   7.835   7.032   5.921 -0.7661  0.3019 -1.3701
18085SOL    HW255995   7.769   7.011   6.056 -1.4827 -1.5800 -1.9791
18086SOL     OW55996   5.126   3.719   8.525 -0.1047 -0.4317 -0.2007
18086SOL    HW155997   5.138   3.677   8.439 -0.7928 -1.2027  0.0610
18086SOL    HW255998   5.178   3.799   8.520  2.6837 -2.1229 -0.1252
18087SOL     OW55999   3.747   1.077   8.981 -0.1035 -0.2488  0.5155
18087SOL    HW156000   3.835   1.065   8.946 -0.8552 -0.6234 -1.3276
18087SOL    HW256001   3.713   0.988   8.992 -0.7545 -0.0900 -0.1487
18088SOL     OW56002   0.196   3.698   8.188  0.2999  0.2459  0.1712
18088SOL    HW156003   0.170   3.616   8.146 -0.7883 -0.2392  1.7122
18088SOL    HW256004   0.280   3.679   8.230 -0.0753 -0.1841  0.7448
18089SOL     OW56005   1.481   9.011   8.283  0.5785  0.6180 -0.0806
18089SOL    HW156006   1.492   9.020   8.188  0.7649 -1.5851 -0.3322
18089SOL    HW256007   1.492   8.917   8.299 -0.4726  0.7975  2.0016
18090SOL     OW56008   0.675   8.920   8.305 -0.1914 -0.2374 -0.1185
18090SOL    HW156009   0.635   8.856   8.246  1.3018 -1.6376  0.3051
18090SOL    HW256010   0.645   8.894   8.392 -1.3036  0.9975 -0.1041
18091SOL     OW56011   5.397   5.977   1.437 -0.4807  0.9647  0.2819
18091SOL    HW156012   5.319   5.921   1.432 -1.6303  2.4376  0.9544
18091SOL    HW256013   5.383   6.030   1.514  1.4797  0.9206  0.6998
18092SOL     OW56014   7.642   6.595   1.272 -0.0963  0.2227 -0.0285
18092SOL    HW156015   7.613   6.685   1.257 -0.1246  0.7394  2.7742
18092SOL    HW256016   7.715   6.603   1.333 -0.7614 -1.6884  1.0982
18093SOL     OW56017   2.512   1.119   5.907  0.1038  0.2500  0.0686
18093SOL    HW156018   2.530   1.102   5.814 -1.9846 -0.2593 -0.2948
18093SOL    HW256019   2.445   1.187   5.906  2.0166  2.2723  1.3374
18094SOL     OW56020   4.945   3.784   3.620  0.0181  0.3154 -0.2414
18094SOL    HW156021   4.984   3.861   3.660  0.8447 -0.9335  1.5000
18094SOL    HW256022   5.006   3.759   3.551  0.1712  0.7319 -0.2610
18095SOL     OW56023   3.223   3.132   9.606  0.4323 -0.1095 -0.0254
18095SOL    HW156024   3.224   3.135   9.701  1.2554 -1.6101  0.0365
18095SOL    HW256025   3.180   3.050   9.584 -0.2687  0.4828 -0.9779
18096SOL     OW56026   3.274   3.414   2.984 -0.2361  0.2628 -0.1556
18096SOL    HW156027   3.267   3.403   2.889 -0.0242  1.0575 -0.2655
18096SOL    HW256028   3.204   3.359   3.019 -0.9028  0.6765 -0.8131
18097SOL     OW56029   7.989   1.401   6.019 -0.6443 -0.2204  0.4107
18097SOL    HW156030   8.067   1.435   6.065 -0.6335 -0.7760  0.8088
18097SOL    HW256031   8.014   1.402   5.927 -0.3456  0.0759  0.4916
18098SOL     OW56032   9.243   4.285   6.776 -0.2230  0.1486  0.3734
18098SOL    HW156033   9.338   4.275   6.772 -0.1707  0.6495  0.3460
18098SOL    HW256034   9.213   4.271   6.687 -0.2363 -0.5704  0.4804
18099SOL     OW56035   3.242   5.552   5.370  0.8359  0.0123 -0.0643
18099SOL    HW156036   3.256   5.630   5.317 -1.7908 -0.2250 -1.2595
18099SOL    HW256037   3.172   5.576   5.431 -1.3354 -1.8313 -1.6620
18100SOL     OW56038   5.713   0.703   8.378  0.1982 -0.7354 -0.1619
18100SOL    HW156039   5.680   0.685   8.467  1.0026  0.3168  0.3705
18100SOL    HW256040   5.683   0.791   8.359 -1.6901 -1.6536 -1.7929
18101SOL     OW56041   5.349   0.946   7.815 -0.3844 -0.2733 -0.3257
18101SOL    HW156042   5.365   0.964   7.908  0.1615  1.1829 -0.6801
18101SOL    HW256043   5.332   0.852   7.812 -1.4655 -0.1849  1.3944
18102SOL     OW56044   5.145   3.549   9.573  0.1474 -0.0955  0.1210
18102SOL    HW156045   5.053   3.572   9.560 -0.0736 -0.8194  0.3660
18102SOL    HW256046   5.151   3.458   9.543  0.4286 -0.5941  1.6355
18103SOL     OW56047   8.104   8.030   7.587  0.1691 -0.3069 -0.8694
18103SOL    HW156048   8.022   8.015   7.539  0.2829 -0.5241 -0.9951
18103SOL    HW256049   8.152   8.092   7.532  0.1089 -0.2134 -0.8173
18104SOL     OW56050   2.808   8.363   2.904  0.0917 -0.5514  0.6021
18104SOL    HW156051   2.736   8.376   2.966 -0.5673  2.0558 -0.5791
18104SOL    HW256052   2.882   8.409   2.943  0.5226 -1.3764  0.7832
18105SOL     OW56053   6.423   5.541   8.276  0.0230  0.1257 -0.7246
18105SOL    HW156054   6.453   5.629   8.252  1.1553 -0.3836 -1.2467
18105SOL    HW256055   6.492   5.506   8.332  0.4262 -1.0684 -1.9221
18106SOL     OW56056   4.565   0.484   6.280 -0.3802 -0.2106 -0.3154
18106SOL    HW156057   4.611   0.492   6.363 -2.3766 -1.2513  0.9599
18106SOL    HW256058   4.473   0.491   6.303 -1.0023 -0.7998 -2.4241
18107SOL     OW56059   2.345   8.770   1.352 -0.2839 -0.4490  0.0227
18107SOL    HW156060   2.331   8.860   1.323  0.3645 -0.3236  0.0843
18107SOL    HW256061   2.425   8.774   1.404 -1.4294 -0.6436  1.9064
18108SOL     OW56062   5.874   4.110   4.805  1.1710 -0.0747 -0.1020
18108SOL    HW156063   5.844   4.180   4.864 -0.9272 -0.1342 -1.0086
18108SOL    HW256064   5.853   4.029   4.852 -0.8223 -0.1277 -1.0142
18109SOL     OW56065   4.348   0.501   0.740  0.0134 -0.0897  0.6399
18109SOL    HW156066   4.340   0.420   0.690  0.6018  0.4026 -0.2821
18109SOL    HW256067   4.439   0.501   0.770  0.0951  0.3666  0.3936
18110SOL     OW56068   5.039   4.524   2.297 -0.0022  0.0072  0.7657
18110SOL    HW156069   4.973   4.469   2.340  0.4009 -1.6267 -0.5821
18110SOL    HW256070   4.990   4.599   2.264 -0.4616  0.9018  3.2227
18111SOL     OW56071   5.160   4.552   3.171 -0.0669  0.0615 -0.5294
18111SOL    HW156072   5.149   4.645   3.189 -0.1836 -0.2571  1.3343
18111SOL    HW256073   5.116   4.509   3.244  0.9998 -1.4289 -0.7208
18112SOL     OW56074   4.461   6.274   2.420 -0.1532  0.5925 -0.4343
18112SOL    HW156075   4.423   6.211   2.481  1.7533  0.0032  0.1939
18112SOL    HW256076   4.423   6.250   2.335 -0.7274 -0.3210  0.0626
18113SOL     OW56077   6.237   5.117   8.017 -0.0026 -0.8138  0.0368
18113SOL    HW156078   6.267   5.173   8.089  1.1291 -1.0140 -0.2654
18113SOL    HW256079   6.176   5.056   8.059 -1.9976  1.1852  0.2233
18114SOL     OW56080   7.829   4.856   8.448  0.0908  0.1024 -0.2432
18114SOL    HW156081   7.794   4.781   8.498  0.4361  1.0669  1.5266
18114SOL    HW256082   7.837   4.926   8.513 -1.0341  1.9735 -2.0260
18115SOL     OW56083   4.860   8.908   2.849 -0.1158 -0.6148 -0.5611
18115SOL    HW156084   4.904   8.831   2.887  0.6417  0.3059  0.5193
18115SOL    HW256085   4.890   8.981   2.904 -2.1522  0.2167 -0.4974
18116SOL     OW56086   6.543   9.396   0.298  0.2715 -0.1589 -0.6160
18116SOL    HW156087   6.574   9.484   0.274 -0.1329  1.0447  2.6384
18116SOL    HW256088   6.449   9.407   0.312  0.2241 -1.0812 -0.1197
18117SOL     OW56089   3.451   8.331   5.144  0.1418 -0.5007 -0.2883
18117SOL    HW156090   3.466   8.236   5.141 -0.2457 -0.5356 -1.7821
18117SOL    HW256091   3.519   8.368   5.088  0.8832  0.2070  1.0393
18118SOL     OW56092   0.932   8.719   9.527 -0.1655  0.3593  0.7117
18118SOL    HW156093   0.852   8.676   9.498  0.0234  0.6242 -0.2435
18118SOL    HW256094   0.902   8.794   9.579 -0.5615  0.7499 -0.0596
18119SOL     OW56095   0.633   6.094   2.795  0.2300  0.0873 -0.2932
18119SOL    HW156096   0.590   6.025   2.846 -0.3259 -1.7530 -3.0261
18119SOL    HW256097   0.564   6.158   2.777 -0.1924 -0.4923 -0.7589
18120SOL     OW56098   1.466   3.808   6.099 -0.0547 -0.0614 -0.3541
18120SOL    HW156099   1.386   3.837   6.055  0.4175  0.2373 -1.0271
18120SOL    HW256100   1.468   3.857   6.181 -0.0467  0.6694 -0.7891
18121SOL     OW56101   3.642   3.876   6.189  0.1917  0.1926 -0.4246
18121SOL    HW156102   3.639   3.840   6.278 -2.4214  1.3458  0.0437
18121SOL    HW256103   3.706   3.820   6.144  0.0804 -1.7544  1.5920
18122SOL     OW56104   3.288   4.241   7.305 -0.1582 -0.1363  0.4501
18122SOL    HW156105   3.315   4.326   7.340  1.3661 -0.1097 -0.6870
18122SOL    HW256106   3.257   4.192   7.381  1.4821  0.4898  1.5688
18123SOL     OW56107   0.088   8.332   5.416  0.1567 -0.3317 -0.4893
18123SOL    HW156108   0.131   8.262   5.366 -0.4816 -0.8656 -0.2965
18123SOL    HW256109   0.120   8.413   5.375  1.3763 -0.7103 -0.3237
18124SOL     OW56110   4.375   6.107   2.631 -0.3532 -1.0539  0.2351
18124SOL    HW156111   4.291   6.066   2.611  0.0127 -1.3297 -0.8174
18124SOL    HW256112   4.354   6.181   2.688 -1.2152 -1.5978  0.6355
18125SOL     OW56113   4.550   0.818   9.421 -0.1190 -0.2163 -0.2004
18125SOL    HW156114   4.484   0.851   9.482 -0.2528 -0.3088 -0.2932
18125SOL    HW256115   4.624   0.878   9.430  0.1356 -0.6285  0.5636
18126SOL     OW56116   4.311   6.138   6.947  0.1287  0.3199 -0.0044
18126SOL    HW156117   4.348   6.138   6.859 -0.3946  3.9661 -0.3928
18126SOL    HW256118   4.217   6.124   6.934  0.2582 -0.7128  0.1462
18127SOL     OW56119   8.026   4.903   2.360 -0.0936  0.3531  0.0664
18127SOL    HW156120   7.967   4.944   2.297 -2.1999  0.0684  1.7291
18127SOL    HW256121   8.043   4.970   2.426 -0.9875 -0.4225  1.1338
18128SOL     OW56122   2.436   8.058   1.965  0.3297  0.0142  0.4513
18128SOL    HW156123   2.494   8.047   2.039  0.5674 -1.1831  0.1148
18128SOL    HW256124   2.374   7.985   1.972 -0.8284  0.9823  0.5311
18129SOL     OW56125   8.415   8.010   5.743  0.6010  0.4094  0.3715
18129SOL    HW156126   8.485   7.969   5.693 -0.2679 -0.1339 -0.4306
18129SOL    HW256127   8.459   8.078   5.794  1.6276  0.5040 -0.5861
18130SOL     OW56128   8.272   0.746   4.464  0.2828  0.2961  0.0810
18130SOL    HW156129   8.239   0.694   4.391 -0.1503  1.5090 -0.6114
18130SOL    HW256130   8.195   0.789   4.501  0.8733  2.4780 -1.0199
18131SOL     OW56131   5.069   3.393   9.146 -0.0780  0.2991 -0.1909
18131SOL    HW156132   5.064   3.482   9.112  1.4072  0.9411  1.1645
18131SOL    HW256133   5.146   3.393   9.203 -0.4824 -1.6563  0.4335
18132SOL     OW56134   4.781   1.071   9.131 -0.4234 -0.0468 -0.4718
18132SOL    HW156135   4.730   1.086   9.210 -0.9545  0.1119 -0.8384
18132SOL    HW256136   4.838   1.147   9.124  0.5720 -0.6735  0.4596
18133SOL     OW56137   2.491   3.774   0.612 -0.0747 -0.0418 -0.0011
18133SOL    HW156138   2.431   3.836   0.570 -0.5253 -0.3960  0.1077
18133SOL    HW256139   2.435   3.699   0.635  0.4840 -0.5405 -0.2431
18134SOL     OW56140   2.938   7.214   8.200  1.1155  0.1156 -0.1585
18134SOL    HW156141   2.854   7.169   8.198  0.8808  0.4275  1.2064
18134SOL    HW256142   2.992   7.161   8.259  0.7738  1.6398  1.6178
18135SOL     OW56143   3.755   2.815   4.914  0.5331 -0.0590 -0.1375
18135SOL    HW156144   3.695   2.756   4.960  0.3542  1.9985  2.4967
18135SOL    HW256145   3.701   2.889   4.888  1.6504  1.4031  1.4621
18136SOL     OW56146   1.285   6.583   9.137  0.3590 -0.3716 -0.3779
18136SOL    HW156147   1.296   6.504   9.191 -2.2096 -0.9098 -0.4932
18136SOL    HW256148   1.363   6.585   9.081  1.7382 -1.3630  1.3841
18137SOL     OW56149   4.470   8.627   1.589 -0.1364  0.9994  0.0617
18137SOL    HW156150   4.447   8.705   1.639  0.2001  1.5116 -0.5705
18137SOL    HW256151   4.404   8.621   1.521  1.5158  2.5068 -1.7893
18138SOL     OW56152   1.296   8.493   4.151 -0.6434 -0.1206  0.0380
18138SOL    HW156153   1.205   8.486   4.178 -0.8946 -0.6055 -0.8969
18138SOL    HW256154   1.341   8.422   4.197 -1.3394 -1.8919 -1.8635
18139SOL     OW56155   5.003   5.565   4.009  0.3398  0.2582 -0.1226
18139SOL    HW156156   4.947   5.521   3.945  1.3702 -0.9168 -0.2560
18139SOL    HW256157   5.014   5.653   3.974  0.4835 -0.2115 -1.3269
18140SOL     OW56158   3.448   5.973   6.275  0.0966  0.3865  0.2538
18140SOL    HW156159   3.508   5.986   6.202  1.9243 -0.5624  1.4922
18140SOL    HW256160   3.384   5.910   6.244  0.8438  0.0052 -0.5389
18141SOL     OW56161   5.511   7.381   5.927 -0.8816 -0.4849 -0.2112
18141SOL    HW156162   5.559   7.418   5.852 -2.6547 -0.1998 -1.2499
18141SOL    HW256163   5.580   7.351   5.986  0.5865 -0.2590 -1.7165
18142SOL     OW56164   3.775   4.168   8.692  0.5599  0.2511  0.1048
18142SOL    HW156165   3.814   4.178   8.779 -1.1999 -0.3382  1.0191
18142SOL    HW256166   3.716   4.093   8.701 -0.3666  0.7623 -1.3141
18143SOL     OW56167   6.079   8.798   4.364  0.2698  0.9800  0.4634
18143SOL    HW156168   6.088   8.749   4.282  1.7416 -1.0427  1.7274
18143SOL    HW256169   6.014   8.749   4.414  0.0383  1.6911  0.8713
18144SOL     OW56170   4.006   3.229   3.921  0.4974  0.0307 -0.1186
18144SOL    HW156171   3.982   3.138   3.942  0.5278  0.1435  0.4166
18144SOL    HW256172   3.990   3.277   4.002  2.6658  0.0765  0.3414
18145SOL     OW56173   2.530   6.311   5.149  0.2525  0.1137  0.2972
18145SOL    HW156174   2.615   6.278   5.177 -1.0629 -0.2785  4.4840
18145SOL    HW256175   2.482   6.233   5.122  0.7056  0.1762 -0.7637
18146SOL     OW56176   2.204   0.287   4.474 -0.0236 -0.6762 -0.4727
18146SOL    HW156177   2.176   0.263   4.385 -1.7105  0.1298 -0.1917
18146SOL    HW256178   2.247   0.372   4.462 -2.1225  0.4740 -0.2944
18147SOL     OW56179   3.740   6.797   7.619 -0.1996 -0.3426  0.6823
18147SOL    HW156180   3.782   6.804   7.533 -0.2654 -1.7558  0.5031
18147SOL    HW256181   3.681   6.872   7.623  2.9069  2.2970  1.3410
18148SOL     OW56182   9.508   7.850   0.249  0.3474  0.6721 -0.2933
18148SOL    HW156183   9.497   7.786   0.319  1.0493  0.4308 -0.3966
18148SOL    HW256184   9.446   7.920   0.271  0.9214  0.8520  0.8580
18149SOL     OW56185   8.090   2.188   4.770 -0.1656 -0.1516 -0.2178
18149SOL    HW156186   8.115   2.279   4.788 -0.6467 -0.3343  1.6847
18149SOL    HW256187   8.053   2.190   4.682 -1.1920  1.7504  0.1827
18150SOL     OW56188   6.916   4.955   7.568  0.4925  0.6396 -0.6257
18150SOL    HW156189   6.903   5.015   7.641 -1.1328  1.1279 -1.2667
18150SOL    HW256190   6.921   4.868   7.608 -0.7634  0.8628  0.0439
18151SOL     OW56191   7.115   2.151   3.163 -0.2320  0.4103  0.5107
18151SOL    HW156192   7.090   2.142   3.255  0.1273  1.3025  0.7058
18151SOL    HW256193   7.120   2.245   3.149 -1.3340  0.3153 -0.7169
18152SOL     OW56194   3.810   1.128   2.009 -0.1941  0.5910  0.2308
18152SOL    HW156195   3.773   1.211   2.040 -0.3763  0.6710 -0.1976
18152SOL    HW256196   3.862   1.152   1.932  0.2660  0.3927  0.4768
18153SOL     OW56197   3.489   1.777   8.770 -0.2728  0.1982  0.0731
18153SOL    HW156198   3.407   1.823   8.791 -0.5787 -0.5946  0.6693
18153SOL    HW256199   3.536   1.837   8.713 -0.5609  1.3538  1.0126
18154SOL     OW56200   0.990   8.527   3.369 -0.1351 -0.5346 -0.4972
18154SOL    HW156201   0.952   8.497   3.286  0.5118 -0.0608 -0.9694
18154SOL    HW256202   0.948   8.612   3.384  2.1455  0.9761 -2.0626
18155SOL     OW56203   4.733   2.655   5.483  0.2715  0.1583 -0.3928
18155SOL    HW156204   4.728   2.714   5.558  1.5315  1.7325 -1.4972
18155SOL    HW256205   4.786   2.702   5.419 -1.9881 -0.4890 -2.8861
18156SOL     OW56206   7.846   2.541   8.939  0.2224 -0.4063 -0.1402
18156SOL    HW156207   7.877   2.494   8.861  2.0565  0.6336 -0.1094
18156SOL    HW256208   7.772   2.593   8.909 -0.1315 -1.2671 -0.7901
18157SOL     OW56209   2.428   8.797   7.851  0.0815  0.5172  0.6653
18157SOL    HW156210   2.335   8.777   7.840  0.3670  0.2664 -1.8848
18157SOL    HW256211   2.430   8.879   7.899 -1.4485  0.3342  1.0843
18158SOL     OW56212   1.496   2.599   0.028 -0.6406  0.1332  0.6602
18158SOL    HW156213   1.425   2.664   0.024  1.6890  2.8913  0.8947
18158SOL    HW256214   1.479   2.550   0.108 -3.7048 -1.2181 -0.6542
18159SOL     OW56215   6.852   4.478   3.586  0.2230  0.0168  1.1930
18159SOL    HW156216   6.869   4.431   3.504 -0.6139  1.9259 -0.1591
18159SOL    HW256217   6.932   4.529   3.601 -0.2741  1.0005  0.5784
18160SOL     OW56218   0.097   8.378   4.583  0.2402  0.3399 -0.0196
18160SOL    HW156219   0.112   8.457   4.531  2.2886  0.0450  0.0103
18160SOL    HW256220   0.079   8.411   4.671  0.5099  0.7839 -0.1278
18161SOL     OW56221   5.187   9.244   2.208  0.2992  0.2091 -0.8676
18161SOL    HW156222   5.218   9.154   2.196  1.4502  0.4106  0.3300
18161SOL    HW256223   5.261   9.299   2.182 -0.1747  0.7903 -0.9986
18162SOL     OW56224   6.911   6.988   9.173 -0.0360 -0.4751 -0.0186
18162SOL    HW156225   6.894   6.974   9.266  1.8499 -0.6764  0.3348
18162SOL    HW256226   6.913   6.899   9.136  1.5255 -0.5745  0.2285
18163SOL     OW56227   8.981   2.004   5.184 -0.2340 -0.6088 -0.1684
18163SOL    HW156228   8.903   2.059   5.193 -0.5007 -1.0579  0.3389
18163SOL    HW256229   8.951   1.916   5.209  0.7774 -0.5268  1.5032
18164SOL     OW56230   4.126   4.672   5.037  0.0747  0.1636 -0.6791
18164SOL    HW156231   4.221   4.664   5.032 -0.0633 -1.0162 -1.8239
18164SOL    HW256232   4.106   4.660   5.130  1.0151  0.2178 -0.4573
18165SOL     OW56233   0.734   5.454   9.471  0.2338 -0.4793 -0.3456
18165SOL    HW156234   0.817   5.427   9.432  0.1970  1.9519 -2.3868
18165SOL    HW256235   0.668   5.400   9.429  0.5659 -0.6155 -0.6981
18166SOL     OW56236   3.294   1.655   1.653  0.4552 -0.3454  0.3692
18166SOL    HW156237   3.254   1.735   1.687  1.1173 -0.8735  2.5580
18166SOL    HW256238   3.233   1.625   1.586 -0.6023  1.1464  0.6072
18167SOL     OW56239   2.805   1.236   6.132  0.3695 -0.1778 -0.3628
18167SOL    HW156240   2.789   1.330   6.122 -0.7645 -0.1963  0.9766
18167SOL    HW256241   2.721   1.200   6.159  1.3645 -1.1670  1.6764
18168SOL     OW56242   8.938   6.554   2.848  0.1735 -0.4554  0.5267
18168SOL    HW156243   8.951   6.466   2.884  0.6667 -0.3615  0.5847
18168SOL    HW256244   8.916   6.539   2.756 -0.2642 -0.6605  0.6628
18169SOL     OW56245   4.033   8.760   2.221  0.1751 -0.3798  0.3320
18169SOL    HW156246   4.069   8.732   2.305  0.5851 -1.6227 -0.2349
18169SOL    HW256247   3.941   8.780   2.240  0.5449  0.5064  1.3004
18170SOL     OW56248   7.358   1.271   2.194 -0.6705  0.1351 -0.6075
18170SOL    HW156249   7.427   1.330   2.164  0.5301 -1.3063 -0.7654
18170SOL    HW256250   7.376   1.188   2.150 -0.7406 -1.1274  1.6230
18171SOL     OW56251   6.714   4.941   8.168  0.1895  0.2618  0.8150
18171SOL    HW156252   6.620   4.926   8.169  0.3524 -0.8797  1.2138
18171SOL    HW256253   6.748   4.883   8.237  1.1673  0.7382  0.7507
18172SOL     OW56254   0.626   2.164   8.451  0.5534  0.2709 -0.0740
18172SOL    HW156255   0.686   2.136   8.520  0.4007  0.7756  0.2619
18172SOL    HW256256   0.541   2.128   8.477 -0.0117  2.4451  1.2570
18173SOL     OW56257   2.810   7.502   7.973  0.8320  0.4310  0.4075
18173SOL    HW156258   2.860   7.583   7.986 -1.5888  2.4687 -1.7693
18173SOL    HW256259   2.740   7.527   7.912 -0.6504 -3.1042  0.4330
18174SOL     OW56260   3.132   2.073   0.729  0.3265 -0.0121 -0.0182
18174SOL    HW156261   3.167   2.063   0.640  0.4050  0.8798 -0.0927
18174SOL    HW256262   3.037   2.069   0.718  0.2893  1.2050 -0.3049
18175SOL     OW56263   2.839   1.179   5.449 -0.7274  0.1050  0.1175
18175SOL    HW156264   2.853   1.266   5.410 -0.6963 -0.6584 -1.6992
18175SOL    HW256265   2.881   1.184   5.534 -0.5834  1.8231 -0.0049
18176SOL     OW56266   7.263   4.454   6.078  0.1323  0.0557  0.0552
18176SOL    HW156267   7.231   4.365   6.090 -0.6217  0.2688 -0.3059
18176SOL    HW256268   7.294   4.457   5.987  0.8470 -0.0441  0.2916
18177SOL     OW56269   0.952   7.647   0.227  0.1240 -0.2222  0.2545
18177SOL    HW156270   0.922   7.735   0.248 -0.2745 -0.2068 -0.3422
18177SOL    HW256271   0.876   7.605   0.186  0.1259 -1.0346  1.0525
18178SOL     OW56272   0.216   4.675   7.512 -0.3011 -0.0361  0.6969
18178SOL    HW156273   0.291   4.681   7.453  1.2954 -1.0011  2.5198
18178SOL    HW256274   0.209   4.582   7.532 -2.2502 -0.0112  0.3024
18179SOL     OW56275   0.472   1.452   5.611  0.1445 -0.2191 -0.3800
18179SOL    HW156276   0.538   1.499   5.663  0.7397 -1.5866  0.1256
18179SOL    HW256277   0.522   1.413   5.539 -0.1777 -0.9259 -0.2239
18180SOL     OW56278   6.642   6.842   4.851  0.2591 -0.1316 -0.6656
18180SOL    HW156279   6.735   6.858   4.868  0.1066 -1.2215  1.5838
18180SOL    HW256280   6.637   6.749   4.828 -0.5278 -0.9523  2.3795
18181SOL     OW56281   5.201   8.913   5.604  0.3039  0.1076  0.1179
18181SOL    HW156282   5.109   8.941   5.614  0.7166  1.1097  1.3912
18181SOL    HW256283   5.241   8.931   5.689  1.3694 -1.6227  0.0349
18182SOL     OW56284   6.381   8.562   1.725 -0.4887  0.2581 -0.5812
18182SOL    HW156285   6.375   8.643   1.777  0.7351 -0.3625  0.5856
18182SOL    HW256286   6.426   8.588   1.645  1.9901  0.3901  0.7393
18183SOL     OW56287   2.328   7.583   6.876 -0.7377  0.1958 -0.1065
18183SOL    HW156288   2.237   7.555   6.866 -1.9351  2.5955  2.5756
18183SOL    HW256289   2.366   7.521   6.939 -0.9380 -0.0108 -0.1891
18184SOL     OW56290   6.938   1.340   7.045 -0.2268 -0.0039  0.1092
18184SOL    HW156291   6.916   1.266   7.101  1.0645 -0.9895 -0.6250
18184SOL    HW256292   6.964   1.300   6.962  0.8977  1.2451 -0.1650
18185SOL     OW56293   6.924   9.473   5.418  0.2031 -0.2009  0.2612
18185SOL    HW156294   6.882   9.440   5.338  0.0361 -1.7649  0.9566
18185SOL    HW256295   6.852   9.486   5.479  0.6194 -2.8670  1.4517
18186SOL     OW56296   8.141   1.010   6.766  0.4870 -0.0467  0.0058
18186SOL    HW156297   8.218   1.065   6.779 -0.0718  0.7616  0.0388
18186SOL    HW256298   8.175   0.927   6.733  1.3359  0.4197 -0.3165
18187SOL     OW56299   6.020   7.383   6.615 -0.3282 -0.0779  0.0729
18187SOL    HW156300   5.927   7.405   6.623 -0.5322 -0.5950 -0.8023
18187SOL    HW256301   6.022   7.308   6.556  0.6175 -0.3491  0.4353
18188SOL     OW56302   6.714   5.679   0.404  0.3610 -0.7269  0.0362
18188SOL    HW156303   6.758   5.687   0.488  0.0244 -0.4917  0.1877
18188SOL    HW256304   6.766   5.732   0.344  0.0158 -0.0649  0.3195
18189SOL     OW56305   0.177   4.381   5.330 -0.0439  0.0012 -0.0965
18189SOL    HW156306   0.201   4.291   5.350  0.3153  0.4099  1.4375
18189SOL    HW256307   0.261   4.426   5.320 -0.1853 -0.1917 -2.8195
18190SOL     OW56308   1.171   1.576   5.427  0.2365  0.4370  0.4772
18190SOL    HW156309   1.231   1.651   5.427  1.7304 -0.7098  1.1297
18190SOL    HW256310   1.089   1.611   5.390  1.7134  1.6954 -1.8492
18191SOL     OW56311   0.275   9.545   3.958 -0.3361 -0.8710  0.1482
18191SOL    HW156312   0.365   9.563   3.986  0.1604 -0.3355 -1.6298
18191SOL    HW256313   0.221   9.574   4.031  0.9408 -1.9966  1.6145
18192SOL     OW56314   6.297   0.285   3.386 -0.5259 -0.0522 -0.4106
18192SOL    HW156315   6.328   0.217   3.447  0.4560  0.4161 -0.3786
18192SOL    HW256316   6.273   0.237   3.307  3.2013 -0.2309 -1.6285
18193SOL     OW56317   7.781   5.692   3.478  0.5776 -0.1314 -0.2526
18193SOL    HW156318   7.751   5.633   3.546  2.0045 -0.0579  0.4684
18193SOL    HW256319   7.838   5.638   3.422 -0.4196 -0.1436 -1.2854
18194SOL     OW56320   1.540   3.219   6.120 -0.1557  0.6900  0.2898
18194SOL    HW156321   1.535   3.314   6.132  0.6743  0.7524  0.2508
18194SOL    HW256322   1.504   3.182   6.200  1.8512  1.0683  1.4553
18195SOL     OW56323   6.104   4.737   2.133  0.4636  0.5642  0.1998
18195SOL    HW156324   6.116   4.764   2.224  0.0446 -0.0671  0.4504
18195SOL    HW256325   6.121   4.643   2.134 -0.9469  0.2792 -0.0876
18196SOL     OW56326   8.105   2.479   4.896 -0.2887 -0.4127 -0.6170
18196SOL    HW156327   8.110   2.572   4.876 -2.2856 -0.1589 -0.1311
18196SOL    HW256328   8.137   2.472   4.985 -2.5920  0.2620  0.3342
18197SOL     OW56329   8.631   3.894   7.295 -0.3259  0.4596  0.4260
18197SOL    HW156330   8.705   3.881   7.355 -0.6588  3.2645  1.5886
18197SOL    HW256331   8.672   3.914   7.211  0.1473 -2.2099 -0.0701
18198SOL     OW56332   1.910   7.317   6.583  0.3170  0.7518  0.1010
18198SOL    HW156333   1.999   7.326   6.548  0.7867  1.0469  1.3060
18198SOL    HW256334   1.918   7.249   6.649 -0.2824  1.0053  0.4386
18199SOL     OW56335   8.358   7.145   8.052  0.4392  0.1425 -0.8391
18199SOL    HW156336   8.342   7.052   8.066  1.9466 -0.0474 -0.2441
18199SOL    HW256337   8.389   7.151   7.962  1.8756 -0.1684 -0.3924
18200SOL     OW56338   3.315   0.334   9.105  0.4098  0.7808  0.2436
18200SOL    HW156339   3.267   0.410   9.137  0.1589  0.6359  0.2081
18200SOL    HW256340   3.254   0.287   9.049  0.6436  0.6858  0.0646
18201SOL     OW56341   4.437   4.776   1.994 -0.6496 -0.1864 -0.5119
18201SOL    HW156342   4.391   4.847   1.948  0.1935  1.6661  1.3494
18201SOL    HW256343   4.530   4.793   1.979 -0.2618  1.1300  2.5283
18202SOL     OW56344   2.740   5.896   4.924  0.1701 -0.1943  0.5283
18202SOL    HW156345   2.788   5.928   4.848 -0.0123 -1.0252  0.0545
18202SOL    HW256346   2.648   5.903   4.899  0.1345 -2.8548 -0.3695
18203SOL     OW56347   6.554   1.227   1.592 -0.4698  0.3237  0.2368
18203SOL    HW156348   6.542   1.218   1.687 -1.0164  0.6212  0.1971
18203SOL    HW256349   6.648   1.215   1.579 -0.7923 -4.2662  0.2958
18204SOL     OW56350   1.185   8.663   8.957  0.3100  0.1708  0.8186
18204SOL    HW156351   1.231   8.579   8.946  1.2601  0.8495 -0.7524
18204SOL    HW256352   1.109   8.657   8.899 -1.0166 -0.4923  2.5337
18205SOL     OW56353   4.326   0.001   7.898 -0.0318  0.2618 -0.1682
18205SOL    HW156354   4.314  -0.090   7.870  2.4575  0.4176 -2.1260
18205SOL    HW256355   4.403  -0.002   7.956 -1.0850  0.9195  1.3482
18206SOL     OW56356   6.871   1.274   3.917  0.0316 -0.6733 -0.4884
18206SOL    HW156357   6.924   1.258   3.994  0.7163  1.3237 -0.4779
18206SOL    HW256358   6.781   1.252   3.944  0.4752 -1.5269  0.3365
18207SOL     OW56359   3.426   4.884   2.604 -0.0952  0.4440 -0.0785
18207SOL    HW156360   3.515   4.899   2.573  0.4022 -1.1398  0.4744
18207SOL    HW256361   3.370   4.928   2.539  0.9767 -1.0960 -2.1680
18208SOL     OW56362   5.481   4.843   8.087  0.0273 -0.3195  0.6948
18208SOL    HW156363   5.464   4.779   8.018 -0.2572 -0.4185  0.8523
18208SOL    HW256364   5.534   4.910   8.045 -0.1436 -0.3783  0.3791
18209SOL     OW56365   3.037   3.414   1.305 -0.0551  0.4110  0.0194
18209SOL    HW156366   3.004   3.325   1.314  0.0453  0.4232  0.5616
18209SOL    HW256367   2.969   3.461   1.257 -0.4179  0.2113  0.3328
18210SOL     OW56368   6.783   1.322   0.231  0.0203 -0.6371  0.4511
18210SOL    HW156369   6.736   1.406   0.223 -1.2592 -1.4392 -1.0078
18210SOL    HW256370   6.832   1.330   0.312  0.6496  1.8831 -0.0798
18211SOL     OW56371   4.392   0.564   6.628 -0.0122 -0.8956 -0.1035
18211SOL    HW156372   4.378   0.569   6.722 -1.8426  1.1754 -0.3911
18211SOL    HW256373   4.332   0.630   6.592  2.6741  0.4557 -2.5080
18212SOL     OW56374   1.549   9.285   7.946  0.8122 -0.6165 -0.0573
18212SOL    HW156375   1.636   9.324   7.955  0.2616  0.3623  1.3637
18212SOL    HW256376   1.564   9.191   7.957  2.2870 -1.0974 -4.4126
18213SOL     OW56377   3.555   1.989   8.563 -0.7502  0.2136 -0.0697
18213SOL    HW156378   3.632   2.031   8.527 -2.0372  1.2943 -1.7152
18213SOL    HW256379   3.489   2.058   8.568 -2.7582 -1.3840 -2.3318
18214SOL     OW56380   2.409   8.376   4.369  0.6183 -0.1546 -0.2965
18214SOL    HW156381   2.345   8.305   4.377  1.9536 -1.3156  0.7757
18214SOL    HW256382   2.370   8.437   4.308 -0.9923 -1.3861 -0.5687
18215SOL     OW56383   7.093   1.792   7.772 -0.4700  0.4908 -0.1972
18215SOL    HW156384   7.099   1.798   7.868 -1.1566  1.6053 -0.2078
18215SOL    HW256385   7.143   1.714   7.750  1.5167  1.3899  0.8820
18216SOL     OW56386   5.678   2.924   2.761 -0.0900  0.8947 -0.1808
18216SOL    HW156387   5.728   2.843   2.770  0.2815  1.2724  1.4266
18216SOL    HW256388   5.622   2.909   2.684  1.5377 -0.0265 -1.2625
18217SOL     OW56389   4.373   9.280   8.331 -0.0196  0.1614  0.3953
18217SOL    HW156390   4.361   9.363   8.376  1.0510  1.0353 -0.8266
18217SOL    HW256391   4.285   9.253   8.304 -0.2901  1.4040 -0.0209
18218SOL     OW56392   1.042   8.492   9.378  0.3379 -0.2342 -0.3378
18218SOL    HW156393   1.008   8.536   9.457 -0.8438 -1.9023  0.1250
18218SOL    HW256394   1.067   8.564   9.320 -3.3796  1.2239 -0.4463
18219SOL     OW56395   3.303   4.178   8.224  0.6444 -0.1215 -0.4728
18219SOL    HW156396   3.330   4.185   8.133  1.9830 -1.8105 -0.2581
18219SOL    HW256397   3.365   4.232   8.272 -0.3217  1.1171 -0.5631
18220SOL     OW56398   7.522   0.663   4.162 -0.4802  0.0502 -0.0584
18220SOL    HW156399   7.438   0.661   4.210 -0.2495 -0.3857  0.3336
18220SOL    HW256400   7.583   0.703   4.224  0.1296 -1.6944  0.5383
18221SOL     OW56401   2.381   1.342   5.963 -0.3976  0.0981  0.5008
18221SOL    HW156402   2.417   1.396   6.034 -0.8101  0.8368  0.1595
18221SOL    HW256403   2.338   1.405   5.905 -0.4039 -0.5420 -0.2023
18222SOL     OW56404   7.522   6.798   5.043  0.6565 -0.1780  0.5058
18222SOL    HW156405   7.524   6.714   5.088 -1.1702 -0.7359 -0.3492
18222SOL    HW256406   7.588   6.851   5.088  0.7250 -1.5292  2.0969
18223SOL     OW56407   6.326   5.662   2.343 -0.4115 -0.1797 -0.1128
18223SOL    HW156408   6.245   5.615   2.325 -0.6339 -0.3116  1.1661
18223SOL    HW256409   6.352   5.633   2.430  2.3534 -2.0737 -1.4035
18224SOL     OW56410   1.209   2.636   1.386  0.2583 -0.0271  0.0118
18224SOL    HW156411   1.302   2.644   1.364  0.1588 -0.0095 -0.3984
18224SOL    HW256412   1.205   2.663   1.478  0.3557  2.0283 -0.5241
18225SOL     OW56413   3.590   7.672   1.114  0.0607 -0.0535 -0.3511
18225SOL    HW156414   3.584   7.587   1.071  0.5338  0.3763 -1.2932
18225SOL    HW256415   3.512   7.676   1.170  0.2892 -1.2997  0.0823
18226SOL     OW56416   0.739   5.062   2.806 -0.0177 -0.7900 -0.0598
18226SOL    HW156417   0.677   5.035   2.739 -0.9514 -1.4724  1.0376
18226SOL    HW256418   0.825   5.037   2.772 -0.4352 -0.8351 -1.1115
18227SOL     OW56419   7.421   8.117   8.683  0.4485 -0.1006 -0.2134
18227SOL    HW156420   7.509   8.089   8.707  0.6366 -1.2659 -2.0606
18227SOL    HW256421   7.435   8.189   8.621  0.0048  1.6503  1.5980
18228SOL     OW56422   6.499   6.096   7.343 -0.4758  0.9939  0.1112
18228SOL    HW156423   6.477   6.076   7.252  2.6514  0.6871 -0.6988
18228SOL    HW256424   6.536   6.184   7.341  0.9819  0.4407  0.7671
18229SOL     OW56425   6.981   0.495   5.923 -0.0953  0.1258  0.1198
18229SOL    HW156426   7.031   0.574   5.944  0.8360 -0.5785  0.6114
18229SOL    HW256427   7.041   0.442   5.870 -0.9933  0.0838 -0.8941
18230SOL     OW56428   0.617   6.979   3.889 -0.1379 -0.0744  0.4522
18230SOL    HW156429   0.581   6.905   3.840  0.1015 -0.0394  0.2209
18230SOL    HW256430   0.641   6.942   3.974  1.5710 -0.6749 -0.2419
18231SOL     OW56431   9.231   5.080   9.352  0.2507 -0.8206  0.3255
18231SOL    HW156432   9.268   5.162   9.321 -0.5228 -0.8130 -0.6218
18231SOL    HW256433   9.224   5.092   9.447  2.7417 -0.8929  0.5655
18232SOL     OW56434   1.339   1.679   9.110 -0.4759 -0.4218 -0.3147
18232SOL    HW156435   1.385   1.628   9.044 -0.5659 -0.8244 -0.0694
18232SOL    HW256436   1.396   1.674   9.187  0.1426  0.9108 -0.6591
18233SOL     OW56437   1.179   7.252   0.283  0.0005 -0.1244  0.1427
18233SOL    HW156438   1.099   7.199   0.281 -0.7295  0.9620 -1.3147
18233SOL    HW256439   1.248   7.192   0.257 -0.4947 -0.8321  0.4272
18234SOL     OW56440   3.237   6.011   8.871  0.0361  0.3791  0.3524
18234SOL    HW156441   3.311   6.044   8.922  0.2236 -0.9674  0.9785
18234SOL    HW256442   3.164   6.010   8.932  0.3509 -1.5994  0.7673
18235SOL     OW56443   1.186   0.270   1.959 -0.1805 -0.5163  0.0573
18235SOL    HW156444   1.235   0.310   1.887 -0.5452 -1.4448 -0.7225
18235SOL    HW256445   1.099   0.308   1.952 -0.3916 -1.0767 -0.3842
18236SOL     OW56446   4.675   8.499   6.963 -0.7995  0.0872 -0.1143
18236SOL    HW156447   4.636   8.566   7.020 -2.5372 -0.9191 -0.0608
18236SOL    HW256448   4.683   8.542   6.878 -0.1867  0.9112  0.3364
18237SOL     OW56449   3.011   3.317   2.260  0.0350 -0.1350  0.4414
18237SOL    HW156450   2.946   3.304   2.192 -1.5818  2.5040  1.3114
18237SOL    HW256451   3.089   3.347   2.213 -0.7310  0.6661 -0.3731
18238SOL     OW56452   5.650   2.991   7.214  0.3576  0.1799 -0.4414
18238SOL    HW156453   5.605   2.923   7.263  0.0794  0.5428 -0.1871
18238SOL    HW256454   5.685   3.050   7.281  1.0575  0.0009 -0.6439
18239SOL     OW56455   2.946   0.598   7.114 -0.0979 -0.1730  0.1467
18239SOL    HW156456   2.941   0.518   7.061 -0.1872  0.4053 -0.7412
18239SOL    HW256457   3.032   0.594   7.156 -0.3850 -1.0752  0.6747
18240SOL     OW56458   2.413   6.440   0.884  0.4487 -0.0577  0.8674
18240SOL    HW156459   2.370   6.432   0.799 -0.9129  0.3842  1.4973
18240SOL    HW256460   2.501   6.471   0.863  0.4584 -0.8790 -0.4393
18241SOL     OW56461   5.552   1.229   3.352  0.0449  0.7351 -0.2364
18241SOL    HW156462   5.627   1.170   3.341 -0.3733  0.3798 -1.3554
18241SOL    HW256463   5.500   1.189   3.422  2.2524  2.4737  2.5998
18242SOL     OW56464   7.020   1.233   5.849 -0.3909 -0.4836 -0.6358
18242SOL    HW156465   7.045   1.295   5.781  0.8457  1.0258  1.1112
18242SOL    HW256466   7.087   1.165   5.845 -0.9286 -0.9858 -1.5877
18243SOL     OW56467   2.873   0.517   2.452  0.0485  0.2342  0.1052
18243SOL    HW156468   2.788   0.473   2.443 -0.1326  0.7978 -1.0838
18243SOL    HW256469   2.885   0.563   2.369  2.0217 -0.7067 -0.1793
18244SOL     OW56470   7.353   3.533   5.835  0.6438 -0.0540  0.4464
18244SOL    HW156471   7.300   3.580   5.771  1.1162 -1.5942 -1.1423
18244SOL    HW256472   7.290   3.505   5.902 -0.1807 -0.0546 -0.3174
18245SOL     OW56473   1.479   3.783   2.302  0.7405  0.1565 -0.2388
18245SOL    HW156474   1.417   3.712   2.283  1.5045 -0.3247 -1.0225
18245SOL    HW256475   1.429   3.863   2.284  0.2317 -0.2149 -0.5118
18246SOL     OW56476   1.414   1.470   8.470  0.0568  0.7169 -0.1368
18246SOL    HW156477   1.486   1.408   8.483 -0.4022  0.1738 -0.1144
18246SOL    HW256478   1.361   1.431   8.401  0.1309  1.4366 -0.6136
18247SOL     OW56479   0.589   7.929   6.991  0.3942 -0.3402 -0.4358
18247SOL    HW156480   0.618   8.019   6.999 -0.6485 -0.0753  0.5866
18247SOL    HW256481   0.669   7.880   6.970  1.0037  0.7770 -0.7963
18248SOL     OW56482   9.487   7.843   8.750  0.3840 -0.4276  0.5899
18248SOL    HW156483   9.415   7.904   8.765  0.4154  0.0755 -1.1025
18248SOL    HW256484   9.558   7.897   8.715 -0.0255 -1.5339 -2.2286
18249SOL     OW56485   3.789   3.671   8.875  0.4191  0.0211 -0.3437
18249SOL    HW156486   3.694   3.668   8.869  0.4154  0.7700 -0.7735
18249SOL    HW256487   3.809   3.635   8.962 -0.2064 -0.7224 -0.4961
18250SOL     OW56488   4.561   8.433   3.921  0.4675 -0.1338 -0.0563
18250SOL    HW156489   4.513   8.468   3.846 -0.8151  0.1148  0.8362
18250SOL    HW256490   4.649   8.468   3.913  0.6100 -0.8012 -1.8986
18251SOL     OW56491   2.628   6.658   8.079  0.1708 -0.3216 -0.4973
18251SOL    HW156492   2.598   6.723   8.015 -1.2250 -1.2964 -0.8828
18251SOL    HW256493   2.626   6.705   8.162  2.5253  1.1336 -1.1472
18252SOL     OW56494   7.531   7.591   0.618  0.5889 -0.1021 -0.0334
18252SOL    HW156495   7.607   7.592   0.561 -0.7323  0.5236 -1.8833
18252SOL    HW256496   7.456   7.581   0.558 -0.8504  0.2175  1.6189
18253SOL     OW56497   6.555   5.938   5.118 -0.0142 -0.5213 -0.0139
18253SOL    HW156498   6.545   5.928   5.023 -0.7721  0.0809 -0.0086
18253SOL    HW256499   6.589   6.026   5.129 -0.3367 -0.4331  0.2916
18254SOL     OW56500   0.783   6.608   4.708 -0.0216 -0.0679  1.0431
18254SOL    HW156501   0.711   6.670   4.703  1.2111  1.3226 -0.5486
18254SOL    HW256502   0.766   6.546   4.637  0.6765  0.6674  0.2154
18255SOL     OW56503   7.556   7.618   5.432  0.2631  0.2396 -0.5696
18255SOL    HW156504   7.527   7.690   5.488 -1.2174 -0.4170 -0.4336
18255SOL    HW256505   7.651   7.629   5.426  0.3827  0.7400  1.4970
18256SOL     OW56506   2.736   3.458   2.329  0.0363 -0.3474  0.4624
18256SOL    HW156507   2.754   3.450   2.236  1.7212  0.0347  0.7304
18256SOL    HW256508   2.658   3.514   2.334  1.2571  1.5309 -0.6447
18257SOL     OW56509   2.471   8.036   8.189 -0.6095  0.3411  0.2851
18257SOL    HW156510   2.385   8.069   8.216 -1.0592 -1.2868  0.9703
18257SOL    HW256511   2.454   7.947   8.159  1.0730 -0.7237  2.2362
18258SOL     OW56512   6.130   3.522   9.311  0.0199  0.5104  0.0135
18258SOL    HW156513   6.153   3.432   9.337  0.4687  0.7232  0.3521
18258SOL    HW256514   6.051   3.541   9.360  0.3645  0.5838  0.5463
18259SOL     OW56515   5.006   8.245   2.088  0.2252  0.1067 -0.5328
18259SOL    HW156516   5.034   8.229   2.178  0.7246  0.8540 -0.5462
18259SOL    HW256517   4.919   8.204   2.082 -0.1107  0.6445  0.4885
18260SOL     OW56518   1.898   2.585   4.294  0.2309  0.1555 -0.1185
18260SOL    HW156519   1.981   2.539   4.281  0.7439  0.8013  0.7821
18260SOL    HW256520   1.865   2.551   4.377  0.4370  1.1189  0.3727
18261SOL     OW56521   4.143   4.089   0.347 -0.5555  0.3582 -0.4336
18261SOL    HW156522   4.222   4.037   0.363 -0.0465  1.1968 -0.1009
18261SOL    HW256523   4.136   4.093   0.251  0.1145  0.7111 -0.4740
18262SOL     OW56524   6.810   0.455   5.716  0.3822  0.4684  0.4255
18262SOL    HW156525   6.726   0.478   5.756 -0.1674 -0.8269  0.0683
18262SOL    HW256526   6.869   0.444   5.790  0.5961  2.5420  0.6381
18263SOL     OW56527   0.787   6.979   2.186 -0.5231  0.0102 -0.1002
18263SOL    HW156528   0.766   6.898   2.232  1.0880 -0.7148 -0.5564
18263SOL    HW256529   0.704   7.025   2.178 -1.4601 -1.5676  0.2314
18264SOL     OW56530   0.526   8.059   3.122 -0.1531  0.1747 -0.2235
18264SOL    HW156531   0.503   8.143   3.160  0.7948  0.7250 -0.8084
18264SOL    HW256532   0.564   8.081   3.036 -1.1565 -0.9392 -0.9876
18265SOL     OW56533   9.011   6.740   3.508  0.1259 -0.3558 -0.3564
18265SOL    HW156534   8.984   6.800   3.577  1.6231  0.4285 -0.4257
18265SOL    HW256535   9.006   6.653   3.549 -0.4248 -0.0355  0.2700
18266SOL     OW56536   7.291   7.601   7.961  0.1514  0.2638  0.0689
18266SOL    HW156537   7.346   7.547   8.018  0.5822  2.0763  1.4746
18266SOL    HW256538   7.317   7.576   7.872  0.3750 -1.7442  0.6460
18267SOL     OW56539   8.439   8.747   8.835 -0.0609 -0.5301  0.1554
18267SOL    HW156540   8.457   8.745   8.741  0.1188 -0.7468  0.1936
18267SOL    HW256541   8.520   8.781   8.874 -0.2370 -0.1623  0.2088
18268SOL     OW56542   0.103   2.975   6.637 -0.4090 -0.4669 -0.2992
18268SOL    HW156543   0.047   3.050   6.616 -0.2197 -0.1117  0.4615
18268SOL    HW256544   0.073   2.945   6.722 -1.8379 -2.5457 -1.4383
18269SOL     OW56545   8.770   6.524   7.087 -0.7968  0.0993 -0.2445
18269SOL    HW156546   8.678   6.504   7.070 -1.2620  1.5464  0.4739
18269SOL    HW256547   8.803   6.447   7.133 -2.1613  0.3572  1.2308
18270SOL     OW56548   7.102   7.568   3.646 -0.2116  0.0201 -0.0233
18270SOL    HW156549   7.188   7.548   3.610  0.0567  1.6452 -0.3454
18270SOL    HW256550   7.042   7.557   3.572 -0.1358 -0.0565 -0.0733
18271SOL     OW56551   2.943   3.980   3.530 -0.3580  0.1501 -0.2924
18271SOL    HW156552   2.882   4.050   3.553 -0.6866 -0.0785 -0.4685
18271SOL    HW256553   2.984   4.011   3.449  0.3557  0.6716  0.2494
18272SOL     OW56554   6.112   6.447   4.145  0.4704  0.1972 -0.5748
18272SOL    HW156555   6.135   6.373   4.201  1.4768  0.6898 -0.3097
18272SOL    HW256556   6.194   6.471   4.102  0.1569  1.1481 -0.6644
18273SOL     OW56557   2.547   8.800   6.540  0.0653  0.0622  0.2512
18273SOL    HW156558   2.602   8.797   6.618 -0.1937  1.0140  0.4797
18273SOL    HW256559   2.573   8.880   6.495  1.2284 -1.1566 -1.4170
18274SOL     OW56560   3.112   0.341   3.229  0.0221  0.8490 -0.0824
18274SOL    HW156561   3.063   0.367   3.307  0.4628  0.4295  0.3407
18274SOL    HW256562   3.133   0.249   3.244  0.2429  0.8090 -0.6295
18275SOL     OW56563   9.215   3.243   2.278  0.7409 -0.2792 -0.3677
18275SOL    HW156564   9.149   3.265   2.343 -0.0292  0.6091 -1.4121
18275SOL    HW256565   9.173   3.177   2.223  0.8391  0.0362 -0.8289
18276SOL     OW56566   5.108   9.225   4.933 -0.0611 -0.1594 -0.4462
18276SOL    HW156567   5.166   9.184   4.996 -0.5410  1.0341  0.8359
18276SOL    HW256568   5.041   9.159   4.915 -0.4377 -0.2130  1.0333
18277SOL     OW56569   0.835   8.886   6.481 -0.2275 -0.1830 -0.6697
18277SOL    HW156570   0.881   8.936   6.548 -2.4204  0.0577  0.7382
18277SOL    HW256571   0.797   8.952   6.423  0.5185 -0.3737 -1.4129
18278SOL     OW56572   1.704   2.652   2.131 -0.2155 -0.4375  0.2907
18278SOL    HW156573   1.669   2.740   2.146 -0.8424 -0.5449 -0.4899
18278SOL    HW256574   1.795   2.657   2.160 -0.2085  0.5028  0.1299
18279SOL     OW56575   4.107   8.045   7.437 -0.3222 -0.5239  0.2724
18279SOL    HW156576   4.130   8.130   7.399 -1.2316  0.0564  0.9559
18279SOL    HW256577   4.012   8.038   7.424 -0.4558 -0.8568  1.3433
18280SOL     OW56578   5.108   1.303   0.331  0.3118  0.1429  0.4263
18280SOL    HW156579   5.143   1.225   0.288 -0.4816  0.0037  0.0105
18280SOL    HW256580   5.088   1.363   0.259 -0.4314  0.1549  0.6281
18281SOL     OW56581   6.704   5.001   1.524 -0.0517  0.0527  0.4205
18281SOL    HW156582   6.745   5.083   1.495 -1.6155  0.5991 -0.3435
18281SOL    HW256583   6.706   5.007   1.619  3.0456 -0.6961  0.5161
18282SOL     OW56584   7.428   0.106   2.978 -0.5674  0.4566  0.4435
18282SOL    HW156585   7.336   0.083   2.963 -0.1727 -1.2951  0.4317
18282SOL    HW256586   7.425   0.189   3.025 -2.1543  0.4561  0.3957
18283SOL     OW56587   6.715   4.519   8.289  0.0214 -0.5395  0.2402
18283SOL    HW156588   6.777   4.480   8.227 -0.0586  1.2423 -1.0263
18283SOL    HW256589   6.629   4.494   8.256 -0.0027 -0.4396  0.2268
18284SOL     OW56590   4.241   8.188   8.633  0.6086 -1.1154  0.0155
18284SOL    HW156591   4.329   8.176   8.667  0.6471 -0.9714 -0.0312
18284SOL    HW256592   4.184   8.145   8.697  0.7534 -1.7233 -0.2567
18285SOL     OW56593   9.156   2.350   1.665  0.1656 -0.1316  0.1023
18285SOL    HW156594   9.177   2.258   1.681 -1.1908 -0.3815  0.5722
18285SOL    HW256595   9.087   2.348   1.599 -1.7861  0.3778  2.0201
18286SOL     OW56596   6.650   4.949   8.468  0.5326  0.3353 -0.2017
18286SOL    HW156597   6.556   4.945   8.450  0.3259  1.1560  0.6238
18286SOL    HW256598   6.683   4.863   8.441 -0.7920 -0.7401  1.3684
18287SOL     OW56599   4.386   4.214   1.159  0.1230 -0.4937  0.2979
18287SOL    HW156600   4.381   4.303   1.194  1.1195 -0.8196  1.3261
18287SOL    HW256601   4.299   4.177   1.174 -0.9667  0.9421 -2.0099
18288SOL     OW56602   4.884   6.970   6.102 -0.2325 -0.2146  0.1553
18288SOL    HW156603   4.820   7.041   6.110  1.1645  1.0663  0.3604
18288SOL    HW256604   4.897   6.960   6.008 -0.6901 -0.4560  0.1130
18289SOL     OW56605   9.195   4.786   8.531  0.2923  0.3375  0.3069
18289SOL    HW156606   9.192   4.699   8.572 -0.2910 -1.2636 -2.7999
18289SOL    HW256607   9.288   4.809   8.531  0.6940 -1.1713 -0.4162
18290SOL     OW56608   4.485   9.437   8.108  0.0721 -0.4519  0.3066
18290SOL    HW156609   4.537   9.390   8.044  0.4107 -1.5703  1.3601
18290SOL    HW256610   4.453   9.369   8.167 -1.4482  0.3670  0.4870
18291SOL     OW56611   3.299   2.688   1.597 -0.0685  0.4185 -0.2019
18291SOL    HW156612   3.282   2.602   1.635 -0.4286  0.7233  0.3244
18291SOL    HW256613   3.267   2.751   1.661 -0.6686  0.9446 -0.9949
18292SOL     OW56614   7.369   7.350   6.467 -0.2143 -0.1437  0.2242
18292SOL    HW156615   7.449   7.299   6.459 -1.6272 -2.3067 -1.0331
18292SOL    HW256616   7.317   7.328   6.390 -1.8789  1.4913  0.7775
18293SOL     OW56617   0.083   4.499   7.200 -0.5686 -0.4831 -0.0849
18293SOL    HW156618   0.056   4.462   7.284  0.3765 -1.7611 -0.3234
18293SOL    HW256619   0.165   4.455   7.179 -1.5482 -1.3896 -2.4249
18294SOL     OW56620   3.094   6.880   3.600 -0.2420  0.0558  0.1376
18294SOL    HW156621   3.049   6.908   3.680 -3.4053 -0.4945 -1.2668
18294SOL    HW256622   3.081   6.785   3.597 -1.0616  0.1794 -1.4343
18295SOL     OW56623   0.200   9.392   1.865 -0.1079  0.0219 -0.2395
18295SOL    HW156624   0.154   9.476   1.864 -0.8146 -0.3354  0.5752
18295SOL    HW256625   0.293   9.415   1.866 -0.2628  0.8773  2.4812
18296SOL     OW56626   4.068   0.062   4.190 -0.4306  0.0971 -0.7969
18296SOL    HW156627   4.048  -0.017   4.141 -1.2528 -0.6652  0.6955
18296SOL    HW256628   3.985   0.111   4.191 -0.5866 -0.1564  0.2494
18297SOL     OW56629   6.644   6.429   3.443 -0.2065 -0.4152 -0.3149
18297SOL    HW156630   6.569   6.461   3.392 -0.3851 -0.8074 -0.3034
18297SOL    HW256631   6.680   6.357   3.390 -0.0792 -0.4845 -0.1326
18298SOL     OW56632   6.725   3.807   3.524  0.1725  0.2867 -0.0104
18298SOL    HW156633   6.670   3.884   3.536  0.6810  0.3716  2.0724
18298SOL    HW256634   6.711   3.755   3.602  3.7910  0.8375  1.2071
18299SOL     OW56635   7.490   1.911   0.338  0.8059 -0.5308 -0.0896
18299SOL    HW156636   7.435   1.834   0.350  0.0967 -0.1973 -1.1063
18299SOL    HW256637   7.559   1.901   0.404  1.0813 -2.3350 -0.6021
18300SOL     OW56638   6.308   7.668   9.146 -1.0229  0.3335 -0.0628
18300SOL    HW156639   6.223   7.656   9.103 -2.1587 -1.4375  2.4032
18300SOL    HW256640   6.285   7.697   9.235  0.9917  0.4775  0.4449
18301SOL     OW56641   0.428   5.307   8.221  0.1817  0.5522  0.0709
18301SOL    HW156642   0.341   5.280   8.191  0.7103 -1.0668 -0.0762
18301SOL    HW256643   0.411   5.378   8.282 -1.3590 -0.7138  1.1966
18302SOL     OW56644   5.682   4.813   5.591  0.0142  0.3312 -0.3202
18302SOL    HW156645   5.679   4.901   5.554  0.1489  1.1232  1.4697
18302SOL    HW256646   5.666   4.825   5.684  0.6781 -1.4709  0.0700
18303SOL     OW56647   7.386   6.602   7.530 -0.1735  0.0193 -0.0570
18303SOL    HW156648   7.416   6.692   7.523 -1.2497  0.4837  0.9533
18303SOL    HW256649   7.409   6.576   7.619  1.6206 -1.3035 -0.8395
18304SOL     OW56650   0.925   7.296   2.832 -0.0246  0.4595 -0.2588
18304SOL    HW156651   0.855   7.263   2.888 -0.2717  1.3269 -0.0391
18304SOL    HW256652   0.898   7.272   2.743  0.8662 -1.8234  0.0227
18305SOL     OW56653   6.613   3.497   0.960 -0.0550 -0.3544 -0.4195
18305SOL    HW156654   6.690   3.502   1.017 -1.5726  1.1360  1.6631
18305SOL    HW256655   6.635   3.431   0.895  3.5235  0.9867 -0.7842
18306SOL     OW56656   5.111   2.429   6.387  0.5359 -0.1954  0.5757
18306SOL    HW156657   5.133   2.337   6.376 -0.2432 -0.3765  0.4489
18306SOL    HW256658   5.095   2.460   6.297 -3.2559 -1.0066  0.7992
18307SOL     OW56659   6.799   2.624   8.467  0.0402 -0.3682 -0.6308
18307SOL    HW156660   6.888   2.621   8.431  0.0942 -1.1416 -0.4480
18307SOL    HW256661   6.811   2.657   8.556  0.1271 -0.3427 -0.6510
18308SOL     OW56662   5.076   2.264   2.549 -0.1524  0.3007 -0.0723
18308SOL    HW156663   5.157   2.212   2.541 -0.3876  0.1536 -1.8734
18308SOL    HW256664   5.019   2.229   2.482 -2.1121 -0.2011  1.7518
18309SOL     OW56665   1.622   7.895   8.196  0.0234  0.2191  0.3238
18309SOL    HW156666   1.569   7.849   8.261  1.4405  1.0488  2.1271
18309SOL    HW256667   1.607   7.846   8.115 -2.0988 -0.6125  1.1496
18310SOL     OW56668   9.464   6.888   6.317  0.0773  0.1341  0.0275
18310SOL    HW156669   9.512   6.884   6.400 -0.6443  0.0742  0.4544
18310SOL    HW256670   9.381   6.845   6.336  0.2055 -0.5675 -0.9472
18311SOL     OW56671   0.923   9.053   9.402 -0.3976 -0.0952 -0.4816
18311SOL    HW156672   0.875   9.136   9.393  1.0838  0.4935 -5.9394
18311SOL    HW256673   0.860   8.986   9.375 -1.1246 -0.7791  2.5189
18312SOL     OW56674   3.440   1.536   5.650  0.0927  0.1441 -0.6984
18312SOL    HW156675   3.511   1.548   5.714 -0.5651 -0.0979  0.0937
18312SOL    HW256676   3.479   1.560   5.566  0.5161  2.0396 -0.0050
18313SOL     OW56677   1.942   2.887   0.692 -0.3629 -0.2290  0.0124
18313SOL    HW156678   1.907   2.802   0.664  1.8005 -1.5144  0.8756
18313SOL    HW256679   1.948   2.938   0.611  0.3038 -1.7193 -0.9423
18314SOL     OW56680   6.589   0.270   8.068 -0.4474 -0.3122  0.3736
18314SOL    HW156681   6.612   0.215   7.993  0.8555  0.3032  0.3013
18314SOL    HW256682   6.495   0.253   8.081 -0.2801 -1.8698 -0.1846
18315SOL     OW56683   0.223   1.993   2.245 -0.0502  0.4660 -0.0721
18315SOL    HW156684   0.254   1.954   2.326  0.3975 -0.5192 -0.7068
18315SOL    HW256685   0.295   2.049   2.216  0.7469 -0.9680 -0.9696
18316SOL     OW56686   4.395   2.028   8.698  0.7898 -0.2351  0.1983
18316SOL    HW156687   4.415   2.096   8.634  0.9957 -0.3169  0.1767
18316SOL    HW256688   4.428   1.947   8.660 -0.4540 -0.5345 -0.2817
18317SOL     OW56689   9.408   5.834   2.643 -0.0708  0.0111 -0.7055
18317SOL    HW156690   9.466   5.895   2.689  0.2941 -1.0379  0.2478
18317SOL    HW256691   9.358   5.791   2.712 -0.6142 -0.4922 -1.3995
18318SOL     OW56692   6.121   3.726   3.181 -0.6671  0.5806  0.2268
18318SOL    HW156693   6.051   3.697   3.122  1.4925 -1.7108 -1.4366
18318SOL    HW256694   6.160   3.801   3.136 -1.0908  0.8881  0.3746
18319SOL     OW56695   5.686   3.416   7.323  0.0802  0.1807 -0.2045
18319SOL    HW156696   5.614   3.478   7.312 -0.2126  0.2269  1.6400
18319SOL    HW256697   5.761   3.470   7.348 -0.0618 -0.1374  0.9661
18320SOL     OW56698   9.186   2.979   1.447  0.1122  0.1148 -0.3930
18320SOL    HW156699   9.267   2.979   1.396  0.7101 -1.9023  0.4859
18320SOL    HW256700   9.166   2.887   1.462 -0.9379  0.6059  1.6103
18321SOL     OW56701   3.961   2.615   1.171 -0.3183  0.0406 -0.3926
18321SOL    HW156702   4.002   2.609   1.084  1.3268 -0.8610  0.4022
18321SOL    HW256703   3.874   2.576   1.158  0.2536 -0.9747 -1.4368
18322SOL     OW56704   3.872   4.639   2.586 -0.2457  1.1752  0.9972
18322SOL    HW156705   3.920   4.607   2.509 -0.8860  0.6711  0.8011
18322SOL    HW256706   3.937   4.637   2.657 -0.1639 -0.2749  0.9219
18323SOL     OW56707   5.075   7.451   4.494  0.7408  0.2434  0.2631
18323SOL    HW156708   5.121   7.494   4.566  0.3757  3.8075 -1.4140
18323SOL    HW256709   5.129   7.374   4.474  3.1757  1.4853  1.6097
18324SOL     OW56710   0.134   5.804   8.860 -0.7051  0.3847 -0.6462
18324SOL    HW156711   0.176   5.788   8.776 -1.0118  1.3849 -0.9974
18324SOL    HW256712   0.198   5.856   8.910  0.5358 -2.2511  0.7141
18325SOL     OW56713   8.550   3.279   1.946  0.5680 -0.0930  0.2592
18325SOL    HW156714   8.551   3.369   1.979  1.1512  0.0105 -0.0235
18325SOL    HW256715   8.592   3.285   1.860  0.0925 -0.5438 -0.0092
18326SOL     OW56716   1.507   7.401   4.391  0.4435 -0.2954  0.3652
18326SOL    HW156717   1.598   7.426   4.409  0.3886 -0.0919  0.3613
18326SOL    HW256718   1.506   7.378   4.298  0.8876 -2.0411  0.7471
18327SOL     OW56719   3.521   3.314   9.424  0.0179 -0.6163 -0.5502
18327SOL    HW156720   3.583   3.320   9.351  0.2854  2.3560 -0.2009
18327SOL    HW256721   3.450   3.260   9.390  0.8778 -0.6630 -2.4303
18328SOL     OW56722   2.643   6.668   1.543 -0.2744  0.5980  0.3020
18328SOL    HW156723   2.553   6.700   1.538 -1.2357 -1.9290 -0.0023
18328SOL    HW256724   2.682   6.691   1.459 -1.1239  0.3823 -0.1584
18329SOL     OW56725   3.104   8.812   1.852  0.7735  0.4959 -0.0081
18329SOL    HW156726   3.024   8.760   1.845  1.1012  0.0747 -0.7129
18329SOL    HW256727   3.076   8.901   1.830  0.3814  0.4715  0.3707
18330SOL     OW56728   6.851   0.641   1.539 -0.1764  0.0699 -0.2172
18330SOL    HW156729   6.934   0.633   1.491  0.6519 -0.1800  1.2013
18330SOL    HW256730   6.796   0.572   1.503  0.9088 -0.9929  0.1118
18331SOL     OW56731   5.039   6.948   1.334 -0.2494  0.0995 -0.1474
18331SOL    HW156732   4.995   6.944   1.419  1.3949  2.1560  0.8876
18331SOL    HW256733   5.006   6.871   1.287 -0.7641 -1.4664  2.5424
18332SOL     OW56734   8.451   5.144   1.144  0.2658 -0.2614  0.2171
18332SOL    HW156735   8.543   5.169   1.149  0.9940 -1.6493 -3.1652
18332SOL    HW256736   8.452   5.049   1.145 -1.0653 -0.2977 -0.3170
18333SOL     OW56737   7.263   0.302   8.004  0.1341  0.2381 -0.1494
18333SOL    HW156738   7.211   0.224   8.025  0.8536 -0.1346  0.2717
18333SOL    HW256739   7.352   0.280   8.031  0.8142  0.3148 -2.2003
18334SOL     OW56740   9.014   7.581   4.614  0.1772 -1.1815  0.2860
18334SOL    HW156741   8.981   7.561   4.526 -0.0259  0.0613  0.0523
18334SOL    HW256742   8.936   7.578   4.670  0.1614 -1.1231  0.2674
18335SOL     OW56743   1.441   5.451   1.713 -0.3978 -0.2490  0.3350
18335SOL    HW156744   1.371   5.508   1.683 -0.2308 -0.7815 -1.1435
18335SOL    HW256745   1.474   5.494   1.792 -2.8741 -0.3897  1.5563
18336SOL     OW56746   7.855   7.777   7.574  0.0243 -0.6147  0.9866
18336SOL    HW156747   7.801   7.738   7.642 -0.8084 -0.1415  0.6112
18336SOL    HW256748   7.796   7.837   7.527  0.9844  0.2714  0.8691
18337SOL     OW56749   7.528   1.519   4.151  0.2954  0.0529  0.3503
18337SOL    HW156750   7.487   1.504   4.236  1.7061 -1.9342  0.7514
18337SOL    HW256751   7.459   1.500   4.088 -0.4460  0.4379  1.0270
18338SOL     OW56752   1.512   1.766   0.106  0.1668 -0.1962  0.2290
18338SOL    HW156753   1.505   1.779   0.201  1.2655  0.1070  0.2825
18338SOL    HW256754   1.487   1.675   0.093  1.9505 -0.8569  1.0864
18339SOL     OW56755   4.901   0.839   9.199  0.3900  0.2699  0.4676
18339SOL    HW156756   4.872   0.815   9.287 -1.6523 -2.1328 -0.7193
18339SOL    HW256757   4.857   0.922   9.181 -0.7107 -0.1490  1.0839
18340SOL     OW56758   4.671   7.540   3.292  0.1252  0.1646 -0.0954
18340SOL    HW156759   4.724   7.614   3.322 -0.1620 -0.3048  1.6972
18340SOL    HW256760   4.731   7.487   3.239  0.9571  0.5727  0.4177
18341SOL     OW56761   8.983   1.951   5.555  0.1965 -0.4560 -0.2149
18341SOL    HW156762   9.056   1.952   5.492  0.8780  2.5723  0.4765
18341SOL    HW256763   8.959   2.043   5.565 -0.7440 -0.9531  3.0080
18342SOL     OW56764   4.625   3.748   1.226  0.4395 -0.1806  0.5587
18342SOL    HW156765   4.669   3.748   1.311 -0.4041  0.5326  1.0092
18342SOL    HW256766   4.659   3.826   1.182  0.9406 -0.5965  0.1977
18343SOL     OW56767   8.277   2.398   0.858  0.1384 -0.0747  0.3889
18343SOL    HW156768   8.333   2.442   0.922  1.5474  0.1470 -0.9286
18343SOL    HW256769   8.209   2.356   0.910  1.6180 -0.4837  2.0761
18344SOL     OW56770   6.671   7.992   8.369 -0.5985  0.2636 -0.2451
18344SOL    HW156771   6.681   7.926   8.438  2.0552  2.7325  1.9965
18344SOL    HW256772   6.715   7.954   8.294  0.0942 -0.9152  0.7129
18345SOL     OW56773   4.350   6.087   2.201 -0.3926 -0.0538 -0.2451
18345SOL    HW156774   4.375   6.099   2.109 -0.4664 -0.3689 -0.3063
18345SOL    HW256775   4.261   6.052   2.197  0.2666 -1.8524 -0.1017
18346SOL     OW56776   0.775   6.111   1.286  0.6061 -0.5271 -0.4469
18346SOL    HW156777   0.733   6.080   1.366  0.0297  1.5900  0.1390
18346SOL    HW256778   0.742   6.054   1.217 -0.6728 -0.9597  0.4939
18347SOL     OW56779   1.085   4.232   0.610  0.1493  0.4309 -0.0756
18347SOL    HW156780   1.009   4.207   0.556  0.7180  0.0910 -0.7458
18347SOL    HW256781   1.153   4.169   0.585  1.0540  1.5195 -0.4291
18348SOL     OW56782   7.451   4.718   4.157 -0.2514  0.0724  0.1396
18348SOL    HW156783   7.536   4.758   4.139  0.2269 -0.5497  0.9675
18348SOL    HW256784   7.445   4.645   4.094 -0.0664 -0.0297  0.2401
18349SOL     OW56785   2.581   4.416   6.397 -0.2206 -0.3186  0.0557
18349SOL    HW156786   2.597   4.454   6.484 -0.8690  0.2556 -0.0668
18349SOL    HW256787   2.515   4.473   6.358 -0.8671 -1.3110 -0.3252
18350SOL     OW56788   1.709   8.475   3.382  0.5548 -0.1613  0.3593
18350SOL    HW156789   1.704   8.570   3.374 -0.1149 -0.3057 -1.4249
18350SOL    HW256790   1.788   8.459   3.434  1.1257  1.3391 -0.0012
18351SOL     OW56791   0.235   0.912   8.939 -0.0212  0.4316 -0.9195
18351SOL    HW156792   0.217   0.998   8.977 -3.3412 -0.5198  0.0496
18351SOL    HW256793   0.281   0.864   9.008  1.5970  1.2876 -1.3659
18352SOL     OW56794   4.452   7.994   9.025 -0.0742 -0.2797  0.5293
18352SOL    HW156795   4.541   7.961   9.032  0.1404  0.2264  0.2700
18352SOL    HW256796   4.404   7.927   8.977  0.2456 -0.4016  0.3803
18353SOL     OW56797   7.018   0.196   0.551  0.3182 -0.0938 -0.0304
18353SOL    HW156798   6.937   0.198   0.602  0.0169 -1.9033 -0.3620
18353SOL    HW256799   7.040   0.103   0.546  0.2172 -0.0753 -3.3368
18354SOL     OW56800   7.205   9.497   2.660  0.3448 -0.0400 -0.3435
18354SOL    HW156801   7.142   9.458   2.599  0.3200 -1.6649  0.6819
18354SOL    HW256802   7.281   9.439   2.656  0.3810 -0.1153  1.0800
18355SOL     OW56803   4.622   4.579   5.340 -0.0863  0.7154  0.0276
18355SOL    HW156804   4.552   4.519   5.366  0.7005  0.4386  1.7230
18355SOL    HW256805   4.586   4.666   5.352  0.0240  0.5845  1.5575
18356SOL     OW56806   4.648   2.589   6.465  0.1769 -0.2480 -0.4382
18356SOL    HW156807   4.733   2.628   6.443 -0.5022  0.6685 -1.5109
18356SOL    HW256808   4.650   2.503   6.422  1.4363 -1.2284  1.4342
18357SOL     OW56809   5.321   7.527   8.019 -0.2574  0.3590 -0.6162
18357SOL    HW156810   5.291   7.616   8.001  0.5055  0.5969 -0.7612
18357SOL    HW256811   5.261   7.471   7.970 -0.6528  0.8013 -0.6425
18358SOL     OW56812   4.772   1.819   3.066  0.0597  0.9051  0.3356
18358SOL    HW156813   4.744   1.896   3.016  0.7947  1.1121  0.2308
18358SOL    HW256814   4.844   1.851   3.120 -1.0609  0.8283  1.9700
18359SOL     OW56815   0.858   4.584   5.787  0.2062 -0.3752  0.6111
18359SOL    HW156816   0.845   4.548   5.699 -1.3799 -0.1569  0.7158
18359SOL    HW256817   0.779   4.635   5.803  0.2469 -0.8127  2.3590
18360SOL     OW56818   2.713   2.285   8.782  0.1414  0.7685  0.2831
18360SOL    HW156819   2.648   2.250   8.842 -0.0888  3.1286  1.4968
18360SOL    HW256820   2.663   2.311   8.705  0.0791  0.1100  0.0881
18361SOL     OW56821   3.105   7.791   3.813  0.0511  0.3761  0.3708
18361SOL    HW156822   3.104   7.770   3.906  0.4273  1.6760  0.6867
18361SOL    HW256823   3.088   7.707   3.769 -0.6290 -0.1558  1.6098
18362SOL     OW56824   4.845   4.581   9.068 -0.1597 -0.1042  0.6030
18362SOL    HW156825   4.795   4.524   9.127  0.8544  0.5877  2.2202
18362SOL    HW256826   4.780   4.642   9.033 -0.9547 -1.1590  0.2118
18363SOL     OW56827   1.968   5.569   9.295  0.4764 -0.5195 -0.2930
18363SOL    HW156828   1.888   5.621   9.292  1.4172  0.9924 -0.2013
18363SOL    HW256829   2.004   5.574   9.207  0.8047 -0.6446 -0.1701
18364SOL     OW56830   9.102   0.841   2.116  0.1661  0.3924 -0.1518
18364SOL    HW156831   9.037   0.810   2.053  0.7455 -0.4889 -0.3317
18364SOL    HW256832   9.086   0.788   2.194 -0.4241  1.3486  0.3996
18365SOL     OW56833   2.094   1.726   3.621  0.9147 -0.1248 -0.2744
18365SOL    HW156834   2.165   1.753   3.679  1.7720 -0.1698 -1.2805
18365SOL    HW256835   2.102   1.783   3.545  0.4792 -0.7837 -0.8260
18366SOL     OW56836   0.391   7.268   0.216 -0.4319  0.7198 -0.1235
18366SOL    HW156837   0.355   7.186   0.249 -0.0795  0.1766 -1.0405
18366SOL    HW256838   0.486   7.257   0.222 -0.3854  1.3310  0.3684
18367SOL     OW56839   1.319   3.064   6.748 -0.2444  0.1077  0.2382
18367SOL    HW156840   1.303   3.040   6.839  2.1010  1.2900  1.0360
18367SOL    HW256841   1.285   3.153   6.740 -0.3404  0.0493 -0.0056
18368SOL     OW56842   3.218   0.930   5.949  0.3783  0.1907 -0.4157
18368SOL    HW156843   3.278   0.855   5.947  0.3241  0.0767  1.2022
18368SOL    HW256844   3.185   0.936   5.859  1.0810 -1.1532 -0.7953
18369SOL     OW56845   7.599   7.453   4.499 -0.1860 -0.1917  0.1472
18369SOL    HW156846   7.593   7.515   4.572  0.6338 -0.0988  0.1468
18369SOL    HW256847   7.513   7.412   4.495 -0.6039  0.6270  0.4365
18370SOL     OW56848   8.140   1.331   5.086  0.7079  0.4274  0.0465
18370SOL    HW156849   8.225   1.288   5.097 -0.2307 -1.1566  1.7012
18370SOL    HW256850   8.138   1.397   5.156  0.7472  0.7629 -0.2677
18371SOL     OW56851   1.360   1.089   2.411 -0.0790  0.6272  0.1018
18371SOL    HW156852   1.279   1.128   2.444 -0.1492  0.6341 -0.0806
18371SOL    HW256853   1.391   1.033   2.483  0.3467  1.4921  0.6215
18372SOL     OW56854   1.196   7.470   3.142  0.1297 -0.5328 -0.1715
18372SOL    HW156855   1.168   7.501   3.056  1.5197  0.4744 -0.3125
18372SOL    HW256856   1.194   7.548   3.197  0.1084 -0.9796  0.4690
18373SOL     OW56857   7.593   7.645   5.820  0.1890  0.0213  0.4431
18373SOL    HW156858   7.501   7.622   5.803  0.2414 -0.2296  0.4881
18373SOL    HW256859   7.625   7.679   5.736 -0.0298  0.4004  0.5113
18374SOL     OW56860   5.765   2.892   5.848  0.1949 -0.3449  0.2534
18374SOL    HW156861   5.775   2.981   5.880  1.1755 -0.5100  0.4367
18374SOL    HW256862   5.854   2.855   5.850 -0.3076 -1.5937  0.9555
18375SOL     OW56863   6.920   6.165   3.218 -0.1698 -0.8351 -0.2138
18375SOL    HW156864   6.932   6.255   3.189 -0.2226 -0.0786  1.9602
18375SOL    HW256865   7.009   6.129   3.221 -0.1569 -0.8973 -1.1653
18376SOL     OW56866   0.881   7.191   2.570  0.3707  0.7626 -0.3182
18376SOL    HW156867   0.909   7.108   2.533  1.0005  1.2349 -0.9222
18376SOL    HW256868   0.934   7.257   2.525 -0.1685  1.4982  0.0962
18377SOL     OW56869   8.441   5.004   5.112 -0.4754 -0.1135 -0.3592
18377SOL    HW156870   8.470   5.018   5.202  0.6222 -0.5216 -0.6393
18377SOL    HW256871   8.401   4.917   5.113  3.0529 -1.9258 -1.0319
18378SOL     OW56872   3.017   2.146   1.137 -0.3500  0.1240  0.2237
18378SOL    HW156873   2.989   2.204   1.066 -2.0075 -0.8907  0.0078
18378SOL    HW256874   3.089   2.095   1.100  1.1102  1.9315  0.4016
18379SOL     OW56875   2.063   7.551   6.422 -0.3463  0.4840  0.1985
18379SOL    HW156876   2.151   7.574   6.391  0.4866  0.6819  2.4960
18379SOL    HW256877   2.041   7.620   6.484 -0.7239 -1.1972  2.0574
18380SOL     OW56878   6.674   7.497   8.926 -0.1133  0.1132 -0.4867
18380SOL    HW156879   6.621   7.451   8.860  1.2772  0.2583 -1.7608
18380SOL    HW256880   6.744   7.435   8.947  0.8356  0.9839 -0.9987
18381SOL     OW56881   2.660   7.610   5.328 -0.4739  0.2615 -0.1325
18381SOL    HW156882   2.729   7.656   5.376 -0.5939 -0.2100  0.5019
18381SOL    HW256883   2.686   7.518   5.330  0.7589  0.4531 -3.0489
18382SOL     OW56884   4.152   9.251   6.171 -0.1554  0.4873 -0.1802
18382SOL    HW156885   4.128   9.272   6.262 -0.4310  2.8950 -0.7269
18382SOL    HW256886   4.234   9.298   6.157 -0.0993  0.1060 -1.1593
18383SOL     OW56887   7.298   0.388   6.754 -0.1052 -0.1573  0.1153
18383SOL    HW156888   7.319   0.419   6.666  0.1608  1.0551  0.5782
18383SOL    HW256889   7.270   0.297   6.742 -0.6866  0.1823 -1.2962
18384SOL     OW56890   3.623   6.829   2.346  0.9025 -0.2879 -0.0489
18384SOL    HW156891   3.599   6.761   2.283  1.8187 -0.2179 -0.4875
18384SOL    HW256892   3.719   6.836   2.339  0.7268  2.1041 -1.1159
18385SOL     OW56893   4.856   8.272   0.584  0.0270 -0.2641  0.4167
18385SOL    HW156894   4.918   8.340   0.612  0.8579 -1.5826  1.9500
18385SOL    HW256895   4.907   8.192   0.583 -1.9122 -1.7295  3.3709
18386SOL     OW56896   2.410   5.318   4.527 -0.0534 -0.8872  0.5043
18386SOL    HW156897   2.394   5.410   4.508  1.2697 -0.6604  0.3484
18386SOL    HW256898   2.505   5.308   4.520 -0.3325 -2.8395 -2.0551
18387SOL     OW56899   1.221   3.457   1.317  0.3375 -0.0288 -0.2001
18387SOL    HW156900   1.160   3.519   1.278 -0.1785  0.3529  1.1573
18387SOL    HW256901   1.284   3.511   1.365 -0.0780 -0.5208  0.9402
18388SOL     OW56902   7.719   3.394   4.316  0.2303  0.0712  0.1726
18388SOL    HW156903   7.678   3.375   4.232  1.3338  0.7014 -0.5320
18388SOL    HW256904   7.800   3.344   4.315 -0.0436 -0.4094  1.1421
18389SOL     OW56905   6.201   7.410   3.842  0.4270 -0.1305 -0.9775
18389SOL    HW156906   6.269   7.472   3.866  1.2657 -2.0324  2.0512
18389SOL    HW256907   6.119   7.451   3.868  0.9026  0.0377  0.2831
18390SOL     OW56908   7.938   5.853   2.771 -0.4972 -0.3374 -0.0022
18390SOL    HW156909   7.916   5.760   2.770 -1.2415 -0.1703  0.3767
18390SOL    HW256910   8.033   5.855   2.782 -0.6240 -1.0511  1.4132
18391SOL     OW56911   9.137   9.307   2.388 -0.4166 -0.1911 -0.2218
18391SOL    HW156912   9.042   9.307   2.376 -0.3491  0.9636 -0.9533
18391SOL    HW256913   9.152   9.370   2.459 -0.3532 -2.3476  1.7826
18392SOL     OW56914   3.081   7.357   1.339 -0.2077 -0.2258 -0.4779
18392SOL    HW156915   3.097   7.446   1.307  0.6912 -0.2693 -0.1488
18392SOL    HW256916   2.987   7.355   1.356 -0.2110  0.7167 -0.3228
18393SOL     OW56917   8.520   7.002   6.889 -0.1293 -0.6327 -0.2916
18393SOL    HW156918   8.501   7.048   6.807 -1.1273 -0.3024  0.1013
18393SOL    HW256919   8.487   6.913   6.875  1.4608 -1.1522 -0.9177
18394SOL     OW56920   7.965   7.172   6.991 -0.0904 -0.0661 -0.0824
18394SOL    HW156921   8.045   7.120   6.991  2.1664  3.1222  0.0426
18394SOL    HW256922   7.948   7.188   6.898 -0.2474 -0.2268 -0.0826
18395SOL     OW56923   6.147   1.991   0.900 -0.2399  0.2109  0.4090
18395SOL    HW156924   6.132   2.068   0.956  0.0095  0.5282  0.0492
18395SOL    HW256925   6.240   1.995   0.879 -0.4787  0.5301 -0.6479
18396SOL     OW56926   3.863   0.804   3.610 -0.5053  0.0760 -0.6045
18396SOL    HW156927   3.800   0.797   3.539  0.0887  0.4764 -1.1842
18396SOL    HW256928   3.924   0.873   3.582  1.0093 -1.2520 -0.7171
18397SOL     OW56929   8.077   4.949   2.083  0.6171  0.0523  0.3243
18397SOL    HW156930   8.106   4.868   2.042 -0.1373  0.8855 -2.0186
18397SOL    HW256931   8.158   4.993   2.109  1.0845 -0.8655  0.4469
18398SOL     OW56932   3.528   7.852   5.622 -0.6896  0.4008 -0.0128
18398SOL    HW156933   3.532   7.757   5.626 -2.8609  0.3080  2.0493
18398SOL    HW256934   3.600   7.882   5.678 -0.7663 -0.0598  0.3340
18399SOL     OW56935   6.818   7.511   0.651  0.5840  0.0518  0.3090
18399SOL    HW156936   6.823   7.432   0.597  1.1268  1.0238 -1.1150
18399SOL    HW256937   6.908   7.525   0.681  0.3544 -0.2622  1.1853
18400SOL     OW56938   4.416   2.520   7.027  0.5720 -0.2712 -0.4469
18400SOL    HW156939   4.437   2.546   6.937  1.0462  0.3370 -0.1760
18400SOL    HW256940   4.492   2.550   7.078 -0.2050  0.4283  0.3192
18401SOL     OW56941   8.585   9.014   8.493  0.0828 -0.5763  0.3269
18401SOL    HW156942   8.674   9.014   8.456  0.0100 -0.0850  0.1437
18401SOL    HW256943   8.595   9.052   8.579 -0.1624  0.8160 -0.2410
18402SOL     OW56944   5.558   4.022   4.762 -0.6381 -0.2653 -0.2318
18402SOL    HW156945   5.643   4.067   4.767 -0.3159 -0.6481 -1.7880
18402SOL    HW256946   5.494   4.093   4.750 -0.2082 -0.1280 -1.9693
18403SOL     OW56947   0.571   4.442   0.924 -0.0668 -0.2248  0.2005
18403SOL    HW156948   0.634   4.497   0.969 -0.0813 -0.3475  0.3717
18403SOL    HW256949   0.518   4.403   0.994 -0.5792  0.1696  0.0394
18404SOL     OW56950   3.258   5.068   2.886 -0.0118  0.3552  0.2637
18404SOL    HW156951   3.189   5.086   2.823 -0.0163  0.5639  0.3288
18404SOL    HW256952   3.296   5.154   2.906 -0.4566  0.3711  1.0657
18405SOL     OW56953   7.875   1.546   0.273  0.0893  0.6138  0.8023
18405SOL    HW156954   7.832   1.566   0.357  1.3230  0.3965  1.5051
18405SOL    HW256955   7.869   1.451   0.266 -1.6714  0.7498 -0.3045
18406SOL     OW56956   7.007   8.481   0.026 -0.2445  0.0835  0.1938
18406SOL    HW156957   6.932   8.486  -0.034 -0.1753 -2.5472 -0.2308
18406SOL    HW256958   6.980   8.417   0.093  1.4998 -0.7719  0.1429
18407SOL     OW56959   9.255   6.924   9.370  0.1649 -0.1471 -0.3593
18407SOL    HW156960   9.226   6.835   9.388  1.2447 -0.2960  0.7156
18407SOL    HW256961   9.182   6.963   9.322 -1.4946 -0.7534  1.5254
18408SOL     OW56962   1.205   8.699   0.707  0.1127 -0.2979  0.7072
18408SOL    HW156963   1.110   8.697   0.716  0.1458 -1.5593  1.1172
18408SOL    HW256964   1.221   8.720   0.615 -0.5444  0.3001  0.7226
18409SOL     OW56965   2.464   5.008   9.396  0.4214 -0.9384  0.9800
18409SOL    HW156966   2.467   4.913   9.385  0.9446 -0.6960 -1.6847
18409SOL    HW256967   2.546   5.039   9.357  0.7559  0.5702  2.7490
18410SOL     OW56968   0.310   4.642   7.043 -0.0994  0.4900 -0.4441
18410SOL    HW156969   0.223   4.618   7.012  0.0057 -1.5723  0.6838
18410SOL    HW256970   0.366   4.636   6.965 -0.3084 -1.9870 -0.4882
18411SOL     OW56971   8.027   1.589   8.428  0.6774 -0.3899  0.1130
18411SOL    HW156972   8.098   1.598   8.365  2.6163  0.1583  2.2493
18411SOL    HW256973   8.043   1.504   8.470  0.5859  0.1170  1.1998
18412SOL     OW56974   3.785   0.815   2.814  0.0962  0.4134 -0.4025
18412SOL    HW156975   3.862   0.867   2.791 -0.0247  0.4520 -0.7296
18412SOL    HW256976   3.777   0.825   2.909 -0.2880  1.5079 -0.5350
18413SOL     OW56977   9.039   5.269   1.657  0.1090 -0.1679  0.4096
18413SOL    HW156978   8.996   5.322   1.590  2.5202  0.3571 -0.8386
18413SOL    HW256979   9.118   5.236   1.614 -0.5746 -3.7218  1.5436
18414SOL     OW56980   7.131   5.431   0.511 -0.2315  0.3365  0.1594
18414SOL    HW156981   7.038   5.410   0.501  0.2878 -1.3350 -2.0638
18414SOL    HW256982   7.174   5.382   0.440  2.2786  1.5454  0.7404
18415SOL     OW56983   2.482   5.605   0.019 -0.1759  0.2708  0.1874
18415SOL    HW156984   2.415   5.537   0.015 -1.0920  1.0419  1.3643
18415SOL    HW256985   2.445   5.679  -0.029  0.6143  0.1060 -0.6976
18416SOL     OW56986   5.188   7.022   4.240  0.2793  0.6839  0.2522
18416SOL    HW156987   5.158   6.932   4.246 -2.2656  1.4647  0.3249
18416SOL    HW256988   5.223   7.030   4.151  0.2236 -0.2693  0.1362
18417SOL     OW56989   2.065   3.049   1.430 -0.4957  0.1424 -0.3405
18417SOL    HW156990   1.969   3.057   1.431 -0.4991  1.1784  2.4601
18417SOL    HW256991   2.085   3.002   1.511  1.4100  1.1545 -0.1825
18418SOL     OW56992   1.787   0.653   3.380  0.1832  0.6201  0.2505
18418SOL    HW156993   1.796   0.739   3.422 -3.3312  0.9840  0.6449
18418SOL    HW256994   1.764   0.672   3.290  1.7473 -0.0273 -0.3158
18419SOL     OW56995   7.208   6.533   6.782  0.1254 -1.0013  0.3314
18419SOL    HW156996   7.205   6.615   6.732 -0.5975 -1.7545 -0.9251
18419SOL    HW256997   7.201   6.560   6.873 -0.2324  0.3353 -0.0701
18420SOL     OW56998   4.796   1.138   5.047 -0.3332  0.3376  0.2646
18420SOL    HW156999   4.795   1.050   5.086 -1.1173  0.4412  0.5005
18420SOL    HW257000   4.884   1.148   5.012 -0.2037 -0.5063  0.3287
18421SOL     OW57001   4.956   5.737   7.361 -0.4693 -0.4011 -0.2224
18421SOL    HW157002   4.896   5.714   7.432  1.2142 -0.3577  1.2571
18421SOL    HW257003   4.983   5.653   7.325 -1.2792 -0.4245 -0.8122
18422SOL     OW57004   2.534   5.872   1.374 -0.5628 -0.3919  0.3144
18422SOL    HW157005   2.482   5.922   1.312 -0.4313  0.3379  0.7783
18422SOL    HW257006   2.480   5.796   1.395 -2.0227  0.9834  1.7498
18423SOL     OW57007   8.768   1.407   2.758 -0.5182 -0.5728  0.3674
18423SOL    HW157008   8.799   1.391   2.847  1.4225  0.9499  0.0474
18423SOL    HW257009   8.832   1.363   2.702  0.8190  2.0047 -0.3040
18424SOL     OW57010   3.284   9.504   5.011  0.1041  0.1203  0.8234
18424SOL    HW157011   3.321   9.570   5.071  1.8973  1.9960 -2.1091
18424SOL    HW257012   3.349   9.496   4.942 -2.1490 -1.4252 -1.2573
18425SOL     OW57013   2.850   4.399   7.659 -0.3193 -0.3539  0.7513
18425SOL    HW157014   2.773   4.410   7.715  2.0101 -0.0725  4.1843
18425SOL    HW257015   2.912   4.466   7.688  2.0738 -1.9590 -0.2788
18426SOL     OW57016   7.702   5.171   7.501 -0.6318  0.0590  0.3707
18426SOL    HW157017   7.731   5.126   7.581  1.0807  0.5027  0.0454
18426SOL    HW257018   7.726   5.112   7.430 -2.1591 -0.3376  0.1554
18427SOL     OW57019   3.854   7.436   3.887  0.5255 -0.2099  0.9210
18427SOL    HW157020   3.812   7.484   3.958  0.7571  1.5633 -0.0861
18427SOL    HW257021   3.782   7.390   3.844  0.0443  0.4482  1.0061
18428SOL     OW57022   4.793   4.542   9.511  0.1279 -0.0082  0.1590
18428SOL    HW157023   4.813   4.562   9.603  0.9153 -0.2821  0.0573
18428SOL    HW257024   4.874   4.562   9.464 -0.3918  0.4854 -0.5349
18429SOL     OW57025   0.222   3.482   9.118  0.3260 -0.0818 -0.4307
18429SOL    HW157026   0.313   3.456   9.127  1.0655  1.5335 -2.2712
18429SOL    HW257027   0.204   3.536   9.195  1.3340  0.5558 -0.6186
18430SOL     OW57028   5.701   5.833   7.986 -0.2034  0.6927  0.0797
18430SOL    HW157029   5.693   5.850   8.080 -0.9000  2.4271 -0.2512
18430SOL    HW257030   5.624   5.779   7.965  0.0387  0.1675  0.5231
18431SOL     OW57031   2.961   6.118   3.664  0.2291  0.2628 -0.4817
18431SOL    HW157032   2.929   6.171   3.737  1.8818  0.4529  0.1484
18431SOL    HW257033   3.025   6.059   3.703 -2.2908 -3.0888 -0.9333
18432SOL     OW57034   6.634   8.915   0.395  0.1672  0.2969  0.3444
18432SOL    HW157035   6.653   8.869   0.477 -1.9407 -0.1738  0.6119
18432SOL    HW257036   6.658   9.006   0.413  0.0719  0.1359  1.3579
18433SOL     OW57037   7.018   4.537   7.196  0.8513  0.1909 -0.1704
18433SOL    HW157038   7.083   4.501   7.135  2.5735  0.3328  1.5086
18433SOL    HW257039   7.051   4.624   7.218 -0.4699  0.6845 -0.0695
18434SOL     OW57040   6.408   1.838   8.496  0.0063  0.1101  0.0070
18434SOL    HW157041   6.328   1.882   8.465  0.0375  1.2991  1.4783
18434SOL    HW257042   6.410   1.755   8.448 -2.4706 -0.2456  0.3751
18435SOL     OW57043   9.028   5.829   0.017  0.4490 -0.5708  0.0649
18435SOL    HW157044   9.005   5.786  -0.066  1.1402  0.0399 -0.4508
18435SOL    HW257045   8.943   5.847   0.058  0.1105 -1.3355 -0.2688
18436SOL     OW57046   0.534   1.330   0.145 -0.0241  0.4801  0.4795
18436SOL    HW157047   0.577   1.325   0.060 -1.9880 -1.3873 -0.4895
18436SOL    HW257048   0.596   1.378   0.200  2.2426 -0.0972 -1.4157
18437SOL     OW57049   2.257   0.513   9.537 -0.0155 -0.5977 -0.3719
18437SOL    HW157050   2.241   0.586   9.598 -0.6021  0.4125 -1.6886
18437SOL    HW257051   2.291   0.442   9.593  1.9803  1.1225  0.7562
18438SOL     OW57052   3.959   1.728   1.359 -0.2831 -0.0954  0.4414
18438SOL    HW157053   4.047   1.716   1.395  0.5534  1.1690 -1.0544
18438SOL    HW257054   3.934   1.641   1.328  0.6318 -0.3840  0.4771
18439SOL     OW57055   1.627   7.014   3.996 -0.0802  0.3311  0.0149
18439SOL    HW157056   1.558   7.001   3.931  0.2163 -0.7486 -0.1111
18439SOL    HW257057   1.692   7.069   3.952 -0.7846  1.2426  0.0887
18440SOL     OW57058   3.650   0.470   0.335  0.4613 -0.7128 -0.5249
18440SOL    HW157059   3.698   0.389   0.354  1.9531 -0.3387 -2.3371
18440SOL    HW257060   3.614   0.456   0.247  1.3000  0.7877 -1.1536
18441SOL     OW57061   8.986   7.718   4.337  0.2116  0.7620  0.1125
18441SOL    HW157062   8.906   7.729   4.284 -1.1482 -0.0649  1.8973
18441SOL    HW257063   9.028   7.641   4.300 -0.4706  0.4644 -0.0578
18442SOL     OW57064   5.476   6.237   1.134 -0.1791  0.2303 -0.2246
18442SOL    HW157065   5.471   6.141   1.137 -0.0258  0.2364  0.8599
18442SOL    HW257066   5.564   6.257   1.164 -0.3485  0.7220 -0.0494
18443SOL     OW57067   0.403   5.019   6.003  0.0272 -0.7210  0.1002
18443SOL    HW157068   0.392   5.112   5.983 -4.0207 -0.9499  0.4985
18443SOL    HW257069   0.459   4.986   5.933  0.6881  1.7866 -0.6583
18444SOL     OW57070   3.448   4.999   1.964  0.3435 -0.0919  0.2580
18444SOL    HW157071   3.386   4.966   1.899  0.1421  0.8299 -0.0355
18444SOL    HW257072   3.394   5.042   2.030  0.4993 -1.5460  1.3981
18445SOL     OW57073   0.733   8.163   8.255 -0.6631 -0.4238  0.0875
18445SOL    HW157074   0.818   8.141   8.294 -0.5468  1.0716  0.7736
18445SOL    HW257075   0.683   8.082   8.256  1.1924 -1.6678 -1.5195
18446SOL     OW57076   7.636   8.857   0.002  0.1394 -0.1630  0.1674
18446SOL    HW157077   7.699   8.802  -0.044  0.1388  0.0426 -0.0860
18446SOL    HW257078   7.585   8.796   0.055  0.8506 -0.2817  0.7335
18447SOL     OW57079   1.282   0.661   5.930 -0.0155  0.3715 -0.1444
18447SOL    HW157080   1.295   0.573   5.895 -3.5169 -0.0330 -0.7832
18447SOL    HW257081   1.343   0.667   6.005  0.2020 -2.6323  0.0147
18448SOL     OW57082   9.361   2.334   4.217  0.5454  0.1463  0.2407
18448SOL    HW157083   9.271   2.365   4.207  0.7474  0.3529 -1.1054
18448SOL    HW257084   9.357   2.272   4.290 -0.4524  1.0313  0.9573
18449SOL     OW57085   5.966   3.165   7.123  0.1248 -0.1629  0.1287
18449SOL    HW157086   5.930   3.171   7.212  0.5866  2.1629  0.2237
18449SOL    HW257087   6.043   3.110   7.133  0.1450  0.0278  1.1943
18450SOL     OW57088   6.107   5.001   1.774 -0.1347 -0.3508  0.1833
18450SOL    HW157089   6.042   5.068   1.753  2.2794  1.7935 -1.0114
18450SOL    HW257090   6.147   4.980   1.689  1.5947 -0.6130  1.0259
18451SOL     OW57091   2.379   6.166   1.727 -0.2675 -0.2757  0.8211
18451SOL    HW157092   2.441   6.197   1.793  2.0964  1.5107 -2.0275
18451SOL    HW257093   2.429   6.105   1.673 -0.9358  1.0918 -1.4675
18452SOL     OW57094   8.859   0.356   2.905  0.4321 -0.3851 -0.0176
18452SOL    HW157095   8.858   0.261   2.915  0.5085 -0.3190  0.6698
18452SOL    HW257096   8.839   0.390   2.992 -0.9132  0.2272 -0.5412
18453SOL     OW57097   5.694   1.503   9.610  0.4761 -0.6004  0.0090
18453SOL    HW157098   5.762   1.562   9.577 -0.2005  0.3349  0.2460
18453SOL    HW257099   5.688   1.523   9.703 -1.8404  1.1534 -0.4385
18454SOL     OW57100   2.441   0.104   1.677 -0.1170  0.1449 -0.4232
18454SOL    HW157101   2.523   0.073   1.639  0.5370 -0.3731  1.3353
18454SOL    HW257102   2.418   0.039   1.742 -1.1301  1.0645  0.1761
18455SOL     OW57103   4.551   5.978   7.857  0.0062  0.1968 -0.1101
18455SOL    HW157104   4.603   6.055   7.833  0.2629 -0.5678 -2.1867
18455SOL    HW257105   4.513   5.948   7.775  0.0376 -1.9941  0.6241
18456SOL     OW57106   7.181   0.823   5.536 -0.1834 -0.3668  0.5156
18456SOL    HW157107   7.195   0.915   5.518 -2.1884 -0.0681  0.2099
18456SOL    HW257108   7.117   0.795   5.470 -0.9959 -1.5083  1.7355
18457SOL     OW57109   8.691   9.266   1.230  0.4423  0.3335 -0.1862
18457SOL    HW157110   8.771   9.273   1.178  1.0289  2.2381  0.8702
18457SOL    HW257111   8.700   9.183   1.277  1.8675  0.5613 -0.0100
18458SOL     OW57112   7.493   9.501   1.065 -0.5631 -0.5169 -0.8561
18458SOL    HW157113   7.580   9.540   1.074  0.3047 -2.3631 -0.7504
18458SOL    HW257114   7.438   9.573   1.033  0.5156  1.2250  0.9516
18459SOL     OW57115   4.350   8.445   8.163 -0.0806 -0.5162 -0.0482
18459SOL    HW157116   4.301   8.525   8.144 -0.4054 -0.6178  0.3538
18459SOL    HW257117   4.339   8.431   8.257 -0.7437 -1.5005 -0.2531
18460SOL     OW57118   0.261   0.835   3.559 -0.2579  0.4709  0.1957
18460SOL    HW157119   0.231   0.785   3.483 -1.7920  0.1041  1.0072
18460SOL    HW257120   0.319   0.902   3.522 -0.7055  0.1018 -1.2478
18461SOL     OW57121   5.306   5.678   3.679  0.6637 -0.3516  0.0210
18461SOL    HW157122   5.264   5.592   3.690 -0.5537 -0.0892 -2.0055
18461SOL    HW257123   5.312   5.713   3.768 -1.5064 -1.3291  0.6291
18462SOL     OW57124   8.473   4.814   3.184 -0.0948  0.1734 -0.1044
18462SOL    HW157125   8.443   4.906   3.183 -0.8165 -0.0492 -1.3060
18462SOL    HW257126   8.425   4.774   3.257 -1.3973  0.2658 -0.8820
18463SOL     OW57127   8.165   6.183   4.793 -0.5930 -0.1096  0.2224
18463SOL    HW157128   8.224   6.116   4.830 -0.7194  0.3592  1.2987
18463SOL    HW257129   8.083   6.136   4.776 -0.9142 -0.0823  1.6461
18464SOL     OW57130   7.224   1.882   1.817 -0.3965  0.1109  0.8046
18464SOL    HW157131   7.128   1.885   1.822 -0.4756  0.2874 -0.4414
18464SOL    HW257132   7.252   1.962   1.861 -0.7827 -0.2061  1.6568
18465SOL     OW57133   3.543   3.724   5.198 -0.2837 -0.4271 -0.1098
18465SOL    HW157134   3.532   3.806   5.150 -1.4592  0.5684  1.7461
18465SOL    HW257135   3.500   3.659   5.143 -1.0966  0.5502 -0.6686
18466SOL     OW57136   5.498   4.460   4.737  0.3177  0.1483  0.1387
18466SOL    HW157137   5.536   4.419   4.659  0.2602 -1.0777  0.7240
18466SOL    HW257138   5.516   4.553   4.727 -0.1706  0.0935 -1.6058
18467SOL     OW57139   2.396   4.153   8.592 -0.4226  0.1496 -0.1988
18467SOL    HW157140   2.451   4.114   8.660 -1.2253 -1.2676 -0.3199
18467SOL    HW257141   2.346   4.220   8.637  2.1279  2.2768 -0.3001
18468SOL     OW57142   2.254   6.372   1.114 -0.0263  0.6178 -0.1440
18468SOL    HW157143   2.314   6.369   1.040  0.5718 -0.4705  0.3503
18468SOL    HW257144   2.199   6.294   1.104 -1.5002  1.6930 -0.6832
18469SOL     OW57145   6.466   8.462   9.250 -0.6246 -0.2394  0.2876
18469SOL    HW157146   6.415   8.522   9.195  0.7227  0.9127  0.2387
18469SOL    HW257147   6.469   8.505   9.335  1.2965  0.3636 -0.0434
18470SOL     OW57148   1.550   1.716   3.089 -0.0792 -0.6762 -0.2246
18470SOL    HW157149   1.569   1.808   3.110  0.9437 -1.1167  0.8794
18470SOL    HW257150   1.611   1.694   3.019  0.5785 -0.8688  0.3978
18471SOL     OW57151   4.812   9.229   1.081  0.1482 -0.3491 -0.3832
18471SOL    HW157152   4.829   9.275   0.999  0.3414  0.0514 -0.1177
18471SOL    HW257153   4.750   9.160   1.056  1.6958 -1.5049 -1.2696
18472SOL     OW57154   6.321   8.140   9.599 -0.0360  0.4346  0.1030
18472SOL    HW157155   6.281   8.113   9.516 -0.0968  0.2348  0.1961
18472SOL    HW257156   6.400   8.188   9.573  0.6667 -0.7730 -0.0567
18473SOL     OW57157   2.338   7.505   4.010 -0.2921 -0.2891  0.0843
18473SOL    HW157158   2.306   7.421   4.043  2.2178 -2.4781 -2.6026
18473SOL    HW257159   2.258   7.551   3.983 -1.7052 -2.0824  0.9585
18474SOL     OW57160   1.058   3.263   9.493 -0.1916 -0.0512 -0.1242
18474SOL    HW157161   1.082   3.300   9.408 -0.6482  0.1725 -0.1583
18474SOL    HW257162   1.067   3.168   9.481  0.4275  0.0147 -0.2078
18475SOL     OW57163   3.978   3.795   6.481 -0.4718  0.0837  0.0254
18475SOL    HW157164   4.068   3.827   6.483  0.0592 -1.3928  0.9232
18475SOL    HW257165   3.961   3.764   6.570 -1.5908 -0.4139 -0.3400
18476SOL     OW57166   0.721   6.439   5.003  0.1560  0.1575 -0.2314
18476SOL    HW157167   0.756   6.402   5.085  0.0504 -0.8694 -0.6298
18476SOL    HW257168   0.756   6.528   5.000 -0.1051  0.3173  1.0888
18477SOL     OW57169   0.305   6.973   2.373  0.3896 -0.2679 -0.1199
18477SOL    HW157170   0.232   6.920   2.340 -0.0292  0.2479 -0.0339
18477SOL    HW257171   0.269   7.062   2.379  1.2445  0.1327 -0.7772
18478SOL     OW57172   5.430   3.148   6.991 -0.2400 -0.2801 -0.4418
18478SOL    HW157173   5.506   3.092   7.002  0.4800  0.5556 -0.9657
18478SOL    HW257174   5.445   3.222   7.049 -0.0619  0.4579 -1.3876
18479SOL     OW57175   6.297   0.815   3.254  0.1815 -0.1955 -0.0679
18479SOL    HW157176   6.204   0.830   3.232 -0.3584  1.1250  2.7423
18479SOL    HW257177   6.301   0.721   3.275 -0.9328  0.0626  1.4289
18480SOL     OW57178   8.142   8.708   4.395  0.1284 -0.2105  0.3434
18480SOL    HW157179   8.048   8.723   4.404  0.4354  1.9270  0.4165
18480SOL    HW257180   8.172   8.689   4.484 -0.2635 -1.1787  0.2757
18481SOL     OW57181   8.126   4.149   6.198  0.0295 -0.5939  0.5227
18481SOL    HW157182   8.202   4.179   6.248  1.8220 -0.3222 -2.1474
18481SOL    HW257183   8.145   4.176   6.108 -4.4169  1.6668  0.0191
18482SOL     OW57184   7.788   1.536   8.553 -0.0952  0.4452 -0.0223
18482SOL    HW157185   7.854   1.558   8.488  0.3876 -1.9830 -0.4664
18482SOL    HW257186   7.836   1.487   8.620 -1.3367 -1.1365 -0.2207
18483SOL     OW57187   6.754   9.429   0.047 -0.0680  0.0176 -0.0187
18483SOL    HW157188   6.751   9.335   0.066  0.5060 -0.1965 -0.9387
18483SOL    HW257189   6.662   9.456   0.046 -0.2152 -0.4407  0.6920
18484SOL     OW57190   4.788   2.823   8.256  0.5050 -0.0037 -0.0063
18484SOL    HW157191   4.803   2.820   8.162 -0.7363 -1.3623 -0.1953
18484SOL    HW257192   4.758   2.912   8.273  0.9490  0.3207 -0.8470
18485SOL     OW57193   6.858   8.059   6.985  0.2066 -0.2657  0.1818
18485SOL    HW157194   6.836   8.047   7.077  0.9076 -1.1262  0.2478
18485SOL    HW257195   6.774   8.052   6.939 -0.1900  0.4636  0.7678
18486SOL     OW57196   7.330   0.306   2.215  0.2894  0.3556  0.0180
18486SOL    HW157197   7.358   0.320   2.305  0.3077 -1.0016  0.2384
18486SOL    HW257198   7.392   0.243   2.179  0.3546  0.9711 -0.9956
18487SOL     OW57199   7.015   7.657   4.243  0.0020 -0.7140 -0.4363
18487SOL    HW157200   6.929   7.678   4.207 -0.2493  1.9173  1.4185
18487SOL    HW257201   7.076   7.712   4.193 -0.0433  0.9501  1.2046
18488SOL     OW57202   8.126   2.503   1.409 -0.5831  0.3612  0.1128
18488SOL    HW157203   8.211   2.536   1.439 -0.7900  2.9789 -1.8841
18488SOL    HW257204   8.113   2.545   1.324 -4.2275  0.6197  0.6699
18489SOL     OW57205   6.338   6.446   4.872  0.0969  0.5191  0.6669
18489SOL    HW157206   6.380   6.532   4.869  2.2346 -0.3988  1.7024
18489SOL    HW257207   6.267   6.456   4.936 -0.5676  1.8249 -0.2371
18490SOL     OW57208   2.506   3.769   1.862  0.4789  0.4197  0.2165
18490SOL    HW157209   2.585   3.758   1.810 -0.1466 -0.8873 -0.5177
18490SOL    HW257210   2.532   3.748   1.952  0.9704  0.0238 -0.0180
18491SOL     OW57211   4.627   2.381   2.823  0.5671  0.5016  0.1990
18491SOL    HW157212   4.634   2.312   2.757 -0.8390 -0.5350  1.0833
18491SOL    HW257213   4.538   2.414   2.814  0.6393  0.9327  0.9990
18492SOL     OW57214   5.536   0.246   0.163  0.3214 -0.0260 -0.6357
18492SOL    HW157215   5.631   0.250   0.149  0.2711 -1.6654 -1.7058
18492SOL    HW257216   5.525   0.183   0.233  0.0131  0.1551 -0.5205
18493SOL     OW57217   2.691   6.917   1.271  0.3485  0.3692  0.1773
18493SOL    HW157218   2.636   6.982   1.315  0.4186 -0.4211  1.4717
18493SOL    HW257219   2.725   6.963   1.194  0.5461  1.9321  1.1514
18494SOL     OW57220   0.811   1.375   6.473 -0.5230 -0.2089 -0.0176
18494SOL    HW157221   0.849   1.292   6.442  0.1778  0.0787  0.0578
18494SOL    HW257222   0.876   1.410   6.533 -0.3095  0.9370 -0.8982
18495SOL     OW57223   0.559   0.735   8.574 -0.3195 -0.4576  0.4475
18495SOL    HW157224   0.483   0.781   8.611 -1.2427 -1.9892  0.5675
18495SOL    HW257225   0.528   0.700   8.491  0.6012 -0.2386 -0.0044
18496SOL     OW57226   6.545   7.009   5.047  0.4765  0.3399  0.3672
18496SOL    HW157227   6.502   6.954   5.113  0.6176 -1.0661 -0.6661
18496SOL    HW257228   6.573   6.947   4.979  2.1653  1.4844 -0.0446
18497SOL     OW57229   6.327   9.255   4.247  0.4860  0.5057 -0.1895
18497SOL    HW157230   6.384   9.256   4.170  0.4821 -0.1506 -0.2052
18497SOL    HW257231   6.316   9.163   4.267  0.5647  0.6763  0.6607
18498SOL     OW57232   0.836   8.201   6.430  0.9308  0.3438 -0.3225
18498SOL    HW157233   0.779   8.191   6.507  0.5763  0.1689 -0.6061
18498SOL    HW257234   0.794   8.148   6.363  1.6165 -0.0636 -0.4348
18499SOL     OW57235   4.267   3.947   8.858  0.4392 -0.3940 -0.4911
18499SOL    HW157236   4.302   3.901   8.781  0.4835 -1.2563  0.0282
18499SOL    HW257237   4.181   3.909   8.872  0.2173  0.1272 -0.4126
18500SOL     OW57238   8.135   9.177   3.190 -0.2328 -0.0017  0.6886
18500SOL    HW157239   8.068   9.197   3.256 -0.0067 -0.1955  0.9806
18500SOL    HW257240   8.156   9.262   3.152 -1.2106 -0.0384  0.0367
18501SOL     OW57241   7.943   0.109   4.282 -0.2828  0.3137  0.2116
18501SOL    HW157242   7.851   0.127   4.266 -0.5720 -2.4438 -2.0967
18501SOL    HW257243   7.990   0.185   4.248 -1.6064  0.3384 -1.6538
18502SOL     OW57244   6.182   5.869   8.968 -0.2869  0.3359  0.1181
18502SOL    HW157245   6.129   5.885   9.046 -0.4322 -0.0385  0.1008
18502SOL    HW257246   6.117   5.855   8.898 -0.1574  1.3849 -0.2224
18503SOL     OW57247   4.071   8.775   0.575  0.1908 -0.1408 -0.3992
18503SOL    HW157248   4.140   8.717   0.542 -1.3846 -1.9182 -0.7931
18503SOL    HW257249   4.084   8.858   0.529  2.4843 -0.1750  0.1119
18504SOL     OW57250   9.083   6.992   2.500 -0.4410 -0.7538  0.6197
18504SOL    HW157251   9.059   6.962   2.587 -0.8106 -0.3533  0.6534
18504SOL    HW257252   9.152   7.056   2.514 -0.7612 -0.4084  0.6460
18505SOL     OW57253   9.535   5.499   1.073 -0.3847  0.5421 -0.4839
18505SOL    HW157254   9.625   5.530   1.066 -0.1035  0.5681  2.1557
18505SOL    HW257255   9.540   5.405   1.056  0.1373  0.5392 -0.3125
18506SOL     OW57256   4.526   4.490   3.219  0.5472 -0.1719  0.1245
18506SOL    HW157257   4.563   4.539   3.292  0.9750  0.7046 -0.6586
18506SOL    HW257258   4.597   4.486   3.154  0.5431 -1.8840  0.1746
18507SOL     OW57259   4.968   8.180   2.379 -0.2224  0.1610 -0.6656
18507SOL    HW157260   4.899   8.137   2.429 -1.7949  2.2029 -0.9470
18507SOL    HW257261   4.995   8.255   2.433  1.2368 -0.1407 -0.9228
18508SOL     OW57262   4.258   6.972   2.581 -0.4885 -0.2071 -0.0928
18508SOL    HW157263   4.335   7.016   2.546 -0.6148  0.0612 -0.0405
18508SOL    HW257264   4.286   6.882   2.597 -0.4219 -0.3231 -0.8412
18509SOL     OW57265   6.597   2.657   7.857  0.3947  0.6584 -0.3769
18509SOL    HW157266   6.536   2.729   7.838  0.6470  0.5002 -1.9034
18509SOL    HW257267   6.558   2.613   7.933 -1.0018  1.0187 -0.8434
18510SOL     OW57268   3.131   1.258   9.153  0.0467  0.5146 -0.4392
18510SOL    HW157269   3.061   1.250   9.218  1.8993 -0.0144  1.6037
18510SOL    HW257270   3.135   1.171   9.112 -1.2531  0.9055 -1.4708
18511SOL     OW57271   8.507   8.116   6.574 -0.0612  0.8032 -0.7184
18511SOL    HW157272   8.416   8.099   6.597 -0.2083  0.3019 -1.6140
18511SOL    HW257273   8.517   8.211   6.582 -1.2951  1.1509 -2.7327
18512SOL     OW57274   3.783   2.645   5.836 -0.6480 -0.0676 -0.1068
18512SOL    HW157275   3.766   2.552   5.854  0.0443 -0.6054 -1.9788
18512SOL    HW257276   3.855   2.668   5.894  1.1946 -1.5774 -1.6589
18513SOL     OW57277   9.129   7.813   4.712 -0.1530  0.1354 -0.1467
18513SOL    HW157278   9.098   7.729   4.679 -0.4488  0.4046 -0.5758
18513SOL    HW257279   9.109   7.811   4.806 -0.2566 -0.2302 -0.1757
18514SOL     OW57280   9.378   7.646   3.820  0.2149  0.2654 -0.3666
18514SOL    HW157281   9.357   7.673   3.909 -0.1068  0.7920 -0.6005
18514SOL    HW257282   9.452   7.702   3.795 -0.1748  0.6328 -0.6976
18515SOL     OW57283   5.348   1.489   8.789  0.4206  0.3143 -0.2552
18515SOL    HW157284   5.304   1.530   8.863 -3.4730 -1.5173 -1.3217
18515SOL    HW257285   5.395   1.414   8.827  0.6515  0.8880  0.6173
18516SOL     OW57286   3.579   1.386   0.221 -0.3992  0.4099  0.6845
18516SOL    HW157287   3.574   1.480   0.238  0.8707  0.8113 -0.9183
18516SOL    HW257288   3.506   1.368   0.161  0.3362  0.7226 -0.3272
18517SOL     OW57289   3.926   2.700   9.075 -0.1934 -0.3698 -1.1053
18517SOL    HW157290   3.865   2.767   9.045  0.2752  0.2841 -0.6263
18517SOL    HW257291   3.870   2.630   9.110 -0.7095  1.2463  1.5922
18518SOL     OW57292   7.844   3.761   1.375  0.2820 -0.0132 -0.1272
18518SOL    HW157293   7.831   3.707   1.452 -0.3578  0.6216  0.2196
18518SOL    HW257294   7.881   3.702   1.310  0.3662 -0.6659  0.5095
18519SOL     OW57295   6.919   2.997   1.598  0.0801  0.2222  0.1481
18519SOL    HW157296   6.926   3.039   1.512  2.0051  0.3820  0.3227
18519SOL    HW257297   6.997   3.028   1.645 -2.4318  2.7034  3.1484
18520SOL     OW57298   8.383   2.469   9.318  0.0690 -0.1754 -0.3164
18520SOL    HW157299   8.472   2.489   9.348  0.6090  0.6928 -2.3602
18520SOL    HW257300   8.385   2.375   9.302  0.1768 -0.4109  0.9409
18521SOL     OW57301   6.368   0.784   5.236 -0.2360 -0.0927  0.1780
18521SOL    HW157302   6.382   0.787   5.331 -2.2221  1.7499  0.4972
18521SOL    HW257303   6.432   0.845   5.200  2.0559 -2.4587  0.0203
18522SOL     OW57304   3.560   3.545   4.472 -0.7241 -0.3311  0.3099
18522SOL    HW157305   3.525   3.532   4.384 -1.3811  1.6772  0.2181
18522SOL    HW257306   3.489   3.521   4.531 -1.8604  2.2665  0.1475
18523SOL     OW57307   0.196   2.433   1.687 -0.1435  0.3147  0.0318
18523SOL    HW157308   0.264   2.392   1.633 -0.3832 -0.2198  0.1320
18523SOL    HW257309   0.116   2.386   1.665 -0.3975  0.6365  0.2570
18524SOL     OW57310   6.156   1.957   1.368  0.4976  0.1482  0.2134
18524SOL    HW157311   6.161   1.990   1.278 -1.1376 -0.3747 -0.1125
18524SOL    HW257312   6.075   1.995   1.403 -0.1728 -1.5520  0.6219
18525SOL     OW57313   8.463   4.224   8.167 -0.4153 -0.2442 -0.1754
18525SOL    HW157314   8.375   4.236   8.203 -0.2744 -1.7178  0.7285
18525SOL    HW257315   8.517   4.201   8.242  0.1096 -2.3332 -1.1231
18526SOL     OW57316   8.326   4.249   3.013  0.5536  0.4492 -0.0876
18526SOL    HW157317   8.362   4.328   3.055  1.5082 -1.0329  2.0400
18526SOL    HW257318   8.403   4.201   2.983 -0.0615  0.7819 -2.3750
18527SOL     OW57319   3.558   1.183   2.356  0.2102  0.6318 -0.7131
18527SOL    HW157320   3.499   1.257   2.343  0.5041  1.5670  2.4685
18527SOL    HW257321   3.642   1.223   2.378  1.6856 -0.7000 -3.3401
18528SOL     OW57322   5.021   5.242   4.032 -0.0576  0.0876 -0.5501
18528SOL    HW157323   5.032   5.304   3.959  1.1512 -0.3662 -0.7898
18528SOL    HW257324   4.978   5.292   4.100 -0.5171  0.7471 -1.3025
18529SOL     OW57325   1.691   2.010   7.868  1.0057 -0.1862  0.7888
18529SOL    HW157326   1.644   1.927   7.874  0.6945  0.0619  2.0768
18529SOL    HW257327   1.626   2.072   7.835  0.7805 -0.1125  1.3668
18530SOL     OW57328   3.945   7.238   2.899  0.2956  0.0352 -0.4107
18530SOL    HW157329   3.946   7.333   2.902 -1.0762  0.1076 -1.1727
18530SOL    HW257330   3.980   7.217   2.812 -1.3658 -0.0229 -1.1144
18531SOL     OW57331   3.650   6.744   0.422 -0.1045  0.3779 -0.0773
18531SOL    HW157332   3.688   6.831   0.436  0.1317  0.2917 -0.1915
18531SOL    HW257333   3.671   6.696   0.502 -0.1016  0.3754 -0.0795
18532SOL     OW57334   1.315   1.712   1.942  0.4318  0.0463 -0.2592
18532SOL    HW157335   1.365   1.734   2.020 -3.4048 -1.2587  2.8834
18532SOL    HW257336   1.307   1.794   1.894  2.6067  0.9695  0.8229
18533SOL     OW57337   4.252   2.760   0.245  0.5473  0.0278  0.2775
18533SOL    HW157338   4.203   2.839   0.224  0.5836 -0.0421 -0.0739
18533SOL    HW257339   4.335   2.792   0.280  0.3901  0.1440  0.5522
18534SOL     OW57340   8.073   4.157   7.113 -0.0980 -0.1361 -0.3284
18534SOL    HW157341   7.993   4.200   7.142  0.6766  0.8044  0.4814
18534SOL    HW257342   8.081   4.180   7.021 -1.2328 -1.0233 -0.6806
18535SOL     OW57343   4.289   6.973   3.624 -0.5289 -0.2968  0.0823
18535SOL    HW157344   4.323   6.942   3.540  0.7198 -1.0251  0.8244
18535SOL    HW257345   4.357   7.031   3.658 -1.3806  0.6379  0.2430
18536SOL     OW57346   5.196   6.679   8.374 -0.1197 -0.0435  0.3132
18536SOL    HW157347   5.284   6.690   8.409  0.3408 -0.0564 -0.8032
18536SOL    HW257348   5.138   6.686   8.451  0.8558 -0.2470  1.0845
18537SOL     OW57349   6.028   3.170   3.232  0.0945 -0.1440  0.0325
18537SOL    HW157350   5.995   3.118   3.159  1.3593  0.1041 -0.7535
18537SOL    HW257351   6.112   3.204   3.201 -0.2990  1.6913  0.8141
18538SOL     OW57352   5.092   5.442   4.223 -0.7299 -0.1796  0.1492
18538SOL    HW157353   5.172   5.475   4.263 -1.0164  0.3247  0.3166
18538SOL    HW257354   5.075   5.501   4.150 -0.1660 -1.1395 -0.7913
18539SOL     OW57355   6.722   3.122   6.164 -0.2169 -0.2220 -0.5748
18539SOL    HW157356   6.644   3.178   6.158 -0.5777 -0.8210 -1.8494
18539SOL    HW257357   6.729   3.101   6.257 -0.1885  1.7465 -0.0813
18540SOL     OW57358   9.003   8.459   8.372 -0.1840 -0.0812  0.5030
18540SOL    HW157359   8.986   8.444   8.465 -3.0687 -1.1168 -0.1004
18540SOL    HW257360   9.051   8.381   8.344  0.2351 -0.0098  1.0129
18541SOL     OW57361   8.260   7.348   3.666  0.4074  0.4429  0.1208
18541SOL    HW157362   8.338   7.314   3.708 -0.0021  1.3171  1.6439
18541SOL    HW257363   8.283   7.353   3.573  1.4127 -1.2965  0.2359
18542SOL     OW57364   3.090   8.809   7.460  0.5474  0.4723 -0.4559
18542SOL    HW157365   3.019   8.801   7.396  0.2267  1.4914 -0.2458
18542SOL    HW257366   3.092   8.902   7.482 -0.0162  0.0092  1.7815
18543SOL     OW57367   3.283   2.581   8.942 -0.1346 -0.3815  0.6237
18543SOL    HW157368   3.268   2.585   9.036  1.8201  0.8240  0.9374
18543SOL    HW257369   3.314   2.668   8.919 -0.5402 -0.6708 -1.1451
18544SOL     OW57370   3.960   7.219   1.220  0.2921 -0.1499  0.3265
18544SOL    HW157371   3.887   7.269   1.185 -0.3965 -1.4583 -0.1417
18544SOL    HW257372   3.939   7.208   1.313 -0.6225 -1.3609 -0.0027
18545SOL     OW57373   2.013   6.262   4.491  0.2463  0.6660  0.1527
18545SOL    HW157374   2.044   6.351   4.505 -0.4818  1.0393 -0.5414
18545SOL    HW257375   1.924   6.262   4.526  0.2711  0.1881  0.2205
18546SOL     OW57376   6.325   4.015   1.910 -0.0230 -0.4674 -0.1253
18546SOL    HW157377   6.299   3.939   1.963 -0.1141  0.3546  1.0468
18546SOL    HW257378   6.405   4.047   1.952  0.0778  0.0228 -0.6804
18547SOL     OW57379   2.451   9.300   8.398 -0.0253 -0.3923  0.0112
18547SOL    HW157380   2.378   9.290   8.338  0.5955 -0.2495 -0.7773
18547SOL    HW257381   2.442   9.388   8.434 -0.7622 -0.7070  0.6381
18548SOL     OW57382   7.287   7.163   0.658 -0.2779 -0.0427 -0.5461
18548SOL    HW157383   7.364   7.122   0.697  0.2975  0.9589 -0.5872
18548SOL    HW257384   7.217   7.150   0.723  0.6533  1.5799  0.8578
18549SOL     OW57385   6.618   8.952   9.340  0.2971  0.2075 -0.1646
18549SOL    HW157386   6.524   8.956   9.362  0.1305 -0.8182 -0.6227
18549SOL    HW257387   6.647   9.043   9.345 -0.2710  0.3285  1.8792
18550SOL     OW57388   2.989   2.135   4.394  0.6932  0.0829 -0.4291
18550SOL    HW157389   3.043   2.188   4.452 -0.2276  1.2489 -0.5969
18550SOL    HW257390   2.943   2.075   4.453  2.2281 -1.0181 -0.3007
18551SOL     OW57391   5.057   7.892   7.594  0.0247  0.4435  0.1029
18551SOL    HW157392   4.986   7.831   7.613  0.4134 -0.2409 -0.5830
18551SOL    HW257393   5.019   7.978   7.609 -1.0087  0.1016 -0.4553
18552SOL     OW57394   0.249   5.645   6.785  0.1250 -0.1771 -0.5211
18552SOL    HW157395   0.157   5.628   6.801  0.0667 -0.5428 -1.2201
18552SOL    HW257396   0.285   5.665   6.871 -0.7785  0.8431 -0.3635
18553SOL     OW57397   3.975   2.066   6.674 -0.7369  0.0591 -0.5284
18553SOL    HW157398   3.913   2.035   6.740 -0.1926 -2.3509 -1.0494
18553SOL    HW257399   3.929   2.136   6.628 -1.1969  1.7573  2.2303
18554SOL     OW57400   4.707   6.151   7.718  0.2153 -0.4126 -0.6100
18554SOL    HW157401   4.797   6.170   7.693  1.0141 -2.5026  0.4170
18554SOL    HW257402   4.662   6.235   7.713  2.0507  0.5578 -1.7901
18555SOL     OW57403   6.119   6.986   7.012  0.2275 -0.4454 -0.2424
18555SOL    HW157404   6.194   7.038   6.985 -0.9967  0.7154 -1.5477
18555SOL    HW257405   6.140   6.959   7.102  0.7068  2.7517  0.7176
18556SOL     OW57406   6.268   5.297   7.810 -0.4331 -0.2534  0.1289
18556SOL    HW157407   6.291   5.241   7.885  1.3906  2.1860  1.5205
18556SOL    HW257408   6.313   5.257   7.736  2.1217  0.0826  1.3788
18557SOL     OW57409   4.727   7.272   7.801 -0.3225  0.7525  0.0845
18557SOL    HW157410   4.651   7.284   7.744 -0.4107 -0.3914 -0.0782
18557SOL    HW257411   4.694   7.288   7.889 -0.7168  0.4630 -0.0036
18558SOL     OW57412   5.891   4.977   8.869 -0.2832 -0.4870 -0.0862
18558SOL    HW157413   5.982   4.967   8.895 -0.4847  0.2855  0.9694
18558SOL    HW257414   5.886   5.065   8.832 -0.2309 -1.1801 -1.8975
18559SOL     OW57415   5.105   6.320   0.848 -0.5879  0.5837  0.7766
18559SOL    HW157416   5.087   6.322   0.753 -0.2574  1.9367  0.7165
18559SOL    HW257417   5.034   6.266   0.884 -0.1733 -0.7748 -0.3301
18560SOL     OW57418   2.446   0.307   1.224  0.1005 -0.5714 -0.8479
18560SOL    HW157419   2.407   0.370   1.284  0.2169 -0.6787 -0.6595
18560SOL    HW257420   2.534   0.291   1.259  0.0336 -0.9177 -0.8350
18561SOL     OW57421   4.959   0.319   3.935 -0.3177 -0.2358 -0.3156
18561SOL    HW157422   4.871   0.311   3.897  0.1226 -1.2270 -1.1841
18561SOL    HW257423   4.974   0.234   3.979  0.5303 -0.4069 -0.9139
18562SOL     OW57424   2.503   3.411   4.325  0.3163  0.4728  0.1906
18562SOL    HW157425   2.508   3.498   4.284  0.5878  0.7301  0.7538
18562SOL    HW257426   2.537   3.351   4.259 -0.8339  0.6584 -0.5933
18563SOL     OW57427   3.054   1.035   7.998 -0.3604  0.0532 -0.2188
18563SOL    HW157428   3.097   1.120   7.985  0.9716  0.2080  3.7332
18563SOL    HW257429   3.113   0.972   7.958  0.8080  0.7250  0.3850
18564SOL     OW57430   6.335   7.157   3.874 -0.2632  0.0502  0.0620
18564SOL    HW157431   6.274   7.230   3.886  1.2080  1.3135  0.3502
18564SOL    HW257432   6.421   7.199   3.874  0.5734 -1.5785 -1.0100
18565SOL     OW57433   5.502   6.986   5.792  0.3998 -0.2811  0.0527
18565SOL    HW157434   5.464   7.039   5.862  2.7701 -3.2820  4.0658
18565SOL    HW257435   5.542   7.050   5.734 -0.1679  2.4675  2.4172
18566SOL     OW57436   2.957   3.532   9.251  0.5045  0.2993 -0.3899
18566SOL    HW157437   2.938   3.545   9.344 -0.3078 -0.3473 -0.4538
18566SOL    HW257438   2.915   3.449   9.229 -0.9239  1.3294 -1.7722
18567SOL     OW57439   6.061   6.929   1.534  0.2414  0.1167 -0.8752
18567SOL    HW157440   6.063   6.845   1.488  1.5934  0.2013 -1.0014
18567SOL    HW257441   6.118   6.917   1.610  0.8155  1.0485 -1.1377
18568SOL     OW57442   4.757   8.471   1.320 -0.5145  0.4032 -0.5049
18568SOL    HW157443   4.692   8.401   1.321 -0.9548  0.7684 -1.7120
18568SOL    HW257444   4.723   8.535   1.258  0.6169  0.9650 -0.5751
18569SOL     OW57445   2.561   5.544   5.389 -0.4121  0.1658  0.0551
18569SOL    HW157446   2.655   5.561   5.395 -0.5443  1.0957 -0.4170
18569SOL    HW257447   2.520   5.630   5.397 -1.1086  0.1246 -2.3677
18570SOL     OW57448   5.134   4.335   8.001 -0.3844  0.9773  0.3518
18570SOL    HW157449   5.159   4.243   7.990 -0.2762  1.0350  0.1024
18570SOL    HW257450   5.050   4.342   7.957 -0.3135  1.0335  0.2214
18571SOL     OW57451   4.380   5.129   3.574 -0.1016 -0.4511  0.2315
18571SOL    HW157452   4.430   5.175   3.506  0.4656 -0.2804  0.7509
18571SOL    HW257453   4.295   5.173   3.574 -0.1523 -0.5331 -0.4467
18572SOL     OW57454   1.437   7.320   3.414 -0.5135 -0.4466 -0.0286
18572SOL    HW157455   1.500   7.345   3.347 -0.4736 -1.6484 -0.4620
18572SOL    HW257456   1.427   7.399   3.468  0.6510  0.0472 -0.4948
18573SOL     OW57457   1.579   6.466   9.420 -0.5448  0.0566  0.0428
18573SOL    HW157458   1.576   6.448   9.514  0.7291  1.4739  0.3902
18573SOL    HW257459   1.637   6.398   9.385 -0.1874  0.1565  0.4418
18574SOL     OW57460   8.855   5.503   3.751  0.1779  0.0803  0.2801
18574SOL    HW157461   8.844   5.543   3.664  0.8950 -1.3724 -0.5118
18574SOL    HW257462   8.822   5.569   3.812  0.1496  1.3523 -1.0588
18575SOL     OW57463   0.367   6.567   2.639  0.3506  0.3085 -0.1249
18575SOL    HW157464   0.385   6.607   2.724 -0.8803  2.3007 -0.7041
18575SOL    HW257465   0.271   6.563   2.635  0.3475  1.0376 -1.6981
18576SOL     OW57466   2.810   1.381   0.135 -0.4100  0.0783  0.0636
18576SOL    HW157467   2.830   1.448   0.070 -1.7486  1.0330  0.5873
18576SOL    HW257468   2.718   1.359   0.119 -0.0135 -1.6455 -0.0744
18577SOL     OW57469   0.965   5.992   2.437 -0.3110  0.2371  0.3134
18577SOL    HW157470   0.941   6.017   2.348 -0.7401 -0.6461  0.1782
18577SOL    HW257471   0.882   5.988   2.484  0.0920  4.8478  1.9218
18578SOL     OW57472   6.444   3.635   9.205  0.2370  0.0234 -0.6691
18578SOL    HW157473   6.351   3.642   9.223 -0.0105 -1.5784 -1.0924
18578SOL    HW257474   6.480   3.591   9.282  0.5652  0.2512 -0.6903
18579SOL     OW57475   2.570   7.003   0.886  0.1664  0.0006  0.0560
18579SOL    HW157476   2.581   7.082   0.938 -0.1106  0.4951 -0.6335
18579SOL    HW257477   2.527   6.941   0.946 -2.7343  1.4495 -0.3589
18580SOL     OW57478   4.156   8.860   8.729 -0.0604  0.3948 -0.2154
18580SOL    HW157479   4.078   8.914   8.722 -0.3101  0.0098 -0.4978
18580SOL    HW257480   4.197   8.865   8.642 -0.2838 -0.1471 -0.3622
18581SOL     OW57481   6.592   3.024   4.039  0.0381  0.1778  0.0413
18581SOL    HW157482   6.586   3.005   3.946  1.7995  1.4619 -0.3726
18581SOL    HW257483   6.523   3.088   4.055 -1.2496 -1.1367 -0.0227
18582SOL     OW57484   1.934   3.930   1.105 -0.5472 -0.3856 -0.1151
18582SOL    HW157485   2.009   3.871   1.103  0.0368  0.2420  1.7065
18582SOL    HW257486   1.901   3.924   1.194 -0.7402  1.6938 -0.0015
18583SOL     OW57487   6.410   6.094   1.037  0.5530 -0.3670  1.0638
18583SOL    HW157488   6.436   6.101   0.945 -0.9189  3.7269  0.7464
18583SOL    HW257489   6.492   6.082   1.084  1.4251 -1.7490 -0.6751
18584SOL     OW57490   7.823   7.694   3.947  0.0107 -0.1349  0.3166
18584SOL    HW157491   7.791   7.606   3.969 -0.9979 -0.7079 -2.8756
18584SOL    HW257492   7.751   7.752   3.970 -0.7784 -0.6249 -0.8387
18585SOL     OW57493   5.851   3.136   5.954  0.1994  0.4019 -0.1665
18585SOL    HW157494   5.815   3.212   5.908  2.2860  0.5247 -1.7475
18585SOL    HW257495   5.946   3.143   5.941  0.5353 -1.7965  0.7443
18586SOL     OW57496   5.910   1.965   4.634 -0.0909  0.2843  0.7485
18586SOL    HW157497   5.907   2.061   4.640  0.6509  0.6614 -2.6665
18586SOL    HW257498   5.819   1.939   4.620 -0.0532  0.8129 -0.6954
18587SOL     OW57499   7.348   8.737   1.106 -0.4076 -0.2079 -0.2095
18587SOL    HW157500   7.346   8.828   1.135 -2.6905 -0.6259  1.2841
18587SOL    HW257501   7.323   8.686   1.184  1.2109 -2.1832 -0.8787
18588SOL     OW57502   5.138   4.057   7.923  0.0239  0.0173  0.4176
18588SOL    HW157503   5.161   4.064   7.830 -0.6113  3.2532  0.3889
18588SOL    HW257504   5.223   4.046   7.967  0.3247 -1.6436 -0.4843
18589SOL     OW57505   7.705   8.093   1.744  0.6948 -0.0990  0.1309
18589SOL    HW157506   7.619   8.131   1.725  0.9991  0.4281 -0.1820
18589SOL    HW257507   7.768   8.156   1.710  1.2418  0.3390  1.8938
18590SOL     OW57508   2.126   4.411   7.055  0.4811 -0.2943  0.1006
18590SOL    HW157509   2.111   4.339   6.994  1.5822  0.4951 -1.1356
18590SOL    HW257510   2.110   4.490   7.004  0.0699  0.3697  1.2252
18591SOL     OW57511   0.030   5.966   1.989 -0.2251 -0.0635 -0.7876
18591SOL    HW157512   0.109   5.956   2.043 -0.7552 -1.6905 -0.2463
18591SOL    HW257513   0.051   5.922   1.907 -0.9151 -1.5190 -0.2220
18592SOL     OW57514   0.356   4.727   3.163 -0.3728  0.3477  0.1555
18592SOL    HW157515   0.271   4.685   3.171 -0.2862  0.2814  0.7356
18592SOL    HW257516   0.395   4.686   3.086 -0.2474 -0.7224  0.7635
18593SOL     OW57517   8.558   8.079   9.024 -0.5361  0.3872 -1.2427
18593SOL    HW157518   8.609   8.038   8.954  0.2601 -0.4579 -0.1917
18593SOL    HW257519   8.505   8.008   9.061  1.9942 -0.1972  1.6365
18594SOL     OW57520   4.974   6.168   7.908  0.5398  0.8990 -0.1034
18594SOL    HW157521   5.059   6.124   7.910 -0.4572 -1.1934 -0.8676
18594SOL    HW257522   4.941   6.151   7.820  0.1630  3.4341 -0.5226
18595SOL     OW57523   4.056   1.553   4.539  0.3771 -0.6670  0.2770
18595SOL    HW157524   3.988   1.587   4.597  0.3320  0.2798 -0.3150
18595SOL    HW257525   4.065   1.461   4.565  0.3006 -0.2966  1.7022
18596SOL     OW57526   0.642   5.954   5.271 -0.2256 -0.0217  0.0296
18596SOL    HW157527   0.706   6.026   5.267 -1.2062  0.8430 -0.7662
18596SOL    HW257528   0.668   5.896   5.200  0.7841 -0.6666  0.8958
18597SOL     OW57529   6.669   9.407   7.049  0.4445  0.1312 -0.3561
18597SOL    HW157530   6.632   9.452   6.973  0.5641  1.9548  0.6082
18597SOL    HW257531   6.592   9.376   7.098  0.3257  0.0549 -0.5919
18598SOL     OW57532   8.920   0.240   0.081 -1.0763 -0.0550 -0.4309
18598SOL    HW157533   8.910   0.300   0.156 -1.8367  0.0471 -0.6023
18598SOL    HW257534   8.986   0.177   0.109 -0.8867  0.3631  0.0825
18599SOL     OW57535   3.987   1.050   7.466 -0.2917 -0.1953  0.3382
18599SOL    HW157536   4.007   1.047   7.373  0.1373  0.8695  0.3714
18599SOL    HW257537   4.033   0.976   7.504  0.8824  0.3089 -0.0729
18600SOL     OW57538   3.396   5.665   3.148  0.1414 -0.4768 -0.9825
18600SOL    HW157539   3.394   5.731   3.078  1.4801 -0.2583 -0.8379
18600SOL    HW257540   3.309   5.670   3.188  0.6324  2.2229 -0.0511
18601SOL     OW57541   5.937   3.531   0.859  0.3201 -0.2512 -0.9279
18601SOL    HW157542   5.859   3.554   0.809 -0.0330  0.9047  0.1038
18601SOL    HW257543   5.903   3.480   0.933  0.4728  0.5637 -0.2765
18602SOL     OW57544   8.838   2.693   0.444  0.1157 -0.2232  0.3716
18602SOL    HW157545   8.867   2.628   0.508  2.8196  0.4444 -0.0553
18602SOL    HW257546   8.755   2.725   0.479 -0.7650 -3.1026  1.1276
18603SOL     OW57547   4.218   7.039   5.197 -0.5120 -0.5773 -0.0416
18603SOL    HW157548   4.228   7.085   5.114 -2.9840 -1.0111 -0.6598
18603SOL    HW257549   4.254   6.952   5.182  1.3872  0.1136  0.1957
18604SOL     OW57550   0.754   6.661   7.973  0.0897  0.2203  0.4820
18604SOL    HW157551   0.794   6.702   7.897  0.1371  1.1849  1.0125
18604SOL    HW257552   0.698   6.592   7.937  0.0056  0.7508 -0.4327
18605SOL     OW57553   5.381   5.797   2.322 -0.3449  0.1234  0.1409
18605SOL    HW157554   5.376   5.706   2.349 -0.6043  0.1458  0.1791
18605SOL    HW257555   5.372   5.795   2.227 -2.0246  0.2114  0.2617
18606SOL     OW57556   3.748   5.861   3.756 -0.4389 -0.3557 -0.2275
18606SOL    HW157557   3.700   5.911   3.822 -1.5878 -0.6595 -0.8096
18606SOL    HW257558   3.836   5.850   3.793 -0.0509  2.2732 -0.1654
18607SOL     OW57559   6.687   0.461   4.746 -0.3188 -0.8259 -0.1163
18607SOL    HW157560   6.684   0.543   4.797 -0.9328  0.2725 -1.8249
18607SOL    HW257561   6.609   0.413   4.773 -1.2874  0.2896 -0.8413
18608SOL     OW57562   1.538   5.146   5.122  0.2410 -0.1894  0.5042
18608SOL    HW157563   1.518   5.196   5.043  0.5487 -0.0899  0.4888
18608SOL    HW257564   1.626   5.110   5.106 -0.3224 -1.4919  0.1276
18609SOL     OW57565   6.594   0.067   2.289  0.1268  0.0746 -0.0781
18609SOL    HW157566   6.641   0.012   2.353  0.8597 -0.5773 -1.1305
18609SOL    HW257567   6.525   0.010   2.255 -1.2196  0.8978  1.1602
18610SOL     OW57568   2.115   7.004   2.584 -0.1103  0.2362 -0.6763
18610SOL    HW157569   2.122   7.089   2.540 -1.3029  1.2405  0.9739
18610SOL    HW257570   2.185   7.004   2.648 -0.5159  0.2733 -0.2261
18611SOL     OW57571   5.655   4.835   8.298 -0.3861  0.4077  0.4648
18611SOL    HW157572   5.695   4.750   8.281 -0.1191  0.5699  0.2753
18611SOL    HW257573   5.571   4.832   8.251 -0.6200  0.0553  0.8924
18612SOL     OW57574   7.144   5.667   4.701 -0.0012 -0.5588  0.4297
18612SOL    HW157575   7.132   5.735   4.634  0.5625  0.0976  0.9771
18612SOL    HW257576   7.103   5.589   4.664 -1.8468  0.3873  0.3186
18613SOL     OW57577   7.591   7.508   6.123 -0.1030 -0.2837 -0.6307
18613SOL    HW157578   7.629   7.596   6.130 -0.2338 -0.2282 -0.6219
18613SOL    HW257579   7.512   7.520   6.071  0.2552 -0.5135 -1.2466
18614SOL     OW57580   6.919   2.432   1.344 -0.3327 -0.4626 -0.1641
18614SOL    HW157581   6.866   2.511   1.352 -0.3531 -0.4968  0.0416
18614SOL    HW257582   7.005   2.463   1.317 -0.9500 -0.5538 -2.4017
18615SOL     OW57583   9.053   6.588   7.193 -0.0456  0.6792 -0.0178
18615SOL    HW157584   8.977   6.549   7.150  0.2022  0.3999 -0.2097
18615SOL    HW257585   9.123   6.580   7.128  0.1271  1.0033  0.1287
18616SOL     OW57586   7.627   0.000   3.799  0.0282  0.0101 -0.7157
18616SOL    HW157587   7.634  -0.011   3.704 -0.3490  0.6311 -0.8290
18616SOL    HW257588   7.637  -0.088   3.835  0.7674 -0.1514 -1.2904
18617SOL     OW57589   4.341   5.282   6.855  0.3323 -0.3025  0.2462
18617SOL    HW157590   4.251   5.273   6.886  0.5622 -0.8156  0.7870
18617SOL    HW257591   4.373   5.361   6.898  0.4428 -0.6576  0.8353
18618SOL     OW57592   1.748   2.273   6.950 -0.6955 -0.0549 -0.3842
18618SOL    HW157593   1.729   2.364   6.928 -1.8418 -0.1255  0.2101
18618SOL    HW257594   1.723   2.223   6.873 -0.7132  0.0673 -0.4575
18619SOL     OW57595   6.409   9.556   8.775  0.0973  0.6837  0.4984
18619SOL    HW157596   6.351   9.600   8.713  1.1249  2.4775  0.7281
18619SOL    HW257597   6.382   9.588   8.861 -0.6952 -1.0455  0.9300
18620SOL     OW57598   7.222   0.815   6.884  0.0580 -0.5792  0.1842
18620SOL    HW157599   7.151   0.866   6.924 -0.5082 -0.6932 -0.6450
18620SOL    HW257600   7.187   0.789   6.799  1.5289  0.3569 -0.7520
18621SOL     OW57601   9.094   3.112   1.659  0.1168 -0.6789 -1.0181
18621SOL    HW157602   9.012   3.091   1.704  0.8478 -1.5126 -0.0468
18621SOL    HW257603   9.096   3.053   1.584 -0.1320 -0.7087 -1.0030
18622SOL     OW57604   3.430   6.647   2.814  0.4745 -0.3181 -0.2712
18622SOL    HW157605   3.506   6.601   2.848  1.0053  0.6166 -0.1565
18622SOL    HW257606   3.362   6.580   2.808  1.5610 -1.3881 -1.2625
18623SOL     OW57607   4.394   5.365   2.810  0.2578  0.0640 -0.0717
18623SOL    HW157608   4.406   5.315   2.891  2.2910 -2.6258 -1.8814
18623SOL    HW257609   4.325   5.318   2.763  1.3765 -0.3875 -1.2998
18624SOL     OW57610   7.641   4.609   3.328 -0.6996  0.4266  0.0413
18624SOL    HW157611   7.616   4.627   3.419 -2.3758  2.7872 -0.7672
18624SOL    HW257612   7.636   4.695   3.285  1.1050 -0.4459 -2.0613
18625SOL     OW57613   6.431   8.075   2.803  0.3878 -0.1203  0.0281
18625SOL    HW157614   6.348   8.029   2.797  0.6657 -0.4258 -2.1994
18625SOL    HW257615   6.490   8.027   2.746  2.0798  0.2076  1.4021
18626SOL     OW57616   0.135   4.317   6.879  0.0984  0.2147  0.5885
18626SOL    HW157617   0.158   4.299   6.970  2.4767  1.8155  0.4083
18626SOL    HW257618   0.130   4.413   6.873  0.7927  0.1984 -1.0830
18627SOL     OW57619   3.408   1.674   5.363  0.1721 -0.1816  0.6362
18627SOL    HW157620   3.315   1.699   5.368 -0.1013 -0.6916 -1.2376
18627SOL    HW257621   3.455   1.751   5.395 -0.9057 -0.2861  2.5740
18628SOL     OW57622   4.911   4.222   6.905 -0.3700  0.3580  0.1341
18628SOL    HW157623   4.931   4.135   6.939 -1.4310 -0.4725 -1.2737
18628SOL    HW257624   4.826   4.213   6.863 -1.0364  2.3691  0.9303
18629SOL     OW57625   7.451   4.417   3.271 -0.1749  0.3655 -0.4313
18629SOL    HW157626   7.522   4.481   3.279  1.2658 -1.0319 -1.3014
18629SOL    HW257627   7.492   4.333   3.292 -2.0111 -0.2966  0.7200
18630SOL     OW57628   9.050   8.623   2.945 -0.2053 -0.1271  0.0480
18630SOL    HW157629   8.974   8.646   2.892 -1.4326 -1.7068  1.0446
18630SOL    HW257630   9.014   8.599   3.030  1.5249  0.1286  0.9033
18631SOL     OW57631   2.306   0.748   4.299 -0.5427  0.2259  0.0025
18631SOL    HW157632   2.235   0.722   4.240 -0.9246  0.5868  0.2986
18631SOL    HW257633   2.271   0.823   4.347 -0.0669  0.2216  0.3636
18632SOL     OW57634   7.688   0.523   3.379  0.7768 -0.3249 -0.2044
18632SOL    HW157635   7.669   0.484   3.465 -0.8516  0.0894 -0.3560
18632SOL    HW257636   7.739   0.456   3.334  0.1980 -1.2525  0.4750
18633SOL     OW57637   7.160   5.071   5.219  0.4053 -0.3672 -0.1822
18633SOL    HW157638   7.073   5.104   5.243  0.8460 -0.3505  1.5620
18633SOL    HW257639   7.151   5.044   5.128 -1.6490 -1.0739  0.1667
18634SOL     OW57640   2.444   2.601   0.950  0.2215  0.1960  0.2973
18634SOL    HW157641   2.376   2.610   1.018  0.8241  0.3120  0.8951
18634SOL    HW257642   2.494   2.524   0.977 -0.9789 -1.2285 -1.3122
18635SOL     OW57643   4.760   4.086   4.695  0.3772  0.0078 -0.5414
18635SOL    HW157644   4.716   4.111   4.776 -0.5745  1.4592 -1.4750
18635SOL    HW257645   4.734   3.995   4.681 -1.7063  0.5728 -0.6307
18636SOL     OW57646   0.896   8.474   6.433 -0.1387  0.2401 -0.2561
18636SOL    HW157647   0.808   8.511   6.441  0.0169  0.8287 -1.1891
18636SOL    HW257648   0.882   8.379   6.438 -0.6814  0.3504  0.7776
18637SOL     OW57649   5.005   1.793   4.329 -0.5606 -0.2450  0.2193
18637SOL    HW157650   5.015   1.717   4.387 -1.2728  0.3167  1.1087
18637SOL    HW257651   5.077   1.785   4.266 -0.3291 -1.3803  0.6084
18638SOL     OW57652   2.411   5.635   1.462 -0.0262  0.2045 -0.0185
18638SOL    HW157653   2.492   5.642   1.512  0.6570 -1.0534 -0.9165
18638SOL    HW257654   2.344   5.612   1.526  0.8319 -1.3696  0.3354
18639SOL     OW57655   0.214   0.909   3.197 -0.0637  0.2441 -0.1404
18639SOL    HW157656   0.179   0.924   3.109 -2.1321 -0.6143  0.4743
18639SOL    HW257657   0.291   0.854   3.183  0.3381  1.1033 -1.4810
18640SOL     OW57658   1.794   4.223   2.439 -0.3375  0.0532  0.5860
18640SOL    HW157659   1.859   4.161   2.474  0.0967  0.5523  0.6712
18640SOL    HW257660   1.712   4.196   2.480 -0.5017 -1.5436 -0.6949
18641SOL     OW57661   2.764   8.061   0.528  0.4665  0.2395 -0.3329
18641SOL    HW157662   2.746   8.152   0.554 -0.5756 -0.0173 -0.1067
18641SOL    HW257663   2.849   8.065   0.485  0.3158  1.3755 -0.5646
18642SOL     OW57664   1.583   3.590   4.247  0.1851 -0.1605  0.2715
18642SOL    HW157665   1.672   3.626   4.241  0.2282 -0.1237  0.9782
18642SOL    HW257666   1.596   3.496   4.262  0.2279  0.2223  3.3886
18643SOL     OW57667   9.406   0.253   0.662  0.5728  0.2596  0.2497
18643SOL    HW157668   9.388   0.297   0.746 -0.5913 -0.7983  0.5819
18643SOL    HW257669   9.456   0.318   0.612 -0.8299  1.8691  0.8235
18644SOL     OW57670   3.319   1.041   2.737  0.5406  0.6406  0.2445
18644SOL    HW157671   3.388   1.099   2.768 -0.2330  1.1159  1.0863
18644SOL    HW257672   3.353   0.953   2.753  1.1040  0.8685  0.3057
18645SOL     OW57673   4.278   3.489   3.413 -0.1322  0.1188  0.3210
18645SOL    HW157674   4.264   3.571   3.461 -0.1293 -0.1112  0.7169
18645SOL    HW257675   4.320   3.431   3.476  1.9696  0.5514 -0.6245
18646SOL     OW57676   8.287   3.551   2.806  0.0983 -0.1041  0.2499
18646SOL    HW157677   8.280   3.582   2.715  1.1772 -0.3266  0.0717
18646SOL    HW257678   8.220   3.484   2.813  0.6242 -0.7586 -0.6907
18647SOL     OW57679   5.956   1.927   2.672 -0.6545  0.2863 -0.3133
18647SOL    HW157680   5.923   1.842   2.644  0.5515 -0.3289  0.0430
18647SOL    HW257681   5.962   1.920   2.767  1.1695  0.0766 -0.4070
18648SOL     OW57682   8.955   2.261   8.222 -0.2445 -0.1061 -0.2450
18648SOL    HW157683   8.960   2.296   8.311 -0.1281  0.1335 -0.3450
18648SOL    HW257684   9.025   2.196   8.217  1.2601  1.4860 -0.8642
18649SOL     OW57685   4.848   7.078   7.622 -0.2432  0.0596  0.1263
18649SOL    HW157686   4.762   7.050   7.652 -0.0222 -0.6858  0.0931
18649SOL    HW257687   4.908   7.011   7.655  0.4607  1.1076  1.0048
18650SOL     OW57688   2.000   2.829   4.605 -0.0007  0.0476  0.1479
18650SOL    HW157689   1.920   2.835   4.553  1.2403 -0.1639 -1.8910
18650SOL    HW257690   2.065   2.878   4.555  1.3109 -0.3287  1.4189
18651SOL     OW57691   9.074   7.901   3.717 -0.3269  0.7351 -0.4304
18651SOL    HW157692   9.047   7.864   3.801 -0.7649  0.6770 -0.5912
18651SOL    HW257693   9.015   7.975   3.704 -0.6048  0.4379 -0.9183
18652SOL     OW57694   4.687   1.244   4.416  0.1459 -0.3757 -0.4269
18652SOL    HW157695   4.667   1.282   4.330  1.0195 -1.8729 -1.3382
18652SOL    HW257696   4.758   1.182   4.399  0.1662 -0.8967  1.3442
18653SOL     OW57697   7.903   6.674   7.137 -0.1013 -0.1880  0.0282
18653SOL    HW157698   7.965   6.640   7.202 -0.6936  1.6262  1.6342
18653SOL    HW257699   7.957   6.699   7.063  0.6304 -2.0731 -0.1282
18654SOL     OW57700   9.291   7.770   1.055  0.2641 -0.1540  0.0363
18654SOL    HW157701   9.249   7.718   0.986 -0.4519  0.5561 -0.0848
18654SOL    HW257702   9.384   7.772   1.032  0.1278 -0.4795 -0.5413
18655SOL     OW57703   9.223   5.994   0.091 -0.5070  0.1309 -0.0067
18655SOL    HW157704   9.187   5.998   0.180  0.5959  0.7087  0.4229
18655SOL    HW257705   9.153   5.953   0.040 -1.7488  1.1276  0.8149
18656SOL     OW57706   6.312   6.939   0.827  0.1825 -0.0521 -0.4567
18656SOL    HW157707   6.372   6.881   0.780  1.8937 -0.0565  1.5496
18656SOL    HW257708   6.277   6.884   0.898 -1.4849  0.2326 -1.0390
18657SOL     OW57709   4.059   5.329   6.957  0.6718 -0.1134  0.4135
18657SOL    HW157710   3.988   5.283   6.911  1.9688  0.0049 -1.8813
18657SOL    HW257711   4.015   5.399   7.005 -0.8206 -0.2702 -0.6411
18658SOL     OW57712   0.605   4.451   2.606  0.3317  0.3561  0.0046
18658SOL    HW157713   0.575   4.393   2.537 -2.1141  0.3315  1.0058
18658SOL    HW257714   0.626   4.393   2.679 -2.2989  0.6218  1.0732
18659SOL     OW57715   0.105   6.357   5.392 -0.3011  0.2925  0.4297
18659SOL    HW157716   0.087   6.355   5.486  1.2125  0.8146  0.7558
18659SOL    HW257717   0.043   6.421   5.357 -1.7705 -0.8506  0.8303
18660SOL     OW57718   0.034   5.134   2.747  0.0717  0.0918 -0.4227
18660SOL    HW157719   0.023   5.067   2.680  0.7151 -0.4017 -0.0460
18660SOL    HW257720  -0.040   5.193   2.734 -0.8792 -1.0417 -0.3590
18661SOL     OW57721   2.951   4.378   4.795 -0.4782  0.0762 -0.6836
18661SOL    HW157722   2.921   4.313   4.859 -1.4358  0.3766 -0.8119
18661SOL    HW257723   3.022   4.425   4.841 -0.5534 -0.2929 -0.1724
18662SOL     OW57724   3.991   1.936   4.207 -0.5472 -0.6586  0.2058
18662SOL    HW157725   4.017   1.934   4.115 -0.3602 -0.7413  0.2599
18662SOL    HW257726   3.941   1.855   4.219 -2.5378  0.4077 -0.3862
18663SOL     OW57727   7.526   7.117   7.329 -0.4127 -0.0875 -0.0024
18663SOL    HW157728   7.503   7.203   7.293  0.1390  0.1860  0.2736
18663SOL    HW257729   7.587   7.080   7.265 -1.2299 -0.6067 -0.4989
18664SOL     OW57730   1.303   6.247   6.278  0.1656  0.2522 -0.2279
18664SOL    HW157731   1.290   6.186   6.350 -0.0316  0.1444 -0.3549
18664SOL    HW257732   1.231   6.229   6.218  0.5761  0.0398 -0.6606
18665SOL     OW57733   8.875   5.271   9.510 -0.0953 -0.3640  0.3034
18665SOL    HW157734   8.953   5.269   9.455  0.2567  0.2978  0.7712
18665SOL    HW257735   8.819   5.339   9.470  0.7343  1.0785  1.4984
18666SOL     OW57736   7.195   0.520   3.759  0.0453  0.3278  0.0199
18666SOL    HW157737   7.167   0.490   3.845 -0.1554  2.9184  0.9631
18666SOL    HW257738   7.118   0.512   3.704 -0.0578 -0.5843  0.2806
18667SOL     OW57739   9.555   6.909   2.760  0.0103 -0.0552 -0.2216
18667SOL    HW157740   9.569   6.954   2.677  0.3229 -1.4431 -0.9522
18667SOL    HW257741   9.483   6.957   2.802  0.3575  1.1164 -0.9418
18668SOL     OW57742   5.192   0.691   2.051  0.1714  0.3981 -0.2642
18668SOL    HW157743   5.107   0.648   2.058  0.4597 -0.2646 -0.6965
18668SOL    HW257744   5.182   0.752   1.978  0.6776 -1.2220 -1.7530
18669SOL     OW57745   0.318   7.778   1.276  0.2980 -0.2379  0.1014
18669SOL    HW157746   0.397   7.727   1.297  0.3564 -0.0709  0.2939
18669SOL    HW257747   0.333   7.811   1.188  1.9131  2.4880  1.2530
18670SOL     OW57748   9.086   5.724   8.500 -0.1216  0.0071  0.1784
18670SOL    HW157749   9.023   5.796   8.496 -0.5077 -0.2243  1.7039
18670SOL    HW257750   9.159   5.758   8.551  0.2930 -0.2647 -0.2179
18671SOL     OW57751   7.234   0.633   4.081 -0.2159  0.6659 -0.0944
18671SOL    HW157752   7.297   0.567   4.053 -1.1534 -0.1375 -0.3947
18671SOL    HW257753   7.152   0.606   4.039 -0.6167  2.0334 -0.2242
18672SOL     OW57754   6.593   0.066   6.623 -0.5108 -0.3099 -0.0854
18672SOL    HW157755   6.560   0.156   6.619 -1.0502 -0.5393 -0.8542
18672SOL    HW257756   6.652   0.066   6.699  0.7256  1.0984 -1.0024
18673SOL     OW57757   2.648   1.360   3.449 -0.7715  0.1594  0.2390
18673SOL    HW157758   2.576   1.310   3.411 -2.9709  3.1677  0.0339
18673SOL    HW257759   2.683   1.411   3.376 -0.8203  1.3166  0.9979
18674SOL     OW57760   3.055   1.053   4.145 -0.7128  0.4702 -0.4748
18674SOL    HW157761   3.039   1.140   4.184  1.0244  0.6849 -0.1939
18674SOL    HW257762   3.070   0.996   4.220  1.3605  0.6207 -0.7175
18675SOL     OW57763   5.053   0.568   0.619  0.3914 -0.0329 -0.1059
18675SOL    HW157764   5.128   0.508   0.615  0.2353 -0.1525 -2.2396
18675SOL    HW257765   4.977   0.510   0.623  0.1550 -0.1547 -3.5180
18676SOL     OW57766   0.553   0.675   2.300 -0.1264 -0.3244 -0.3754
18676SOL    HW157767   0.599   0.592   2.291  1.4728  0.4214  0.3925
18676SOL    HW257768   0.463   0.656   2.275  0.6410 -1.7896 -2.2980
18677SOL     OW57769   0.266   5.818   7.002 -0.3785 -0.5045 -0.2752
18677SOL    HW157770   0.305   5.904   7.020  0.4210 -0.8388 -0.3867
18677SOL    HW257771   0.184   5.818   7.052  0.9556 -0.7550  2.0710
18678SOL     OW57772   3.880   0.108   1.278 -0.4470  0.5683  0.2375
18678SOL    HW157773   3.898   0.044   1.346  0.7540  0.9959  0.3371
18678SOL    HW257774   3.824   0.062   1.215  0.2263 -0.5009  0.4131
18679SOL     OW57775   2.414   1.185   9.086  0.0735 -0.0798 -0.0106
18679SOL    HW157776   2.482   1.169   9.150 -0.1205  0.2449  0.2794
18679SOL    HW257777   2.333   1.192   9.137 -0.2099 -0.6546 -0.3642
18680SOL     OW57778   4.623   3.569   0.967  0.1616 -0.6198 -0.1682
18680SOL    HW157779   4.706   3.591   1.008  1.4143 -0.1827 -2.7654
18680SOL    HW257780   4.562   3.636   1.000  1.3527  0.3346  0.1710
18681SOL     OW57781   2.455   3.700   7.980 -0.2036 -0.0596  0.4237
18681SOL    HW157782   2.499   3.759   7.919  0.5193 -0.8350  0.1780
18681SOL    HW257783   2.393   3.651   7.926  2.1954 -2.5653 -0.2807
18682SOL     OW57784   0.460   4.165   0.143 -0.4019  0.2666 -0.5123
18682SOL    HW157785   0.512   4.236   0.181  0.5385  0.0179 -1.2823
18682SOL    HW257786   0.525   4.099   0.118 -1.2698 -0.9754  0.3806
18683SOL     OW57787   9.578   4.580   8.700 -0.2615 -1.3291  0.2635
18683SOL    HW157788   9.674   4.585   8.702 -0.2951  0.0993 -0.2516
18683SOL    HW257789   9.555   4.596   8.609 -1.0302 -0.0027  0.6629
18684SOL     OW57790   0.709   8.176   6.690 -0.5798 -0.3452 -0.2227
18684SOL    HW157791   0.617   8.175   6.663 -0.6891  1.5380 -0.0420
18684SOL    HW257792   0.706   8.186   6.785 -0.2870  2.7884 -0.4287
18685SOL     OW57793   1.500   0.266   4.742  0.1644 -0.0456 -0.2642
18685SOL    HW157794   1.498   0.334   4.675  1.1960  0.6910  0.4213
18685SOL    HW257795   1.479   0.185   4.695  0.6872  0.4752 -1.4397
18686SOL     OW57796   2.109   3.986   3.578 -0.8991  0.1408  0.1608
18686SOL    HW157797   2.125   3.893   3.564  0.4706  0.1223  1.5931
18686SOL    HW257798   2.186   4.017   3.625 -2.1845  1.5783  1.4467
18687SOL     OW57799   7.088   9.048   0.432 -0.1461 -0.1098 -0.4356
18687SOL    HW157800   7.153   9.096   0.483 -0.4341  1.4960 -1.5298
18687SOL    HW257801   7.096   8.958   0.463  1.2537  0.4011  0.8116
18688SOL     OW57802   2.833   6.401   5.305  0.5673  0.1193 -0.4971
18688SOL    HW157803   2.816   6.316   5.346 -1.2887  0.0965 -1.1912
18688SOL    HW257804   2.877   6.452   5.372 -0.8859 -0.4583  0.9568
18689SOL     OW57805   0.601   6.736   9.483  0.2682  0.6306  0.5333
18689SOL    HW157806   0.688   6.777   9.485  0.9976 -0.6131 -1.8355
18689SOL    HW257807   0.619   6.643   9.488 -1.0767  0.3976  1.5195
18690SOL     OW57808   1.237   3.768   6.399 -0.2250 -0.0097  0.3375
18690SOL    HW157809   1.164   3.804   6.349  0.1430  1.5264  0.8520
18690SOL    HW257810   1.247   3.827   6.473  1.3409 -0.3587  0.4490
18691SOL     OW57811   3.990   0.277   5.536 -0.3561 -0.0876  0.0673
18691SOL    HW157812   4.015   0.319   5.618  1.1810  0.0370 -0.4311
18691SOL    HW257813   4.009   0.343   5.469  0.9094 -1.0969 -0.6082
18692SOL     OW57814   0.867   4.135   6.870  0.7857  0.0975 -0.2893
18692SOL    HW157815   0.840   4.195   6.801  0.0748 -0.1116 -0.1985
18692SOL    HW257816   0.786   4.096   6.901  1.1548 -0.2284  0.2816
18693SOL     OW57817   1.420   0.409   6.728  0.3952  0.1771 -0.0446
18693SOL    HW157818   1.514   0.405   6.745  0.1398  0.6334  1.7362
18693SOL    HW257819   1.384   0.334   6.776 -0.3146  1.0925  0.9007
18694SOL     OW57820   8.275   2.375   3.014 -0.1353 -0.4238  0.3140
18694SOL    HW157821   8.258   2.290   3.056 -0.0840 -0.1908  0.8110
18694SOL    HW257822   8.343   2.415   3.068 -1.9339  1.0495  1.6505
18695SOL     OW57823   5.776   6.844   1.458 -0.3359 -0.2886  0.0045
18695SOL    HW157824   5.860   6.854   1.503  0.6698 -2.0320 -1.3690
18695SOL    HW257825   5.757   6.930   1.422  0.9652  0.0923  0.1918
18696SOL     OW57826   9.599   2.014   4.787  0.6510 -0.0441  0.2030
18696SOL    HW157827   9.691   2.041   4.777 -0.2423  3.6970  0.7090
18696SOL    HW257828   9.600   1.956   4.862  2.4375  1.3198  1.3367
18697SOL     OW57829   3.326   8.691   8.292 -0.1455 -0.1707 -0.0893
18697SOL    HW157830   3.379   8.747   8.236 -1.4469  0.6779 -0.4981
18697SOL    HW257831   3.381   8.674   8.369  0.0939  2.0713  0.2767
18698SOL     OW57832   1.252   9.435   3.743  0.2341  0.3554 -0.1200
18698SOL    HW157833   1.237   9.508   3.683  0.8788  0.5824 -0.0070
18698SOL    HW257834   1.201   9.458   3.821 -0.5715  0.0804 -0.5486
18699SOL     OW57835   2.251   1.297   1.545 -0.4842  0.7182  0.1150
18699SOL    HW157836   2.265   1.371   1.486  0.4541  1.3915  1.1496
18699SOL    HW257837   2.304   1.226   1.507 -0.4888  0.9143 -0.2658
18700SOL     OW57838   6.634   7.710   6.767  0.2863  0.2596 -0.3612
18700SOL    HW157839   6.665   7.668   6.687 -0.8592  1.1909 -1.3446
18700SOL    HW257840   6.572   7.648   6.805  1.2128 -0.4008  0.0984
18701SOL     OW57841   1.629   3.783   9.231  0.3095  0.0271  0.1295
18701SOL    HW157842   1.699   3.842   9.203  0.6366 -0.8308 -0.9190
18701SOL    HW257843   1.578   3.834   9.294  1.3768  0.9546  0.2643
18702SOL     OW57844   4.539   1.607   3.854 -0.2710  0.2684 -0.3951
18702SOL    HW157845   4.467   1.630   3.913 -0.4006  2.7618 -1.4022
18702SOL    HW257846   4.495   1.587   3.771  0.1362  3.6679 -1.5775
18703SOL     OW57847   4.338   3.933   5.712  0.5997  0.1017  0.2647
18703SOL    HW157848   4.372   3.868   5.650  1.6081  1.0229 -0.1715
18703SOL    HW257849   4.273   3.982   5.663  0.5985  0.1170  0.2820
18704SOL     OW57850   1.402   4.309   8.649 -0.1144  0.0179 -0.2365
18704SOL    HW157851   1.310   4.336   8.642  0.1345  1.1593  0.7369
18704SOL    HW257852   1.397   4.219   8.682 -0.8783  0.1192 -0.0473
18705SOL     OW57853   6.693   2.192   7.500  0.0517  0.3985 -0.4470
18705SOL    HW157854   6.636   2.247   7.554  0.8273  1.9017 -1.1120
18705SOL    HW257855   6.771   2.178   7.554  0.4332  1.1214 -0.7988
18706SOL     OW57856   2.511   2.907   5.319  0.0870 -0.2702  0.1376
18706SOL    HW157857   2.436   2.847   5.316 -0.4399  0.4208 -0.7057
18706SOL    HW257858   2.485   2.975   5.381 -1.3442  1.6881 -2.4113
18707SOL     OW57859   7.702   3.328   5.672 -0.0130  0.1291  0.0614
18707SOL    HW157860   7.615   3.291   5.659  0.2982 -1.1675  1.4150
18707SOL    HW257861   7.686   3.415   5.709 -0.7350  0.9430 -2.0617
18708SOL     OW57862   7.625   6.708   0.812  0.3642 -0.3801 -0.0152
18708SOL    HW157863   7.693   6.753   0.761  0.4055  1.1764  1.3390
18708SOL    HW257864   7.670   6.635   0.853  0.2342 -1.9862 -2.5125
18709SOL     OW57865   5.689   5.233   6.410  0.0095  0.3538 -0.1619
18709SOL    HW157866   5.691   5.250   6.316  1.0136 -0.1692 -0.2538
18709SOL    HW257867   5.631   5.157   6.420  1.1154 -0.5686 -0.5512
18710SOL     OW57868   1.190   3.205   8.160 -0.4784 -0.2938  0.2928
18710SOL    HW157869   1.256   3.173   8.222  0.6597 -2.0450 -1.7135
18710SOL    HW257870   1.211   3.298   8.148  0.8519 -0.5398  0.6056
18711SOL     OW57871   7.955   3.054   6.252  0.4018 -0.2258  0.0985
18711SOL    HW157872   7.896   3.130   6.254 -0.8651 -1.1608 -0.1324
18711SOL    HW257873   7.971   3.039   6.159  2.2017  0.8762  0.1932
18712SOL     OW57874   9.055   9.172   2.825  0.5919  0.1351 -0.0169
18712SOL    HW157875   9.051   9.182   2.730  0.2408 -0.0559 -0.0260
18712SOL    HW257876   9.066   9.078   2.839 -2.1702 -0.2394  0.1708
18713SOL     OW57877   5.999   4.977   9.320  0.3242 -0.0053 -0.6129
18713SOL    HW157878   6.047   4.926   9.386 -0.1374 -0.2735 -0.4765
18713SOL    HW257879   6.066   5.032   9.279  0.4310  1.0827  0.9305
18714SOL     OW57880   2.258   4.354   1.020 -0.2227 -0.0246 -0.0537
18714SOL    HW157881   2.351   4.334   1.031 -0.1905  0.2714  0.2524
18714SOL    HW257882   2.256   4.449   1.008 -0.6439  0.3258  2.1869
18715SOL     OW57883   4.719   2.230   7.965 -0.0990  0.1676 -0.0530
18715SOL    HW157884   4.759   2.188   7.889  0.6691  2.2966 -0.8906
18715SOL    HW257885   4.683   2.312   7.932 -0.7023  0.6604  1.6938
18716SOL     OW57886   2.605   6.398   6.748 -0.3141  0.6018  0.1575
18716SOL    HW157887   2.560   6.461   6.692 -0.8232  0.3066  0.2321
18716SOL    HW257888   2.644   6.335   6.687 -2.6177 -0.9322  0.1391
18717SOL     OW57889   8.449   9.054   4.550  0.0441  0.5606  0.4503
18717SOL    HW157890   8.431   8.986   4.485 -3.1069 -0.1997  1.9203
18717SOL    HW257891   8.507   9.116   4.505  1.4732 -2.0379 -1.5975
18718SOL     OW57892   6.633   2.416   3.450 -0.0235  0.2826 -0.4155
18718SOL    HW157893   6.721   2.453   3.457  0.7987 -0.7245 -3.7699
18718SOL    HW257894   6.579   2.470   3.508  2.6949  1.1239  1.5060
18719SOL     OW57895   3.024   6.092   0.574  0.8419 -0.2767  0.3268
18719SOL    HW157896   2.957   6.136   0.522  1.3206 -0.4472 -0.4637
18719SOL    HW257897   2.988   6.006   0.592  1.0825 -0.5990 -0.6398
18720SOL     OW57898   7.517   0.934   7.648  0.2429 -0.5178 -0.2175
18720SOL    HW157899   7.424   0.950   7.664  0.4897  0.4131  0.3303
18720SOL    HW257900   7.527   0.840   7.664 -0.9329 -1.0125 -2.0350
18721SOL     OW57901   9.254   6.555   6.920  0.1231 -0.9310  0.0757
18721SOL    HW157902   9.333   6.608   6.911 -1.0010  1.3859  2.5568
18721SOL    HW257903   9.200   6.579   6.844 -0.7607  2.4004  1.6058
18722SOL     OW57904   0.441   8.238   5.784 -0.5183 -0.1097 -0.1242
18722SOL    HW157905   0.410   8.149   5.800 -2.1909  0.3931 -0.4323
18722SOL    HW257906   0.429   8.283   5.868 -0.6275  0.0964 -0.2496
18723SOL     OW57907   1.957   8.874   2.089  0.3467 -0.5639 -0.8214
18723SOL    HW157908   1.965   8.896   2.182  0.7096  3.3945 -1.5967
18723SOL    HW257909   1.880   8.818   2.084 -1.1900  1.1166  1.6828
18724SOL     OW57910   6.450   2.542   6.498 -0.2721 -0.3905 -0.0330
18724SOL    HW157911   6.525   2.492   6.531  0.4886  1.0028  0.4019
18724SOL    HW257912   6.437   2.612   6.562 -0.7887  0.4581 -1.0376
18725SOL     OW57913   5.370   3.163   1.583 -0.6879  0.1841  0.2853
18725SOL    HW157914   5.301   3.097   1.590 -0.2815 -0.5632 -1.8452
18725SOL    HW257915   5.417   3.140   1.503  2.9496 -0.1740  2.2852
18726SOL     OW57916   8.417   6.843   4.180 -0.1216  0.2314  0.0659
18726SOL    HW157917   8.446   6.798   4.101  0.2767 -0.2437  0.4781
18726SOL    HW257918   8.323   6.856   4.167  0.3413  2.7141 -1.7631
18727SOL     OW57919   8.442   3.869   4.622  0.7221 -0.7786  0.1017
18727SOL    HW157920   8.535   3.886   4.602  0.7513  3.7593  2.6313
18727SOL    HW257921   8.394   3.921   4.557  0.0088 -1.3386  0.1702
18728SOL     OW57922   9.285   5.942   4.741  0.2345 -0.3294  0.1262
18728SOL    HW157923   9.199   5.971   4.709  0.5621 -0.6154 -1.0402
18728SOL    HW257924   9.344   6.013   4.718  0.5120 -0.6221 -0.0610
18729SOL     OW57925   2.953   7.677   6.430  0.4080  0.1820 -0.0387
18729SOL    HW157926   2.894   7.689   6.356 -0.2586  0.7551  0.5734
18729SOL    HW257927   3.034   7.645   6.391 -1.3707 -4.2879 -0.6082
18730SOL     OW57928   0.211   5.767   0.704 -0.6637 -0.0364  0.3550
18730SOL    HW157929   0.305   5.779   0.716 -0.6954  2.2028 -1.0375
18730SOL    HW257930   0.201   5.677   0.671  1.2268  0.3720 -1.5066
18731SOL     OW57931   1.951   9.541   3.143 -0.5010 -0.0052 -0.0087
18731SOL    HW157932   2.007   9.539   3.220 -0.6369  1.7268  0.1805
18731SOL    HW257933   1.972   9.625   3.101 -0.8598 -0.6422 -1.5267
18732SOL     OW57934   5.043   9.038   4.260  0.3230 -0.0401 -0.2686
18732SOL    HW157935   5.023   9.034   4.167 -1.5884  0.4299  0.0813
18732SOL    HW257936   5.024   9.129   4.284  0.1298 -0.3261  0.7077
18733SOL     OW57937   0.929   7.161   4.564  0.8165 -0.3470 -0.1342
18733SOL    HW157938   0.944   7.254   4.546 -0.2059 -0.1947 -0.2828
18733SOL    HW257939   1.015   7.127   4.587  0.9176  1.1020  1.9923
18734SOL     OW57940   3.544   2.031   6.899 -0.0317  0.6962  0.6919
18734SOL    HW157941   3.452   2.006   6.903  0.4249 -1.1440  0.7638
18734SOL    HW257942   3.543   2.123   6.875 -1.8795  0.6158  0.3149
18735SOL     OW57943   8.183   4.574   0.669  0.4283  0.5211  0.0012
18735SOL    HW157944   8.223   4.640   0.613 -0.4608  0.8782 -0.2443
18735SOL    HW257945   8.214   4.491   0.634 -0.0828  0.7397 -1.0280
18736SOL     OW57946   5.529   3.068   6.518  0.3377 -0.3842  0.6394
18736SOL    HW157947   5.455   3.016   6.548 -0.6744  0.2087 -0.7271
18736SOL    HW257948   5.575   3.010   6.456 -0.9382  0.3537 -1.0839
18737SOL     OW57949   7.807   9.394   4.490 -0.3447  0.2393  0.6186
18737SOL    HW157950   7.886   9.447   4.482  0.3008 -0.8474 -0.4708
18737SOL    HW257951   7.805   9.369   4.582  1.1329 -0.5330  0.4685
18738SOL     OW57952   3.115   7.007   4.416  0.3031 -0.1860  0.1644
18738SOL    HW157953   3.168   7.031   4.491 -0.8392 -1.7544  1.5404
18738SOL    HW257954   3.152   7.057   4.343  1.4022  1.4094  1.7573
18739SOL     OW57955   0.072   8.657   0.664  0.1571  0.0054  0.4423
18739SOL    HW157956   0.045   8.688   0.578  1.7468  1.3743  0.3982
18739SOL    HW257957   0.048   8.727   0.724  1.4548  0.2448  0.7156
18740SOL     OW57958   6.472   2.967   0.880 -0.5003  0.5128  0.2316
18740SOL    HW157959   6.394   3.018   0.903 -1.2200  0.0248 -1.0057
18740SOL    HW257960   6.493   2.995   0.791 -0.0310 -0.3060  0.0785
18741SOL     OW57961   2.642   8.890   6.277  0.4633  0.0670 -0.0337
18741SOL    HW157962   2.548   8.871   6.285  0.5865 -0.2031  0.9460
18741SOL    HW257963   2.649   8.943   6.198 -0.8753  2.4453  1.3153
18742SOL     OW57964   1.105   1.782   0.846  0.4043 -0.0632 -0.3700
18742SOL    HW157965   1.100   1.837   0.924  0.5134  2.7351 -2.2070
18742SOL    HW257966   1.102   1.692   0.880 -0.9842  1.0095  2.7321
18743SOL     OW57967   7.835   2.791   9.523 -0.0650  0.2345 -0.7284
18743SOL    HW157968   7.902   2.788   9.454 -1.2473 -0.5241 -1.8935
18743SOL    HW257969   7.855   2.870   9.572  2.1460 -0.3596 -0.5474
18744SOL     OW57970   1.246   2.321   2.405 -0.5575 -0.2169  0.1789
18744SOL    HW157971   1.319   2.295   2.462 -0.9405 -0.8918  0.3738
18744SOL    HW257972   1.170   2.318   2.462 -0.3799  3.7451  0.9265
18745SOL     OW57973   4.416   6.008   3.784 -0.7245 -0.0610  0.3338
18745SOL    HW157974   4.493   6.050   3.823 -1.1837  1.0780  0.0746
18745SOL    HW257975   4.373   5.964   3.857  0.5979 -1.4486  0.3368
18746SOL     OW57976   6.356   4.440   0.455  0.4641  0.1084  0.2368
18746SOL    HW157977   6.409   4.432   0.534  0.3410  0.4545  0.3592
18746SOL    HW257978   6.304   4.520   0.470  0.0193 -0.1469  0.0604
18747SOL     OW57979   7.030   1.634   1.976 -0.3674 -0.6312  0.2555
18747SOL    HW157980   7.057   1.543   1.971 -1.2382 -0.8941  0.2211
18747SOL    HW257981   6.996   1.654   1.889 -0.6840 -0.4343  0.4230
18748SOL     OW57982   2.559   8.042   5.334 -0.0409 -0.1655 -0.1715
18748SOL    HW157983   2.533   8.134   5.332 -1.5177 -0.5648 -1.3037
18748SOL    HW257984   2.560   8.018   5.426 -1.1548  0.6015  0.0542
18749SOL     OW57985   2.895   0.002   9.002 -0.2884 -0.4044  0.2298
18749SOL    HW157986   2.844   0.021   9.080 -0.0871 -0.0344  0.2777
18749SOL    HW257987   2.842   0.037   8.930  1.3832  3.2193  0.5411
18750SOL     OW57988   8.673   7.391   2.135  0.0401  0.5259 -0.1489
18750SOL    HW157989   8.593   7.441   2.118 -0.7709 -0.6895 -0.0325
18750SOL    HW257990   8.644   7.319   2.191  1.1808 -0.0628 -0.3027
18751SOL     OW57991   1.520   7.864   0.268 -0.2556  0.2021 -0.1007
18751SOL    HW157992   1.478   7.947   0.291  0.2023  0.0157  1.4904
18751SOL    HW257993   1.483   7.800   0.329 -0.3184 -0.7168 -1.0577
18752SOL     OW57994   3.330   0.391   5.393 -0.8864  0.1569  0.5758
18752SOL    HW157995   3.331   0.359   5.303 -3.2279 -1.1867  0.9458
18752SOL    HW257996   3.421   0.385   5.422 -0.4922 -1.9110 -0.8744
18753SOL     OW57997   9.251   3.628   0.360  0.3904  0.0861 -0.5441
18753SOL    HW157998   9.274   3.571   0.287  0.2919  1.8585 -2.0260
18753SOL    HW257999   9.334   3.645   0.405  0.5504 -0.5370 -0.6062
18754SOL     OW58000   3.004   9.601   1.381 -0.2769  0.2524  0.0726
18754SOL    HW158001   2.981   9.568   1.468 -0.3715  0.2376  0.0422
18754SOL    HW258002   3.046   9.527   1.337  1.2762  0.7222  0.6734
18755SOL     OW58003   4.303   7.807   1.953  0.2353  0.4361 -0.7152
18755SOL    HW158004   4.223   7.777   1.996  1.0651 -0.1081  0.5001
18755SOL    HW258005   4.333   7.731   1.903  0.9079  0.0614  0.2293
18756SOL     OW58006   4.863   9.323   5.026 -0.2786 -0.4315 -0.0107
18756SOL    HW158007   4.830   9.376   5.098  1.4762  2.4698 -1.1659
18756SOL    HW258008   4.958   9.323   5.036 -0.0023 -0.2510 -2.0716
18757SOL     OW58009   3.888   8.003   2.231 -0.0931 -0.1857  0.2654
18757SOL    HW158010   3.936   8.018   2.150  0.3614 -0.1658  0.5345
18757SOL    HW258011   3.956   7.982   2.295 -0.4906 -0.6952  0.5230
18758SOL     OW58012   0.537   6.754   0.517 -0.3317 -0.4008  0.0364
18758SOL    HW158013   0.452   6.786   0.489  1.2573  2.9343 -1.4798
18758SOL    HW258014   0.591   6.757   0.438  2.1380  1.1773  1.6524
18759SOL     OW58015   5.219   8.015   6.062 -0.0305  0.8931 -0.2867
18759SOL    HW158016   5.245   8.021   5.970 -0.7273  2.3028 -0.4131
18759SOL    HW258017   5.224   8.104   6.095  0.6528  0.3429  1.1994
18760SOL     OW58018   8.386   7.089   8.519 -0.2899  0.3276 -0.0361
18760SOL    HW158019   8.357   7.160   8.576  0.0136  0.0648  0.4581
18760SOL    HW258020   8.312   7.027   8.519 -0.4327  0.4981 -0.2200
18761SOL     OW58021   3.533   3.026   8.811  0.0757  0.1312 -0.2393
18761SOL    HW158022   3.503   3.046   8.722  0.4506 -0.2743 -0.4609
18761SOL    HW258023   3.593   3.097   8.832 -1.1478  1.0445  0.2757
18762SOL     OW58024   5.693   9.039   1.209 -0.4258 -0.3008  0.3257
18762SOL    HW158025   5.678   9.119   1.159  0.0277  0.1428  0.8799
18762SOL    HW258026   5.612   9.025   1.257 -0.3402  0.0921  0.5887
18763SOL     OW58027   5.210   7.199   4.444 -0.7988 -0.1128 -0.3134
18763SOL    HW158028   5.292   7.172   4.486 -1.6283 -0.9565  0.8365
18763SOL    HW258029   5.193   7.133   4.378 -0.1952  0.4658 -1.0661
18764SOL     OW58030   0.813   7.637   2.030 -0.2307  0.0740  0.3398
18764SOL    HW158031   0.719   7.655   2.032 -0.3324 -0.4690  1.2111
18764SOL    HW258032   0.820   7.541   2.027  0.2935  0.1147  0.0386
18765SOL     OW58033   8.424   9.566   4.240 -0.0976 -0.2246  0.2621
18765SOL    HW158034   8.385   9.493   4.288 -0.2565 -0.4077 -0.1430
18765SOL    HW258035   8.374   9.571   4.158 -0.4194  0.6630  0.5037
18766SOL     OW58036   3.229   9.006   2.176  0.3600  0.4231  0.7255
18766SOL    HW158037   3.152   9.062   2.168 -0.6757 -0.9476  0.7642
18766SOL    HW258038   3.286   9.052   2.237  0.5472  2.5028 -0.9287
18767SOL     OW58039   3.377   7.757   6.552  0.3119  0.1164 -0.2758
18767SOL    HW158040   3.458   7.752   6.501  0.4622 -0.4856  0.0203
18767SOL    HW258041   3.308   7.733   6.490  0.3310  0.8648 -0.5918
18768SOL     OW58042   5.689   9.297   6.633  0.4454 -0.6058 -0.0462
18768SOL    HW158043   5.614   9.351   6.656 -1.8455 -3.0468 -1.2455
18768SOL    HW258044   5.729   9.342   6.558  0.1064  0.6408  0.4974
18769SOL     OW58045   3.231   9.535   0.182  0.4548 -0.8322 -0.2032
18769SOL    HW158046   3.325   9.549   0.185  0.3285  0.0317 -0.1270
18769SOL    HW258047   3.200   9.550   0.271  0.1666 -0.5327 -0.3504
18770SOL     OW58048   5.451   2.704   2.929  0.1703 -1.0077 -0.1219
18770SOL    HW158049   5.405   2.630   2.887 -0.2402  0.9313 -3.4411
18770SOL    HW258050   5.543   2.686   2.914  0.1659 -1.6065  0.5209
18771SOL     OW58051   8.948   2.962   2.422 -0.4081 -0.6949  0.1006
18771SOL    HW158052   8.990   2.979   2.338 -0.5427  0.6891  0.2892
18771SOL    HW258053   9.019   2.966   2.486 -0.5567 -0.0379  0.2321
18772SOL     OW58054   4.220   2.302   6.150 -0.2165  0.3866  0.3365
18772SOL    HW158055   4.153   2.349   6.200  0.7459  1.0520  1.0410
18772SOL    HW258056   4.274   2.371   6.112 -0.2466 -0.1377 -0.6746
18773SOL     OW58057   7.299   2.978   2.426 -0.1503  0.1288 -0.1019
18773SOL    HW158058   7.212   3.003   2.396  0.8387  1.6837 -1.8987
18773SOL    HW258059   7.286   2.893   2.467 -2.6316  0.6642  0.4184
18774SOL     OW58060   5.479   0.271   5.566  0.0598  0.9729 -0.0278
18774SOL    HW158061   5.445   0.291   5.654  1.1569 -0.3144  0.7396
18774SOL    HW258062   5.572   0.296   5.571  0.1559  0.7661 -0.7761
18775SOL     OW58063   7.356   6.095   1.780  0.3660 -0.2725 -0.3941
18775SOL    HW158064   7.326   6.175   1.736  1.6670  0.2029 -0.4378
18775SOL    HW258065   7.357   6.029   1.711  0.1577 -0.1078 -0.5568
18776SOL     OW58066   6.776   7.731   7.889  0.5082  0.2446 -0.3230
18776SOL    HW158067   6.716   7.676   7.838  0.9748  0.0782 -0.6929
18776SOL    HW258068   6.828   7.777   7.824  0.7856  0.3880 -0.0016
18777SOL     OW58069   2.424   3.444   6.673 -0.2385  0.0950 -0.5548
18777SOL    HW158070   2.481   3.498   6.727 -0.6358 -0.1893  0.1723
18777SOL    HW258071   2.469   3.360   6.667 -0.4864 -0.0688 -0.1416
18778SOL     OW58072   8.298   4.198   4.777 -0.0128 -0.6871 -0.7957
18778SOL    HW158073   8.207   4.211   4.801 -0.1301 -1.1052 -1.0124
18778SOL    HW258074   8.318   4.270   4.717  0.3582  0.5390  0.7129
18779SOL     OW58075   1.527   4.815   7.053  0.2239  0.3816  0.7413
18779SOL    HW158076   1.496   4.725   7.060 -0.5288  0.6160  0.5200
18779SOL    HW258077   1.619   4.807   7.028 -0.0614 -0.3261 -0.1232
18780SOL     OW58078   1.423   4.556   1.307 -0.4429 -0.2029  0.5328
18780SOL    HW158079   1.339   4.598   1.325 -1.1753 -1.2008 -0.4591
18780SOL    HW258080   1.421   4.476   1.358 -0.8030 -1.0158 -0.6956
18781SOL     OW58081   6.024   8.416   5.721  0.5404 -0.1113 -0.4575
18781SOL    HW158082   5.984   8.501   5.736 -0.3055 -0.6360  0.4132
18781SOL    HW258083   5.996   8.363   5.796  1.9693 -0.8324 -0.4066
18782SOL     OW58084   7.759   8.422   5.295  0.0351  0.2180 -0.2198
18782SOL    HW158085   7.753   8.328   5.277 -3.0171 -0.1173  1.8698
18782SOL    HW258086   7.669   8.453   5.290  0.8400  2.8781  0.2060
18783SOL     OW58087   3.635   3.107   0.334  0.3801 -0.2153 -0.0121
18783SOL    HW158088   3.573   3.176   0.355  0.9157  0.3742 -0.3356
18783SOL    HW258089   3.609   3.033   0.389  1.4647  1.1096  2.4737
18784SOL     OW58090   6.403   7.151   7.457 -0.3263  0.0626  0.4828
18784SOL    HW158091   6.430   7.123   7.544  1.7362  1.1704  0.2760
18784SOL    HW258092   6.344   7.224   7.473 -1.7061 -1.1042  0.9368
18785SOL     OW58093   0.071   5.714   4.243  0.7388  0.0211  0.1477
18785SOL    HW158094   0.088   5.681   4.331 -0.0370 -1.9193 -0.3748
18785SOL    HW258095   0.046   5.805   4.256 -1.1533 -0.6936  2.1662
18786SOL     OW58096   4.660   1.381   3.964  0.1709 -0.1221  0.2361
18786SOL    HW158097   4.728   1.412   4.024  0.2998  2.1375 -1.0041
18786SOL    HW258098   4.610   1.459   3.940 -1.4298 -1.3545 -0.7145
18787SOL     OW58099   8.310   7.831   7.775 -0.0072  0.6348 -0.2089
18787SOL    HW158100   8.263   7.757   7.737  0.3499  0.4929 -0.3702
18787SOL    HW258101   8.296   7.822   7.869  0.4002  0.1171 -0.1948
18788SOL     OW58102   8.461   7.292   9.451  0.1306  0.1577  0.2250
18788SOL    HW158103   8.485   7.234   9.379  0.1031 -1.3136  1.3317
18788SOL    HW258104   8.540   7.295   9.506  0.2968  1.5988 -0.0520
18789SOL     OW58105   2.133   4.629   2.846  0.0108 -0.0895  0.4696
18789SOL    HW158106   2.144   4.537   2.822 -0.7343 -0.2587  0.7478
18789SOL    HW258107   2.203   4.645   2.910 -2.5523 -1.8432  4.1174
18790SOL     OW58108   8.517   6.908   7.321 -0.4941 -0.3466 -0.1241
18790SOL    HW158109   8.572   6.860   7.259  0.6250 -1.4994  1.6877
18790SOL    HW258110   8.506   6.994   7.281  0.2582 -1.0120 -1.8733
18791SOL     OW58111   9.138   2.472   3.634  0.1764 -0.0055 -0.2261
18791SOL    HW158112   9.070   2.539   3.639  2.0133  1.8119  1.8824
18791SOL    HW258113   9.121   2.415   3.709  0.1352 -0.4402 -0.5589
18792SOL     OW58114   9.068   6.032   2.056 -0.3444 -0.0591 -0.3374
18792SOL    HW158115   9.108   5.947   2.039 -1.2744 -0.7505  0.7399
18792SOL    HW258116   9.139   6.086   2.090 -0.1539 -1.1115  1.0739
18793SOL     OW58117   7.920   8.335   0.522  0.3810  0.3823 -0.5147
18793SOL    HW158118   7.964   8.316   0.605 -2.3037 -1.5389  0.6287
18793SOL    HW258119   7.922   8.251   0.475  0.1545  0.9313 -1.5234
18794SOL     OW58120   4.002   3.934   1.447 -0.0424 -0.1089  0.2014
18794SOL    HW158121   4.006   3.838   1.448 -1.0007 -0.1572  1.2157
18794SOL    HW258122   3.969   3.955   1.360 -0.9326 -0.7625  0.3679
18795SOL     OW58123   1.529   5.531   4.496  0.5009 -0.4740 -0.3964
18795SOL    HW158124   1.437   5.511   4.480  1.0228 -0.7467 -3.7178
18795SOL    HW258125   1.532   5.558   4.588 -2.9184 -0.1606 -0.2491
18796SOL     OW58126   3.988   2.978   5.446  0.5484 -0.1547 -0.2235
18796SOL    HW158127   4.027   2.903   5.402  2.5837  0.7020 -0.0101
18796SOL    HW258128   3.980   2.951   5.537 -0.0806 -0.5798 -0.3919
18797SOL     OW58129   4.736   5.424   9.085 -0.7283  0.2988 -0.7346
18797SOL    HW158130   4.740   5.488   9.014  0.6893  1.0941  0.0195
18797SOL    HW258131   4.826   5.418   9.117 -1.1416 -0.8310  0.3231
18798SOL     OW58132   8.069   3.302   2.451  0.1478  0.3926 -0.4133
18798SOL    HW158133   8.051   3.371   2.388 -0.1307  0.7103  0.0098
18798SOL    HW258134   8.055   3.343   2.537  0.6462  0.0038 -0.1400
18799SOL     OW58135   0.527   4.727   7.631  0.1816  0.3376  0.0270
18799SOL    HW158136   0.442   4.699   7.664 -0.7986  1.0738 -1.7732
18799SOL    HW258137   0.538   4.816   7.663 -0.0769  0.5112 -0.3638
18800SOL     OW58138   1.913   6.753   5.485  0.2187 -0.4120 -0.8002
18800SOL    HW158139   1.826   6.747   5.446 -0.4685  0.2579  0.5393
18800SOL    HW258140   1.935   6.664   5.510 -0.9078 -0.3527  0.4991
18801SOL     OW58141   6.797   7.826   4.666  0.2423  0.7777 -0.0668
18801SOL    HW158142   6.775   7.798   4.577  0.9709 -0.1882  0.0455
18801SOL    HW258143   6.712   7.838   4.708 -0.1039  0.1241 -0.5563
18802SOL     OW58144   1.773   0.111   4.832  0.1853  0.1315  0.3785
18802SOL    HW158145   1.760   0.124   4.738  0.0506 -0.4981  0.3101
18802SOL    HW258146   1.685   0.109   4.869  0.1165 -1.9407  0.2014
18803SOL     OW58147   5.043   5.940   5.265  0.1132 -0.5898  0.3583
18803SOL    HW158148   5.052   6.013   5.204  0.6523  0.1220  1.2659
18803SOL    HW258149   5.131   5.902   5.270 -0.3786 -1.9724 -0.8956
18804SOL     OW58150   7.236   5.926   0.720  0.0730 -0.3730  0.0825
18804SOL    HW158151   7.199   6.012   0.700 -0.8607 -0.7490  0.1514
18804SOL    HW258152   7.238   5.880   0.636  1.2179 -0.0614 -0.0850
18805SOL     OW58153   1.485   5.777   9.228  0.0850  0.1126  0.5661
18805SOL    HW158154   1.389   5.784   9.226  0.1858  1.6850  0.2368
18805SOL    HW258155   1.501   5.683   9.225 -1.4493 -0.1779  0.1984
18806SOL     OW58156   9.027   6.347   1.735  0.2609  0.4115 -0.1674
18806SOL    HW158157   8.984   6.419   1.781 -1.2741 -0.2737 -0.4841
18806SOL    HW258158   8.969   6.327   1.662 -0.1200 -2.0899  0.7210
18807SOL     OW58159   3.613   1.694   1.990 -0.0967 -0.9324 -0.3806
18807SOL    HW158160   3.601   1.651   2.075  0.4564  1.4350  1.0114
18807SOL    HW258161   3.543   1.659   1.935 -2.5533 -0.2483  2.0688
18808SOL     OW58162   4.024   8.000   2.012 -0.0869 -0.4189  0.8653
18808SOL    HW158163   4.107   8.029   1.974  0.5873 -2.2066  0.9145
18808SOL    HW258164   4.003   7.918   1.966 -0.8671 -0.9642  2.1503
18809SOL     OW58165   2.725   9.383   7.779  0.3508  0.0483  0.1163
18809SOL    HW158166   2.636   9.360   7.803  0.5649  0.2589  1.1328
18809SOL    HW258167   2.767   9.299   7.761 -0.5334  0.0321 -2.2326
18810SOL     OW58168   2.109   7.281   2.507 -0.1060  0.0107 -0.1697
18810SOL    HW158169   2.127   7.372   2.533 -0.3376  0.0626 -0.1879
18810SOL    HW258170   2.182   7.258   2.449  1.0460 -0.4852  1.3843
18811SOL     OW58171   8.422   8.586   5.660 -0.2560 -0.0994  0.1492
18811SOL    HW158172   8.432   8.583   5.565  0.7152 -0.2802  0.2430
18811SOL    HW258173   8.332   8.559   5.676 -0.7864  1.0385 -0.7774
18812SOL     OW58174   0.889   9.057   4.657 -0.2379  0.1259 -0.3679
18812SOL    HW158175   0.857   9.141   4.622  0.9780  0.3915 -0.9259
18812SOL    HW258176   0.861   8.992   4.593  0.8731  0.4453 -1.2159
18813SOL     OW58177   6.438   5.231   0.209 -0.0875  0.4781  0.9145
18813SOL    HW158178   6.486   5.306   0.243 -0.3904  1.8530 -1.4652
18813SOL    HW258179   6.346   5.251   0.225 -0.2235  1.0779 -0.4836
18814SOL     OW58180   5.516   7.242   6.996  0.8090 -0.0381 -0.2259
18814SOL    HW158181   5.533   7.234   7.090 -0.8149  0.6745  0.1626
18814SOL    HW258182   5.437   7.190   6.981  0.3921  0.7751 -0.9631
18815SOL     OW58183   3.095   3.811   2.323 -0.4015 -0.3301 -0.2939
18815SOL    HW158184   3.062   3.841   2.407  1.2499 -0.0613  0.2794
18815SOL    HW258185   3.116   3.718   2.337 -1.0965 -0.5681 -0.7333
18816SOL     OW58186   1.988   4.045   0.622 -0.7820  0.1055  0.4174
18816SOL    HW158187   1.946   4.007   0.699 -1.1918 -0.5772 -0.1322
18816SOL    HW258188   2.017   4.132   0.651  0.5362 -0.7573  1.8181
18817SOL     OW58189   3.577   5.771   4.195 -0.2729  0.0140 -0.0959
18817SOL    HW158190   3.500   5.828   4.195 -0.6859 -0.5087  1.2852
18817SOL    HW258191   3.620   5.789   4.112 -3.2076 -1.4973 -2.0864
18818SOL     OW58192   3.840   7.021   7.293  0.4331 -1.0917 -0.0331
18818SOL    HW158193   3.785   7.081   7.344 -0.8758 -1.7494 -0.5990
18818SOL    HW258194   3.800   7.021   7.206  1.3915 -1.5602 -0.4851
18819SOL     OW58195   3.083   8.004   8.484  0.4435 -0.7520  0.6419
18819SOL    HW158196   3.175   7.975   8.482  0.5509 -0.3712 -0.3184
18819SOL    HW258197   3.088   8.099   8.469 -0.2370 -1.0645 -2.0640
18820SOL     OW58198   2.063   9.253   7.357  0.2436  0.2437 -0.3249
18820SOL    HW158199   2.144   9.301   7.377 -0.7474  2.3171 -1.0345
18820SOL    HW258200   2.065   9.241   7.262  0.7626 -1.7561 -0.1015
18821SOL     OW58201   6.549   8.083   8.961 -0.2557  0.3579 -0.2706
18821SOL    HW158202   6.626   8.135   8.938 -0.7793  0.7160 -1.2669
18821SOL    HW258203   6.497   8.142   9.017  0.6597 -0.2510  1.3023
18822SOL     OW58204   3.209   7.180   4.231 -0.3153 -0.2136  0.0226
18822SOL    HW158205   3.252   7.252   4.278  0.3209 -0.6900  0.1805
18822SOL    HW258206   3.263   7.168   4.153 -1.1605  0.3308 -0.6682
18823SOL     OW58207   3.593   4.839   2.312  0.3920 -0.0496 -0.0122
18823SOL    HW158208   3.501   4.840   2.287 -0.0180 -1.5676  1.3088
18823SOL    HW258209   3.612   4.929   2.337 -0.5750  0.3884 -0.7898
18824SOL     OW58210   0.654   1.025   8.680 -0.3146 -0.5647  0.4338
18824SOL    HW158211   0.717   0.976   8.627 -0.4905  0.7464 -1.0667
18824SOL    HW258212   0.596   1.065   8.616  0.6471  2.7363  1.4429
18825SOL     OW58213   4.446   1.808   3.133  0.1179  0.2970  0.7819
18825SOL    HW158214   4.394   1.731   3.153  0.3552  0.1586  0.8691
18825SOL    HW258215   4.537   1.777   3.134  0.1718  0.4143  0.0926
18826SOL     OW58216   8.830   3.747   0.227  0.9739 -0.1396 -0.0272
18826SOL    HW158217   8.881   3.822   0.259 -0.7449  1.1218 -0.1300
18826SOL    HW258218   8.748   3.751   0.276  0.2264 -1.0365 -1.1503
18827SOL     OW58219   3.292   2.638   4.397 -0.0274  0.5409  0.2366
18827SOL    HW158220   3.363   2.671   4.341  0.3771  0.2217  0.5626
18827SOL    HW258221   3.276   2.550   4.365  0.1874  0.3662  0.6062
18828SOL     OW58222   4.876   7.334   9.576 -0.1275 -0.1310  0.1912
18828SOL    HW158223   4.844   7.289   9.498 -0.0734 -0.2618  0.2436
18828SOL    HW258224   4.799   7.378   9.612 -0.5331 -1.4731  1.0237
18829SOL     OW58225   8.285   3.191   8.152  0.3247 -0.0037  0.0047
18829SOL    HW158226   8.290   3.172   8.246  0.1542 -1.3221 -0.2455
18829SOL    HW258227   8.376   3.207   8.126  0.3621  0.4645  0.3972
18830SOL     OW58228   7.369   9.502   3.138 -0.6825 -0.0423  0.0061
18830SOL    HW158229   7.401   9.568   3.076 -2.8083  0.6481 -0.4315
18830SOL    HW258230   7.343   9.428   3.084 -0.9422 -0.1233  0.2407
18831SOL     OW58231   9.552   5.399   2.689  0.3027 -0.3551 -0.0687
18831SOL    HW158232   9.493   5.417   2.616 -0.2130 -1.1516  0.1399
18831SOL    HW258233   9.534   5.469   2.752 -0.1399 -0.3667 -0.1776
18832SOL     OW58234   3.057   8.476   8.922  0.1602  0.7009 -0.0870
18832SOL    HW158235   3.027   8.540   8.986  0.5403  0.5156  0.2805
18832SOL    HW258236   2.977   8.431   8.893 -0.1344  1.4671 -0.4985
18833SOL     OW58237   0.807   5.036   9.306 -0.3001  0.3500 -0.4805
18833SOL    HW158238   0.824   4.953   9.351 -1.9708  0.7661  1.0170
18833SOL    HW258239   0.738   5.016   9.243 -1.5614  0.8261  0.7222
18834SOL     OW58240   9.220   3.629   3.058  0.0916 -0.1727 -0.2329
18834SOL    HW158241   9.315   3.615   3.058  0.0636 -0.3953 -0.5786
18834SOL    HW258242   9.188   3.571   2.989 -0.3525 -0.4740  0.2163
18835SOL     OW58243   3.133   8.435   1.975 -0.5291  0.8671  0.4128
18835SOL    HW158244   3.203   8.411   2.035 -1.0404  1.9897  1.5148
18835SOL    HW258245   3.123   8.530   1.986 -1.2297  0.9671 -0.8190
18836SOL     OW58246   4.298   5.924   4.590 -0.2592  0.0577 -0.9467
18836SOL    HW158247   4.334   5.924   4.501 -1.0320 -0.1568 -1.2679
18836SOL    HW258248   4.227   5.988   4.587 -0.4080 -0.0844 -0.5329
18837SOL     OW58249   7.311   5.676   8.745  0.7198  0.3812  0.2977
18837SOL    HW158250   7.272   5.708   8.663 -0.3724 -0.4400  0.4824
18837SOL    HW258251   7.398   5.718   8.747  0.3809  1.2077 -0.7755
18838SOL     OW58252   6.991   0.273   4.681  0.0886  0.3907  0.2434
18838SOL    HW158253   6.947   0.239   4.603 -0.5082  0.0468  0.7243
18838SOL    HW258254   7.033   0.354   4.651 -0.6356  0.5789 -0.2964
18839SOL     OW58255   6.928   1.210   5.527  0.5592 -0.3698 -0.1604
18839SOL    HW158256   6.858   1.243   5.471  1.0945  0.5922 -0.2857
18839SOL    HW258257   6.953   1.285   5.582  0.7948 -0.9845  0.6001
18840SOL     OW58258   2.952   2.211   2.702 -0.3690 -0.1533 -0.1250
18840SOL    HW158259   3.045   2.195   2.712 -0.2954  0.8364  1.1439
18840SOL    HW258260   2.911   2.125   2.708  0.3400 -0.4183  1.4552
18841SOL     OW58261   5.539   6.232   1.923  0.1500  0.5664  0.3740
18841SOL    HW158262   5.533   6.140   1.949  0.5717 -0.3622 -2.5360
18841SOL    HW258263   5.632   6.245   1.904 -0.2903  0.7333 -1.9152
18842SOL     OW58264   5.955   8.065   8.806 -0.1484  0.7574  0.0631
18842SOL    HW158265   5.962   7.976   8.773  0.1431  0.3847  1.0920
18842SOL    HW258266   6.032   8.110   8.769  0.1405  0.3693  0.1794
18843SOL     OW58267   6.763   1.234   6.490 -0.0003 -0.3729  0.1089
18843SOL    HW158268   6.692   1.265   6.547  0.4621 -0.9242  1.0172
18843SOL    HW258269   6.723   1.225   6.404 -1.3075 -1.6551  0.8131
18844SOL     OW58270   7.627   8.636   3.456  0.1592 -0.2572 -1.2600
18844SOL    HW158271   7.550   8.627   3.513  0.3731  1.8450 -0.5332
18844SOL    HW258272   7.701   8.643   3.516  0.6589 -0.1508 -1.8758
18845SOL     OW58273   6.613   2.496   0.277 -0.3693  0.0742  0.4322
18845SOL    HW158274   6.538   2.551   0.301  1.4560  2.2756  1.5010
18845SOL    HW258275   6.646   2.463   0.360 -0.9339 -2.0534 -0.1458
18846SOL     OW58276   9.303   3.402   4.802  0.0034 -0.4161  0.5529
18846SOL    HW158277   9.354   3.325   4.829 -0.5557 -0.5696  1.2138
18846SOL    HW258278   9.353   3.441   4.730  0.7751 -0.8632  0.8393
18847SOL     OW58279   4.554   3.138   7.607  0.0612  0.1574  0.9000
18847SOL    HW158280   4.565   3.121   7.514  0.8455 -0.6860  1.1219
18847SOL    HW258281   4.509   3.222   7.612 -3.2918 -1.4005 -0.3092
18848SOL     OW58282   9.543   8.738   7.717  0.0635 -0.7687  0.3137
18848SOL    HW158283   9.525   8.697   7.802  2.3345 -1.2368  0.6425
18848SOL    HW258284   9.570   8.665   7.661  0.9909 -0.1567 -0.0580
18849SOL     OW58285   6.310   3.778   0.186  0.2469 -0.7800 -0.5034
18849SOL    HW158286   6.225   3.739   0.168 -0.3581  0.2831 -0.0278
18849SOL    HW258287   6.353   3.784   0.101 -0.3290 -0.9338 -0.8060
18850SOL     OW58288   7.950   6.742   7.879 -0.1054 -0.0192  0.1715
18850SOL    HW158289   7.883   6.750   7.811  1.5471  0.0379 -1.5305
18850SOL    HW258290   7.912   6.787   7.956 -2.5560 -1.2186 -0.2404
18851SOL     OW58291   2.111   3.012   8.506  0.9573 -0.2241 -0.1019
18851SOL    HW158292   2.166   2.942   8.542  0.8684  0.2803  1.0461
18851SOL    HW258293   2.028   3.004   8.552  1.4790  1.6436  1.3078
18852SOL     OW58294   1.606   4.924   0.779 -0.0338  0.2212  0.2869
18852SOL    HW158295   1.535   4.864   0.802  0.7605 -0.5068  0.8771
18852SOL    HW258296   1.637   4.958   0.863  1.3901 -0.7321  0.1856
18853SOL     OW58297   1.013   2.686   3.691 -0.0371  0.2846 -0.0707
18853SOL    HW158298   1.057   2.770   3.706  0.3921 -0.1051  0.9510
18853SOL    HW258299   1.029   2.636   3.771 -3.6993  0.6704  1.0939
18854SOL     OW58300   0.279   4.744   3.944  0.5159  0.3944 -0.0667
18854SOL    HW158301   0.232   4.709   3.868 -0.1217  2.5929 -0.7774
18854SOL    HW258302   0.370   4.720   3.930 -0.1533 -3.1836  0.8787
18855SOL     OW58303   8.632   4.236   0.366 -0.8801  0.3786 -0.4015
18855SOL    HW158304   8.712   4.215   0.413 -1.3861 -0.8014 -0.0337
18855SOL    HW258305   8.572   4.164   0.386 -0.8997 -0.5430 -3.3729
18856SOL     OW58306   3.444   4.188   8.944  0.2511  0.5042  0.3764
18856SOL    HW158307   3.380   4.160   8.879  0.0609  0.8875  0.3902
18856SOL    HW258308   3.525   4.143   8.920  0.0643  0.2880  0.1492
18857SOL     OW58309   1.852   6.496   7.296  0.6973  0.1474 -0.1440
18857SOL    HW158310   1.915   6.496   7.368  2.0934 -1.1106 -1.3095
18857SOL    HW258311   1.849   6.587   7.267  1.5662  0.3273  0.2922
18858SOL     OW58312   6.314   0.924   7.697 -0.0422  0.3666 -0.3019
18858SOL    HW158313   6.367   1.002   7.680 -0.2680  0.1244 -2.3793
18858SOL    HW258314   6.227   0.959   7.717  0.3652  0.6915  1.0050
18859SOL     OW58315   5.498   3.795   3.304 -0.4064  0.2716 -0.4515
18859SOL    HW158316   5.525   3.832   3.388  0.4126  0.5549 -0.8249
18859SOL    HW258317   5.469   3.706   3.325  2.1578 -0.5701 -0.1747
18860SOL     OW58318   8.017   6.850   1.357 -0.5094 -0.1857  0.1750
18860SOL    HW158319   8.107   6.877   1.340 -1.3439  1.6072 -2.0204
18860SOL    HW258320   7.999   6.881   1.445  0.9013 -0.3071  0.5331
18861SOL     OW58321   4.610   5.341   4.444 -0.1297 -0.2968  0.0803
18861SOL    HW158322   4.692   5.334   4.493 -0.4148  1.4302  0.8902
18861SOL    HW258323   4.615   5.426   4.401 -1.7399  0.1301  0.6554
18862SOL     OW58324   6.625   6.845   7.865  0.4102  0.1339  0.7109
18862SOL    HW158325   6.657   6.756   7.848 -0.7156 -0.8832  3.3365
18862SOL    HW258326   6.675   6.900   7.806 -0.1483 -2.4093 -2.4387
18863SOL     OW58327   5.115   3.428   3.659 -0.2578 -0.0915 -0.0146
18863SOL    HW158328   5.062   3.464   3.588 -0.6975  1.0537  0.8604
18863SOL    HW258329   5.181   3.495   3.677  0.2443 -0.6430  0.2308
18864SOL     OW58330   5.385   2.035   7.054 -0.2359  0.1899  0.0009
18864SOL    HW158331   5.289   2.038   7.044 -0.2247  3.6209 -0.2935
18864SOL    HW258332   5.417   2.010   6.968 -0.8479  0.6251 -0.3624
18865SOL     OW58333   7.623   6.444   2.212  0.0040 -0.2946  0.3170
18865SOL    HW158334   7.698   6.421   2.268  1.0334 -0.6157 -1.1340
18865SOL    HW258335   7.594   6.529   2.245  2.1661  0.7088 -0.1779
18866SOL     OW58336   8.095   9.250   9.253 -0.1249  0.9126  0.0651
18866SOL    HW158337   8.155   9.278   9.184  0.8246  0.6370  0.7581
18866SOL    HW258338   8.065   9.163   9.225  0.9681  0.4081  0.4300
18867SOL     OW58339   3.853   8.597   6.164 -0.0534 -0.1288 -0.2101
18867SOL    HW158340   3.848   8.688   6.137  0.1029 -0.0650 -0.0207
18867SOL    HW258341   3.802   8.593   6.245 -1.3272 -0.5049 -0.9920
18868SOL     OW58342   1.248   5.509   4.531  0.3950  0.2567 -0.5111
18868SOL    HW158343   1.244   5.499   4.626 -1.4962  0.4809 -0.5308
18868SOL    HW258344   1.230   5.602   4.516 -3.2911 -0.4014 -1.1792
18869SOL     OW58345   9.286   9.420   6.265  0.1264  0.2289  0.7409
18869SOL    HW158346   9.232   9.457   6.335 -0.7975  2.0152 -0.8279
18869SOL    HW258347   9.352   9.487   6.247  0.3583 -0.2082 -0.0879
18870SOL     OW58348   4.637   0.509   0.538  0.1444  0.1321  0.3428
18870SOL    HW158349   4.634   0.595   0.496 -1.4108 -0.5625 -1.1037
18870SOL    HW258350   4.687   0.455   0.477  0.4492 -0.1900  0.8693
18871SOL     OW58351   2.357   0.052   4.130 -0.1456  0.0112  0.3050
18871SOL    HW158352   2.354   0.080   4.039 -1.2822  0.0021  0.3255
18871SOL    HW258353   2.301   0.115   4.176  0.2807 -0.0824  0.9754
18872SOL     OW58354   4.911   6.193   1.833  0.1327 -0.6414 -0.6556
18872SOL    HW158355   4.831   6.215   1.881  0.8303  0.8698 -0.1074
18872SOL    HW258356   4.901   6.101   1.810 -0.8594 -1.0295  1.1605
18873SOL     OW58357   4.971   5.654   5.384 -0.2566 -0.2949 -0.1438
18873SOL    HW158358   4.892   5.602   5.394 -0.2947 -0.4484 -1.0958
18873SOL    HW258359   4.939   5.742   5.365 -0.1919 -0.0819  0.7020
18874SOL     OW58360   0.706   2.506   3.068 -0.5759 -0.5155  0.1015
18874SOL    HW158361   0.778   2.444   3.072 -0.1806 -0.1836 -1.2252
18874SOL    HW258362   0.627   2.452   3.065 -0.2939 -0.9264  0.0744
18875SOL     OW58363   4.533   2.484   1.001 -0.1082  0.6654  0.0617
18875SOL    HW158364   4.449   2.502   1.044  0.4493  2.3469  0.5336
18875SOL    HW258365   4.589   2.452   1.072 -0.0828  0.4226 -0.0672
18876SOL     OW58366   9.595   3.718   0.187  0.0197 -0.4093  0.0796
18876SOL    HW158367   9.606   3.766   0.269 -1.0183 -1.2610  0.7484
18876SOL    HW258368   9.533   3.772   0.137  0.2912 -0.1278  0.0412
18877SOL     OW58369   3.523   1.626   8.038  0.3411 -0.0622 -0.9006
18877SOL    HW158370   3.460   1.659   8.102  1.7453  1.5081 -0.2306
18877SOL    HW258371   3.505   1.676   7.958  0.7890  0.5027 -0.6618
18878SOL     OW58372   2.821   8.245   5.819 -0.4305 -0.0571  0.2276
18878SOL    HW158373   2.748   8.269   5.763 -1.1064  0.8751  1.4588
18878SOL    HW258374   2.881   8.319   5.813  0.7708 -1.0911 -1.2827
18879SOL     OW58375   3.442   8.041   5.427  0.2068 -0.0598 -0.3756
18879SOL    HW158376   3.480   7.978   5.487 -2.5578 -0.7571  0.8103
18879SOL    HW258377   3.508   8.109   5.417  2.7210 -2.3763 -0.5690
18880SOL     OW58378   2.170   9.423   1.696 -0.1587 -0.1965  0.0711
18880SOL    HW158379   2.099   9.428   1.631  1.2693  0.1149 -1.5358
18880SOL    HW258380   2.195   9.331   1.696 -0.0675 -0.1713  0.0742
18881SOL     OW58381   3.027   5.369   9.423 -0.6101 -0.0601  0.4621
18881SOL    HW158382   3.108   5.374   9.474  0.9564  0.4130 -1.9060
18881SOL    HW258383   3.033   5.284   9.378 -2.7532 -1.2293  2.2115
18882SOL     OW58384   4.810   7.063   2.516  0.2300 -0.5986  0.0936
18882SOL    HW158385   4.843   7.023   2.436  0.7075 -0.4469  0.2135
18882SOL    HW258386   4.886   7.068   2.574  0.1548  0.3460  0.1301
18883SOL     OW58387   4.070   6.003   2.167  0.3540  0.1152  0.0939
18883SOL    HW158388   4.093   5.979   2.078  2.0423  1.2212  0.1893
18883SOL    HW258389   3.979   5.976   2.176 -0.2345  1.0227 -2.3427
18884SOL     OW58390   7.320   4.640   1.342 -0.2208 -0.2299 -0.0441
18884SOL    HW158391   7.250   4.575   1.345  0.5136 -0.9791  1.4169
18884SOL    HW258392   7.401   4.589   1.342  0.3566  0.6496 -0.6027
18885SOL     OW58393   5.020   5.291   3.320 -0.1635 -0.0498  0.4960
18885SOL    HW158394   5.007   5.196   3.320  0.7563 -0.1894  0.1509
18885SOL    HW258395   4.967   5.323   3.247  0.6385 -0.4805 -0.2990
18886SOL     OW58396   3.835   6.319   5.239  0.3645 -0.0498 -0.1818
18886SOL    HW158397   3.826   6.223   5.242 -0.1643 -0.0799 -1.6276
18886SOL    HW258398   3.866   6.337   5.150 -1.4288  1.2253 -0.6173
18887SOL     OW58399   1.040   5.146   3.408 -0.3305  0.6872  0.5760
18887SOL    HW158400   1.031   5.177   3.318  1.5598 -2.2095 -0.7731
18887SOL    HW258401   0.989   5.207   3.460 -3.0955  1.4385 -2.6647
18888SOL     OW58402   6.355   2.638   4.275  0.0823  0.1384  0.4264
18888SOL    HW158403   6.404   2.646   4.193 -2.4681  1.3310 -1.0791
18888SOL    HW258404   6.361   2.724   4.315 -1.0286  0.4030  0.0503
18889SOL     OW58405   6.304   5.886   7.242 -0.0053 -0.9669  0.6398
18889SOL    HW158406   6.386   5.887   7.291 -0.6645  0.8457  1.7879
18889SOL    HW258407   6.237   5.866   7.307 -0.7552  0.1720  0.2419
18890SOL     OW58408   8.436   4.987   7.686 -0.3901 -0.1948 -0.8173
18890SOL    HW158409   8.422   5.034   7.768  2.9740 -0.9480  0.3526
18890SOL    HW258410   8.401   5.045   7.618 -0.7102  1.7441  0.9206
18891SOL     OW58411   5.204   7.482   8.922  0.6369  0.4895  0.2862
18891SOL    HW158412   5.265   7.418   8.886 -0.3543  0.1105 -0.8040
18891SOL    HW258413   5.118   7.450   8.897  0.0520  1.7197  0.6072
18892SOL     OW58414   1.866   9.218   3.052 -0.3000 -0.1688  0.1793
18892SOL    HW158415   1.796   9.192   3.111  1.1186 -2.2757  1.0569
18892SOL    HW258416   1.877   9.144   2.992  1.1445  0.0958  0.0707
18893SOL     OW58417   6.926   3.764   7.153 -0.0999  0.5505  0.5787
18893SOL    HW158418   6.853   3.770   7.215 -0.0234 -0.8112  0.8434
18893SOL    HW258419   6.885   3.739   7.070 -0.0088  0.4537  0.5623
18894SOL     OW58420   0.281   5.683   8.183  0.1669  0.1912  0.2719
18894SOL    HW158421   0.291   5.631   8.263 -0.5465  0.6559  0.6700
18894SOL    HW258422   0.203   5.646   8.141  1.0149 -0.6073 -0.6515
18895SOL     OW58423   2.720   1.606   4.051  0.4533  0.1916  0.2319
18895SOL    HW158424   2.731   1.662   3.974  0.6865 -0.6318 -0.3469
18895SOL    HW258425   2.779   1.643   4.117  1.0686  0.2541 -0.3487
18896SOL     OW58426   3.283   5.098   6.988  0.1659  0.0740  0.3498
18896SOL    HW158427   3.347   5.067   6.923  0.1404  0.6052  0.0624
18896SOL    HW258428   3.207   5.124   6.936 -0.0129  0.1178  0.6313
18897SOL     OW58429   3.925   2.903   1.219  0.0127 -0.0806 -0.0274
18897SOL    HW158430   3.901   2.823   1.266 -0.0683  0.7761  1.4653
18897SOL    HW258431   3.901   2.974   1.279  4.1854  0.9543  0.7283
18898SOL     OW58432   4.771   5.026   0.859 -0.4999 -0.0874 -0.5126
18898SOL    HW158433   4.812   5.102   0.818 -2.0042  0.5553 -0.8792
18898SOL    HW258434   4.684   5.056   0.886 -1.0458 -1.6055 -0.4642
18899SOL     OW58435   8.050   5.755   1.556  0.2930 -0.6059 -0.3131
18899SOL    HW158436   8.030   5.677   1.504  0.9156  0.3186 -2.0487
18899SOL    HW258437   7.977   5.763   1.616  0.6506 -3.0134  0.5601
18900SOL     OW58438   3.283   3.667   0.742  0.4483  0.0162 -0.8187
18900SOL    HW158439   3.227   3.623   0.806  0.6449  1.3741  0.3293
18900SOL    HW258440   3.241   3.752   0.728  0.6485 -0.0965 -2.1787
18901SOL     OW58441   6.011   9.599   5.108 -0.8214 -0.1352  0.3707
18901SOL    HW158442   6.001   9.687   5.145  0.6603 -0.4988  1.7445
18901SOL    HW258443   5.926   9.580   5.069 -2.1392  0.7669  2.5989
18902SOL     OW58444   4.558   4.936   1.679  0.3911 -0.3308 -0.4654
18902SOL    HW158445   4.558   4.909   1.771 -0.1513 -0.9352 -0.6315
18902SOL    HW258446   4.515   4.864   1.633 -1.9904  1.2027 -0.8241
18903SOL     OW58447   3.400   4.256   7.963  0.2177 -0.3866 -0.3256
18903SOL    HW158448   3.378   4.350   7.964 -1.5991 -0.6736 -2.8978
18903SOL    HW258449   3.482   4.252   7.913  0.5489 -0.1365  0.1918
18904SOL     OW58450   0.398   3.442   7.444  0.4250  0.0731  0.1092
18904SOL    HW158451   0.368   3.362   7.399 -1.2034  0.6363  0.1216
18904SOL    HW258452   0.429   3.498   7.373  0.0159  0.0608 -0.0873
18905SOL     OW58453   7.581   4.231   5.857  0.0137 -0.7575  0.5296
18905SOL    HW158454   7.535   4.164   5.908  0.0468 -0.5896  0.7842
18905SOL    HW258455   7.584   4.307   5.915 -1.2103 -0.0849 -0.2398
18906SOL     OW58456   1.584   8.734   4.843 -0.0278  0.0314 -0.0351
18906SOL    HW158457   1.539   8.806   4.799 -0.6947 -0.1477  0.3488
18906SOL    HW258458   1.553   8.655   4.798 -2.5799 -0.3853  2.2092
18907SOL     OW58459   2.600   1.566   4.656 -0.3145 -0.1452 -0.0494
18907SOL    HW158460   2.630   1.584   4.745  0.1951 -0.7098 -0.1029
18907SOL    HW258461   2.505   1.582   4.659 -0.3046 -0.1956  0.6011
18908SOL     OW58462   2.517   9.304   5.589  0.0439 -0.1236 -0.0381
18908SOL    HW158463   2.494   9.301   5.496 -0.3769  0.8131  0.0298
18908SOL    HW258464   2.612   9.316   5.591  0.5239 -3.1384 -0.3240
18909SOL     OW58465   7.088   9.187   6.460  0.3570  0.7084  0.0074
18909SOL    HW158466   7.034   9.203   6.382  0.7510  1.0362 -0.2059
18909SOL    HW258467   7.035   9.130   6.515  0.7129 -0.9092 -1.2407
18910SOL     OW58468   4.598   3.792   8.729 -0.0308  0.6332  0.2460
18910SOL    HW158469   4.506   3.808   8.712  0.3902  1.7292 -1.1727
18910SOL    HW258470   4.633   3.876   8.758  0.7600  0.5656 -0.4478
18911SOL     OW58471   9.478   8.641   4.416  1.1462  0.0774 -0.1786
18911SOL    HW158472   9.447   8.684   4.336  0.6660  0.2557  0.0997
18911SOL    HW258473   9.398   8.614   4.462  1.4001 -2.6237 -1.1333
18912SOL     OW58474   0.218   2.221   7.916 -0.2220 -0.4027  0.0946
18912SOL    HW158475   0.165   2.279   7.971 -1.0943 -0.6154 -0.5059
18912SOL    HW258476   0.239   2.273   7.838 -0.4169 -0.6574 -0.1312
18913SOL     OW58477   6.640   0.925   4.548 -0.2546 -0.2878  0.6683
18913SOL    HW158478   6.572   0.934   4.614 -1.0068 -0.1115 -0.1092
18913SOL    HW258479   6.595   0.943   4.465  0.5165 -1.1430  0.0444
18914SOL     OW58480   9.605   4.585   4.248 -0.5317  0.1328 -0.3753
18914SOL    HW158481   9.648   4.666   4.221  1.2778 -0.5146  0.3666
18914SOL    HW258482   9.637   4.519   4.185 -0.5521 -0.3412  0.1030
18915SOL     OW58483   4.011   6.962   4.261 -0.2863 -0.2106 -0.2837
18915SOL    HW158484   3.932   6.994   4.306 -1.4491 -2.8556 -0.2766
18915SOL    HW258485   4.004   6.997   4.173 -0.6680  0.8073  0.1326
18916SOL     OW58486   0.200   1.210   8.705  0.0931 -0.2270  0.4432
18916SOL    HW158487   0.179   1.302   8.685  1.0485 -0.1459 -0.2576
18916SOL    HW258488   0.278   1.215   8.760 -1.5324 -0.5274  2.9034
18917SOL     OW58489   2.956   1.492   1.069 -0.6091  0.3799 -0.3774
18917SOL    HW158490   2.928   1.437   1.142 -1.4841 -0.5171 -1.3553
18917SOL    HW258491   3.039   1.530   1.098 -0.6506 -0.3922  0.8449
18918SOL     OW58492   3.642   3.432   0.173  0.1413  0.3625 -0.3907
18918SOL    HW158493   3.710   3.377   0.132 -0.8183 -0.4334 -0.9605
18918SOL    HW258494   3.561   3.382   0.162 -0.6382  1.5589 -0.2415
18919SOL     OW58495   3.508   0.450   8.059 -0.2799 -0.1326 -0.6134
18919SOL    HW158496   3.550   0.464   8.144 -0.9345 -1.7823  0.0185
18919SOL    HW258497   3.472   0.536   8.036 -0.5529  0.2266  1.0337
18920SOL     OW58498   3.795   8.448   7.931  0.2889 -0.0433 -0.0786
18920SOL    HW158499   3.759   8.371   7.888 -0.0600  0.3641 -0.5341
18920SOL    HW258500   3.838   8.497   7.861  1.7648 -0.5135  0.4524
18921SOL     OW58501   1.263   7.708   5.079 -0.4630  0.7290 -0.1558
18921SOL    HW158502   1.196   7.689   5.013 -0.2219  2.2585 -0.8715
18921SOL    HW258503   1.326   7.636   5.071 -0.6057  0.7300 -1.3626
18922SOL     OW58504   2.798   6.485   8.495 -0.8018 -0.1185 -0.5328
18922SOL    HW158505   2.838   6.437   8.568 -1.7823  0.2063  0.2399
18922SOL    HW258506   2.805   6.425   8.421  0.3067 -0.4155 -0.2161
18923SOL     OW58507   3.752   9.319   4.067 -0.0844 -0.7286  0.4388
18923SOL    HW158508   3.808   9.372   4.122 -0.0111  1.1122 -1.2836
18923SOL    HW258509   3.672   9.370   4.057 -0.1446 -1.0396 -1.0014
18924SOL     OW58510   7.330   0.019   5.255  0.9447  0.1317 -0.0135
18924SOL    HW158511   7.324   0.106   5.216  0.4165  2.1265  4.0237
18924SOL    HW258512   7.249   0.010   5.305  2.3267 -1.3077  2.1274
18925SOL     OW58513   7.679   6.497   7.267 -0.2918 -0.0634  0.3750
18925SOL    HW158514   7.599   6.489   7.215 -0.5368  0.6510  0.6223
18925SOL    HW258515   7.744   6.531   7.206 -0.7399  1.3611  0.6550
18926SOL     OW58516   6.453   3.919   2.456 -0.6369 -1.3241  0.1648
18926SOL    HW158517   6.474   3.926   2.363 -0.8579 -0.7821  0.1525
18926SOL    HW258518   6.520   3.972   2.499 -0.8104 -1.2007  0.2809
18927SOL     OW58519   2.749   0.081   2.686  0.0784  0.0975  0.4972
18927SOL    HW158520   2.706   0.009   2.639  1.4130 -0.4440  0.0536
18927SOL    HW258521   2.709   0.160   2.652  0.1224 -0.3498 -0.6302
18928SOL     OW58522   0.490   6.017   8.339 -0.1494 -0.0306  0.0574
18928SOL    HW158523   0.528   6.001   8.253  1.5360  1.9218  0.3682
18928SOL    HW258524   0.410   6.067   8.320 -0.3386 -0.4909 -0.3987
18929SOL     OW58525   2.598   2.045   4.052 -0.2842 -0.0012 -0.1947
18929SOL    HW158526   2.672   1.988   4.070 -1.0425 -0.7476  0.6186
18929SOL    HW258527   2.636   2.133   4.052  0.5876 -0.3612  0.2972
18930SOL     OW58528   1.317   0.258   6.450 -0.3180  0.2708 -0.1694
18930SOL    HW158529   1.410   0.258   6.429 -0.6009 -0.4041 -1.5651
18930SOL    HW258530   1.303   0.338   6.500  0.8559  0.7970 -0.6655
18931SOL     OW58531   0.435   3.634   0.490  0.6979 -0.3644 -0.2039
18931SOL    HW158532   0.422   3.542   0.468 -1.5932  0.3998 -2.4751
18931SOL    HW258533   0.519   3.635   0.537  1.3188 -3.4385 -0.9983
18932SOL     OW58534   7.351   3.115   5.939  0.1489 -0.3696  0.2448
18932SOL    HW158535   7.256   3.125   5.946 -0.0025 -0.6011 -1.1546
18932SOL    HW258536   7.387   3.184   5.995 -0.8452  0.1533  0.2574
18933SOL     OW58537   2.567   0.516   1.118  0.4908  0.0768  0.4423
18933SOL    HW158538   2.522   0.432   1.125 -0.6114  0.7694  2.3381
18933SOL    HW258539   2.659   0.492   1.107  0.1062 -1.3735  0.0834
18934SOL     OW58540   9.320   8.864   6.824  0.0499  0.2315 -0.2769
18934SOL    HW158541   9.350   8.955   6.816  2.6525 -0.3170  1.7574
18934SOL    HW258542   9.394   8.812   6.793 -1.3979 -1.2389 -1.3870
18935SOL     OW58543   8.582   5.948   7.480  0.5314 -0.2535 -0.0679
18935SOL    HW158544   8.636   5.909   7.548 -0.4860  0.6399  1.2894
18935SOL    HW258545   8.631   6.026   7.452  2.9975 -2.6720 -3.3877
18936SOL     OW58546   9.500   8.758   8.874 -0.2797  0.2021  0.1143
18936SOL    HW158547   9.518   8.846   8.909 -0.6833  0.2932  0.1034
18936SOL    HW258548   9.409   8.762   8.846 -0.9681 -0.8708  2.0668
18937SOL     OW58549   6.405   7.557   0.227  0.3576 -0.0733  0.1712
18937SOL    HW158550   6.324   7.512   0.251  0.6390 -1.0448 -0.6224
18937SOL    HW258551   6.473   7.512   0.277  0.6672 -0.7091 -0.7786
18938SOL     OW58552   3.683   5.754   9.240  0.0294 -0.3536 -0.0105
18938SOL    HW158553   3.776   5.742   9.260  0.1896 -1.3717 -1.2758
18938SOL    HW258554   3.639   5.680   9.282 -0.2187  0.0707  0.5002
18939SOL     OW58555   8.457   3.664   6.579 -0.5277  0.2330 -0.3335
18939SOL    HW158556   8.439   3.641   6.670  2.4209 -2.2369 -0.1936
18939SOL    HW258557   8.552   3.659   6.571 -0.6436  0.7267 -3.4769
18940SOL     OW58558   1.718   4.736   0.568  0.2444  0.5213 -0.4607
18940SOL    HW158559   1.635   4.700   0.539  0.3585 -0.2137  0.0892
18940SOL    HW258560   1.698   4.782   0.649 -0.0578  2.4927 -1.5863
18941SOL     OW58561   7.851   7.174   0.130 -0.3497  0.1136 -0.0194
18941SOL    HW158562   7.905   7.120   0.072 -0.4210  0.9182 -0.8499
18941SOL    HW258563   7.779   7.204   0.075  0.3318  2.0511  0.0636
18942SOL     OW58564   5.356   0.482   6.099 -0.4233  0.1684 -0.0675
18942SOL    HW158565   5.330   0.455   6.011 -0.6682  2.8953 -0.9315
18942SOL    HW258566   5.276   0.471   6.151 -0.9811  0.7080 -0.7719
18943SOL     OW58567   8.557   4.062   2.858  0.0268 -0.3277 -0.0804
18943SOL    HW158568   8.602   4.029   2.936  0.9356  0.5913 -0.1942
18943SOL    HW258569   8.531   3.984   2.810  0.0837 -0.8908  0.7901
18944SOL     OW58570   3.053   7.910   2.805  0.3598  0.2582  0.3329
18944SOL    HW158571   3.140   7.879   2.829 -0.3659 -2.4913 -0.2651
18944SOL    HW258572   3.049   7.999   2.839  3.3585  0.4455  0.4253
18945SOL     OW58573   5.319   7.267   8.742  0.5719  0.1256  0.1300
18945SOL    HW158574   5.390   7.205   8.763 -0.5766 -0.7747  1.5309
18945SOL    HW258575   5.328   7.283   8.648  0.9390 -2.1536 -0.2764
18946SOL     OW58576   9.249   5.168   6.837 -0.3333 -0.2834  0.4881
18946SOL    HW158577   9.269   5.230   6.907 -1.9298  0.7172  0.1039
18946SOL    HW258578   9.207   5.094   6.882  0.0343 -0.3282  0.7585
18947SOL     OW58579   6.719   2.500   5.288  0.1844 -0.0959  0.0872
18947SOL    HW158580   6.735   2.593   5.270 -0.8320  0.2975  1.0980
18947SOL    HW258581   6.708   2.461   5.202  1.8171  0.4632 -0.4301
18948SOL     OW58582   3.052   8.927   7.111  0.2478  0.3477 -0.0470
18948SOL    HW158583   3.069   9.020   7.104 -0.4951  0.3673 -2.6651
18948SOL    HW258584   3.139   8.887   7.114  0.5701  1.0785  1.1998
18949SOL     OW58585   3.329   3.642   8.718 -0.4312 -0.1280  0.5137
18949SOL    HW158586   3.257   3.614   8.662  0.4715 -0.1979 -0.6430
18949SOL    HW258587   3.328   3.738   8.713  2.4582 -0.0459 -3.5070
18950SOL     OW58588   3.753   0.518   3.360  0.0236 -0.1099 -0.0132
18950SOL    HW158589   3.753   0.613   3.345  1.3926 -0.0600  0.1595
18950SOL    HW258590   3.698   0.483   3.291  0.8671  0.6817 -1.1234
18951SOL     OW58591   3.859   2.928   0.672  0.2159  0.1148  0.0164
18951SOL    HW158592   3.910   3.000   0.636  0.0783  1.0546  1.6382
18951SOL    HW258593   3.894   2.915   0.760  0.2811 -1.8703 -0.2516
18952SOL     OW58594   1.023   5.949   0.125  0.2039 -0.5777  0.5065
18952SOL    HW158595   1.091   5.980   0.185  0.4717 -0.5611  0.1923
18952SOL    HW258596   1.035   6.000   0.045 -0.9988  0.3691  0.8844
18953SOL     OW58597   2.531   7.067   6.018  0.5376 -0.1121 -0.8134
18953SOL    HW158598   2.557   7.146   6.065  1.7726  1.0287 -3.2380
18953SOL    HW258599   2.601   7.004   6.035 -0.2126 -0.5640  0.7359
18954SOL     OW58600   9.176   3.007   0.508 -0.4381  0.1801  0.0232
18954SOL    HW158601   9.218   2.921   0.504 -1.5635 -0.3750 -0.4014
18954SOL    HW258602   9.090   2.990   0.548 -1.0150  0.9611 -0.8483
18955SOL     OW58603   5.385   7.303   9.074 -0.2692 -0.1464 -0.3772
18955SOL    HW158604   5.352   7.213   9.077 -0.2806 -0.1863 -1.2702
18955SOL    HW258605   5.480   7.293   9.076 -0.2219 -0.2863 -1.9609
18956SOL     OW58606   9.397   2.834   0.090 -0.5970 -0.4372  0.0381
18956SOL    HW158607   9.437   2.867   0.009 -0.6855  1.1625  0.6041
18956SOL    HW258608   9.303   2.835   0.073 -0.5960 -0.4640  0.0304
18957SOL     OW58609   8.338   1.073   0.800  0.0710  0.3938  0.6619
18957SOL    HW158610   8.367   1.119   0.720  1.5169 -0.2636  0.7802
18957SOL    HW258611   8.410   1.013   0.820 -1.0636 -0.7331  1.4624
18958SOL     OW58612   5.571   8.658   5.055  0.2776 -0.3100  0.6145
18958SOL    HW158613   5.553   8.638   5.146 -0.2567 -2.1232  0.1406
18958SOL    HW258614   5.587   8.574   5.014  1.5381  0.5531 -0.7755
18959SOL     OW58615   6.702   3.429   6.467 -0.0008  0.0243 -0.1741
18959SOL    HW158616   6.609   3.422   6.485  0.2442 -1.5604  0.6777
18959SOL    HW258617   6.732   3.339   6.459  1.7806  0.4100  1.4301
18960SOL     OW58618   2.034   4.268   5.021  0.2236 -1.1776  0.2732
18960SOL    HW158619   2.080   4.287   5.103  0.9910 -2.6232  0.2175
18960SOL    HW258620   2.063   4.337   4.961 -2.3012  1.4248  1.8395
18961SOL     OW58621   7.934   6.575   9.210 -0.0582  0.5418  0.7043
18961SOL    HW158622   7.928   6.512   9.281 -0.1423  0.0679  0.2775
18961SOL    HW258623   8.023   6.566   9.176  0.3532  1.5357  1.4437
18962SOL     OW58624   9.154   5.821   5.906 -0.2977 -0.1441 -0.2036
18962SOL    HW158625   9.240   5.849   5.939 -0.6881  0.2407  0.5075
18962SOL    HW258626   9.129   5.890   5.845  1.1512 -1.6379 -2.6615
18963SOL     OW58627   1.713   7.129   6.139  0.1376  0.5651  0.4893
18963SOL    HW158628   1.686   7.217   6.113  1.1577  1.1544  1.3632
18963SOL    HW258629   1.658   7.108   6.215 -0.2674  0.3363  0.1410
18964SOL     OW58630   4.938   8.709   3.003  0.0623 -0.4772  0.1237
18964SOL    HW158631   4.873   8.732   3.069  0.5521  0.7067  0.2356
18964SOL    HW258632   5.018   8.753   3.032  0.6584 -1.1087 -0.5102
18965SOL     OW58633   5.579   8.119   6.843 -0.3430  0.2632 -0.3289
18965SOL    HW158634   5.629   8.077   6.773 -0.2843 -0.6543  0.2520
18965SOL    HW258635   5.573   8.053   6.912 -1.8584  0.5491 -0.1436
18966SOL     OW58636   7.806   6.428   3.686 -0.5914  0.6748 -0.4450
18966SOL    HW158637   7.818   6.386   3.772  0.8837 -1.3030 -1.5254
18966SOL    HW258638   7.794   6.521   3.706  0.8940  0.4588  1.8524
18967SOL     OW58639   0.359   8.156   2.844  0.3197 -0.6824  0.4625
18967SOL    HW158640   0.345   8.094   2.772 -0.2241  0.0677 -0.0899
18967SOL    HW258641   0.319   8.114   2.920 -0.9434 -0.5657 -0.1264
18968SOL     OW58642   9.342   6.564   0.174 -0.3698 -0.1409 -0.1341
18968SOL    HW158643   9.313   6.482   0.213 -2.2705  0.6361  0.1719
18968SOL    HW258644   9.326   6.553   0.080 -1.1378  0.0621 -0.0330
18969SOL     OW58645   3.323   1.619   2.844 -0.4410 -0.2344  0.0126
18969SOL    HW158646   3.249   1.637   2.901 -0.2661  0.1279  0.1268
18969SOL    HW258647   3.345   1.527   2.861 -1.1410 -0.4777 -0.3521
18970SOL     OW58648   6.997   5.694   3.744 -0.3751  0.2380  0.0003
18970SOL    HW158649   6.932   5.665   3.808 -0.8430  0.3106 -0.4382
18970SOL    HW258650   6.948   5.702   3.662 -0.6376  3.7529  0.3761
18971SOL     OW58651   9.205   1.777   2.787 -0.4384 -0.3831  0.1568
18971SOL    HW158652   9.287   1.770   2.737 -0.7204 -0.6715 -0.2706
18971SOL    HW258653   9.198   1.694   2.834 -1.2771 -1.0164 -1.0436
18972SOL     OW58654   8.137   2.465   1.121  0.6242  0.2241  0.1150
18972SOL    HW158655   8.069   2.493   1.059  1.3308 -0.5429 -1.0398
18972SOL    HW258656   8.214   2.516   1.096  1.2915 -1.0708 -0.5553
18973SOL     OW58657   5.037   2.551   5.525 -0.1675 -0.0471 -0.2277
18973SOL    HW158658   5.125   2.514   5.528  0.6630  1.8718  0.5213
18973SOL    HW258659   4.982   2.478   5.497  1.5316 -1.5017  0.0109
18974SOL     OW58660   3.459   2.747   2.573 -0.3727 -0.3229  0.2130
18974SOL    HW158661   3.366   2.749   2.552 -0.5985  1.4944  1.2133
18974SOL    HW258662   3.468   2.673   2.634 -1.1899 -0.3530  0.3087
18975SOL     OW58663   3.745   1.285   8.370 -0.1965  0.4900 -0.0563
18975SOL    HW158664   3.705   1.345   8.307 -0.8588  0.2437  0.1247
18975SOL    HW258665   3.750   1.201   8.323  0.4187  0.5985 -0.1936
18976SOL     OW58666   1.549   0.673   2.920 -0.4614 -0.1645  0.5522
18976SOL    HW158667   1.574   0.757   2.882 -2.2310 -0.5749 -1.7363
18976SOL    HW258668   1.466   0.651   2.877  1.0570 -4.1795 -0.7337
18977SOL     OW58669   3.354   8.253   7.382 -0.3944 -0.3099  0.4868
18977SOL    HW158670   3.308   8.250   7.298  0.2363  1.0036  0.0582
18977SOL    HW258671   3.430   8.309   7.365 -0.6834  0.6249  2.1277
18978SOL     OW58672   5.218   2.093   7.387  0.2746 -0.2247  0.1434
18978SOL    HW158673   5.235   2.005   7.353  1.9393 -0.5431  1.6559
18978SOL    HW258674   5.305   2.132   7.396 -0.4406  1.6942 -0.6959
18979SOL     OW58675   4.138   1.578   0.521 -0.9395  0.0100 -0.3360
18979SOL    HW158676   4.187   1.529   0.455  0.0636 -0.3887  0.6736
18979SOL    HW258677   4.049   1.583   0.486 -0.5252 -0.5332 -1.5203
18980SOL     OW58678   7.642   4.528   0.564 -0.6209  0.5880 -0.2585
18980SOL    HW158679   7.706   4.575   0.511  0.5217 -0.4423  0.1527
18980SOL    HW258680   7.560   4.536   0.515  0.5358 -0.9764 -2.6405
18981SOL     OW58681   4.424   1.921   3.634 -0.4709  0.3629  0.5287
18981SOL    HW158682   4.373   1.948   3.558 -0.3269 -0.6520  0.0569
18981SOL    HW258683   4.494   1.986   3.640  1.9351 -1.6686 -2.6700
18982SOL     OW58684   2.387   1.646   6.567  0.7538  0.3595 -0.1861
18982SOL    HW158685   2.394   1.551   6.553  1.8878  0.4449 -0.2886
18982SOL    HW258686   2.388   1.655   6.662 -0.0427  0.2260 -0.1627
18983SOL     OW58687   3.908   3.698   7.917  0.0834  0.1088 -0.0989
18983SOL    HW158688   3.830   3.753   7.925  0.0551  0.1574 -0.7236
18983SOL    HW258689   3.874   3.610   7.904  0.1279 -0.0866  1.0146
18984SOL     OW58690   7.762   5.975   1.412  0.2970 -0.3620  0.0556
18984SOL    HW158691   7.694   6.039   1.433 -1.4382 -1.5432 -1.6195
18984SOL    HW258692   7.843   6.027   1.406 -1.0291  1.6890 -1.2252
18985SOL     OW58693   9.407   2.273   2.634 -0.2459 -0.4796 -0.3433
18985SOL    HW158694   9.473   2.300   2.697  0.3005 -3.7610  0.6469
18985SOL    HW258695   9.347   2.347   2.630  1.0569  0.8415  2.1277
18986SOL     OW58696   6.680   4.929   4.362 -0.1909  0.5721  0.1497
18986SOL    HW158697   6.632   4.974   4.293  0.1136 -0.8036 -1.0174
18986SOL    HW258698   6.641   4.841   4.364  1.7373 -0.3544 -0.3311
18987SOL     OW58699   9.210   7.804   8.162 -0.0669  0.3580  0.1929
18987SOL    HW158700   9.243   7.843   8.243  0.7017 -1.6784  0.9171
18987SOL    HW258701   9.276   7.739   8.137 -0.7442  0.2736 -1.5713
18988SOL     OW58702   7.984   6.772   0.220  0.1237  0.4387  0.4150
18988SOL    HW158703   8.070   6.754   0.182 -0.3567 -1.7267  0.2094
18988SOL    HW258704   8.000   6.776   0.314  0.2990 -1.5746  0.5343
18989SOL     OW58705   8.955   3.858   0.512 -0.1124 -0.0371 -0.0711
18989SOL    HW158706   8.974   3.766   0.529 -2.2508 -0.7111 -1.0132
18989SOL    HW258707   8.956   3.899   0.598  1.3838 -0.7860  0.3106
18990SOL     OW58708   1.009   0.459   1.657  0.0873  0.2352  0.1702
18990SOL    HW158709   0.981   0.438   1.745  1.7958 -0.2096  0.6496
18990SOL    HW258710   1.087   0.405   1.643  0.4391  1.0517 -1.2271
18991SOL     OW58711   7.001   4.951   2.018  0.4287 -0.1856  0.0750
18991SOL    HW158712   6.988   4.919   1.929  3.5889 -0.6943 -0.3147
18991SOL    HW258713   7.032   4.874   2.067  0.5267  0.5158  1.1547
18992SOL     OW58714   2.561   9.070   4.899 -0.0090 -0.1145 -0.0711
18992SOL    HW158715   2.572   9.148   4.954 -0.0164  1.3804 -2.0800
18992SOL    HW258716   2.582   8.997   4.957  2.6110  1.5136  1.2142
18993SOL     OW58717   4.270   1.774   3.820  0.0363  0.0799  0.5443
18993SOL    HW158718   4.272   1.694   3.767  2.0163  0.3762  0.0817
18993SOL    HW258719   4.309   1.841   3.763  0.8588  0.7490  1.8324
18994SOL     OW58720   0.218   0.208   6.429 -0.2739  0.3206 -0.2817
18994SOL    HW158721   0.183   0.162   6.505  0.8065 -1.6106 -0.8656
18994SOL    HW258722   0.155   0.190   6.359  0.0282 -0.1209 -0.4501
18995SOL     OW58723   7.580   1.049   3.103  0.0868 -0.6535  0.7535
18995SOL    HW158724   7.580   0.954   3.113 -0.2241 -0.7063  0.3100
18995SOL    HW258725   7.671   1.071   3.087  0.3650 -0.7214  2.1190
18996SOL     OW58726   9.022   3.514   8.631  0.1138  0.2805 -0.2801
18996SOL    HW158727   8.958   3.563   8.684 -0.1164  0.4507 -0.7074
18996SOL    HW258728   9.096   3.573   8.623 -0.2972  0.7074 -1.0748
18997SOL     OW58729   6.969   6.482   0.855 -0.2900  0.8408  0.0265
18997SOL    HW158730   6.976   6.480   0.760 -0.1292  2.0996 -0.0158
18997SOL    HW258731   6.940   6.571   0.875 -1.5041  0.2351  1.0929
18998SOL     OW58732   6.283   5.189   8.552 -0.2213  0.6143  0.0825
18998SOL    HW158733   6.294   5.153   8.640 -1.3359 -1.7984 -0.6795
18998SOL    HW258734   6.243   5.275   8.566  0.2322  0.5703  1.9232
18999SOL     OW58735   5.301   0.240   4.993  0.3028  0.7923  0.0567
18999SOL    HW158736   5.222   0.206   4.952 -0.8433  1.2502  1.7574
18999SOL    HW258737   5.302   0.333   4.972  0.7325  0.6710 -0.4722
19000SOL     OW58738   2.704   2.301   0.294 -0.1033 -0.1718  0.1112
19000SOL    HW158739   2.625   2.348   0.319 -0.0027 -0.0917  0.2778
19000SOL    HW258740   2.768   2.325   0.361 -0.1298 -0.7610  0.3491
19001SOL     OW58741   0.671   0.711   1.015  0.2536  0.5709 -0.0661
19001SOL    HW158742   0.721   0.769   0.958 -1.9443  3.4742  0.7332
19001SOL    HW258743   0.686   0.744   1.103 -1.0714 -0.0895  0.4304
19002SOL     OW58744   3.925   0.719   7.339 -0.2926  0.1443 -0.1438
19002SOL    HW158745   3.932   0.781   7.411  2.0311 -0.0690 -0.1006
19002SOL    HW258746   3.912   0.634   7.382 -1.7202  0.3341 -0.1393
19003SOL     OW58747   7.434   3.038   1.665 -0.2033 -0.2383 -0.2377
19003SOL    HW158748   7.470   2.967   1.612 -1.3502  0.4893 -2.0968
19003SOL    HW258749   7.510   3.090   1.691  0.4191 -0.7609 -0.9719
19004SOL     OW58750   6.913   5.113   9.319 -0.5140  0.0644  0.5088
19004SOL    HW158751   6.892   5.042   9.380  0.9057  0.1072  1.0917
19004SOL    HW258752   6.939   5.069   9.238  0.0896 -0.0998  0.7796
19005SOL     OW58753   7.973   8.045   4.788  0.4994 -0.6256  0.0672
19005SOL    HW158754   7.963   8.041   4.883  0.5432 -2.7452  0.0182
19005SOL    HW258755   7.978   7.954   4.760  0.4509 -0.0511 -1.9862
19006SOL     OW58756   8.975   7.678   3.391 -0.0508 -0.1198 -0.1841
19006SOL    HW158757   9.025   7.748   3.349  2.1136 -1.4648  0.0151
19006SOL    HW258758   8.897   7.668   3.335  0.6067  1.0571 -1.3793
19007SOL     OW58759   1.600   0.169   2.419  0.4990  0.4381  0.6091
19007SOL    HW158760   1.683   0.217   2.425  0.8122 -0.0045 -0.0866
19007SOL    HW258761   1.533   0.236   2.434  0.9875  0.4812  3.1035
19008SOL     OW58762   4.933   8.571   7.889  0.4425  0.0255 -0.2791
19008SOL    HW158763   5.015   8.543   7.928 -0.1408 -0.3393  0.7281
19008SOL    HW258764   4.883   8.608   7.962 -0.5990 -0.4836 -0.7059
19009SOL     OW58765   1.414   9.480   1.418  0.2772 -0.0058 -0.1282
19009SOL    HW158766   1.333   9.530   1.420 -0.0137 -0.4756 -0.2390
19009SOL    HW258767   1.476   9.538   1.371  0.1773  0.5845  0.4514
19010SOL     OW58768   5.014   0.004   6.806  0.4614  0.1395  0.4158
19010SOL    HW158769   4.976   0.062   6.873 -1.9279 -1.5606  0.6279
19010SOL    HW258770   5.093   0.050   6.778  0.1188  2.1996  2.4852
19011SOL     OW58771   8.646   6.697   6.250  0.3313 -0.2374  0.7103
19011SOL    HW158772   8.728   6.747   6.260  0.1413 -0.1303  1.7975
19011SOL    HW258773   8.632   6.656   6.335 -1.1473  0.3579  0.7810
19012SOL     OW58774   0.256   3.816   6.321  0.6013  0.0401  0.9993
19012SOL    HW158775   0.175   3.777   6.288  2.3973 -0.1442 -4.1080
19012SOL    HW258776   0.304   3.742   6.358 -0.3509 -0.3758  1.4565
19013SOL     OW58777   3.297   2.045   4.734 -0.7067 -0.2512 -0.6098
19013SOL    HW158778   3.387   2.039   4.703 -1.1898 -0.6156 -1.9731
19013SOL    HW258779   3.306   2.054   4.829  0.6976 -3.9902 -0.2198
19014SOL     OW58780   4.224   4.782   2.732 -0.1286  0.4509 -0.2612
19014SOL    HW158781   4.295   4.726   2.761 -0.4915  0.4085  0.5877
19014SOL    HW258782   4.216   4.766   2.638 -1.1086 -1.9684  0.1654
19015SOL     OW58783   3.871   2.909   1.577 -0.0873  0.0743 -0.0794
19015SOL    HW158784   3.777   2.891   1.568  0.3515 -1.5803 -2.1365
19015SOL    HW258785   3.914   2.838   1.529  2.2748  0.3265  1.5173
19016SOL     OW58786   9.263   4.924   5.541 -0.0491  0.3363  0.2916
19016SOL    HW158787   9.321   4.870   5.487 -1.2901 -0.0069 -0.7278
19016SOL    HW258788   9.323   4.971   5.600  1.1957 -0.6287 -0.1578
19017SOL     OW58789   9.252   4.920   7.350  0.1834 -0.2896  0.4510
19017SOL    HW158790   9.318   4.986   7.327  1.4914 -1.4158  0.8788
19017SOL    HW258791   9.268   4.848   7.289 -1.5564 -0.0680 -0.3393
19018SOL     OW58792   2.933   8.652   9.170 -0.0444  0.3034  0.1038
19018SOL    HW158793   2.890   8.712   9.110  4.7925  2.0784 -2.1069
19018SOL    HW258794   2.957   8.706   9.245  0.2097 -0.0654  0.2920
19019SOL     OW58795   4.926   0.500   2.303 -0.8139 -0.2759 -0.5713
19019SOL    HW158796   4.933   0.530   2.212 -2.1789  1.9532 -0.0110
19019SOL    HW258797   4.832   0.492   2.318 -0.6315  0.1575  0.8950
19020SOL     OW58798   2.552   5.186   7.122 -0.5650  0.2576 -0.3580
19020SOL    HW158799   2.581   5.096   7.133  3.8121  1.4091 -0.5504
19020SOL    HW258800   2.496   5.203   7.198  0.1237 -2.0271  0.7469
19021SOL     OW58801   1.241   2.787   6.176  0.5394 -0.6825  0.8174
19021SOL    HW158802   1.224   2.872   6.136 -0.4361 -1.6349 -0.8747
19021SOL    HW258803   1.334   2.771   6.160  0.6045 -0.1875  0.6887
19022SOL     OW58804   0.408   2.623   6.365 -0.3609  0.1872 -0.7895
19022SOL    HW158805   0.456   2.656   6.289  0.1209 -0.0830 -0.6034
19022SOL    HW258806   0.327   2.675   6.366  0.1813  1.0455 -0.7692
19023SOL     OW58807   4.824   1.753   6.084  0.5527  0.2019  0.0780
19023SOL    HW158808   4.881   1.704   6.143 -0.7916 -0.3312  0.9709
19023SOL    HW258809   4.818   1.699   6.006 -1.0895 -1.2645  1.1306
19024SOL     OW58810   2.795   3.995   3.200  0.2035  0.3715  0.3556
19024SOL    HW158811   2.874   3.947   3.225  0.5362  0.1487 -1.0797
19024SOL    HW258812   2.824   4.085   3.190 -0.0874  0.6010  1.4601
19025SOL     OW58813   2.312   0.010   0.851 -0.6511  0.3263 -0.3240
19025SOL    HW158814   2.393   0.037   0.809 -0.3444  0.0483  0.0797
19025SOL    HW258815   2.272   0.091   0.882  0.0893  0.3656  0.5755
19026SOL     OW58816   0.642   4.268   5.843 -0.2209  0.3021 -0.0218
19026SOL    HW158817   0.623   4.235   5.931  2.8390 -1.4572  0.1502
19026SOL    HW258818   0.707   4.337   5.857  2.5465 -1.9174 -0.8218
19027SOL     OW58819   5.766   7.610   3.458  0.0294  0.3759  0.2864
19027SOL    HW158820   5.740   7.649   3.542 -0.3465 -0.1015  0.4036
19027SOL    HW258821   5.764   7.516   3.475  2.4348  0.3169  0.4490
19028SOL     OW58822   5.174   6.541   5.631 -0.1514 -0.2749 -0.1373
19028SOL    HW158823   5.103   6.538   5.567 -0.0889 -0.1636 -0.2116
19028SOL    HW258824   5.192   6.634   5.643  1.6642 -0.2941 -1.9962
19029SOL     OW58825   2.150   0.678   1.533  0.0666 -0.0071  0.4269
19029SOL    HW158826   2.167   0.725   1.615 -0.7688  0.5958  0.2579
19029SOL    HW258827   2.056   0.665   1.531 -0.3495  2.3948 -1.7010
19030SOL     OW58828   4.299   4.490   3.907 -0.1262  0.4032 -0.6120
19030SOL    HW158829   4.337   4.576   3.891  0.6266 -0.2453 -2.6006
19030SOL    HW258830   4.263   4.463   3.823  0.5914 -1.6617 -0.3133
19031SOL     OW58831   1.262   7.785   7.136  0.7079  0.1464 -0.6203
19031SOL    HW158832   1.338   7.767   7.081  1.5445  1.0332  0.1842
19031SOL    HW258833   1.187   7.774   7.079  1.5229  0.6028 -1.8197
19032SOL     OW58834   3.253   4.839   1.821 -0.0695 -0.1089 -0.2886
19032SOL    HW158835   3.266   4.832   1.727 -0.3163  1.1619 -0.4321
19032SOL    HW258836   3.183   4.776   1.840  0.6703 -1.1011 -0.7748
19033SOL     OW58837   1.203   3.189   5.468  0.1350  1.1859 -0.2039
19033SOL    HW158838   1.288   3.165   5.431 -0.3185  2.0242 -1.8760
19033SOL    HW258839   1.193   3.282   5.447 -1.5353  0.9100 -0.7312
19034SOL     OW58840   8.776   7.847   7.513 -0.0401 -0.1749 -0.0368
19034SOL    HW158841   8.862   7.834   7.551 -0.7576  0.2016  1.8453
19034SOL    HW258842   8.769   7.780   7.446  1.8171 -0.0087 -0.4485
19035SOL     OW58843   8.890   0.994   1.810 -0.2869 -0.4368 -0.3677
19035SOL    HW158844   8.958   1.019   1.747  0.4172  0.5692  0.7349
19035SOL    HW258845   8.843   0.922   1.768  2.8308 -2.7023 -0.3325
19036SOL     OW58846   6.547   2.288   0.592 -0.4042  0.4361 -0.1754
19036SOL    HW158847   6.619   2.346   0.568  0.5443  0.1810  1.8500
19036SOL    HW258848   6.507   2.330   0.668 -0.6996 -0.7600  0.3544
19037SOL     OW58849   9.499   6.357   5.960 -0.2340 -0.5690 -0.0830
19037SOL    HW158850   9.474   6.302   6.034 -1.0870 -1.3364 -0.8980
19037SOL    HW258851   9.450   6.438   5.972  0.9028 -0.0248  1.0409
19038SOL     OW58852   0.789   1.437   0.058  0.0193  0.3201  0.0362
19038SOL    HW158853   0.749   1.455   0.144  0.2448  1.8300 -0.1551
19038SOL    HW258854   0.828   1.520   0.031 -1.2497  0.2736 -2.1792
19039SOL     OW58855   5.591   3.180   0.799 -0.1644  0.7165  0.0375
19039SOL    HW158856   5.678   3.164   0.835 -0.1126 -1.2197 -0.8488
19039SOL    HW258857   5.606   3.216   0.712 -0.2381  0.0671 -0.2473
19040SOL     OW58858   7.588   6.017   7.715  0.0473  1.2551 -0.0183
19040SOL    HW158859   7.546   6.094   7.752  0.4315  0.2403  2.7384
19040SOL    HW258860   7.567   5.946   7.776  1.9638 -0.2367 -0.9863
19041SOL     OW58861   2.092   8.842   0.252  0.2106  0.1909  0.2267
19041SOL    HW158862   2.031   8.893   0.305 -1.7611  1.0389 -2.6428
19041SOL    HW258863   2.152   8.907   0.215 -0.4064  0.0836 -1.0141
19042SOL     OW58864   2.051   7.710   2.067  0.1870 -0.3705 -0.3394
19042SOL    HW158865   2.136   7.715   2.110  1.4715 -1.2467 -2.5990
19042SOL    HW258866   1.990   7.747   2.131  1.7173 -2.5742  2.6759
19043SOL     OW58867   7.418   5.504   3.343 -0.2311  0.7931 -0.0731
19043SOL    HW158868   7.426   5.456   3.425  0.5248 -0.7310 -0.9749
19043SOL    HW258869   7.348   5.567   3.358 -1.1005 -0.4266  1.2811
19044SOL     OW58870   0.718   3.753   3.625 -0.1675  0.4365  0.3755
19044SOL    HW158871   0.753   3.683   3.570 -0.8104  1.1833 -1.0273
19044SOL    HW258872   0.624   3.735   3.630 -0.3735  1.2933 -0.1692
19045SOL     OW58873   0.790   9.210   0.683 -0.9593 -0.2180  0.1977
19045SOL    HW158874   0.732   9.169   0.619 -0.6983  0.1873 -0.3112
19045SOL    HW258875   0.862   9.147   0.693 -1.9074 -1.1352  1.5110
19046SOL     OW58876   9.567   5.726   9.079  0.6234  0.0332 -0.7079
19046SOL    HW158877   9.493   5.763   9.031  1.4681  0.8042 -1.4400
19046SOL    HW258878   9.637   5.791   9.070  1.7731 -1.2056 -1.0305
19047SOL     OW58879   8.798   9.017   6.071  0.5844 -0.2203 -0.0702
19047SOL    HW158880   8.770   8.943   6.124  0.4437  0.0954  0.2969
19047SOL    HW258881   8.804   9.090   6.132  0.5886  0.1061 -0.4545
19048SOL     OW58882   2.159   3.301   5.976 -0.4216  0.1980  0.2437
19048SOL    HW158883   2.164   3.342   6.062  0.4398 -0.6226  0.6007
19048SOL    HW258884   2.161   3.375   5.915 -2.4981  0.8720  0.9179
19049SOL     OW58885   1.728   6.283   7.452 -0.3095  0.3627 -0.2384
19049SOL    HW158886   1.753   6.356   7.395  2.2694 -0.7314 -0.6447
19049SOL    HW258887   1.754   6.310   7.539 -2.0524  1.0633  0.0954
19050SOL     OW58888   9.595   0.771   6.480 -0.0127 -0.1688  0.0147
19050SOL    HW158889   9.588   0.744   6.572 -0.3283 -0.6005 -0.1331
19050SOL    HW258890   9.675   0.729   6.449 -0.2368 -0.5203 -0.0796
19051SOL     OW58891   8.383   5.569   6.366 -0.4541  0.6165 -0.2208
19051SOL    HW158892   8.407   5.535   6.279  0.0320  3.1706 -1.1780
19051SOL    HW258893   8.291   5.546   6.376 -0.3549 -0.2677 -1.1250
19052SOL     OW58894   2.353   2.561   2.896  0.3143 -0.6284 -0.0525
19052SOL    HW158895   2.441   2.524   2.882  0.6254 -0.2824  0.9008
19052SOL    HW258896   2.369   2.654   2.911 -0.0262 -0.8276  1.7878
19053SOL     OW58897   8.300   7.364   1.584 -0.4269  0.5764 -0.0858
19053SOL    HW158898   8.210   7.331   1.586 -0.3533  0.3267 -0.9014
19053SOL    HW258899   8.295   7.447   1.632 -1.2193  0.8832 -0.6752
19054SOL     OW58900   0.392   7.074   6.068  0.1098  0.3231 -0.4309
19054SOL    HW158901   0.324   7.038   6.125 -2.8716  2.1379 -2.5725
19054SOL    HW258902   0.374   7.035   5.982  0.5968  2.1984 -1.4368
19055SOL     OW58903   6.670   3.999   2.603  0.5244 -0.4795  0.3575
19055SOL    HW158904   6.616   3.971   2.677 -0.6786 -0.7442 -0.5898
19055SOL    HW258905   6.760   3.992   2.635  0.1671 -2.9720  1.0429
19056SOL     OW58906   9.515   8.947   6.531 -0.4400 -0.1956 -0.8702
19056SOL    HW158907   9.478   9.016   6.587 -0.1729 -1.4300  0.8899
19056SOL    HW258908   9.602   8.931   6.567  0.2885 -0.0950 -2.5079
19057SOL     OW58909   6.456   2.978   2.133  0.2999 -0.2862 -0.3714
19057SOL    HW158910   6.466   3.070   2.106 -0.8088  0.3547  1.2309
19057SOL    HW258911   6.406   2.983   2.214 -0.0235 -2.3504 -0.4064
19058SOL     OW58912   3.282   7.030   3.454  0.1478 -0.0004  0.2116
19058SOL    HW158913   3.209   6.976   3.484  0.8115 -0.7368  0.5496
19058SOL    HW258914   3.339   7.037   3.531  0.9308 -0.3103 -0.3287
19059SOL     OW58915   9.246   5.150   4.053  0.1100 -0.6579  1.0296
19059SOL    HW158916   9.265   5.084   3.986  0.2915 -0.7723  1.1936
19059SOL    HW258917   9.152   5.139   4.071  0.1416 -0.8846  1.0688
19060SOL     OW58918   5.161   1.577   1.993  0.1820  0.3580 -0.0054
19060SOL    HW158919   5.153   1.539   1.905  0.0471 -0.8227  0.4872
19060SOL    HW258920   5.197   1.664   1.979 -1.0820  0.7042 -1.3289
19061SOL     OW58921   0.178   6.514   2.121 -0.2475  0.3724  0.3402
19061SOL    HW158922   0.142   6.498   2.208  1.4210 -1.0455  0.8228
19061SOL    HW258923   0.111   6.481   2.061  0.1748 -2.3041  1.2112
19062SOL     OW58924   1.142   8.425   6.288  0.0995 -0.0349 -0.0563
19062SOL    HW158925   1.225   8.456   6.325 -0.0919 -1.4303  1.6575
19062SOL    HW258926   1.077   8.489   6.318  0.4907  1.0086 -1.3231
19063SOL     OW58927   3.781   0.792   7.908  0.2347 -0.1265 -0.0502
19063SOL    HW158928   3.718   0.801   7.980  1.1285 -1.1937  0.9090
19063SOL    HW258929   3.847   0.859   7.926  0.9193 -0.9629  0.6534
19064SOL     OW58930   0.004   7.318   0.259 -0.2964  0.4988  0.0798
19064SOL    HW158931   0.080   7.289   0.210  0.0841 -0.5894  1.2779
19064SOL    HW258932  -0.067   7.261   0.229 -1.0227  2.2811 -1.9349
19065SOL     OW58933   3.284   8.445   0.231  0.2332  0.5448  0.8536
19065SOL    HW158934   3.252   8.421   0.145 -0.3700  1.9929  0.6609
19065SOL    HW258935   3.293   8.361   0.277  0.0910 -0.1996 -0.4287
19066SOL     OW58936   1.491   7.130   5.262 -0.5064 -0.5141  0.1189
19066SOL    HW158937   1.437   7.206   5.284 -0.2311 -0.1415 -0.4635
19066SOL    HW258938   1.439   7.079   5.200 -1.2192 -1.4856  1.4577
19067SOL     OW58939   6.179   2.418   5.645  0.3029 -0.3448  0.1880
19067SOL    HW158940   6.093   2.456   5.661  0.8393  0.2132  2.0363
19067SOL    HW258941   6.241   2.483   5.680  1.5803 -0.1057 -2.3087
19068SOL     OW58942   5.394   7.675   8.803 -0.2739 -0.6857  0.0573
19068SOL    HW158943   5.325   7.638   8.857  1.1659 -2.5888  0.6991
19068SOL    HW258944   5.393   7.623   8.723  0.2012 -0.5161 -0.0630
19069SOL     OW58945   9.554   6.737   2.065 -0.7174  0.1784  0.3623
19069SOL    HW158946   9.617   6.723   1.994  0.9331  1.7827  1.4255
19069SOL    HW258947   9.526   6.649   2.091  0.1370 -0.5099 -0.9623
19070SOL     OW58948   6.608   6.730   8.115  0.3367 -0.0152 -0.6519
19070SOL    HW158949   6.594   6.808   8.061 -1.8258  1.1564  1.3849
19070SOL    HW258950   6.538   6.670   8.088 -0.2387  0.2459  0.2060
19071SOL     OW58951   0.792   5.082   0.661  0.0237 -1.0037 -0.1915
19071SOL    HW158952   0.733   5.115   0.593  0.5593  0.8610  0.1863
19071SOL    HW258953   0.862   5.038   0.613 -0.3570 -0.9970 -0.7637
19072SOL     OW58954   0.399   9.136   3.303  0.1909 -0.5649  0.2168
19072SOL    HW158955   0.427   9.104   3.389 -1.4832 -1.3090  0.5240
19072SOL    HW258956   0.371   9.226   3.318  0.1571 -0.6053  0.3955
19073SOL     OW58957   8.369   8.304   0.415 -0.3893 -0.2068 -0.1267
19073SOL    HW158958   8.419   8.269   0.489  0.9835 -2.5971 -2.0282
19073SOL    HW258959   8.278   8.284   0.436 -0.1606  0.2229  1.4091
19074SOL     OW58960   0.159   9.584   5.153  0.7626  0.6364 -0.3847
19074SOL    HW158961   0.221   9.594   5.226  0.5175 -0.2218 -0.0509
19074SOL    HW258962   0.161   9.669   5.109  2.5292  0.5059 -0.6623
19075SOL     OW58963   6.655   7.651   5.299 -0.3194 -0.1840  0.2024
19075SOL    HW158964   6.746   7.623   5.310 -0.3959 -0.0816  1.2511
19075SOL    HW258965   6.614   7.631   5.383 -1.2175 -0.0353 -0.1910
19076SOL     OW58966   5.406   1.249   6.733 -0.1844 -0.2589 -0.7353
19076SOL    HW158967   5.342   1.262   6.663 -0.6508  0.2069 -0.2313
19076SOL    HW258968   5.477   1.310   6.711 -0.4386  0.0630 -0.6780
19077SOL     OW58969   4.458   6.138   3.339 -0.1746  0.3303  0.5272
19077SOL    HW158970   4.399   6.090   3.281  2.8988 -1.3673 -1.5059
19077SOL    HW258971   4.446   6.230   3.315 -1.2231 -0.0626 -0.5542
19078SOL     OW58972   2.748   7.694   1.028 -0.4712  0.5289  0.1650
19078SOL    HW158973   2.744   7.615   1.081  0.8265 -0.2290 -0.8205
19078SOL    HW258974   2.794   7.758   1.083  0.7578 -0.2128  0.0293
19079SOL     OW58975   9.481   1.545   5.810 -0.4862  0.2124  0.3392
19079SOL    HW158976   9.479   1.639   5.827 -3.1207  0.1642  0.8120
19079SOL    HW258977   9.492   1.505   5.896 -0.2672  0.0642  0.2442
19080SOL     OW58978   8.020   4.380   8.476  0.3158  0.1829  0.1964
19080SOL    HW158979   7.949   4.380   8.411  0.2981 -0.5938  0.2048
19080SOL    HW258980   8.018   4.292   8.513  1.0358  0.2789  0.4748
19081SOL     OW58981   4.977   3.000   4.318 -0.8680  0.5506 -0.5061
19081SOL    HW158982   4.952   3.056   4.245 -2.5645  0.8005  0.2261
19081SOL    HW258983   4.979   2.912   4.281 -0.1946  0.8441 -1.1942
19082SOL     OW58984   8.401   0.993   8.198  0.4620  0.7268 -0.5039
19082SOL    HW158985   8.441   0.979   8.283  1.8621  0.8026 -1.1150
19082SOL    HW258986   8.457   0.945   8.137 -0.5861  0.5544 -1.3761
19083SOL     OW58987   8.558   2.706   3.827  0.3423 -0.8852  0.1891
19083SOL    HW158988   8.471   2.746   3.817  0.1066 -1.4728 -0.1178
19083SOL    HW258989   8.619   2.779   3.816 -0.0889 -0.5909 -0.2786
19084SOL     OW58990   5.012   8.320   9.294 -0.0326  0.2826  0.0887
19084SOL    HW158991   5.050   8.403   9.266 -0.4984  1.1626  1.8889
19084SOL    HW258992   4.919   8.339   9.305 -0.2765 -0.6894 -0.1705
19085SOL     OW58993   4.831   6.511   4.190 -0.2069 -0.0135 -0.0384
19085SOL    HW158994   4.844   6.593   4.237  0.8754  0.0790 -0.4755
19085SOL    HW258995   4.763   6.465   4.239  0.3363  0.4221  1.1348
19086SOL     OW58996   1.348   7.813   5.921  0.3695 -0.3186 -0.3611
19086SOL    HW158997   1.268   7.835   5.873  0.4688  2.7296  0.6352
19086SOL    HW258998   1.419   7.839   5.862  0.5240  0.8527  0.3143
19087SOL     OW58999   8.820   8.443   5.045 -0.1279 -0.0540 -0.2861
19087SOL    HW159000   8.793   8.457   4.954 -1.0476  1.4064  0.1702
19087SOL    HW259001   8.841   8.531   5.078  1.6345 -0.7374  0.4946
19088SOL     OW59002   8.296   5.017   3.734  0.1403  0.5839  0.0289
19088SOL    HW159003   8.345   5.028   3.816  1.1039 -1.6133 -0.1698
19088SOL    HW259004   8.284   4.922   3.726 -2.8123  0.9201 -0.7707
19089SOL     OW59005   1.851   0.101   6.429 -0.0472  0.2360 -0.3316
19089SOL    HW159006   1.890   0.016   6.409  1.9647  0.8430  0.6752
19089SOL    HW259007   1.817   0.132   6.346  0.4192 -0.9624 -0.9991
19090SOL     OW59008   3.195   6.859   2.792  0.3004 -0.6936  0.1700
19090SOL    HW159009   3.103   6.868   2.766  0.7349  0.3050 -1.1525
19090SOL    HW259010   3.193   6.856   2.887 -1.1137 -0.9469  0.1613
19091SOL     OW59011   5.451   5.318   0.391  0.1714 -0.1732  0.0082
19091SOL    HW159012   5.510   5.347   0.322 -1.5766 -2.1020 -2.4556
19091SOL    HW259013   5.377   5.378   0.387  0.2675 -0.0066  0.5748
19092SOL     OW59014   1.860   3.780   7.295 -0.0114 -0.2591 -0.4989
19092SOL    HW159015   1.870   3.763   7.202  1.8057  0.4822 -0.4661
19092SOL    HW259016   1.931   3.732   7.337 -0.0963  0.3612  0.3864
19093SOL     OW59017   3.002   3.850   0.725  0.1468 -0.2856 -0.4437
19093SOL    HW159018   2.958   3.783   0.672 -0.9021  0.8799 -1.0986
19093SOL    HW259019   2.941   3.867   0.797  0.8225 -0.6641  0.2348
19094SOL     OW59020   3.718   8.719   0.036 -0.3770 -0.0787 -0.4702
19094SOL    HW159021   3.694   8.695  -0.053  0.1872 -0.4432 -0.5279
19094SOL    HW259022   3.656   8.672   0.091 -0.2225 -0.4795 -0.6398
19095SOL     OW59023   7.789   1.799   8.891  0.8663  0.1132 -0.7132
19095SOL    HW159024   7.863   1.757   8.847  1.1638  0.2993 -0.3950
19095SOL    HW259025   7.712   1.755   8.856  1.0003  1.1119 -2.4169
19096SOL     OW59026   3.506   7.423   0.881  0.0815  0.0606 -0.4586
19096SOL    HW159027   3.453   7.475   0.821 -0.3472  0.3135  0.1378
19096SOL    HW259028   3.458   7.423   0.964  1.7369  1.6339  0.5815
19097SOL     OW59029   7.044   2.256   1.131  0.1525 -0.7980  0.1097
19097SOL    HW159030   6.990   2.326   1.168  0.3891 -0.0585 -0.8916
19097SOL    HW259031   7.129   2.298   1.114  0.2866 -1.3074 -0.5425
19098SOL     OW59032   2.918   4.876   0.261  0.4979 -0.0251 -0.3545
19098SOL    HW159033   3.007   4.879   0.226  0.1178  2.9180 -1.3672
19098SOL    HW259034   2.861   4.866   0.185 -0.1135 -0.5086  0.1448
19099SOL     OW59035   5.122   1.687   0.863 -0.2484  0.2746 -0.2910
19099SOL    HW159036   5.135   1.675   0.957 -0.1944  0.7048 -0.2394
19099SOL    HW259037   5.208   1.711   0.830 -0.0035 -1.0635 -0.6523
19100SOL     OW59038   7.262   2.074   6.731 -0.1640 -0.0887  0.0297
19100SOL    HW159039   7.195   2.059   6.797  1.4206 -0.1759  1.6963
19100SOL    HW259040   7.235   2.020   6.656 -1.6223 -0.5599  0.8683
19101SOL     OW59041   7.707   4.933   2.448 -0.6913  0.2537 -0.7121
19101SOL    HW159042   7.707   4.841   2.423 -0.7553  0.4640 -1.5371
19101SOL    HW259043   7.631   4.943   2.505 -0.2083 -0.3714  0.0527
19102SOL     OW59044   2.834   9.143   7.361  0.3693  0.2804  0.3511
19102SOL    HW159045   2.754   9.098   7.331  1.9358 -1.8028 -1.0209
19102SOL    HW259046   2.815   9.236   7.349 -1.8743 -0.1281  0.1985
19103SOL     OW59047   4.051   0.992   3.530 -0.6610 -0.1605  0.0233
19103SOL    HW159048   4.128   0.950   3.569 -1.7555 -1.5731  0.7296
19103SOL    HW259049   4.053   1.081   3.565  0.9602  0.0252 -0.4328
19104SOL     OW59050   2.830   1.282   6.730  0.3065  0.5138 -0.3959
19104SOL    HW159051   2.918   1.259   6.761  0.9210  2.8813 -0.1797
19104SOL    HW259052   2.773   1.268   6.805  0.8750  0.9429  0.1269
19105SOL     OW59053   8.676   3.528   2.664  0.1546  0.1253 -0.1651
19105SOL    HW159054   8.657   3.600   2.604 -1.5679  0.0812  0.2804
19105SOL    HW259055   8.651   3.450   2.616 -1.0707  0.0780  0.5086
19106SOL     OW59056   1.698   3.899   1.547 -0.1838 -0.5664 -0.2179
19106SOL    HW159057   1.693   3.964   1.617 -1.4744  0.0906 -0.8743
19106SOL    HW259058   1.754   3.830   1.582 -1.8836 -0.9283  2.0255
19107SOL     OW59059   0.636   1.582   7.269  0.2006 -0.9679 -0.3995
19107SOL    HW159060   0.689   1.654   7.234  0.2097 -0.7008  0.1513
19107SOL    HW259061   0.614   1.529   7.192  0.7399 -0.7370 -0.7199
19108SOL     OW59062   2.773   4.453   8.689  0.5352  0.0287  0.6673
19108SOL    HW159063   2.864   4.440   8.665 -0.2645 -1.0360 -2.2160
19108SOL    HW259064   2.745   4.529   8.638 -0.5205 -0.5259  0.3818
19109SOL     OW59065   4.273   5.769   7.114  0.0688  0.0760  0.0658
19109SOL    HW159066   4.242   5.734   7.197  0.9507 -0.1279  0.3124
19109SOL    HW259067   4.310   5.854   7.135 -0.8739  0.5976 -0.3293
19110SOL     OW59068   2.253   3.089   5.061 -0.8001 -0.2296 -0.4967
19110SOL    HW159069   2.225   3.036   5.135 -0.8380  0.6097  0.0992
19110SOL    HW259070   2.343   3.114   5.083 -0.0506 -1.6731 -1.7012
19111SOL     OW59071   6.423   6.964   9.185  0.0755  0.0187 -0.2542
19111SOL    HW159072   6.397   7.030   9.250 -1.0955 -1.0529  0.4126
19111SOL    HW259073   6.478   6.903   9.235  0.0255 -0.2522 -0.5348
19112SOL     OW59074   3.490   6.842   6.805 -0.4509 -0.1178 -0.0758
19112SOL    HW159075   3.452   6.770   6.755 -1.4258 -0.8710  1.6602
19112SOL    HW259076   3.462   6.921   6.758 -2.6650 -0.7325  0.1085
19113SOL     OW59077   4.386   4.453   5.405 -0.0924 -0.7854 -0.2884
19113SOL    HW159078   4.334   4.416   5.333 -1.8514  1.0082 -0.0553
19113SOL    HW259079   4.326   4.452   5.480  0.7292  0.0035  0.3923
19114SOL     OW59080   3.506   3.069   7.858  0.5313  0.0395 -0.2516
19114SOL    HW159081   3.430   3.053   7.801  1.3038 -2.0894 -0.7739
19114SOL    HW259082   3.495   3.009   7.931  1.8100 -0.4477 -0.4372
19115SOL     OW59083   6.679   8.371   8.260 -0.0248 -0.6023  0.1152
19115SOL    HW159084   6.589   8.350   8.288 -0.6940  1.5185 -0.1978
19115SOL    HW259085   6.669   8.401   8.170  0.6440  1.5443  0.6920
19116SOL     OW59086   6.833   2.719   9.324  0.1214 -0.2774 -0.2192
19116SOL    HW159087   6.836   2.805   9.281  1.3366 -0.9214 -1.5008
19116SOL    HW259088   6.812   2.658   9.253  2.2985 -1.3973  0.0289
19117SOL     OW59089   8.030   6.267   2.312 -0.6569  0.7953 -0.4242
19117SOL    HW159090   8.073   6.321   2.246  0.8008  1.6212  1.1252
19117SOL    HW259091   8.100   6.243   2.373 -1.7574 -0.7999  0.2793
19118SOL     OW59092   7.263   2.327   4.179 -0.5202  0.3059 -0.5201
19118SOL    HW159093   7.313   2.396   4.135 -0.5723 -0.7867 -2.4028
19118SOL    HW259094   7.328   2.283   4.234 -0.0984  0.7455 -0.6512
19119SOL     OW59095   0.320   3.814   8.910 -0.1252  0.2177  0.2447
19119SOL    HW159096   0.247   3.854   8.959 -1.6268  0.1446 -1.7815
19119SOL    HW259097   0.389   3.881   8.912 -1.2569  1.4438 -0.0434
19120SOL     OW59098   5.167   4.997   1.339 -0.7781  0.3585  0.3037
19120SOL    HW159099   5.169   5.053   1.416 -1.9791  1.2329 -0.2723
19120SOL    HW259100   5.085   4.950   1.345 -1.6653  1.5993 -1.1964
19121SOL     OW59101   6.445   9.599   3.406  0.8661  0.6607  0.0237
19121SOL    HW159102   6.516   9.585   3.342  0.2992  1.3574 -0.7860
19121SOL    HW259103   6.374   9.542   3.375  1.3261 -0.6646  1.2998
19122SOL     OW59104   3.596   0.349   1.822  0.3050 -0.0785  0.0909
19122SOL    HW159105   3.568   0.434   1.855 -0.9974 -0.1641 -0.7194
19122SOL    HW259106   3.560   0.286   1.885  0.8609 -0.0695  0.4274
19123SOL     OW59107   4.187   7.857   8.291  0.7474  0.0587  0.1417
19123SOL    HW159108   4.134   7.925   8.331  1.1188  0.0922  0.5841
19123SOL    HW259109   4.201   7.886   8.201  2.1551  1.3095  0.7327
19124SOL     OW59110   5.923   0.028   6.452  0.2961  0.4875  0.9602
19124SOL    HW159111   5.908   0.099   6.389 -1.2851  0.7413  1.5702
19124SOL    HW259112   5.945   0.073   6.534  2.4775  0.1564  0.6167
19125SOL     OW59113   0.526   6.502   3.160  0.6304  0.2459 -0.5458
19125SOL    HW159114   0.619   6.524   3.163  0.6409  0.1870 -0.4398
19125SOL    HW259115   0.483   6.572   3.208  0.6826 -0.0652 -0.0393
19126SOL     OW59116   8.205   5.127   6.379 -0.4498  0.1086  0.1809
19126SOL    HW159117   8.254   5.204   6.409  0.2549  0.5341 -1.9338
19126SOL    HW259118   8.124   5.163   6.344 -0.3121 -0.1548 -0.4120
19127SOL     OW59119   8.611   9.156   8.975 -0.3280  0.2556  0.6673
19127SOL    HW159120   8.593   9.083   9.034 -0.9658 -0.9172 -0.8983
19127SOL    HW259121   8.625   9.231   9.032  2.2490 -1.4269  2.4527
19128SOL     OW59122   8.982   0.106   2.688  0.1193  0.1782  0.7581
19128SOL    HW159123   8.902   0.133   2.734 -0.6570  1.3001 -1.1597
19128SOL    HW259124   8.955   0.031   2.636  0.6093 -0.1296  0.9439
19129SOL     OW59125   1.849   0.587   5.482 -0.3169 -0.1033 -0.6014
19129SOL    HW159126   1.919   0.526   5.504  0.0388  0.6497  0.4203
19129SOL    HW259127   1.769   0.536   5.493 -0.0050 -0.4867 -0.0484
19130SOL     OW59128   5.659   2.944   5.593  0.3674  0.4207  0.4554
19130SOL    HW159129   5.564   2.953   5.598 -0.3939 -3.7922 -1.6362
19130SOL    HW259130   5.687   2.928   5.683 -1.0109  1.0014  1.0048
19131SOL     OW59131   7.123   3.225   0.790  0.2665  0.6896  0.0348
19131SOL    HW159132   7.202   3.236   0.737 -1.3323  0.9291 -2.4366
19131SOL    HW259133   7.087   3.141   0.762 -0.1846  0.3900  1.4285
19132SOL     OW59134   3.044   4.809   4.233  0.1356  0.2693 -0.0391
19132SOL    HW159135   2.992   4.729   4.229  0.5730  0.0267 -1.7375
19132SOL    HW259136   2.983   4.879   4.213  0.1824  0.1220 -0.7174
19133SOL     OW59137   6.116   4.374   2.436 -0.1167 -0.0383 -0.3014
19133SOL    HW159138   6.035   4.324   2.429  0.5941 -1.0545 -1.7430
19133SOL    HW259139   6.110   4.440   2.367 -0.1781  0.5951  0.2985
19134SOL     OW59140   7.933   5.671   1.214  0.4551 -0.0424 -0.0191
19134SOL    HW159141   7.980   5.588   1.219  2.7794  1.2785  2.6572
19134SOL    HW259142   7.860   5.661   1.275  1.2232  0.1225  0.9444
19135SOL     OW59143   1.641   4.572   9.309  0.4319  0.4125 -0.3695
19135SOL    HW159144   1.676   4.502   9.364 -0.0128  0.3939 -0.0999
19135SOL    HW259145   1.615   4.640   9.371 -0.0480  0.4009 -0.5505
19136SOL     OW59146   2.444   7.741   5.836 -0.0531 -0.4673 -0.3855
19136SOL    HW159147   2.465   7.750   5.743 -0.4806  3.3207 -0.2840
19136SOL    HW259148   2.349   7.744   5.840 -0.1007 -2.0000  0.1316
19137SOL     OW59149   5.233   7.732   1.913  0.4577  0.1622  0.4103
19137SOL    HW159150   5.183   7.683   1.848  1.9409 -1.1954  0.2326
19137SOL    HW259151   5.167   7.759   1.978 -0.5532 -1.3360  0.0692
19138SOL     OW59152   0.034   6.460   5.623 -0.0809  0.0307  0.2264
19138SOL    HW159153  -0.039   6.398   5.624 -0.7882  0.8154 -0.6796
19138SOL    HW259154   0.074   6.451   5.710 -0.1076 -1.7257  0.0972
19139SOL     OW59155   9.411   0.274   4.951  1.0560 -0.2289 -0.5518
19139SOL    HW159156   9.403   0.328   5.030  1.9718  2.6255 -2.2676
19139SOL    HW259157   9.321   0.258   4.924  0.7650 -0.1178  0.3130
19140SOL     OW59158   8.949   0.128   8.927 -0.6137  0.3038 -0.0353
19140SOL    HW159159   8.955   0.087   8.841  1.1189  0.3506  0.0233
19140SOL    HW259160   8.993   0.067   8.986 -2.4334 -0.0832  0.9880
19141SOL     OW59161   5.504   3.120   4.681 -0.0643 -0.0970 -0.5765
19141SOL    HW159162   5.522   3.091   4.591  0.0941  1.6524 -1.1624
19141SOL    HW259163   5.534   3.211   4.682 -2.8941  0.9024  0.3365
19142SOL     OW59164   2.772   4.960   9.104 -0.2090 -0.5177  0.1058
19142SOL    HW159165   2.691   5.010   9.101 -0.2181 -0.4981  0.6508
19142SOL    HW259166   2.791   4.949   9.197 -0.1987 -1.5274 -0.0081
19143SOL     OW59167   7.543   4.564   4.395 -0.0315 -0.4547 -0.1469
19143SOL    HW159168   7.490   4.537   4.470  1.4655  0.4756  1.3166
19143SOL    HW259169   7.483   4.613   4.339 -0.9092 -0.1229  1.0477
19144SOL     OW59170   2.536   7.440   3.190 -0.1249  0.0485  0.1091
19144SOL    HW159171   2.529   7.525   3.146  3.5797  0.8500  0.6809
19144SOL    HW259172   2.554   7.462   3.281  2.9197 -1.1385 -0.0795
19145SOL     OW59173   6.118   6.007   9.508 -0.3831 -0.3486 -0.1796
19145SOL    HW159174   6.214   5.999   9.509 -0.2839  0.6624 -0.7281
19145SOL    HW259175   6.097   6.030   9.418 -0.8881  2.2499  0.5139
19146SOL     OW59176   0.765   9.328   2.580 -0.0911  0.2088 -0.3218
19146SOL    HW159177   0.850   9.315   2.621 -0.9260 -0.9221  1.1435
19146SOL    HW259178   0.752   9.249   2.527 -0.7904 -0.2746  0.5402
19147SOL     OW59179   4.652   8.084   1.365 -0.0280  0.2443 -0.5564
19147SOL    HW159180   4.566   8.107   1.329  0.4243  1.6357 -0.8264
19147SOL    HW259181   4.634   8.061   1.456 -0.7902 -0.3073 -0.8317
19148SOL     OW59182   8.434   1.203   3.756 -0.1627 -0.1935 -0.2738
19148SOL    HW159183   8.443   1.146   3.831  1.1241 -0.2489 -0.4489
19148SOL    HW259184   8.391   1.282   3.790  1.4630  0.2754  0.8016
19149SOL     OW59185   3.878   1.169   4.389 -0.0859  0.2220  0.2857
19149SOL    HW159186   3.896   1.141   4.479  1.9597 -1.7137 -0.6260
19149SOL    HW259187   3.794   1.129   4.367  0.6319 -1.4646  0.5220
19150SOL     OW59188   3.010   3.105   0.647  0.3380  0.0474 -0.4633
19150SOL    HW159189   2.955   3.072   0.576  0.8738 -0.6259 -0.5713
19150SOL    HW259190   3.035   3.027   0.696 -0.6819  0.5640  0.9646
19151SOL     OW59191   4.332   2.126   4.198 -0.3953 -0.1289 -0.3167
19151SOL    HW159192   4.424   2.107   4.182 -0.2886 -0.3171  0.5026
19151SOL    HW259193   4.323   2.218   4.175  0.1457  0.0628  0.2069
19152SOL     OW59194   3.078   8.027   2.565  0.2647  0.4300  0.5138
19152SOL    HW159195   3.030   7.979   2.633 -0.4908  0.8384  0.2780
19152SOL    HW259196   3.014   8.040   2.496  0.6224  1.3029  0.3440
19153SOL     OW59197   6.807   1.381   5.312 -0.6067  0.3073 -0.5087
19153SOL    HW159198   6.714   1.402   5.326 -0.5329  0.2784  0.0598
19153SOL    HW259199   6.853   1.462   5.336 -0.6077  1.2037 -3.1625
19154SOL     OW59200   2.712   6.859   6.124  0.1070  0.3928  0.1808
19154SOL    HW159201   2.635   6.806   6.142  1.0179 -0.5728  1.4215
19154SOL    HW259202   2.775   6.798   6.086  0.3004  1.1628 -0.7794
19155SOL     OW59203   5.080   6.033   4.423  0.2977  0.3268 -0.3666
19155SOL    HW159204   5.101   6.040   4.516  0.2657 -1.3878 -0.1880
19155SOL    HW259205   5.028   6.111   4.404  1.0901  1.1736  0.8233
19156SOL     OW59206   5.677   5.281   1.254 -0.5550 -0.1239 -0.8741
19156SOL    HW159207   5.741   5.211   1.246 -1.6558 -1.2960  0.1187
19156SOL    HW259208   5.697   5.323   1.338  1.5765  2.3764 -2.4752
19157SOL     OW59209   4.987   2.881   8.450 -0.4290  0.4957  0.6835
19157SOL    HW159210   5.005   2.820   8.521  0.1706 -0.2888 -0.1141
19157SOL    HW259211   4.911   2.844   8.405  0.2495  0.0380 -0.1120
19158SOL     OW59212   5.914   3.128   8.919  0.2384  0.2467  0.1621
19158SOL    HW159213   5.878   3.181   8.847  1.5507  0.0407 -0.6791
19158SOL    HW259214   5.874   3.165   8.998  0.2315  1.7428 -0.5035
19159SOL     OW59215   2.425   8.155   7.916 -0.5186  0.2586  0.7227
19159SOL    HW159216   2.494   8.153   7.982  0.2335 -0.3825 -0.0585
19159SOL    HW259217   2.365   8.085   7.942  0.7788 -1.2873 -0.2942
19160SOL     OW59218   5.675   6.725   9.101 -0.5262  0.1058 -0.2305
19160SOL    HW159219   5.702   6.683   9.184 -2.8687  0.0269  0.5628
19160SOL    HW259220   5.686   6.818   9.117  0.0202  0.0378 -0.2045
19161SOL     OW59221   0.194   4.358   8.892  0.2321 -0.2489  0.3342
19161SOL    HW159222   0.212   4.285   8.833 -0.6474 -0.3308  0.1541
19161SOL    HW259223   0.099   4.365   8.894  0.2422 -0.1051  1.5681
19162SOL     OW59224   8.867   1.679   3.537 -0.2659 -0.3863 -0.1184
19162SOL    HW159225   8.950   1.633   3.554 -0.2730  0.4061  2.6149
19162SOL    HW259226   8.885   1.734   3.461  2.6785  1.7260  1.8469
19163SOL     OW59227   4.583   7.444   7.611  0.4435  0.2159  0.0391
19163SOL    HW159228   4.521   7.499   7.563 -1.4066 -2.0251 -0.3318
19163SOL    HW259229   4.667   7.458   7.568 -0.2455  1.6840 -0.8946
19164SOL     OW59230   7.652   8.812   7.288 -0.1139 -0.4168 -0.5719
19164SOL    HW159231   7.581   8.758   7.324 -0.5308  0.0283 -0.7244
19164SOL    HW259232   7.693   8.756   7.221  1.3636 -1.6831  1.2656
19165SOL     OW59233   8.188   4.827   0.503 -0.5464 -0.4600 -0.3682
19165SOL    HW159234   8.146   4.846   0.587 -2.5760  0.2545 -1.4744
19165SOL    HW259235   8.259   4.891   0.497  0.7881 -1.6917  1.5571
19166SOL     OW59236   7.715   3.433   6.089  0.4129  0.0874  0.4785
19166SOL    HW159237   7.644   3.372   6.070 -0.2891  0.9318  0.3275
19166SOL    HW259238   7.783   3.411   6.025 -0.2479  0.1347 -0.2554
19167SOL     OW59239   8.711   7.075   0.965 -0.3159  0.4631 -0.2897
19167SOL    HW159240   8.619   7.088   0.990 -0.4207  2.0535 -1.3256
19167SOL    HW259241   8.760   7.095   1.044 -0.8626 -1.4462  0.5917
19168SOL     OW59242   2.403   1.202   9.557 -0.0928  0.3218  0.4345
19168SOL    HW159243   2.324   1.148   9.564 -0.3461  0.2884 -1.8038
19168SOL    HW259244   2.370   1.289   9.535  0.4237  0.7474  1.3427
19169SOL     OW59245   0.006   8.731   3.739  0.5530 -0.0331  0.0464
19169SOL    HW159246  -0.074   8.770   3.701 -1.2812 -2.8142  0.7564
19169SOL    HW259247   0.017   8.648   3.692  2.2184 -0.3748  0.9556
19170SOL     OW59248   5.858   6.855   6.252  0.5547 -0.0905  0.3006
19170SOL    HW159249   5.944   6.893   6.274  0.3090  0.5354  0.1940
19170SOL    HW259250   5.864   6.765   6.282  1.2726 -0.0668  0.2572
19171SOL     OW59251   8.977   2.367   7.361  0.4931  0.3480  0.4959
19171SOL    HW159252   8.967   2.383   7.267  0.9117 -1.8184  0.0346
19171SOL    HW259253   8.954   2.451   7.402 -1.3441  0.8725 -1.4336
19172SOL     OW59254   3.531   3.342   2.027  0.1669  0.3693 -0.0191
19172SOL    HW159255   3.616   3.382   2.007  1.4219 -2.2528 -0.4162
19172SOL    HW259256   3.475   3.366   1.952  0.5959  1.8991  0.1137
19173SOL     OW59257   3.387   2.238   5.491  0.0863  0.6572 -0.0626
19173SOL    HW159258   3.463   2.255   5.547  1.1246 -2.4423 -0.3176
19173SOL    HW259259   3.417   2.261   5.403  0.5353  0.0910 -0.0681
19174SOL     OW59260   4.765   6.174   5.507 -0.6776 -0.1713  0.5423
19174SOL    HW159261   4.771   6.260   5.466 -2.2073 -0.5489 -0.5932
19174SOL    HW259262   4.699   6.127   5.455  1.6213 -2.8077 -0.2306
19175SOL     OW59263   9.204   8.382   3.974 -0.0531 -0.1438 -0.1948
19175SOL    HW159264   9.151   8.387   3.895 -0.1820 -0.9566 -0.1685
19175SOL    HW259265   9.191   8.467   4.017  1.6184  1.1163 -2.0151
19176SOL     OW59266   2.500   4.960   4.828 -1.1000 -0.2047  0.2006
19176SOL    HW159267   2.425   4.951   4.769 -0.0707 -2.2657 -0.9208
19176SOL    HW259268   2.554   5.029   4.788 -0.6504 -1.2472 -1.1043
19177SOL     OW59269   0.731   6.934   5.497  0.3985 -0.1596 -0.0546
19177SOL    HW159270   0.759   6.993   5.427 -0.0691 -0.2930 -0.3533
19177SOL    HW259271   0.760   6.978   5.577  0.4275  0.2739 -0.2962
19178SOL     OW59272   8.012   7.781   6.011  0.3058 -0.0834 -0.7960
19178SOL    HW159273   7.921   7.756   5.992  0.6140 -0.4010 -1.9423
19178SOL    HW259274   8.033   7.846   5.944  0.6453  0.6724  0.0255
19179SOL     OW59275   9.257   4.937   4.757 -0.1825 -0.6449 -0.3120
19179SOL    HW159276   9.341   4.928   4.711  1.1449 -3.0052  2.2694
19179SOL    HW259277   9.211   4.855   4.738 -1.0970 -0.1908 -0.1186
19180SOL     OW59278   0.256   3.254   3.997 -0.2340 -0.4506  0.0719
19180SOL    HW159279   0.201   3.177   4.009  0.8579 -0.9924  2.0771
19180SOL    HW259280   0.260   3.267   3.902 -0.9180 -2.4888 -0.2792
19181SOL     OW59281   7.649   1.245   6.401  0.4033 -0.3412 -0.6190
19181SOL    HW159282   7.700   1.267   6.479 -0.3715 -0.5644 -0.0303
19181SOL    HW259283   7.648   1.149   6.399 -1.3641 -0.3846  0.3396
19182SOL     OW59284   3.553   5.949   0.623 -0.5603 -0.2052 -0.0380
19182SOL    HW159285   3.614   5.949   0.549 -0.8227 -1.6980 -0.2847
19182SOL    HW259286   3.469   5.975   0.586 -0.0465  2.3944  0.3985
19183SOL     OW59287   8.079   8.746   3.109 -0.1682  0.3161 -0.0880
19183SOL    HW159288   8.003   8.778   3.157  0.9585  0.6980  1.5172
19183SOL    HW259289   8.145   8.730   3.176  1.0020 -0.5298 -1.3812
19184SOL     OW59290   5.283   0.966   0.913  0.7264  0.3702 -0.6752
19184SOL    HW159291   5.244   0.966   1.000  0.5910 -2.7594 -0.6335
19184SOL    HW259292   5.226   1.022   0.861 -0.4463  0.5433  0.7366
19185SOL     OW59293   4.176   2.866   3.838  0.3861  0.3892 -0.4856
19185SOL    HW159294   4.267   2.866   3.808 -0.5420  1.1969 -3.7383
19185SOL    HW259295   4.134   2.798   3.787 -0.8156 -0.2692  1.2880
19186SOL     OW59296   4.264   3.714   2.656  0.3597  0.6441  0.3936
19186SOL    HW159297   4.183   3.668   2.677  0.4474  0.4530  0.3191
19186SOL    HW259298   4.333   3.650   2.674  0.4591  0.6215 -0.0533
19187SOL     OW59299   9.509   7.084   8.201  0.6142  0.3946  0.1478
19187SOL    HW159300   9.488   7.102   8.110 -1.0454  3.2012  0.9826
19187SOL    HW259301   9.451   7.012   8.225 -1.7667  2.1606 -0.0464
19188SOL     OW59302   2.817   5.737   9.076  0.5250 -0.1065  0.3425
19188SOL    HW159303   2.747   5.785   9.032  0.4935 -0.6558 -0.2312
19188SOL    HW259304   2.836   5.788   9.154 -0.9770 -0.2815  0.8610
19189SOL     OW59305   7.643   8.002   4.432  0.3016 -0.0620 -0.1897
19189SOL    HW159306   7.703   7.936   4.396  2.2048  0.9193  1.0181
19189SOL    HW259307   7.673   8.085   4.396 -2.1550  0.2252 -1.8076
19190SOL     OW59308   8.922   1.059   8.401 -0.3838  0.7234 -0.2088
19190SOL    HW159309   8.950   1.131   8.458 -0.9093 -0.0458  1.0750
19190SOL    HW259310   8.839   1.088   8.364 -1.4132  0.1980  1.5538
19191SOL     OW59311   8.792   7.609   3.215  0.0771 -0.5631  0.3399
19191SOL    HW159312   8.743   7.530   3.239  0.4942 -0.8875  0.1272
19191SOL    HW259313   8.855   7.579   3.149  1.2815 -0.3683  1.3623
19192SOL     OW59314   0.348   7.416   5.912  0.1109 -0.1816 -0.4940
19192SOL    HW159315   0.327   7.322   5.912  0.1938 -0.2072  0.1552
19192SOL    HW259316   0.444   7.418   5.904  0.0759 -0.1363 -0.9317
19193SOL     OW59317   2.113   6.341   4.776 -0.1860 -0.0816 -0.0791
19193SOL    HW159318   2.052   6.361   4.706  2.5620  2.4195 -1.9563
19193SOL    HW259319   2.094   6.406   4.844 -1.1513 -0.8913  0.4636
19194SOL     OW59320   2.622   1.340   6.920 -0.7755  0.1661 -0.6784
19194SOL    HW159321   2.629   1.435   6.903  1.5110  0.4624  1.3862
19194SOL    HW259322   2.528   1.324   6.927 -1.1993  2.8888  1.7369
19195SOL     OW59323   1.660   0.186   5.985  0.5023 -0.5354  0.2249
19195SOL    HW159324   1.583   0.241   5.974 -0.3029 -1.4204  1.2577
19195SOL    HW259325   1.734   0.245   5.970 -0.3651  0.3408 -0.7152
19196SOL     OW59326   6.366   1.172   1.353 -0.1308  0.5635  0.7496
19196SOL    HW159327   6.426   1.178   1.427  1.5963  1.3214 -0.6322
19196SOL    HW259328   6.385   1.086   1.315  1.3846  1.4660 -0.6730
19197SOL     OW59329   5.726   0.584   2.861  0.4070  0.6384  0.3866
19197SOL    HW159330   5.772   0.551   2.784 -2.1010  0.0063 -0.9653
19197SOL    HW259331   5.746   0.521   2.930  2.0935  0.7829  0.0499
19198SOL     OW59332   0.587   3.200   5.871  0.3153  0.0847  0.0419
19198SOL    HW159333   0.569   3.163   5.785  1.2282 -0.5625  0.1206
19198SOL    HW259334   0.680   3.221   5.869  0.7398 -1.4864  1.4290
19199SOL     OW59335   9.285   8.080   2.308 -1.0195  0.1012 -0.0046
19199SOL    HW159336   9.305   8.095   2.401  0.5394  1.5372 -0.5123
19199SOL    HW259337   9.354   8.020   2.278 -1.0437  0.2697 -0.4028
19200SOL     OW59338   8.369   7.876   1.197  0.0852  0.4522  0.1153
19200SOL    HW159339   8.275   7.878   1.182  0.0122 -1.1641  0.1192
19200SOL    HW259340   8.408   7.893   1.111 -0.2508 -0.4763 -0.2390
19201SOL     OW59341   7.874   5.220   8.454 -0.3540  0.2818 -0.6085
19201SOL    HW159342   7.913   5.155   8.512 -0.3202  1.5798  0.8817
19201SOL    HW259343   7.860   5.296   8.509 -2.2067  0.8977 -1.8393
19202SOL     OW59344   6.636   2.209   7.921 -0.0749 -0.0364 -0.0626
19202SOL    HW159345   6.629   2.241   7.831  0.2811 -0.3497 -0.2001
19202SOL    HW259346   6.547   2.217   7.955  0.0060  1.1352 -0.0825
19203SOL     OW59347   8.554   0.189   2.106 -0.3843  0.7023  0.1525
19203SOL    HW159348   8.603   0.206   2.186  2.9463 -1.9719 -1.0320
19203SOL    HW259349   8.470   0.155   2.136  0.6325  0.0737  2.5704
19204SOL     OW59350   0.888   5.990   5.880  0.3016 -0.5203 -0.1933
19204SOL    HW159351   0.823   5.928   5.848  0.7314 -0.8686 -0.4033
19204SOL    HW259352   0.959   5.935   5.914 -0.6018 -0.2211  2.4152
19205SOL     OW59353   7.953   7.964   9.207 -0.1973 -0.2767  0.1269
19205SOL    HW159354   7.992   8.051   9.195  0.1382 -0.6667 -2.2184
19205SOL    HW259355   8.010   7.920   9.270  1.7705  0.0563 -1.3018
19206SOL     OW59356   6.867   7.152   9.575  0.1973 -0.0840 -0.3716
19206SOL    HW159357   6.957   7.176   9.554  0.0380  0.3483 -0.5651
19206SOL    HW259358   6.842   7.213   9.645  0.1512 -0.3990 -0.1066
19207SOL     OW59359   4.095   0.031   2.314  0.1251 -0.3319  0.1556
19207SOL    HW159360   4.063   0.089   2.244 -1.2516 -0.3485  0.7260
19207SOL    HW259361   4.041   0.055   2.390  0.7340 -1.1794  0.8597
19208SOL     OW59362   6.514   0.081   5.605 -0.7994  0.2118 -0.1610
19208SOL    HW159363   6.580   0.013   5.599  0.0226  1.0421 -0.9865
19208SOL    HW259364   6.460   0.069   5.527  0.5117  1.6140 -1.3658
19209SOL     OW59365   3.540   7.234   4.499 -0.1796 -0.3928  0.1101
19209SOL    HW159366   3.534   7.266   4.589  0.9374 -1.6012  0.6386
19209SOL    HW259367   3.493   7.300   4.448  2.2691  2.3190  1.0921
19210SOL     OW59368   6.417   0.258   2.209  0.0712 -0.2788 -0.6508
19210SOL    HW159369   6.410   0.184   2.148  1.8204  0.0117 -1.2625
19210SOL    HW259370   6.486   0.233   2.270  1.0375  0.9925 -1.1564
19211SOL     OW59371   1.377   1.902   3.549 -0.2505  0.4543  0.0164
19211SOL    HW159372   1.310   1.905   3.481  0.6739  0.4591 -0.9135
19211SOL    HW259373   1.395   1.809   3.560  0.3854  0.5094 -0.5383
19212SOL     OW59374   4.935   4.712   6.183  0.1563  0.6832 -0.4457
19212SOL    HW159375   4.913   4.665   6.264 -0.1543  0.4163 -0.6800
19212SOL    HW259376   4.908   4.652   6.113 -1.6525  1.8234 -0.7831
19213SOL     OW59377   5.784   0.699   4.571  0.9040 -0.3192  0.7537
19213SOL    HW159378   5.875   0.722   4.556  1.0692 -0.2119  1.8541
19213SOL    HW259379   5.782   0.604   4.567  0.9392 -0.2948  0.0796
19214SOL     OW59380   7.722   0.388   1.207  0.6086  0.2294 -0.3373
19214SOL    HW159381   7.694   0.358   1.120 -1.5774  1.5983 -0.2031
19214SOL    HW259382   7.696   0.318   1.266  1.3721 -0.3556 -0.6789
19215SOL     OW59383   7.381   9.528   4.328  0.5527  0.2433 -0.3569
19215SOL    HW159384   7.393   9.568   4.414 -1.0974 -1.4113  0.7351
19215SOL    HW259385   7.433   9.448   4.331 -0.9322 -0.7727 -0.1213
19216SOL     OW59386   7.843   5.535   8.200 -0.1980  0.1337  0.2678
19216SOL    HW159387   7.815   5.445   8.185 -0.0754 -0.2203  1.9921
19216SOL    HW259388   7.903   5.554   8.128  1.1913 -1.7953  0.8258
19217SOL     OW59389   7.369   5.467   2.447 -0.7599 -0.5032 -0.4996
19217SOL    HW159390   7.403   5.384   2.481 -0.6226 -0.7784 -1.2924
19217SOL    HW259391   7.289   5.443   2.401 -0.6907 -0.2081 -0.7757
19218SOL     OW59392   0.948   6.772   6.635  0.0700  0.0201 -0.1582
19218SOL    HW159393   1.014   6.836   6.663 -0.1924  0.5469 -0.7188
19218SOL    HW259394   0.931   6.794   6.544 -0.4388 -0.5036 -0.1951
19219SOL     OW59395   4.099   0.774   1.883  0.4974 -0.5164 -0.3454
19219SOL    HW159396   4.108   0.855   1.932  0.5932 -0.7018 -0.0552
19219SOL    HW259397   4.186   0.759   1.846 -0.0540  0.7244 -2.3311
19220SOL     OW59398   6.196   8.594   1.457  0.2629  0.1510 -0.0660
19220SOL    HW159399   6.257   8.660   1.490 -0.0531  0.9661 -1.0483
19220SOL    HW259400   6.121   8.597   1.517  0.5999  0.0999  0.3610
19221SOL     OW59401   0.929   1.664   7.487  0.4940  0.1258  0.1058
19221SOL    HW159402   0.932   1.661   7.392  0.2937  0.3205  0.0945
19221SOL    HW259403   0.841   1.696   7.508  0.5072  0.0024  0.3564
19222SOL     OW59404   7.607   1.690   3.891 -0.0131  0.0842 -0.3820
19222SOL    HW159405   7.571   1.617   3.842  2.3928 -1.2044 -0.3826
19222SOL    HW259406   7.598   1.664   3.983  0.6664 -0.1580 -0.3763
19223SOL     OW59407   1.118   1.006   2.686  0.1796  0.3291 -0.2904
19223SOL    HW159408   1.036   1.031   2.729  0.2257  0.0039 -0.0093
19223SOL    HW259409   1.152   1.088   2.651 -0.2057  0.4873 -0.3062
19224SOL     OW59410   1.669   5.647   1.254  0.1904  0.3494  0.4322
19224SOL    HW159411   1.692   5.557   1.230 -3.9887 -0.6973 -0.5215
19224SOL    HW259412   1.573   5.649   1.250  0.0506  4.7375  0.9644
19225SOL     OW59413   0.577   2.568   0.766  0.6755  0.1132  0.3561
19225SOL    HW159414   0.552   2.483   0.730  1.0084  0.1254  0.0841
19225SOL    HW259415   0.533   2.632   0.709 -1.5864  0.1327  2.0246
19226SOL     OW59416   6.958   5.521   2.171 -0.2020  0.6150  0.3594
19226SOL    HW159417   6.943   5.615   2.166 -1.3344  0.3978 -0.7797
19226SOL    HW259418   6.997   5.498   2.087  0.4686  0.1311  0.7977
19227SOL     OW59419   5.646   5.583   6.175  0.2784 -0.5306  0.0283
19227SOL    HW159420   5.677   5.502   6.135  1.0810  0.6375 -1.8061
19227SOL    HW259421   5.713   5.606   6.239  0.3410 -0.9845  0.1286
19228SOL     OW59422   2.719   2.334   2.631 -0.1862 -0.1340 -0.3726
19228SOL    HW159423   2.806   2.297   2.642  0.0142  0.9275  2.2656
19228SOL    HW259424   2.661   2.274   2.678 -0.3870  0.8447  0.6707
19229SOL     OW59425   0.767   2.997   3.962 -0.0800 -0.2786  0.3625
19229SOL    HW159426   0.788   3.013   4.054 -0.2767  0.0876  0.3442
19229SOL    HW259427   0.679   3.033   3.950 -0.2908 -0.8420  0.1718
19230SOL     OW59428   9.416   6.078   1.825 -0.0042 -0.4398  0.0348
19230SOL    HW159429   9.464   6.113   1.749  1.3148  0.6929  1.3243
19230SOL    HW259430   9.484   6.039   1.879 -0.9044 -1.0447  0.7453
19231SOL     OW59431   6.999   4.485   5.265  0.1120  0.1473 -0.7572
19231SOL    HW159432   6.982   4.571   5.304  0.9726 -0.1534  0.3433
19231SOL    HW259433   7.089   4.490   5.233 -0.0537 -0.1408 -1.2817
19232SOL     OW59434   1.301   4.866   2.583  0.3906 -0.0877  0.0795
19232SOL    HW159435   1.319   4.809   2.508 -1.6401  1.4421 -1.7206
19232SOL    HW259436   1.207   4.856   2.598 -0.0602  2.7114 -0.3433
19233SOL     OW59437   1.240   5.541   3.709  0.1299  0.6398  0.0300
19233SOL    HW159438   1.172   5.493   3.662 -1.1421  2.2277  0.1809
19233SOL    HW259439   1.215   5.534   3.801  0.2066  1.1771  0.0936
19234SOL     OW59440   0.819   4.991   5.976 -0.3274 -0.2184 -0.0402
19234SOL    HW159441   0.779   5.024   6.057  0.1048 -0.0115  0.0895
19234SOL    HW259442   0.754   4.929   5.942 -0.2125 -0.8452  0.8347
19235SOL     OW59443   4.533   8.718   6.702  0.3189  0.1848  0.0867
19235SOL    HW159444   4.621   8.681   6.695  0.2449  0.1682 -0.8000
19235SOL    HW259445   4.483   8.653   6.751  0.6869 -0.0013  0.2153
19236SOL     OW59446   1.435   6.320   9.205 -0.2574 -0.0050 -0.2864
19236SOL    HW159447   1.478   6.239   9.234 -0.5173 -0.4006 -0.9681
19236SOL    HW259448   1.454   6.383   9.273  1.0054 -0.3092 -0.3351
19237SOL     OW59449   5.457   3.508   0.288 -0.1058  0.5378  0.0568
19237SOL    HW159450   5.548   3.532   0.272 -0.2833  1.2483  0.0908
19237SOL    HW259451   5.455   3.413   0.275  0.5924  0.5443 -0.1502
19238SOL     OW59452   3.579   0.188   3.044 -0.0558 -0.0671  0.5212
19238SOL    HW159453   3.653   0.144   3.003  0.6313  0.1855  1.4506
19238SOL    HW259454   3.522   0.117   3.074 -0.0451 -0.2674  0.0780
19239SOL     OW59455   7.444   8.030   6.407 -0.0494 -0.0025 -0.5306
19239SOL    HW159456   7.374   8.066   6.353  0.1972  0.6317 -0.4294
19239SOL    HW259457   7.398   7.985   6.479 -0.3671 -0.4812 -1.0294
19240SOL     OW59458   9.572   4.070   1.833 -0.4046 -0.2284 -0.4693
19240SOL    HW159459   9.511   4.137   1.866 -1.5428 -1.1422 -0.6669
19240SOL    HW259460   9.631   4.053   1.907 -1.2799 -0.3560  0.2159
19241SOL     OW59461   2.387   6.029   9.211  0.0834  0.0841  0.2121
19241SOL    HW159462   2.419   6.045   9.122  0.0824  0.3119  0.2539
19241SOL    HW259463   2.328   5.954   9.202 -0.1023  0.2576 -0.0155
19242SOL     OW59464   1.879   5.731   4.490  0.2476 -0.6548  0.0752
19242SOL    HW159465   1.941   5.677   4.538  2.2751  1.4866  0.0689
19242SOL    HW259466   1.828   5.777   4.557  0.1255 -0.8437  0.1111
19243SOL     OW59467   1.002   7.080   7.452  0.2650 -0.2195  0.0450
19243SOL    HW159468   1.002   6.994   7.410 -0.6886  0.8904 -2.4343
19243SOL    HW259469   0.938   7.071   7.523 -0.7335 -1.2549 -0.9336
19244SOL     OW59470   7.220   5.492   0.744 -0.3765  0.2623  0.2691
19244SOL    HW159471   7.169   5.572   0.754 -0.5600 -0.0057  1.7952
19244SOL    HW259472   7.187   5.451   0.664 -1.0216  1.1692  0.0611
19245SOL     OW59473   5.647   5.491   4.036  0.2753  0.2171 -0.5406
19245SOL    HW159474   5.697   5.524   4.111 -0.0458  2.0174 -1.0737
19245SOL    HW259475   5.692   5.525   3.959  0.1753 -1.0080 -1.1703
19246SOL     OW59476   7.416   3.944   4.569 -0.3133  0.1846 -1.0376
19246SOL    HW159477   7.465   4.024   4.584 -0.6051 -0.1365  2.3720
19246SOL    HW259478   7.326   3.973   4.552 -0.3541  0.6103 -0.1236
19247SOL     OW59479   2.666   3.554   8.093 -0.0898  0.4029  0.6132
19247SOL    HW159480   2.612   3.478   8.113 -0.0166  0.6324  1.7635
19247SOL    HW259481   2.603   3.620   8.063 -0.0738 -0.3125 -1.1363
19248SOL     OW59482   0.948   7.992   7.045 -0.0020  0.2873  0.4285
19248SOL    HW159483   0.961   8.013   7.138 -0.4246 -2.5802  1.2369
19248SOL    HW259484   1.018   7.930   7.025 -0.8228 -0.3011 -0.7202
19249SOL     OW59485   2.813   7.441   3.747  0.0770  0.4588 -0.3456
19249SOL    HW159486   2.753   7.400   3.685 -0.6248 -0.3667  0.8298
19249SOL    HW259487   2.761   7.451   3.827  0.7468  2.1280 -0.0778
19250SOL     OW59488   6.337   4.295   5.885 -0.7585 -0.0814 -0.3373
19250SOL    HW159489   6.400   4.281   5.956 -1.0567  1.3821  0.2575
19250SOL    HW259490   6.253   4.268   5.922 -1.0995  1.6903  0.3181
19251SOL     OW59491   0.292   4.591   0.550 -0.2696  0.0940 -0.0278
19251SOL    HW159492   0.338   4.518   0.591 -0.5316  0.6563  1.3207
19251SOL    HW259493   0.347   4.615   0.475  0.7258 -0.3701  0.5313
19252SOL     OW59494   4.150   5.862   6.194  0.1626 -0.2126 -0.4554
19252SOL    HW159495   4.124   5.779   6.232  2.9245 -2.3355 -2.6745
19252SOL    HW259496   4.228   5.888   6.243  0.5687 -0.1141 -1.1284
19253SOL     OW59497   9.132   4.891   2.834  0.0139 -0.0733 -0.5667
19253SOL    HW159498   9.115   4.836   2.911  1.5465  0.1041 -0.0657
19253SOL    HW259499   9.227   4.895   2.828 -0.0677  1.4388 -1.3819
19254SOL     OW59500   3.353   8.798   1.407 -0.2354  0.3114  0.1965
19254SOL    HW159501   3.316   8.823   1.323  1.2771  1.1303 -0.2611
19254SOL    HW259502   3.437   8.758   1.385 -1.0927 -2.2073  1.1438
19255SOL     OW59503   8.852   3.095   6.035 -0.6658 -0.2266 -0.7108
19255SOL    HW159504   8.849   3.112   6.129 -0.2648 -0.4403 -0.6567
19255SOL    HW259505   8.774   3.043   6.017 -0.7816 -0.1233 -0.5121
19256SOL     OW59506   9.505   4.594   3.335 -0.5342  0.4503 -0.2452
19256SOL    HW159507   9.519   4.573   3.428 -2.7482  0.9703  0.2685
19256SOL    HW259508   9.560   4.532   3.288  0.1070 -0.3025  1.4032
19257SOL     OW59509   6.877   9.128   2.342  0.5099 -0.4417 -0.2233
19257SOL    HW159510   6.852   9.039   2.368  0.5397 -0.7368 -1.1726
19257SOL    HW259511   6.972   9.123   2.330  0.3084 -0.7222 -1.8758
19258SOL     OW59512   5.805   8.038   2.236  0.1453 -0.4048 -0.2245
19258SOL    HW159513   5.711   8.020   2.245  0.1727  0.0078  1.1473
19258SOL    HW259514   5.848   7.966   2.283  0.6224 -1.5622 -2.3184
19259SOL     OW59515   1.693   3.250   5.059 -0.5237 -0.2459 -0.2741
19259SOL    HW159516   1.757   3.307   5.016 -2.0910  1.8698  0.0501
19259SOL    HW259517   1.715   3.255   5.152 -0.2907 -0.6779 -0.3042
19260SOL     OW59518   0.575   6.918   3.012 -0.6126 -0.0439 -0.1527
19260SOL    HW159519   0.568   6.872   2.928  1.6002  0.0652 -0.4714
19260SOL    HW259520   0.640   6.868   3.061  0.2856  1.5076  0.3302
19261SOL     OW59521   1.056   8.725   3.882 -0.0872 -0.2298  0.4990
19261SOL    HW159522   1.150   8.714   3.893  0.1685  0.0678 -1.0762
19261SOL    HW259523   1.032   8.661   3.815 -1.5638 -2.2770  2.8115
19262SOL     OW59524   2.628   9.321   4.005 -0.4907 -0.0810 -0.6569
19262SOL    HW159525   2.634   9.310   4.100 -0.3041  0.4210 -0.6083
19262SOL    HW259526   2.552   9.268   3.980 -0.3593 -0.4654 -0.2721
19263SOL     OW59527   4.841   6.352   3.739 -0.0552 -0.6695 -0.0515
19263SOL    HW159528   4.854   6.341   3.645 -1.4814  1.3443 -0.5557
19263SOL    HW259529   4.903   6.420   3.765 -0.6400 -0.2150  0.1719
19264SOL     OW59530   2.578   6.578   5.098  0.6040 -0.6122  0.3643
19264SOL    HW159531   2.560   6.491   5.135 -1.1575  0.3681  2.0143
19264SOL    HW259532   2.574   6.637   5.174  1.3953  0.9633 -0.7757
19265SOL     OW59533   1.900   4.606   6.385  0.0660 -0.1761 -0.5908
19265SOL    HW159534   1.944   4.522   6.371  0.0464  0.2403 -3.7241
19265SOL    HW259535   1.815   4.595   6.343 -0.5012  0.9870  0.2113
19266SOL     OW59536   5.353   7.183   5.964  0.4352  0.1123  0.1484
19266SOL    HW159537   5.416   7.250   5.939  0.6280 -0.0985  0.0704
19266SOL    HW259538   5.297   7.226   6.029  0.8068  0.2283  0.3949
19267SOL     OW59539   0.350   8.285   0.758 -0.2503 -0.0250 -0.0657
19267SOL    HW159540   0.377   8.285   0.666  1.0071 -0.0498  0.2716
19267SOL    HW259541   0.373   8.198   0.789 -1.7283 -0.4124  0.0059
19268SOL     OW59542   9.511   0.463   1.426  0.5999  0.1446  0.0618
19268SOL    HW159543   9.469   0.520   1.492 -0.6059 -1.5133  0.8099
19268SOL    HW259544   9.533   0.383   1.475  0.7530 -0.6672 -1.3004
19269SOL     OW59545   1.458   9.469   2.887  0.2764  0.2604  0.4545
19269SOL    HW159546   1.419   9.464   2.975  2.4225 -0.6198  1.4163
19269SOL    HW259547   1.428   9.390   2.843 -0.0625  0.2394  0.7153
19270SOL     OW59548   6.777   0.204   3.103 -0.4993  0.6204  0.1403
19270SOL    HW159549   6.845   0.255   3.058  1.3934 -1.0592  0.9168
19270SOL    HW259550   6.814   0.187   3.190 -2.7559  1.1969  1.2901
19271SOL     OW59551   0.524   5.293   8.647  0.4870 -1.1798 -0.1883
19271SOL    HW159552   0.522   5.199   8.666  0.8569 -1.6295 -2.1853
19271SOL    HW259553   0.610   5.322   8.678  0.0593 -1.2872  1.1864
19272SOL     OW59554   8.025   8.419   6.332 -0.2289 -0.2084  0.1825
19272SOL    HW159555   8.068   8.347   6.378 -0.3666  0.6070  1.6496
19272SOL    HW259556   7.967   8.458   6.398 -0.3287  1.0986 -0.6464
19273SOL     OW59557   4.898   7.350   1.914 -0.4861 -0.4744 -0.0882
19273SOL    HW159558   4.958   7.340   1.988 -0.5102 -0.6827 -0.0970
19273SOL    HW259559   4.926   7.284   1.851 -0.2567 -0.0745 -0.4065
19274SOL     OW59560   7.625   9.328   5.606  0.4677  0.2585  0.2155
19274SOL    HW159561   7.566   9.255   5.586  0.1375  0.4261  0.5529
19274SOL    HW259562   7.632   9.327   5.702  0.7436  0.4495  0.1979
19275SOL     OW59563   3.162   5.857   2.124  0.7059 -0.0653  0.0115
19275SOL    HW159564   3.218   5.785   2.096  0.8107  0.1270 -0.2812
19275SOL    HW259565   3.090   5.815   2.171 -0.0678 -0.5094 -1.4830
19276SOL     OW59566   0.395   1.929   0.165  0.2618 -0.4926  0.6785
19276SOL    HW159567   0.321   1.872   0.185  0.9711 -1.7985 -0.2997
19276SOL    HW259568   0.428   1.956   0.251 -1.6217  0.5265  1.1294
19277SOL     OW59569   5.783   1.985   3.184  0.1051 -0.7134  0.1432
19277SOL    HW159570   5.753   2.058   3.239 -0.5374 -0.3030 -0.7211
19277SOL    HW259571   5.707   1.928   3.176  0.3467 -1.0303  0.0958
19278SOL     OW59572   1.784   5.998   8.742 -0.0213  0.5425 -0.4952
19278SOL    HW159573   1.700   5.991   8.788 -0.1993  0.6876 -0.7941
19278SOL    HW259574   1.774   5.943   8.665  0.8250 -0.9613  0.4137
19279SOL     OW59575   8.572   4.481   5.279 -0.1989  0.3714  0.1823
19279SOL    HW159576   8.535   4.394   5.293  1.1505 -0.0809  1.1001
19279SOL    HW259577   8.613   4.504   5.362 -0.2013  1.7265 -0.1684
19280SOL     OW59578   5.236   7.825   0.494 -0.7413 -0.2252 -0.5257
19280SOL    HW159579   5.332   7.828   0.488 -0.8378  0.9298 -2.0767
19280SOL    HW259580   5.208   7.786   0.412 -1.6363  0.2862 -0.4720
19281SOL     OW59581   8.868   5.672   8.842 -0.0962  0.2349 -0.0446
19281SOL    HW159582   8.926   5.671   8.918  0.0356  0.5967 -0.1349
19281SOL    HW259583   8.851   5.765   8.826 -0.2896  0.1530 -0.3307
19282SOL     OW59584   7.065   1.844   4.473 -0.0096 -0.0927  0.1995
19282SOL    HW159585   7.016   1.923   4.495  0.9318  0.2568  1.1259
19282SOL    HW259586   7.010   1.799   4.409 -1.6696  0.1337  1.3871
19283SOL     OW59587   4.748   4.646   0.183 -0.3945  0.0705 -0.1739
19283SOL    HW159588   4.685   4.575   0.198 -0.4458 -0.3212 -1.9734
19283SOL    HW259589   4.694   4.718   0.149 -0.0695  0.2493 -0.3119
19284SOL     OW59590   8.347   1.013   4.655 -0.0081  0.7209 -0.1357
19284SOL    HW159591   8.264   0.978   4.623 -0.6598  0.0492  2.1115
19284SOL    HW259592   8.406   0.938   4.658 -0.6010  0.2544  2.1080
19285SOL     OW59593   4.225   1.363   0.393 -0.2146 -0.5825  0.1236
19285SOL    HW159594   4.319   1.357   0.414 -0.1682  0.4205  0.2510
19285SOL    HW259595   4.211   1.294   0.327  0.8480 -0.0470 -0.6961
19286SOL     OW59596   4.735   3.396   7.452 -0.0602  0.0584 -0.4095
19286SOL    HW159597   4.717   3.407   7.358 -0.0077  0.3380 -0.3892
19286SOL    HW259598   4.676   3.459   7.494 -1.4491 -1.3573 -0.1322
19287SOL     OW59599   3.776   0.603   6.249  0.2735  0.3769 -0.2824
19287SOL    HW159600   3.708   0.610   6.315 -0.9759  0.0242 -1.4772
19287SOL    HW259601   3.740   0.543   6.184  1.4093  0.7864 -1.3359
19288SOL     OW59602   0.145   1.856   3.833 -0.1649 -0.1069  0.2177
19288SOL    HW159603   0.054   1.882   3.846 -0.2334  0.5302 -1.3240
19288SOL    HW259604   0.144   1.760   3.836 -1.2259 -0.1962 -1.6211
19289SOL     OW59605   4.989   0.559   8.584  0.2117 -0.2302 -0.1718
19289SOL    HW159606   5.046   0.635   8.570  0.6658 -0.4771  0.2696
19289SOL    HW259607   4.973   0.524   8.497  0.4199  0.0721 -0.3333
19290SOL     OW59608   3.377   6.165   5.993 -0.3258 -0.7200 -0.4645
19290SOL    HW159609   3.427   6.227   5.941 -0.8154  0.8566  0.8745
19290SOL    HW259610   3.442   6.104   6.028  0.7259  1.1907  1.1051
19291SOL     OW59611   4.623   2.535   4.756 -0.4635  0.4157  0.0273
19291SOL    HW159612   4.684   2.605   4.733 -0.2194  0.1699 -0.0699
19291SOL    HW259613   4.671   2.480   4.818 -0.7712  0.5194  0.3594
19292SOL     OW59614   5.309   3.225   7.759  0.0626  0.2081 -0.1039
19292SOL    HW159615   5.241   3.179   7.711 -1.4051  2.2200 -0.0806
19292SOL    HW259616   5.276   3.231   7.849  0.7222  0.3571  0.1359
19293SOL     OW59617   8.200   7.829   3.708 -0.0679  0.6054 -0.8856
19293SOL    HW159618   8.287   7.792   3.693 -0.1491 -0.0718  0.2273
19293SOL    HW259619   8.216   7.919   3.734  0.7745 -0.7044  4.2646
19294SOL     OW59620   5.715   1.447   5.762  0.1150  0.4549 -0.1170
19294SOL    HW159621   5.632   1.413   5.795 -0.5720  2.2575  0.1408
19294SOL    HW259622   5.695   1.480   5.675  1.3483 -1.9768 -1.4226
19295SOL     OW59623   6.642   3.743   0.211 -0.5928  0.2903  0.1255
19295SOL    HW159624   6.679   3.737   0.123  0.7705  1.8531  0.5579
19295SOL    HW259625   6.558   3.788   0.199  0.1773  1.6636 -0.2485
19296SOL     OW59626   0.448   4.674   0.306  0.0921  0.4817  0.4875
19296SOL    HW159627   0.435   4.765   0.277  2.5734  1.0583  0.9068
19296SOL    HW259628   0.470   4.626   0.226 -1.8018  0.0548  0.1701
19297SOL     OW59629   0.245   3.248   0.163  0.4599  0.6787 -0.4900
19297SOL    HW159630   0.183   3.317   0.140  1.8061  1.9593 -0.5025
19297SOL    HW259631   0.305   3.244   0.089  0.3477 -0.6055 -0.5294
19298SOL     OW59632   8.375   7.834   4.005  0.5054 -0.1853 -0.0681
19298SOL    HW159633   8.372   7.910   3.947 -1.4067  0.2490  0.5366
19298SOL    HW259634   8.283   7.807   4.014  0.8063 -0.5938  2.2834
19299SOL     OW59635   2.701   8.541   6.749  0.2101  0.4464  0.6668
19299SOL    HW159636   2.733   8.491   6.674  1.0442 -0.5757  1.6640
19299SOL    HW259637   2.732   8.630   6.733 -0.6639  0.5208 -0.7766
19300SOL     OW59638   6.186   0.678   1.718 -0.5307 -0.3754  0.3965
19300SOL    HW159639   6.263   0.636   1.679 -1.0095 -0.6616 -0.2525
19300SOL    HW259640   6.217   0.709   1.804  0.1920 -0.8612  0.3238
19301SOL     OW59641   0.418   0.356   1.195  0.3078  0.4008 -0.5016
19301SOL    HW159642   0.494   0.342   1.252  0.2028  0.3099 -0.3820
19301SOL    HW259643   0.421   0.284   1.132  1.0158  1.0794 -1.2750
19302SOL     OW59644   1.821   0.495   8.233  0.4657  0.1511 -0.1159
19302SOL    HW159645   1.913   0.486   8.210  0.6108 -0.4516  0.6754
19302SOL    HW259646   1.776   0.503   8.149  1.3213  1.3375 -0.4878
19303SOL     OW59647   5.159   9.029   8.472  0.0795 -0.3468  0.0100
19303SOL    HW159648   5.064   9.039   8.477  0.0803 -0.3899  0.1112
19303SOL    HW259649   5.193   9.092   8.535  0.0966 -0.7320  0.3893
19304SOL     OW59650   2.071   7.204   2.884 -0.0161 -0.0443 -0.0002
19304SOL    HW159651   2.006   7.194   2.814  0.6090 -1.2514 -0.4331
19304SOL    HW259652   2.023   7.248   2.955 -1.0762 -0.1850 -0.6073
19305SOL     OW59653   1.035   7.259   6.972  0.3989  0.1989 -0.0241
19305SOL    HW159654   0.983   7.283   6.895  0.8284 -1.2254 -0.7874
19305SOL    HW259655   1.115   7.222   6.936  1.3119  0.9708  1.1361
19306SOL     OW59656   9.362   0.589   1.188 -0.1753  0.6430 -0.0546
19306SOL    HW159657   9.309   0.563   1.112  0.7963 -1.0809 -0.2011
19306SOL    HW259658   9.348   0.518   1.251  2.1130 -0.0050 -0.1976
19307SOL     OW59659   9.195   6.905   5.922 -0.3688  0.1573  0.1412
19307SOL    HW159660   9.251   6.829   5.934  1.0236  1.0684 -0.3922
19307SOL    HW259661   9.209   6.958   6.001 -0.8998  0.1433  0.2499
19308SOL     OW59662   0.015   2.342   6.754  0.0472 -0.0089 -0.5238
19308SOL    HW159663   0.058   2.333   6.670  1.6260 -0.0704  0.2506
19308SOL    HW259664   0.001   2.437   6.764  0.8374  0.1017 -0.4051
19309SOL     OW59665   1.766   7.760   0.412  0.4620  0.3357 -0.4946
19309SOL    HW159666   1.714   7.753   0.492  1.7624  0.4232  0.3763
19309SOL    HW259667   1.710   7.810   0.352 -1.4060 -1.5102 -0.4212
19310SOL     OW59668   8.929   4.671   5.571 -0.3732 -0.5930  0.7352
19310SOL    HW159669   8.924   4.739   5.504  0.2759 -1.8359 -0.6291
19310SOL    HW259670   8.996   4.701   5.632 -0.5857  0.2970  0.5394
19311SOL     OW59671   4.190   3.363   7.253 -0.0031 -0.1652  0.0752
19311SOL    HW159672   4.166   3.377   7.345 -1.7663 -4.0292  0.3882
19311SOL    HW259673   4.109   3.377   7.204  0.5206  0.1680 -0.7216
19312SOL     OW59674   4.262   8.647   3.879  0.1684 -0.4452  0.1919
19312SOL    HW159675   4.211   8.599   3.945 -0.4293 -0.8165 -0.5324
19312SOL    HW259676   4.304   8.717   3.929 -1.7375  0.4278  0.6728
19313SOL     OW59677   8.039   5.452   1.470  0.0721 -0.2175  0.1180
19313SOL    HW159678   8.036   5.370   1.420  0.5239 -0.7738  0.9643
19313SOL    HW259679   8.009   5.427   1.557 -0.6228  0.7184  0.1556
19314SOL     OW59680   4.230   3.176   7.027 -0.5957  0.3071  0.2615
19314SOL    HW159681   4.184   3.248   6.984 -1.4601  0.4306  1.3282
19314SOL    HW259682   4.207   3.186   7.120  1.1219  0.0126  0.7610
19315SOL     OW59683   8.678   7.773   4.853 -0.1904  0.2411  0.3422
19315SOL    HW159684   8.630   7.810   4.779 -1.4425  2.4441  2.1521
19315SOL    HW259685   8.734   7.705   4.813 -0.9495  1.1624 -2.5520
19316SOL     OW59686   9.519   9.128   0.432 -0.5862  0.8858  0.2995
19316SOL    HW159687   9.459   9.201   0.446 -0.5275  1.1367 -0.7367
19316SOL    HW259688   9.461   9.054   0.411 -0.5746  0.9613 -0.0041
19317SOL     OW59689   2.870   2.018   6.089  0.2469 -0.1041  0.3005
19317SOL    HW159690   2.934   1.982   6.027 -0.0551 -0.2702  0.0848
19317SOL    HW259691   2.913   2.011   6.174  0.6210  0.0235  0.1264
19318SOL     OW59692   3.174   8.437   0.554 -0.1511  0.4062  0.0211
19318SOL    HW159693   3.180   8.490   0.475 -1.9971  0.3450 -0.2110
19318SOL    HW259694   3.151   8.498   0.623  0.5408  0.3171  0.3419
19319SOL     OW59695   2.120   2.687   7.593 -0.0396 -0.3992  0.2028
19319SOL    HW159696   2.105   2.716   7.683  0.1061 -0.2817  0.1908
19319SOL    HW259697   2.077   2.602   7.587  0.4214 -0.6646  0.5476
19320SOL     OW59698   9.492   2.008   3.554  0.4756 -0.0415  0.3956
19320SOL    HW159699   9.434   2.081   3.577 -0.4946 -1.2089  1.8383
19320SOL    HW259700   9.436   1.947   3.505  1.8426  1.1351 -2.9418
19321SOL     OW59701   6.221   8.124   8.757  0.1852  0.1352  1.1214
19321SOL    HW159702   6.235   8.031   8.771 -2.4637 -0.7074 -1.0809
19321SOL    HW259703   6.282   8.148   8.688  0.5448 -0.0666  1.3681
19322SOL     OW59704   8.420   3.240   3.244  0.1221 -0.3873  0.5722
19322SOL    HW159705   8.375   3.207   3.166  1.9600 -1.9409  0.0805
19322SOL    HW259706   8.507   3.265   3.213 -0.1705  2.1721  1.5563
19323SOL     OW59707   6.365   9.300   4.994 -0.0321  0.2979 -0.3563
19323SOL    HW159708   6.320   9.304   4.909  0.3042 -3.4074 -0.8835
19323SOL    HW259709   6.358   9.208   5.020  1.7785  0.8747  2.6244
19324SOL     OW59710   7.137   7.859   2.914 -0.2218  0.5113  0.2374
19324SOL    HW159711   7.158   7.939   2.867 -0.9369 -0.8864 -2.6635
19324SOL    HW259712   7.042   7.861   2.924 -0.3811 -0.4337 -0.8627
19325SOL     OW59713   8.614   8.714   6.477 -0.3826  0.1878  0.3615
19325SOL    HW159714   8.541   8.752   6.428 -1.3937 -1.9626  0.0858
19325SOL    HW259715   8.581   8.707   6.567 -0.9469 -1.6726  0.0529
19326SOL     OW59716   6.746   7.836   9.284 -0.0196 -0.0527 -0.3307
19326SOL    HW159717   6.753   7.931   9.289  0.1079 -0.0873  0.2545
19326SOL    HW259718   6.672   7.815   9.341 -0.4804 -0.2542 -0.9888
19327SOL     OW59719   6.755   1.837   3.156 -0.1839  0.2774 -0.1083
19327SOL    HW159720   6.749   1.783   3.235  1.3039 -1.8380 -1.3093
19327SOL    HW259721   6.797   1.918   3.185  1.9207 -1.1209  1.0844
19328SOL     OW59722   4.263   0.034   5.086 -0.7386  0.2921  0.1413
19328SOL    HW159723   4.188   0.078   5.126 -2.3973 -0.2718 -2.1124
19328SOL    HW259724   4.309   0.104   5.038 -0.2577  0.4963  0.8883
19329SOL     OW59725   8.753   6.654   1.409 -0.1652 -0.6884  0.2910
19329SOL    HW159726   8.741   6.672   1.502 -3.5586  0.3507 -0.2143
19329SOL    HW259727   8.841   6.615   1.403  1.4244  1.9403  3.4801
19330SOL     OW59728   4.710   0.466   5.284 -0.3742 -0.1186  0.0088
19330SOL    HW159729   4.664   0.381   5.284  0.0846 -0.3783 -0.7924
19330SOL    HW259730   4.728   0.483   5.191  1.7717 -0.3730  0.3314
19331SOL     OW59731   5.236   6.779   3.300  0.0541  0.2804  0.4944
19331SOL    HW159732   5.306   6.714   3.306  0.3385  0.6397  1.2998
19331SOL    HW259733   5.282   6.863   3.296 -0.3207  0.4756  0.2376
19332SOL     OW59734   3.625   8.706   5.020  0.1059 -0.2958 -0.1071
19332SOL    HW159735   3.536   8.709   4.984  0.2660 -0.0723 -0.4989
19332SOL    HW259736   3.614   8.675   5.109 -0.2227 -1.8041 -0.6456
19333SOL     OW59737   0.198   4.014   8.468 -0.1970 -0.0120 -0.2000
19333SOL    HW159738   0.238   4.098   8.490  0.1539 -0.3229  0.3686
19333SOL    HW259739   0.250   3.981   8.394 -1.1679  0.8766 -1.3279
19334SOL     OW59740   1.392   7.593   0.096 -0.5317  0.2357 -0.0193
19334SOL    HW159741   1.308   7.581   0.141 -0.7889  0.9756 -0.2770
19334SOL    HW259742   1.457   7.555   0.155 -1.1833 -1.6910 -0.4738
19335SOL     OW59743   4.013   2.037   7.372  0.6608 -0.1278 -0.0801
19335SOL    HW159744   4.069   2.093   7.427  0.7883 -2.2761  2.1894
19335SOL    HW259745   3.948   2.096   7.335  1.7902  1.7563  0.8139
19336SOL     OW59746   1.474   4.874   8.667 -0.1492 -0.1559 -0.5654
19336SOL    HW159747   1.400   4.889   8.726 -0.2854  0.5068 -0.8993
19336SOL    HW259748   1.463   4.939   8.598  1.3026  0.6143 -0.1000
19337SOL     OW59749   3.174   6.951   7.952 -0.2541  0.2284  0.1043
19337SOL    HW159750   3.206   7.011   7.884  3.1614 -1.4433  0.0284
19337SOL    HW259751   3.103   6.903   7.910  0.6274  0.4326 -1.6994
19338SOL     OW59752   7.484   2.344   2.682 -0.4389 -0.2846 -0.5103
19338SOL    HW159753   7.543   2.358   2.756 -0.9756  1.2194 -0.3290
19338SOL    HW259754   7.541   2.312   2.612  0.2928 -0.5069  0.1765
19339SOL     OW59755   8.605   3.692   5.083  0.0119  0.4759 -0.4477
19339SOL    HW159756   8.614   3.765   5.144  1.3520 -0.0441  0.0268
19339SOL    HW259757   8.511   3.678   5.075 -0.2249  0.3283  1.8272
19340SOL     OW59758   7.395   1.294   3.788 -0.4605 -0.1499 -0.6007
19340SOL    HW159759   7.349   1.269   3.868 -0.5512  1.3760 -0.1433
19340SOL    HW259760   7.325   1.324   3.729 -0.2547  0.0874 -0.7244
19341SOL     OW59761   1.979   8.058   5.207  0.3338 -0.0743  0.7348
19341SOL    HW159762   1.917   8.046   5.279  2.0836 -1.8330  2.0761
19341SOL    HW259763   2.065   8.046   5.248  1.5358  1.2660 -1.2291
19342SOL     OW59764   3.388   5.397   4.124  0.4826  0.6392 -0.3500
19342SOL    HW159765   3.395   5.330   4.056 -0.0828 -0.4143  0.5853
19342SOL    HW259766   3.479   5.417   4.147  0.6737 -0.5853  0.0522
19343SOL     OW59767   6.690   1.093   3.647  0.4291  0.4556 -0.2535
19343SOL    HW159768   6.776   1.061   3.672  0.1792  1.1837  1.7228
19343SOL    HW259769   6.629   1.047   3.705 -0.6438 -0.6001 -2.1037
19344SOL     OW59770   9.122   4.778   5.754 -0.3553  1.0081 -0.2793
19344SOL    HW159771   9.141   4.786   5.847 -1.4369 -0.9481  0.1467
19344SOL    HW259772   9.204   4.802   5.711  0.8075 -0.0656  1.2438
19345SOL     OW59773   5.631   0.343   3.013 -0.3173 -0.3766 -0.0756
19345SOL    HW159774   5.576   0.364   2.938 -0.1266 -0.6393 -0.2906
19345SOL    HW259775   5.684   0.269   2.984 -0.2133 -0.4526  0.3038
19346SOL     OW59776   1.411   6.677   1.600 -0.2480 -0.4419  0.4730
19346SOL    HW159777   1.416   6.682   1.504  1.3833  1.5290  0.5829
19346SOL    HW259778   1.339   6.736   1.622 -0.1360 -0.3090  0.4851
19347SOL     OW59779   0.786   2.900   5.199 -0.2903  0.3749  0.0991
19347SOL    HW159780   0.839   2.875   5.123 -1.0210  0.4377 -0.4518
19347SOL    HW259781   0.749   2.817   5.230  0.7938  0.2168  1.0132
19348SOL     OW59782   3.405   2.511   7.951 -0.0504  0.0452  0.4763
19348SOL    HW159783   3.483   2.505   7.896  0.0291 -0.0858  0.6029
19348SOL    HW259784   3.438   2.503   8.041 -0.3208 -1.1413  0.4887
19349SOL     OW59785   7.237   1.525   4.051 -0.4314 -0.3055  0.1392
19349SOL    HW159786   7.209   1.614   4.074 -2.2150 -0.5477 -0.9404
19349SOL    HW259787   7.178   1.498   3.981  1.6517 -1.4509 -1.2912
19350SOL     OW59788   4.964   0.750   8.297 -0.2347  0.3564 -0.0125
19350SOL    HW159789   4.910   0.817   8.338 -1.7862 -0.6326 -0.3808
19350SOL    HW259790   4.941   0.753   8.204  0.0236 -0.3654 -0.1112
19351SOL     OW59791   2.616   0.470   0.126 -0.1069  1.0266  0.2015
19351SOL    HW159792   2.556   0.507   0.062 -1.3737 -0.2230  0.6057
19351SOL    HW259793   2.614   0.532   0.200  0.1100  1.6433 -0.3034
19352SOL     OW59794   0.159   3.471   1.729 -0.0003 -0.1594  0.3458
19352SOL    HW159795   0.186   3.406   1.664  1.0464  1.6539 -1.1600
19352SOL    HW259796   0.228   3.470   1.795  0.9513  0.5943 -0.5979
19353SOL     OW59797   5.954   9.315   6.813 -0.0799 -0.6708 -0.4407
19353SOL    HW159798   5.881   9.342   6.757  0.7709  1.0160 -0.7961
19353SOL    HW259799   5.978   9.228   6.780  0.5731  0.3567 -2.9784
19354SOL     OW59800   4.193   2.226   2.053  0.2659  0.1068 -0.2060
19354SOL    HW159801   4.285   2.229   2.080 -0.1215 -1.0397  1.4379
19354SOL    HW259802   4.151   2.169   2.118 -1.0977 -1.5521 -2.3936
19355SOL     OW59803   0.720   3.668   0.521 -0.3906 -0.4276  0.0911
19355SOL    HW159804   0.771   3.593   0.551 -1.1266 -0.1468  2.1788
19355SOL    HW259805   0.739   3.737   0.585  0.2106  1.1949 -1.7234
19356SOL     OW59806   7.045   1.622   6.778  0.1147 -0.4197  1.1694
19356SOL    HW159807   7.083   1.551   6.830 -0.4929 -1.8776 -0.2703
19356SOL    HW259808   7.089   1.614   6.693 -3.2711 -2.2313 -0.6187
19357SOL     OW59809   6.005   5.603   9.479 -0.5205 -0.0288  0.0401
19357SOL    HW159810   6.044   5.549   9.410 -1.1552 -2.5305  1.4865
19357SOL    HW259811   6.019   5.553   9.559 -3.3905  0.6885  1.1340
19358SOL     OW59812   8.212   2.862   4.702 -0.0184 -0.2242 -0.6227
19358SOL    HW159813   8.229   2.769   4.685  0.4347 -0.2494 -0.0954
19358SOL    HW259814   8.183   2.897   4.618 -0.0915 -0.8210 -0.8550
19359SOL     OW59815   8.106   5.255   4.393  0.4933  0.6837  0.3125
19359SOL    HW159816   8.103   5.291   4.304  0.4938  1.8792  0.7704
19359SOL    HW259817   8.195   5.223   4.403  0.1471 -0.6239 -0.5338
19360SOL     OW59818   3.650   2.572   7.789 -0.0562 -0.7714  0.2442
19360SOL    HW159819   3.734   2.565   7.744  0.4674 -0.0542  1.0668
19360SOL    HW259820   3.587   2.594   7.721  1.0767  2.5065  0.0989
19361SOL     OW59821   1.920   7.675   5.390  0.9394  0.1289 -0.0870
19361SOL    HW159822   1.854   7.718   5.444  1.0245  0.8066 -0.5155
19361SOL    HW259823   1.928   7.587   5.428  1.1168  0.6365  1.1003
19362SOL     OW59824   3.718   2.787   2.486 -0.3768 -0.2452 -0.0293
19362SOL    HW159825   3.630   2.794   2.524 -0.7750  1.3827 -1.1418
19362SOL    HW259826   3.710   2.716   2.422 -0.1167 -1.9194  1.6682
19363SOL     OW59827   1.496   7.363   1.339 -0.5761  0.3772 -0.0862
19363SOL    HW159828   1.578   7.355   1.291 -1.6481 -0.1101 -1.9591
19363SOL    HW259829   1.522   7.385   1.428  1.6656 -1.6153 -0.1511
19364SOL     OW59830   0.795   2.198   5.290  0.3241  0.0142 -0.4167
19364SOL    HW159831   0.869   2.182   5.232 -1.3856  1.0120 -3.0197
19364SOL    HW259832   0.809   2.287   5.323 -0.0460  0.4757 -1.4770
19365SOL     OW59833   9.230   2.169   7.905  0.9641 -0.1511  0.1634
19365SOL    HW159834   9.178   2.239   7.945 -0.3990  0.1599 -2.0080
19365SOL    HW259835   9.231   2.100   7.971 -0.8870  0.4502  0.9030
19366SOL     OW59836   4.076   2.720   5.262  0.1582 -0.1440  0.1693
19366SOL    HW159837   4.058   2.776   5.186  1.3545  1.3820  0.9312
19366SOL    HW259838   4.116   2.642   5.226 -0.8001 -0.1695 -0.8818
19367SOL     OW59839   6.217   2.248   2.172 -0.1947  0.2429 -0.2436
19367SOL    HW159840   6.134   2.225   2.214 -0.0282  3.0515  1.8891
19367SOL    HW259841   6.283   2.201   2.222 -0.2216  1.4241  0.9608
19368SOL     OW59842   9.419   0.444   7.447  0.0862 -0.4816  0.8895
19368SOL    HW159843   9.445   0.535   7.458  0.0873 -0.4898  0.9562
19368SOL    HW259844   9.416   0.409   7.536 -0.5680 -0.3606  0.9212
19369SOL     OW59845   8.770   8.577   6.020  0.2023 -0.2566 -0.4998
19369SOL    HW159846   8.682   8.580   5.983  0.0631  0.1667 -0.1377
19369SOL    HW259847   8.756   8.568   6.115  0.5453  0.1265 -0.4097
19370SOL     OW59848   7.823   0.802   9.195 -0.1240 -0.7379  0.2558
19370SOL    HW159849   7.890   0.870   9.196 -1.1870  0.3497 -0.7454
19370SOL    HW259850   7.853   0.739   9.260  1.7716 -0.1906 -0.0296
19371SOL     OW59851   8.384   8.131   9.261 -0.2138  0.3911  0.2873
19371SOL    HW159852   8.450   8.188   9.300 -0.7702  1.0653  0.2510
19371SOL    HW259853   8.403   8.132   9.167  0.3537 -0.2385  0.3890
19372SOL     OW59854   3.515   9.329   4.468  0.3117 -0.0420  0.3925
19372SOL    HW159855   3.575   9.267   4.509  0.1379 -0.7205 -0.3589
19372SOL    HW259856   3.565   9.410   4.460  1.1702 -0.6264 -0.3161
19373SOL     OW59857   3.515   8.462   7.391  0.0351  0.0129 -0.3288
19373SOL    HW159858   3.566   8.516   7.452 -0.3990 -0.6207  0.6187
19373SOL    HW259859   3.452   8.522   7.352 -0.5298  0.1834  0.8097
19374SOL     OW59860   4.085   6.776   8.603  0.8617 -0.4956 -0.1625
19374SOL    HW159861   4.143   6.749   8.532 -0.0407 -1.7769 -0.4516
19374SOL    HW259862   4.055   6.694   8.642  0.0591  0.1567  0.6453
19375SOL     OW59863   1.297   2.583   3.884  0.1008 -0.2407 -0.6827
19375SOL    HW159864   1.225   2.615   3.938 -1.3848 -1.2107 -2.0081
19375SOL    HW259865   1.284   2.489   3.878 -0.6454 -0.0485 -3.7982
19376SOL     OW59866   5.468   0.995   3.851  0.3550  0.2782 -0.0376
19376SOL    HW159867   5.520   0.979   3.930  2.8767  0.1139 -1.6265
19376SOL    HW259868   5.475   0.913   3.801 -1.2383  0.3607 -0.4537
19377SOL     OW59869   2.831   0.955   8.153  0.0029 -0.0477 -0.3280
19377SOL    HW159870   2.903   0.941   8.092  0.2974  0.2283 -0.0566
19377SOL    HW259871   2.853   1.038   8.196  0.8296 -1.1653  1.5470
19378SOL     OW59872   1.589   9.511   2.443 -0.5245  0.4567  0.0751
19378SOL    HW159873   1.593   9.606   2.454  1.8102  0.6215 -1.3974
19378SOL    HW259874   1.549   9.498   2.357 -0.2794  0.1569  0.0026
19379SOL     OW59875   3.432   6.673   9.175  0.4713  0.8986 -0.0595
19379SOL    HW159876   3.440   6.598   9.234 -0.9369  0.4089 -0.4543
19379SOL    HW259877   3.507   6.729   9.197  0.4425  0.3331  1.6147
19380SOL     OW59878   1.495   6.660   8.204  0.1090  0.3135 -0.9297
19380SOL    HW159879   1.424   6.676   8.142 -0.4512 -1.8273 -0.8979
19380SOL    HW259880   1.575   6.671   8.152 -0.2454  1.3761 -1.2888
19381SOL     OW59881   5.419   3.914   6.031  0.0425  0.2619  0.1521
19381SOL    HW159882   5.408   3.836   6.085  0.4496  0.8328  1.0859
19381SOL    HW259883   5.350   3.973   6.061  0.4360  0.6837  0.2325
19382SOL     OW59884   8.045   7.997   7.860 -0.3008  0.9172 -0.4266
19382SOL    HW159885   8.001   7.912   7.872  1.8891 -0.3124 -0.4847
19382SOL    HW259886   8.075   7.995   7.769 -0.5796  1.9634 -0.5498
19383SOL     OW59887   0.764   2.245   0.766  0.4743  0.0372 -0.2363
19383SOL    HW159888   0.788   2.253   0.674  1.5737  0.4225  0.0736
19383SOL    HW259889   0.778   2.153   0.787  0.1151 -0.0744 -0.4805
19384SOL     OW59890   1.746   8.898   7.341  0.1412 -0.4529 -0.4019
19384SOL    HW159891   1.799   8.964   7.385 -0.8722 -0.1587  0.4190
19384SOL    HW259892   1.699   8.946   7.273  1.1646 -0.7803 -1.3777
19385SOL     OW59893   4.997   3.147   8.531 -0.6914  0.3052 -0.3343
19385SOL    HW159894   5.058   3.103   8.589  0.2100 -1.0875 -2.2399
19385SOL    HW259895   4.952   3.077   8.484 -1.4970  1.3563 -1.2063
19386SOL     OW59896   4.166   4.567   0.439 -0.2994 -0.2219 -0.3509
19386SOL    HW159897   4.093   4.545   0.381 -2.3338  1.9677  1.1936
19386SOL    HW259898   4.171   4.492   0.499 -1.3878 -0.3551 -0.3926
19387SOL     OW59899   4.674   0.242   3.997  0.0457  0.0086 -0.0332
19387SOL    HW159900   4.676   0.336   4.016  2.2532  0.1801 -0.8101
19387SOL    HW259901   4.675   0.200   4.084  0.8189  0.7182  0.3097
19388SOL     OW59902   4.909   0.694   8.973  0.1233  0.4567 -0.0482
19388SOL    HW159903   4.932   0.720   9.063  0.3579  0.6799 -0.1731
19388SOL    HW259904   4.868   0.772   8.936 -0.8257  0.0715  0.1638
19389SOL     OW59905   5.365   8.133   1.620  0.1124 -0.3000 -0.3527
19389SOL    HW159906   5.408   8.215   1.646  0.0675 -0.7425  1.2618
19389SOL    HW259907   5.281   8.135   1.666  0.8584 -2.0373  1.2149
19390SOL     OW59908   8.574   6.075   8.128 -0.2904 -0.3119  0.0049
19390SOL    HW159909   8.540   6.164   8.128 -1.0545 -0.5947  0.7058
19390SOL    HW259910   8.516   6.026   8.187  1.1442 -0.8724  1.0264
19391SOL     OW59911   7.628   7.833   6.315 -0.4138  0.0001  0.3055
19391SOL    HW159912   7.555   7.889   6.342 -1.6960  0.1475 -2.9947
19391SOL    HW259913   7.603   7.745   6.344 -1.4713  0.1982  0.0374
19392SOL     OW59914   7.220   1.345   8.221 -0.0735  0.0621 -0.2920
19392SOL    HW159915   7.207   1.298   8.303 -0.5076  1.6478  0.5855
19392SOL    HW259916   7.133   1.375   8.196  0.2325  0.6606 -0.6709
19393SOL     OW59917   6.107   5.064   0.747 -0.2404  0.3802  0.6138
19393SOL    HW159918   6.042   5.044   0.814  1.1113  2.0455  2.5571
19393SOL    HW259919   6.055   5.101   0.674 -1.5820  0.6070  1.6378
19394SOL     OW59920   2.337   8.191   7.305 -0.1883 -0.0945  0.0667
19394SOL    HW159921   2.378   8.114   7.265  1.1609  1.0893 -0.9182
19394SOL    HW259922   2.343   8.174   7.399  1.1387 -0.6968 -0.0977
19395SOL     OW59923   8.707   7.076   3.959 -0.1142 -0.0610  0.4290
19395SOL    HW159924   8.743   7.156   3.921  1.6479 -0.6593  0.7149
19395SOL    HW259925   8.613   7.083   3.946 -0.3444  3.1966  2.5868
19396SOL     OW59926   0.109   5.087   1.351  0.1700 -0.1431 -0.1693
19396SOL    HW159927   0.169   5.016   1.372 -0.9926 -1.6526 -1.7332
19396SOL    HW259928   0.063   5.104   1.433  0.6569 -1.0004  0.2975
19397SOL     OW59929   4.578   8.617   4.138  0.6115  0.0481  0.1215
19397SOL    HW159930   4.591   8.557   4.064 -1.5442 -0.2771 -0.0527
19397SOL    HW259931   4.667   8.641   4.165  1.5243 -2.0784 -0.7394
19398SOL     OW59932   1.262   2.222   1.482 -0.7454 -0.2943  0.1336
19398SOL    HW159933   1.221   2.296   1.437 -0.9381  0.7701  1.9558
19398SOL    HW259934   1.314   2.179   1.415  1.7496  3.2111 -0.4677
19399SOL     OW59935   0.988   4.352   2.613 -0.0378 -0.4022 -0.5075
19399SOL    HW159936   0.988   4.373   2.706  3.9425 -0.0698 -0.4399
19399SOL    HW259937   0.959   4.261   2.608  1.5570 -1.0626  1.3219
19400SOL     OW59938   4.896   6.981   2.872 -0.1890  0.3110  0.3808
19400SOL    HW159939   4.957   7.055   2.879  1.0534 -0.5580 -0.7078
19400SOL    HW259940   4.952   6.904   2.882 -0.9624 -0.5378 -1.5183
19401SOL     OW59941   9.104   0.514   5.137  0.4423 -0.1294  0.6705
19401SOL    HW159942   9.049   0.462   5.078 -0.2697  0.9555  0.3534
19401SOL    HW259943   9.179   0.458   5.155 -0.2826 -1.2573  0.3111
19402SOL     OW59944   0.456   6.655   8.920 -0.3229 -0.7776  0.6163
19402SOL    HW159945   0.361   6.647   8.912 -0.3351 -2.7727  2.0997
19402SOL    HW259946   0.490   6.569   8.897  1.2171  0.0758 -0.4819
19403SOL     OW59947   0.207   3.094   3.536  0.2221  0.0331 -0.1099
19403SOL    HW159948   0.253   3.061   3.613  0.3278 -0.3491 -0.3355
19403SOL    HW259949   0.272   3.091   3.466  0.8277  2.5167  0.2617
19404SOL     OW59950   0.875   7.042   3.673 -0.3693 -0.9584  0.5027
19404SOL    HW159951   0.929   7.119   3.685 -2.3466  0.6063 -0.0667
19404SOL    HW259952   0.903   6.981   3.742  2.3015 -0.4177 -0.0240
19405SOL     OW59953   1.544   5.924   0.358  0.4515  0.2060 -0.2861
19405SOL    HW159954   1.496   5.927   0.275 -1.7584  2.3786  0.9311
19405SOL    HW259955   1.547   6.015   0.387  2.4303 -0.3142  1.3894
19406SOL     OW59956   2.499   2.025   1.084 -0.5739  0.0515 -0.2590
19406SOL    HW159957   2.492   1.931   1.100  0.4482 -0.1519 -0.9245
19406SOL    HW259958   2.570   2.054   1.142 -1.2873  0.5338  0.3899
19407SOL     OW59959   9.562   7.385   0.532 -0.0230  0.7407 -0.0256
19407SOL    HW159960   9.575   7.353   0.443 -1.7399 -0.8727  0.2454
19407SOL    HW259961   9.634   7.347   0.582  0.5347  1.0612 -0.5721
19408SOL     OW59962   1.610   7.804   9.526  0.1019 -0.3363  0.0432
19408SOL    HW159963   1.565   7.772   9.605 -0.6737  1.7227  0.5066
19408SOL    HW259964   1.544   7.798   9.457  0.4723 -1.2330 -0.2374
19409SOL     OW59965   0.326   2.246   2.199  0.0543  0.3179 -0.3334
19409SOL    HW159966   0.278   2.312   2.148  0.2968 -0.5429 -1.7476
19409SOL    HW259967   0.411   2.286   2.217  0.0751  0.5279 -0.8872
19410SOL     OW59968   7.897   3.222   4.896  0.5262  0.6382  0.1803
19410SOL    HW159969   7.943   3.282   4.955  1.3788 -1.3936  1.7007
19410SOL    HW259970   7.832   3.277   4.853  0.5016  2.4414  2.3195
19411SOL     OW59971   3.763   9.159   3.699 -0.5886 -0.5267  0.4257
19411SOL    HW159972   3.699   9.231   3.703  0.9620  0.8485  1.8224
19411SOL    HW259973   3.760   9.120   3.786  0.3237 -0.5816  0.4401
19412SOL     OW59974   6.500   8.075   5.365  0.0500  0.2641 -0.1703
19412SOL    HW159975   6.519   8.136   5.437 -0.1890  1.3703 -1.0250
19412SOL    HW259976   6.427   8.115   5.318 -0.7722 -1.1955 -0.1709
19413SOL     OW59977   8.027   2.078   6.089  0.5562 -0.0515  0.1530
19413SOL    HW159978   8.120   2.098   6.100  0.3763  0.6605  0.4473
19413SOL    HW259979   8.008   2.102   5.998  0.6117  0.0253  0.1608
19414SOL     OW59980   5.667   5.403   6.994 -0.2262  0.4425 -0.2735
19414SOL    HW159981   5.574   5.395   7.016 -0.0261  0.0979  0.4975
19414SOL    HW259982   5.679   5.344   6.920 -0.8033  1.1824 -0.9741
19415SOL     OW59983   8.994   7.103   5.607  0.1360 -0.4189 -0.0602
19415SOL    HW159984   8.903   7.085   5.629 -0.3295  0.0933 -1.4476
19415SOL    HW259985   8.991   7.137   5.517  1.5031  1.2143  0.4390
19416SOL     OW59986   1.086   5.071   5.975 -0.0797 -0.0480  0.0910
19416SOL    HW159987   1.066   5.124   5.897  0.8382 -1.4729 -1.1656
19416SOL    HW259988   1.005   5.024   5.993 -0.0805 -0.2684 -0.4634
19417SOL     OW59989   7.077   6.670   3.387  0.3152 -0.1835  0.0210
19417SOL    HW159990   7.048   6.579   3.394  1.2935 -0.5292 -0.3266
19417SOL    HW259991   7.076   6.688   3.293 -1.6573  0.7764  0.1749
19418SOL     OW59992   2.082   5.848   2.504 -0.0437 -0.3515 -0.0845
19418SOL    HW159993   2.024   5.834   2.579  0.9834 -1.2091  0.5741
19418SOL    HW259994   2.146   5.777   2.508  1.9132  1.3040  0.0439
19419SOL     OW59995   6.390   8.208   3.653  0.0321  0.0888 -0.3271
19419SOL    HW159996   6.379   8.247   3.567 -2.6320 -0.8232 -0.4933
19419SOL    HW259997   6.398   8.114   3.636 -2.8191 -0.3908  0.4159
19420SOL     OW59998   7.683   3.944   6.265 -0.2035 -0.9817 -0.5127
19420SOL    HW159999   7.769   3.964   6.303 -1.1826 -0.3938  1.5452
19420SOL    HW260000   7.655   3.864   6.311 -2.4183  1.0220  1.9587
19421SOL     OW60001   9.048   8.163   4.257 -0.7348 -0.7069  0.0088
19421SOL    HW160002   9.021   8.196   4.343  1.7252  0.2793  0.4759
19421SOL    HW260003   9.089   8.078   4.277  0.5636 -0.1123 -0.0404
19422SOL     OW60004   7.753   6.156   8.334 -0.2816  0.5576 -0.3625
19422SOL    HW160005   7.671   6.133   8.377 -0.9840  2.3312 -0.6711
19422SOL    HW260006   7.811   6.182   8.406 -0.0246 -0.5149 -0.1622
19423SOL     OW60007   7.668   2.507   2.046  0.1114 -0.1023 -0.0899
19423SOL    HW160008   7.633   2.484   1.960 -0.0654 -1.3398  0.2933
19423SOL    HW260009   7.619   2.586   2.071  0.8551  0.8554 -1.5210
19424SOL     OW60010   7.396   5.106   9.276 -0.0344  0.1642 -0.0731
19424SOL    HW160011   7.348   5.121   9.195  0.0851  0.5099 -0.0801
19424SOL    HW260012   7.413   5.012   9.277  2.0809  0.4646 -1.6550
19425SOL     OW60013   5.269   5.273   3.117  0.1523  0.0575 -0.5961
19425SOL    HW160014   5.207   5.310   3.179  1.2503 -0.5774  0.9523
19425SOL    HW260015   5.218   5.210   3.066 -0.8210  0.7418 -0.4869
19426SOL     OW60016   0.698   0.879   1.629  0.3109  0.2490  0.0488
19426SOL    HW160017   0.643   0.805   1.655 -0.8536  1.6717  1.9172
19426SOL    HW260018   0.787   0.843   1.625 -0.0165 -0.9986  2.2674
19427SOL     OW60019   8.549   4.683   8.067 -0.3788  0.6560  0.1698
19427SOL    HW160020   8.575   4.591   8.063 -0.9362  0.4452  1.0520
19427SOL    HW260021   8.559   4.714   7.977  0.0016 -0.2147 -0.1050
19428SOL     OW60022   4.554   2.016   1.850 -0.3307 -0.0591 -0.3740
19428SOL    HW160023   4.640   2.048   1.822 -0.6107  2.3376  1.1714
19428SOL    HW260024   4.493   2.048   1.782 -0.3605  1.0966  0.1707
19429SOL     OW60025   7.442   5.400   8.059 -0.1039  0.3076 -0.3734
19429SOL    HW160026   7.415   5.334   7.996 -0.9957 -0.2862  0.5996
19429SOL    HW260027   7.380   5.391   8.132 -0.3017  2.2590 -0.2462
19430SOL     OW60028   5.111   1.310   3.687  0.0684  0.2108 -0.4526
19430SOL    HW160029   5.088   1.297   3.779  0.9305 -0.4354 -0.3062
19430SOL    HW260030   5.117   1.221   3.651 -2.7055  0.4617 -1.8163
19431SOL     OW60031   3.801   1.846   1.160 -0.4118  0.0393  0.0863
19431SOL    HW160032   3.865   1.814   1.224  0.1650  1.5809  0.3317
19431SOL    HW260033   3.850   1.908   1.106 -1.5836  0.9512  0.0221
19432SOL     OW60034   9.038   6.226   8.449  0.7449  0.2600 -0.1583
19432SOL    HW160035   9.084   6.226   8.365  0.2036  2.2187 -0.5156
19432SOL    HW260036   8.974   6.297   8.441 -1.4162 -1.4610  0.8081
19433SOL     OW60037   7.589   4.014   4.093 -0.6426 -0.1237  0.1546
19433SOL    HW160038   7.645   3.961   4.037 -0.0426  1.3330 -0.6673
19433SOL    HW260039   7.501   3.983   4.076 -0.4730  0.2504 -1.6062
19434SOL     OW60040   1.516   5.254   9.118  0.0752  0.6301  0.0567
19434SOL    HW160041   1.602   5.293   9.103 -0.1924  2.3730  2.5377
19434SOL    HW260042   1.533   5.160   9.121  2.1031  0.9819  1.5302
19435SOL     OW60043   6.045   9.489   8.889 -0.1477 -0.2984  0.4291
19435SOL    HW160044   5.983   9.494   8.961 -1.0147  2.0793 -0.3683
19435SOL    HW260045   6.128   9.519   8.926 -0.3497 -0.0215  0.6602
19436SOL     OW60046   6.741   8.769   8.661 -0.1310 -0.2277 -0.0797
19436SOL    HW160047   6.664   8.750   8.606  0.1693 -0.9098 -0.2690
19436SOL    HW260048   6.706   8.779   8.749 -0.7087  1.4578 -0.4472
19437SOL     OW60049   0.464   8.751   3.026 -1.0032  0.2370 -0.2166
19437SOL    HW160050   0.393   8.763   2.963 -0.5889  1.3120 -0.5098
19437SOL    HW260051   0.486   8.840   3.054  0.3698 -0.0511 -0.3107
19438SOL     OW60052   9.335   3.778   6.046 -0.4820 -0.5994 -0.3666
19438SOL    HW160053   9.314   3.709   6.109  1.8346 -2.6614 -1.6744
19438SOL    HW260054   9.344   3.731   5.962 -2.0534  1.8273 -2.0223
19439SOL     OW60055   7.987   6.096   1.373  0.0750  0.2825 -0.0283
19439SOL    HW160056   7.996   6.159   1.444  1.6479 -0.3660  0.4019
19439SOL    HW260057   8.033   6.137   1.299  1.6040 -0.5527  0.4196
19440SOL     OW60058   5.574   3.038   0.396  0.1069 -0.2639 -0.7051
19440SOL    HW160059   5.575   2.985   0.476  1.2661  0.6317 -0.0807
19440SOL    HW260060   5.636   3.109   0.414 -2.7594  2.4779 -0.6981
19441SOL     OW60061   7.106   3.664   9.002 -0.4680  0.0531 -0.0649
19441SOL    HW160062   7.023   3.698   9.035 -1.1880  0.5903 -2.2492
19441SOL    HW260063   7.081   3.592   8.944  0.8312 -2.0472  1.8071
19442SOL     OW60064   4.518   7.176   8.453 -0.0537 -0.4245 -0.1113
19442SOL    HW160065   4.604   7.153   8.418  0.0370 -1.2753  0.6218
19442SOL    HW260066   4.461   7.102   8.429 -0.1771 -0.6439  0.7810
19443SOL     OW60067   3.048   0.253   8.577 -0.5048  0.3766 -0.4087
19443SOL    HW160068   3.000   0.324   8.535 -0.2865  0.1286 -1.1004
19443SOL    HW260069   3.132   0.292   8.600  0.0048  0.1020 -1.7009
19444SOL     OW60070   2.905   9.448   6.132 -0.2765 -0.4542 -0.2263
19444SOL    HW160071   2.959   9.514   6.176 -1.7028 -1.0836  2.7336
19444SOL    HW260072   2.818   9.487   6.128 -0.9218 -1.7380  0.6724
19445SOL     OW60073   7.228   7.559   0.952  0.1171  0.2882 -0.0833
19445SOL    HW160074   7.269   7.502   0.887 -1.5064 -1.3381  0.2467
19445SOL    HW260075   7.135   7.535   0.950 -0.4752  2.2859  0.7535
19446SOL     OW60076   7.371   6.767   3.303  0.2036  0.0630 -0.0250
19446SOL    HW160077   7.306   6.775   3.233 -0.2238 -0.5410  0.2942
19446SOL    HW260078   7.339   6.695   3.357  1.0691 -0.1498  0.2175
19447SOL     OW60079   4.416   1.526   4.866 -0.2781 -0.0230 -0.3726
19447SOL    HW160080   4.331   1.488   4.888  0.2090 -1.2766 -0.5701
19447SOL    HW260081   4.475   1.450   4.857  1.3095  0.8684  1.6156
19448SOL     OW60082   4.359   2.421   7.940 -0.0778 -0.2908  0.3352
19448SOL    HW160083   4.371   2.482   8.012 -0.0756 -0.3172  0.3576
19448SOL    HW260084   4.365   2.334   7.981  1.3241 -0.3388  0.0946
19449SOL     OW60085   0.747   3.417   2.735  0.1083  0.0324 -0.3967
19449SOL    HW160086   0.669   3.458   2.698  0.5565  0.2906 -1.0784
19449SOL    HW260087   0.818   3.480   2.717  0.7285 -0.8381 -1.0676
19450SOL     OW60088   6.217   5.219   2.493 -0.1035 -0.7120 -0.2458
19450SOL    HW160089   6.247   5.245   2.580 -0.2789  0.3712 -0.4947
19450SOL    HW260090   6.298   5.216   2.440 -0.1700  0.1997 -0.4197
19451SOL     OW60091   9.060   2.255   4.219 -0.3641 -0.0295 -0.1964
19451SOL    HW160092   9.072   2.200   4.296 -1.1276 -1.2428 -0.9116
19451SOL    HW260093   9.106   2.209   4.149  1.3082  1.6287 -0.2796
19452SOL     OW60094   1.341   5.713   8.072 -0.3815 -0.8242  0.2017
19452SOL    HW160095   1.256   5.732   8.034  0.0299  2.8788  0.7796
19452SOL    HW260096   1.398   5.697   7.996 -0.4720  2.3360 -0.6709
19453SOL     OW60097   3.434   6.068   0.900  0.0716 -0.3160  0.3080
19453SOL    HW160098   3.384   6.062   0.818  0.2000 -2.0741  0.3190
19453SOL    HW260099   3.454   5.977   0.922  0.5825  0.1743  1.9739
19454SOL     OW60100   5.379   5.514   3.996 -0.0925  0.8116  0.1813
19454SOL    HW160101   5.475   5.507   4.005 -0.2463 -1.3007  0.7213
19454SOL    HW260102   5.350   5.550   4.080  0.3298  3.5022 -0.7248
19455SOL     OW60103   7.501   1.149   8.841  0.3844 -0.0816 -0.1005
19455SOL    HW160104   7.424   1.205   8.846  1.0427  0.7911  0.5877
19455SOL    HW260105   7.511   1.113   8.929  1.6304  1.0381  0.2530
19456SOL     OW60106   5.158   1.381   4.991  0.6866 -0.5088  0.2808
19456SOL    HW160107   5.103   1.384   5.069  0.5297 -0.6775  0.1792
19456SOL    HW260108   5.130   1.302   4.945 -0.7527  0.6843 -1.0337
19457SOL     OW60109   3.931   5.815   6.980  0.2375  0.3670 -0.2228
19457SOL    HW160110   3.929   5.911   6.982  0.5398  0.4486 -2.2572
19457SOL    HW260111   3.896   5.792   6.895 -0.0724 -1.3729  0.3397
19458SOL     OW60112   7.829   6.220   6.398 -0.2048  0.2025  0.1213
19458SOL    HW160113   7.745   6.237   6.440 -0.8067  0.4272 -1.1051
19458SOL    HW260114   7.834   6.125   6.393 -0.4454  0.1896  0.0930
19459SOL     OW60115   8.992   8.052   8.439 -0.2251  0.3048  0.1851
19459SOL    HW160116   9.058   7.984   8.425  0.8297  1.1678  0.7569
19459SOL    HW260117   9.023   8.125   8.384  0.1659  1.2654  1.6357
19460SOL     OW60118   6.746   0.621   5.932 -0.2018  0.0705 -0.1153
19460SOL    HW160119   6.834   0.590   5.955 -0.2747  0.8957  1.4290
19460SOL    HW260120   6.759   0.673   5.853  0.5944 -0.3225 -0.2538
19461SOL     OW60121   7.073   3.002   4.824 -0.0601 -0.1376  0.0797
19461SOL    HW160122   7.103   3.091   4.805  1.8054 -0.5746  0.7177
19461SOL    HW260123   6.978   3.011   4.835 -0.0266  1.6201 -0.6495
19462SOL     OW60124   5.521   7.448   2.396  0.0238  0.4117  0.1101
19462SOL    HW160125   5.471   7.401   2.462 -0.1302  0.6112  0.1391
19462SOL    HW260126   5.538   7.384   2.327 -0.6341  0.4447 -0.0905
19463SOL     OW60127   1.426   4.482   0.305  0.3876 -0.2231 -0.3315
19463SOL    HW160128   1.472   4.566   0.295 -0.3304  0.2803  0.4609
19463SOL    HW260129   1.484   4.419   0.262 -0.5061  1.0987 -3.8275
19464SOL     OW60130   8.505   8.373   8.887 -0.2299  0.0532 -0.2622
19464SOL    HW160131   8.536   8.456   8.924  0.8649 -1.0522  1.4391
19464SOL    HW260132   8.568   8.308   8.918 -2.2081 -1.7451  0.2077
19465SOL     OW60133   1.546   5.368   3.410  0.3051 -0.0372  0.0862
19465SOL    HW160134   1.481   5.438   3.403  0.5017  0.2173  0.7381
19465SOL    HW260135   1.556   5.354   3.504  1.2539 -0.0196 -0.0071
19466SOL     OW60136   5.712   0.581   5.423  0.0854  0.0651  0.0456
19466SOL    HW160137   5.729   0.613   5.335  0.8620  0.2277  0.2497
19466SOL    HW260138   5.690   0.659   5.474 -1.6476 -0.1710 -0.2801
19467SOL     OW60139   6.925   5.686   9.243  0.0642 -0.4263 -0.0143
19467SOL    HW160140   6.894   5.773   9.217  0.1301 -0.2432  0.5076
19467SOL    HW260141   6.895   5.628   9.173 -2.3107 -0.4136  0.8837
19468SOL     OW60142   2.398   9.087   6.479  0.2691 -0.5887 -0.1494
19468SOL    HW160143   2.370   9.008   6.433 -1.5887 -0.3485  0.4768
19468SOL    HW260144   2.377   9.158   6.419 -1.3237 -0.3466  0.6250
19469SOL     OW60145   3.265   2.280   9.064 -0.0883  0.1897  0.6152
19469SOL    HW160146   3.349   2.238   9.082  0.0604  0.3139  0.2216
19469SOL    HW260147   3.288   2.364   9.025 -0.3604 -1.1844 -2.8521
19470SOL     OW60148   0.198   1.474   1.788  0.7078 -0.3376 -0.3588
19470SOL    HW160149   0.264   1.478   1.857 -2.1220 -0.2870  2.5387
19470SOL    HW260150   0.173   1.565   1.773 -0.2178 -0.4903  0.1821
19471SOL     OW60151   1.166   5.520   2.028 -0.1982 -0.4260 -0.3203
19471SOL    HW160152   1.229   5.452   2.051  1.1880  1.1080  0.6416
19471SOL    HW260153   1.210   5.570   1.959 -1.0561 -0.2961 -0.7824
19472SOL     OW60154   0.030   6.242   2.070 -0.2717  0.5153  0.1760
19472SOL    HW160155   0.081   6.250   2.151 -0.4502  0.8033  0.2622
19472SOL    HW260156   0.019   6.148   2.057  1.0961  0.3997 -0.3498
19473SOL     OW60157   8.002   2.153   5.805  0.7076  0.3818  0.5106
19473SOL    HW160158   8.045   2.237   5.822 -1.0105  1.5613 -0.6818
19473SOL    HW260159   8.043   2.121   5.724  0.3302  0.8197  0.1414
19474SOL     OW60160   5.039   6.388   8.564 -0.4479 -0.5279 -0.3573
19474SOL    HW160161   5.083   6.443   8.500 -0.4617 -2.0870 -1.7623
19474SOL    HW260162   5.108   6.332   8.600 -1.0501 -2.3918 -1.9529
19475SOL     OW60163   6.572   6.344   2.607 -0.4900 -0.1259  0.9157
19475SOL    HW160164   6.606   6.386   2.528 -0.7565 -1.3906  0.1022
19475SOL    HW260165   6.490   6.390   2.626 -0.8368 -0.3445 -0.0280
19476SOL     OW60166   3.092   7.761   1.959 -0.1104 -0.4615  0.2925
19476SOL    HW160167   3.002   7.793   1.968  0.4895  1.4145  0.1683
19476SOL    HW260168   3.101   7.694   2.026 -1.5423 -0.5679  0.4102
19477SOL     OW60169   9.104   5.514   8.024  0.4615  0.3760  0.1293
19477SOL    HW160170   9.131   5.540   8.112 -0.4204 -0.9459  0.8307
19477SOL    HW260171   9.185   5.513   7.973  1.5615 -1.8632  1.7444
19478SOL     OW60172   1.128   8.984   8.964  0.3136 -0.2078 -0.0949
19478SOL    HW160173   1.183   8.919   8.921 -0.7067 -0.3242 -1.2597
19478SOL    HW260174   1.167   9.068   8.941 -1.3939 -0.1213 -3.1191
19479SOL     OW60175   6.264   3.567   2.284 -0.2359 -0.2844 -0.1745
19479SOL    HW160176   6.360   3.570   2.288 -0.2387 -1.3868  1.2136
19479SOL    HW260177   6.236   3.615   2.362 -0.7967 -0.6964 -0.1205
19480SOL     OW60178   0.259   6.841   5.250 -0.6462 -0.0687 -0.2625
19480SOL    HW160179   0.177   6.812   5.289  0.5189 -2.5809  0.5475
19480SOL    HW260180   0.305   6.760   5.227  2.0460  1.1740  0.3004
19481SOL     OW60181   4.136   2.300   3.451  0.6088 -0.1531 -0.0096
19481SOL    HW160182   4.048   2.296   3.489  0.6088 -1.3608 -0.1013
19481SOL    HW260183   4.181   2.368   3.501 -0.1822  0.0474  0.4468
19482SOL     OW60184   3.509   7.285   2.707  0.1719 -0.5283 -0.2693
19482SOL    HW160185   3.416   7.292   2.688  0.2532  0.3082 -0.3759
19482SOL    HW260186   3.523   7.341   2.784  0.3730 -1.6063  0.5007
19483SOL     OW60187   0.441   3.025   3.337 -0.0641 -0.0380 -0.7770
19483SOL    HW160188   0.528   3.008   3.370 -0.4937  1.5501  1.4021
19483SOL    HW260189   0.410   2.941   3.303  1.9601 -0.8027 -0.8246
19484SOL     OW60190   7.479   2.245   0.588 -0.1024  0.2798 -0.2212
19484SOL    HW160191   7.539   2.246   0.514  1.8939 -1.6305  1.2442
19484SOL    HW260192   7.427   2.166   0.577 -0.5788  0.5737 -0.1401
19485SOL     OW60193   5.099   2.022   7.073 -0.2685 -0.2644  0.0780
19485SOL    HW160194   5.093   1.933   7.040 -0.9799 -0.5322  0.8910
19485SOL    HW260195   5.118   2.012   7.166 -0.9731  0.4090  0.3094
19486SOL     OW60196   7.545   0.208   5.897  0.1958  0.3011  1.0208
19486SOL    HW160197   7.500   0.159   5.966  0.4022 -0.1999  0.8022
19486SOL    HW260198   7.576   0.141   5.836  2.4755  0.5248  1.8744
19487SOL     OW60199   5.863   5.943   8.972  0.0599 -0.0041  0.4070
19487SOL    HW160200   5.890   5.894   8.895  0.4609 -0.6579  0.9526
19487SOL    HW260201   5.869   6.035   8.946  2.0006 -0.1441  0.2495
19488SOL     OW60202   3.468   6.161   9.388  0.6045  0.4351  0.0969
19488SOL    HW160203   3.526   6.214   9.333  0.1512  0.5065 -0.3108
19488SOL    HW260204   3.398   6.220   9.414  1.4584  0.7768  1.8172
19489SOL     OW60205   8.481   9.340   3.177 -0.3312 -0.1269 -0.4367
19489SOL    HW160206   8.512   9.326   3.087  1.2152 -0.7465  0.1599
19489SOL    HW260207   8.518   9.267   3.226 -2.6053 -0.7862  0.4117
19490SOL     OW60208   4.079   7.124   0.466 -0.5348 -0.0031 -0.4242
19490SOL    HW160209   4.143   7.168   0.521 -2.7522  0.9603  1.5869
19490SOL    HW260210   4.113   7.036   0.455  0.2475 -0.1178  2.2090
19491SOL     OW60211   9.057   7.829   0.487 -0.3652 -0.1027  0.4530
19491SOL    HW160212   9.087   7.888   0.556 -0.7782 -0.1405  0.6695
19491SOL    HW260213   9.016   7.888   0.422  0.2947 -0.0365  0.0906
19492SOL     OW60214   5.999   0.484   6.934  0.5605 -0.3984  0.1934
19492SOL    HW160215   5.946   0.431   6.875 -0.9492  0.8726  0.3521
19492SOL    HW260216   6.033   0.422   6.998 -0.0159 -1.3772 -0.4303
19493SOL     OW60217   7.630   7.384   5.303  0.4992 -0.0082 -0.4000
19493SOL    HW160218   7.686   7.354   5.374 -0.2943  1.8260  1.0859
19493SOL    HW260219   7.603   7.472   5.329 -2.2768 -0.4306 -1.4911
19494SOL     OW60220   3.811   0.235   0.405  0.0669 -0.0095  0.0296
19494SOL    HW160221   3.846   0.227   0.493  0.6540  1.8006 -0.0025
19494SOL    HW260222   3.883   0.206   0.348  1.1240  2.3066  0.0358
19495SOL     OW60223   0.112   1.699   2.198  0.5024  0.3199 -0.0255
19495SOL    HW160224   0.059   1.634   2.152 -1.2411  0.3632  1.7995
19495SOL    HW260225   0.168   1.647   2.256 -0.3486  0.3791  0.8748
19496SOL     OW60226   3.353   4.831   0.149  0.2716 -0.2476 -0.4415
19496SOL    HW160227   3.273   4.866   0.110  0.7348 -0.8738 -2.0425
19496SOL    HW260228   3.330   4.742   0.176 -0.1835  0.3436  1.2462
19497SOL     OW60229   1.361   1.409   4.683 -0.4242  0.0503  0.0414
19497SOL    HW160230   1.344   1.403   4.589  1.2016  2.6233 -0.5120
19497SOL    HW260231   1.442   1.359   4.696  0.5082  1.4280 -0.3435
19498SOL     OW60232   5.448   8.196   0.081  0.2004  0.1077 -0.6492
19498SOL    HW160233   5.378   8.152   0.130  1.4964 -0.8160  0.4793
19498SOL    HW260234   5.469   8.273   0.132  1.3010 -0.6583  0.1074
19499SOL     OW60235   4.667   2.080   3.665 -0.2617 -0.5544  0.0304
19499SOL    HW160236   4.720   2.022   3.719  0.8598 -0.5375 -1.0146
19499SOL    HW260237   4.658   2.034   3.582 -0.9622 -0.0565 -0.1809
19500SOL     OW60238   2.281   5.346   7.428 -0.2043 -0.1238 -0.1542
19500SOL    HW160239   2.205   5.338   7.484  0.4017 -0.6456  0.6156
19500SOL    HW260240   2.323   5.428   7.455  0.6403 -0.8766  0.8720
19501SOL     OW60241   4.875   5.071   7.925 -0.1765 -0.4489 -0.2803
19501SOL    HW160242   4.865   5.120   7.844  0.1115 -0.4159 -0.2959
19501SOL    HW260243   4.886   5.138   7.993 -0.0228 -0.4873 -0.2683
19502SOL     OW60244   1.930   5.883   3.109  0.3843 -0.1119 -0.5085
19502SOL    HW160245   2.026   5.877   3.115  0.5588  2.6882  1.8341
19502SOL    HW260246   1.915   5.938   3.032  0.7259  0.4066 -0.2092
19503SOL     OW60247   1.765   1.464   0.240 -0.0738 -0.0526  0.2341
19503SOL    HW160248   1.785   1.412   0.318  2.1204  0.6577  0.2154
19503SOL    HW260249   1.801   1.551   0.259  1.0881 -0.0299 -1.7706
19504SOL     OW60250   9.136   8.581   4.204 -0.1060  0.0454  0.5556
19504SOL    HW160251   9.157   8.590   4.297  1.1156 -1.6958  0.5057
19504SOL    HW260252   9.139   8.670   4.170 -2.4159  0.9782  2.4987
19505SOL     OW60253   3.377   0.639   7.884 -0.0442  0.3359 -0.0359
19505SOL    HW160254   3.347   0.715   7.935  1.9414  1.7056 -0.8058
19505SOL    HW260255   3.374   0.668   7.793 -1.3419 -1.3009 -0.5517
19506SOL     OW60256   2.704   3.323   1.137 -0.1125 -0.1619 -0.0808
19506SOL    HW160257   2.779   3.267   1.160 -0.7597 -0.6339  0.9695
19506SOL    HW260258   2.671   3.353   1.222 -0.4801  0.8859 -0.5884
19507SOL     OW60259   4.814   5.701   2.757 -0.1747  0.5210 -0.0928
19507SOL    HW160260   4.736   5.646   2.750 -1.2839  2.0375  0.0545
19507SOL    HW260261   4.865   5.661   2.829 -0.1866 -1.1767 -0.9654
19508SOL     OW60262   8.540   7.845   5.094 -0.2903  0.0756 -0.7849
19508SOL    HW160263   8.604   7.809   5.032 -0.0435 -1.0424  0.0784
19508SOL    HW260264   8.569   7.935   5.109  1.5821 -0.6429  0.1881
19509SOL     OW60265   1.725   3.545   3.767 -0.2914 -0.1270 -0.5451
19509SOL    HW160266   1.802   3.493   3.744  0.0734 -0.2096  0.8053
19509SOL    HW260267   1.652   3.485   3.754 -0.2250  0.1265 -2.4056
19510SOL     OW60268   8.062   0.104   2.168 -0.0830 -0.0769 -0.9738
19510SOL    HW160269   7.999   0.037   2.195 -1.1902  1.2148 -0.2205
19510SOL    HW260270   8.020   0.147   2.093  0.5984 -0.1874 -1.4224
19511SOL     OW60271   1.835   7.177   0.850 -0.4312 -0.0509  0.2530
19511SOL    HW160272   1.883   7.193   0.931 -1.8147 -1.2224  1.3546
19511SOL    HW260273   1.802   7.087   0.858  1.1094 -0.9946 -2.5303
19512SOL     OW60274   3.611   6.954   0.940 -0.3122 -0.3647 -0.3067
19512SOL    HW160275   3.625   6.890   1.010 -0.6107 -0.2158 -0.1071
19512SOL    HW260276   3.563   7.025   0.983 -0.1481 -0.0950 -0.5712
19513SOL     OW60277   0.761   6.057   6.153  0.1748 -0.3573  0.2562
19513SOL    HW160278   0.828   5.999   6.188 -2.2548 -2.6827  1.3953
19513SOL    HW260279   0.682   6.037   6.204 -1.1102  3.2671  0.0078
19514SOL     OW60280   2.466   6.465   5.371 -0.3685  0.5249 -0.0573
19514SOL    HW160281   2.515   6.425   5.444 -0.8070  0.1810  0.0537
19514SOL    HW260282   2.461   6.396   5.305 -0.1063  0.7865 -0.3558
19515SOL     OW60283   3.873   7.656   5.885  0.3849  0.2869  0.3154
19515SOL    HW160284   3.872   7.656   5.789  1.4109 -0.7187  0.2798
19515SOL    HW260285   3.837   7.571   5.909  1.6004 -0.1289  0.7618
19516SOL     OW60286   4.690   8.529   2.363  0.3602  0.1434  0.0753
19516SOL    HW160287   4.766   8.522   2.305  1.7881  0.3954  1.8194
19516SOL    HW260288   4.669   8.439   2.386 -0.3573  0.0276 -0.9739
19517SOL     OW60289   2.574   8.546   1.294  0.0977 -0.0300 -0.0103
19517SOL    HW160290   2.600   8.595   1.371 -0.0309  1.4181 -0.8565
19517SOL    HW260291   2.553   8.613   1.228 -0.1390 -1.2128 -1.1866
19518SOL     OW60292   7.874   5.867   1.025 -0.2093 -0.1787 -0.1435
19518SOL    HW160293   7.787   5.866   1.064  0.5152 -0.6466  1.5499
19518SOL    HW260294   7.920   5.794   1.065  0.7472 -0.4059 -1.5748
19519SOL     OW60295   4.596   7.384   2.489  0.5319 -0.7574 -1.0181
19519SOL    HW160296   4.659   7.313   2.481 -1.0616 -2.6377  1.4115
19519SOL    HW260297   4.511   7.340   2.487 -0.4920  0.7094  2.6508
19520SOL     OW60298   7.197   5.076   8.187 -0.2450 -0.5457  0.4973
19520SOL    HW160299   7.215   5.035   8.271 -0.1840 -3.8784 -0.9858
19520SOL    HW260300   7.238   5.018   8.123 -4.1376 -0.7495 -2.1177
19521SOL     OW60301   5.255   6.255   8.688 -0.1004  0.3699  0.2695
19521SOL    HW160302   5.241   6.206   8.769  1.0479  0.0510  0.2975
19521SOL    HW260303   5.305   6.332   8.716 -1.7761  1.5362  0.2070
19522SOL     OW60304   9.114   5.163   6.609  0.1082 -0.3626 -0.1486
19522SOL    HW160305   9.173   5.158   6.684 -0.7435 -2.4844  0.4440
19522SOL    HW260306   9.119   5.076   6.569 -0.9414  0.1219 -1.4017
19523SOL     OW60307   0.520   2.375   8.853  0.1368  0.0838 -0.4262
19523SOL    HW160308   0.476   2.330   8.925  1.3209 -3.1137 -1.5095
19523SOL    HW260309   0.449   2.412   8.801 -1.0138 -1.4524 -0.0050
19524SOL     OW60310   0.662   1.882   2.682  0.3629 -0.3161  0.3943
19524SOL    HW160311   0.641   1.811   2.620 -1.0892  2.2663 -2.3348
19524SOL    HW260312   0.635   1.847   2.767 -1.5669 -2.5804 -0.9891
19525SOL     OW60313   7.098   9.558   2.355 -0.4663  0.3139 -0.1335
19525SOL    HW160314   7.186   9.591   2.337 -0.3986  0.6255  0.7010
19525SOL    HW260315   7.111   9.464   2.368 -0.1393  0.4457  0.5902
19526SOL     OW60316   5.862   0.819   6.787 -0.4925 -0.8255  0.4316
19526SOL    HW160317   5.933   0.804   6.724 -1.7020 -1.0891 -0.9057
19526SOL    HW260318   5.797   0.751   6.767 -2.3250  1.0196 -0.1730
19527SOL     OW60319   4.091   9.262   2.361  0.3564  0.4759  0.5839
19527SOL    HW160320   4.125   9.181   2.400  0.5602 -0.7349 -1.8930
19527SOL    HW260321   3.999   9.242   2.344 -0.0310  1.4212  1.4728
19528SOL     OW60322   5.435   3.112   6.089 -0.4754 -0.3053  0.1257
19528SOL    HW160323   5.390   3.090   6.171  1.3420  0.0597  1.2726
19528SOL    HW260324   5.526   3.086   6.103 -0.1459 -0.3897 -1.8662
19529SOL     OW60325   2.019   3.240   0.558  0.0347 -0.4009 -0.4283
19529SOL    HW160326   2.019   3.211   0.649  0.7730 -0.4821 -0.4482
19529SOL    HW260327   2.056   3.166   0.510  2.1663  0.6070 -0.4511
19530SOL     OW60328   3.684   0.893   2.141  0.2504  0.3922 -0.3557
19530SOL    HW160329   3.595   0.915   2.114  0.3233 -0.3018 -1.2234
19530SOL    HW260330   3.739   0.964   2.107  0.0017  0.9969  0.4742
19531SOL     OW60331   0.183   0.219   6.930  0.0234 -0.4688  0.0472
19531SOL    HW160332   0.095   0.256   6.936 -0.1741 -1.1725  1.7213
19531SOL    HW260333   0.230   0.258   7.003  1.2144  0.0844 -0.9661
19532SOL     OW60334   2.041   1.253   0.394  0.4628 -0.0451 -0.1066
19532SOL    HW160335   1.978   1.309   0.439  2.3996  1.7678  0.4839
19532SOL    HW260336   2.000   1.166   0.394 -0.4227  0.2209  3.5531
19533SOL     OW60337   0.048   2.270   3.430 -0.5420  0.0797 -0.5863
19533SOL    HW160338   0.065   2.176   3.430 -1.9486 -0.1934 -0.0557
19533SOL    HW260339  -0.045   2.278   3.411 -0.4826  1.3644 -0.4301
19534SOL     OW60340   7.141   3.092   6.443  0.0702 -0.4635  0.1308
19534SOL    HW160341   7.103   3.170   6.403  1.0690  0.9629  1.8358
19534SOL    HW260342   7.072   3.058   6.499  0.8715  1.6802  2.6255
19535SOL     OW60343   6.725   2.184   2.434  0.6656  0.0404 -0.5137
19535SOL    HW160344   6.751   2.107   2.486  0.3228  0.3592  0.1427
19535SOL    HW260345   6.802   2.241   2.436  0.1559  0.7441  0.9788
19536SOL     OW60346   1.343   8.780   7.017  0.4482 -0.0585  0.2827
19536SOL    HW160347   1.266   8.733   7.049  1.1590 -0.8067  0.9737
19536SOL    HW260348   1.412   8.713   7.015  1.1561  0.6654  0.0022
19537SOL     OW60349   7.271   0.978   7.225  0.6644  0.1786 -0.5548
19537SOL    HW160350   7.255   0.943   7.138  0.3884 -0.1376 -0.3797
19537SOL    HW260351   7.230   0.915   7.285  1.1125  0.2331 -0.1807
19538SOL     OW60352   1.257   3.163   2.617  0.4130  0.3222 -0.4996
19538SOL    HW160353   1.337   3.153   2.667 -0.5714  2.0596  1.5917
19538SOL    HW260354   1.200   3.093   2.647 -0.0574  1.1674  0.6705
19539SOL     OW60355   6.525   3.938   5.860 -0.0001  0.4166  0.0226
19539SOL    HW160356   6.455   3.970   5.803  0.0588 -0.8135 -0.7782
19539SOL    HW260357   6.497   3.851   5.886  1.2945 -0.1552 -0.4423
19540SOL     OW60358   8.591   0.492   5.294  0.0472  0.2302  0.2094
19540SOL    HW160359   8.511   0.544   5.297 -0.5668 -0.4421 -2.4459
19540SOL    HW260360   8.661   0.556   5.285 -0.6338  0.7328 -2.1675
19541SOL     OW60361   1.178   0.511   8.190  0.5052 -0.1801 -0.0472
19541SOL    HW160362   1.254   0.491   8.135 -0.6857 -0.7735 -1.5522
19541SOL    HW260363   1.140   0.588   8.149 -0.4446 -0.6758 -0.1135
19542SOL     OW60364   2.623   0.737   2.805  0.1224 -0.1802  0.4236
19542SOL    HW160365   2.634   0.713   2.897  0.8026  1.5488  0.8267
19542SOL    HW260366   2.677   0.674   2.757  0.4301 -0.5836  1.2791
19543SOL     OW60367   8.969   9.084   0.863 -0.1805 -0.5647 -0.5391
19543SOL    HW160368   9.010   9.133   0.792  2.2191 -0.8341  0.5784
19543SOL    HW260369   8.983   8.992   0.841 -0.3285 -0.6697 -0.2152
19544SOL     OW60370   2.095   3.557   3.825 -0.2071  0.1840 -0.0699
19544SOL    HW160371   2.120   3.492   3.891  0.8473  0.5909 -0.0489
19544SOL    HW260372   2.050   3.506   3.758 -1.6876 -0.1685  1.1378
19545SOL     OW60373   5.434   6.349   7.466  0.2600  0.3817 -0.3789
19545SOL    HW160374   5.466   6.263   7.439  1.6950 -0.1701  2.6900
19545SOL    HW260375   5.512   6.404   7.469 -0.4782  1.5190 -1.2091
19546SOL     OW60376   4.360   1.631   9.008 -0.1329  0.6141  0.5993
19546SOL    HW160377   4.435   1.572   9.002 -1.6857 -1.5129  0.5793
19546SOL    HW260378   4.365   1.669   9.095  0.8877  0.4102  0.6356
19547SOL     OW60379   1.194   0.270   1.652 -0.4756  0.2096  0.2928
19547SOL    HW160380   1.166   0.192   1.605  0.5112 -0.1979  0.3662
19547SOL    HW260381   1.288   0.257   1.667  0.1672  2.2915 -1.4435
19548SOL     OW60382   1.119   5.581   1.374 -0.1075  0.1922 -0.5758
19548SOL    HW160383   1.142   5.521   1.303  0.7880  1.7112 -1.6178
19548SOL    HW260384   1.026   5.565   1.390  0.0518 -1.2862 -0.9697
19549SOL     OW60385   8.350   1.777   2.178  0.6505  0.7165 -0.1095
19549SOL    HW160386   8.440   1.800   2.201  0.2546  3.9507 -1.2895
19549SOL    HW260387   8.343   1.797   2.085 -1.4807  1.3186  0.1312
19550SOL     OW60388   9.475   7.447   7.117 -0.1236  0.6688 -0.4833
19550SOL    HW160389   9.384   7.421   7.131 -0.0478 -0.1540 -1.3715
19550SOL    HW260390   9.502   7.485   7.200 -0.9842  0.0212  0.1160
19551SOL     OW60391   2.762   7.079   1.817 -0.7182  0.4858 -0.6272
19551SOL    HW160392   2.694   7.105   1.755  0.8424 -0.3309 -2.8170
19551SOL    HW260393   2.804   7.003   1.775  1.7032  1.1264  0.4717
19552SOL     OW60394   0.150   4.037   7.041  0.4591  1.0918  0.2912
19552SOL    HW160395   0.069   3.986   7.029  0.2977  1.9305 -3.1265
19552SOL    HW260396   0.163   4.037   7.136 -1.9410 -1.5131  0.7935
19553SOL     OW60397   4.007   2.348   3.759  0.2587 -0.0461 -0.7351
19553SOL    HW160398   3.959   2.298   3.692  1.2966 -0.5714 -1.1152
19553SOL    HW260399   4.080   2.291   3.783 -0.5360 -0.2301  1.4740
19554SOL     OW60400   6.794   8.232   6.507 -0.4348 -0.2533 -0.1716
19554SOL    HW160401   6.882   8.199   6.524 -0.7908 -1.2043 -0.1133
19554SOL    HW260402   6.736   8.165   6.541 -1.2205  0.8890  0.8483
19555SOL     OW60403   4.130   3.611   8.386  0.6726 -0.2087  0.1033
19555SOL    HW160404   4.146   3.701   8.415  0.1573  0.4348 -1.5099
19555SOL    HW260405   4.213   3.583   8.348  1.3190 -1.0186  1.9873
19556SOL     OW60406   4.954   3.759   9.287 -0.1823  0.7712  0.0671
19556SOL    HW160407   4.998   3.707   9.220 -1.3455 -0.1432 -0.0184
19556SOL    HW260408   5.016   3.829   9.308  0.7143  0.3374 -1.0468
19557SOL     OW60409   2.538   8.290   5.715  0.7846 -0.1096  0.5638
19557SOL    HW160410   2.449   8.264   5.735  1.0597 -1.4489  0.1505
19557SOL    HW260411   2.530   8.378   5.679 -0.2524  0.1668  1.4294
19558SOL     OW60412   6.943   8.613   8.594  0.4361  0.1377 -0.0544
19558SOL    HW160413   6.900   8.605   8.509  1.4777 -0.7517 -0.5085
19558SOL    HW260414   6.881   8.664   8.647 -0.7185 -0.2394 -0.9986
19559SOL     OW60415   5.328   9.243   0.748  0.0264 -0.1536 -0.3372
19559SOL    HW160416   5.383   9.306   0.702 -0.1292 -0.7429 -1.3730
19559SOL    HW260417   5.387   9.172   0.772 -0.4400 -1.4141 -2.6172
19560SOL     OW60418   0.068   7.567   2.819 -0.4596 -0.3370 -0.0701
19560SOL    HW160419   0.113   7.650   2.833 -3.2122  1.1080  0.9512
19560SOL    HW260420   0.042   7.540   2.907  1.4265 -3.0246 -0.2162
19561SOL     OW60421   5.600   1.362   7.702 -0.5139 -0.3511  0.5184
19561SOL    HW160422   5.681   1.410   7.716 -0.8686  0.4301  0.0053
19561SOL    HW260423   5.625   1.287   7.647 -0.4076  0.9072 -1.2425
19562SOL     OW60424   5.021   8.742   0.729  0.4848 -0.2534  0.3724
19562SOL    HW160425   5.034   8.782   0.643 -1.9497  1.5529  0.7433
19562SOL    HW260426   5.057   8.654   0.720  1.6102  0.3800 -2.0342
19563SOL     OW60427   4.472   7.609   3.101  0.7191  0.0247  0.0453
19563SOL    HW160428   4.523   7.681   3.065  0.1035 -0.1213 -1.1827
19563SOL    HW260429   4.529   7.570   3.167  1.8247  0.4367 -0.6302
19564SOL     OW60430   0.092   5.343   2.298 -0.1524 -0.5130 -0.0684
19564SOL    HW160431   0.165   5.324   2.240 -0.7467 -1.4023 -0.5538
19564SOL    HW260432   0.097   5.438   2.314 -0.5150 -0.0536 -2.3427
19565SOL     OW60433   2.130   1.567   0.090 -0.2502 -0.3542 -0.7722
19565SOL    HW160434   2.050   1.542   0.044 -0.3731 -1.2696 -0.0899
19565SOL    HW260435   2.098   1.612   0.169 -0.2334 -2.9600  0.8328
19566SOL     OW60436   3.384   2.625   2.319  0.1463 -0.1857 -0.0765
19566SOL    HW160437   3.291   2.641   2.308  0.0620 -0.4627  0.2439
19566SOL    HW260438   3.424   2.666   2.242  0.1122  3.0984  1.4714
19567SOL     OW60439   7.597   0.529   1.422 -0.2694  0.7255 -0.1566
19567SOL    HW160440   7.672   0.554   1.476  0.3615  0.2645 -0.7972
19567SOL    HW260441   7.636   0.486   1.346 -1.2211 -0.3579 -0.0622
19568SOL     OW60442   6.929   5.789   0.276 -0.3293  0.4799 -0.7601
19568SOL    HW160443   6.996   5.853   0.303  0.1591 -0.2215 -0.2818
19568SOL    HW260444   6.976   5.727   0.222 -0.4171 -0.4636  0.2209
19569SOL     OW60445   0.506   3.060   3.957 -0.2567 -0.2472  0.2432
19569SOL    HW160446   0.431   3.044   3.900  0.1567 -1.4556  0.0028
19569SOL    HW260447   0.509   2.983   4.014  2.5481 -1.7581 -1.7098
19570SOL     OW60448   0.090   8.042   9.591 -0.3456  0.4917 -1.0240
19570SOL    HW160449   0.094   8.129   9.631  0.5425  1.6784 -3.4774
19570SOL    HW260450   0.037   8.054   9.512 -0.8583 -1.3860 -1.0145
19571SOL     OW60451   9.386   9.579   5.304 -0.1889  0.3689  0.2864
19571SOL    HW160452   9.331   9.590   5.226  0.6699  2.5991 -0.0654
19571SOL    HW260453   9.462   9.530   5.272 -0.5566 -0.0799  0.0836
19572SOL     OW60454   9.344   6.341   7.060  0.1584 -0.1565 -0.6907
19572SOL    HW160455   9.399   6.308   6.989  0.0210 -0.4126 -0.6806
19572SOL    HW260456   9.286   6.404   7.018  0.9725  0.6969 -0.5670
19573SOL     OW60457   6.216   7.551   8.154  0.1274 -0.2948 -0.1627
19573SOL    HW160458   6.303   7.584   8.135  0.1084 -0.2057 -0.0926
19573SOL    HW260459   6.157   7.618   8.120  0.0975  0.0121  0.4873
19574SOL     OW60460   6.025   5.383   2.398 -0.0472  0.2783  0.7354
19574SOL    HW160461   6.016   5.350   2.308  2.4937  2.1409 -0.3208
19574SOL    HW260462   6.088   5.324   2.439 -0.9515 -0.3713  1.2115
19575SOL     OW60463   4.535   2.717   0.025  0.1382 -0.1788  0.2379
19575SOL    HW160464   4.510   2.802  -0.010  1.1965 -0.1016 -0.3548
19575SOL    HW260465   4.624   2.729   0.059  0.4720 -1.1471 -0.2400
19576SOL     OW60466   9.063   8.758   2.368 -0.0645 -0.5257 -0.6922
19576SOL    HW160467   9.139   8.813   2.386  1.1577 -2.0062 -1.2106
19576SOL    HW260468   9.073   8.731   2.276 -1.3772 -0.5105 -0.8658
19577SOL     OW60469   2.078   5.572   4.621  0.1054 -0.0931  0.1956
19577SOL    HW160470   2.089   5.503   4.686  1.0164 -0.5099 -0.3711
19577SOL    HW260471   2.158   5.568   4.568 -0.4183  0.5263 -0.6725
19578SOL     OW60472   8.400   5.015   0.450 -0.3803  0.1901 -0.5648
19578SOL    HW160473   8.361   5.061   0.376  2.5648  2.3193 -0.9958
19578SOL    HW260474   8.410   5.083   0.518  1.6534 -0.4005 -0.1968
19579SOL     OW60475   5.395   9.204   3.346 -0.7073  0.7461 -0.1624
19579SOL    HW160476   5.424   9.253   3.269 -0.7113  0.0441 -0.6188
19579SOL    HW260477   5.321   9.255   3.380 -0.4487  1.2744 -0.3851
19580SOL     OW60478   0.070   9.586   8.340  0.0394  0.6633  0.4109
19580SOL    HW160479   0.139   9.653   8.345  0.8423 -0.0121 -0.9436
19580SOL    HW260480  -0.011   9.635   8.326  0.1290  1.5091  2.5741
19581SOL     OW60481   9.515   2.936   8.853  0.3185  0.2109 -0.6597
19581SOL    HW160482   9.593   2.941   8.797  0.2390 -1.4458 -0.9542
19581SOL    HW260483   9.449   2.988   8.808  0.7463  0.2214 -1.2777
19582SOL     OW60484   8.786   0.239   2.289  0.0476  0.0648 -0.1703
19582SOL    HW160485   8.779   0.217   2.382 -1.3475  1.0275 -0.0197
19582SOL    HW260486   8.805   0.155   2.246 -0.6071 -0.6358  0.8514
19583SOL     OW60487   7.495   6.424   0.740 -0.2841 -0.0389 -0.3505
19583SOL    HW160488   7.590   6.437   0.741 -0.3319  0.3001 -0.1996
19583SOL    HW260489   7.462   6.497   0.688 -0.3848 -0.6834 -1.2137
19584SOL     OW60490   1.409   0.327   4.987 -0.5309  0.3414 -0.2697
19584SOL    HW160491   1.441   0.292   4.904 -0.8760  0.0142 -0.2664
19584SOL    HW260492   1.342   0.264   5.015 -0.2837  0.3484  0.3480
19585SOL     OW60493   1.223   5.270   1.615  0.0057 -0.2303 -0.5067
19585SOL    HW160494   1.239   5.210   1.687  1.1268  1.4277  0.7218
19585SOL    HW260495   1.271   5.350   1.639  1.1731  0.1260 -3.4997
19586SOL     OW60496   3.540   5.675   3.750 -0.0670  0.2691  0.1426
19586SOL    HW160497   3.615   5.732   3.734  1.5138 -1.7098  0.0801
19586SOL    HW260498   3.578   5.595   3.786 -2.0384 -1.1937 -0.8337
19587SOL     OW60499   1.569   7.049   0.133 -0.0576 -0.1447 -0.2811
19587SOL    HW160500   1.553   7.117   0.067  1.8618  1.3611  0.6957
19587SOL    HW260501   1.484   7.037   0.177 -0.4837  1.5252 -0.5817
19588SOL     OW60502   2.716   5.148   4.366  0.0490  0.6696  0.2299
19588SOL    HW160503   2.696   5.233   4.406  0.7120  0.6340  0.6613
19588SOL    HW260504   2.630   5.110   4.347 -0.2853  2.3585 -2.0302
19589SOL     OW60505   9.428   5.099   7.222 -0.1432  0.2170  0.4582
19589SOL    HW160506   9.474   5.068   7.144  0.8357  0.2378  1.0090
19589SOL    HW260507   9.497   5.138   7.276 -0.9387  0.9508  0.9684
19590SOL     OW60508   5.023   8.105   4.792  0.6559 -0.3465  0.0188
19590SOL    HW160509   5.039   8.199   4.779 -0.2093 -0.3224 -1.0086
19590SOL    HW260510   5.109   8.070   4.817  1.1165  0.6252 -0.1262
19591SOL     OW60511   3.348   1.329   0.087  0.1356  0.1442 -0.3103
19591SOL    HW160512   3.275   1.299   0.142  0.2507  0.0218 -0.2226
19591SOL    HW260513   3.306   1.367   0.010 -0.0196 -0.0914 -0.3443
19592SOL     OW60514   2.496   3.775   4.453  0.3331  0.3656 -0.2231
19592SOL    HW160515   2.442   3.854   4.444  0.6138  0.7717  1.3557
19592SOL    HW260516   2.557   3.780   4.379  0.5670  1.8248  0.0328
19593SOL     OW60517   5.805   3.674   3.395  0.6106  0.0221  0.3015
19593SOL    HW160518   5.822   3.718   3.311 -1.0502  0.3618  0.0988
19593SOL    HW260519   5.743   3.731   3.440 -2.3310 -2.3735 -0.3235
19594SOL     OW60520   9.445   4.329   4.070 -0.3600  0.3242  0.7852
19594SOL    HW160521   9.391   4.255   4.098 -0.2159  0.2646  0.9133
19594SOL    HW260522   9.532   4.309   4.107 -0.0607  0.0340 -0.0515
19595SOL     OW60523   0.511   9.000   3.100  0.4343 -0.1844  0.2487
19595SOL    HW160524   0.506   9.070   3.034 -0.3357 -0.9710 -0.5522
19595SOL    HW260525   0.444   9.024   3.165 -0.7304 -0.8051 -0.6784
19596SOL     OW60526   5.074   2.112   6.496  0.2152 -0.8515 -0.2826
19596SOL    HW160527   5.043   2.185   6.550  3.0187 -0.0870  0.4781
19596SOL    HW260528   5.053   2.034   6.547 -0.3265 -0.3654  0.2558
19597SOL     OW60529   3.285   0.908   7.065 -0.0671 -0.6819  0.4079
19597SOL    HW160530   3.292   0.824   7.018  0.5308  0.0159 -0.7979
19597SOL    HW260531   3.192   0.915   7.087 -0.6377 -0.4929 -1.7857
19598SOL     OW60532   7.362   5.074   2.336  0.0371  0.4399 -0.8528
19598SOL    HW160533   7.415   5.117   2.404  1.3325 -0.0214 -1.5390
19598SOL    HW260534   7.295   5.027   2.384 -1.6590  3.4016 -0.0500
19599SOL     OW60535   1.715   6.277   8.753  0.3470 -0.0478 -0.5044
19599SOL    HW160536   1.745   6.296   8.842 -1.1615 -0.4202  0.1060
19599SOL    HW260537   1.720   6.182   8.746 -1.7178 -0.2352  0.0261
19600SOL     OW60538   2.989   2.824   0.504  0.3557 -0.1233 -0.2886
19600SOL    HW160539   3.019   2.738   0.475  0.8293 -0.0490 -0.0394
19600SOL    HW260540   2.988   2.818   0.599  1.5563  0.5065 -0.2109
19601SOL     OW60541   6.164   1.754   0.408 -0.4327  0.2132 -0.8505
19601SOL    HW160542   6.112   1.721   0.481  0.2576 -1.1400 -0.9240
19601SOL    HW260543   6.250   1.774   0.446 -1.1921  3.3211 -0.5390
19602SOL     OW60544   5.192   0.976   1.187 -0.1058 -0.1720 -0.0291
19602SOL    HW160545   5.244   1.012   1.259  0.2828  0.3036 -0.5393
19602SOL    HW260546   5.213   0.882   1.187  0.9701  0.0512 -0.3938
19603SOL     OW60547   1.253   8.170   6.225  0.1299  0.0382  0.7393
19603SOL    HW160548   1.192   8.243   6.229 -0.0827 -0.1463  0.9061
19603SOL    HW260549   1.224   8.111   6.296  1.2522  0.5373  1.6478
19604SOL     OW60550   0.378   4.915   5.202  0.5639 -0.0475 -0.1942
19604SOL    HW160551   0.377   4.950   5.113 -1.8338  2.7000  0.7201
19604SOL    HW260552   0.356   4.991   5.257  2.9944 -1.3678  2.8913
19605SOL     OW60553   7.227   5.256   0.317 -0.4287 -0.3405 -0.0689
19605SOL    HW160554   7.222   5.170   0.277  0.7572 -0.0267 -0.9373
19605SOL    HW260555   7.239   5.316   0.243  1.4002  0.2967  0.6861
19606SOL     OW60556   0.096   9.035   4.264  0.0787  0.3214 -0.3398
19606SOL    HW160557   0.169   8.976   4.244 -0.8733 -0.2460 -2.4801
19606SOL    HW260558   0.119   9.116   4.218 -0.5457  0.1993 -0.8731
19607SOL     OW60559   7.211   1.259   8.993  0.0354  0.0631 -0.6377
19607SOL    HW160560   7.178   1.180   9.037 -1.2374  0.3587 -1.0054
19607SOL    HW260561   7.162   1.331   9.034  1.6345  0.7442  0.1328
19608SOL     OW60562   1.953   8.321   2.212  0.8543 -0.1267 -0.0792
19608SOL    HW160563   2.008   8.275   2.149 -0.0293 -0.8793 -0.3204
19608SOL    HW260564   1.954   8.412   2.183  0.4174 -0.4766 -1.2272
19609SOL     OW60565   8.326   4.542   8.364  0.0435  0.6986  0.1085
19609SOL    HW160566   8.274   4.586   8.432  1.3177 -0.2619  1.7925
19609SOL    HW260567   8.415   4.576   8.376  1.3339 -2.8154  2.1621
19610SOL     OW60568   8.334   4.313   8.511  0.1832  0.0236 -0.1967
19610SOL    HW160569   8.352   4.406   8.498  2.5153 -0.1379  1.2193
19610SOL    HW260570   8.331   4.276   8.423  1.9737  1.0200 -0.7244
19611SOL     OW60571   8.979   7.579   7.637  0.0345  0.1375  0.3359
19611SOL    HW160572   8.907   7.517   7.647  0.2863 -0.6805 -2.1337
19611SOL    HW260573   9.052   7.539   7.685 -0.1587 -0.9013 -0.2055
19612SOL     OW60574   2.613   9.490   8.159  0.1610 -0.4376  0.3165
19612SOL    HW160575   2.679   9.527   8.099  0.6731 -1.7065  0.0768
19612SOL    HW260576   2.538   9.550   8.151  0.0214 -0.8226 -1.9650
19613SOL     OW60577   6.367   2.432   0.101  0.3747  0.4271 -0.0162
19613SOL    HW160578   6.425   2.420   0.177  0.9346  2.5222 -0.0404
19613SOL    HW260579   6.279   2.417   0.135  0.7133  0.1490  0.7595
19614SOL     OW60580   3.264   7.538   5.338 -0.3710 -0.2351 -0.1273
19614SOL    HW160581   3.339   7.482   5.317  0.3146  0.2675  0.8430
19614SOL    HW260582   3.201   7.480   5.380  0.0594 -0.4176  0.2821
19615SOL     OW60583   8.407   4.491   9.272 -0.4075 -0.2176  0.3042
19615SOL    HW160584   8.321   4.474   9.233 -0.3622  0.1998  0.0141
19615SOL    HW260585   8.458   4.527   9.200 -0.3870  0.7904  0.8043
19616SOL     OW60586   3.334   2.599   7.542  0.5847 -0.1571 -0.2032
19616SOL    HW160587   3.260   2.660   7.532  0.1064 -0.8074 -0.7736
19616SOL    HW260588   3.411   2.653   7.528  0.1822  0.3887 -0.3799
19617SOL     OW60589   7.437   5.814   0.860 -0.0268 -0.1565  0.0728
19617SOL    HW160590   7.372   5.867   0.816  0.6077  0.9628  0.4523
19617SOL    HW260591   7.521   5.844   0.826  0.3642 -0.7179  0.5091
19618SOL     OW60592   1.843   9.064   8.396 -0.3873 -0.2043 -0.3295
19618SOL    HW160593   1.880   9.101   8.316 -0.0377 -0.1400 -0.1398
19618SOL    HW260594   1.752   9.044   8.373  0.2920 -2.3435 -1.4828
19619SOL     OW60595   4.606   9.151   3.688  0.3489  0.3257  0.3345
19619SOL    HW160596   4.642   9.239   3.694 -0.5230  0.6262  1.5201
19619SOL    HW260597   4.550   9.142   3.765  0.2959 -1.2123  0.1589
19620SOL     OW60598   3.018   3.887   6.659 -0.2313  0.2578 -0.2423
19620SOL    HW160599   2.925   3.892   6.679 -0.6317  0.2617 -1.8876
19620SOL    HW260600   3.022   3.845   6.573  1.3604 -0.7089  0.2591
19621SOL     OW60601   2.197   3.558   9.159  0.5692 -0.0017  0.2825
19621SOL    HW160602   2.151   3.623   9.106 -0.8037 -1.5002 -0.4576
19621SOL    HW260603   2.161   3.568   9.246 -0.4520 -0.4695 -0.0698
19622SOL     OW60604   0.936   5.932   1.445  0.0515  0.1934 -0.5071
19622SOL    HW160605   0.904   5.968   1.528  0.9551 -0.4960  0.1500
19622SOL    HW260606   0.903   5.993   1.379  1.3387  2.1378  0.5398
19623SOL     OW60607   7.878   5.231   7.098 -0.5040  0.3221 -0.2619
19623SOL    HW160608   7.826   5.282   7.036 -1.0649 -0.1588 -0.1881
19623SOL    HW260609   7.869   5.277   7.181 -0.1189  0.7137 -0.4343
19624SOL     OW60610   5.795   0.351   7.199 -0.3824 -0.0612  0.5380
19624SOL    HW160611   5.737   0.425   7.220 -1.3362 -1.0079  1.3474
19624SOL    HW260612   5.781   0.336   7.106  0.4244  1.2701  0.1710
19625SOL     OW60613   2.153   6.833   5.133  0.2437 -0.7944 -0.2826
19625SOL    HW160614   2.168   6.764   5.198  0.6208 -0.8563 -0.4324
19625SOL    HW260615   2.059   6.852   5.139  0.2299 -0.9743  0.1049
19626SOL     OW60616   7.974   1.004   1.590  0.2001  0.3382  0.1621
19626SOL    HW160617   7.902   1.028   1.532  0.4186  0.1645 -0.1875
19626SOL    HW260618   7.931   0.973   1.670 -0.1915 -1.5470 -0.7168
19627SOL     OW60619   6.276   3.228   0.477 -0.1071 -0.4184  0.0400
19627SOL    HW160620   6.291   3.261   0.566  0.5243 -1.6573  0.4173
19627SOL    HW260621   6.349   3.264   0.426  0.0874 -0.5122  0.2487
19628SOL     OW60622   5.814   6.275   7.801  0.2402 -0.0514 -0.0333
19628SOL    HW160623   5.734   6.316   7.766  0.8847  0.9278 -0.3933
19628SOL    HW260624   5.785   6.235   7.883 -0.6251  0.3004 -0.1452
19629SOL     OW60625   2.829   6.506   5.749 -0.0447  0.1965  0.4708
19629SOL    HW160626   2.889   6.563   5.701 -0.7875 -0.7402 -1.6870
19629SOL    HW260627   2.857   6.513   5.840  3.3697 -0.2225 -0.4246
19630SOL     OW60628   0.229   4.107   0.637  0.4488 -0.4108 -0.2621
19630SOL    HW160629   0.162   4.054   0.680 -0.6348  1.5285  0.5509
19630SOL    HW260630   0.213   4.196   0.668  0.0678  1.0408 -4.0819
19631SOL     OW60631   4.571   8.410   0.320  0.1973 -0.0408 -0.1661
19631SOL    HW160632   4.554   8.402   0.414  1.9541  0.7985  0.2705
19631SOL    HW260633   4.542   8.327   0.282 -0.6287 -0.3459  1.0900
19632SOL     OW60634   0.770   2.955   8.396  0.3492  0.1057  0.7373
19632SOL    HW160635   0.747   2.933   8.305  2.0982  2.9178 -0.5398
19632SOL    HW260636   0.686   2.959   8.441 -0.8730  1.2084 -1.4473
19633SOL     OW60637   7.482   6.051   1.064  0.4754 -0.3248 -0.6125
19633SOL    HW160638   7.399   6.004   1.056 -0.0887  0.4980  0.1749
19633SOL    HW260639   7.547   5.982   1.073 -0.2330 -0.9794 -0.3214
19634SOL     OW60640   6.757   5.219   3.104  0.2476  0.1103  0.5513
19634SOL    HW160641   6.849   5.246   3.101  0.0768  0.6658 -0.3746
19634SOL    HW260642   6.760   5.125   3.121  0.9814  0.1496  0.6746
19635SOL     OW60643   9.486   2.927   2.510 -0.1914  0.4110 -0.0994
19635SOL    HW160644   9.455   2.836   2.517 -0.7813  0.6494  0.5494
19635SOL    HW260645   9.573   2.920   2.471 -0.8011 -0.3313 -1.3988
19636SOL     OW60646   0.228   6.692   1.050  0.3400 -0.4970 -0.5061
19636SOL    HW160647   0.205   6.744   1.127 -2.0769 -1.5647 -0.4110
19636SOL    HW260648   0.324   6.689   1.051  0.4293  0.9951  1.4323
19637SOL     OW60649   9.306   1.739   9.415 -0.4956  0.3375  0.5579
19637SOL    HW160650   9.244   1.713   9.483  0.7676 -1.1456  1.1887
19637SOL    HW260651   9.370   1.793   9.460 -0.8844  1.2495  0.0543
19638SOL     OW60652   2.663   8.768   6.999 -0.2110  0.1747 -0.1930
19638SOL    HW160653   2.676   8.770   6.904 -1.0001 -0.8882 -0.3448
19638SOL    HW260654   2.701   8.850   7.030  2.4726 -0.6213 -1.0883
19639SOL     OW60655   1.189   6.461   8.251 -0.4098 -0.0758 -0.0370
19639SOL    HW160656   1.172   6.489   8.341  0.6192 -0.8130  0.3983
19639SOL    HW260657   1.228   6.538   8.210  0.4486 -0.1658  0.5667
19640SOL     OW60658   4.126   6.205   8.779  0.5374  0.0825  0.2404
19640SOL    HW160659   4.203   6.219   8.835  1.2088 -0.7757 -0.4514
19640SOL    HW260660   4.144   6.123   8.734 -0.2864  0.4373 -0.7625
19641SOL     OW60661   8.101   6.993   5.785 -0.2077  0.5410 -0.3026
19641SOL    HW160662   8.163   6.921   5.792  0.1448  0.6509 -1.9811
19641SOL    HW260663   8.019   6.952   5.757 -1.0509  0.3542  2.1911
19642SOL     OW60664   3.706   0.796   3.364  0.9186 -0.1061 -0.7593
19642SOL    HW160665   3.623   0.827   3.400  0.3926 -1.9392 -0.3278
19642SOL    HW260666   3.741   0.872   3.317  0.5567  1.7026  1.6837
19643SOL     OW60667   2.704   8.222   8.074 -0.2020  0.1648 -0.2449
19643SOL    HW160668   2.648   8.284   8.120  1.1170  1.1509  0.0534
19643SOL    HW260669   2.752   8.275   8.010  1.3044 -0.4516  0.3514
19644SOL     OW60670   7.682   7.369   1.890  0.3429  0.1827 -0.4521
19644SOL    HW160671   7.668   7.348   1.982 -1.3365  0.0353 -0.7055
19644SOL    HW260672   7.695   7.464   1.889  0.1063  0.2228 -0.0690
19645SOL     OW60673   7.428   6.095   3.221  0.6934  1.3097  0.3723
19645SOL    HW160674   7.480   6.095   3.141 -1.9331  1.3219 -1.4715
19645SOL    HW260675   7.472   6.032   3.278  2.0840  0.4736 -1.5008
19646SOL     OW60676   8.333   9.582   1.425 -0.4796 -0.3605 -0.0169
19646SOL    HW160677   8.386   9.656   1.393 -0.1338 -1.8458 -3.2506
19646SOL    HW260678   8.247   9.595   1.384 -1.2556 -0.4560  1.4831
19647SOL     OW60679   7.722   0.874   0.248  0.2212 -0.1516  0.2139
19647SOL    HW160680   7.767   0.792   0.228  0.8696  0.0463  0.8037
19647SOL    HW260681   7.731   0.928   0.169  1.3213  0.0100  0.4386
19648SOL     OW60682   5.344   9.507   8.905  0.7800 -0.3337  0.3458
19648SOL    HW160683   5.274   9.513   8.839  0.3128 -2.2636  0.5880
19648SOL    HW260684   5.358   9.413   8.916  2.1270 -0.0181  1.6849
19649SOL     OW60685   7.862   4.482   2.307 -0.1247 -0.0171 -0.0880
19649SOL    HW160686   7.956   4.464   2.303  0.0275  0.6812  0.0930
19649SOL    HW260687   7.853   4.542   2.382 -0.5627  0.7942 -0.7737
19650SOL     OW60688   3.360   5.998   7.273 -0.5817  0.0546 -0.0553
19650SOL    HW160689   3.414   6.060   7.223  0.1119 -0.1713  0.3931
19650SOL    HW260690   3.376   6.021   7.364  1.2220 -1.9720  0.2334
19651SOL     OW60691   2.847   0.121   6.531  0.0353 -0.4379 -0.1441
19651SOL    HW160692   2.828   0.177   6.606  1.0290  3.6325 -2.6121
19651SOL    HW260693   2.921   0.066   6.559 -1.6610 -1.4372  2.7293
19652SOL     OW60694   7.228   6.705   1.363  0.1988 -0.0910  0.1353
19652SOL    HW160695   7.242   6.674   1.273 -1.3025 -1.3773  0.3165
19652SOL    HW260696   7.294   6.660   1.415  0.8356  0.3801 -0.2431
19653SOL     OW60697   8.383   3.314   0.787  0.1977  0.0530 -0.1127
19653SOL    HW160698   8.416   3.296   0.875  0.2526  0.4296 -0.0577
19653SOL    HW260699   8.305   3.367   0.801  0.5400  0.6145 -0.3155
19654SOL     OW60700   8.635   0.682   4.206 -0.1398 -0.0387  0.0912
19654SOL    HW160701   8.543   0.671   4.228  0.0235 -0.2436  0.6875
19654SOL    HW260702   8.650   0.777   4.214 -0.7747  0.2915 -1.9728
19655SOL     OW60703   4.996   0.018   8.925  0.2398 -0.6247 -0.1430
19655SOL    HW160704   4.946  -0.039   8.984 -1.7347  0.7606 -0.3574
19655SOL    HW260705   4.932   0.046   8.860  0.8722  2.4049  0.3965
19656SOL     OW60706   5.358   7.503   1.119  0.0778  0.0384  0.4188
19656SOL    HW160707   5.403   7.457   1.048  0.4535  0.8363  0.1314
19656SOL    HW260708   5.417   7.573   1.144 -0.3898  0.2287  1.0045
19657SOL     OW60709   7.773   6.466   0.851 -0.1348 -0.0517  0.0841
19657SOL    HW160710   7.862   6.501   0.862  0.5859 -1.2405 -1.6249
19657SOL    HW260711   7.785   6.372   0.843 -1.5425 -0.2146 -0.3181
19658SOL     OW60712   5.510   3.261   5.668  0.0068 -0.4496 -0.1377
19658SOL    HW160713   5.518   3.260   5.572 -0.1564 -1.4338 -0.1492
19658SOL    HW260714   5.596   3.289   5.699 -0.7459  2.7175 -0.6198
19659SOL     OW60715   1.085   2.815   7.644  0.3058  0.1208 -0.1815
19659SOL    HW160716   1.001   2.775   7.620  0.7175  0.4083 -2.3641
19659SOL    HW260717   1.137   2.743   7.679  0.5639 -1.0617 -2.7681
19660SOL     OW60718   7.127   6.649   5.182 -0.0823  0.8391  0.0608
19660SOL    HW160719   7.076   6.720   5.222 -0.0582  0.4471  0.8078
19660SOL    HW260720   7.186   6.620   5.252 -2.5582 -2.3740  1.0574
19661SOL     OW60721   1.694   6.981   6.695 -0.2754 -0.3628  0.8191
19661SOL    HW160722   1.745   6.999   6.774  0.1384  1.4779  0.1733
19661SOL    HW260723   1.732   7.038   6.628 -0.6850 -1.8058 -0.7092
19662SOL     OW60724   1.781   5.217   5.577 -0.5668  0.1103 -0.0263
19662SOL    HW160725   1.815   5.253   5.495 -1.2329 -0.4962 -0.5775
19662SOL    HW260726   1.795   5.123   5.570  1.0293  0.1942  1.3455
19663SOL     OW60727   9.196   1.209   9.416 -0.9428 -0.4587 -0.2663
19663SOL    HW160728   9.167   1.244   9.332 -1.7684  1.5953  0.8206
19663SOL    HW260729   9.116   1.187   9.462 -0.5670 -0.0787  0.5883
19664SOL     OW60730   7.227   3.631   7.398 -0.0153 -0.1205 -0.1331
19664SOL    HW160731   7.206   3.678   7.478 -0.2601  0.5642 -0.5915
19664SOL    HW260732   7.311   3.669   7.370 -1.7204  2.4673 -2.2593
19665SOL     OW60733   7.475   6.729   1.956  0.1967 -0.3733  0.2346
19665SOL    HW160734   7.535   6.655   1.955  0.5036 -0.1293 -1.0788
19665SOL    HW260735   7.532   6.806   1.962  0.0116 -0.1486 -0.8382
19666SOL     OW60736   2.998   5.142   2.751  0.3381  0.1003  0.2848
19666SOL    HW160737   3.005   5.070   2.688  0.1311 -0.1144  0.5106
19666SOL    HW260738   2.946   5.208   2.705 -0.6399 -0.4449  0.5830
19667SOL     OW60739   0.182   5.155   8.114  0.1223 -0.3998 -0.2027
19667SOL    HW160740   0.124   5.230   8.100 -0.6869 -0.6029  1.8164
19667SOL    HW260741   0.126   5.079   8.104  0.3624 -0.6487  0.3381
19668SOL     OW60742   7.142   2.340   4.750 -0.2712  0.1488 -0.3325
19668SOL    HW160743   7.061   2.344   4.800  0.3816 -0.4824  0.8234
19668SOL    HW260744   7.209   2.320   4.815  0.7582  0.2899 -1.3234
19669SOL     OW60745   0.507   4.273   7.363 -0.3030 -0.1784 -0.4049
19669SOL    HW160746   0.553   4.339   7.312 -0.3528  0.9706  0.9767
19669SOL    HW260747   0.551   4.274   7.448 -1.7210 -0.3473  0.3480
19670SOL     OW60748   1.340   6.353   3.149  0.1994 -0.0605  0.0096
19670SOL    HW160749   1.267   6.331   3.206  0.7962 -2.1644  0.0487
19670SOL    HW260750   1.300   6.369   3.063 -0.5132  1.2409  0.5602
19671SOL     OW60751   6.677   4.972   0.905 -0.2211 -0.2304  0.8109
19671SOL    HW160752   6.593   4.994   0.864  0.7106  0.8286 -0.5798
19671SOL    HW260753   6.672   5.012   0.992 -0.2804  1.8560 -0.0996
19672SOL     OW60754   3.709   7.878   0.318 -0.0499 -0.0398  0.2633
19672SOL    HW160755   3.731   7.831   0.399  1.0269  0.7196  0.4383
19672SOL    HW260756   3.716   7.971   0.342 -0.9868  0.2066 -0.3813
19673SOL     OW60757   4.144   9.339   9.133 -0.0761 -0.0189 -0.0547
19673SOL    HW160758   4.153   9.249   9.165  0.7866  0.3009  0.6372
19673SOL    HW260759   4.049   9.355   9.132 -0.3558 -1.4237 -1.6333
19674SOL     OW60760   5.915   5.087   2.158  0.2583  0.6375  0.3889
19674SOL    HW160761   5.987   5.146   2.135  0.5581  0.1749  0.1230
19674SOL    HW260762   5.915   5.021   2.088  0.1664  0.1098  0.8788
19675SOL     OW60763   3.442   3.481   4.205 -0.4102  0.0358 -0.2527
19675SOL    HW160764   3.437   3.441   4.118 -2.7221 -0.5302  0.1000
19675SOL    HW260765   3.422   3.573   4.190  2.4250  0.6878 -0.6997
19676SOL     OW60766   7.003   3.826   4.898  0.4032  0.5448  0.1119
19676SOL    HW160767   7.087   3.868   4.880 -0.2481  1.2638 -1.4342
19676SOL    HW260768   6.956   3.828   4.815 -1.4960  0.9713  1.1092
19677SOL     OW60769   0.360   1.757   5.945  0.9338 -0.0919 -0.0803
19677SOL    HW160770   0.266   1.743   5.956  0.7259 -0.2752 -1.7626
19677SOL    HW260771   0.398   1.669   5.947  1.1205  0.0054  0.9202
19678SOL     OW60772   6.075   4.264   5.920  0.8171 -0.2965 -0.0619
19678SOL    HW160773   6.030   4.214   5.989 -0.7962 -0.7442 -1.3652
19678SOL    HW260774   6.028   4.241   5.840 -0.5427  3.8547 -0.6871
19679SOL     OW60775   8.796   6.751   3.014 -0.4830  0.5862 -0.3589
19679SOL    HW160776   8.810   6.671   2.964 -0.3157  0.8394 -0.7163
19679SOL    HW260777   8.842   6.736   3.097  1.0729  1.0037 -1.1192
19680SOL     OW60778   6.590   7.240   9.285  0.3566  0.1951  0.3873
19680SOL    HW160779   6.589   7.314   9.345  0.9569  0.3195  0.2496
19680SOL    HW260780   6.572   7.279   9.199 -0.6328  0.0014  0.4904
19681SOL     OW60781   7.378   3.917   5.705 -0.6646  0.3464  0.3224
19681SOL    HW160782   7.397   3.898   5.797  0.1859  0.9574  0.2819
19681SOL    HW260783   7.322   3.995   5.708 -1.5364 -0.2728  0.3601
19682SOL     OW60784   1.146   3.969   5.715 -0.2880  0.8701 -0.9761
19682SOL    HW160785   1.088   4.045   5.717 -1.4837 -0.0128 -0.1916
19682SOL    HW260786   1.151   3.941   5.806 -0.9186 -0.7253 -1.3984
19683SOL     OW60787   5.172   6.425   2.894  0.2703 -0.2404 -0.0861
19683SOL    HW160788   5.221   6.410   2.813  1.4973  0.0959  0.5618
19683SOL    HW260789   5.127   6.342   2.910  1.2971 -0.8536 -0.2710
19684SOL     OW60790   8.330   7.803   2.166  0.2467  0.2699  0.3983
19684SOL    HW160791   8.338   7.809   2.071  0.6004 -2.5919  0.1667
19684SOL    HW260792   8.258   7.863   2.188 -1.3188 -0.6117 -1.9608
19685SOL     OW60793   7.262   7.282   7.928  0.3834 -0.9347  0.1916
19685SOL    HW160794   7.208   7.242   7.859  0.6592 -0.3653 -0.3716
19685SOL    HW260795   7.218   7.259   8.010 -1.2724  0.3283 -0.2876
19686SOL     OW60796   4.855   5.227   0.310 -0.4895 -0.4787 -0.5886
19686SOL    HW160797   4.793   5.296   0.335 -0.7075 -0.5315 -0.9760
19686SOL    HW260798   4.897   5.202   0.392 -0.2160  0.3026 -0.4791
19687SOL     OW60799   4.157   0.138   1.369 -0.3973 -0.5304  0.4053
19687SOL    HW160800   4.063   0.124   1.371 -0.8624  2.0904  2.6044
19687SOL    HW260801   4.168   0.228   1.338  1.3786 -0.7097  0.3755
19688SOL     OW60802   2.371   0.480   1.457  0.1794 -0.9614  0.0634
19688SOL    HW160803   2.428   0.545   1.416 -0.0315  1.1167  2.8155
19688SOL    HW260804   2.302   0.531   1.499 -0.4311 -3.0001  1.7272
19689SOL     OW60805   7.785   3.758   5.861  0.1878 -0.4052  0.9451
19689SOL    HW160806   7.745   3.698   5.799  1.0915 -1.4024  1.2879
19689SOL    HW260807   7.723   3.763   5.934 -0.1852 -0.4009  0.6319
19690SOL     OW60808   1.422   5.075   3.711 -0.5976  0.4030 -0.2363
19690SOL    HW160809   1.364   5.143   3.677 -1.5168 -1.7256 -3.3331
19690SOL    HW260810   1.393   4.995   3.668  0.8641 -1.9039  2.7306
19691SOL     OW60811   4.300   5.492   2.484  0.1412  0.3514 -0.3406
19691SOL    HW160812   4.246   5.471   2.407  2.4692  0.4614 -2.1115
19691SOL    HW260813   4.250   5.458   2.558 -2.1158  0.0465 -1.8858
19692SOL     OW60814   0.699   1.803   7.539  0.0733 -0.5181  0.3949
19692SOL    HW160815   0.613   1.815   7.501  1.1895  2.2900 -1.5950
19692SOL    HW260816   0.688   1.825   7.632 -0.9570  2.4583 -0.3270
19693SOL     OW60817   5.179   8.292   8.892 -0.6177  0.0493 -0.0305
19693SOL    HW160818   5.213   8.227   8.830  1.0053 -0.0248  0.8581
19693SOL    HW260819   5.253   8.352   8.906 -1.8395  1.6884 -0.2649
19694SOL     OW60820   2.200   1.285   3.220 -0.1224 -0.2324  0.1332
19694SOL    HW160821   2.140   1.324   3.283 -0.1848 -1.2440  0.7141
19694SOL    HW260822   2.229   1.203   3.261  1.2915  0.0013 -0.3338
19695SOL     OW60823   4.923   1.585   3.052  0.3489 -0.4905  0.1878
19695SOL    HW160824   5.001   1.641   3.054  0.4761 -0.6774  0.5069
19695SOL    HW260825   4.860   1.634   2.999  0.6178 -0.2525  0.0855
19696SOL     OW60826   6.133   7.168   9.613 -0.2512  0.1442  0.2127
19696SOL    HW160827   6.049   7.131   9.586  0.5394 -0.5128 -1.4430
19696SOL    HW260828   6.129   7.259   9.584 -0.3516  0.0926  0.0651
19697SOL     OW60829   1.626   8.172   3.133  0.1581 -0.6158  0.0330
19697SOL    HW160830   1.681   8.198   3.059  3.2713  0.5332  2.5588
19697SOL    HW260831   1.648   8.080   3.148 -1.5046 -1.2638 -1.2056
19698SOL     OW60832   1.181   7.692   1.139  0.1199 -0.4503  0.3762
19698SOL    HW160833   1.234   7.613   1.139  2.1188  0.7942 -0.7015
19698SOL    HW260834   1.104   7.670   1.191  1.5809 -2.4387  1.8368
19699SOL     OW60835   5.257   8.613   3.385  0.2298 -0.2451  0.1699
19699SOL    HW160836   5.287   8.627   3.295  0.7785  0.5333  0.4679
19699SOL    HW260837   5.336   8.618   3.438 -0.3168  1.2481  0.9020
19700SOL     OW60838   5.276   3.475   6.353 -0.1206  0.3720  0.3306
19700SOL    HW160839   5.203   3.414   6.361 -0.6549  0.9067 -0.3570
19700SOL    HW260840   5.333   3.455   6.428 -1.7995  1.0775  1.8706
19701SOL     OW60841   6.043   8.689   9.405  0.4307  0.5216 -0.1157
19701SOL    HW160842   6.038   8.691   9.310  1.6512 -0.9400 -0.2366
19701SOL    HW260843   5.954   8.711   9.434 -0.7550 -1.8796 -1.6473
19702SOL     OW60844   2.268   1.773   8.578 -0.0463  0.1837 -0.0192
19702SOL    HW160845   2.250   1.748   8.668 -0.5898 -0.2959 -0.2564
19702SOL    HW260846   2.319   1.700   8.542 -0.3644  0.0854 -0.2789
19703SOL     OW60847   0.987   6.170   0.560 -0.4479  0.1068 -0.6946
19703SOL    HW160848   0.940   6.180   0.643 -0.3720  0.8016 -0.7234
19703SOL    HW260849   1.076   6.200   0.579  0.3076 -2.1508 -0.3791
19704SOL     OW60850   6.621   1.050   6.730 -0.5320 -0.0211  0.3668
19704SOL    HW160851   6.564   0.991   6.680 -1.2843 -0.1785  1.3767
19704SOL    HW260852   6.624   1.130   6.679 -0.8096 -0.3742 -0.2147
19705SOL     OW60853   3.029   8.484   2.729 -0.3654  0.0823  0.0756
19705SOL    HW160854   3.089   8.418   2.762 -0.5353 -0.3264 -0.4254
19705SOL    HW260855   3.075   8.522   2.654  0.0426  1.0444  0.7868
19706SOL     OW60856   2.056   5.737   8.500  0.3560 -0.2500 -0.2774
19706SOL    HW160857   2.013   5.822   8.509 -0.8639 -0.9041  0.2063
19706SOL    HW260858   2.119   5.750   8.429 -0.8860  0.6418 -1.2679
19707SOL     OW60859   7.369   7.695   1.169  0.5011 -0.1555  0.0058
19707SOL    HW160860   7.320   7.630   1.219 -0.3383  0.3741 -0.1062
19707SOL    HW260861   7.351   7.674   1.077  1.2003 -0.4903 -0.0638
19708SOL     OW60862   5.080   7.232   2.903  0.0792 -0.4340  0.0127
19708SOL    HW160863   5.150   7.239   2.968  0.1049 -1.2694  0.0775
19708SOL    HW260864   5.057   7.323   2.885  1.4668 -0.1179 -0.3221
19709SOL     OW60865   7.007   3.613   1.647 -0.0981  0.3074  0.1628
19709SOL    HW160866   7.022   3.629   1.554 -0.6183  0.7738  0.1530
19709SOL    HW260867   6.959   3.530   1.650 -0.0992  0.3027  0.0171
19710SOL     OW60868   5.100   2.396   4.385 -0.5481 -0.1431  0.1663
19710SOL    HW160869   5.142   2.375   4.302 -0.5464 -0.5198  0.2570
19710SOL    HW260870   5.172   2.394   4.449 -0.5033  0.4138  0.1366
19711SOL     OW60871   5.994   7.566   3.936  0.2640 -0.7727  0.1876
19711SOL    HW160872   5.906   7.534   3.955  0.2826 -2.0593 -1.6568
19711SOL    HW260873   6.019   7.614   4.015 -2.4609  0.5393  0.3800
19712SOL     OW60874   8.601   8.424   7.331 -0.5407  0.2972  0.4721
19712SOL    HW160875   8.526   8.413   7.391 -0.2919 -0.1454  0.7029
19712SOL    HW260876   8.576   8.498   7.276 -1.1667  0.1360  0.5289
19713SOL     OW60877   0.561   5.783   9.152 -0.1243  0.4214  0.3377
19713SOL    HW160878   0.524   5.741   9.074 -1.3168 -0.7336  1.4761
19713SOL    HW260879   0.496   5.849   9.177  0.4597  1.0846  0.1114
19714SOL     OW60880   4.276   2.896   8.932  0.1232 -0.2648  0.4769
19714SOL    HW160881   4.242   2.809   8.913  0.2955  0.0236 -1.3367
19714SOL    HW260882   4.200   2.945   8.964  0.0903 -1.1301  1.8138
19715SOL     OW60883   1.030   9.480   3.111  0.2196  0.0756 -0.3299
19715SOL    HW160884   1.055   9.436   3.029  0.2866 -1.6548  0.5596
19715SOL    HW260885   0.984   9.412   3.160 -1.0663  1.5108  0.4931
19716SOL     OW60886   8.576   4.729   2.556 -0.0308  0.3299  0.2085
19716SOL    HW160887   8.485   4.720   2.584 -0.3235 -2.0814 -1.1529
19716SOL    HW260888   8.579   4.686   2.470  2.1256  1.5732 -0.4295
19717SOL     OW60889   3.109   0.931   1.529 -0.2011  0.1470  0.4680
19717SOL    HW160890   3.042   0.908   1.594  0.1786  0.7411  1.0888
19717SOL    HW260891   3.176   0.977   1.580  0.6529 -0.3866 -0.1516
19718SOL     OW60892   2.771   9.086   4.251  0.3180 -0.1309 -0.3129
19718SOL    HW160893   2.786   9.136   4.331 -2.0532  0.6941 -0.3179
19718SOL    HW260894   2.719   9.011   4.278 -1.4945  0.7533 -1.1807
19719SOL     OW60895   2.742   8.768   4.803 -0.3449  0.3827 -0.8297
19719SOL    HW160896   2.660   8.743   4.845  0.2585 -0.2758 -0.0145
19719SOL    HW260897   2.723   8.763   4.709 -1.9233  2.5709 -0.7186
19720SOL     OW60898   3.056   6.749   9.272 -0.5867 -0.3348  0.3628
19720SOL    HW160899   2.974   6.720   9.313  0.3219 -1.3802  1.4938
19720SOL    HW260900   3.045   6.844   9.263 -1.7374 -0.3877  0.9283
19721SOL     OW60901   8.937   8.136   8.697  0.1650 -0.1730 -0.5102
19721SOL    HW160902   8.899   8.058   8.738 -1.0313  1.0389  0.7992
19721SOL    HW260903   8.955   8.110   8.607  0.1411 -2.0641 -0.0142
19722SOL     OW60904   2.283   2.681   8.408 -0.0718 -0.2176  0.1820
19722SOL    HW160905   2.211   2.621   8.429 -0.8953  0.6802 -0.0417
19722SOL    HW260906   2.344   2.627   8.357 -0.9194 -0.7995 -0.2485
19723SOL     OW60907   9.166   2.086   5.365 -0.2110 -0.4163  0.2812
19723SOL    HW160908   9.106   2.059   5.296  0.4920 -0.2933 -0.3890
19723SOL    HW260909   9.218   2.155   5.325 -0.2515  0.1345  1.1548
19724SOL     OW60910   7.873   4.339   8.245 -0.2427  0.2556  0.0969
19724SOL    HW160911   7.889   4.422   8.200 -0.0940 -0.4444 -1.1953
19724SOL    HW260912   7.779   4.324   8.234 -0.0807 -0.2804 -0.6759
19725SOL     OW60913   4.643   6.692   8.265  0.1994 -0.0540 -0.1296
19725SOL    HW160914   4.661   6.736   8.182 -0.6882  0.7705  0.0996
19725SOL    HW260915   4.589   6.754   8.314 -2.8704 -2.1600 -0.5910
19726SOL     OW60916   7.750   5.565   9.529  0.1016 -0.4027  0.2541
19726SOL    HW160917   7.713   5.522   9.606 -0.1917 -1.5982 -0.5246
19726SOL    HW260918   7.725   5.508   9.455  0.8289  0.4240 -0.6588
19727SOL     OW60919   2.572   9.082   3.082 -0.4834 -0.6402  0.1021
19727SOL    HW160920   2.515   9.155   3.058 -1.1573 -1.1805  0.0206
19727SOL    HW260921   2.631   9.074   3.007 -0.0686  0.1393  0.3346
19728SOL     OW60922   2.518   1.881   0.724  0.4040 -0.8382 -0.3496
19728SOL    HW160923   2.454   1.907   0.658  1.2314 -0.1083 -0.8873
19728SOL    HW260924   2.474   1.894   0.808 -0.6300 -1.6986 -0.7461
19729SOL     OW60925   4.439   7.206   4.742  0.5119 -0.0802  0.1854
19729SOL    HW160926   4.507   7.187   4.807  0.4651 -1.5664 -0.1554
19729SOL    HW260927   4.457   7.295   4.713  0.0588  0.9543  2.8036
19730SOL     OW60928   2.578   7.674   8.673 -0.0807 -0.6305 -0.3101
19730SOL    HW160929   2.572   7.765   8.645  0.9717 -0.8534 -1.3416
19730SOL    HW260930   2.593   7.625   8.592  2.3020 -1.3920  0.5097
19731SOL     OW60931   0.595   3.123   5.621 -0.3738  0.2994 -0.1823
19731SOL    HW160932   0.565   3.042   5.580 -0.5448  0.3242 -0.1046
19731SOL    HW260933   0.525   3.186   5.602 -0.0197  0.5575 -0.6659
19732SOL     OW60934   4.884   4.003   0.715  0.0905  0.4424  0.6567
19732SOL    HW160935   4.937   4.024   0.639 -1.3079  0.4478 -0.3543
19732SOL    HW260936   4.937   4.031   0.790  1.3873  0.6558 -0.3154
19733SOL     OW60937   8.319   7.684   5.468  0.6233  0.3600 -0.1819
19733SOL    HW160938   8.327   7.591   5.485  0.6792  0.4685  0.3806
19733SOL    HW260939   8.298   7.689   5.374  1.7528 -0.1679 -0.4839
19734SOL     OW60940   1.775   5.334   1.556  0.3245  0.3372 -1.0115
19734SOL    HW160941   1.711   5.398   1.587  0.1958 -0.7016  1.0013
19734SOL    HW260942   1.860   5.374   1.575  0.2588  0.5603 -1.1802
19735SOL     OW60943   4.877   6.263   5.008 -0.1719 -0.1114 -0.0489
19735SOL    HW160944   4.866   6.339   5.065  0.9512  1.0077 -1.2662
19735SOL    HW260945   4.959   6.223   5.037 -0.2549 -0.2867 -0.0530
19736SOL     OW60946   5.702   1.365   2.977 -0.1087 -0.1474  0.2416
19736SOL    HW160947   5.767   1.433   2.957 -1.0144  0.4221 -0.8787
19736SOL    HW260948   5.662   1.394   3.059  1.9189 -1.1985  1.7015
19737SOL     OW60949   1.990   0.026   9.346  0.4611  0.3899 -0.9546
19737SOL    HW160950   2.019  -0.058   9.381  1.2936  0.2550 -1.8960
19737SOL    HW260951   1.963   0.006   9.256  2.1455  1.3525 -1.7309
19738SOL     OW60952   5.276   1.368   7.622  0.3053  0.6467  0.2343
19738SOL    HW160953   5.221   1.445   7.614  0.0371  0.2921 -2.0378
19738SOL    HW260954   5.363   1.397   7.593 -0.3148 -0.3389 -3.0412
19739SOL     OW60955   7.962   3.582   1.208 -0.4123  0.0314 -0.1848
19739SOL    HW160956   8.006   3.624   1.134 -0.8727  0.1520 -0.3905
19739SOL    HW260957   8.022   3.512   1.234 -0.1167  0.1675 -0.4897
19740SOL     OW60958   9.228   6.262   5.599  0.1075  0.3161  0.0981
19740SOL    HW160959   9.320   6.265   5.626  0.2342  1.1700 -0.4189
19740SOL    HW260960   9.229   6.213   5.516 -0.0692 -0.7453  0.6959
19741SOL     OW60961   4.947   6.264   4.390  0.3067 -0.5806  0.4998
19741SOL    HW160962   4.974   6.356   4.395  0.0129 -0.5158  0.9788
19741SOL    HW260963   4.852   6.268   4.389  0.2952 -0.8785  0.4769
19742SOL     OW60964   5.762   4.361   4.965 -0.0746 -0.2800 -0.3779
19742SOL    HW160965   5.671   4.370   4.993 -0.1787  0.3170 -0.8652
19742SOL    HW260966   5.781   4.444   4.921  0.8242 -0.2549  0.0393
19743SOL     OW60967   7.326   8.185   5.020  0.1463  0.6124  0.7807
19743SOL    HW160968   7.367   8.104   5.051  0.4090  0.2781 -0.3610
19743SOL    HW260969   7.239   8.185   5.061  0.7420  0.5980  2.0887
19744SOL     OW60970   1.939   3.227   3.292 -0.3959  0.0406  0.4676
19744SOL    HW160971   1.958   3.142   3.332 -1.6531  0.4096  1.9582
19744SOL    HW260972   2.016   3.280   3.312  1.3809 -1.2385 -2.2934
19745SOL     OW60973   8.036   5.711   4.769  0.3512  0.2403 -0.3259
19745SOL    HW160974   8.024   5.650   4.697 -0.3605 -2.0740  1.6125
19745SOL    HW260975   8.130   5.706   4.789  0.3096 -0.1622 -0.2300
19746SOL     OW60976   8.034   7.365   5.345 -0.0867  0.4683  0.6369
19746SOL    HW160977   8.120   7.395   5.374 -0.5834  1.5080  1.0879
19746SOL    HW260978   8.008   7.301   5.411  0.6640 -0.4376  0.0728
19747SOL     OW60979   4.424   0.204   4.984  0.6564 -0.2001 -1.0611
19747SOL    HW160980   4.475   0.166   4.912 -1.0438 -0.2905 -2.2876
19747SOL    HW260981   4.482   0.271   5.021  1.5177 -0.0142 -2.6381
19748SOL     OW60982   6.140   4.795   8.247 -0.9037  0.0732 -0.0466
19748SOL    HW160983   6.102   4.878   8.218  0.3557  0.7237  0.1038
19748SOL    HW260984   6.161   4.748   8.167 -2.2926 -0.4390 -0.1325
19749SOL     OW60985   1.325   4.073   1.362  0.1013  0.3501 -0.4219
19749SOL    HW160986   1.419   4.071   1.349  0.0555 -0.2961 -0.6519
19749SOL    HW260987   1.305   3.995   1.414 -0.4233 -0.0155 -1.1634
19750SOL     OW60988   3.297   2.205   2.503 -0.3561  0.0173  0.0262
19750SOL    HW160989   3.274   2.153   2.580  2.0214 -0.4667  0.4908
19750SOL    HW260990   3.333   2.141   2.441 -1.4781  0.5211 -1.2028
19751SOL     OW60991   0.370   8.742   0.708  0.0696  0.2092  0.5400
19751SOL    HW160992   0.320   8.820   0.682  0.2760 -0.2089 -1.2309
19751SOL    HW260993   0.460   8.762   0.682 -0.1044 -1.1470 -1.3658
19752SOL     OW60994   3.743   7.205   2.531  0.0207 -0.2891 -0.0955
19752SOL    HW160995   3.804   7.155   2.586 -0.7926  0.3650  1.4787
19752SOL    HW260996   3.661   7.205   2.580 -0.7411  0.3589 -1.3215
19753SOL     OW60997   3.440   1.481   4.457  0.0560  0.0023 -1.1621
19753SOL    HW160998   3.469   1.567   4.488 -1.0442  0.4202 -1.2504
19753SOL    HW260999   3.440   1.427   4.536  1.0573 -0.0272 -1.1596
19754SOL     OW61000   8.673   2.668   6.466 -0.6066  0.7883  0.1314
19754SOL    HW161001   8.682   2.652   6.560 -0.8189  1.2138  0.2284
19754SOL    HW261002   8.708   2.756   6.453 -0.8557  0.8525 -0.1347
19755SOL     OW61003   0.597   8.981   4.451 -0.0240  0.4477  0.7225
19755SOL    HW161004   0.564   8.922   4.383 -1.3617  1.0827  0.7739
19755SOL    HW261005   0.685   8.949   4.471 -0.0507 -0.4412 -0.4893
19756SOL     OW61006   9.242   5.744   2.868 -0.1583 -1.0601 -0.0249
19756SOL    HW161007   9.167   5.732   2.809 -1.2244  1.1556  0.7527
19756SOL    HW261008   9.222   5.825   2.915  1.9161 -1.3626  1.4973
19757SOL     OW61009   1.862   7.434   1.782  0.0643 -0.2600 -0.3048
19757SOL    HW161010   1.853   7.371   1.710  0.5022 -0.8557  0.1439
19757SOL    HW261011   1.776   7.436   1.823  0.4110 -1.6999  0.5730
19758SOL     OW61012   1.260   1.825   5.220 -0.2579  0.2221 -0.1624
19758SOL    HW161013   1.183   1.823   5.163 -1.4040  0.4970  1.3184
19758SOL    HW261014   1.228   1.862   5.302  0.9308 -1.6772  1.2427
19759SOL     OW61015   7.703   4.054   9.563  0.2487  0.1876 -0.1348
19759SOL    HW161016   7.745   4.069   9.478  1.2855  0.7627  0.4664
19759SOL    HW261017   7.713   3.960   9.578 -1.2201 -0.1999 -1.2864
19760SOL     OW61018   7.697   7.619   4.304 -0.6893 -0.2787 -0.1322
19760SOL    HW161019   7.684   7.588   4.215  0.2129 -0.8160 -0.0911
19760SOL    HW261020   7.656   7.552   4.360 -0.4831 -0.3887 -0.1124
19761SOL     OW61021   2.741   0.893   1.242  0.6871 -0.5109 -0.6424
19761SOL    HW161022   2.803   0.858   1.178  0.3943 -1.0800 -0.6175
19761SOL    HW261023   2.726   0.984   1.213 -0.8871 -1.2800 -2.5165
19762SOL     OW61024   5.063   6.020   0.502  0.1723 -0.3225 -0.2928
19762SOL    HW161025   5.146   6.031   0.455  0.0370 -0.0221 -0.4732
19762SOL    HW261026   5.088   5.993   0.590  0.5041  0.5649 -0.1039
19763SOL     OW61027   1.332   1.761   3.886 -0.4744  0.5510  0.4915
19763SOL    HW161028   1.381   1.694   3.838  0.6761  1.4821  0.2941
19763SOL    HW261029   1.385   1.779   3.963 -0.9899  0.9182  0.7644
19764SOL     OW61030   1.294   6.034   4.560  0.7080  0.2587 -0.3255
19764SOL    HW161031   1.345   6.008   4.637  1.6687 -0.7021 -1.2460
19764SOL    HW261032   1.340   6.111   4.526  0.6053  0.3535 -0.2492
19765SOL     OW61033   5.443   0.985   6.769  0.4072 -0.0330 -0.1670
19765SOL    HW161034   5.431   1.079   6.758  2.0530  0.3492  0.9810
19765SOL    HW261035   5.367   0.946   6.725  0.0462  1.7819 -1.2630
19766SOL     OW61036   2.408   5.842   7.917 -0.1747 -0.4952 -0.6897
19766SOL    HW161037   2.428   5.754   7.950 -0.6904 -0.4319 -0.1966
19766SOL    HW261038   2.406   5.897   7.995 -1.0514 -0.2748 -0.8609
19767SOL     OW61039   2.589   7.055   5.158 -0.5651 -0.0027 -0.3589
19767SOL    HW161040   2.565   7.019   5.243 -1.5577 -0.4248 -0.8044
19767SOL    HW261041   2.514   7.108   5.132 -0.5748 -0.4455 -1.2823
19768SOL     OW61042   0.876   9.394   5.225 -0.5732 -1.0600  0.1833
19768SOL    HW161043   0.898   9.326   5.161  0.0418 -0.1902 -0.5472
19768SOL    HW261044   0.782   9.407   5.215 -0.2953 -0.0782 -1.4307
19769SOL     OW61045   6.809   7.579   4.844 -0.0513  0.0779  0.2146
19769SOL    HW161046   6.824   7.534   4.761 -0.1421  1.0351 -0.3435
19769SOL    HW261047   6.791   7.670   4.819 -0.5224  0.2941  1.2558
19770SOL     OW61048   5.994   3.237   4.055 -0.3887  0.0789  0.0868
19770SOL    HW161049   5.952   3.175   3.995  0.1797 -1.1798  0.9505
19770SOL    HW261050   5.948   3.225   4.138 -0.2376  0.7917  0.2836
19771SOL     OW61051   0.871   6.114   1.645  0.1730 -0.5811  0.4795
19771SOL    HW161052   0.790   6.085   1.603  1.1353 -2.0535 -0.4870
19771SOL    HW261053   0.847   6.132   1.735 -2.0696  3.1231 -0.6568
19772SOL     OW61054   3.486   0.361   7.816  0.2094  0.7590  0.5627
19772SOL    HW161055   3.480   0.448   7.776 -0.0517  1.0369  1.1836
19772SOL    HW261056   3.497   0.378   7.910 -0.2318  0.1231  0.7412
19773SOL     OW61057   6.062   4.537   5.998 -0.2675 -0.0275 -0.1578
19773SOL    HW161058   6.061   4.444   5.977 -0.3559  0.1733 -1.0994
19773SOL    HW261059   6.129   4.545   6.066  0.4362 -0.6498 -0.7506
19774SOL     OW61060   3.986   2.670   2.747 -0.3497  0.8054  0.1044
19774SOL    HW161061   3.996   2.585   2.788 -0.4896  1.7808  2.2920
19774SOL    HW261062   4.043   2.666   2.670  0.1175 -1.0263  0.4949
19775SOL     OW61063   3.494   5.912   1.986 -0.1703 -0.0694  0.1955
19775SOL    HW161064   3.474   6.002   2.012 -0.3574 -0.0130 -0.1469
19775SOL    HW261065   3.587   5.901   2.004 -0.0116  0.3884 -0.3521
19776SOL     OW61066   0.756   6.105   7.275  0.2640  0.0992  0.1101
19776SOL    HW161067   0.743   6.067   7.189  1.4099  0.1800 -0.1115
19776SOL    HW261068   0.841   6.148   7.270  0.3541  0.0969  1.2834
19777SOL     OW61069   4.094   9.251   4.495  0.0853  0.0610  0.1014
19777SOL    HW161070   4.045   9.226   4.573  2.4171  2.3652  2.5247
19777SOL    HW261071   4.064   9.339   4.474  1.5705  0.6447  0.2903
19778SOL     OW61072   5.861   4.840   0.288 -0.9591 -0.2999 -0.1168
19778SOL    HW161073   5.935   4.900   0.277 -0.6118 -0.4534  1.1440
19778SOL    HW261074   5.784   4.893   0.269 -0.6718  0.6524  1.2159
19779SOL     OW61075   6.698   1.138   0.902 -0.0705  0.6774  0.1872
19779SOL    HW161076   6.630   1.206   0.900 -0.8554 -0.0414  1.1390
19779SOL    HW261077   6.670   1.074   0.836  0.6395  1.2456 -0.6712
19780SOL     OW61078   4.589   3.245   6.473  0.5448  0.1994  0.5446
19780SOL    HW161079   4.604   3.246   6.567 -0.4359  0.6046  0.7106
19780SOL    HW261080   4.494   3.246   6.464  0.5249 -2.5327 -0.4260
19781SOL     OW61081   6.877   4.928   8.997 -0.6188  0.2542 -0.1159
19781SOL    HW161082   6.906   4.907   8.908 -0.8954  0.7523 -0.3234
19781SOL    HW261083   6.958   4.943   9.046 -0.3877 -1.3645  0.0709
19782SOL     OW61084   9.280   8.096   3.317 -0.0178  0.3141 -0.1233
19782SOL    HW161085   9.211   8.141   3.367 -0.1595  0.6463 -0.6127
19782SOL    HW261086   9.348   8.163   3.306  1.2990 -0.5603  2.0833
19783SOL     OW61087   1.866   4.210   8.145 -0.0217  0.0713  0.4316
19783SOL    HW161088   1.779   4.172   8.154  0.4171 -1.6797 -1.9104
19783SOL    HW261089   1.925   4.142   8.175  0.6340  0.2645 -0.3894
19784SOL     OW61090   3.135   3.752   8.264 -0.0827 -0.6418 -0.2194
19784SOL    HW161091   3.042   3.728   8.264  0.0407 -1.1337  0.2267
19784SOL    HW261092   3.138   3.835   8.313 -0.0895 -1.4575  1.2036
19785SOL     OW61093   7.264   7.487   7.708  0.2430  0.0523 -0.2255
19785SOL    HW161094   7.331   7.474   7.640 -2.8177 -0.7499 -3.3902
19785SOL    HW261095   7.237   7.398   7.732  1.8376  0.2618  2.9243
19786SOL     OW61096   8.314   0.287   2.773  0.0841 -0.0209  0.7996
19786SOL    HW161097   8.275   0.205   2.745  0.9128  0.5074 -2.2859
19786SOL    HW261098   8.249   0.354   2.751  0.9867  0.4646 -0.5948
19787SOL     OW61099   1.095   5.044   2.968  0.1804  0.4116  0.2143
19787SOL    HW161100   1.183   5.011   2.948 -0.4243 -0.7189 -0.7782
19787SOL    HW261101   1.057   4.977   3.024 -0.0257  0.9390  0.7098
19788SOL     OW61102   4.736   5.943   4.144  0.1154 -0.2126 -0.2431
19788SOL    HW161103   4.719   5.952   4.237  0.5282 -0.6833 -0.1171
19788SOL    HW261104   4.759   5.850   4.132  1.0102  0.0423 -0.6465
19789SOL     OW61105   6.043   7.819   8.379 -0.2236 -0.0548  0.0006
19789SOL    HW161106   6.039   7.808   8.284  1.0361 -1.3206  0.0635
19789SOL    HW261107   5.965   7.871   8.401 -0.5037  0.2826 -1.7141
19790SOL     OW61108   1.972   6.085   6.936 -0.0509 -0.1948  0.1852
19790SOL    HW161109   2.006   6.118   7.019  0.2110 -1.6575  0.6964
19790SOL    HW261110   1.946   6.163   6.888  1.3850  0.7990  0.9409
19791SOL     OW61111   7.670   4.510   9.606 -0.2113  0.3057  0.2973
19791SOL    HW161112   7.734   4.575   9.635 -1.0402  1.7263 -0.8963
19791SOL    HW261113   7.628   4.480   9.687  0.3134  1.1281  0.8972
19792SOL     OW61114   7.872   2.614   6.596  0.1448  0.1946 -0.0899
19792SOL    HW161115   7.867   2.522   6.623 -1.9213  0.3668  0.2540
19792SOL    HW261116   7.954   2.645   6.634  0.1288 -1.1147  1.1045
19793SOL     OW61117   1.830   0.842   9.216 -0.3054  0.0303  0.1082
19793SOL    HW161118   1.826   0.927   9.261  0.0608 -0.4253  1.0179
19793SOL    HW261119   1.918   0.839   9.178 -0.3629  0.1155 -0.0305
19794SOL     OW61120   8.928   7.718   0.944 -0.1393 -0.3542 -0.5808
19794SOL    HW161121   8.989   7.791   0.957  0.3338 -0.6821 -0.9095
19794SOL    HW261122   8.882   7.709   1.027 -1.5142  1.4906 -1.0571
19795SOL     OW61123   5.577   0.991   6.306 -0.9816  0.0449 -0.1078
19795SOL    HW161124   5.503   0.986   6.366 -0.9322  0.0207 -0.0480
19795SOL    HW261125   5.654   0.983   6.363 -0.8955  1.3984 -0.0078
19796SOL     OW61126   4.882   4.782   5.531 -0.7877 -0.4044 -0.5160
19796SOL    HW161127   4.851   4.872   5.521  0.3814  0.1253  0.2806
19796SOL    HW261128   4.898   4.752   5.442  1.5536  1.2490 -0.7740
19797SOL     OW61129   7.501   8.788   5.786 -0.2884 -0.0971  0.4470
19797SOL    HW161130   7.529   8.815   5.698 -0.2070 -0.5178  0.3443
19797SOL    HW261131   7.424   8.734   5.771  0.5545 -1.3598  0.5285
19798SOL     OW61132   1.024   0.813   3.926  0.2980 -0.0429 -0.6551
19798SOL    HW161133   0.949   0.779   3.877  0.9997 -1.2059 -0.9571
19798SOL    HW261134   1.085   0.843   3.858 -0.0510  1.3081 -0.4050
19799SOL     OW61135   0.680   0.196   8.046 -0.4943  0.2884  0.1407
19799SOL    HW161136   0.632   0.252   8.108  2.7556  2.1470  1.2191
19799SOL    HW261137   0.645   0.108   8.062 -4.4212  1.5793 -0.2047
19800SOL     OW61138   3.612   5.495   4.220 -0.3190  0.3927 -0.0026
19800SOL    HW161139   3.691   5.536   4.254 -0.9864  0.1855  1.9414
19800SOL    HW261140   3.548   5.566   4.216 -0.2938  0.3765 -0.6649
19801SOL     OW61141   3.748   7.919   9.190  0.2857  0.1665  0.0458
19801SOL    HW161142   3.739   7.975   9.114  0.3426 -0.8316 -0.7150
19801SOL    HW261143   3.661   7.881   9.204  0.3632  0.0571  0.2446
19802SOL     OW61144   2.896   2.484   6.165 -0.3318  0.2906 -0.3180
19802SOL    HW161145   2.852   2.404   6.137  0.6968 -0.7968  1.0730
19802SOL    HW261146   2.826   2.539   6.201 -0.8124 -0.6502  0.1912
19803SOL     OW61147   3.979   7.316   7.844 -0.2501 -0.1253  0.2614
19803SOL    HW161148   4.068   7.339   7.871 -0.3963  0.6975  0.0665
19803SOL    HW261149   3.941   7.398   7.815 -1.2892 -0.3642  0.9308
19804SOL     OW61150   8.086   3.007   7.157 -0.5946  0.5249  0.1150
19804SOL    HW161151   8.069   2.968   7.071 -0.1668  0.5170  0.0318
19804SOL    HW261152   8.138   2.942   7.203 -1.9840 -0.0838  0.9049
19805SOL     OW61153   1.141   7.296   1.043 -0.0065 -0.4483  0.3112
19805SOL    HW161154   1.198   7.350   1.098 -1.1909  0.8686  0.3184
19805SOL    HW261155   1.057   7.342   1.045 -0.5244 -1.2733 -1.2705
19806SOL     OW61156   6.614   5.734   1.627  0.3972  0.0546  0.1680
19806SOL    HW161157   6.639   5.665   1.688 -1.1306 -1.5982 -0.9427
19806SOL    HW261158   6.523   5.754   1.650  0.3939  0.7263 -0.3897
19807SOL     OW61159   1.423   2.762   0.499  0.5041  0.0789 -0.1565
19807SOL    HW161160   1.501   2.787   0.450  1.3656 -0.4139  0.9035
19807SOL    HW261161   1.352   2.814   0.461  1.6259  1.6823 -0.1407
19808SOL     OW61162   3.666   0.914   3.054  0.6389  0.6703  0.2246
19808SOL    HW161163   3.742   0.970   3.070  0.7581 -0.0085  2.2662
19808SOL    HW261164   3.612   0.923   3.132 -1.8912  1.7970 -1.5134
19809SOL     OW61165   3.454   4.320   1.502  0.0817  0.0137 -0.3681
19809SOL    HW161166   3.412   4.241   1.537  0.8758 -0.5742 -0.7137
19809SOL    HW261167   3.398   4.347   1.430 -0.7807  0.4013  0.4158
19810SOL     OW61168   6.148   1.629   5.950  0.3704 -0.0530  0.0197
19810SOL    HW161169   6.097   1.560   5.908  0.5183  0.3599 -0.8668
19810SOL    HW261170   6.102   1.710   5.927  1.4558  0.3343 -0.8837
19811SOL     OW61171   3.104   2.299   0.899  0.4408 -0.4882 -0.1662
19811SOL    HW161172   3.126   2.219   0.851 -1.5454 -0.2466 -1.6065
19811SOL    HW261173   3.009   2.295   0.909  0.3561  1.4728  0.1633
19812SOL     OW61174   6.120   4.409   8.573 -0.0184 -0.0250  0.2186
19812SOL    HW161175   6.210   4.386   8.548  0.4721  1.4408  0.5283
19812SOL    HW261176   6.094   4.476   8.511  0.5717  2.3938  2.3922
19813SOL     OW61177   3.338   2.073   5.798 -0.0042  0.1268 -0.2466
19813SOL    HW161178   3.340   1.982   5.770 -1.9331  0.4115 -1.4826
19813SOL    HW261179   3.376   2.072   5.886  0.0042 -1.8561 -0.2320
19814SOL     OW61180   6.372   4.527   5.497  0.2214 -0.4469  0.2777
19814SOL    HW161181   6.408   4.489   5.578  1.9751 -0.1367 -0.3198
19814SOL    HW261182   6.374   4.621   5.513 -0.0437 -0.4116  0.1042
19815SOL     OW61183   6.814   3.531   2.217 -0.3243  0.3296  0.4116
19815SOL    HW161184   6.890   3.588   2.224  0.3314 -0.6644  1.8704
19815SOL    HW261185   6.750   3.583   2.168  0.9768  1.4971 -0.1287
19816SOL     OW61186   7.554   7.994   4.847  0.8500  0.4201  0.4839
19816SOL    HW161187   7.618   8.049   4.802 -0.1305  1.0621 -0.1732
19816SOL    HW261188   7.551   8.029   4.936 -0.2337  1.9081 -0.0954
19817SOL     OW61189   4.417   1.620   3.597  0.0084  0.0352 -0.3581
19817SOL    HW161190   4.415   1.557   3.526  4.7836 -0.1177 -0.6443
19817SOL    HW261191   4.376   1.699   3.561  1.6541 -0.2640 -3.1076
19818SOL     OW61192   0.771   6.694   5.373 -0.4986 -0.1599  0.4154
19818SOL    HW161193   0.851   6.704   5.321 -1.4281 -0.1292 -1.0643
19818SOL    HW261194   0.756   6.780   5.411 -0.6996  0.2788 -0.6355
19819SOL     OW61195   8.644   0.847   5.679  0.2253 -0.5903 -0.1589
19819SOL    HW161196   8.669   0.841   5.587  0.7575 -0.6816 -0.0120
19819SOL    HW261197   8.578   0.917   5.682  1.7770  0.9360 -0.2940
19820SOL     OW61198   3.561   0.260   9.424 -0.4639  0.9332 -0.2946
19820SOL    HW161199   3.590   0.286   9.511  0.6467 -0.1080 -0.3336
19820SOL    HW261200   3.465   0.263   9.429 -0.4202  2.6630  0.3866
19821SOL     OW61201   2.224   5.725   1.058 -0.4592 -0.2515 -0.1176
19821SOL    HW161202   2.267   5.782   0.995 -1.7563  1.1121  0.1782
19821SOL    HW261203   2.143   5.697   1.014 -1.3843  0.7263  0.9058
19822SOL     OW61204   9.531   7.264   0.858 -0.6566 -0.5314 -0.2523
19822SOL    HW161205   9.438   7.253   0.836 -0.6430 -0.3858 -0.3829
19822SOL    HW261206   9.550   7.192   0.918 -1.1749  0.1620  0.7725
19823SOL     OW61207   7.259   4.508   8.852  0.0054  0.5111  0.8582
19823SOL    HW161208   7.354   4.510   8.840 -0.0911  0.2009 -0.0660
19823SOL    HW261209   7.226   4.569   8.786 -0.5543 -1.1590 -0.4898
19824SOL     OW61210   6.301   0.649   7.760 -0.0339  0.3525 -0.2228
19824SOL    HW161211   6.300   0.743   7.746 -0.4143  0.1971 -1.3178
19824SOL    HW261212   6.215   0.630   7.799 -0.8375  0.2031 -1.9677
19825SOL     OW61213   2.346   0.730   2.729  0.5151 -0.3107  0.0233
19825SOL    HW161214   2.335   0.772   2.644 -0.3650 -3.1755 -1.4297
19825SOL    HW261215   2.440   0.732   2.745  0.7548 -0.1419 -1.2912
19826SOL     OW61216   5.038   6.137   1.250 -0.0902  0.1097 -0.6206
19826SOL    HW161217   4.948   6.166   1.236 -0.2450 -0.1936 -0.2749
19826SOL    HW261218   5.037   6.098   1.338  0.5542  0.8073 -0.2919
19827SOL     OW61219   3.431   5.290   8.401 -0.0125  0.2396  0.2177
19827SOL    HW161220   3.412   5.378   8.369 -1.1625  0.9403  2.6320
19827SOL    HW261221   3.354   5.238   8.379  0.2161  0.0895 -0.2498
19828SOL     OW61222   9.057   0.838   2.621 -0.0890  0.3873 -0.4190
19828SOL    HW161223   9.043   0.762   2.678  1.4537  0.2220 -0.2319
19828SOL    HW261224   9.059   0.801   2.532  1.6394  0.0209 -0.2669
19829SOL     OW61225   8.103   4.129   2.320 -0.9085 -0.4700 -0.3919
19829SOL    HW161226   8.019   4.103   2.358 -0.1063 -0.7592  1.2486
19829SOL    HW261227   8.081   4.200   2.260 -2.1314  0.7457  1.3941
19830SOL     OW61228   6.796   2.041   1.007  0.1790  0.4595 -0.0042
19830SOL    HW161229   6.859   1.998   1.065 -1.2055 -0.9551  0.5278
19830SOL    HW261230   6.770   1.972   0.945 -1.5020  0.7251  0.3708
19831SOL     OW61231   8.453   9.387   5.054 -0.0030 -0.2755 -0.2929
19831SOL    HW161232   8.372   9.344   5.026 -1.3963  2.0630 -0.0575
19831SOL    HW261233   8.451   9.472   5.011  2.5397 -0.2736 -0.5405
19832SOL     OW61234   5.632   3.929   5.841 -0.4382 -0.0843  0.2734
19832SOL    HW161235   5.562   3.936   5.906  1.4811  2.1280  2.2784
19832SOL    HW261236   5.627   3.839   5.810 -1.8161 -1.1091  3.1318
19833SOL     OW61237   9.280   2.949   7.318  0.6703 -0.4608  0.0875
19833SOL    HW161238   9.235   3.010   7.259  1.7143 -0.2316 -0.4956
19833SOL    HW261239   9.286   2.996   7.401 -0.6440 -0.7119  0.3537
19834SOL     OW61240   0.438   2.855   4.906 -0.0301  0.2701  0.4959
19834SOL    HW161241   0.504   2.847   4.838  0.0286 -0.4911  0.6389
19834SOL    HW261242   0.395   2.939   4.888 -0.0747  0.0393 -0.5327
19835SOL     OW61243   0.502   2.985   1.834  0.4456 -0.4071  0.1090
19835SOL    HW161244   0.596   2.967   1.832  0.0180 -2.9889 -1.4515
19835SOL    HW261245   0.463   2.906   1.871 -1.2595 -0.4753 -1.6570
19836SOL     OW61246   8.986   6.776   6.766 -0.0379  0.4548 -0.3577
19836SOL    HW161247   8.937   6.755   6.686 -1.7833  2.5037  0.0749
19836SOL    HW261248   8.990   6.694   6.814  0.2740 -0.6168 -2.1238
19837SOL     OW61249   5.599   2.777   2.157  0.2763 -0.2743 -0.4811
19837SOL    HW161250   5.620   2.836   2.230 -2.3279  0.5073 -0.2476
19837SOL    HW261251   5.668   2.710   2.159  1.4670  0.9260  1.3355
19838SOL     OW61252   8.200   8.875   5.519 -0.0961  0.4619  0.1047
19838SOL    HW161253   8.201   8.861   5.613 -0.9882 -0.1655  0.0357
19838SOL    HW261254   8.229   8.791   5.482  0.2664  0.7096 -0.1770
19839SOL     OW61255   6.934   4.625   1.628  0.5768 -0.6308 -0.4749
19839SOL    HW161256   6.886   4.549   1.594 -0.5853  0.1529 -0.6694
19839SOL    HW261257   6.918   4.694   1.563 -0.0964  0.3530  0.6933
19840SOL     OW61258   1.233   1.675   2.294  0.1860 -0.4151  0.6537
19840SOL    HW161259   1.296   1.725   2.241  0.4009 -1.3223  0.0225
19840SOL    HW261260   1.149   1.691   2.252 -0.0203  0.7560  1.4661
19841SOL     OW61261   9.319   8.856   9.120 -0.3529 -0.3074 -0.0862
19841SOL    HW161262   9.274   8.842   9.037  1.1512  0.1647 -1.0192
19841SOL    HW261263   9.317   8.771   9.164 -0.5349 -0.7419 -0.9297
19842SOL     OW61264   0.643   1.247   9.182 -0.0380  0.1683  0.0723
19842SOL    HW161265   0.593   1.234   9.262 -0.2791  1.2575  0.1176
19842SOL    HW261266   0.598   1.194   9.117 -0.5022  0.1404  0.4128
19843SOL     OW61267   6.718   6.226   1.878  0.1935  0.3815  0.1515
19843SOL    HW161268   6.773   6.261   1.808 -2.0342  0.8289 -1.4849
19843SOL    HW261269   6.719   6.131   1.864  0.7604  0.3595  0.3196
19844SOL     OW61270   4.393   8.254   4.038 -0.1051  0.5422  0.2507
19844SOL    HW161271   4.455   8.213   4.099 -0.9529  0.4978  1.1137
19844SOL    HW261272   4.437   8.334   4.011  0.5981  0.2025  0.3504
19845SOL     OW61273   7.292   7.807   0.415 -0.2464  0.0878 -0.2722
19845SOL    HW161274   7.233   7.856   0.473 -0.1470  0.3204 -0.3648
19845SOL    HW261275   7.243   7.730   0.389 -1.2490  1.2186 -1.8960
19846SOL     OW61276   4.550   7.563   8.673  0.5801 -0.2215 -0.4835
19846SOL    HW161277   4.529   7.643   8.625 -0.2894 -0.0470  0.1613
19846SOL    HW261278   4.634   7.534   8.636  1.5762  1.6852  0.1585
19847SOL     OW61279   6.203   8.393   0.975  0.2014  0.0407  0.2111
19847SOL    HW161280   6.178   8.425   1.062  0.6264 -0.1411  0.4058
19847SOL    HW261281   6.265   8.322   0.993  3.4043  2.5059 -0.2360
19848SOL     OW61282   3.365   3.834   9.542 -0.7901  0.0799 -0.2033
19848SOL    HW161283   3.406   3.852   9.458 -0.8719 -0.0969 -0.2827
19848SOL    HW261284   3.410   3.756   9.574 -1.6208 -0.6089 -0.6744
19849SOL     OW61285   8.263   4.359   0.532 -0.5086  0.5277 -0.0069
19849SOL    HW161286   8.236   4.291   0.470 -1.6550  0.0116  1.0277
19849SOL    HW261287   8.358   4.368   0.517 -0.6235 -0.1109 -1.2990
19850SOL     OW61288   3.210   4.783   2.413  0.0694 -0.3810  0.1360
19850SOL    HW161289   3.224   4.693   2.443  0.6634  0.1343  1.4932
19850SOL    HW261290   3.123   4.807   2.446  1.0408  0.4574  2.3087
19851SOL     OW61291   2.726   2.451   4.424 -0.1641  0.2829 -0.2420
19851SOL    HW161292   2.772   2.424   4.503 -1.0867 -1.9177 -0.4115
19851SOL    HW261293   2.714   2.546   4.434  0.6183  0.2015  1.7504
19852SOL     OW61294   7.466   3.187   7.599  0.1541  0.3168  0.0454
19852SOL    HW161295   7.506   3.242   7.666  1.0843 -1.4688  0.9956
19852SOL    HW261296   7.372   3.197   7.614  0.3422 -0.0874  1.6585
19853SOL     OW61297   3.412   3.264   5.876  0.5145 -0.5045  0.0786
19853SOL    HW161298   3.442   3.251   5.966  1.8024 -0.2925 -0.3095
19853SOL    HW261299   3.317   3.276   5.884  0.7758  0.8033  1.5324
19854SOL     OW61300   5.729   2.840   7.815 -0.0114  0.1261  0.3059
19854SOL    HW161301   5.788   2.815   7.885 -0.5362  2.5410  1.7099
19854SOL    HW261302   5.689   2.921   7.845 -1.5368  0.3448 -2.0677
19855SOL     OW61303   6.212   7.930   0.168 -0.4742  0.0156  0.1313
19855SOL    HW161304   6.117   7.920   0.163 -0.5376  0.6007  0.0386
19855SOL    HW261305   6.228   8.016   0.129  0.1629 -0.3775 -0.4971
19856SOL     OW61306   5.192   4.384   8.275 -0.2352 -0.1179  0.3060
19856SOL    HW161307   5.226   4.297   8.295 -2.6919 -0.9189  1.4481
19856SOL    HW261308   5.157   4.377   8.186 -1.1439 -0.5820  0.6854
19857SOL     OW61309   0.751   9.093   1.070  0.0055 -0.2994  0.3995
19857SOL    HW161310   0.682   9.026   1.069 -0.8744  0.5480  1.3954
19857SOL    HW261311   0.720   9.157   1.134  0.3183  1.5834 -1.2336
19858SOL     OW61312   3.254   2.413   2.136 -0.3383  0.3520 -0.6093
19858SOL    HW161313   3.267   2.450   2.223  1.6374  0.2603 -0.8248
19858SOL    HW261314   3.268   2.487   2.076  3.0676 -0.4852 -1.0158
19859SOL     OW61315   0.118   0.030   5.616  0.1672  0.1471  0.6801
19859SOL    HW161316   0.189   0.088   5.641  0.6246  0.0399 -0.3206
19859SOL    HW261317   0.087   0.063   5.532 -0.5209 -0.2103  0.7750
19860SOL     OW61318   4.405   3.041   1.124 -0.2535  0.5601  0.0056
19860SOL    HW161319   4.451   2.959   1.108 -1.7191 -0.2696 -0.1260
19860SOL    HW261320   4.363   3.062   1.041 -3.1902 -0.7519  0.9837
19861SOL     OW61321   4.622   0.843   3.608 -0.2451 -0.6634  0.9475
19861SOL    HW161322   4.689   0.844   3.540 -2.4237 -2.2039 -1.4084
19861SOL    HW261323   4.649   0.773   3.668  1.2077  0.0582  1.1685
19862SOL     OW61324   8.928   8.467   2.655 -0.3851 -0.0046 -0.3872
19862SOL    HW161325   8.859   8.402   2.644 -0.6379  0.3547 -0.9659
19862SOL    HW261326   8.896   8.524   2.725  0.0045 -0.7078  0.3829
19863SOL     OW61327   7.669   7.639   7.359  0.4785  0.1606  0.2630
19863SOL    HW161328   7.738   7.590   7.404  0.1096 -0.9625 -0.3621
19863SOL    HW261329   7.633   7.577   7.295 -1.3125  0.6343  0.7648
19864SOL     OW61330   9.329   8.718   6.548  0.6705 -0.7040 -0.6913
19864SOL    HW161331   9.385   8.719   6.470  1.7200  1.0306  0.0289
19864SOL    HW261332   9.296   8.807   6.555  1.2832 -0.5940  1.3165
19865SOL     OW61333   2.278   8.595   9.323 -0.7402  0.3357  0.2211
19865SOL    HW161334   2.221   8.587   9.246 -0.3499 -0.2469 -0.0161
19865SOL    HW261335   2.361   8.628   9.288 -0.3946 -0.4176  0.3015
19866SOL     OW61336   4.688   8.197   2.025  0.3761 -0.2057 -0.0531
19866SOL    HW161337   4.752   8.127   2.013  0.5607 -0.7203  3.0668
19866SOL    HW261338   4.618   8.157   2.077  0.3875  1.8126  1.6634
19867SOL     OW61339   4.963   1.954   3.254  0.5533 -0.0418  0.4298
19867SOL    HW161340   4.970   2.013   3.329  2.6115 -0.9715  1.0349
19867SOL    HW261341   4.973   2.012   3.178 -0.6172  0.7776  0.8664
19868SOL     OW61342   2.569   8.341   5.292  0.1009  0.0233 -0.0258
19868SOL    HW161343   2.547   8.325   5.200 -0.1154 -0.2444  0.0703
19868SOL    HW261344   2.497   8.302   5.341  1.2852 -1.8630  0.3444
19869SOL     OW61345   2.420   6.652   3.347  0.1186  0.1421  0.7523
19869SOL    HW161346   2.459   6.649   3.434 -0.5701 -1.0029  1.0546
19869SOL    HW261347   2.493   6.668   3.288  0.5677  1.1050  1.5444
19870SOL     OW61348   9.463   2.952   6.430  0.1182  0.2910  0.1561
19870SOL    HW161349   9.421   2.869   6.450 -1.3904  0.5249 -1.7148
19870SOL    HW261350   9.407   2.992   6.364  0.5836  2.9974  1.2667
19871SOL     OW61351   0.360   8.433   2.838  0.0715 -0.1232 -0.2615
19871SOL    HW161352   0.383   8.340   2.834 -1.8123 -0.7007  1.0089
19871SOL    HW261353   0.441   8.477   2.866  1.1152 -1.2773 -1.3211
19872SOL     OW61354   6.383   4.601   8.292 -0.1845 -0.4532 -0.4146
19872SOL    HW161355   6.416   4.601   8.202 -0.5287  0.3097 -0.5496
19872SOL    HW261356   6.301   4.550   8.288 -0.0779 -0.6198 -0.4829
19873SOL     OW61357   3.843   4.578   3.600  0.0461  0.1696  0.7254
19873SOL    HW161358   3.866   4.541   3.685  2.2914  1.2592  0.6917
19873SOL    HW261359   3.905   4.537   3.539 -0.0498  1.0430  0.0256
19874SOL     OW61360   4.726   1.497   8.816 -0.3650 -0.4214 -0.8608
19874SOL    HW161361   4.708   1.591   8.819  2.2462  0.1694 -1.2079
19874SOL    HW261362   4.653   1.457   8.864 -0.5206  1.9435  1.0785
19875SOL     OW61363   0.410   8.142   3.585 -0.4334 -0.1350 -0.2121
19875SOL    HW161364   0.385   8.163   3.495  0.7819  0.1866 -0.4951
19875SOL    HW261365   0.498   8.178   3.594 -1.0360  0.9964  1.5295
19876SOL     OW61366   4.403   3.566   3.666 -0.2435  0.1221 -0.3424
19876SOL    HW161367   4.477   3.604   3.619  0.3886  0.0960  0.6305
19876SOL    HW261368   4.395   3.477   3.630 -2.3232  1.3568 -3.3308
19877SOL     OW61369   5.029   2.074   4.449  0.0134  0.0725 -0.5169
19877SOL    HW161370   5.019   1.984   4.418  0.7105  0.4148 -1.7944
19877SOL    HW261371   5.119   2.097   4.426 -0.6653  1.6607 -1.7530
19878SOL     OW61372   7.093   3.776   4.085  0.6963 -0.3135 -0.0118
19878SOL    HW161373   7.111   3.684   4.065 -1.0523  0.0435 -4.3008
19878SOL    HW261374   7.025   3.773   4.152  0.6448 -2.1455 -0.0943
19879SOL     OW61375   4.724   7.143   6.442  0.5794  0.0369 -0.2316
19879SOL    HW161376   4.792   7.210   6.429  1.5974 -0.6230  1.3189
19879SOL    HW261377   4.652   7.170   6.386  1.5251  1.6394 -0.7370
19880SOL     OW61378   6.233   0.306   1.907 -0.2608 -0.1609  0.0895
19880SOL    HW161379   6.244   0.361   1.985 -0.9065 -0.7137  0.5898
19880SOL    HW261380   6.265   0.220   1.935 -1.3484 -0.5896  0.0381
19881SOL     OW61381   3.340   6.664   6.621  0.2345 -0.0131 -0.1149
19881SOL    HW161382   3.260   6.611   6.625  0.7987 -0.8901 -0.2823
19881SOL    HW261383   3.329   6.718   6.543  0.0878 -0.6042 -0.5105
19882SOL     OW61384   3.441   0.548   7.117 -0.1256  0.1814  0.9664
19882SOL    HW161385   3.488   0.486   7.062 -1.4690 -0.1950  0.2006
19882SOL    HW261386   3.510   0.594   7.165  1.0890  0.3946 -0.8763
19883SOL     OW61387   8.550   9.349   5.641  0.0186  0.5033  0.0907
19883SOL    HW161388   8.550   9.278   5.577 -0.0053  1.6039 -1.1912
19883SOL    HW261389   8.463   9.347   5.680 -0.0319 -0.0660 -0.0422
19884SOL     OW61390   3.997   3.673   5.735  0.1745 -0.0876  0.5068
19884SOL    HW161391   3.996   3.680   5.640  1.3509  0.7276  0.5479
19884SOL    HW261392   4.079   3.629   5.755  1.2127  2.0877  1.2723
19885SOL     OW61393   8.773   6.641   2.305  0.0751 -0.4536 -0.6147
19885SOL    HW161394   8.751   6.622   2.396 -1.1271 -0.5080 -0.9056
19885SOL    HW261395   8.859   6.601   2.293 -0.5198 -1.9924 -0.0062
19886SOL     OW61396   4.636   2.654   9.107 -0.2565  0.1580  0.2497
19886SOL    HW161397   4.612   2.606   9.186  0.1576 -0.7103 -0.1409
19886SOL    HW261398   4.607   2.744   9.124 -0.1220 -0.0033  1.4057
19887SOL     OW61399   2.823   0.502   1.434  0.1898  0.5083 -0.5827
19887SOL    HW161400   2.831   0.535   1.344  0.3587 -0.9288 -1.1234
19887SOL    HW261401   2.911   0.512   1.471  0.0511  1.3686 -0.4769
19888SOL     OW61402   7.976   4.664   1.613  0.1646  0.3530 -0.5150
19888SOL    HW161403   7.998   4.757   1.618 -0.2196  0.4502 -0.5541
19888SOL    HW261404   8.060   4.619   1.606  0.3417  0.7096 -0.6927
19889SOL     OW61405   2.371   7.625   5.326  0.2798 -0.5656 -0.2542
19889SOL    HW161406   2.363   7.549   5.384  3.8173  0.5466  2.0360
19889SOL    HW261407   2.463   7.624   5.298 -0.4856  0.9203 -3.1187
19890SOL     OW61408   8.192   6.188   3.378 -0.0330  0.3001 -0.2136
19890SOL    HW161409   8.149   6.261   3.422 -1.2851 -0.6133  0.1412
19890SOL    HW261410   8.120   6.132   3.347  0.8698 -0.3797 -1.1820
19891SOL     OW61411   0.500   7.135   5.494  0.1642 -0.5315 -0.1793
19891SOL    HW161412   0.411   7.108   5.472  0.2828 -1.4437  0.4139
19891SOL    HW261413   0.524   7.081   5.570  0.5569  0.9871  0.8307
19892SOL     OW61414   7.341   0.963   4.916  0.0632 -0.1443 -0.5398
19892SOL    HW161415   7.253   0.957   4.879 -0.0884 -0.4623 -0.1363
19892SOL    HW261416   7.336   1.037   4.977 -0.0129 -0.3560 -0.2866
19893SOL     OW61417   1.544   5.074   3.274  0.6823 -0.6120 -0.1314
19893SOL    HW161418   1.534   5.157   3.322  2.6080 -0.0422 -0.6321
19893SOL    HW261419   1.631   5.043   3.299  0.1230 -2.3287 -0.2351
19894SOL     OW61420   8.905   5.726   6.647 -0.2049  0.8660 -0.1041
19894SOL    HW161421   8.884   5.634   6.627 -1.4665  1.0767  0.1828
19894SOL    HW261422   9.000   5.725   6.662 -0.1283 -0.3186 -0.4916
19895SOL     OW61423   3.916   2.763   3.616  0.2277 -0.5275  0.0164
19895SOL    HW161424   3.833   2.717   3.605  1.1115 -2.1974  0.0309
19895SOL    HW261425   3.963   2.713   3.683  1.2293  0.4228  0.0600
19896SOL     OW61426   3.822   7.737   4.793 -0.9738 -0.0389  0.9305
19896SOL    HW161427   3.885   7.784   4.848 -0.0829 -1.1988  0.9450
19896SOL    HW261428   3.767   7.690   4.856 -0.4600 -0.7333  0.8789
19897SOL     OW61429   6.333   7.620   6.638  0.4452 -0.0657 -0.0950
19897SOL    HW161430   6.341   7.527   6.616 -0.9126 -0.1487 -0.3754
19897SOL    HW261431   6.254   7.624   6.693 -0.7707  1.1538 -1.8286
19898SOL     OW61432   5.664   3.458   9.049 -0.2257 -0.1549 -0.5275
19898SOL    HW161433   5.610   3.380   9.054 -0.0992 -0.1714  1.3212
19898SOL    HW261434   5.750   3.426   9.021 -0.9962 -0.1642 -3.1904
19899SOL     OW61435   6.373   7.370   6.625 -0.0027  0.3395 -0.4676
19899SOL    HW161436   6.453   7.341   6.669  0.1105  0.5421 -0.5400
19899SOL    HW261437   6.305   7.311   6.659  0.0616  0.5673  0.0672
19900SOL     OW61438   2.378   7.943   4.646  0.0465 -0.1180 -0.4212
19900SOL    HW161439   2.460   7.895   4.654  0.4904  0.6696 -0.0582
19900SOL    HW261440   2.346   7.950   4.736 -0.0279  0.2276 -0.4727
19901SOL     OW61441   3.492   4.333   8.363 -0.0677  0.0384  0.1349
19901SOL    HW161442   3.562   4.268   8.371  0.4274  0.5706  0.1473
19901SOL    HW261443   3.531   4.405   8.314 -1.2459 -0.5569 -1.7602
19902SOL     OW61444   4.144   8.092   5.946 -0.1066 -0.0766 -0.2794
19902SOL    HW161445   4.176   8.042   6.022  2.1366 -0.6742 -1.5179
19902SOL    HW261446   4.117   8.026   5.883 -0.1031  0.3620 -0.7471
19903SOL     OW61447   6.992   4.489   0.244  0.0425 -0.8318  0.0373
19903SOL    HW161448   6.994   4.425   0.174 -0.8836  1.4431 -2.2339
19903SOL    HW261449   7.083   4.520   0.251 -0.1401  0.1584 -1.4661
19904SOL     OW61450   7.720   3.064   8.893  0.1196  0.3474  0.1352
19904SOL    HW161451   7.753   2.990   8.841 -0.9798  0.0772 -0.2065
19904SOL    HW261452   7.733   3.036   8.984 -0.9134 -0.5911  0.0207
19905SOL     OW61453   3.599   4.312   2.536 -0.0086 -0.1701  0.6557
19905SOL    HW161454   3.554   4.397   2.537  0.0891 -0.0902 -0.5099
19905SOL    HW261455   3.529   4.247   2.543 -0.2912 -0.0372 -0.7790
19906SOL     OW61456   7.854   6.603   1.426 -0.4992 -0.6429 -0.2327
19906SOL    HW161457   7.920   6.672   1.429 -1.1602  0.2000 -2.7492
19906SOL    HW261458   7.899   6.526   1.460  1.3067  0.2433 -0.4659
19907SOL     OW61459   6.132   5.550   1.490  0.1050  0.1129  0.0698
19907SOL    HW161460   6.135   5.559   1.394  0.5845 -0.7083 -0.0065
19907SOL    HW261461   6.194   5.480   1.509 -1.9718 -1.6736  0.7246
19908SOL     OW61462   5.178   7.605   7.618 -0.5036 -0.3275  0.6518
19908SOL    HW161463   5.233   7.666   7.667 -1.6987 -0.6864  2.5620
19908SOL    HW261464   5.221   7.520   7.627  0.2207 -0.1065 -0.5022
19909SOL     OW61465   6.427   8.628   9.484  0.3740  0.5126  0.1276
19909SOL    HW161466   6.438   8.558   9.548 -0.2182  0.9815  0.7571
19909SOL    HW261467   6.508   8.679   9.491 -0.1439  1.2231  1.3523
19910SOL     OW61468   7.638   6.931   1.723 -0.1441 -0.0919  0.1029
19910SOL    HW161469   7.693   7.005   1.695  0.1321 -0.4948 -0.4467
19910SOL    HW261470   7.665   6.915   1.814  2.0521 -1.4929 -0.7255
19911SOL     OW61471   1.203   0.254   4.745 -0.1431  0.5385  0.3178
19911SOL    HW161472   1.292   0.286   4.730 -0.1046  0.5690  0.6125
19911SOL    HW261473   1.209   0.204   4.827 -0.3533  0.3686  0.2306
19912SOL     OW61474   3.301   8.440   8.027 -0.2711 -0.8302  0.1347
19912SOL    HW161475   3.210   8.451   8.054 -0.2921 -0.1231 -0.1902
19912SOL    HW261476   3.325   8.524   7.988  0.4909 -1.0393  0.1248
19913SOL     OW61477   2.076   5.796   0.653 -0.1519  0.2615 -0.0266
19913SOL    HW161478   2.065   5.786   0.747  1.0251  0.7831  0.1854
19913SOL    HW261479   2.019   5.870   0.630 -1.3127 -0.5733  0.0565
19914SOL     OW61480   1.189   8.211   1.495  0.6887 -0.1224  0.0639
19914SOL    HW161481   1.157   8.128   1.532 -1.2401  0.9435  0.9625
19914SOL    HW261482   1.109   8.260   1.477  1.7257  2.8848  2.7342
19915SOL     OW61483   8.241   6.165   7.612 -0.3350 -0.4617  0.6194
19915SOL    HW161484   8.193   6.094   7.570 -0.1214  0.0502 -0.5315
19915SOL    HW261485   8.201   6.245   7.577  1.5801 -0.0118 -0.7462
19916SOL     OW61486   8.971   7.365   2.610 -0.2243 -0.5307 -0.3122
19916SOL    HW161487   9.043   7.360   2.673 -0.2764 -1.6455 -0.3264
19916SOL    HW261488   9.007   7.329   2.529 -0.7805 -1.0620 -0.3281
19917SOL     OW61489   5.047   3.070   0.562  0.4952  0.3122 -0.0517
19917SOL    HW161490   5.142   3.067   0.577  0.7436  0.3122 -1.4346
19917SOL    HW261491   5.016   3.141   0.618  1.0578 -0.6688  1.5718
19918SOL     OW61492   2.395   7.499   8.004 -0.3084 -0.5668  0.4108
19918SOL    HW161493   2.314   7.544   7.981 -0.4670 -0.6794  0.7479
19918SOL    HW261494   2.392   7.417   7.955  1.5335  1.1406 -2.9355
19919SOL     OW61495   0.503   6.307   4.646  0.0898 -0.0186  0.2365
19919SOL    HW161496   0.547   6.240   4.699  1.0351  1.4574  1.3753
19919SOL    HW261497   0.571   6.339   4.587 -0.1235  0.5491  0.2954
19920SOL     OW61498   4.809   1.693   9.344  0.4859  0.0914  0.1543
19920SOL    HW161499   4.899   1.675   9.370  0.3083 -1.2740 -0.1224
19920SOL    HW261500   4.785   1.772   9.394  1.9896  0.8006 -0.1908
19921SOL     OW61501   6.345   3.567   6.824 -0.1941  0.7839 -0.6555
19921SOL    HW161502   6.370   3.659   6.823 -1.5311  1.1717 -0.4637
19921SOL    HW261503   6.364   3.536   6.735  0.1672  1.2602 -0.7514
19922SOL     OW61504   6.419   5.138   2.354  0.4521 -0.2115 -0.7649
19922SOL    HW161505   6.514   5.130   2.365  0.2102 -1.2155  1.1054
19922SOL    HW261506   6.399   5.084   2.278  1.4950  1.0651 -1.9947
19923SOL     OW61507   3.757   5.026   7.708  0.7261 -0.0224 -0.3999
19923SOL    HW161508   3.829   4.985   7.660  0.0876 -2.1533  0.3026
19923SOL    HW261509   3.729   4.958   7.770 -0.2256  1.6652  1.1111
19924SOL     OW61510   5.428   7.932   1.432  0.4254  0.4684 -0.1038
19924SOL    HW161511   5.433   8.020   1.469 -0.3782  1.0725 -1.3699
19924SOL    HW261512   5.335   7.913   1.426  0.5953 -0.6590  0.5542
19925SOL     OW61513   9.574   6.381   0.067 -0.0788  0.0328 -0.2502
19925SOL    HW161514   9.511   6.444   0.033  1.4385  1.9780  0.3050
19925SOL    HW261515   9.535   6.349   0.148 -0.5730  0.8518 -0.1535
19926SOL     OW61516   3.692   5.721   8.956  0.3925  0.3067  0.1005
19926SOL    HW161517   3.695   5.728   9.051 -0.6940  2.7040  0.0423
19926SOL    HW261518   3.599   5.711   8.936  0.8092 -3.4970 -0.6671
19927SOL     OW61519   0.833   2.004   8.536 -0.3196 -0.3284  0.2845
19927SOL    HW161520   0.873   2.070   8.479 -0.3080  0.0825  0.7678
19927SOL    HW261521   0.881   2.011   8.618 -0.8238 -0.4195  0.5868
19928SOL     OW61522   6.962   8.940   4.992  0.2092 -0.1822  0.1622
19928SOL    HW161523   7.054   8.958   4.975 -0.2171 -0.1291 -2.4157
19928SOL    HW261524   6.934   9.012   5.049  1.1812  1.1589 -0.9996
19929SOL     OW61525   8.362   3.814   6.293 -0.0998 -0.0122  0.3160
19929SOL    HW161526   8.406   3.805   6.209 -1.3838 -1.8581 -0.2093
19929SOL    HW261527   8.390   3.738   6.343 -1.6522 -0.5326  0.4337
19930SOL     OW61528   2.776   0.529   4.512  0.0405  0.1596  0.2014
19930SOL    HW161529   2.771   0.440   4.478 -0.0861  0.6329 -1.0726
19930SOL    HW261530   2.734   0.525   4.598  0.1632 -1.0260  0.2165
19931SOL     OW61531   3.994   0.088   0.054 -0.3779  0.0502 -0.1186
19931SOL    HW161532   4.083   0.100   0.089  0.0351 -1.5222 -0.5434
19931SOL    HW261533   4.001   0.010  -0.001 -1.3902  1.5335 -2.4589
19932SOL     OW61534   3.927   6.431   0.841  0.6538 -0.0651  0.5538
19932SOL    HW161535   3.935   6.515   0.886  0.5494 -0.4664  1.3419
19932SOL    HW261536   3.838   6.401   0.862  0.1778  0.2639 -0.8650
19933SOL     OW61537   7.878   8.797   4.406 -0.2286  0.5490  0.0665
19933SOL    HW161538   7.818   8.856   4.451 -0.9565  0.4289 -0.7118
19933SOL    HW261539   7.853   8.709   4.435  0.6738  0.5942  1.0147
19934SOL     OW61540   0.205   6.620   3.008 -0.2007  0.0950 -0.3954
19934SOL    HW161541   0.204   6.682   2.935 -1.0057  1.6174  0.8566
19934SOL    HW261542   0.291   6.577   3.002 -0.2568  0.1611 -2.2152
19935SOL     OW61543   5.279   6.810   6.310 -0.1307  0.3204  0.4337
19935SOL    HW161544   5.200   6.756   6.316 -0.3813  0.5719 -0.4752
19935SOL    HW261545   5.334   6.765   6.246  0.0324  0.6753  0.3203
19936SOL     OW61546   6.433   5.384   2.103 -0.3128  0.4251 -0.2142
19936SOL    HW161547   6.411   5.291   2.108  1.1489  0.1148  1.1271
19936SOL    HW261548   6.416   5.407   2.011 -0.0242 -1.3418 -0.7543
19937SOL     OW61549   2.550   8.250   8.784  0.1736  0.3095  0.3096
19937SOL    HW161550   2.602   8.257   8.704 -1.3557 -0.5948 -0.8517
19937SOL    HW261551   2.495   8.328   8.784 -1.4157 -0.7158 -0.8244
19938SOL     OW61552   8.488   2.342   5.507 -0.0763  0.2005  0.3503
19938SOL    HW161553   8.483   2.340   5.602 -2.5119  2.1853  0.3466
19938SOL    HW261554   8.578   2.368   5.488  0.4981 -0.4238  2.0524
19939SOL     OW61555   9.237   2.119   4.061  0.5021  0.7833 -0.1478
19939SOL    HW161556   9.245   2.050   3.995 -0.2762  1.4988 -1.0324
19939SOL    HW261557   9.293   2.190   4.029 -0.9613  1.6860 -0.8234
19940SOL     OW61558   5.264   0.472   5.834  0.6325  0.1291 -0.3254
19940SOL    HW161559   5.326   0.521   5.780 -0.0058 -0.5386 -1.7083
19940SOL    HW261560   5.206   0.539   5.870  0.0263  0.4748 -1.8547
19941SOL     OW61561   9.250   1.458   4.138  0.1036  0.0620 -0.1869
19941SOL    HW161562   9.303   1.536   4.122  1.9310 -1.3465 -1.4663
19941SOL    HW261563   9.279   1.395   4.072 -2.2363 -1.2909 -0.0482
19942SOL     OW61564   9.055   0.817   3.148  0.2166  0.2015  0.2323
19942SOL    HW161565   9.020   0.900   3.118 -0.4307  0.0603  0.5835
19942SOL    HW261566   8.984   0.777   3.198  0.1714 -0.9882 -0.7139
19943SOL     OW61567   6.670   2.782   4.426 -0.1184  0.3207 -0.3235
19943SOL    HW161568   6.675   2.878   4.422 -0.3933  0.4106  1.0838
19943SOL    HW261569   6.618   2.764   4.504  0.1836 -0.9905 -0.4069
19944SOL     OW61570   6.911   7.245   8.302 -0.9651  0.5658 -0.0515
19944SOL    HW161571   6.862   7.173   8.262 -2.7390  1.9379 -0.4430
19944SOL    HW261572   6.881   7.248   8.392  2.6543 -2.1879  1.5122
19945SOL     OW61573   0.535   7.690   0.592  0.2310  0.1485 -0.7385
19945SOL    HW161574   0.564   7.600   0.574 -0.0181  0.0180 -0.4860
19945SOL    HW261575   0.507   7.723   0.507  1.9738  0.5929 -1.1901
19946SOL     OW61576   0.994   6.755   2.465 -0.1522  0.5393  0.0423
19946SOL    HW161577   1.014   6.751   2.372 -0.6923 -1.4260 -0.0330
19946SOL    HW261578   1.079   6.756   2.508  0.0983  1.1284 -0.4594
19947SOL     OW61579   0.047   4.388   1.560  0.1330 -0.0619  0.3142
19947SOL    HW161580   0.099   4.308   1.557 -0.9948 -0.8085  0.2140
19947SOL    HW261581   0.063   4.430   1.475  2.2719  0.8659  1.1024
19948SOL     OW61582   0.873   0.356   6.796 -0.5339 -0.3032 -0.2920
19948SOL    HW161583   0.874   0.320   6.885 -0.7109 -0.5526 -0.3895
19948SOL    HW261584   0.799   0.417   6.796 -0.7049 -0.5111 -0.3498
19949SOL     OW61585   4.595   6.974   0.521  0.2973 -0.4180 -1.2136
19949SOL    HW161586   4.544   6.986   0.441  0.1423 -1.2485 -1.2517
19949SOL    HW261587   4.529   6.977   0.591  0.0889 -2.0027 -1.2982
19950SOL     OW61588   9.561   7.162   2.021  0.1347 -0.1104 -0.5448
19950SOL    HW161589   9.513   7.101   1.966  0.2040 -1.6545  1.0003
19950SOL    HW261590   9.644   7.177   1.974  0.1317 -1.2503 -0.9412
19951SOL     OW61591   2.620   7.595   2.190 -0.3673 -0.0711  0.0040
19951SOL    HW161592   2.673   7.672   2.208  0.7448 -1.1761  1.7468
19951SOL    HW261593   2.563   7.586   2.266  0.6152 -1.8039  0.6095
19952SOL     OW61594   7.660   4.016   7.348 -0.0969 -0.5076  0.3286
19952SOL    HW161595   7.755   4.020   7.341 -0.2205  2.2026 -1.1279
19952SOL    HW261596   7.635   4.100   7.387 -2.0242  0.2941 -2.3229
19953SOL     OW61597   1.883   0.436   4.566 -0.4105 -0.1758  0.2941
19953SOL    HW161598   1.941   0.512   4.560  0.6223 -0.9909 -0.5851
19953SOL    HW261599   1.801   0.471   4.600  0.5601  1.0406  1.4913
19954SOL     OW61600   9.360   6.125   5.364  0.0466 -0.5576 -0.1689
19954SOL    HW161601   9.431   6.086   5.415  0.0018  0.1215  0.4164
19954SOL    HW261602   9.401   6.152   5.282  1.0408  2.0710  1.1172
19955SOL     OW61603   8.516   4.493   6.515 -0.2278 -0.4079 -0.4171
19955SOL    HW161604   8.534   4.577   6.558 -0.1445 -0.5510 -0.1686
19955SOL    HW261605   8.456   4.448   6.575  3.3849 -2.5650  1.9655
19956SOL     OW61606   0.580   9.118   4.903  0.2861 -0.4272 -0.0075
19956SOL    HW161607   0.673   9.097   4.902  0.4897  0.4295 -0.0050
19956SOL    HW261608   0.549   9.085   4.988  0.6228 -0.5573  0.0664
19957SOL     OW61609   8.536   4.523   8.709 -0.1136  0.0826 -0.0601
19957SOL    HW161610   8.560   4.504   8.618  3.4000 -0.3345  0.8302
19957SOL    HW261611   8.619   4.540   8.753 -1.7630  1.0199  2.9587
19958SOL     OW61612   0.907   3.527   5.315  0.1675  0.2667  0.0336
19958SOL    HW161613   0.850   3.457   5.349 -1.0794  0.6427 -1.2225
19958SOL    HW261614   0.851   3.605   5.314  0.7520  0.6797 -1.0849
19959SOL     OW61615   1.776   5.973   2.568 -0.0911  0.6081  0.4262
19959SOL    HW161616   1.690   5.975   2.611 -0.3764  0.3957 -0.1218
19959SOL    HW261617   1.811   5.887   2.589 -0.8491 -0.0659 -0.9217
19960SOL     OW61618   4.407   4.132   1.479  0.1916 -0.1258  0.4810
19960SOL    HW161619   4.479   4.152   1.419 -0.0841  1.8750  0.7380
19960SOL    HW261620   4.332   4.177   1.441 -0.8249 -1.6811  0.5441
19961SOL     OW61621   4.753   8.166   5.847 -0.4328 -0.0251 -0.5794
19961SOL    HW161622   4.811   8.121   5.908 -0.3792  1.8556  0.8103
19961SOL    HW261623   4.812   8.214   5.789 -0.4811 -1.7925 -2.2211
19962SOL     OW61624   8.249   7.052   8.916  0.1112  0.2858 -0.4335
19962SOL    HW161625   8.326   7.015   8.960 -1.1049 -1.0180  0.6716
19962SOL    HW261626   8.278   7.069   8.827  1.3926 -1.1425 -0.3174
19963SOL     OW61627   0.360   5.515   0.736  0.8325  0.2909  0.0604
19963SOL    HW161628   0.352   5.429   0.778 -0.0294  0.5543  0.4428
19963SOL    HW261629   0.306   5.508   0.657 -0.1047  0.8119  0.6371
19964SOL     OW61630   5.535   2.625   7.055 -0.2446 -0.0611  0.2771
19964SOL    HW161631   5.524   2.667   6.969  0.0100  2.2041  1.2850
19964SOL    HW261632   5.552   2.533   7.034  2.1549  0.8091 -2.2445
19965SOL     OW61633   8.965   1.517   3.253  0.3060 -0.3225  0.0669
19965SOL    HW161634   9.041   1.575   3.259 -0.9628  1.3843  0.4034
19965SOL    HW261635   8.972   1.460   3.330  0.9468  0.2177  0.4205
19966SOL     OW61636   5.160   4.135   8.823  0.2433  0.7246 -0.5596
19966SOL    HW161637   5.144   4.217   8.777 -1.0848 -0.2438 -1.9344
19966SOL    HW261638   5.072   4.097   8.835  0.8251 -0.4799  0.0569
19967SOL     OW61639   7.375   6.008   6.201 -0.2046 -0.4810  0.7611
19967SOL    HW161640   7.285   5.978   6.209 -0.0410 -0.4292  3.4707
19967SOL    HW261641   7.415   5.947   6.138 -2.3310  0.2057 -1.4134
19968SOL     OW61642   1.541   0.562   3.497 -0.2968 -0.2332 -0.2232
19968SOL    HW161643   1.633   0.561   3.468  0.0091  2.0002  0.4765
19968SOL    HW261644   1.544   0.537   3.589 -0.3527  0.0659 -0.1387
19969SOL     OW61645   8.290   1.294   6.467 -0.3444  0.1424  0.1209
19969SOL    HW161646   8.240   1.311   6.547  0.4664  4.5278 -0.0478
19969SOL    HW261647   8.381   1.302   6.494  0.0244 -0.8368 -0.8036
19970SOL     OW61648   0.104   6.115   6.573 -0.1372 -0.8670 -0.2775
19970SOL    HW161649   0.175   6.061   6.607 -0.0964 -1.3109 -1.0553
19970SOL    HW261650   0.024   6.075   6.607 -0.0006  0.3593  1.6453
19971SOL     OW61651   7.421   5.566   4.938  0.7617 -0.3294  0.2174
19971SOL    HW161652   7.371   5.494   4.899  1.4914 -1.4658  1.2979
19971SOL    HW261653   7.509   5.558   4.901  1.0559 -0.4994  0.9257
19972SOL     OW61654   8.569   4.427   3.497  0.1110 -0.0619  0.3134
19972SOL    HW161655   8.530   4.343   3.472 -1.9445  1.4674 -2.1611
19972SOL    HW261656   8.647   4.435   3.443 -0.8493  0.4791 -1.0344
19973SOL     OW61657   1.072   5.855   1.799 -0.5260  0.2720 -0.4655
19973SOL    HW161658   1.140   5.879   1.862 -1.3187  0.5876  0.3009
19973SOL    HW261659   1.117   5.852   1.714  0.1107  2.1489 -0.2423
19974SOL     OW61660   0.402   4.134   7.679 -0.4666  0.4651 -0.3157
19974SOL    HW161661   0.383   4.086   7.760 -1.9279 -1.5945 -1.7729
19974SOL    HW261662   0.495   4.117   7.663 -0.5611 -0.5159  0.0749
19975SOL     OW61663   8.033   3.634   1.916  0.4112 -0.0705  0.3345
19975SOL    HW161664   8.079   3.661   1.837  0.0434  0.1220  0.1839
19975SOL    HW261665   8.054   3.702   1.980  0.4696 -0.0690  0.3133
19976SOL     OW61666   7.706   1.199   5.639  0.2006 -0.1036 -0.1818
19976SOL    HW161667   7.750   1.283   5.628  0.6063 -0.2287  0.4191
19976SOL    HW261668   7.630   1.217   5.694 -0.8159  0.2028 -1.6306
19977SOL     OW61669   2.270   6.397   0.657  0.5984 -0.4144  0.2051
19977SOL    HW161670   2.283   6.373   0.565 -1.3493 -2.1395  0.3174
19977SOL    HW261671   2.176   6.414   0.664  1.1539  3.0811  1.1874
19978SOL     OW61672   1.276   4.962   4.715  0.3985  0.2526 -0.1214
19978SOL    HW161673   1.198   4.908   4.710  1.1243 -0.7385 -1.6334
19978SOL    HW261674   1.247   5.050   4.689 -0.5384  0.3257  1.1145
19979SOL     OW61675   6.723   1.725   7.468  0.3508 -0.4016 -0.1957
19979SOL    HW161676   6.755   1.787   7.534 -0.2114  2.6960 -2.5822
19979SOL    HW261677   6.631   1.711   7.490 -0.3051  1.9458 -1.0559
19980SOL     OW61678   7.919   9.502   6.054 -0.7970  0.0160 -0.0293
19980SOL    HW161679   7.990   9.563   6.069 -1.6362  0.6159  1.9046
19980SOL    HW261680   7.883   9.526   5.969 -0.3088  1.3809  0.1345
19981SOL     OW61681   7.281   1.977   8.280  0.0223 -0.0796  0.1113
19981SOL    HW161682   7.188   1.960   8.292  0.2745 -2.8640 -1.2040
19981SOL    HW261683   7.305   2.033   8.355 -2.2543 -1.0531  1.6719
19982SOL     OW61684   9.614   5.050   3.725 -0.3086 -0.0685  0.0788
19982SOL    HW161685   9.602   5.000   3.805 -0.6688  0.7939  0.5698
19982SOL    HW261686   9.707   5.070   3.723 -0.5240  1.0593  0.9822
19983SOL     OW61687   7.139   0.184   8.753 -0.1523 -0.0547 -0.0748
19983SOL    HW161688   7.160   0.231   8.833 -0.5338 -0.3282  0.1852
19983SOL    HW261689   7.085   0.111   8.781  0.2987 -0.5548 -0.5036
19984SOL     OW61690   6.135   5.346   1.797  0.1576 -0.0397 -0.5093
19984SOL    HW161691   6.087   5.284   1.741 -1.4576  1.4624 -0.8827
19984SOL    HW261692   6.220   5.305   1.810 -0.7715 -2.2573 -0.8659
19985SOL     OW61693   9.022   4.907   9.321 -0.8050 -0.4025 -0.2614
19985SOL    HW161694   9.103   4.956   9.334 -0.8763 -0.5632  0.8591
19985SOL    HW261695   8.957   4.953   9.372 -1.1275 -1.0156 -0.1088
19986SOL     OW61696   8.324   3.838   8.396  0.1315 -0.2087 -0.3009
19986SOL    HW161697   8.393   3.773   8.410  0.2155 -0.0418  0.0571
19986SOL    HW261698   8.310   3.878   8.481 -1.2228 -1.0340 -0.0969
19987SOL     OW61699   5.511   4.904   4.865  0.2849  0.0368 -0.2564
19987SOL    HW161700   5.536   4.861   4.783 -0.5359 -3.7008  1.2336
19987SOL    HW261701   5.416   4.915   4.858  0.4282  1.2828 -0.4266
19988SOL     OW61702   5.134   3.900   3.780  0.5823  0.4054 -0.2902
19988SOL    HW161703   5.161   3.918   3.871  0.4156  0.5898 -0.2749
19988SOL    HW261704   5.185   3.962   3.728  1.9465 -0.8417 -0.4937
19989SOL     OW61705   2.283   8.663   0.479 -0.3618  0.1901 -0.1310
19989SOL    HW161706   2.284   8.739   0.420  1.4295  0.6599  0.4470
19989SOL    HW261707   2.347   8.683   0.546 -0.7898 -1.2929  0.7800
19990SOL     OW61708   5.641   3.240   3.152  0.0495  0.2637  0.5039
19990SOL    HW161709   5.635   3.159   3.100  0.8517  0.8702 -0.5764
19990SOL    HW261710   5.556   3.283   3.140 -0.7297 -0.8316  1.8361
19991SOL     OW61711   5.954   3.212   4.384 -0.5427  0.1540  0.8561
19991SOL    HW161712   5.899   3.271   4.435 -1.2363 -0.8559  1.3133
19991SOL    HW261713   5.914   3.126   4.397  0.0984 -0.3246 -0.2709
19992SOL     OW61714   6.781   4.767   6.492  0.1886 -0.1372 -0.3902
19992SOL    HW161715   6.799   4.694   6.433 -1.7808 -0.0011 -1.2330
19992SOL    HW261716   6.866   4.790   6.528  1.2966 -0.9794 -2.3038
19993SOL     OW61717   0.010   2.986   0.780  0.0520  0.7423 -0.3116
19993SOL    HW161718  -0.029   2.949   0.859  0.5223 -1.4096 -1.0106
19993SOL    HW261719  -0.055   3.048   0.747 -1.1666 -0.0435  0.5250
19994SOL     OW61720   5.799   1.833   9.286 -0.5206 -0.4477 -0.2195
19994SOL    HW161721   5.726   1.870   9.335 -0.8012 -1.6271  0.2895
19994SOL    HW261722   5.781   1.854   9.194 -0.7827  0.4485  0.0364
19995SOL     OW61723   6.129   2.104   2.609  0.4781 -0.5986 -0.5627
19995SOL    HW161724   6.066   2.032   2.617  0.7506 -0.6489  1.5532
19995SOL    HW261725   6.213   2.061   2.596  0.6064 -0.6605  0.4551
19996SOL     OW61726   3.852   3.946   7.385  0.1902  0.1211 -0.1094
19996SOL    HW161727   3.915   3.882   7.353 -0.5777 -1.5097  1.5036
19996SOL    HW261728   3.882   3.968   7.473  0.8504  2.6116 -0.8531
19997SOL     OW61729   7.413   4.717   2.412 -0.4591 -0.2075  0.0916
19997SOL    HW161730   7.499   4.678   2.397 -0.6174 -0.3331 -0.5089
19997SOL    HW261731   7.392   4.762   2.330 -0.0513  1.5836  0.9328
19998SOL     OW61732   5.255   7.690   8.424  0.7634  0.0530 -0.2712
19998SOL    HW161733   5.268   7.596   8.433 -0.8193 -0.2097 -0.4723
19998SOL    HW261734   5.323   7.729   8.479  2.3641 -1.1425 -1.2876
19999SOL     OW61735   5.110   8.805   5.946 -0.3391 -0.2212  0.2852
19999SOL    HW161736   5.127   8.883   5.894  1.4132  0.9323  2.4166
19999SOL    HW261737   5.073   8.743   5.884 -1.2057  2.0558 -1.6364
20000SOL     OW61738   0.981   0.949   1.337  0.6247  0.1772  0.2712
20000SOL    HW161739   1.003   0.945   1.430  0.4042  1.8941  0.4391
20000SOL    HW261740   1.066   0.959   1.293  0.6051  2.4650  0.5846
20001SOL     OW61741   1.918   2.140   5.984 -0.4788 -0.4239  0.4047
20001SOL    HW161742   1.913   2.050   5.950 -0.0686 -0.5295  0.6234
20001SOL    HW261743   1.982   2.184   5.929 -0.1669 -0.4608  0.7360
20002SOL     OW61744   8.864   5.535   7.911 -0.7334 -0.3051 -0.1764
20002SOL    HW161745   8.949   5.545   7.953 -1.2196  1.6482  0.4422
20002SOL    HW261746   8.884   5.527   7.817  0.1577 -0.3213  0.0131
20003SOL     OW61747   2.632   7.034   7.161 -0.0617  0.6379 -0.4624
20003SOL    HW161748   2.712   7.063   7.117  1.1402 -2.8872 -0.9075
20003SOL    HW261749   2.662   6.998   7.244 -0.5517 -3.5009 -1.8592
20004SOL     OW61750   8.593   5.156   4.543  0.1979  0.1895 -0.1891
20004SOL    HW161751   8.621   5.066   4.524  0.8098  0.2324  0.4554
20004SOL    HW261752   8.633   5.176   4.628 -0.1312  0.9893 -0.2137
20005SOL     OW61753   8.941   5.979   2.640  0.1495  0.0670  0.3001
20005SOL    HW161754   8.949   5.892   2.679 -0.7541 -0.4538 -0.6138
20005SOL    HW261755   8.985   5.972   2.555 -2.6192 -0.5072 -1.2234
20006SOL     OW61756   1.276   6.666   2.152  0.0324  0.1089  0.0938
20006SOL    HW161757   1.258   6.643   2.061  0.7098 -0.7399  0.1636
20006SOL    HW261758   1.305   6.584   2.192  1.8620  0.9259  0.5320
20007SOL     OW61759   0.070   5.765   2.867  0.0200  0.0300  0.1332
20007SOL    HW161760   0.103   5.679   2.893  1.7644  0.6343  0.0025
20007SOL    HW261761   0.014   5.792   2.940  0.3499 -0.7249  0.6838
20008SOL     OW61762   0.805   5.900   8.688 -0.2587  0.0961 -0.7861
20008SOL    HW161763   0.879   5.921   8.631  1.5091 -0.4333  1.1708
20008SOL    HW261764   0.735   5.959   8.659  0.6515  0.1421 -3.1652
20009SOL     OW61765   1.184   5.960   7.653 -0.1987 -0.2216 -0.8799
20009SOL    HW161766   1.259   5.985   7.599  1.4844 -1.4056  0.7922
20009SOL    HW261767   1.205   5.995   7.740 -0.9607 -1.6603 -0.0860
20010SOL     OW61768   8.266   2.669   7.028  0.3440  0.0519 -0.1058
20010SOL    HW161769   8.173   2.685   7.012 -0.2071 -0.7155  2.0411
20010SOL    HW261770   8.268   2.593   7.086  2.2455  0.7276  0.8011
20011SOL     OW61771   6.463   6.163   1.425  0.5350  0.2984 -0.6738
20011SOL    HW161772   6.510   6.223   1.483  1.7043 -0.5625 -0.6927
20011SOL    HW261773   6.389   6.134   1.477  1.0282  0.2857  0.0475
20012SOL     OW61774   1.078   6.443   7.703 -1.1134  0.3667 -0.6212
20012SOL    HW161775   1.163   6.462   7.742 -0.2795 -0.0417 -2.1541
20012SOL    HW261776   1.061   6.352   7.727 -1.4875  0.6637  0.2954
20013SOL     OW61777   4.636   5.627   9.463  0.4345 -0.2371  0.1908
20013SOL    HW161778   4.561   5.648   9.519 -1.0042 -1.1627 -1.3217
20013SOL    HW261779   4.693   5.574   9.519 -0.5354 -0.3888  1.0633
20014SOL     OW61780   8.815   4.936   6.578 -0.6922 -0.4206 -0.4610
20014SOL    HW161781   8.889   4.876   6.591  0.5204  1.0568 -0.2527
20014SOL    HW261782   8.829   4.973   6.491 -0.3655  0.9316  0.1425
20015SOL     OW61783   6.334   3.451   4.531  0.0504  0.6305  0.6334
20015SOL    HW161784   6.395   3.427   4.461 -0.3685  0.0335  0.4639
20015SOL    HW261785   6.301   3.537   4.505  0.6360  0.8531  0.6066
20016SOL     OW61786   2.727   8.016   0.941 -0.5437 -1.0527 -0.3324
20016SOL    HW161787   2.639   8.013   0.905 -0.6597  0.8540 -0.2925
20016SOL    HW261788   2.747   7.925   0.963 -2.1298 -1.6428 -1.1901
20017SOL     OW61789   4.594   3.002   2.585  0.0023 -0.2073  0.4681
20017SOL    HW161790   4.562   2.944   2.516  1.5475  0.3759 -0.8129
20017SOL    HW261791   4.588   3.090   2.548  2.9649 -0.0572  0.0771
20018SOL     OW61792   0.782   1.403   6.006  0.1412  0.3365 -0.0545
20018SOL    HW161793   0.742   1.388   5.920  0.5583 -1.6144  0.0530
20018SOL    HW261794   0.858   1.459   5.987  0.8736 -0.9637 -1.1542
20019SOL     OW61795   0.590   4.751   3.973 -0.0678 -0.2579 -0.2289
20019SOL    HW161796   0.623   4.801   3.898  3.1725  0.6165  1.5723
20019SOL    HW261797   0.578   4.817   4.042 -0.8783 -1.3046  0.6655
20020SOL     OW61798   2.640   8.141   8.382 -0.4115  0.0735 -0.2317
20020SOL    HW161799   2.570   8.101   8.331 -0.3343 -0.9169  0.4117
20020SOL    HW261800   2.720   8.106   8.344 -0.1600  2.1197 -1.7462
20021SOL     OW61801   2.791   1.341   4.185 -0.3079  0.6944  0.1925
20021SOL    HW161802   2.762   1.432   4.179  0.7098  1.1150  1.2892
20021SOL    HW261803   2.710   1.291   4.194 -0.8150  1.6257  1.0396
20022SOL     OW61804   6.037   8.724   9.094 -0.1672  0.5808 -0.1060
20022SOL    HW161805   6.034   8.815   9.067 -1.5879 -0.1520 -2.6925
20022SOL    HW261806   5.946   8.696   9.098  0.2254 -0.6995  0.8887
20023SOL     OW61807   6.682   9.225   9.438 -0.4451 -0.3590 -0.0265
20023SOL    HW161808   6.701   9.182   9.522 -0.8161 -1.4308 -0.4826
20023SOL    HW261809   6.593   9.257   9.447  0.2162  1.4292  0.7510
20024SOL     OW61810   4.289   8.967   8.160 -0.0369 -0.0662 -0.0904
20024SOL    HW161811   4.373   8.994   8.197  0.0878 -0.0417 -0.3855
20024SOL    HW261812   4.309   8.885   8.113  0.1064  0.6125 -1.2607
20025SOL     OW61813   1.680   1.177   8.899 -0.4843  0.3942 -0.0614
20025SOL    HW161814   1.767   1.159   8.865 -0.8608 -0.9791 -0.3226
20025SOL    HW261815   1.690   1.260   8.947  1.3071 -0.4622  1.1671
20026SOL     OW61816   5.906   6.155   2.192  0.6405 -0.1844  0.0292
20026SOL    HW161817   5.870   6.077   2.151  2.0586 -0.0214 -1.6437
20026SOL    HW261818   5.830   6.208   2.215 -0.2747 -1.3896 -0.1576
20027SOL     OW61819   1.019   5.407   8.091  0.2582 -0.2294  0.1718
20027SOL    HW161820   0.958   5.481   8.084  2.2443  1.3787 -1.8807
20027SOL    HW261821   0.964   5.330   8.095 -1.9176  1.1774 -0.9548
20028SOL     OW61822   6.266   4.762   5.220  0.6923 -0.1187 -0.4780
20028SOL    HW161823   6.292   4.679   5.259  0.9667 -0.4710 -1.3765
20028SOL    HW261824   6.240   4.817   5.294 -1.4316 -1.6663  0.0235
20029SOL     OW61825   8.559   2.235   2.864 -0.0533 -0.6630 -0.3128
20029SOL    HW161826   8.485   2.181   2.834 -0.8089  0.1162  0.0912
20029SOL    HW261827   8.583   2.287   2.788 -1.2517  0.5234  0.0912
20030SOL     OW61828   0.583   2.365   4.791  0.1386  0.1887 -0.4711
20030SOL    HW161829   0.597   2.276   4.759  1.0832  0.4155 -0.7161
20030SOL    HW261830   0.491   2.368   4.816 -0.1384 -0.5666 -1.3833
20031SOL     OW61831   2.529   5.910   2.827  0.2355  0.2659 -0.1830
20031SOL    HW161832   2.464   5.975   2.798 -0.4058  0.2432  1.1183
20031SOL    HW261833   2.550   5.937   2.917  2.1306  0.3341 -0.6034
20032SOL     OW61834   8.220   0.397   6.191  0.2210 -0.2322  0.2224
20032SOL    HW161835   8.147   0.456   6.212 -0.6068 -0.7210 -1.1284
20032SOL    HW261836   8.180   0.311   6.184  0.7484 -0.3858 -1.3668
20033SOL     OW61837   5.409   5.428   0.852  0.3572 -0.0292 -0.3370
20033SOL    HW161838   5.393   5.518   0.824  1.6321 -0.0039 -1.0609
20033SOL    HW261839   5.488   5.433   0.906  0.4549 -0.7156 -0.4014
20034SOL     OW61840   0.481   6.509   1.509  0.4676  0.0232  0.0334
20034SOL    HW161841   0.432   6.440   1.555 -0.2379  0.1664 -0.4852
20034SOL    HW261842   0.549   6.462   1.461 -0.1798 -0.3577 -0.5384
20035SOL     OW61843   5.710   3.503   0.525  0.0657 -0.1537  0.4981
20035SOL    HW161844   5.707   3.550   0.608  0.4586  0.6215  0.0874
20035SOL    HW261845   5.801   3.511   0.496  0.0351 -0.8000  0.2165
20036SOL     OW61846   2.928   1.166   8.340 -0.4250  0.3510  0.1266
20036SOL    HW161847   2.938   1.260   8.326 -1.6912  0.6660  1.1884
20036SOL    HW261848   2.850   1.157   8.395 -0.5843 -1.3494 -0.2940
20037SOL     OW61849   1.111   2.524   0.545 -0.6110  0.1871 -0.0924
20037SOL    HW161850   1.022   2.533   0.510 -0.4526  3.0258  0.0413
20037SOL    HW261851   1.099   2.474   0.626 -1.7247 -1.5232 -1.2413
20038SOL     OW61852   7.618   5.715   8.756  0.6690 -0.5853 -0.0367
20038SOL    HW161853   7.703   5.676   8.738 -0.0314 -2.0511 -0.3270
20038SOL    HW261854   7.620   5.738   8.849  1.1863 -1.1176  0.0855
20039SOL     OW61855   0.928   2.168   9.522 -0.0521 -0.0527 -0.0501
20039SOL    HW161856   1.007   2.220   9.506  1.0556 -0.9066  2.1676
20039SOL    HW261857   0.879   2.219   9.586 -0.8960  0.0662 -0.7833
20040SOL     OW61858   8.925   2.059   0.848  0.0504 -0.3182  0.3945
20040SOL    HW161859   8.918   2.003   0.925  1.1521 -1.2766 -0.1642
20040SOL    HW261860   8.835   2.085   0.828 -0.5599 -2.2631  0.4170
20041SOL     OW61861   1.519   6.358   3.381 -0.8432  0.1181  0.6516
20041SOL    HW161862   1.498   6.271   3.414  1.1659 -0.8556 -0.4256
20041SOL    HW261863   1.484   6.359   3.292  0.1594 -0.0666  0.2412
20042SOL     OW61864   7.981   4.867   2.714 -0.9034 -0.7503  0.3427
20042SOL    HW161865   8.004   4.847   2.805  0.7471 -1.0760 -0.1059
20042SOL    HW261866   8.008   4.789   2.665 -3.2750 -1.2707 -0.2714
20043SOL     OW61867   0.580   7.411   0.489  0.1820  0.5601 -0.0567
20043SOL    HW161868   0.578   7.336   0.549  1.9549 -2.2511 -3.1681
20043SOL    HW261869   0.673   7.428   0.475 -0.1828  3.1783  0.2080
20044SOL     OW61870   0.505   2.186   3.865 -0.5325 -0.0659 -0.3140
20044SOL    HW161871   0.432   2.208   3.807 -1.5945 -0.1312  0.9266
20044SOL    HW261872   0.522   2.093   3.849 -1.3467 -0.2820  0.0202
20045SOL     OW61873   4.059   7.673   7.999 -0.3048 -0.3588 -0.0271
20045SOL    HW161874   4.054   7.597   8.057 -0.4384 -0.3913 -0.0800
20045SOL    HW261875   4.152   7.694   7.995 -0.3829  0.1970  0.9046
20046SOL     OW61876   6.496   5.154   6.194  0.2078  0.1528 -0.3256
20046SOL    HW161877   6.420   5.174   6.141 -0.2171 -0.3095  0.0921
20046SOL    HW261878   6.571   5.171   6.137 -0.2205  0.1602 -0.8941
20047SOL     OW61879   6.237   0.569   5.860  0.4881 -0.1547  0.0057
20047SOL    HW161880   6.170   0.634   5.839 -0.2897 -0.9451 -0.0102
20047SOL    HW261881   6.238   0.511   5.784  1.8459  0.3551 -0.3971
20048SOL     OW61882   2.298   5.052   5.385 -0.4698 -0.3439 -0.8289
20048SOL    HW161883   2.384   5.066   5.426 -0.6489 -3.2783  0.8301
20048SOL    HW261884   2.317   4.997   5.309 -0.6512  1.1543 -1.9870
20049SOL     OW61885   0.505   6.606   2.902 -0.9621 -0.1270  0.5521
20049SOL    HW161886   0.592   6.642   2.883 -1.6513  0.9553 -0.7931
20049SOL    HW261887   0.516   6.557   2.983  1.1633 -1.0326 -0.2202
20050SOL     OW61888   6.746   3.873   3.855  0.1831  0.1982 -0.1255
20050SOL    HW161889   6.795   3.896   3.933 -0.6462 -0.3693  0.5777
20050SOL    HW261890   6.654   3.878   3.882 -0.2524  2.2403 -1.6764
20051SOL     OW61891   3.021   2.815   1.524 -0.2790  0.9401  0.3062
20051SOL    HW161892   3.037   2.909   1.524  1.8200  0.6497  1.4412
20051SOL    HW261893   3.080   2.780   1.457 -1.2358  0.4517 -0.2943
20052SOL     OW61894   1.905   9.362   5.341  0.6548 -0.7643 -0.7022
20052SOL    HW161895   1.876   9.370   5.251  0.4485 -1.1154 -0.6691
20052SOL    HW261896   2.000   9.375   5.337  0.3091  2.5817 -0.5200
20053SOL     OW61897   0.500   1.091   1.279  0.0047  0.4767 -0.2133
20053SOL    HW161898   0.515   1.138   1.197  0.8452 -2.4202 -1.8909
20053SOL    HW261899   0.573   1.117   1.335  0.1302  1.5808 -0.8588
20054SOL     OW61900   0.349   4.807   8.419 -0.0523 -0.3941 -0.1545
20054SOL    HW161901   0.442   4.786   8.425  0.0600  0.3910  1.4464
20054SOL    HW261902   0.338   4.843   8.331  1.8182  2.3815  0.6351
20055SOL     OW61903   3.690   5.011   6.980  0.5803 -0.1761  0.1300
20055SOL    HW161904   3.610   5.024   6.930  0.8106 -0.1589 -0.2337
20055SOL    HW261905   3.737   4.942   6.934 -0.5775 -2.3389  1.9648
20056SOL     OW61906   2.837   7.700   2.902  0.3012  1.0017 -0.0018
20056SOL    HW161907   2.854   7.658   2.818  1.9568  0.6272  0.4863
20056SOL    HW261908   2.879   7.786   2.896  0.0759  1.1385  0.3026
20057SOL     OW61909   6.541   4.527   4.910 -0.1736  0.0217 -0.6007
20057SOL    HW161910   6.472   4.473   4.948 -0.3470 -0.3343 -1.4061
20057SOL    HW261911   6.601   4.544   4.983 -0.7844 -0.1787 -0.0423
20058SOL     OW61912   7.960   6.401   8.875  0.0320  0.0441  0.8770
20058SOL    HW161913   8.019   6.339   8.833 -2.1469 -1.9675  0.5722
20058SOL    HW261914   7.972   6.387   8.969  1.3247  1.0076  0.8878
20059SOL     OW61915   3.450   7.277   1.852 -0.9914 -0.3492  0.5019
20059SOL    HW161916   3.438   7.190   1.813  0.8745  0.1506 -1.3981
20059SOL    HW261917   3.494   7.327   1.784 -1.8947  2.0759  1.6137
20060SOL     OW61918   4.567   6.396   7.678 -0.0596  0.1893 -0.0926
20060SOL    HW161919   4.574   6.438   7.764  0.4334  2.8741 -1.3342
20060SOL    HW261920   4.482   6.423   7.645  0.0342 -0.2682 -0.7212
20061SOL     OW61921   4.292   4.593   7.079 -0.7829 -0.3923 -0.4486
20061SOL    HW161922   4.286   4.500   7.102  1.3722 -0.4231  0.1925
20061SOL    HW261923   4.360   4.628   7.137 -0.1086  1.1266 -2.0533
20062SOL     OW61924   5.652   7.988   5.306  0.3307 -0.2394 -0.0790
20062SOL    HW161925   5.671   8.005   5.213  0.2355  1.4340  0.1782
20062SOL    HW261926   5.558   7.969   5.308  0.6268 -1.8501 -0.5046
20063SOL     OW61927   2.524   1.373   6.506  0.3324  0.2465  0.2161
20063SOL    HW161928   2.584   1.303   6.533 -1.0633 -0.3868  1.8875
20063SOL    HW261929   2.452   1.368   6.569 -1.1533  1.4207 -1.2911
20064SOL     OW61930   9.145   9.277   9.525  0.2369 -0.0980  0.5184
20064SOL    HW161931   9.127   9.313   9.612  0.0533 -0.3573  0.5895
20064SOL    HW261932   9.078   9.314   9.469  0.4691  0.2175  0.4484
20065SOL     OW61933   2.342   7.106   1.830 -0.4397  0.1284  0.2381
20065SOL    HW161934   2.276   7.126   1.763 -0.6998  0.1297  0.4931
20065SOL    HW261935   2.327   7.171   1.899 -1.6081 -1.1896  1.2906
20066SOL     OW61936   4.291   4.022   9.509  0.0020  0.0760  0.3577
20066SOL    HW161937   4.367   3.981   9.549 -0.3675 -0.4394  0.5533
20066SOL    HW261938   4.257   3.954   9.450 -0.7076  0.0409  0.7956
20067SOL     OW61939   0.672   4.881   6.462  0.2053  0.0566  0.4186
20067SOL    HW161940   0.730   4.943   6.505 -1.1415  0.5549  1.6284
20067SOL    HW261941   0.706   4.872   6.373  0.5044  2.4466  0.2317
20068SOL     OW61942   1.431   6.997   4.319  0.0686 -0.0312 -0.3692
20068SOL    HW161943   1.394   6.935   4.381 -1.0242  1.3278  0.3807
20068SOL    HW261944   1.515   6.958   4.293  2.1845  0.7396  4.3315
20069SOL     OW61945   1.424   2.932   3.673 -0.0202  0.3581 -0.1820
20069SOL    HW161946   1.447   3.016   3.634 -1.0876  0.7782  0.0513
20069SOL    HW261947   1.365   2.955   3.745 -1.3849 -0.6605 -0.9354
20070SOL     OW61948   6.602   6.777   9.334  0.6770 -0.2305 -0.4346
20070SOL    HW161949   6.629   6.691   9.301  0.8774  0.4261 -2.0786
20070SOL    HW261950   6.684   6.826   9.343  0.6434 -0.4406  1.2704
20071SOL     OW61951   3.982   6.533   3.694  0.3770 -0.3435 -0.1844
20071SOL    HW161952   3.910   6.504   3.638  0.2081 -0.5457  0.1322
20071SOL    HW261953   4.060   6.526   3.639  0.1709 -0.2423 -0.4921
20072SOL     OW61954   4.475   7.771   7.651  0.2552  0.6221  0.5656
20072SOL    HW161955   4.477   7.866   7.665  2.5892  0.8334 -0.6792
20072SOL    HW261956   4.457   7.761   7.558 -3.9021 -0.4014  1.2504
20073SOL     OW61957   5.911   6.593   3.566 -0.4355  0.6917  0.4202
20073SOL    HW161958   5.907   6.551   3.652  0.6597  0.9958  0.6441
20073SOL    HW261959   5.832   6.648   3.563 -1.0372 -0.1334  0.7822
20074SOL     OW61960   7.626   4.370   8.099  0.1359  0.1959  1.6416
20074SOL    HW161961   7.661   4.359   8.010 -0.5988  1.0619  1.2330
20074SOL    HW261962   7.591   4.284   8.122 -0.5992  0.2266  0.6806
20075SOL     OW61963   4.436   8.328   6.541  0.0161  0.0743 -0.5056
20075SOL    HW161964   4.483   8.411   6.540  0.5400 -0.2061  0.2154
20075SOL    HW261965   4.366   8.339   6.476  0.5257  0.8139 -0.9441
20076SOL     OW61966   9.598   6.485   9.018 -0.1812  0.1194 -0.1043
20076SOL    HW161967   9.578   6.477   9.111  1.7547 -1.5503  0.2202
20076SOL    HW261968   9.512   6.500   8.977 -1.2088 -0.1456  1.8082
20077SOL     OW61969   4.019   2.197   8.941 -0.0306 -0.2011 -0.0194
20077SOL    HW161970   4.054   2.134   8.878 -0.7678 -0.0261 -0.6225
20077SOL    HW261971   4.095   2.251   8.965  0.5036 -1.0017  0.1421
20078SOL     OW61972   6.574   2.794   9.455 -0.0275 -0.0527 -0.4686
20078SOL    HW161973   6.641   2.744   9.408  0.1840 -2.3358  2.0238
20078SOL    HW261974   6.507   2.729   9.476 -1.6919  1.5900 -0.4276
20079SOL     OW61975   2.917   3.395   2.737  0.0195  0.0445  0.2416
20079SOL    HW161976   2.861   3.420   2.811 -0.8877 -1.6234  0.1665
20079SOL    HW261977   2.885   3.448   2.664 -1.4199 -0.7851  0.2352
20080SOL     OW61978   9.213   9.050   6.234  0.2708  0.1795 -0.1239
20080SOL    HW161979   9.224   9.122   6.173  0.0675  0.8911  0.6628
20080SOL    HW261980   9.292   8.996   6.222 -1.5591 -2.0224 -3.9514
20081SOL     OW61981   7.460   4.331   9.087  0.1785 -0.0283 -0.1670
20081SOL    HW161982   7.427   4.253   9.132  1.3891 -1.8806 -2.3244
20081SOL    HW261983   7.459   4.308   8.994  1.0389  2.3669 -0.8403
20082SOL     OW61984   1.009   6.894   0.486 -0.4446 -0.1292  0.9753
20082SOL    HW161985   1.062   6.942   0.550 -1.8670  1.2562  1.1806
20082SOL    HW261986   0.921   6.931   0.495 -1.1733 -1.4352 -0.2710
20083SOL     OW61987   7.831   3.751   9.526 -0.4841  0.2327  0.2745
20083SOL    HW161988   7.921   3.721   9.514 -0.8114 -0.3795 -0.8226
20083SOL    HW261989   7.811   3.798   9.445 -0.9649  0.8581  0.7541
20084SOL     OW61990   6.303   2.059   7.214  0.0105  0.1130 -0.2842
20084SOL    HW161991   6.397   2.076   7.215  0.0425 -0.0651  0.0726
20084SOL    HW261992   6.271   2.095   7.297 -0.2162  0.0678 -0.3504
20085SOL     OW61993   0.835   2.361   6.875 -0.0517 -0.4800 -0.2687
20085SOL    HW161994   0.799   2.381   6.961 -2.8610 -0.4671 -1.3599
20085SOL    HW261995   0.926   2.338   6.893 -0.1223  0.9350  2.5079
20086SOL     OW61996   7.333   8.361   0.521 -0.5659 -0.0086 -0.4285
20086SOL    HW161997   7.275   8.393   0.452 -0.7256  1.5585  0.3840
20086SOL    HW261998   7.276   8.312   0.580 -0.7192 -0.0590 -0.6205
20087SOL     OW61999   6.900   8.903   9.166  0.0077 -0.3894  0.2876
20087SOL    HW162000   6.852   8.939   9.241  1.3427 -0.3737  1.1824
20087SOL    HW262001   6.834   8.892   9.098 -1.2457 -0.3673  1.4509
20088SOL     OW62002   0.398   4.218   6.474  0.6023 -0.8578  0.1951
20088SOL    HW162003   0.309   4.183   6.477 -0.0858  0.8154  1.5894
20088SOL    HW262004   0.423   4.227   6.566  1.2701  0.8489 -0.1087
20089SOL     OW62005   1.844   6.441   7.032 -0.1467 -0.5635  0.0680
20089SOL    HW162006   1.861   6.438   7.126 -0.7409 -0.0998  0.2004
20089SOL    HW262007   1.751   6.466   7.025  0.0701  0.1197 -0.6435
20090SOL     OW62008   5.944   8.378   8.796 -0.1297  0.6863  0.0105
20090SOL    HW162009   5.949   8.283   8.807  1.2319  0.3808 -2.4320
20090SOL    HW262010   5.948   8.414   8.884  0.2386 -1.4959  0.9291
20091SOL     OW62011   2.931   8.474   0.194  0.0608  0.5231  0.3385
20091SOL    HW162012   2.910   8.535   0.124  0.7791 -0.2487 -0.5744
20091SOL    HW262013   2.981   8.405   0.152  1.0182  0.3258  1.7174
20092SOL     OW62014   7.217   2.277   5.868 -0.6857  0.0796 -0.1338
20092SOL    HW162015   7.240   2.212   5.934  0.7424 -0.7275 -1.3397
20092SOL    HW262016   7.137   2.317   5.900 -1.4976 -2.1088  0.7990
20093SOL     OW62017   7.156   7.642   5.547  0.3238  0.1069  0.0550
20093SOL    HW162018   7.191   7.632   5.636 -0.3353  0.6005  0.3779
20093SOL    HW262019   7.223   7.604   5.491  1.6089  1.4381  0.6227
20094SOL     OW62020   7.118   6.693   3.669 -0.5940  0.0474  0.0925
20094SOL    HW162021   7.212   6.677   3.670 -0.4711  0.7500  0.9382
20094SOL    HW262022   7.094   6.688   3.576  0.5384  1.2823 -0.3117
20095SOL     OW62023   1.337   2.382   6.891  1.2923  0.1738 -0.5477
20095SOL    HW162024   1.352   2.322   6.818  0.5401  0.2894 -0.8011
20095SOL    HW262025   1.246   2.367   6.917  2.0645 -1.2048  1.5936
20096SOL     OW62026   3.028   7.290   6.657 -0.2895 -0.1196 -0.4623
20096SOL    HW162027   3.033   7.195   6.664  4.4663 -0.2021 -1.7797
20096SOL    HW262028   3.093   7.323   6.720 -1.7374  2.3265 -0.1039
20097SOL     OW62029   8.030   3.441   2.697 -0.0139 -0.3553 -0.4073
20097SOL    HW162030   8.014   3.487   2.779 -0.9919 -1.6671  0.1718
20097SOL    HW262031   7.947   3.446   2.650  0.1118 -0.8320 -0.6885
20098SOL     OW62032   3.819   5.918   2.259  0.2311  0.3168  0.3014
20098SOL    HW162033   3.809   5.826   2.236  0.1855 -0.1059  1.9002
20098SOL    HW262034   3.735   5.942   2.298 -0.1226  1.3454 -1.0027
20099SOL     OW62035   3.580   3.887   6.915  0.5974  0.6005  0.0256
20099SOL    HW162036   3.549   3.972   6.884  0.0184  0.3271 -0.1582
20099SOL    HW262037   3.603   3.902   7.007  2.6514  1.5019 -0.5540
20100SOL     OW62038   4.928   5.312   1.111  0.2087 -0.1226 -0.2565
20100SOL    HW162039   5.018   5.309   1.144 -0.2068 -1.4558  0.8338
20100SOL    HW262040   4.908   5.222   1.086 -0.8942  0.1193 -0.2896
20101SOL     OW62041   7.531   7.875   9.446 -0.3203 -0.8660 -0.3576
20101SOL    HW162042   7.578   7.792   9.445 -0.9433 -1.2218 -0.6818
20101SOL    HW262043   7.442   7.852   9.422 -0.5972 -0.1586 -0.0347
20102SOL     OW62044   3.601   3.356   5.362 -0.9471  0.1547 -0.0382
20102SOL    HW162045   3.609   3.350   5.457  1.3343  2.5756  0.0275
20102SOL    HW262046   3.679   3.404   5.334 -1.9667  0.2645 -3.0690
20103SOL     OW62047   4.355   2.894   5.422  1.2569  0.0300  0.3426
20103SOL    HW162048   4.402   2.866   5.343  1.1808 -0.9459  0.6216
20103SOL    HW262049   4.379   2.828   5.488  0.7739  0.4413  0.9392
20104SOL     OW62050   2.007   2.538   3.343  0.0211  0.4055  0.2506
20104SOL    HW162051   2.002   2.523   3.438 -0.9639  0.4233  0.2104
20104SOL    HW262052   2.089   2.585   3.331  0.8391 -0.7667  0.9397
20105SOL     OW62053   2.628   4.646   5.641  0.5311  0.3071  0.2252
20105SOL    HW162054   2.661   4.735   5.654  1.5003 -0.0240  0.1235
20105SOL    HW262055   2.586   4.624   5.724  1.5815  0.3341  0.7859
20106SOL     OW62056   7.645   3.514   4.545  0.4425  0.3948 -0.0642
20106SOL    HW162057   7.603   3.592   4.508 -0.3391 -0.3397 -0.7665
20106SOL    HW262058   7.679   3.467   4.469 -1.0146 -1.0431  0.1156
20107SOL     OW62059   5.468   7.169   1.995  0.4139  0.1612  0.7426
20107SOL    HW162060   5.489   7.143   1.905 -0.1042  1.6120  0.1846
20107SOL    HW262061   5.453   7.086   2.040 -0.4068 -0.5682 -0.7769
20108SOL     OW62062   8.543   0.810   5.091  0.3175 -0.5011 -0.0006
20108SOL    HW162063   8.546   0.733   5.033  0.2260 -0.2302 -0.3697
20108SOL    HW262064   8.473   0.864   5.055  0.6383 -0.0597  0.0263
20109SOL     OW62065   5.366   6.950   2.090 -0.2070  0.2610 -0.5733
20109SOL    HW162066   5.320   6.881   2.043  1.3314 -0.6115 -0.8507
20109SOL    HW262067   5.297   7.000   2.132 -1.3731 -1.3142 -0.5348
20110SOL     OW62068   3.126   6.563   4.950 -0.1110 -0.2611 -0.4477
20110SOL    HW162069   3.207   6.549   4.903  0.0938 -2.3894  0.4283
20110SOL    HW262070   3.106   6.478   4.990 -1.9621  0.5986  0.6017
20111SOL     OW62071   1.142   4.232   3.050 -0.1554  0.0929 -0.2796
20111SOL    HW162072   1.229   4.271   3.036  0.0133  0.4028  1.4377
20111SOL    HW262073   1.159   4.138   3.051  0.7878  0.1569  3.1305
20112SOL     OW62074   1.898   1.709   4.693  0.2092 -0.9264 -1.2480
20112SOL    HW162075   1.831   1.776   4.706 -1.4995 -2.7205 -0.1981
20112SOL    HW262076   1.910   1.706   4.598 -0.0680  0.4648 -1.3516
20113SOL     OW62077   2.560   4.668   1.212 -0.1038  0.0414  0.0549
20113SOL    HW162078   2.594   4.588   1.173  1.3422 -0.1213  1.5370
20113SOL    HW262079   2.491   4.638   1.271 -0.9696  0.1122 -0.8908
20114SOL     OW62080   4.928   4.369   7.804 -0.0700  0.0756  0.1727
20114SOL    HW162081   4.860   4.420   7.758  0.6938  1.2723  0.3180
20114SOL    HW262082   4.968   4.316   7.735 -2.6209 -2.4497  0.4406
20115SOL     OW62083   6.821   4.154   6.559 -0.2007 -0.4610 -0.1085
20115SOL    HW162084   6.821   4.239   6.602 -0.6442 -0.7995  0.5676
20115SOL    HW262085   6.888   4.162   6.490  0.0769  0.2778  0.2394
20116SOL     OW62086   0.521   2.440   1.427 -0.0542 -0.5938 -0.4976
20116SOL    HW162087   0.437   2.403   1.452  0.7856 -1.9710  0.4494
20116SOL    HW262088   0.530   2.420   1.334 -0.4104 -1.1823 -0.4087
20117SOL     OW62089   3.800   4.697   9.354  0.2766  0.5636  0.0270
20117SOL    HW162090   3.718   4.743   9.369 -0.8518 -1.1029 -0.7899
20117SOL    HW262091   3.822   4.659   9.439 -0.5545 -0.1390 -0.0596
20118SOL     OW62092   8.241   2.599   6.234 -0.2591  0.6181 -0.4900
20118SOL    HW162093   8.334   2.587   6.254 -0.2558  1.1259 -0.1860
20118SOL    HW262094   8.214   2.673   6.288 -0.4218  1.6264 -1.8949
20119SOL     OW62095   3.141   5.288   1.545 -0.5702  0.4273  0.6017
20119SOL    HW162096   3.196   5.261   1.471 -2.3439 -0.1765 -0.5471
20119SOL    HW262097   3.114   5.205   1.586 -1.6651  0.6367  0.3387
20120SOL     OW62098   3.051   5.975   9.068  0.5526 -0.4495 -0.2195
20120SOL    HW162099   3.082   5.884   9.067  1.3011 -0.2535  1.3095
20120SOL    HW262100   2.980   5.975   9.133  1.5001  0.3013  0.8612
20121SOL     OW62101   4.848   6.067   3.710  0.7903 -0.1170 -0.3742
20121SOL    HW162102   4.883   6.110   3.788 -1.2082  0.0099  0.4993
20121SOL    HW262103   4.798   6.135   3.666 -0.3378 -0.8748 -0.3059
20122SOL     OW62104   5.158   2.989   3.264 -0.2968 -0.0931  0.0750
20122SOL    HW162105   5.132   2.898   3.258  0.1708 -0.5260  3.0195
20122SOL    HW262106   5.077   3.039   3.254 -1.0751 -1.0187  1.4814
20123SOL     OW62107   6.275   5.250   6.082 -0.6464 -0.3568 -0.0640
20123SOL    HW162108   6.214   5.180   6.104 -0.8619  0.0105  0.5178
20123SOL    HW262109   6.228   5.331   6.105  0.1969 -0.0824  0.7443
20124SOL     OW62110   7.750   6.319   5.432 -0.4676 -0.0749  0.7546
20124SOL    HW162111   7.683   6.251   5.429  0.4062 -0.9361  0.2722
20124SOL    HW262112   7.830   6.273   5.456 -0.2280  1.1058  2.3361
20125SOL     OW62113   7.592   4.805   0.685 -0.0417  0.3376 -0.0106
20125SOL    HW162114   7.534   4.778   0.756  1.2069  0.7464  1.2020
20125SOL    HW262115   7.673   4.756   0.700  0.5404  1.0703 -0.6638
20126SOL     OW62116   4.928   9.326   9.470 -0.0583  0.4974  0.2187
20126SOL    HW162117   4.931   9.277   9.388  0.0873  1.5408 -0.4191
20126SOL    HW262118   4.915   9.417   9.443 -4.4933  0.4600  1.4207
20127SOL     OW62119   5.595   3.112   7.883 -0.4831 -0.0078  0.0159
20127SOL    HW162120   5.566   3.087   7.971  1.0943  1.2669  0.9701
20127SOL    HW262121   5.527   3.172   7.851 -0.7186  0.0814  0.6694
20128SOL     OW62122   3.798   0.823   6.558 -0.3533  0.1383  0.0642
20128SOL    HW162123   3.813   0.907   6.602 -1.4749  0.4592 -0.1461
20128SOL    HW262124   3.808   0.843   6.465 -0.5131  0.0123  0.0202
20129SOL     OW62125   0.327   5.274   7.412  0.4188  0.3748 -0.1154
20129SOL    HW162126   0.359   5.327   7.338  3.3497 -1.1542 -0.0971
20129SOL    HW262127   0.371   5.189   7.401 -3.7914 -2.0650  0.0405
20130SOL     OW62128   7.840   5.428   5.016 -0.4159 -0.0903  0.0471
20130SOL    HW162129   7.924   5.422   5.061 -0.8626  0.9934  1.0989
20130SOL    HW262130   7.801   5.509   5.049 -1.4945 -0.1182 -1.0851
20131SOL     OW62131   6.358   3.219   4.985 -0.0798 -0.3000  0.1648
20131SOL    HW162132   6.267   3.203   5.012  0.5665 -0.9498  2.1279
20131SOL    HW262133   6.353   3.230   4.890 -2.1470 -0.7918  0.1652
20132SOL     OW62134   8.476   1.247   6.053  0.3939  0.0967 -0.1022
20132SOL    HW162135   8.388   1.271   6.082 -0.7299 -1.2142 -2.1163
20132SOL    HW262136   8.530   1.254   6.131 -1.3679  1.5150  1.0770
20133SOL     OW62137   6.558   4.955   0.320 -0.0437  0.0377  0.2471
20133SOL    HW162138   6.566   4.886   0.255 -2.5752 -1.2718  1.1852
20133SOL    HW262139   6.505   5.022   0.277  0.8975  0.6058 -0.0517
20134SOL     OW62140   6.169   5.684   0.413 -0.4834  0.2207  0.9246
20134SOL    HW162141   6.208   5.714   0.331  0.4889 -0.0050  1.2837
20134SOL    HW262142   6.078   5.663   0.391 -1.1262  3.0598  0.5910
20135SOL     OW62143   7.686   7.241   7.531 -0.5184 -0.1297  0.1587
20135SOL    HW162144   7.706   7.182   7.603 -0.4347  0.4172  0.5912
20135SOL    HW262145   7.638   7.187   7.468 -0.2131 -0.7193  0.4245
20136SOL     OW62146   4.595   9.566   3.145 -0.1223  0.6868  0.1110
20136SOL    HW162147   4.519   9.618   3.118  0.1833  0.4738 -1.2204
20136SOL    HW262148   4.594   9.570   3.241 -1.0499  1.7772  0.0756
20137SOL     OW62149   3.842   4.010   3.273 -0.1603  0.3889  1.1215
20137SOL    HW162150   3.884   4.079   3.222  0.0724 -1.1057 -0.8775
20137SOL    HW262151   3.753   4.041   3.288  0.2883  1.6077  1.3193
20138SOL     OW62152   5.567   2.217   3.112 -0.4414  0.4962  0.3811
20138SOL    HW162153   5.557   2.131   3.152 -0.8012  0.0171 -0.7144
20138SOL    HW262154   5.488   2.265   3.137 -1.0454 -0.0729 -0.3894
20139SOL     OW62155   9.230   5.211   9.602 -0.0700  0.1372  0.0134
20139SOL    HW162156   9.157   5.251   9.649 -0.0055  0.9098 -0.5231
20139SOL    HW262157   9.306   5.262   9.628  0.1354 -0.0996 -0.1189
20140SOL     OW62158   7.007   5.629   1.092  0.1629 -0.7452 -0.1512
20140SOL    HW162159   7.076   5.682   1.132  0.2090  0.2418 -1.4835
20140SOL    HW262160   6.926   5.665   1.129  0.2635 -0.6672 -0.0028
20141SOL     OW62161   0.890   0.023   0.109  0.1843 -0.0404  0.1284
20141SOL    HW162162   0.903  -0.021   0.025  0.4911  0.0453  0.1286
20141SOL    HW262163   0.880  -0.049   0.172 -0.7655 -0.1025 -0.0816
20142SOL     OW62164   0.042   3.261   7.064 -0.2356 -0.1695  0.2800
20142SOL    HW162165   0.030   3.283   6.971  1.6839  1.0309  0.2651
20142SOL    HW262166   0.033   3.344   7.110  0.3601 -0.4922  1.0003
20143SOL     OW62167   7.611   7.863   5.593 -0.0843 -0.5209 -0.0280
20143SOL    HW162168   7.705   7.876   5.583  0.1841 -1.0721  1.6464
20143SOL    HW262169   7.586   7.922   5.664 -1.0692 -0.1641 -0.6511
20144SOL     OW62170   4.157   8.993   2.374  0.3160 -0.0618  0.0750
20144SOL    HW162171   4.091   8.931   2.341 -0.0288 -0.2221  1.0363
20144SOL    HW262172   4.214   8.940   2.428 -1.0364  0.7127  2.4182
20145SOL     OW62173   3.382   1.244   7.142  0.4779  0.2262  0.2892
20145SOL    HW162174   3.423   1.190   7.209 -0.6700  0.0361  0.8756
20145SOL    HW262175   3.408   1.205   7.059  0.3412 -0.7208  0.6866
20146SOL     OW62176   6.474   8.486   1.234 -0.0706 -0.4872 -0.1699
20146SOL    HW162177   6.537   8.464   1.165 -0.3161  0.7337 -0.8124
20146SOL    HW262178   6.467   8.581   1.230 -0.5029 -0.4498  1.1961
20147SOL     OW62179   5.740   8.347   5.126  0.0571  0.1410 -0.1563
20147SOL    HW162180   5.751   8.255   5.100 -0.9985  0.0553 -0.3591
20147SOL    HW262181   5.814   8.393   5.086  1.0723 -0.7471  0.6401
20148SOL     OW62182   6.309   3.998   3.586 -0.1639 -0.1288 -0.4716
20148SOL    HW162183   6.272   3.995   3.674  0.3828 -2.0134 -0.2520
20148SOL    HW262184   6.234   3.989   3.528 -0.3074 -1.8680 -0.0816
20149SOL     OW62185   9.411   6.749   7.198 -0.3254  0.7876 -0.3031
20149SOL    HW162186   9.429   6.730   7.290  1.1066  1.1162 -0.4878
20149SOL    HW262187   9.323   6.787   7.199 -0.3137  0.8539  0.9430
20150SOL     OW62188   7.709   7.094   8.905  0.0411  0.0453  0.1274
20150SOL    HW162189   7.753   7.177   8.923 -1.2564  0.9435 -0.6523
20150SOL    HW262190   7.621   7.119   8.877 -1.4290 -1.7125  2.7461
20151SOL     OW62191   4.558   2.515   6.718 -0.5040 -0.2043 -0.4008
20151SOL    HW162192   4.626   2.572   6.753 -1.3890  0.4163  0.3702
20151SOL    HW262193   4.577   2.511   6.624 -0.0465  0.8577 -0.3780
20152SOL     OW62194   5.073   2.887   7.143  0.5961  0.0929  0.0047
20152SOL    HW162195   5.112   2.975   7.138 -0.7934  0.6908 -0.8853
20152SOL    HW262196   5.006   2.887   7.075  0.2063 -1.4912  0.3602
20153SOL     OW62197   9.383   7.381   8.131 -0.3399  0.0863  0.2855
20153SOL    HW162198   9.373   7.452   8.068 -0.8891  1.5830  1.9661
20153SOL    HW262199   9.400   7.425   8.214  1.2648 -1.8222  1.0660
20154SOL     OW62200   9.266   7.221   0.562 -0.6672  0.7442 -0.2863
20154SOL    HW162201   9.358   7.197   0.563 -0.8817 -0.1114 -0.3659
20154SOL    HW262202   9.220   7.142   0.533 -1.4215  1.1676 -0.2865
20155SOL     OW62203   1.569   7.633   6.269  0.0066 -0.3016 -0.6371
20155SOL    HW162204   1.628   7.708   6.277 -1.1656  0.4816  1.5352
20155SOL    HW262205   1.522   7.630   6.352 -2.0595 -1.7139 -1.7552
20156SOL     OW62206   2.168   4.364   2.797  0.1932  0.1455 -0.1646
20156SOL    HW162207   2.117   4.323   2.867 -1.3881  0.5012 -1.0583
20156SOL    HW262208   2.130   4.331   2.716  1.3741  0.4632 -0.8854
20157SOL     OW62209   2.813   3.362   5.544  0.2232 -0.7783  0.4302
20157SOL    HW162210   2.783   3.283   5.500  0.5962 -0.3501 -0.6045
20157SOL    HW262211   2.908   3.354   5.546  0.2202 -0.7227  1.0324
20158SOL     OW62212   3.104   9.225   8.630 -0.0981  0.1138 -0.8654
20158SOL    HW162213   3.088   9.298   8.570 -0.6527 -1.7510 -3.1277
20158SOL    HW262214   3.057   9.249   8.710 -3.3573  0.6613 -2.7773
20159SOL     OW62215   0.726   6.216   4.851 -0.1494  0.1159 -0.2153
20159SOL    HW162216   0.724   6.292   4.908  2.4119  0.7065 -0.7910
20159SOL    HW262217   0.793   6.236   4.786  0.0049 -2.2578 -0.8972
20160SOL     OW62218   9.264   6.622   5.699 -0.3750 -0.0807  0.0674
20160SOL    HW162219   9.250   6.717   5.696 -0.0907  0.0148  1.0727
20160SOL    HW262220   9.286   6.605   5.791  0.7129 -0.9540 -0.3336
20161SOL     OW62221   3.018   8.210   6.589  0.3162  0.3857  0.1600
20161SOL    HW162222   3.020   8.180   6.498  0.3556  3.4274 -0.9278
20161SOL    HW262223   3.097   8.262   6.599  1.3204 -1.4058  2.6056
20162SOL     OW62224   4.449   5.278   1.317 -0.2506 -0.1997  0.4641
20162SOL    HW162225   4.452   5.213   1.388  1.7884  0.3763  0.9920
20162SOL    HW262226   4.541   5.290   1.293 -0.8831 -0.3787 -2.3234
20163SOL     OW62227   3.927   8.330   9.008  0.6624 -0.5489 -0.0625
20163SOL    HW162228   4.009   8.286   8.987 -0.2750 -1.1627 -2.8671
20163SOL    HW262229   3.877   8.327   8.927 -1.0627  2.2278  0.7646
20164SOL     OW62230   2.978   8.391   3.843  0.2556  0.5899 -0.1560
20164SOL    HW162231   2.905   8.363   3.898  1.1733 -1.1350  0.2585
20164SOL    HW262232   2.974   8.333   3.767  1.3287  0.2695  0.0103
20165SOL     OW62233   4.897   7.492   6.881  0.4598 -0.3504 -0.0087
20165SOL    HW162234   4.817   7.448   6.851  0.3644 -0.2450  0.0853
20165SOL    HW262235   4.928   7.438   6.954 -0.0734  0.1416  0.5948
20166SOL     OW62236   0.763   5.794   5.069  0.1529 -0.7252  0.4049
20166SOL    HW162237   0.776   5.730   5.139  0.7914  0.8024  1.7247
20166SOL    HW262238   0.811   5.757   4.995 -0.5261 -2.3671  0.7264
20167SOL     OW62239   1.118   6.620   3.979  0.0832  0.1444 -0.2124
20167SOL    HW162240   1.176   6.545   3.992  1.5755  1.4499  1.3103
20167SOL    HW262241   1.177   6.695   3.974 -1.4310  1.4303  0.2383
20168SOL     OW62242   1.201   4.583   4.614 -0.0301 -0.0956 -0.3604
20168SOL    HW162243   1.295   4.591   4.634 -0.0864  0.0622 -0.1608
20168SOL    HW262244   1.159   4.651   4.665 -0.2909 -0.3687 -0.2057
20169SOL     OW62245   6.847   6.544   2.987 -0.2450 -0.2198 -0.2917
20169SOL    HW162246   6.792   6.466   2.980 -1.4325  0.6677 -1.2659
20169SOL    HW262247   6.798   6.603   3.044  0.9425 -0.3935  0.9615
20170SOL     OW62248   2.665   9.073   1.313 -0.2339  0.4060 -0.4049
20170SOL    HW162249   2.676   9.011   1.241 -1.7978 -0.1988 -0.1671
20170SOL    HW262250   2.570   9.082   1.323 -0.0660  0.3270  1.6973
20171SOL     OW62251   2.627   2.535   2.802  0.2393 -0.0581  0.2229
20171SOL    HW162252   2.706   2.581   2.831 -0.4799  0.9503  0.6293
20171SOL    HW262253   2.659   2.471   2.739  1.3905  0.3120  0.4032
20172SOL     OW62254   8.749   0.143   0.541 -0.0120  0.2120  0.0147
20172SOL    HW162255   8.675   0.113   0.593  1.4847 -1.9685  0.9894
20172SOL    HW262256   8.775   0.226   0.581 -0.5119 -0.1399  1.0909
20173SOL     OW62257   8.892   9.429   0.773 -0.2465 -0.0224  0.3513
20173SOL    HW162258   8.867   9.423   0.865  0.2185 -0.4153  0.4594
20173SOL    HW262259   8.810   9.432   0.726 -0.5137  1.8115  0.8651
20174SOL     OW62260   5.821   8.011   8.498 -0.2017 -0.2616  0.5113
20174SOL    HW162261   5.727   8.000   8.489 -0.2511 -0.7178  1.4501
20174SOL    HW262262   5.836   8.104   8.482 -0.7602 -0.2577 -0.0073
20175SOL     OW62263   6.949   8.662   3.825  0.3541 -0.3082  0.0531
20175SOL    HW162264   6.963   8.604   3.900 -0.8690 -1.3458 -0.4947
20175SOL    HW262265   6.870   8.711   3.847 -0.7412 -1.5137 -1.0639
20176SOL     OW62266   0.789   4.616   6.780 -0.2626  0.8028 -0.3211
20176SOL    HW162267   0.745   4.598   6.697 -0.1525  0.1232 -0.2381
20176SOL    HW262268   0.882   4.609   6.761 -0.2607 -1.2347  0.2476
20177SOL     OW62269   2.808   9.352   3.558  0.3811 -0.9233 -0.4514
20177SOL    HW162270   2.761   9.435   3.552  1.3298 -0.3650 -0.2980
20177SOL    HW262271   2.743   9.290   3.589 -0.5908 -0.4558 -1.4864
20178SOL     OW62272   4.303   7.106   3.979  0.1170 -0.8086  0.1292
20178SOL    HW162273   4.301   7.088   4.073 -2.0422  0.8731  0.4884
20178SOL    HW262274   4.347   7.191   3.972  0.5395 -1.0721 -0.4134
20179SOL     OW62275   0.423   3.850   7.906  0.2227  0.2052 -0.1516
20179SOL    HW162276   0.385   3.806   7.830  0.2415 -0.9170  0.4608
20179SOL    HW262277   0.348   3.888   7.953  0.1267  0.1990 -0.3011
20180SOL     OW62278   8.879   7.005   8.440  0.7952 -0.3127  0.3351
20180SOL    HW162279   8.844   7.056   8.367 -0.1725 -0.5621  0.6153
20180SOL    HW262280   8.869   6.914   8.413  1.2973 -0.3918  0.3982
20181SOL     OW62281   8.817   5.942   4.623 -0.0942  0.4639  0.0576
20181SOL    HW162282   8.794   5.858   4.662  0.0902  0.0581 -0.6834
20181SOL    HW262283   8.742   5.999   4.644 -0.0097  0.2580  0.9572
20182SOL     OW62284   0.610   2.118   2.996  0.0136  0.1367 -0.2172
20182SOL    HW162285   0.584   2.120   2.904  1.5443 -0.3144 -0.6970
20182SOL    HW262286   0.662   2.038   3.005 -1.3485 -0.6226  1.4152
20183SOL     OW62287   1.632   1.972   3.145 -0.0183  0.4815 -0.2069
20183SOL    HW162288   1.722   1.963   3.113  0.1419  0.2355  0.3096
20183SOL    HW262289   1.633   2.050   3.201 -0.5406  1.5502 -1.6109
20184SOL     OW62290   9.195   5.257   1.234  0.0979 -0.6608 -0.2909
20184SOL    HW162291   9.264   5.215   1.182  0.0087  0.2670 -1.1995
20184SOL    HW262292   9.241   5.328   1.280 -0.4312  0.7809 -1.8892
20185SOL     OW62293   0.322   1.182   1.452 -0.3391  0.1426  0.6900
20185SOL    HW162294   0.281   1.098   1.472  0.7290 -0.0354  2.3767
20185SOL    HW262295   0.386   1.161   1.384 -1.3172 -0.0447 -0.1877
20186SOL     OW62296   8.433   6.414   6.526  0.6080  0.1145 -0.4048
20186SOL    HW162297   8.342   6.443   6.528  0.0971 -1.3324 -1.1028
20186SOL    HW262298   8.482   6.490   6.496 -0.2438  1.1644  0.7434
20187SOL     OW62299   1.087   0.935   2.365  0.1948 -0.2248  0.3503
20187SOL    HW162300   1.107   0.976   2.449  1.3541 -0.3561  0.1498
20187SOL    HW262301   0.996   0.905   2.374  0.5216 -0.8756  1.8174
20188SOL     OW62302   6.326   2.113   8.190  0.6051  0.1221 -0.5604
20188SOL    HW162303   6.317   2.018   8.191 -1.0006  0.2378 -0.3009
20188SOL    HW262304   6.244   2.145   8.229  1.6489  1.5910  0.5272
20189SOL     OW62305   1.972   6.935   6.978 -0.5075  0.0279  0.0992
20189SOL    HW162306   1.965   6.843   7.004  1.4697 -0.0214  0.6055
20189SOL    HW262307   1.961   6.984   7.059 -1.0634  0.2308 -0.0923
20190SOL     OW62308   8.380   2.905   7.935 -0.9641  0.0703 -0.6434
20190SOL    HW162309   8.435   2.906   8.014 -1.2967 -0.2983 -0.4071
20190SOL    HW262310   8.436   2.864   7.868 -1.3206 -1.3034 -0.1236
20191SOL     OW62311   5.861   0.063   5.395  0.5065 -0.6007 -0.2869
20191SOL    HW162312   5.798   0.004   5.355 -1.2162  0.0232  1.3844
20191SOL    HW262313   5.904   0.010   5.463  0.1994 -0.4086  0.0564
20192SOL     OW62314   4.688   4.440   6.929 -0.0755 -0.1944 -0.3454
20192SOL    HW162315   4.603   4.479   6.911  0.6381  2.3644  1.2480
20192SOL    HW262316   4.683   4.411   7.020  0.5535 -0.7001 -0.4567
20193SOL     OW62317   3.053   8.848   4.304 -0.6371 -0.0309 -0.1063
20193SOL    HW162318   3.072   8.800   4.385 -1.4340 -0.0677  0.0653
20193SOL    HW262319   2.968   8.814   4.275 -1.5342  1.6762  0.3496
20194SOL     OW62320   7.167   0.085   5.724 -0.0609 -0.3212 -0.6008
20194SOL    HW162321   7.222   0.010   5.748 -1.0450 -1.4645 -1.7691
20194SOL    HW262322   7.209   0.121   5.646  0.0965  0.0166 -0.3637
20195SOL     OW62323   5.207   2.976   8.330  0.2339  0.3233 -0.3011
20195SOL    HW162324   5.146   2.925   8.383  0.0673 -2.1077 -2.6207
20195SOL    HW262325   5.287   2.979   8.382 -1.3525  2.6634  2.3321
20196SOL     OW62326   7.839   1.476   6.399 -0.5042  0.4509 -0.1315
20196SOL    HW162327   7.791   1.437   6.325  0.9565  0.1870 -0.9719
20196SOL    HW262328   7.801   1.434   6.476 -0.7563 -0.6958 -0.8477
20197SOL     OW62329   3.631   1.998   9.261 -0.0781  0.0259 -0.1142
20197SOL    HW162330   3.711   1.979   9.212  0.4936 -1.5542  1.3167
20197SOL    HW262331   3.651   2.076   9.312  1.0442 -1.0380  1.1492
20198SOL     OW62332   7.861   6.210   9.142 -0.4631 -0.2522 -0.4582
20198SOL    HW162333   7.904   6.151   9.204 -1.0211 -1.1567 -0.9096
20198SOL    HW262334   7.794   6.155   9.099 -1.5025  0.8958 -0.3618
20199SOL     OW62335   8.170   2.123   7.946  0.0195  0.0598  0.5072
20199SOL    HW162336   8.088   2.096   7.903  0.5390  2.4454 -2.2434
20199SOL    HW262337   8.183   2.057   8.014 -2.9648 -1.7367 -0.4480
20200SOL     OW62338   4.582   9.053   0.533 -0.1029 -0.5019  0.3441
20200SOL    HW162339   4.581   8.958   0.544 -1.6133 -0.5980 -0.2588
20200SOL    HW262340   4.670   9.074   0.503  0.2321 -1.7168  0.4546
20201SOL     OW62341   6.269   8.689   6.215 -0.6057 -0.1268 -0.1675
20201SOL    HW162342   6.238   8.602   6.191 -1.0651  0.3084 -1.2239
20201SOL    HW262343   6.262   8.692   6.311 -1.2528 -0.9926 -0.1778
20202SOL     OW62344   2.650   3.018   8.957  0.7067  0.1959  0.5586
20202SOL    HW162345   2.589   3.033   9.029  1.3097 -1.0018  1.3575
20202SOL    HW262346   2.637   2.926   8.935  2.2531 -0.0985  0.7975
20203SOL     OW62347   0.876   5.201   2.508 -0.1405 -0.5452 -0.4011
20203SOL    HW162348   0.937   5.179   2.578 -1.1895 -0.9337  0.4136
20203SOL    HW262349   0.926   5.257   2.449  1.2338 -1.5155 -0.1786
20204SOL     OW62350   3.540   7.642   3.936 -0.3263  0.4558 -0.5082
20204SOL    HW162351   3.627   7.628   3.974 -0.7877  1.2347  0.9551
20204SOL    HW262352   3.537   7.736   3.918 -1.5227  0.8303  1.3420
20205SOL     OW62353   8.488   0.695   0.217  0.4038 -0.4529 -0.6214
20205SOL    HW162354   8.415   0.642   0.248 -0.3156  0.9661  0.2139
20205SOL    HW262355   8.530   0.726   0.297 -0.9185  2.5122 -0.9594
20206SOL     OW62356   1.597   4.153   8.157  0.1214  0.1647  0.1633
20206SOL    HW162357   1.529   4.173   8.093  0.1108 -1.0539 -0.2439
20206SOL    HW262358   1.595   4.057   8.164  1.6778  0.1095  0.2528
20207SOL     OW62359   5.894   4.615   9.351 -0.3455 -1.0817 -0.0067
20207SOL    HW162360   5.909   4.536   9.402  1.0879 -0.1327  1.1191
20207SOL    HW262361   5.832   4.666   9.404 -1.2298 -1.4113 -0.7056
20208SOL     OW62362   4.197   3.760   3.391  0.2134  0.0009 -0.2987
20208SOL    HW162363   4.199   3.703   3.314 -0.2869 -0.8854  0.3290
20208SOL    HW262364   4.242   3.840   3.362 -0.8633  0.0963 -1.8235
20209SOL     OW62365   2.171   2.905   7.186 -0.5150  0.6189 -0.5456
20209SOL    HW162366   2.123   2.901   7.269 -0.7596  0.4563 -0.6945
20209SOL    HW262367   2.223   2.825   7.184  1.3189  1.6899  0.5459
20210SOL     OW62368   7.810   3.927   2.330 -0.0391  0.4467  0.5170
20210SOL    HW162369   7.759   3.977   2.267  0.2713 -0.1538 -0.2146
20210SOL    HW262370   7.745   3.878   2.380 -0.2331  0.2151  0.0447
20211SOL     OW62371   2.028   1.459   2.741  0.4142 -0.0250  0.2022
20211SOL    HW162372   2.080   1.539   2.737 -0.2949  0.5024  1.0611
20211SOL    HW262373   1.975   1.461   2.661 -0.0149  0.6654  0.4967
20212SOL     OW62374   7.593   8.754   5.036  0.0762 -0.0889 -0.4049
20212SOL    HW162375   7.671   8.713   5.074  0.2704 -0.1790 -0.8878
20212SOL    HW262376   7.568   8.695   4.965 -2.0180 -1.4894  1.3688
20213SOL     OW62377   9.054   3.789   3.518  0.7503 -0.4389 -0.1422
20213SOL    HW162378   9.099   3.787   3.433  2.0975 -0.2150  0.5422
20213SOL    HW262379   8.970   3.831   3.500  1.0363 -0.3504 -1.3519
20214SOL     OW62380   2.105   3.823   9.094  0.2925 -0.5949 -0.2528
20214SOL    HW162381   2.144   3.844   9.009  0.1800  1.6392  0.2046
20214SOL    HW262382   2.012   3.808   9.074  0.0989  0.7741 -0.4232
20215SOL     OW62383   1.256   6.421   7.428  0.0948 -0.5363  0.1114
20215SOL    HW162384   1.226   6.502   7.469 -1.4806 -0.6799 -0.7013
20215SOL    HW262385   1.289   6.448   7.343  0.9944 -0.5747  0.4332
20216SOL     OW62386   4.758   3.591   3.659 -0.2536 -0.3157  0.6718
20216SOL    HW162387   4.823   3.661   3.653 -0.4469  0.0763  2.5970
20216SOL    HW262388   4.679   3.628   3.621 -0.2949  0.4607  1.4777
20217SOL     OW62389   5.741   2.733   5.439  0.0090  0.8818  0.4945
20217SOL    HW162390   5.678   2.720   5.368  0.7540 -0.1093 -0.0031
20217SOL    HW262391   5.708   2.809   5.486 -1.3229  0.6495 -0.0159
20218SOL     OW62392   5.945   0.722   7.046  0.0804 -0.0780 -0.0414
20218SOL    HW162393   5.917   0.759   6.962 -0.6281 -1.5950 -0.4967
20218SOL    HW262394   5.997   0.645   7.022  0.9582  0.1944  0.9010
20219SOL     OW62395   7.507   4.066   6.064  0.2708  0.3084  0.4138
20219SOL    HW162396   7.575   4.028   6.119  0.1310 -0.3220  0.1539
20219SOL    HW262397   7.455   3.992   6.033  0.5281  0.6152 -0.8144
20220SOL     OW62398   2.724   8.688   4.539  0.2688  0.1527 -0.4808
20220SOL    HW162399   2.706   8.742   4.462  1.4233 -0.8029 -1.4528
20220SOL    HW262400   2.658   8.618   4.535 -1.7531  1.8152  1.2203
20221SOL     OW62401   2.832   2.276   0.922  0.0210  0.4889  0.2894
20221SOL    HW162402   2.757   2.243   0.972  0.9775 -0.8418  0.8807
20221SOL    HW262403   2.794   2.344   0.866 -1.6355 -0.1427  0.5737
20222SOL     OW62404   3.623   4.539   0.520  0.1788  0.7016 -0.5210
20222SOL    HW162405   3.557   4.492   0.470  1.4413 -0.9474 -0.6860
20222SOL    HW262406   3.693   4.557   0.458  0.3510  1.5419 -0.1043
20223SOL     OW62407   3.768   1.724   5.366  0.1628  0.7594 -0.1893
20223SOL    HW162408   3.758   1.763   5.453 -0.2210 -0.3777  0.2858
20223SOL    HW262409   3.843   1.770   5.329  2.3878 -0.8268  1.9599
20224SOL     OW62410   7.298   5.024   7.232 -0.2037  0.1881 -0.2218
20224SOL    HW162411   7.246   5.018   7.152 -1.0915 -0.4628  0.3857
20224SOL    HW262412   7.234   5.038   7.302  0.5038  0.1158  0.4593
20225SOL     OW62413   5.071   8.756   8.521  0.2103 -0.0564  0.0208
20225SOL    HW162414   5.100   8.833   8.472 -1.1018 -0.2195 -1.0737
20225SOL    HW262415   5.124   8.757   8.601  1.3222  1.0920 -0.6864
20226SOL     OW62416   6.601   6.207   5.145  0.7167  0.0252 -0.1252
20226SOL    HW162417   6.554   6.288   5.166  0.4845  0.4091 -1.9851
20226SOL    HW262418   6.693   6.231   5.153  0.7337  1.1619 -2.7159
20227SOL     OW62419   8.981   1.199   0.351 -0.0242  0.1953  0.4635
20227SOL    HW162420   9.040   1.124   0.346 -1.3201 -0.7952 -0.8719
20227SOL    HW262421   8.991   1.243   0.266 -1.6052 -0.3368 -0.0212
20228SOL     OW62422   3.012   6.662   8.426  0.0735  1.0037  0.7684
20228SOL    HW162423   2.928   6.618   8.440  0.3436  0.3638  0.4642
20228SOL    HW262424   3.073   6.590   8.410  0.1784  1.5587 -1.6187
20229SOL     OW62425   0.495   9.068   5.553 -0.0394 -0.4686 -0.3496
20229SOL    HW162426   0.491   9.029   5.641 -0.5315 -0.5635 -0.4071
20229SOL    HW262427   0.542   9.004   5.501  0.5073 -0.2810 -0.0873
20230SOL     OW62428   3.343   7.644   4.751  0.3953  0.0506  0.3049
20230SOL    HW162429   3.327   7.682   4.837  0.5334  0.1331  0.2946
20230SOL    HW262430   3.369   7.553   4.769  0.6563  0.1365  0.3635
20231SOL     OW62431   6.213   2.545   2.798 -0.5343  0.1967  0.4984
20231SOL    HW162432   6.174   2.632   2.791 -1.5685 -0.3487 -0.9935
20231SOL    HW262433   6.156   2.497   2.858 -1.7850 -0.3617 -1.0774
20232SOL     OW62434   9.308   7.192   4.566  0.2427  0.0002 -0.9727
20232SOL    HW162435   9.351   7.133   4.505 -0.1364 -0.4781 -0.7800
20232SOL    HW262436   9.363   7.271   4.566  0.8571 -0.4273 -1.0722
20233SOL     OW62437   8.654   1.158   2.285  0.5117 -0.1041  0.0020
20233SOL    HW162438   8.691   1.240   2.251 -0.7947  0.6218  0.2897
20233SOL    HW262439   8.669   1.094   2.215 -0.2324  0.8631 -1.0693
20234SOL     OW62440   7.933   0.325   5.152 -0.1756  0.9053  0.1464
20234SOL    HW162441   7.978   0.240   5.146 -0.5839  0.7494 -0.9484
20234SOL    HW262442   7.959   0.360   5.237 -0.9588 -0.8746  1.1750
20235SOL     OW62443   2.962   0.961   4.947 -0.0019 -0.4453 -0.2379
20235SOL    HW162444   2.906   1.037   4.961  1.0019  0.3144 -0.2963
20235SOL    HW262445   3.027   0.965   5.017 -1.1776 -2.4594  1.0696
20236SOL     OW62446   5.337   6.819   0.466  0.2113 -0.4360 -0.4048
20236SOL    HW162447   5.252   6.825   0.510  0.4261 -1.0124  0.1162
20236SOL    HW262448   5.393   6.774   0.529  0.2842 -2.1491 -1.6101
20237SOL     OW62449   6.423   0.994   4.786 -0.1782  0.1771  0.0343
20237SOL    HW162450   6.401   1.063   4.724 -2.4960 -0.8597 -0.4114
20237SOL    HW262451   6.353   0.996   4.851  0.7841 -0.4712  1.1441
20238SOL     OW62452   5.983   8.983   5.330  0.2555  0.0313 -0.1412
20238SOL    HW162453   5.913   9.040   5.299  1.0813  0.7980 -0.6296
20238SOL    HW262454   5.960   8.965   5.421 -0.3762  0.5807 -0.1840
20239SOL     OW62455   0.124   1.587   3.801 -0.0606  0.1325  0.0124
20239SOL    HW162456   0.081   1.508   3.833  0.6874  0.0055  0.7505
20239SOL    HW262457   0.160   1.562   3.716  0.3408 -0.3873  0.3306
20240SOL     OW62458   5.320   6.219   5.431 -0.3267  0.7012 -0.5553
20240SOL    HW162459   5.349   6.160   5.362 -0.5191 -0.7472  0.5674
20240SOL    HW262460   5.261   6.167   5.485  1.8319  0.8919  2.2447
20241SOL     OW62461   0.134   8.318   6.556 -0.0370  0.1697  0.2865
20241SOL    HW162462   0.151   8.265   6.478  1.2455 -0.5815  1.0352
20241SOL    HW262463   0.176   8.402   6.538 -0.2226  0.1942 -0.0421
20242SOL     OW62464   6.612   6.419   4.578  0.0580 -0.4173 -0.4049
20242SOL    HW162465   6.696   6.373   4.572  0.1018 -0.4308  0.2296
20242SOL    HW262466   6.597   6.452   4.490  0.6072 -0.6326 -0.5873
20243SOL     OW62467   5.060   3.651   9.035 -0.5335  0.1943 -0.4577
20243SOL    HW162468   4.975   3.620   9.004  0.8730 -2.2204 -2.1866
20243SOL    HW262469   5.100   3.694   8.959 -0.1559  1.2850  0.3295
20244SOL     OW62470   8.827   8.514   0.795  0.3392 -0.2171 -0.0087
20244SOL    HW162471   8.809   8.426   0.826  1.9294 -0.3772  0.5041
20244SOL    HW262472   8.919   8.513   0.768  0.3026  1.2001 -0.2987
20245SOL     OW62473   7.909   7.460   9.381 -0.0580 -0.1161 -0.3672
20245SOL    HW162474   7.832   7.435   9.329 -0.6030  0.8709 -0.0624
20245SOL    HW262475   7.967   7.384   9.375 -1.3947 -1.2378  0.0651
20246SOL     OW62476   7.887   7.370   0.924  0.3417  0.0900  0.0930
20246SOL    HW162477   7.856   7.281   0.908  1.1510 -0.3924  1.0515
20246SOL    HW262478   7.808   7.418   0.951  0.0920 -0.6359  0.6890
20247SOL     OW62479   2.294   0.652   7.607 -0.4247  0.4866  0.0341
20247SOL    HW162480   2.324   0.565   7.633 -0.8943  0.9350  2.3545
20247SOL    HW262481   2.369   0.709   7.621 -0.4681  0.6344 -0.3302
20248SOL     OW62482   8.120   5.625   6.313  0.0241 -0.3367  0.0996
20248SOL    HW162483   8.142   5.584   6.229  0.0090 -0.5460  0.1975
20248SOL    HW262484   8.031   5.595   6.331 -0.9983  1.7358 -1.0652
20249SOL     OW62485   2.548   8.208   1.274 -0.0161 -0.7054 -0.0442
20249SOL    HW162486   2.516   8.184   1.187 -0.4898 -0.0716 -0.0572
20249SOL    HW262487   2.491   8.280   1.301 -0.1074 -1.1237  0.9412
20250SOL     OW62488   7.776   4.004   8.944 -0.1086  0.0637  0.4251
20250SOL    HW162489   7.754   4.091   8.979 -0.4703  0.1208  0.0686
20250SOL    HW262490   7.707   3.947   8.978  0.0189 -0.0466  0.4999
20251SOL     OW62491   2.112   9.113   1.230 -0.4355 -0.0272  0.1459
20251SOL    HW162492   2.085   9.092   1.140 -1.2156 -0.1857  0.4068
20251SOL    HW262493   2.049   9.179   1.258  1.9605  2.7890 -0.6627
20252SOL     OW62494   6.594   3.995   2.220  0.3997  0.4791  0.5079
20252SOL    HW162495   6.565   4.034   2.137  1.7716 -0.7196 -0.5696
20252SOL    HW262496   6.606   3.902   2.200  1.9524  0.3901  1.7153
20253SOL     OW62497   8.437   2.227   0.380 -0.1384  0.1996 -0.0851
20253SOL    HW162498   8.472   2.248   0.293 -0.4727 -0.0109 -0.2687
20253SOL    HW262499   8.433   2.132   0.382 -1.8738  0.2404 -0.5296
20254SOL     OW62500   3.193   7.098   1.929  0.2195  0.1568  0.4005
20254SOL    HW162501   3.177   7.060   2.015 -1.4642 -0.7720 -0.2742
20254SOL    HW262502   3.272   7.055   1.898  0.0731 -0.5004  0.9278
20255SOL     OW62503   2.117   3.832   8.554  0.4477 -0.7379 -0.2429
20255SOL    HW162504   2.186   3.769   8.573  0.3560 -0.3853  1.4148
20255SOL    HW262505   2.043   3.802   8.607 -1.5136 -2.3979 -3.5901
20256SOL     OW62506   8.687   2.569   5.309 -0.2163 -0.1045  0.0631
20256SOL    HW162507   8.769   2.520   5.305 -0.2623 -0.2304  0.5712
20256SOL    HW262508   8.633   2.532   5.240  0.5504  0.7198 -1.0092
20257SOL     OW62509   2.398   2.184   6.283  0.1773  0.7882 -0.4087
20257SOL    HW162510   2.417   2.223   6.369 -0.5831  0.5018 -0.1019
20257SOL    HW262511   2.452   2.105   6.280  1.1998  1.4774 -0.7479
20258SOL     OW62512   0.607   4.532   6.008 -0.5358  0.7389 -0.3569
20258SOL    HW162513   0.639   4.567   6.091 -0.5237 -0.6698  0.2576
20258SOL    HW262514   0.683   4.491   5.968 -1.0648 -0.7543  0.1112
20259SOL     OW62515   2.411   6.965   0.230 -0.5352  0.0121  0.2124
20259SOL    HW162516   2.451   6.965   0.317 -0.8293  0.7741  0.3566
20259SOL    HW262517   2.443   7.045   0.188  1.1948 -1.3116 -1.1507
20260SOL     OW62518   5.114   7.157   1.911 -0.1574 -0.4021 -0.5242
20260SOL    HW162519   5.038   7.119   1.954  0.8031 -1.7168  0.0738
20260SOL    HW262520   5.157   7.083   1.869  1.9051 -0.0666  0.8583
20261SOL     OW62521   7.353   5.037   3.181 -0.1116 -0.6129 -0.6842
20261SOL    HW162522   7.291   5.069   3.247  0.7985 -0.7205  0.2481
20261SOL    HW262523   7.382   5.115   3.134 -1.0411 -0.5763 -1.2161
20262SOL     OW62524   9.521   9.339   8.765  0.1167  0.2398 -0.1730
20262SOL    HW162525   9.428   9.325   8.747 -0.1687 -0.2066  1.4626
20262SOL    HW262526   9.524   9.423   8.812  0.7814  1.1853 -1.8154
20263SOL     OW62527   3.223   8.092   0.336 -0.0184  0.0776 -0.1615
20263SOL    HW162528   3.166   8.087   0.259  1.5919  0.5337 -1.4344
20263SOL    HW262529   3.182   8.032   0.400 -1.0893 -0.7517 -1.5610
20264SOL     OW62530   4.099   0.434   4.769  0.1182 -0.1611  0.6164
20264SOL    HW162531   4.151   0.399   4.842  0.9686  0.9685  0.5851
20264SOL    HW262532   4.017   0.462   4.809  0.1716 -0.4799  0.9578
20265SOL     OW62533   8.006   2.081   8.783 -0.2982  0.2961  0.3668
20265SOL    HW162534   7.990   1.986   8.777 -0.4500  0.3686 -0.4488
20265SOL    HW262535   8.095   2.093   8.750 -0.3548  0.4603  0.2723
20266SOL     OW62536   2.363   4.516   4.403 -0.5141 -0.2317  0.5594
20266SOL    HW162537   2.296   4.564   4.355 -0.6877 -0.2457  0.7854
20266SOL    HW262538   2.436   4.508   4.341 -0.7010 -0.1732  0.3289
20267SOL     OW62539   4.797   3.316   3.566  0.2188 -0.0708 -0.6620
20267SOL    HW162540   4.774   3.406   3.588  1.2282  0.2807 -0.9772
20267SOL    HW262541   4.872   3.324   3.507  0.9378 -1.1343  0.0533
20268SOL     OW62542   5.024   6.101   3.487  0.8114 -0.1313  0.0868
20268SOL    HW162543   4.970   6.069   3.559  0.0243 -0.7557 -0.7559
20268SOL    HW262544   5.084   6.028   3.468  0.2458 -0.4142 -0.6359
20269SOL     OW62545   0.762   1.621   1.722 -0.7707 -0.1472 -0.1916
20269SOL    HW162546   0.670   1.613   1.746 -0.6373  1.5454  1.0853
20269SOL    HW262547   0.791   1.531   1.710 -1.8908 -0.9362  2.2387
20270SOL     OW62548   3.660   0.552   8.276 -0.3293 -0.8464  0.0970
20270SOL    HW162549   3.725   0.585   8.214  0.0672 -1.2221  0.3049
20270SOL    HW262550   3.708   0.545   8.359 -0.9085 -0.1355  0.5097
20271SOL     OW62551   6.618   9.163   8.743 -0.1143 -0.0872 -0.3620
20271SOL    HW162552   6.579   9.217   8.812  1.1594  2.7176 -1.6874
20271SOL    HW262553   6.544   9.119   8.702 -1.1378  0.0702  1.2273
20272SOL     OW62554   7.277   1.795   6.259  0.0487 -0.3378 -0.5485
20272SOL    HW162555   7.292   1.830   6.347 -0.3589  0.1309 -0.6623
20272SOL    HW262556   7.352   1.825   6.208  1.6884 -2.7601  0.2201
20273SOL     OW62557   9.575   2.843   8.311 -0.0214 -0.7041 -0.6164
20273SOL    HW162558   9.594   2.886   8.394 -0.0029 -0.1357 -0.9043
20273SOL    HW262559   9.504   2.895   8.273 -0.2470 -1.1477 -0.8122
20274SOL     OW62560   1.122   5.435   6.836 -0.0398 -0.0667 -0.1011
20274SOL    HW162561   1.201   5.459   6.788  0.1177  1.9584  1.0362
20274SOL    HW262562   1.123   5.491   6.914 -2.6576  0.1240 -0.1077
20275SOL     OW62563   6.407   1.385   0.707 -0.0841 -0.1294 -0.5614
20275SOL    HW162564   6.322   1.348   0.730  0.5101 -0.4464  1.2654
20275SOL    HW262565   6.391   1.479   0.702 -0.3303 -0.0692  0.9225
20276SOL     OW62566   9.310   1.653   3.837  0.3024  0.0362 -0.3998
20276SOL    HW162567   9.390   1.634   3.787 -0.4985 -1.2536 -1.2508
20276SOL    HW262568   9.339   1.657   3.928  1.2113 -1.3062 -0.6038
20277SOL     OW62569   0.111   2.665   6.493 -0.4050  0.2543 -0.0166
20277SOL    HW162570   0.079   2.736   6.438  0.1025  0.3914 -0.1440
20277SOL    HW262571   0.113   2.703   6.581 -0.0977  0.4140 -0.0899
20278SOL     OW62572   0.148   0.907   4.971  0.4895 -0.3380  0.3357
20278SOL    HW162573   0.147   0.915   4.876 -0.0651 -1.5104  0.2259
20278SOL    HW262574   0.173   0.816   4.988  1.0238 -0.0265  1.3283
20279SOL     OW62575   8.500   4.277   2.709 -0.4527  0.6542  0.3265
20279SOL    HW162576   8.513   4.219   2.784 -0.9100  1.8904  1.3993
20279SOL    HW262577   8.564   4.347   2.722 -2.0431  2.0704  0.8297
20280SOL     OW62578   6.715   9.315   5.304 -1.1575  0.1951 -0.0474
20280SOL    HW162579   6.695   9.310   5.397 -0.6590 -0.7083  0.0231
20280SOL    HW262580   6.642   9.364   5.267 -0.6055  1.8954  1.0193
20281SOL     OW62581   6.755   4.499   4.506  0.1831  0.3012 -0.3812
20281SOL    HW162582   6.799   4.584   4.499 -0.1104  0.5516  0.6003
20281SOL    HW262583   6.731   4.476   4.416  0.4043  1.1814 -0.6710
20282SOL     OW62584   6.435   0.422   0.419 -0.0770  0.3146 -0.1014
20282SOL    HW162585   6.426   0.481   0.494 -1.1354 -0.6590  0.5727
20282SOL    HW262586   6.529   0.418   0.403  0.1637  0.6850  1.0744
20283SOL     OW62587   6.432   6.694   6.010 -0.2489 -0.2465 -0.6182
20283SOL    HW162588   6.466   6.754   5.944  1.5097  0.0270  0.4695
20283SOL    HW262589   6.424   6.610   5.965 -1.8658  0.5373 -1.9079
20284SOL     OW62590   2.635   6.392   5.987 -0.6351  0.0904 -0.1642
20284SOL    HW162591   2.681   6.468   6.023 -1.9309 -0.3241  2.6171
20284SOL    HW262592   2.548   6.426   5.964 -0.2510  0.0498 -1.8018
20285SOL     OW62593   0.269   4.961   4.560 -0.4436 -0.1765  0.4467
20285SOL    HW162594   0.325   4.957   4.483 -0.2596 -1.5777  0.6314
20285SOL    HW262595   0.257   4.870   4.586 -1.9132  0.1575  1.0645
20286SOL     OW62596   0.416   7.352   0.826 -0.5206 -0.4688  0.1522
20286SOL    HW162597   0.409   7.355   0.731 -0.0467  1.7606  0.1128
20286SOL    HW262598   0.340   7.401   0.858  0.5846  0.9413  0.7655
20287SOL     OW62599   2.178   6.156   6.514  0.3697  0.3050 -0.3719
20287SOL    HW162600   2.186   6.250   6.501 -0.1663  0.3067 -0.6963
20287SOL    HW262601   2.087   6.136   6.495  0.7010 -0.4309 -1.3181
20288SOL     OW62602   2.686   0.135   0.433  0.1337  0.2438 -0.6515
20288SOL    HW162603   2.636   0.156   0.354  1.5407 -1.2077 -2.0102
20288SOL    HW262604   2.655   0.048   0.459  1.7065 -0.5737 -1.3820
20289SOL     OW62605   3.987   0.981   8.849 -0.8012  0.2642 -0.6759
20289SOL    HW162606   3.958   0.997   8.760 -1.3732 -0.9656 -0.7340
20289SOL    HW262607   4.075   0.946   8.840  0.2136  2.5918 -0.5783
20290SOL     OW62608   4.917   6.670   8.490 -0.0203 -0.8874  0.0114
20290SOL    HW162609   4.902   6.617   8.412 -0.2967  0.2077 -0.6999
20290SOL    HW262610   4.835   6.665   8.539 -1.1931  1.2750 -1.5510
20291SOL     OW62611   2.490   4.707   0.132  0.6483 -0.0106 -0.5585
20291SOL    HW162612   2.527   4.620   0.117  1.8763  0.7932 -2.5134
20291SOL    HW262613   2.526   4.733   0.217 -0.4359 -1.6945  0.4995
20292SOL     OW62614   5.145   5.855   1.399  0.1037 -0.6666  0.2105
20292SOL    HW162615   5.159   5.790   1.468  0.6639 -0.4284  0.3265
20292SOL    HW262616   5.113   5.933   1.444 -1.7308 -1.2078 -0.0528
20293SOL     OW62617   5.828   7.061   1.947 -0.5366 -0.1520  0.1497
20293SOL    HW162618   5.749   7.067   1.893 -0.4209  0.7294  0.0655
20293SOL    HW262619   5.877   6.987   1.909 -0.0877  0.9184 -1.4838
20294SOL     OW62620   2.804   2.537   8.858 -0.6055  0.1784  0.0591
20294SOL    HW162621   2.793   2.444   8.840  0.1094  0.3611 -1.4916
20294SOL    HW262622   2.768   2.581   8.782  0.8850  1.0938 -0.1696
20295SOL     OW62623   6.229   4.380   6.590 -0.2627  0.1216  0.3082
20295SOL    HW162624   6.233   4.419   6.677  2.3786  0.2656  0.1955
20295SOL    HW262625   6.182   4.444   6.537 -1.7130  0.1280  1.5323
20296SOL     OW62626   3.908   9.054   1.384  0.1894  0.0369 -0.6502
20296SOL    HW162627   3.942   9.036   1.472 -1.4687 -1.8783 -0.3265
20296SOL    HW262628   3.963   9.125   1.351 -0.2641  2.1095  2.6009
20297SOL     OW62629   1.976   2.082   3.648  0.2544  0.0180  0.3592
20297SOL    HW162630   1.910   2.151   3.636 -1.1408 -1.0686  1.4573
20297SOL    HW262631   2.047   2.125   3.697 -0.2022  0.8965  0.2652
20298SOL     OW62632   7.547   4.335   4.816 -0.4273  0.3082  0.3007
20298SOL    HW162633   7.574   4.244   4.828 -2.4744 -0.4872 -0.6144
20298SOL    HW262634   7.586   4.382   4.890  0.0970 -1.4326  1.1886
20299SOL     OW62635   5.152   8.907   3.081 -0.1122  0.8680  0.1094
20299SOL    HW162636   5.142   8.951   2.997 -1.5820  0.3105 -0.0316
20299SOL    HW262637   5.072   8.930   3.130  0.6763  1.1161  1.3273
20300SOL     OW62638   9.458   8.418   6.459 -0.2965 -0.1413  0.2036
20300SOL    HW162639   9.475   8.461   6.543  0.9277 -0.7618  0.3014
20300SOL    HW262640   9.480   8.327   6.474  1.1775 -0.0527 -1.1104
20301SOL     OW62641   6.428   8.332   7.782 -0.3553  0.1451  0.5085
20301SOL    HW162642   6.473   8.372   7.708 -1.5611  0.1403 -0.2634
20301SOL    HW262643   6.492   8.273   7.821 -0.0760 -0.8320 -1.3196
20302SOL     OW62644   7.515   6.634   2.758  0.0993 -0.2957 -0.0309
20302SOL    HW162645   7.477   6.599   2.838  1.0863  0.2252  0.7014
20302SOL    HW262646   7.442   6.642   2.697 -0.5818 -1.1448  0.6618
20303SOL     OW62647   2.246   6.329   9.271 -0.3768 -0.1346  0.3857
20303SOL    HW162648   2.291   6.265   9.325 -1.2769 -1.8724 -0.8457
20303SOL    HW262649   2.316   6.378   9.228  0.3362 -1.3916  0.0858
20304SOL     OW62650   6.979   4.024   8.858 -0.2087  0.3814  0.0774
20304SOL    HW162651   6.905   3.986   8.811 -2.7752  2.0391  2.5276
20304SOL    HW262652   7.016   4.088   8.797 -2.1873  1.0664 -0.4496
20305SOL     OW62653   0.333   1.349   8.916 -0.1455  0.2275  0.0342
20305SOL    HW162654   0.387   1.426   8.933 -0.9622  0.6277  0.8674
20305SOL    HW262655   0.243   1.382   8.915 -0.5054 -0.7163  0.4098
20306SOL     OW62656   3.948   0.631   1.420 -0.1788  0.5125 -0.1661
20306SOL    HW162657   3.868   0.673   1.454  0.8427  1.0466  1.6863
20306SOL    HW262658   3.999   0.704   1.384 -0.4042  0.1950 -1.1644
20307SOL     OW62659   5.777   6.609   1.323  0.7933 -0.3294 -0.5809
20307SOL    HW162660   5.755   6.689   1.372  0.3000 -1.4566  1.1191
20307SOL    HW262661   5.715   6.609   1.250 -0.2046  0.1009  0.2323
20308SOL     OW62662   8.231   2.828   9.291 -0.1188  0.4016  0.0910
20308SOL    HW162663   8.291   2.825   9.365  1.1249 -1.1664 -0.9364
20308SOL    HW262664   8.163   2.764   9.312 -1.9709  2.6889  1.5957
20309SOL     OW62665   4.515   0.482   5.029 -0.1978  0.5318  0.0869
20309SOL    HW162666   4.449   0.552   5.027 -0.0088  0.7081 -2.4490
20309SOL    HW262667   4.552   0.481   4.941  2.3564 -0.3953  1.0668
20310SOL     OW62668   3.235   8.456   5.466 -0.1389 -0.0595 -0.0153
20310SOL    HW162669   3.214   8.398   5.539  0.2986 -1.2299 -0.7842
20310SOL    HW262670   3.329   8.446   5.454 -0.3191 -0.4683 -1.2024
20311SOL     OW62671   6.049   0.736   0.598 -0.0225 -0.1342  0.6110
20311SOL    HW162672   6.004   0.809   0.641  1.5276  0.6190  1.0252
20311SOL    HW262673   6.046   0.758   0.505 -1.5629 -0.7328  0.4815
20312SOL     OW62674   8.389   7.576   9.498 -0.0924 -0.0453 -0.5311
20312SOL    HW162675   8.457   7.614   9.443 -0.1986 -0.1188 -0.7134
20312SOL    HW262676   8.402   7.482   9.492 -0.6091 -0.0895 -1.0875
20313SOL     OW62677   6.171   2.150   0.582 -0.1358 -0.1509 -0.8549
20313SOL    HW162678   6.126   2.068   0.602 -0.1573 -0.1037 -0.7094
20313SOL    HW262679   6.135   2.213   0.644  0.3634 -0.1863 -0.5162
20314SOL     OW62680   4.390   2.332   3.038 -1.0923 -0.2497 -0.0396
20314SOL    HW162681   4.405   2.246   2.998 -0.2349 -0.6989  1.1494
20314SOL    HW262682   4.320   2.371   2.987 -0.0670 -0.7771 -1.9321
20315SOL     OW62683   3.607   6.152   5.016  0.4718 -0.0810  0.1058
20315SOL    HW162684   3.687   6.129   4.967 -0.4480 -0.8979 -1.0692
20315SOL    HW262685   3.624   6.120   5.104  0.9527 -1.4544 -0.4512
20316SOL     OW62686   0.146   1.408   7.263 -0.8092 -0.0882  0.3152
20316SOL    HW162687   0.152   1.316   7.238  0.4598  0.3042 -0.9347
20316SOL    HW262688   0.105   1.451   7.188  0.6540  0.6950 -0.0775
20317SOL     OW62689   0.423   9.149   8.023  0.3168  0.8579 -0.6314
20317SOL    HW162690   0.394   9.240   8.015 -1.6742  0.2182 -1.3850
20317SOL    HW262691   0.509   9.155   8.064  0.8928  3.1492 -1.9684
20318SOL     OW62692   9.569   8.700   0.412 -0.2448 -0.2116  0.6013
20318SOL    HW162693   9.596   8.722   0.323 -2.1832  0.0927  0.0421
20318SOL    HW262694   9.488   8.748   0.425 -0.2436 -0.6309  2.3801
20319SOL     OW62695   0.163   4.510   3.674 -0.0077  0.0966  0.4934
20319SOL    HW162696   0.078   4.516   3.630 -0.3853 -2.0468  0.8230
20319SOL    HW262697   0.144   4.470   3.759  1.4049 -1.1667  0.2544
20320SOL     OW62698   1.223   0.978   6.638  0.0447 -0.2602  0.1103
20320SOL    HW162699   1.167   0.900   6.643 -0.3753 -0.1077 -1.5213
20320SOL    HW262700   1.165   1.048   6.610  0.4577  0.6225  1.3983
20321SOL     OW62701   2.906   2.982   7.359 -0.3837  0.4848  0.1774
20321SOL    HW162702   2.846   2.948   7.425  0.4539 -0.5535  0.4327
20321SOL    HW262703   2.901   2.919   7.288  1.3142 -0.3054  0.7210
20322SOL     OW62704   3.080   0.691   0.996  0.5876 -0.4724 -0.0829
20322SOL    HW162705   2.995   0.731   0.981  0.2738 -1.4031 -0.8916
20322SOL    HW262706   3.113   0.734   1.075 -0.0349  0.8472 -0.5124
20323SOL     OW62707   6.031   7.598   6.420 -0.1981 -0.1878  0.1651
20323SOL    HW162708   5.965   7.569   6.356 -0.2452  1.4963 -0.5915
20323SOL    HW262709   6.030   7.530   6.488 -0.8779 -1.5024 -1.1027
20324SOL     OW62710   8.468   6.297   7.591  0.8045 -0.4362 -0.3202
20324SOL    HW162711   8.389   6.247   7.611  1.2305 -0.2589  2.1702
20324SOL    HW262712   8.458   6.379   7.640  2.6963 -0.6287  0.4756
20325SOL     OW62713   6.378   2.931   4.350  0.3565 -0.2537 -0.3977
20325SOL    HW162714   6.347   2.879   4.424 -0.0852  0.2748 -0.1942
20325SOL    HW262715   6.455   2.977   4.383 -0.3511  0.6613  0.0330
20326SOL     OW62716   7.260   3.771   7.631 -0.4028 -0.7970 -0.1321
20326SOL    HW162717   7.324   3.823   7.581  0.6049 -1.2549  0.6581
20326SOL    HW262718   7.225   3.833   7.696 -0.2813 -0.7173 -0.1414
20327SOL     OW62719   4.444   7.598   7.422 -0.1012 -0.0015  0.3443
20327SOL    HW162720   4.374   7.655   7.389 -1.0891 -0.6107  1.3176
20327SOL    HW262721   4.484   7.561   7.343 -1.8513 -0.7866 -0.2261
20328SOL     OW62722   0.829   5.912   7.928 -0.2869 -0.1568  0.4204
20328SOL    HW162723   0.792   5.991   7.967  2.8587  1.6687  0.0348
20328SOL    HW262724   0.795   5.912   7.838 -0.7179  0.4910  0.5747
20329SOL     OW62725   8.958   1.898   4.309  0.3398 -0.5299 -0.1386
20329SOL    HW162726   8.948   1.825   4.248  1.3880 -1.7585  1.1050
20329SOL    HW262727   8.939   1.862   4.395 -2.9539  1.6111  0.2144
20330SOL     OW62728   7.353   7.473   3.534 -0.1388  0.4361 -0.2958
20330SOL    HW162729   7.392   7.520   3.607  2.3228 -1.1383 -0.5018
20330SOL    HW262730   7.400   7.505   3.457 -0.9727  0.2563 -0.8930
20331SOL     OW62731   1.741   5.522   0.450  0.2531 -0.2631 -0.1332
20331SOL    HW162732   1.801   5.457   0.487  1.1226 -0.4833 -1.8418
20331SOL    HW262733   1.794   5.571   0.387 -1.1917  0.0066 -1.1846
20332SOL     OW62734   9.097   2.547   1.868  0.1826 -0.8433  0.6558
20332SOL    HW162735   9.028   2.498   1.913 -0.4105 -0.3303  0.3309
20332SOL    HW262736   9.121   2.492   1.793 -0.7210 -0.5094  0.0997
20333SOL     OW62737   3.755   9.071   6.379 -0.2231 -0.1740 -0.1397
20333SOL    HW162738   3.752   9.166   6.367 -1.5890 -0.5094 -3.3758
20333SOL    HW262739   3.845   9.048   6.357  0.3197  0.3570  1.3439
20334SOL     OW62740   7.057   5.912   2.876 -0.3204 -0.1760  0.2298
20334SOL    HW162741   7.093   5.999   2.895 -0.1053 -0.4764  1.2287
20334SOL    HW262742   7.086   5.894   2.786  0.9149  0.1579  0.5447
20335SOL     OW62743   0.850   5.607   8.066  0.1500  0.0390  0.1842
20335SOL    HW162744   0.892   5.687   8.034 -1.4044  0.2859 -1.3865
20335SOL    HW262745   0.760   5.634   8.086 -0.3612 -1.2872 -0.2579
20336SOL     OW62746   5.540   9.373   8.550 -0.2534  0.3600 -0.1554
20336SOL    HW162747   5.537   9.459   8.593 -1.3645  0.1371  0.2392
20336SOL    HW262748   5.633   9.354   8.541  0.0057  1.5780 -0.1889
20337SOL     OW62749   2.822   6.172   0.264 -0.7248  0.3812  0.2754
20337SOL    HW162750   2.817   6.191   0.170 -1.3718 -1.3146 -0.0718
20337SOL    HW262751   2.826   6.258   0.305 -0.2657  1.1627 -1.3100
20338SOL     OW62752   4.713   1.560   4.418  0.1256  0.1165 -0.2401
20338SOL    HW162753   4.656   1.498   4.464  0.9775 -0.7397 -0.3085
20338SOL    HW262754   4.698   1.643   4.462  1.4623 -0.8124  2.1270
20339SOL     OW62755   3.058   8.320   8.499 -0.2304 -0.4228 -0.1205
20339SOL    HW162756   3.079   8.368   8.419 -0.6109  0.1178  0.0920
20339SOL    HW262757   3.121   8.352   8.564 -0.5247 -0.1578  0.0383
20340SOL     OW62758   4.398   8.521   6.810  0.0902  1.0577  0.1504
20340SOL    HW162759   4.315   8.487   6.777  0.6594  1.4281 -1.8027
20340SOL    HW262760   4.446   8.443   6.837 -1.1048  0.8858  1.9773
20341SOL     OW62761   2.576   7.960   8.607 -0.2283 -0.1638 -1.1685
20341SOL    HW162762   2.481   7.963   8.602 -0.2463  1.9208 -0.3574
20341SOL    HW262763   2.606   8.027   8.546  0.6851 -0.2186 -0.8073
20342SOL     OW62764   8.295   2.689   3.472 -0.6986 -0.4035 -0.2362
20342SOL    HW162765   8.259   2.730   3.393 -0.2479 -1.5276 -1.0604
20342SOL    HW262766   8.381   2.730   3.483 -0.7476 -0.2681 -0.3479
20343SOL     OW62767   8.695   6.537   5.507  0.0051 -0.4025 -0.2368
20343SOL    HW162768   8.705   6.523   5.413  0.9680 -1.4511 -0.0070
20343SOL    HW262769   8.776   6.501   5.545  0.3704  1.4399  0.8623
20344SOL     OW62770   1.813   1.059   2.678  0.1283  0.6429 -0.1990
20344SOL    HW162771   1.807   1.136   2.735 -0.4679  0.0931  0.5104
20344SOL    HW262772   1.907   1.046   2.665  0.2501  1.1794  0.1212
20345SOL     OW62773   6.285   1.282   7.757  0.5176 -0.2215  0.4667
20345SOL    HW162774   6.301   1.272   7.850  0.5862  2.1751  0.7725
20345SOL    HW262775   6.291   1.376   7.741 -0.1845 -0.4919 -1.8326
20346SOL     OW62776   1.709   8.604   8.652 -0.3054 -0.0162  0.1250
20346SOL    HW162777   1.781   8.638   8.599  0.4754  0.7871  1.6343
20346SOL    HW262778   1.722   8.509   8.651  0.7709  0.1134  0.3291
20347SOL     OW62779   0.128   6.737   1.395  0.2988 -0.4675 -0.3145
20347SOL    HW162780   0.219   6.764   1.401  0.1146  0.0495  0.3055
20347SOL    HW262781   0.131   6.643   1.374  0.9796 -0.6764  0.6837
20348SOL     OW62782   3.603   1.435   7.039 -0.7571  0.1879  0.7204
20348SOL    HW162783   3.544   1.377   7.087  0.2139 -0.8465  0.7155
20348SOL    HW262784   3.691   1.405   7.065 -0.0738 -1.8960 -3.2352
20349SOL     OW62785   3.625   9.106   9.311 -0.1599  0.0738  0.2522
20349SOL    HW162786   3.579   9.167   9.370  0.6957  0.3676  0.6299
20349SOL    HW262787   3.561   9.087   9.243 -0.5918  1.0868  0.3497
20350SOL     OW62788   0.077   8.441   6.177  0.7116  0.1007  0.1746
20350SOL    HW162789   0.100   8.419   6.086  1.6869  0.8352  0.2316
20350SOL    HW262790   0.074   8.357   6.222  0.1210 -0.2808 -0.5531
20351SOL     OW62791   1.898   2.849   4.168 -0.2683  0.6364 -0.4247
20351SOL    HW162792   1.934   2.770   4.209 -1.0308  0.2772 -0.4196
20351SOL    HW262793   1.804   2.833   4.164 -0.4607  1.6531 -0.2201
20352SOL     OW62794   0.956   5.990   7.501 -0.0001  0.1526 -0.2889
20352SOL    HW162795   1.010   5.989   7.581  1.1630  0.2847 -1.0557
20352SOL    HW262796   0.952   6.082   7.476 -1.0112  0.2113  0.0110
20353SOL     OW62797   1.738   0.988   2.414 -0.9803  0.1115 -0.1422
20353SOL    HW162798   1.677   0.918   2.435 -0.1561 -0.5223  0.1800
20353SOL    HW262799   1.765   1.023   2.499 -0.5690  0.1076 -0.2717
20354SOL     OW62800   4.348   0.956   9.594  0.2530  0.1251  0.5419
20354SOL    HW162801   4.256   0.978   9.578  0.2783  0.7226  1.1654
20354SOL    HW262802   4.346   0.903   9.674  0.5452  1.0656  1.1814
20355SOL     OW62803   9.550   5.921   0.615  0.6453  0.7992 -0.3278
20355SOL    HW162804   9.589   5.884   0.536  1.0942  1.5113 -0.4435
20355SOL    HW262805   9.619   5.913   0.682  0.4174  0.5851 -0.1177
20356SOL     OW62806   5.887   2.419   4.945  0.1917 -0.2552  0.1555
20356SOL    HW162807   5.812   2.461   4.903  0.2262 -0.8426 -0.5090
20356SOL    HW262808   5.951   2.490   4.956  1.1437 -0.4882 -2.9696
20357SOL     OW62809   1.333   5.864   6.074  0.2416  0.2342 -0.3095
20357SOL    HW162810   1.348   5.818   5.991 -1.7030  0.8352 -1.0466
20357SOL    HW262811   1.336   5.957   6.051 -2.8536  0.4290 -0.3050
20358SOL     OW62812   1.706   3.452   9.132 -0.0286 -0.0837  0.3707
20358SOL    HW162813   1.748   3.526   9.089  0.1839 -0.3419  0.1327
20358SOL    HW262814   1.777   3.401   9.169 -0.0830 -0.7850 -0.4559
20359SOL     OW62815   3.705   5.787   5.409 -0.2964 -0.1887  0.3518
20359SOL    HW162816   3.648   5.762   5.336 -0.2137 -1.5811  0.7331
20359SOL    HW262817   3.645   5.801   5.482 -0.2977  0.1979  0.2767
20360SOL     OW62818   2.762   7.771   1.620 -0.1701  0.5313 -0.5020
20360SOL    HW162819   2.836   7.805   1.670 -0.6340  1.4790 -0.4390
20360SOL    HW262820   2.691   7.833   1.637 -1.4900 -1.2120  0.7762
20361SOL     OW62821   4.067   8.655   2.461  0.2764 -0.5521 -0.1424
20361SOL    HW162822   4.016   8.581   2.427 -0.4178 -1.0599  1.8583
20361SOL    HW262823   4.132   8.614   2.518  1.4241  0.2590 -0.8461
20362SOL     OW62824   5.924   4.236   8.149  0.3711 -0.4349  0.0029
20362SOL    HW162825   5.942   4.159   8.202  1.0032 -1.2109 -1.3001
20362SOL    HW262826   5.829   4.234   8.134  0.6297 -2.1391 -1.7257
20363SOL     OW62827   8.734   2.392   4.802  0.0573 -0.0263 -0.2324
20363SOL    HW162828   8.719   2.321   4.740 -0.8118 -0.5110  0.5068
20363SOL    HW262829   8.683   2.465   4.767 -1.0074 -0.5145  0.2614
20364SOL     OW62830   4.190   9.388   5.310 -0.7124  0.6988 -0.3042
20364SOL    HW162831   4.147   9.455   5.363  2.8581  1.7563  1.5380
20364SOL    HW262832   4.185   9.308   5.364  0.0441  0.9523  0.1524
20365SOL     OW62833   4.381   5.870   2.982 -0.4030  0.2029 -0.4785
20365SOL    HW162834   4.447   5.815   3.024 -0.4815  0.5301  0.0780
20365SOL    HW262835   4.344   5.814   2.913  1.3503  0.4406 -1.6633
20366SOL     OW62836   5.955   3.276   4.711 -0.3167 -0.0152  0.1132
20366SOL    HW162837   5.898   3.352   4.699 -1.0801 -0.1294  2.6260
20366SOL    HW262838   5.912   3.223   4.777  0.5857 -2.3120 -1.0189
20367SOL     OW62839   4.286   4.583   6.135  0.3802  0.1334 -0.2123
20367SOL    HW162840   4.235   4.505   6.156 -1.1102  1.0540 -0.3383
20367SOL    HW262841   4.362   4.577   6.193 -0.0903 -1.0225  0.3143
20368SOL     OW62842   5.796   5.195   3.171 -0.3010 -0.2733  0.3107
20368SOL    HW162843   5.862   5.188   3.240 -1.8151 -0.1027  1.8255
20368SOL    HW262844   5.722   5.240   3.212 -1.4231 -0.5468 -1.2991
20369SOL     OW62845   0.733   0.916   7.373  0.1755 -0.1184  0.0565
20369SOL    HW162846   0.663   0.864   7.336  1.1640 -0.8883 -0.8008
20369SOL    HW262847   0.740   0.992   7.315  1.9981 -1.5270 -1.7064
20370SOL     OW62848   2.853   4.693   2.333 -0.4363 -0.0783  0.0257
20370SOL    HW162849   2.896   4.705   2.249 -1.4362  0.0797 -0.4808
20370SOL    HW262850   2.837   4.598   2.338  0.3930 -0.2068  0.4424
20371SOL     OW62851   1.662   4.343   8.530  0.5055  0.2081 -0.2124
20371SOL    HW162852   1.707   4.427   8.537  0.9824 -0.1796  2.0977
20371SOL    HW262853   1.575   4.360   8.567 -0.5862  0.3820 -2.5964
20372SOL     OW62854   7.739   5.345   5.968  0.4206 -0.7455 -0.8879
20372SOL    HW162855   7.794   5.300   5.905 -0.2074 -0.6305 -1.5263
20372SOL    HW262856   7.675   5.393   5.915  0.4926  0.1446 -0.2021
20373SOL     OW62857   1.128   5.714   6.435  0.0393  0.8899 -1.0478
20373SOL    HW162858   1.214   5.739   6.402  0.3305 -1.0410 -1.8393
20373SOL    HW262859   1.126   5.619   6.429 -0.6015  0.4957  2.7784
20374SOL     OW62860   5.994   8.038   9.297 -0.1283  0.1059  0.7345
20374SOL    HW162861   5.917   8.008   9.345  0.3523  0.2630  1.6218
20374SOL    HW262862   6.008   8.128   9.328  0.7700 -0.1317  1.0590
20375SOL     OW62863   2.956   9.560   1.646  0.2316  0.2419  0.6083
20375SOL    HW162864   2.883   9.503   1.623 -0.6116  1.9423 -1.2432
20375SOL    HW262865   2.950   9.570   1.741 -0.1830 -1.8818  0.8475
20376SOL     OW62866   5.355   8.642   6.668  0.9393 -0.2377 -0.0746
20376SOL    HW162867   5.446   8.670   6.662  1.0178 -0.6870 -1.3161
20376SOL    HW262868   5.336   8.641   6.762  1.7842  1.1823  0.1400
20377SOL     OW62869   4.218   8.924   7.298 -0.0249 -0.0528  0.1190
20377SOL    HW162870   4.237   8.841   7.256  0.7394  0.4294 -0.5334
20377SOL    HW262871   4.123   8.927   7.306 -0.2423  0.0056 -1.9662
20378SOL     OW62872   1.935   1.141   8.797 -0.4531 -0.1298  0.1811
20378SOL    HW162873   1.956   1.203   8.867 -0.8944  0.9106 -0.5719
20378SOL    HW262874   1.960   1.187   8.717 -2.1667 -0.3167 -0.5007
20379SOL     OW62875   1.277   7.238   5.424 -0.2260 -0.0684 -0.4233
20379SOL    HW162876   1.239   7.316   5.384  0.6212  0.1994 -0.7170
20379SOL    HW262877   1.339   7.272   5.488  1.0717 -0.4774 -1.4201
20380SOL     OW62878   3.816   6.336   4.780  0.1095 -0.0975  0.3224
20380SOL    HW162879   3.854   6.381   4.855  0.0020  0.2921  0.1412
20380SOL    HW262880   3.794   6.249   4.814  1.4209 -0.4286  0.3521
20381SOL     OW62881   1.137   9.309   1.032  0.7347  0.3735  0.2354
20381SOL    HW162882   1.063   9.357   0.993  0.0144  0.6398  1.8450
20381SOL    HW262883   1.115   9.217   1.020  0.7980  0.4460 -0.4693
20382SOL     OW62884   7.348   5.117   1.580 -0.2984  0.4405  0.2701
20382SOL    HW162885   7.412   5.163   1.527  0.8160 -0.2687  0.9677
20382SOL    HW262886   7.334   5.033   1.535 -0.2310  0.3157  0.4820
20383SOL     OW62887   2.385   1.274   1.211  0.0677 -0.3319  0.3149
20383SOL    HW162888   2.348   1.330   1.142 -0.4826  0.5091  1.2630
20383SOL    HW262889   2.377   1.327   1.290  0.7930 -1.2438  1.0053
20384SOL     OW62890   9.154   4.459   7.049 -0.4293 -0.0444  0.0110
20384SOL    HW162891   9.239   4.416   7.051 -0.3405  0.1356  2.0902
20384SOL    HW262892   9.109   4.426   7.127 -1.4048  1.5471  0.1623
20385SOL     OW62893   1.810   7.265   8.265 -0.1011 -0.1637  0.6182
20385SOL    HW162894   1.793   7.296   8.354  0.1313  1.3833  0.1555
20385SOL    HW262895   1.861   7.185   8.276 -0.5386 -0.2772  1.8779
20386SOL     OW62896   2.904   8.666   9.576  0.9252  0.3879 -0.0552
20386SOL    HW162897   2.809   8.674   9.571  0.9313  0.2422 -0.4744
20386SOL    HW262898   2.932   8.743   9.625  0.6382  0.7296 -0.4196
20387SOL     OW62899   7.598   1.473   7.301  0.2890 -0.3806 -0.5897
20387SOL    HW162900   7.542   1.399   7.324 -0.1169  0.3391  0.8480
20387SOL    HW262901   7.667   1.472   7.367  0.3858  0.3898 -0.6723
20388SOL     OW62902   1.333   6.403   2.259  0.1655 -0.2008  0.4274
20388SOL    HW162903   1.328   6.367   2.347  2.1912  0.3133  0.7970
20388SOL    HW262904   1.427   6.412   2.242 -0.2122  0.9620 -1.2712
20389SOL     OW62905   9.180   2.982   2.550 -0.0784  0.0727  0.4680
20389SOL    HW162906   9.145   3.054   2.602  0.0677  1.7930 -1.6799
20389SOL    HW262907   9.258   3.019   2.508 -0.1414 -1.2465 -0.8834
20390SOL     OW62908   1.664   2.166   8.793  0.1655 -0.0658 -0.6800
20390SOL    HW162909   1.721   2.149   8.868  1.3707 -1.7427 -1.8913
20390SOL    HW262910   1.594   2.101   8.802  1.1302 -1.3195 -1.7395
20391SOL     OW62911   3.766   9.123   7.118 -0.4024 -0.2665  0.5546
20391SOL    HW162912   3.706   9.192   7.147 -1.4574 -1.7261  2.0377
20391SOL    HW262913   3.834   9.121   7.186  0.7925  0.6347 -0.5518
20392SOL     OW62914   2.672   7.054   2.716 -0.1904 -0.2005  0.6015
20392SOL    HW162915   2.616   6.977   2.707 -0.7418  0.2160  0.4234
20392SOL    HW262916   2.684   7.085   2.626 -1.4696  0.9703  0.7936
20393SOL     OW62917   6.864   2.706   1.699 -0.1211 -0.5904 -0.0734
20393SOL    HW162918   6.811   2.699   1.620  0.6966  0.5009 -0.7552
20393SOL    HW262919   6.881   2.800   1.708  1.3483 -0.8698  0.3278
20394SOL     OW62920   3.129   1.898   8.358  0.0134 -0.3675 -0.0640
20394SOL    HW162921   3.159   1.867   8.444  2.2677 -1.4506 -1.1559
20394SOL    HW262922   3.144   1.992   8.360 -1.4962 -0.1167  1.2721
20395SOL     OW62923   7.295   2.342   0.937  0.5037 -0.3314  0.6731
20395SOL    HW162924   7.354   2.352   0.863 -0.3114 -0.3236  0.0160
20395SOL    HW262925   7.273   2.432   0.963 -0.4567 -0.3386 -0.0900
20396SOL     OW62926   6.627   7.459   0.409  0.4752  0.7512  0.1683
20396SOL    HW162927   6.662   7.522   0.472  1.8427 -0.2446  0.4477
20396SOL    HW262928   6.571   7.401   0.461 -1.2191  2.0056 -0.1812
20397SOL     OW62929   3.417   6.985   0.567  0.5578  0.7722 -0.1428
20397SOL    HW162930   3.372   6.997   0.483 -1.3271  0.6018  0.7891
20397SOL    HW262931   3.431   7.075   0.599  1.6815  0.8524 -0.8127
20398SOL     OW62932   2.619   0.438   0.681 -0.1775 -0.1957  0.2011
20398SOL    HW162933   2.533   0.481   0.682 -0.8754 -1.4774 -1.1025
20398SOL    HW262934   2.674   0.495   0.627 -0.2502  0.5250  0.8715
20399SOL     OW62935   7.662   4.308   9.397  0.6521  0.8628  0.1021
20399SOL    HW162936   7.660   4.245   9.469  1.8077 -1.1590 -1.5167
20399SOL    HW262937   7.671   4.393   9.440 -0.7887 -0.0414  2.3844
20400SOL     OW62938   9.431   0.561   6.445  0.1796  0.4670  0.0594
20400SOL    HW162939   9.455   0.525   6.359 -0.9502 -0.7071  0.2062
20400SOL    HW262940   9.502   0.621   6.466  0.6312  0.5529 -1.5654
20401SOL     OW62941   9.221   8.859   5.981 -0.6363 -0.3274 -0.2569
20401SOL    HW162942   9.164   8.838   6.055 -0.2733 -1.2332 -0.2114
20401SOL    HW262943   9.296   8.800   5.992 -1.1240 -1.3476 -1.9976
20402SOL     OW62944   7.434   0.234   4.357 -0.5534  0.2280  0.0566
20402SOL    HW162945   7.461   0.172   4.423  1.2699 -0.0202 -0.8746
20402SOL    HW262946   7.338   0.236   4.363 -0.4448 -0.0034  2.4467
20403SOL     OW62947   1.976   6.675   4.824 -0.0925 -0.4355 -0.2064
20403SOL    HW162948   2.043   6.687   4.757  0.8161 -0.4787  0.6747
20403SOL    HW262949   2.022   6.633   4.897 -1.2183 -1.0377  0.1833
20404SOL     OW62950   4.865   4.529   1.512 -0.2137  0.4434  0.7281
20404SOL    HW162951   4.850   4.595   1.579 -1.2340  1.1413 -0.1610
20404SOL    HW262952   4.826   4.565   1.433  2.5741  0.4707 -0.7384
20405SOL     OW62953   7.230   5.516   5.443 -0.7093  0.2700  0.7369
20405SOL    HW162954   7.281   5.505   5.363 -0.8615  2.0724  0.3682
20405SOL    HW262955   7.147   5.553   5.414 -1.6789 -1.1945  1.5045
20406SOL     OW62956   2.675   8.018   2.619 -0.0883 -0.6160  0.6979
20406SOL    HW162957   2.590   8.052   2.590  0.4958  0.5507  0.2810
20406SOL    HW262958   2.724   8.096   2.644  0.9298 -1.2632  0.7457
20407SOL     OW62959   2.139   8.343   8.688 -0.2621  0.0233 -0.0603
20407SOL    HW162960   2.124   8.323   8.595 -1.4625  1.7171 -0.2852
20407SOL    HW262961   2.215   8.401   8.688  0.6394 -1.1097  0.1944
20408SOL     OW62962   7.065   7.978   7.460  0.2196 -0.5700  0.4045
20408SOL    HW162963   7.057   7.950   7.551  1.1673 -0.5253  0.5183
20408SOL    HW262964   7.055   8.073   7.463  1.3893 -0.4391  0.6344
20409SOL     OW62965   3.894   2.259   7.002  0.1063  0.0369 -0.1946
20409SOL    HW162966   3.927   2.170   7.016  1.6979  0.4618 -0.9639
20409SOL    HW262967   3.841   2.277   7.080 -2.3595 -2.4530 -1.1468
20410SOL     OW62968   1.963   6.542   6.445  0.5269 -0.0311 -0.1071
20410SOL    HW162969   1.906   6.551   6.522  0.2173 -0.7350 -0.2501
20410SOL    HW262970   1.914   6.584   6.374  1.2607  1.5551  0.2779
20411SOL     OW62971   3.755   4.212   7.540 -0.4376 -0.1254  0.1890
20411SOL    HW162972   3.816   4.283   7.563  1.0687 -0.3882 -2.5582
20411SOL    HW262973   3.811   4.145   7.501 -1.8705 -2.7769  2.4090
20412SOL     OW62974   4.397   4.479   9.597  0.0140  0.3311 -0.1572
20412SOL    HW162975   4.453   4.540   9.549  0.6669  0.4785  0.7618
20412SOL    HW262976   4.407   4.396   9.550 -0.8860  0.9113 -1.4136
20413SOL     OW62977   3.697   6.596   8.031  0.6109  0.5703 -0.3429
20413SOL    HW162978   3.682   6.632   7.943  0.2523 -2.4714 -1.6615
20413SOL    HW262979   3.749   6.517   8.016 -0.2183 -0.5407  2.0865
20414SOL     OW62980   8.833   3.088   0.119  0.1248 -0.0065 -0.3871
20414SOL    HW162981   8.775   3.137   0.177  1.0734  0.5664  0.1067
20414SOL    HW262982   8.879   3.026   0.176 -0.6420 -1.0938 -0.9182
20415SOL     OW62983   4.837   2.762   6.075 -0.0822  0.4635  0.6554
20415SOL    HW162984   4.811   2.849   6.046 -1.3450  0.4219  1.5451
20415SOL    HW262985   4.930   2.769   6.093  0.2276  1.1307 -0.9822
20416SOL     OW62986   5.568   6.631   1.163 -0.1633  0.0369  0.0147
20416SOL    HW162987   5.491   6.575   1.154  0.0532  0.0174 -2.3033
20416SOL    HW262988   5.607   6.633   1.075  1.4329  1.5475  0.6921
20417SOL     OW62989   2.654   6.746   0.693 -0.0404  0.4501 -0.0943
20417SOL    HW162990   2.675   6.836   0.718 -1.7337  0.3445  2.0032
20417SOL    HW262991   2.682   6.739   0.602  2.9638  2.1392  0.5695
20418SOL     OW62992   4.380   1.689   4.076  0.0532 -0.2192  0.6731
20418SOL    HW162993   4.332   1.617   4.117 -2.5768  1.8952  1.5749
20418SOL    HW262994   4.320   1.722   4.009  2.2679 -0.4488 -1.5662
20419SOL     OW62995   3.430   7.423   6.724 -0.0888  0.2768 -0.0465
20419SOL    HW162996   3.409   7.439   6.632 -1.7031 -3.4976 -0.5468
20419SOL    HW262997   3.519   7.388   6.723 -0.3455 -0.3813 -0.2896
20420SOL     OW62998   8.285   1.214   7.916 -0.2043  0.0724  0.5164
20420SOL    HW162999   8.317   1.260   7.994  0.5875 -2.0630  1.5324
20420SOL    HW263000   8.194   1.194   7.935  0.5382 -2.3619  1.9652
20421SOL     OW63001   3.723   6.781   2.964  0.1911  0.3442  0.3371
20421SOL    HW163002   3.727   6.877   2.959  1.2784  0.2944  0.0486
20421SOL    HW263003   3.654   6.763   3.028  0.6876  1.3351  1.1765
20422SOL     OW63004   6.454   6.283   0.156 -0.3396  0.7317 -0.6777
20422SOL    HW163005   6.404   6.207   0.126 -1.3304  0.7320  0.8573
20422SOL    HW263006   6.539   6.247   0.182 -0.6778  0.1934 -0.2894
20423SOL     OW63007   4.410   3.263   3.022  0.3007  0.2302 -0.4237
20423SOL    HW163008   4.400   3.228   2.933  0.4440  1.2671 -0.8573
20423SOL    HW263009   4.327   3.307   3.040 -0.7611 -2.1460  0.9856
20424SOL     OW63010   0.240   2.336   0.968  0.4115  0.4343 -0.2971
20424SOL    HW163011   0.280   2.421   0.953  2.3676  0.0175  1.9486
20424SOL    HW263012   0.168   2.353   1.030  0.6136  0.5127 -0.0814
20425SOL     OW63013   7.650   5.894   2.696  0.4164  0.0858 -0.1038
20425SOL    HW163014   7.655   5.877   2.790  1.2328 -0.1139 -0.1754
20425SOL    HW263015   7.584   5.832   2.664  0.5376 -0.2309  0.2528
20426SOL     OW63016   2.051   1.254   2.989  0.5003 -0.5874  0.8016
20426SOL    HW163017   2.096   1.268   3.072  0.3724 -2.0119  1.1380
20426SOL    HW263018   2.007   1.170   2.999 -1.9604  0.5635  0.3489
20427SOL     OW63019   7.066   9.493   6.333  0.1975 -0.4250 -0.4196
20427SOL    HW163020   7.112   9.475   6.251 -2.3090 -0.5526 -1.9024
20427SOL    HW263021   7.022   9.577   6.318 -0.1746 -0.3701  0.8678
20428SOL     OW63022   6.035   3.242   5.655 -0.2834  0.3118  0.1557
20428SOL    HW163023   6.111   3.293   5.626 -0.2668  0.2097  0.0178
20428SOL    HW263024   5.962   3.302   5.646 -0.2803  0.2746 -0.1179
20429SOL     OW63025   8.214   4.544   1.558  0.8086 -0.2137  0.0662
20429SOL    HW163026   8.282   4.571   1.620  1.0310 -1.0694  0.1988
20429SOL    HW263027   8.185   4.459   1.589 -0.0772 -0.0222 -0.1998
20430SOL     OW63028   5.456   3.406   2.832 -0.2113 -0.1960  0.1483
20430SOL    HW163029   5.539   3.411   2.878 -0.1473  0.8425 -0.0608
20430SOL    HW263030   5.400   3.352   2.888  0.0803  0.4807  1.1000
20431SOL     OW63031   5.364   0.086   5.374 -0.6480 -0.0887 -0.1762
20431SOL    HW163032   5.402   0.155   5.429 -0.3164 -1.2154  1.0627
20431SOL    HW263033   5.269   0.101   5.381 -0.5922  0.0601  0.3434
20432SOL     OW63034   1.499   3.574   8.221 -0.4238 -0.2914  0.4322
20432SOL    HW163035   1.499   3.659   8.266 -0.5517  0.7208 -1.3938
20432SOL    HW263036   1.425   3.579   8.161  0.2404 -1.2625 -0.4933
20433SOL     OW63037   2.562   7.123   1.661  0.8192 -0.6976 -0.1890
20433SOL    HW163038   2.568   7.209   1.618 -1.4319  0.2104  1.1560
20433SOL    HW263039   2.471   7.117   1.690  1.3325 -2.8762  1.1492
20434SOL     OW63040   3.231   1.047   1.093 -0.1935  0.4799 -0.0463
20434SOL    HW163041   3.256   1.025   1.003  1.2279  0.9862  0.2038
20434SOL    HW263042   3.240   0.964   1.140  1.1900  0.6610  0.0558
20435SOL     OW63043   1.803   7.036   0.592 -0.5188 -0.0028  0.0073
20435SOL    HW163044   1.818   7.080   0.675 -1.7417  1.5609 -0.5418
20435SOL    HW263045   1.802   7.106   0.527 -1.4440 -0.9586 -1.0691
20436SOL     OW63046   5.151   1.433   8.577 -0.5329 -0.1632  0.0468
20436SOL    HW163047   5.245   1.451   8.587 -0.8455  0.7944  1.5477
20436SOL    HW263048   5.129   1.469   8.491  0.1096  1.3148  0.4710
20437SOL     OW63049   3.362   2.260   0.548  0.4545 -0.0220  0.5578
20437SOL    HW163050   3.271   2.287   0.533  0.9609  0.4528 -2.0979
20437SOL    HW263051   3.361   2.165   0.537 -0.0363 -0.3242  2.7091
20438SOL     OW63052   7.649   1.466   5.830 -0.3505 -0.0185 -0.0297
20438SOL    HW163053   7.572   1.412   5.811 -0.1939 -0.6654  1.0426
20438SOL    HW263054   7.710   1.447   5.759 -0.4297 -1.0274  0.1498
20439SOL     OW63055   7.121   8.040   5.136 -0.0686 -0.2933  0.3887
20439SOL    HW163056   7.172   7.961   5.152  1.1377 -0.2731 -2.7282
20439SOL    HW263057   7.086   8.028   5.048 -2.2955  1.4222  0.9461
20440SOL     OW63058   0.228   0.388   8.758  0.4380  0.2295 -0.2376
20440SOL    HW163059   0.219   0.449   8.685 -2.8609  0.1705 -0.0358
20440SOL    HW263060   0.214   0.302   8.720 -2.1372  0.2569  0.4516
20441SOL     OW63061   1.877   0.888   8.653  0.1297 -0.2052 -0.4225
20441SOL    HW163062   1.901   0.976   8.683 -1.4440 -0.3097  1.3448
20441SOL    HW263063   1.881   0.893   8.558  2.5570  1.0175 -0.3322
20442SOL     OW63064   0.691   4.995   7.437  0.2236  0.1559  0.6727
20442SOL    HW163065   0.652   5.000   7.350  0.0176  3.3220  0.8179
20442SOL    HW263066   0.618   4.981   7.496  0.2640 -1.1657  0.4353
20443SOL     OW63067   7.099   5.689   1.584  0.2421 -0.4207  0.1116
20443SOL    HW163068   7.091   5.649   1.497  1.6583 -0.8540  0.1565
20443SOL    HW263069   7.187   5.728   1.585  0.6738 -1.3313  1.6923
20444SOL     OW63070   6.320   2.740   7.263  0.5039 -0.1412 -0.6807
20444SOL    HW163071   6.349   2.823   7.299 -3.7160  0.9527  0.8358
20444SOL    HW263072   6.339   2.746   7.170 -0.9980  3.2740 -0.9058
20445SOL     OW63073   0.149   7.560   0.281  0.4848  0.0469 -0.1822
20445SOL    HW163074   0.089   7.488   0.262  0.9635 -0.0638 -1.3157
20445SOL    HW263075   0.115   7.634   0.230  0.4684  0.4031  0.3348
20446SOL     OW63076   3.523   8.097   5.017 -0.1922  0.1014 -0.1088
20446SOL    HW163077   3.505   8.078   4.925  1.3721  0.3207 -0.4870
20446SOL    HW263078   3.587   8.030   5.043  0.0572  0.5909  0.5519
20447SOL     OW63079   3.037   7.961   4.569 -0.2089  0.5196  0.1585
20447SOL    HW163080   2.994   7.958   4.655 -1.0540 -0.3345 -0.2814
20447SOL    HW263081   3.049   8.054   4.552  0.0353  0.6951  1.2368
20448SOL     OW63082   4.281   8.288   3.115  0.0217  0.5342  0.2405
20448SOL    HW163083   4.372   8.267   3.095 -0.2612 -2.8698  1.8671
20448SOL    HW263084   4.238   8.292   3.030  1.6515  2.4231 -0.5673
20449SOL     OW63085   2.687   3.190   2.719 -0.4744  0.6930  0.1688
20449SOL    HW163086   2.633   3.269   2.717 -0.8722  0.4217  0.0008
20449SOL    HW263087   2.773   3.219   2.689 -1.1311  0.6984 -1.8678
20450SOL     OW63088   8.216   2.829   1.122 -0.1926 -0.1094 -0.2586
20450SOL    HW163089   8.296   2.807   1.073 -0.2132  0.8652 -0.7485
20450SOL    HW263090   8.164   2.882   1.061 -0.3418  0.9070  0.7156
20451SOL     OW63091   7.456   8.943   3.442 -0.3803 -0.3101 -0.1518
20451SOL    HW163092   7.458   8.960   3.348 -0.2313  0.4077 -0.0205
20451SOL    HW263093   7.533   8.888   3.458 -0.2551 -0.2056 -0.4003
20452SOL     OW63094   1.762   2.094   5.466  0.3275 -0.3378  0.1494
20452SOL    HW163095   1.779   2.161   5.400 -1.1839  0.2701  0.3351
20452SOL    HW263096   1.845   2.047   5.474  0.2741 -1.2400 -3.0397
20453SOL     OW63097   9.403   2.937   3.861  0.3104 -0.1380 -0.1148
20453SOL    HW163098   9.354   3.017   3.842  0.4202  0.1977  0.9681
20453SOL    HW263099   9.411   2.893   3.776 -0.8417  0.3782 -0.5076
20454SOL     OW63100   3.609   7.606   4.937 -0.1595 -0.0895 -0.5881
20454SOL    HW163101   3.606   7.531   4.996  0.9847  1.1161  1.1268
20454SOL    HW263102   3.522   7.645   4.942  0.0796  0.3175  0.8148
20455SOL     OW63103   7.834   5.344   3.754  0.4383  0.0181  0.3661
20455SOL    HW163104   7.857   5.383   3.838 -0.7777  0.9769  0.2849
20455SOL    HW263105   7.818   5.252   3.774 -0.4983  0.3716  1.3294
20456SOL     OW63106   1.780   0.566   7.715 -0.0836 -0.1216  0.1882
20456SOL    HW163107   1.851   0.601   7.662  0.3003 -0.7692  0.2625
20456SOL    HW263108   1.782   0.619   7.795  0.6607 -0.4741  0.4135
20457SOL     OW63109   2.662   6.635   7.253 -0.7026 -0.2366  0.0213
20457SOL    HW163110   2.606   6.672   7.322  0.9340  0.8323  0.8368
20457SOL    HW263111   2.682   6.710   7.196  0.0979 -0.5439 -0.1058
20458SOL     OW63112   8.902   1.471   4.620 -0.0792  0.2908  0.2729
20458SOL    HW163113   8.902   1.514   4.706 -0.1265  0.5524  0.1410
20458SOL    HW263114   8.814   1.434   4.612  0.3751 -1.0157  0.9779
20459SOL     OW63115   1.958   6.872   1.995  0.1095 -0.2123 -0.6267
20459SOL    HW163116   1.983   6.923   2.072  1.2306 -0.4096 -0.8533
20459SOL    HW263117   1.870   6.905   1.973 -0.2298 -0.1516  0.7119
20460SOL     OW63118   0.729   1.854   6.790 -0.0797  0.0231  0.7209
20460SOL    HW163119   0.723   1.917   6.862 -0.3801  1.3064 -0.3990
20460SOL    HW263120   0.638   1.830   6.771 -0.1064  0.7638 -0.1384
20461SOL     OW63121   0.300   8.150   4.781  0.1572  0.1197  0.0964
20461SOL    HW163122   0.366   8.081   4.794  0.1423  0.0206 -0.3562
20461SOL    HW263123   0.280   8.147   4.687  0.5715  1.1137 -0.0307
20462SOL     OW63124   3.863   4.736   8.130 -0.2957 -0.4461 -0.3365
20462SOL    HW163125   3.896   4.690   8.053  0.3088 -1.6958  0.6387
20462SOL    HW263126   3.922   4.710   8.201 -0.1293  1.5783  0.3386
20463SOL     OW63127   8.360   4.633   1.057 -0.6539 -0.1945  0.3474
20463SOL    HW163128   8.440   4.629   1.110 -0.1668  0.8769 -0.2943
20463SOL    HW263129   8.372   4.566   0.990  0.0881  0.5301 -0.2573
20464SOL     OW63130   0.204   8.368   9.570 -0.0546 -0.1657  0.2311
20464SOL    HW163131   0.116   8.331   9.574 -0.6502  1.2359  0.9821
20464SOL    HW263132   0.202   8.428   9.495 -0.6956  2.0304  1.8939
20465SOL     OW63133   0.884   1.998   1.441 -0.4959  0.2837 -0.5406
20465SOL    HW163134   0.888   1.903   1.452 -0.1570  0.2107 -1.2431
20465SOL    HW263135   0.821   2.027   1.507  0.4630 -0.2604  0.6510
20466SOL     OW63136   6.732   1.379   5.980 -0.5541  0.2295  0.0655
20466SOL    HW163137   6.652   1.430   5.994  0.0613  1.4735 -0.7794
20466SOL    HW263138   6.793   1.412   6.046 -0.9235 -1.1950  1.1606
20467SOL     OW63139   4.221   5.645   9.530 -0.0705  0.1996 -0.0451
20467SOL    HW163140   4.306   5.666   9.567  0.8544 -0.3828 -1.7210
20467SOL    HW263141   4.201   5.557   9.562  1.0377 -0.5780 -1.3539
20468SOL     OW63142   3.077   2.391   5.096  0.0776  0.1137  0.5271
20468SOL    HW163143   3.173   2.388   5.089 -0.0625 -0.8771 -2.4470
20468SOL    HW263144   3.057   2.485   5.093  0.9237  0.2895 -0.8380
20469SOL     OW63145   0.746   8.120   2.211  0.4471  0.0767 -0.4148
20469SOL    HW163146   0.837   8.145   2.191  2.0181 -0.1147  4.9205
20469SOL    HW263147   0.696   8.201   2.197  2.2464  1.3907  0.3437
20470SOL     OW63148   7.191   3.991   7.834 -0.2405  0.2752  0.3130
20470SOL    HW163149   7.227   4.070   7.873 -0.7903  0.2490  0.8802
20470SOL    HW263150   7.128   4.023   7.768  0.4093  0.3147 -0.2999
20471SOL     OW63151   3.210   1.009   2.484 -0.1131  0.0405  0.3262
20471SOL    HW163152   3.132   1.060   2.461  0.9206  1.1629 -0.8572
20471SOL    HW263153   3.239   1.046   2.567 -0.9382 -0.5411  0.8965
20472SOL     OW63154   4.251   1.792   0.060 -0.2484  0.1090 -0.5038
20472SOL    HW163155   4.292   1.859   0.005  0.9368  0.3135  0.5699
20472SOL    HW263156   4.218   1.841   0.136  0.0079 -0.4233 -0.0454
20473SOL     OW63157   9.307   8.813   4.012 -0.2597  0.0047 -0.3317
20473SOL    HW163158   9.238   8.844   4.072  0.3669  0.1207  0.3404
20473SOL    HW263159   9.388   8.828   4.059  0.4264  1.9641 -2.0004
20474SOL     OW63160   5.149   4.325   4.493  0.4779 -0.7779 -0.3044
20474SOL    HW163161   5.071   4.380   4.501 -0.3727 -2.0374  0.4328
20474SOL    HW263162   5.188   4.351   4.410 -1.1454 -0.6352 -1.0629
20475SOL     OW63163   8.026   1.060   2.371 -0.4332 -0.1767 -0.1741
20475SOL    HW163164   8.101   1.119   2.363  0.5257 -1.1937  0.9253
20475SOL    HW263165   7.950   1.118   2.367  0.2695  0.7266 -3.0210
20476SOL     OW63166   8.135   6.880   2.874 -0.2657  0.0350 -0.3998
20476SOL    HW163167   8.202   6.907   2.811 -0.0408  0.2418 -0.0759
20476SOL    HW263168   8.067   6.948   2.868  0.7743  1.3245  1.1651
20477SOL     OW63169   0.604   7.460   9.035 -0.2450  0.5713 -0.4642
20477SOL    HW163170   0.666   7.400   8.993 -0.1617 -1.5269  2.3095
20477SOL    HW263171   0.657   7.534   9.062  0.8189 -0.5001  0.5311
20478SOL     OW63172   1.377   1.319   5.191  0.1126 -0.1580 -0.5052
20478SOL    HW163173   1.306   1.344   5.250  1.0107  0.9755  0.1436
20478SOL    HW263174   1.385   1.392   5.130 -0.1026 -0.8475 -1.3865
20479SOL     OW63175   1.904   3.201   9.183 -0.0670  0.7311 -0.4565
20479SOL    HW163176   1.905   3.107   9.166 -0.3834  0.8640 -1.2618
20479SOL    HW263177   1.937   3.210   9.272  0.1796 -0.1238 -0.4572
20480SOL     OW63178   3.514   9.314   8.264  0.1734  0.0727  0.5367
20480SOL    HW163179   3.537   9.293   8.173  0.6993  0.0224  0.6805
20480SOL    HW263180   3.586   9.368   8.295 -0.7070  1.3193  0.4756
20481SOL     OW63181   0.782   4.609   2.300 -0.5345  0.2455 -0.7020
20481SOL    HW163182   0.863   4.558   2.294 -1.6553 -1.6593 -0.5311
20481SOL    HW263183   0.715   4.554   2.259 -2.2058  0.7093  1.2051
20482SOL     OW63184   0.667   7.988   1.755  0.9059  0.1309  0.6042
20482SOL    HW163185   0.639   7.969   1.845 -0.0549 -1.3500  0.0214
20482SOL    HW263186   0.608   8.057   1.726  0.3247 -0.3343  0.6634
20483SOL     OW63187   1.445   5.571   2.223  0.3876 -0.0051  0.1221
20483SOL    HW163188   1.490   5.617   2.153  0.2144  1.4138  0.9098
20483SOL    HW263189   1.382   5.515   2.178  0.9837  0.0966 -0.8814
20484SOL     OW63190   1.777   1.263   6.370  0.0696 -0.4503 -0.3311
20484SOL    HW163191   1.764   1.237   6.279  0.3502 -1.6194 -0.0490
20484SOL    HW263192   1.872   1.266   6.381  0.0418  0.4366 -0.2761
20485SOL     OW63193   3.662   0.423   6.653  0.5458  0.2944  0.0161
20485SOL    HW163194   3.674   0.329   6.643 -0.6497  0.2448 -1.4360
20485SOL    HW263195   3.750   0.460   6.646  0.9062 -0.6453 -0.5193
20486SOL     OW63196   6.912   7.027   8.820  0.4352  0.4532 -0.6703
20486SOL    HW163197   6.896   7.118   8.844 -2.2426 -0.2155  0.4356
20486SOL    HW263198   6.830   6.982   8.841  1.2880 -2.0222 -2.2108
20487SOL     OW63199   0.559   7.785   5.972  0.0185  0.0513  0.1221
20487SOL    HW163200   0.636   7.820   5.927  1.0536 -0.7650  1.1900
20487SOL    HW263201   0.526   7.859   6.023  0.5695  0.2068  0.2623
20488SOL     OW63202   8.908   6.000   0.547  0.7974 -0.1792 -0.2707
20488SOL    HW163203   8.848   5.931   0.575 -0.1735  0.3911 -0.8297
20488SOL    HW263204   8.975   6.003   0.614  0.3582 -1.0528  0.2297
20489SOL     OW63205   6.433   8.408   8.607  0.5262  0.1137  0.4999
20489SOL    HW163206   6.489   8.332   8.623  1.9609  0.9592 -0.2911
20489SOL    HW263207   6.380   8.416   8.687  0.6889 -1.4092  0.7844
20490SOL     OW63208   0.243   2.892   8.850  0.1712 -0.7090  0.0795
20490SOL    HW163209   0.218   2.961   8.911 -0.5782 -1.5144  0.7120
20490SOL    HW263210   0.231   2.811   8.899  0.4940 -1.3237 -0.8284
20491SOL     OW63211   1.420   1.035   8.329 -0.5018 -0.4525  0.0316
20491SOL    HW163212   1.363   1.056   8.255 -1.8716 -2.6084  0.3982
20491SOL    HW263213   1.494   1.095   8.320 -2.9223  2.6926 -0.2785
20492SOL     OW63214   8.933   2.600   9.204  0.3652 -0.1913 -0.3637
20492SOL    HW163215   8.944   2.694   9.215 -2.5290  0.3953 -1.6835
20492SOL    HW263216   8.875   2.574   9.276 -0.6530 -0.5000 -1.2707
20493SOL     OW63217   3.441   4.500   6.561  0.2931  0.3756 -0.0439
20493SOL    HW163218   3.446   4.430   6.496 -1.5101  1.7275 -1.7567
20493SOL    HW263219   3.348   4.521   6.566  0.6043  1.5281  1.6821
20494SOL     OW63220   3.126   3.220   2.655 -0.2491  0.4217 -0.0171
20494SOL    HW163221   3.141   3.234   2.562  0.7755 -0.2295  0.0456
20494SOL    HW263222   3.053   3.279   2.676 -1.5491 -0.5700 -1.5522
20495SOL     OW63223   9.406   4.423   1.042  0.1667 -0.1423 -0.6046
20495SOL    HW163224   9.365   4.411   1.128  0.0779 -2.8354 -0.9433
20495SOL    HW263225   9.349   4.486   0.997 -2.3550 -1.9763 -0.2081
20496SOL     OW63226   7.135   5.357   2.345  0.3624  0.3503 -0.2819
20496SOL    HW163227   7.070   5.393   2.284 -1.5456 -0.1145  1.3553
20496SOL    HW263228   7.126   5.262   2.335  2.7790  0.1886 -1.9387
20497SOL     OW63229   7.342   8.581   5.733 -0.1918  0.4398  0.7099
20497SOL    HW163230   7.254   8.605   5.706  0.5315  0.8257 -1.4991
20497SOL    HW263231   7.385   8.551   5.653  2.0077  1.2135  1.5088
20498SOL     OW63232   2.602   5.257   6.460  0.2118 -0.3176  0.0001
20498SOL    HW163233   2.629   5.335   6.414  0.7015 -0.8068 -0.5554
20498SOL    HW263234   2.640   5.185   6.410  1.8525 -0.8328  1.8553
20499SOL     OW63235   7.098   1.630   0.445  0.3715  0.1150 -0.2492
20499SOL    HW163236   7.174   1.681   0.419  0.4851 -0.2162 -0.5810
20499SOL    HW263237   7.024   1.672   0.400 -0.0842  2.0444  2.0754
20500SOL     OW63238   8.524   1.926   7.890  0.0725 -0.3677  0.1506
20500SOL    HW163239   8.530   1.863   7.961  0.9406  1.2888  1.6151
20500SOL    HW263240   8.477   2.000   7.927  0.7189  0.6184 -0.9377
20501SOL     OW63241   1.237   7.907   5.252 -0.3475  0.3557  0.2453
20501SOL    HW163242   1.169   7.861   5.302 -0.2286  0.3930  0.4426
20501SOL    HW263243   1.263   7.845   5.184 -0.1514  0.1082  0.5411
20502SOL     OW63244   8.068   8.553   1.373 -0.1207 -0.4547 -0.3937
20502SOL    HW163245   8.160   8.578   1.385 -0.7567  0.6217  3.1871
20502SOL    HW263246   8.057   8.475   1.427 -1.8037  0.7904  1.1456
20503SOL     OW63247   6.280   7.680   5.604 -0.6659 -0.1445  0.1296
20503SOL    HW163248   6.249   7.721   5.523 -1.0336 -0.7367 -0.0370
20503SOL    HW263249   6.200   7.672   5.657 -0.9792 -2.3280 -0.5760
20504SOL     OW63250   9.005   2.739   1.397 -0.3697 -0.0214  0.5365
20504SOL    HW163251   9.063   2.687   1.341 -0.5618  0.9368 -0.6080
20504SOL    HW263252   8.947   2.675   1.439 -1.1684 -0.7100 -1.4885
20505SOL     OW63253   6.743   7.379   6.262 -0.4699 -1.3187  0.2039
20505SOL    HW163254   6.690   7.457   6.276  0.1225 -0.9346  0.3680
20505SOL    HW263255   6.750   7.338   6.348  0.6989 -0.5713  0.4934
20506SOL     OW63256   5.045   5.714   6.714  0.0589  0.4912 -0.6166
20506SOL    HW163257   5.065   5.717   6.807 -0.6466 -0.3790 -0.4267
20506SOL    HW263258   5.098   5.784   6.675  1.8682 -0.4217  0.1360
20507SOL     OW63259   2.843   6.222   0.943  0.2939  0.1865 -0.2501
20507SOL    HW163260   2.797   6.255   0.866  1.5169 -2.8224 -2.4737
20507SOL    HW263261   2.773   6.204   1.007 -0.9413  1.1074 -1.2901
20508SOL     OW63262   5.470   1.827   8.985 -0.1304  0.0059  0.4063
20508SOL    HW163263   5.377   1.851   8.987 -0.4812 -0.9870 -1.4890
20508SOL    HW263264   5.507   1.867   9.064 -2.1292  0.5427  1.1333
20509SOL     OW63265   2.485   7.430   6.424  0.4024 -0.6726  0.2635
20509SOL    HW163266   2.436   7.508   6.450  0.6796 -0.1234 -0.7854
20509SOL    HW263267   2.574   7.447   6.453  0.6403 -0.2060 -0.6687
20510SOL     OW63268   0.642   3.726   9.268  0.1150  0.0446  0.0746
20510SOL    HW163269   0.726   3.684   9.285  0.4152  0.0633 -1.2422
20510SOL    HW263270   0.604   3.740   9.355  0.8001 -1.3150  0.6294
20511SOL     OW63271   9.453   6.821   0.007  0.5685  0.0292  0.0171
20511SOL    HW163272   9.380   6.873  -0.028  0.2043  0.3550  1.2313
20511SOL    HW263273   9.412   6.740   0.037  0.9340 -0.3952 -0.6031
20512SOL     OW63274   8.653   6.826   2.161  0.2048  0.2939 -0.0567
20512SOL    HW163275   8.693   6.745   2.193  1.2981 -0.8324 -3.7479
20512SOL    HW263276   8.563   6.801   2.141 -1.2412  1.6193  3.9123
20513SOL     OW63277   3.479   8.245   8.495  0.1757  0.0592 -0.4850
20513SOL    HW163278   3.413   8.216   8.557  1.6063 -0.1308  1.0015
20513SOL    HW263279   3.437   8.317   8.447 -1.0612 -0.0001  0.4692
20514SOL     OW63280   1.240   7.898   6.469 -0.0402  0.2781 -0.0719
20514SOL    HW163281   1.280   7.886   6.555 -1.5885 -0.0768  0.6320
20514SOL    HW263282   1.180   7.972   6.482 -1.0628 -0.4612 -0.5589
20515SOL     OW63283   9.325   0.718   2.420 -0.3104 -0.2707 -0.0017
20515SOL    HW163284   9.394   0.674   2.470  0.5786  0.6886 -0.3427
20515SOL    HW263285   9.358   0.807   2.408 -0.5720 -0.4193 -2.1256
20516SOL     OW63286   0.592   8.646   6.944  0.3271  0.1708  0.4000
20516SOL    HW163287   0.661   8.601   6.992 -0.2868 -1.0765  0.1727
20516SOL    HW263288   0.610   8.739   6.956  2.2507 -0.1144  0.0203
20517SOL     OW63289   6.975   6.317   2.071 -0.2822 -0.2355 -0.6966
20517SOL    HW163290   6.992   6.234   2.027  1.7041 -0.0621 -0.3272
20517SOL    HW263291   7.060   6.346   2.103 -0.9403  1.8818 -0.6730
20518SOL     OW63292   6.268   4.991   4.512 -0.2248 -0.1532  0.1425
20518SOL    HW163293   6.290   4.902   4.540 -3.3841 -0.4435  2.3183
20518SOL    HW263294   6.268   4.987   4.416 -1.9751 -3.0706  0.1454
20519SOL     OW63295   5.008   9.524   8.380 -0.7736 -0.0318 -0.2904
20519SOL    HW163296   5.096   9.492   8.401 -1.4015 -0.0702  2.6595
20519SOL    HW263297   5.013   9.619   8.389 -1.4231 -0.1499  1.9354
20520SOL     OW63298   9.156   4.894   6.519 -0.6235 -0.1755 -0.2430
20520SOL    HW163299   9.152   4.828   6.450  1.3458 -1.2123  0.5601
20520SOL    HW263300   9.112   4.854   6.594 -0.2002 -0.2305 -0.0217
20521SOL     OW63301   1.334   7.640   6.136  0.3146 -0.3369 -0.2558
20521SOL    HW163302   1.332   7.689   6.054 -1.2257 -0.6369 -0.4413
20521SOL    HW263303   1.424   7.646   6.166  0.2632  2.3739 -0.3994
20522SOL     OW63304   2.464   6.167   7.890 -0.2100  0.2291  0.1424
20522SOL    HW163305   2.419   6.158   7.974 -0.2309 -1.1442  0.0154
20522SOL    HW263306   2.557   6.153   7.911  0.0136  1.6918  0.1983
20523SOL     OW63307   4.555   0.196   5.594 -0.3519 -0.1585  0.1221
20523SOL    HW163308   4.581   0.153   5.676  0.0914 -0.7828 -0.3429
20523SOL    HW263309   4.567   0.290   5.612 -0.9762 -0.2409  1.0167
20524SOL     OW63310   4.941   2.125   2.771  0.0738  0.7639 -0.2231
20524SOL    HW163311   4.985   2.187   2.713 -2.3158  1.6281 -1.2507
20524SOL    HW263312   4.974   2.040   2.744  0.8040  1.3313 -1.2073
20525SOL     OW63313   7.218   0.499   8.644  0.0770  0.4129 -0.3587
20525SOL    HW163314   7.281   0.448   8.695  1.4866  2.3806  0.0162
20525SOL    HW263315   7.184   0.563   8.707  2.0561  3.0756 -1.7894
20526SOL     OW63316   6.516   6.794   8.581  0.1383 -0.4510  0.1724
20526SOL    HW163317   6.497   6.874   8.630  1.9464  0.0148  0.1975
20526SOL    HW263318   6.485   6.811   8.493  1.1858  0.6237 -0.0208
20527SOL     OW63319   0.936   2.825   6.180  0.2729  0.4458 -0.0320
20527SOL    HW163320   0.887   2.779   6.248 -1.2776 -0.9777 -1.9825
20527SOL    HW263321   1.017   2.774   6.170 -0.5993 -0.8334 -0.8867
20528SOL     OW63322   2.335   3.006   2.455  0.0129 -0.1150 -0.3852
20528SOL    HW163323   2.312   2.988   2.364 -1.9651  2.1852 -0.4471
20528SOL    HW263324   2.259   3.054   2.490  1.0066 -0.3070  2.2772
20529SOL     OW63325   0.156   5.700   3.137 -0.2313  0.4215  0.0532
20529SOL    HW163326   0.164   5.617   3.090  1.2627  0.3719  0.3483
20529SOL    HW263327   0.165   5.677   3.229  2.9263  1.1048  0.0552
20530SOL     OW63328   9.199   3.819   2.004  0.0547  0.1531 -0.0569
20530SOL    HW163329   9.281   3.839   2.050 -0.9458 -0.4690  2.1453
20530SOL    HW263330   9.173   3.902   1.964  0.7340  0.8728  0.9355
20531SOL     OW63331   0.498   6.716   0.781  0.0035  0.1804 -0.1277
20531SOL    HW163332   0.551   6.639   0.801 -0.3352  0.0474  0.2715
20531SOL    HW263333   0.521   6.738   0.691  1.8697  1.0346  0.4919
20532SOL     OW63334   4.291   8.530   3.521  0.2090 -0.3862 -0.1929
20532SOL    HW163335   4.372   8.516   3.473  0.3471  0.1649 -0.1225
20532SOL    HW263336   4.283   8.625   3.530 -0.6167 -0.4196 -0.4865
20533SOL     OW63337   6.977   9.100   1.717  0.0951 -0.5602 -0.3717
20533SOL    HW163338   6.989   9.081   1.810 -0.5370  1.2042  0.0992
20533SOL    HW263339   7.066   9.105   1.681  0.4012  0.3665  0.4877
20534SOL     OW63340   6.927   0.595   8.728  0.1626 -0.1659  0.7346
20534SOL    HW163341   6.844   0.634   8.755  0.1291  0.3605 -0.0948
20534SOL    HW263342   6.981   0.598   8.808 -0.2546  0.4643  1.0085
20535SOL     OW63343   5.269   2.933   9.470  0.4264 -0.6633  1.0394
20535SOL    HW163344   5.175   2.916   9.464  0.0462  1.3844  0.5456
20535SOL    HW263345   5.308   2.846   9.478 -1.4307 -1.6283  0.2981
20536SOL     OW63346   4.367   1.679   2.367  0.0908  0.0478 -0.4256
20536SOL    HW163347   4.369   1.751   2.304 -0.1764 -0.1850 -0.7047
20536SOL    HW263348   4.449   1.633   2.353 -0.0687 -0.1357 -0.7602
20537SOL     OW63349   0.337   2.559   4.725 -0.2342 -0.0843 -0.2781
20537SOL    HW163350   0.330   2.552   4.630  1.7773  0.4864 -0.5132
20537SOL    HW263351   0.348   2.652   4.742 -1.1895 -0.1117  0.5961
20538SOL     OW63352   4.938   2.177   1.675 -0.0777 -0.3683  0.5859
20538SOL    HW163353   4.854   2.222   1.678 -0.1882 -0.2685 -1.7823
20538SOL    HW263354   4.924   2.105   1.613  1.4132 -0.7113  0.5997
20539SOL     OW63355   1.115   5.976   1.023 -0.0757  0.0190  0.4601
20539SOL    HW163356   1.116   6.071   1.031  0.2546 -0.0515  1.4609
20539SOL    HW263357   1.069   5.959   0.941  0.9279  1.0658 -0.3515
20540SOL     OW63358   5.074   9.083   9.511  0.2676  0.4084  0.5157
20540SOL    HW163359   5.029   9.076   9.427 -0.3876 -1.1054  0.9542
20540SOL    HW263360   5.035   9.160   9.553  0.5771  1.1588 -0.5337
20541SOL     OW63361   6.024   8.435   7.156  0.5735  0.1153 -0.1321
20541SOL    HW163362   6.081   8.420   7.232 -0.6725 -1.5507  0.5502
20541SOL    HW263363   5.966   8.507   7.183 -1.9718 -2.4526  1.9264
20542SOL     OW63364   8.358   2.578   8.759  0.2374 -0.3688 -0.0164
20542SOL    HW163365   8.328   2.571   8.850  0.7489  0.6063  0.2529
20542SOL    HW263366   8.453   2.568   8.765  0.2537 -0.5294 -0.4834
20543SOL     OW63367   3.668   2.587   7.018 -0.3240 -0.2551 -0.2061
20543SOL    HW163368   3.629   2.601   7.104 -2.0383  0.7391 -1.1053
20543SOL    HW263369   3.635   2.658   6.963  0.5656 -0.9605 -1.7565
20544SOL     OW63370   6.258   7.851   5.381  0.0274 -0.8594 -0.4204
20544SOL    HW163371   6.208   7.890   5.310 -0.1374 -2.0878 -1.0146
20544SOL    HW263372   6.327   7.914   5.400 -1.2431  0.4942 -0.1303
20545SOL     OW63373   6.338   5.210   2.808 -0.2907  0.0643  0.0543
20545SOL    HW163374   6.337   5.201   2.904 -1.4154  0.3839  0.0831
20545SOL    HW263375   6.299   5.295   2.792 -0.5770 -0.2101 -0.7209
20546SOL     OW63376   2.866   1.306   4.510 -0.5665  0.4872 -0.2317
20546SOL    HW163377   2.786   1.337   4.467 -0.5855 -2.6388 -2.7913
20546SOL    HW263378   2.936   1.358   4.469 -1.0857  2.5503  1.3242
20547SOL     OW63379   4.595   4.424   3.948 -0.5965 -0.0386 -0.0059
20547SOL    HW163380   4.528   4.375   3.900 -0.5326  0.6243 -0.7864
20547SOL    HW263381   4.678   4.397   3.908 -0.4016 -0.7156  0.8341
20548SOL     OW63382   2.160   1.451   3.624  0.6884 -0.0580  0.3839
20548SOL    HW163383   2.161   1.421   3.714 -0.4341  0.7457  0.6983
20548SOL    HW263384   2.112   1.534   3.627 -0.4315 -0.5963 -1.1007
20549SOL     OW63385   2.040   5.594   5.704 -0.0838 -0.0575  0.0182
20549SOL    HW163386   1.999   5.664   5.756  2.1931  0.4087  1.3138
20549SOL    HW263387   2.084   5.641   5.633  0.2625 -0.3128  0.0662
20550SOL     OW63388   3.082   4.816   8.188  0.0305 -0.8141  0.0845
20550SOL    HW163389   3.166   4.847   8.153  0.0707 -0.4949  0.4558
20550SOL    HW263390   3.101   4.727   8.220  0.3388 -0.5825  0.5618
20551SOL     OW63391   8.025   5.518   5.288  0.2006  0.2872  0.4483
20551SOL    HW163392   8.116   5.493   5.300 -0.2422 -1.7516  0.0745
20551SOL    HW263393   8.019   5.543   5.196  0.4349  0.6798  0.5394
20552SOL     OW63394   2.737   8.113   9.000  0.0873 -0.3764  0.4027
20552SOL    HW163395   2.753   8.031   8.954 -0.2201 -0.3106  0.1723
20552SOL    HW263396   2.804   8.116   9.069  1.0033 -0.1458 -0.4713
20553SOL     OW63397   5.072   4.659   8.513  0.0236  0.2755 -0.4956
20553SOL    HW163398   5.020   4.637   8.590  0.4932 -1.3532 -0.5936
20553SOL    HW263399   5.059   4.753   8.500  0.0037  0.5967  1.6091
20554SOL     OW63400   8.172   5.443   0.460  0.5843  0.0853  0.4329
20554SOL    HW163401   8.208   5.506   0.398  1.0490  0.3637  0.9753
20554SOL    HW263402   8.242   5.428   0.523  0.3941 -0.8060  0.4445
20555SOL     OW63403   2.528   0.180   0.203 -0.2617  0.4793 -0.1800
20555SOL    HW163404   2.560   0.253   0.150  1.1223  1.2376  1.6002
20555SOL    HW263405   2.561   0.102   0.158  0.4702  1.0739 -0.7075
20556SOL     OW63406   8.608   7.266   4.803 -0.3662 -0.6668  0.4174
20556SOL    HW163407   8.532   7.322   4.822 -0.9188 -1.0343 -0.6030
20556SOL    HW263408   8.575   7.202   4.740  1.4807  0.8838 -2.3008
20557SOL     OW63409   0.134   5.728   0.949 -0.2327  0.0500  0.3571
20557SOL    HW163410   0.164   5.755   0.863  0.9840 -0.2222  0.6850
20557SOL    HW263411   0.150   5.634   0.952  1.8044  0.3663  1.6442
20558SOL     OW63412   4.589   5.135   3.338  0.1662 -0.3099  0.4531
20558SOL    HW163413   4.595   5.093   3.252  0.2536 -0.7864  0.6884
20558SOL    HW263414   4.607   5.227   3.320  0.3571 -0.4323 -0.0169
20559SOL     OW63415   4.197   2.932   2.686 -0.1343  0.1952  0.0032
20559SOL    HW163416   4.178   2.844   2.652 -1.3688  0.0453  1.0310
20559SOL    HW263417   4.144   2.990   2.632  1.3436  0.4554 -1.2676
20560SOL     OW63418   2.586   2.137   6.964 -0.1789  0.0581 -0.2553
20560SOL    HW163419   2.580   2.055   6.915  0.6613 -0.0663 -0.1779
20560SOL    HW263420   2.673   2.172   6.941  0.4830 -0.2854  1.5329
20561SOL     OW63421   1.278   8.054   1.915  0.5852  0.2209 -0.1737
20561SOL    HW163422   1.206   7.993   1.931 -0.7124  1.7645  0.0560
20561SOL    HW263423   1.309   8.032   1.827  1.5586 -2.1076  0.6503
20562SOL     OW63424   3.588   8.532   1.939 -0.0638 -0.1245 -0.0558
20562SOL    HW163425   3.532   8.459   1.913 -1.4902  0.6355  0.7546
20562SOL    HW263426   3.635   8.500   2.016  0.5644 -0.7210 -0.6672
20563SOL     OW63427   2.954   2.653   5.115 -0.2159 -0.0291 -0.5387
20563SOL    HW163428   2.865   2.662   5.080  0.5684  0.6012 -2.4857
20563SOL    HW263429   2.991   2.740   5.109  0.8902 -0.5006 -0.7745
20564SOL     OW63430   9.345   6.095   1.410 -0.3837 -0.1028 -0.1363
20564SOL    HW163431   9.340   6.011   1.455 -0.2446 -0.3618 -0.5982
20564SOL    HW263432   9.380   6.155   1.476 -0.4869 -0.4015  0.1984
20565SOL     OW63433   1.470   2.521   3.331 -0.3545  0.3020  0.9226
20565SOL    HW163434   1.467   2.446   3.390  0.4607  0.2399  0.9020
20565SOL    HW263435   1.401   2.579   3.362 -0.7811 -0.3076  1.1379
20566SOL     OW63436   8.332   5.764   1.964  0.1419 -0.1520  0.0634
20566SOL    HW163437   8.270   5.836   1.949 -1.4408 -1.3449  0.5991
20566SOL    HW263438   8.348   5.766   2.058  1.3364  0.4498 -0.1395
20567SOL     OW63439   1.805   5.725   5.483  0.3323 -1.0287  0.0127
20567SOL    HW163440   1.743   5.653   5.472  0.3430 -1.0597  0.1499
20567SOL    HW263441   1.887   5.691   5.447  1.1576 -2.2280  2.7416
20568SOL     OW63442   8.473   6.921   1.924  0.2526  0.0931 -0.2384
20568SOL    HW163443   8.445   6.934   1.834  0.1367 -0.7090 -0.3272
20568SOL    HW263444   8.490   6.827   1.930  0.9179  0.2486  0.3862
20569SOL     OW63445   6.495   5.579   2.982 -0.3654  0.1058  0.2506
20569SOL    HW163446   6.446   5.641   2.928 -1.3430  0.2683  1.2783
20569SOL    HW263447   6.435   5.506   2.995  0.7618 -1.0816 -0.9229
20570SOL     OW63448   6.296   0.877   4.520  0.5408  0.3183 -0.0873
20570SOL    HW163449   6.363   0.883   4.451  1.8439  1.8289  1.2229
20570SOL    HW263450   6.316   0.795   4.566 -0.1193 -0.5194 -1.2276
20571SOL     OW63451   7.943   3.732   0.167 -0.0852 -0.3253 -0.1203
20571SOL    HW163452   7.999   3.656   0.151  0.3924 -0.0226  0.0789
20571SOL    HW263453   7.886   3.736   0.091 -0.8259 -1.4959  0.3492
20572SOL     OW63454   2.012   1.151   6.504 -0.1750  0.0590 -0.3828
20572SOL    HW163455   2.088   1.104   6.468  1.6608  2.3934  0.2157
20572SOL    HW263456   2.039   1.243   6.506 -1.5486  0.5630  3.3897
20573SOL     OW63457   4.137   9.365   0.741  0.5448 -0.0280  0.4756
20573SOL    HW163458   4.051   9.331   0.716  0.8215 -0.7905  0.5458
20573SOL    HW263459   4.165   9.417   0.666  0.1304  0.0234  0.3521
20574SOL     OW63460   2.338   5.672   3.096  0.2852 -0.4119  0.3649
20574SOL    HW163461   2.397   5.722   3.153  1.5822 -1.0404 -0.3747
20574SOL    HW263462   2.254   5.673   3.142  0.2768  2.2943  0.4638
20575SOL     OW63463   1.320   9.231   9.303  0.1781  0.0751 -0.5159
20575SOL    HW163464   1.350   9.176   9.375 -0.4655  2.0011  1.3541
20575SOL    HW263465   1.399   9.273   9.269  0.4065 -0.2528 -0.3836
20576SOL     OW63466   5.964   5.790   5.265 -0.6580  0.0404  0.1264
20576SOL    HW163467   6.010   5.780   5.348 -0.0155  0.5045 -0.1687
20576SOL    HW263468   5.988   5.877   5.234 -1.8255  0.3383  0.0096
20577SOL     OW63469   3.116   0.710   7.519  0.0909  0.2048 -0.6158
20577SOL    HW163470   3.060   0.633   7.517  2.1154 -1.4622  1.1780
20577SOL    HW263471   3.177   0.696   7.446 -0.9234  1.3053 -1.7015
20578SOL     OW63472   9.160   5.072   3.560  0.7557 -0.3092  0.2686
20578SOL    HW163473   9.250   5.099   3.579  0.4988  2.1080 -1.4234
20578SOL    HW263474   9.107   5.119   3.625  0.6644 -2.5413  1.9539
20579SOL     OW63475   9.493   3.161   4.759 -0.1511 -0.4332 -0.4931
20579SOL    HW163476   9.550   3.146   4.683  3.0792  0.2919  1.5597
20579SOL    HW263477   9.528   3.103   4.827  1.4129  3.3035  2.2960
20580SOL     OW63478   3.252   8.358   6.565  0.2016 -0.4848  0.2707
20580SOL    HW163479   3.273   8.419   6.636  2.2897  1.3763 -1.7906
20580SOL    HW263480   3.303   8.279   6.585  1.2201  0.2313  0.5831
20581SOL     OW63481   1.882   1.117   9.178  0.0287 -0.7113 -0.2481
20581SOL    HW163482   1.900   1.042   9.121 -0.0016  0.0457 -1.3004
20581SOL    HW263483   1.942   1.185   9.147  2.3474 -1.2260  2.7551
20582SOL     OW63484   5.977   3.610   7.923  0.0098 -0.1075 -0.4004
20582SOL    HW163485   5.973   3.548   7.995 -0.8863  0.4996  0.0816
20582SOL    HW263486   6.053   3.582   7.872  0.5241 -0.6761  0.6482
20583SOL     OW63487   4.752   5.693   2.278  0.0349  0.5750  0.3125
20583SOL    HW163488   4.758   5.746   2.357  0.3830 -1.9139  2.0811
20583SOL    HW263489   4.819   5.728   2.220  1.5413  0.9054  2.1619
20584SOL     OW63490   0.694   5.600   4.743  0.0255  0.3074  0.6199
20584SOL    HW163491   0.726   5.601   4.653 -0.3900 -2.0264  0.3800
20584SOL    HW263492   0.649   5.684   4.754  0.4026  0.7886 -1.2193
20585SOL     OW63493   1.598   4.913   2.697  0.0845 -0.0965  1.0091
20585SOL    HW163494   1.604   4.946   2.787 -0.1782  0.0743  0.9654
20585SOL    HW263495   1.512   4.942   2.667  0.4516  0.4597  0.4617
20586SOL     OW63496   8.585   3.132   5.271 -0.4539 -0.1491  0.0949
20586SOL    HW163497   8.493   3.144   5.248 -0.8533 -3.5479 -0.6242
20586SOL    HW263498   8.583   3.071   5.345  1.2031 -1.5231 -0.9219
20587SOL     OW63499   6.245   1.948   5.046  0.1035 -0.2195 -0.2263
20587SOL    HW163500   6.151   1.938   5.027  0.1118  1.4109 -1.3496
20587SOL    HW263501   6.250   1.947   5.141 -0.8817 -1.5431 -0.1531
20588SOL     OW63502   2.796   3.645   7.780  0.2889 -0.4264 -0.7352
20588SOL    HW163503   2.808   3.605   7.694  1.0181 -0.1646 -0.7559
20588SOL    HW263504   2.884   3.660   7.812  0.0246 -0.5375  0.0717
20589SOL     OW63505   1.677   6.933   4.243  0.3475 -0.0298 -0.3692
20589SOL    HW163506   1.688   6.973   4.157  1.5993 -0.5358 -0.4686
20589SOL    HW263507   1.738   6.859   4.243 -0.8632 -1.0623  0.3385
20590SOL     OW63508   9.359   5.118   2.514  0.2868 -0.7168 -0.0147
20590SOL    HW163509   9.379   5.054   2.447  1.0883  0.1889 -0.6596
20590SOL    HW263510   9.273   5.154   2.489 -0.5344 -2.0380  0.7720
20591SOL     OW63511   9.593   7.929   4.735 -0.3128 -0.3420 -0.0041
20591SOL    HW163512   9.508   7.974   4.731 -0.5209 -0.7959 -0.8411
20591SOL    HW263513   9.634   7.948   4.651  1.3868  1.6770  1.1602
20592SOL     OW63514   5.407   3.854   2.014 -0.5410 -0.0363  0.0576
20592SOL    HW163515   5.375   3.943   1.999 -0.8682 -0.0405  0.6965
20592SOL    HW263516   5.423   3.851   2.108  1.1665 -0.0932 -0.2016
20593SOL     OW63517   1.376   4.287   4.237 -0.4003  0.5133  0.5944
20593SOL    HW163518   1.440   4.303   4.307  0.9433  1.3411 -0.7512
20593SOL    HW263519   1.350   4.196   4.248 -0.1550  0.6025  2.1022
20594SOL     OW63520   8.611   0.984   7.681 -0.4297  0.4136 -0.1618
20594SOL    HW163521   8.635   1.068   7.721 -0.8599  0.8090 -0.7294
20594SOL    HW263522   8.657   0.919   7.735 -1.1152  0.9145  1.0820
20595SOL     OW63523   1.759   4.569   8.665 -0.5367 -0.3867 -0.1493
20595SOL    HW163524   1.674   4.611   8.677  0.2681  0.7282  2.2251
20595SOL    HW263525   1.771   4.516   8.744  1.9726  1.4085  0.7938
20596SOL     OW63526   7.949   1.166   0.827 -0.1363 -0.0508 -0.0297
20596SOL    HW163527   7.957   1.120   0.911 -0.1520 -0.1735 -0.0955
20596SOL    HW263528   7.855   1.184   0.819 -0.3180 -1.1911 -0.6330
20597SOL     OW63529   6.374   5.206   1.086  0.0489  0.5736 -0.3646
20597SOL    HW163530   6.325   5.274   1.132  1.0668  0.8173  0.3956
20597SOL    HW263531   6.463   5.214   1.119  0.2567 -0.9362 -0.4754
20598SOL     OW63532   3.246   1.701   2.318 -0.4158  0.3409  1.0525
20598SOL    HW163533   3.281   1.705   2.407  0.4400 -0.5569  0.7831
20598SOL    HW263534   3.244   1.608   2.297  0.4917  0.5769 -0.2630
20599SOL     OW63535   5.376   8.570   4.271 -0.3364 -0.7011  0.2928
20599SOL    HW163536   5.426   8.606   4.198  0.9975  0.4422  1.7109
20599SOL    HW263537   5.419   8.488   4.293 -1.0596 -1.3137 -0.5016
20600SOL     OW63538   4.199   1.088   2.935  0.1028 -0.3971 -0.2459
20600SOL    HW163539   4.291   1.079   2.910  0.1259 -0.4715 -0.1354
20600SOL    HW263540   4.167   1.161   2.882  0.1854 -0.4710 -0.3963
20601SOL     OW63541   6.688   4.592   5.663  0.7835 -0.1660  0.2361
20601SOL    HW163542   6.625   4.540   5.715  0.8144  0.9067  1.3856
20601SOL    HW263543   6.773   4.559   5.690  0.7729 -0.2506  0.1673
20602SOL     OW63544   5.795   5.548   5.194  0.2034  0.5940 -0.0262
20602SOL    HW163545   5.844   5.628   5.213 -2.6275  2.4193  0.1444
20602SOL    HW263546   5.780   5.507   5.279  1.3419  0.0402 -0.0778
20603SOL     OW63547   2.768   7.407   0.190  0.0209  0.3539  0.0811
20603SOL    HW163548   2.849   7.362   0.217 -0.5326 -0.6801  0.0873
20603SOL    HW263549   2.734   7.444   0.271 -0.4542 -0.7946  0.4272
20604SOL     OW63550   0.960   8.966   8.282 -0.5080  0.1027 -0.2629
20604SOL    HW163551   0.939   9.059   8.285 -1.0468 -0.0151 -0.3255
20604SOL    HW263552   0.876   8.922   8.267 -0.1078 -0.3216 -1.3552
20605SOL     OW63553   2.195   6.484   0.005 -0.5613 -0.2015  0.2647
20605SOL    HW163554   2.238   6.399  -0.004  0.8507  0.5635 -0.5538
20605SOL    HW263555   2.222   6.534  -0.072  0.1427  1.5998  1.5785
20606SOL     OW63556   5.389   1.963   6.787 -0.5756  0.0583 -0.1431
20606SOL    HW163557   5.390   2.006   6.701 -1.2929  0.0192 -0.1807
20606SOL    HW263558   5.473   1.917   6.792  0.2794  1.5748 -0.0336
20607SOL     OW63559   5.342   1.740   4.262  0.2818  0.0614  0.1695
20607SOL    HW163560   5.435   1.764   4.260  0.3612 -0.2607 -0.6766
20607SOL    HW263561   5.341   1.649   4.293  0.5056 -0.8563 -2.2583
20608SOL     OW63562   6.314   5.791   6.983  0.1139 -0.5968 -0.4085
20608SOL    HW163563   6.228   5.832   6.983  0.8665  1.0421 -0.3381
20608SOL    HW263564   6.336   5.782   7.076  0.6470  0.3782 -0.4341
20609SOL     OW63565   7.864   5.415   0.782 -0.0847  1.1596  0.1466
20609SOL    HW163566   7.947   5.443   0.819  0.3337  0.0104  0.1238
20609SOL    HW263567   7.865   5.320   0.790 -1.6993  1.1589  0.7790
20610SOL     OW63568   6.829   2.134   8.946 -0.1318  0.1354 -0.0230
20610SOL    HW163569   6.915   2.175   8.940  0.4231 -0.7120  1.6544
20610SOL    HW263570   6.842   2.048   8.905  0.3578 -0.7223  1.8261
20611SOL     OW63571   0.492   6.562   7.252  0.3016  0.0216  0.4833
20611SOL    HW163572   0.419   6.554   7.191 -1.4842  2.9998  1.9903
20611SOL    HW263573   0.547   6.631   7.215  1.3279 -0.8427  0.3541
20612SOL     OW63574   6.251   5.655   6.202  0.7414  0.0247  0.3789
20612SOL    HW163575   6.184   5.690   6.144  2.1752  0.3157 -1.1645
20612SOL    HW263576   6.330   5.704   6.181  1.8298 -1.3484  1.0522
20613SOL     OW63577   3.814   8.451   2.054 -0.2452  0.0140  0.6324
20613SOL    HW163578   3.878   8.400   2.005 -1.8102 -1.5364  0.0832
20613SOL    HW263579   3.854   8.465   2.140  0.8020 -0.9061  0.3082
20614SOL     OW63580   6.666   6.276   3.191  0.2892 -0.1907  0.4050
20614SOL    HW163581   6.593   6.284   3.130 -1.7744  1.3490  2.8589
20614SOL    HW263582   6.738   6.240   3.139 -2.2783 -2.1348 -2.0632
20615SOL     OW63583   8.486   1.220   3.012 -0.1089 -0.2848  0.7284
20615SOL    HW163584   8.541   1.152   3.050  0.2465 -0.9662 -0.9076
20615SOL    HW263585   8.439   1.258   3.086  0.6441 -1.4412  1.8307
20616SOL     OW63586   0.550   7.431   1.656  0.2788 -0.0685 -0.2678
20616SOL    HW163587   0.511   7.344   1.652  0.7276 -0.2690 -0.3028
20616SOL    HW263588   0.623   7.428   1.595  0.2966  0.3326 -0.2697
20617SOL     OW63589   1.466   4.412   8.928  0.0639 -0.0267  0.1087
20617SOL    HW163590   1.403   4.343   8.906 -0.6432  0.8478 -0.6730
20617SOL    HW263591   1.503   4.438   8.844 -0.2013  1.0324  0.3016
20618SOL     OW63592   1.420   4.619   6.849  0.7576 -0.1878  0.0689
20618SOL    HW163593   1.421   4.695   6.790  0.4789  2.0669  2.7849
20618SOL    HW263594   1.371   4.649   6.925 -1.0547 -3.7951  0.4943
20619SOL     OW63595   7.835   4.933   5.361 -0.1376  0.3357 -0.5252
20619SOL    HW163596   7.888   4.855   5.373  3.0207  2.3231 -0.4121
20619SOL    HW263597   7.874   4.977   5.285 -0.3798  2.8157  0.6821
20620SOL     OW63598   5.427   7.646   6.774  0.6049 -0.4434  0.2354
20620SOL    HW163599   5.451   7.564   6.817 -0.3058  0.4287  2.5548
20620SOL    HW263600   5.384   7.698   6.842  0.8659  1.8577 -1.2230
20621SOL     OW63601   0.364   3.785   2.782 -0.3242 -0.1410 -0.2760
20621SOL    HW163602   0.317   3.823   2.708 -0.0092  0.9099  0.0486
20621SOL    HW263603   0.299   3.782   2.853 -0.8269 -1.7827 -0.7509
20622SOL     OW63604   3.976   6.653   0.408  1.0058  0.3106 -0.1841
20622SOL    HW163605   4.033   6.578   0.426 -0.5256 -0.8615  0.0354
20622SOL    HW263606   3.937   6.675   0.492 -0.8222 -0.6178 -0.7348
20623SOL     OW63607   1.024   5.149   2.159 -0.5255  0.0996 -0.1503
20623SOL    HW163608   0.996   5.116   2.074  2.6459 -0.9026 -0.9694
20623SOL    HW263609   1.010   5.075   2.219 -1.2240  0.2339 -0.1389
20624SOL     OW63610   4.879   3.409   5.112  0.1231 -0.1264  0.6759
20624SOL    HW163611   4.878   3.505   5.110 -0.6877 -0.0714  2.0064
20624SOL    HW263612   4.847   3.383   5.026 -0.7975  0.8269  0.7094
20625SOL     OW63613   1.819   3.350   7.887  0.4344  0.7580 -0.2121
20625SOL    HW163614   1.902   3.309   7.911  0.5002  1.9600  1.8164
20625SOL    HW263615   1.818   3.347   7.791  2.6524  0.3967 -0.2828
20626SOL     OW63616   4.691   8.817   8.387  0.2783 -0.4673  0.1930
20626SOL    HW163617   4.729   8.904   8.380  1.9568 -1.2279 -1.3871
20626SOL    HW263618   4.604   8.825   8.349  1.5631 -0.0131 -3.0733
20627SOL     OW63619   4.576   0.836   8.413 -0.4575  0.5549 -0.1188
20627SOL    HW163620   4.565   0.743   8.429 -1.8850  0.8745  0.9467
20627SOL    HW263621   4.531   0.851   8.330  2.6028 -0.2154 -2.0719
20628SOL     OW63622   5.604   7.920   0.705  0.4151  0.2306 -0.1104
20628SOL    HW163623   5.658   7.990   0.667 -0.8623  1.9351  1.0571
20628SOL    HW263624   5.629   7.917   0.797  1.3931 -1.8433 -0.3797
20629SOL     OW63625   1.692   4.318   2.220  0.2368 -0.4392 -0.0763
20629SOL    HW163626   1.737   4.267   2.287 -0.6198  0.4537  1.2166
20629SOL    HW263627   1.727   4.407   2.229  0.5907 -0.4307 -1.2755
20630SOL     OW63628   0.230   4.134   1.000 -0.5035  0.1542 -0.2591
20630SOL    HW163629   0.285   4.208   1.029  1.1092 -0.7907 -0.7914
20630SOL    HW263630   0.171   4.118   1.074  0.5270  0.6601  0.7040
20631SOL     OW63631   6.566   6.401   5.853 -0.8123  0.5808 -0.1566
20631SOL    HW163632   6.612   6.318   5.852 -0.8042  0.5869 -0.4060
20631SOL    HW263633   6.480   6.382   5.815 -0.7637  0.7097 -0.3382
20632SOL     OW63634   6.561   8.057   7.506  0.0887  0.5689 -0.4373
20632SOL    HW163635   6.523   8.025   7.588  1.2025 -0.9711 -0.4748
20632SOL    HW263636   6.564   7.980   7.449  1.4954  1.0603 -1.0713
20633SOL     OW63637   3.513   4.944   0.659  0.1870 -0.8129  0.5610
20633SOL    HW163638   3.452   5.005   0.618 -0.0931 -1.0532  0.6236
20633SOL    HW263639   3.474   4.858   0.646  0.7597 -1.0185  0.1533
20634SOL     OW63640   6.174   0.193   9.059 -0.4444 -0.0876 -0.4396
20634SOL    HW163641   6.087   0.181   9.096 -1.0471 -1.2491 -2.0971
20634SOL    HW263642   6.161   0.261   8.992  0.7016  2.2937  1.5913
20635SOL     OW63643   5.571   2.131   8.426  0.3163  0.0872  0.2923
20635SOL    HW163644   5.601   2.114   8.516 -2.9276  0.6561  1.6303
20635SOL    HW263645   5.546   2.044   8.393  0.4689  0.0131  0.3715
20636SOL     OW63646   0.302   7.815   4.763  0.0384 -0.0437 -0.3815
20636SOL    HW163647   0.316   7.847   4.853 -0.1219 -0.4643 -0.2030
20636SOL    HW263648   0.361   7.740   4.755 -0.4019 -0.3882 -0.4148
20637SOL     OW63649   2.768   1.067   0.357 -0.2634 -0.4975  0.3629
20637SOL    HW163650   2.840   1.098   0.411  0.2938  2.0302 -1.6114
20637SOL    HW263651   2.694   1.060   0.418  0.3123  2.2317  1.5538
20638SOL     OW63652   8.887   8.591   7.907  0.0169  0.1505 -0.6065
20638SOL    HW163653   8.859   8.500   7.903  1.3277 -0.2739 -0.7897
20638SOL    HW263654   8.810   8.642   7.880 -0.7271 -0.8941 -0.4875
20639SOL     OW63655   7.106   0.084   3.555 -0.2794 -0.6686 -0.0243
20639SOL    HW163656   7.032   0.061   3.611 -0.3310  2.8147  1.5982
20639SOL    HW263657   7.179   0.096   3.615 -0.0013  1.9394 -0.7859
20640SOL     OW63658   1.708   6.671   2.000 -0.4387 -0.1348  0.2534
20640SOL    HW163659   1.769   6.656   2.072  1.1431 -0.8573 -1.1667
20640SOL    HW263660   1.699   6.766   1.995 -0.8710 -0.0805  1.5998
20641SOL     OW63661   3.217   4.811   0.496 -0.0139 -0.8381  0.6151
20641SOL    HW163662   3.141   4.791   0.549  0.1826 -0.6057  0.9855
20641SOL    HW263663   3.228   4.734   0.440 -1.0845 -0.4857 -0.1151
20642SOL     OW63664   4.687   5.381   7.336 -0.3887 -0.3290 -0.0160
20642SOL    HW163665   4.749   5.348   7.402 -0.6567 -1.2406 -0.2034
20642SOL    HW263666   4.624   5.432   7.387 -0.7553 -1.2605  0.4991
20643SOL     OW63667   1.246   3.901   4.164  0.4551  0.0824 -0.9143
20643SOL    HW163668   1.188   3.965   4.123  0.7462 -0.4718 -2.2456
20643SOL    HW263669   1.305   3.873   4.094  2.6238  0.9078  0.4560
20644SOL     OW63670   8.766   4.787   7.387  0.1884 -0.4851 -0.3267
20644SOL    HW163671   8.688   4.786   7.331  0.4343  0.1610 -0.6918
20644SOL    HW263672   8.839   4.783   7.326  0.5264  2.5332 -0.2723
20645SOL     OW63673   7.564   8.582   3.196  0.3103 -0.4315  0.1985
20645SOL    HW163674   7.555   8.488   3.179  0.7816 -0.5048  0.3285
20645SOL    HW263675   7.572   8.589   3.291  0.8488 -0.3169  0.1513
20646SOL     OW63676   8.821   7.507   8.173  0.8356  0.4888  0.5286
20646SOL    HW163677   8.856   7.421   8.153  1.1851  0.7238  0.1081
20646SOL    HW263678   8.812   7.550   8.087 -1.7236 -0.0256  0.4583
20647SOL     OW63679   0.218   6.879   3.532  0.2260  0.2342 -1.0225
20647SOL    HW163680   0.282   6.944   3.501 -1.1048  1.3016 -1.6222
20647SOL    HW263681   0.134   6.911   3.500 -0.6652 -0.9797  0.0132
20648SOL     OW63682   7.876   8.114   7.405 -0.2017  0.0913 -0.3066
20648SOL    HW163683   7.884   8.205   7.376  1.8956  0.2773  0.6754
20648SOL    HW263684   7.794   8.112   7.455  0.3578  1.7871  0.7679
20649SOL     OW63685   9.313   0.981   9.312  0.0106 -0.1708  0.2163
20649SOL    HW163686   9.382   0.953   9.372  0.0670  0.4947  0.4787
20649SOL    HW263687   9.273   1.057   9.356 -0.6421 -0.3198 -0.1042
20650SOL     OW63688   4.810   9.126   6.260 -0.1729  0.0030  0.3707
20650SOL    HW163689   4.790   9.212   6.296  0.4801 -0.6438  2.3923
20650SOL    HW263690   4.891   9.139   6.212  0.3311  0.3825  1.2927
20651SOL     OW63691   5.548   2.187   0.415 -0.2967  0.5207 -0.1587
20651SOL    HW163692   5.483   2.116   0.420 -1.2691  1.4557  1.3225
20651SOL    HW263693   5.624   2.153   0.463 -1.0115  0.6956  1.1543
20652SOL     OW63694   4.439   9.314   9.605 -0.1621 -0.2453 -0.2780
20652SOL    HW163695   4.494   9.345   9.677 -0.0208  0.3172 -0.6234
20652SOL    HW263696   4.498   9.310   9.529 -0.1393 -1.4987 -0.2155
20653SOL     OW63697   2.799   8.608   5.180 -0.5536 -0.6503  0.4038
20653SOL    HW163698   2.877   8.573   5.223  0.0524  0.3844  0.1805
20653SOL    HW263699   2.739   8.629   5.252 -0.9351 -2.0997  0.5427
20654SOL     OW63700   5.199   9.081   5.163  0.4654  0.0488  0.0844
20654SOL    HW163701   5.234   9.004   5.209 -0.2915 -1.3953 -1.6500
20654SOL    HW263702   5.120   9.104   5.212  1.3492  0.5307  1.3440
20655SOL     OW63703   2.503   6.159   8.945  0.2880 -0.0152  0.6336
20655SOL    HW163704   2.563   6.086   8.931  0.1913 -0.1547  0.9367
20655SOL    HW263705   2.543   6.232   8.898  1.5695  0.3483  2.2248
20656SOL     OW63706   5.213   9.592   6.430  0.6618 -0.3348  0.3317
20656SOL    HW163707   5.225   9.547   6.513  0.3355 -0.6231  0.2269
20656SOL    HW263708   5.167   9.529   6.375 -2.2653  0.9844  1.0300
20657SOL     OW63709   4.339   9.009   7.009 -0.0183 -0.2720  0.2264
20657SOL    HW163710   4.370   9.099   6.994  2.0107 -0.5373  2.3108
20657SOL    HW263711   4.252   9.020   7.047 -0.2537  0.7576 -0.5564
20658SOL     OW63712   0.530   8.561   1.790 -0.0739  0.0976  0.0352
20658SOL    HW163713   0.490   8.572   1.876 -1.0047  0.3173 -0.4121
20658SOL    HW263714   0.544   8.650   1.758  1.2370  0.0330  0.3807
20659SOL     OW63715   3.781   7.668   8.558  0.1879 -0.7271  0.4016
20659SOL    HW163716   3.822   7.609   8.495  0.0815 -1.0383  0.6221
20659SOL    HW263717   3.701   7.696   8.515  1.1283  0.7173 -0.4725
20660SOL     OW63718   9.171   2.719   2.536  0.3205  0.1019  0.3328
20660SOL    HW163719   9.180   2.813   2.549  0.1731  0.0430  0.9088
20660SOL    HW263720   9.103   2.710   2.470  0.0541  0.3953  0.5612
20661SOL     OW63721   5.195   4.374   5.367 -0.3667 -0.4562  0.8488
20661SOL    HW163722   5.274   4.320   5.356 -0.0054  0.4028 -1.2627
20661SOL    HW263723   5.209   4.419   5.451  1.9985  0.5665 -0.0005
20662SOL     OW63724   0.384   2.671   2.404 -0.3993 -0.4229  0.3523
20662SOL    HW163725   0.310   2.651   2.460 -0.3117 -1.4545  0.1095
20662SOL    HW263726   0.442   2.596   2.413  1.0452  0.7371  1.2129
20663SOL     OW63727   7.982   7.584   5.599  0.3820 -0.4801  0.4164
20663SOL    HW163728   7.945   7.661   5.557  0.8180 -0.8817 -0.7760
20663SOL    HW263729   7.914   7.517   5.592  0.3067 -0.4361  0.7176
20664SOL     OW63730   8.708   8.120   3.607  0.0938 -0.4178 -0.1763
20664SOL    HW163731   8.749   8.035   3.595  0.5437 -0.1241 -0.7845
20664SOL    HW263732   8.616   8.106   3.585  0.1094 -0.8056 -0.0043
20665SOL     OW63733   8.242   7.605   4.522  0.0274 -0.2200  0.2954
20665SOL    HW163734   8.197   7.683   4.488 -0.4377  0.0101  1.3999
20665SOL    HW263735   8.266   7.555   4.443  1.2807  1.5232 -0.4993
20666SOL     OW63736   2.598   0.598   6.101 -0.0630 -0.0394  0.3599
20666SOL    HW163737   2.692   0.584   6.113  0.1600  1.2225  0.2130
20666SOL    HW263738   2.587   0.693   6.102 -1.1624 -0.1136 -0.9688
20667SOL     OW63739   1.398   8.190   3.000 -0.2826  0.4100  0.0976
20667SOL    HW163740   1.393   8.285   2.988 -1.8512  0.5940  1.8031
20667SOL    HW263741   1.469   8.178   3.064  0.9001  0.2731 -1.1912
20668SOL     OW63742   8.534   0.428   6.666 -0.2007 -0.3600 -0.4110
20668SOL    HW163743   8.519   0.373   6.589 -0.2263 -0.4186 -0.3640
20668SOL    HW263744   8.596   0.495   6.636 -1.1200  0.3395 -0.8315
20669SOL     OW63745   6.756   6.685   1.017  0.0476  0.1724  0.1269
20669SOL    HW163746   6.696   6.757   1.038  0.5084  0.3387  0.9580
20669SOL    HW263747   6.828   6.696   1.080  1.4881  0.6222 -1.5140
20670SOL     OW63748   6.693   9.183   0.370 -0.7665 -0.5709  0.5232
20670SOL    HW163749   6.757   9.213   0.435 -0.9743 -0.2112  0.5666
20670SOL    HW263750   6.637   9.259   0.355 -1.7188 -1.1246  1.1271
20671SOL     OW63751   7.046   1.471   3.850  0.3257 -0.2380 -0.7142
20671SOL    HW163752   7.063   1.439   3.762  1.3840 -0.3287 -0.4886
20671SOL    HW263753   6.982   1.410   3.886  0.7542 -0.8880 -1.0241
20672SOL     OW63754   0.004   0.578   4.329  0.1761 -0.3255  0.0275
20672SOL    HW163755   0.016   0.626   4.247 -1.1433 -0.3242 -0.1868
20672SOL    HW263756   0.027   0.640   4.397 -0.4728  0.2716 -0.2857
20673SOL     OW63757   2.622   1.340   2.345 -0.0074  0.0268 -0.0566
20673SOL    HW163758   2.643   1.258   2.301  0.4456  0.1432 -0.0602
20673SOL    HW263759   2.529   1.354   2.327  0.4328  0.6691 -1.9720
20674SOL     OW63760   2.888   2.685   4.618 -0.1531 -0.2383  0.0683
20674SOL    HW163761   2.968   2.691   4.566 -0.2661  0.2081 -0.0568
20674SOL    HW263762   2.899   2.752   4.686  0.3750 -1.3750  1.1490
20675SOL     OW63763   6.912   0.658   7.292 -0.1284 -0.1771  0.2788
20675SOL    HW163764   6.936   0.702   7.373  2.7581 -1.2599  0.1290
20675SOL    HW263765   6.817   0.668   7.286 -0.5343 -0.4293  4.0022
20676SOL     OW63766   4.697   6.804   3.786  0.4742 -0.2323 -0.1571
20676SOL    HW163767   4.613   6.758   3.777 -0.2667  1.2999 -2.0310
20676SOL    HW263768   4.763   6.740   3.761 -0.2471 -1.1173  0.1681
20677SOL     OW63769   3.644   6.518   6.988  0.5901  0.2991 -0.1798
20677SOL    HW163770   3.628   6.511   6.894  0.4718  0.1090 -0.1463
20677SOL    HW263771   3.561   6.493   7.028  0.6792  0.2548 -0.0223
20678SOL     OW63772   4.600   4.736   2.499 -0.3185 -0.2090  1.0823
20678SOL    HW163773   4.621   4.819   2.457 -0.7598  0.1857  1.6213
20678SOL    HW263774   4.648   4.737   2.581 -0.2546 -0.5276  1.0519
20679SOL     OW63775   8.075   5.708   5.468  0.5144  0.7073  0.2087
20679SOL    HW163776   7.999   5.762   5.489  0.4905  0.8875 -0.3212
20679SOL    HW263777   8.048   5.658   5.391  1.0723  1.0717 -0.2330
20680SOL     OW63778   4.337   1.781   2.792  0.1548  0.2179  0.5284
20680SOL    HW163779   4.347   1.721   2.719 -0.7925  0.8254 -0.1252
20680SOL    HW263780   4.426   1.812   2.810  0.2885  0.8631 -1.0745
20681SOL     OW63781   0.549   7.861   1.519 -0.3548  0.5798  0.0136
20681SOL    HW163782   0.468   7.908   1.499 -0.5263 -0.1200 -0.9956
20681SOL    HW263783   0.584   7.906   1.596 -2.0956  0.3996  0.9608
20682SOL     OW63784   9.198   1.098   2.141  0.0349  0.3904  0.6510
20682SOL    HW163785   9.152   1.015   2.150  0.1095  0.1688 -0.7623
20682SOL    HW263786   9.283   1.075   2.103  1.6355  0.7305  3.7745
20683SOL     OW63787   7.033   3.228   8.269  0.0922  0.2753  0.5770
20683SOL    HW163788   7.070   3.159   8.214  0.5449  1.1690 -0.2687
20683SOL    HW263789   7.083   3.307   8.247 -3.7666  2.2255 -2.5756
20684SOL     OW63790   8.713   1.517   6.084  0.0741 -0.1845 -0.4330
20684SOL    HW163791   8.638   1.570   6.059 -0.4657 -0.3135  0.8131
20684SOL    HW263792   8.681   1.465   6.158  1.1535 -0.8464 -0.4165
20685SOL     OW63793   8.462   2.169   4.508 -0.1582 -0.6139 -0.4032
20685SOL    HW163794   8.449   2.202   4.597  0.6204 -0.5113 -0.3277
20685SOL    HW263795   8.408   2.090   4.504 -1.0592 -0.0286 -0.1931
20686SOL     OW63796   5.656   3.123   9.521 -0.2958  0.3257 -0.4472
20686SOL    HW163797   5.633   3.050   9.463  0.0346  0.7491 -1.1384
20686SOL    HW263798   5.573   3.151   9.560 -0.3555 -0.7255  0.2029
20687SOL     OW63799   6.016   9.120   5.049  0.0192 -1.0008  0.0072
20687SOL    HW163800   6.036   9.141   5.140 -0.5605 -2.4557  0.4876
20687SOL    HW263801   5.939   9.173   5.029  0.0937 -0.7401  0.3909
20688SOL     OW63802   1.611   1.111   0.253 -0.4572  0.2572 -0.1762
20688SOL    HW163803   1.660   1.103   0.335  0.2047  2.7355 -0.2528
20688SOL    HW263804   1.672   1.082   0.186 -0.0981  0.6697 -0.0266
20689SOL     OW63805   3.441   2.150   2.882  0.2812 -0.2229 -0.5663
20689SOL    HW163806   3.468   2.119   2.968 -0.5669  0.0278 -0.1991
20689SOL    HW263807   3.509   2.118   2.822  0.9476 -0.2838  0.2092
20690SOL     OW63808   0.950   3.733   3.768  0.5792 -0.3666  0.2727
20690SOL    HW163809   0.935   3.797   3.699 -1.9839  0.2217  1.2467
20690SOL    HW263810   0.875   3.673   3.761  2.7610 -3.2576 -0.4829
20691SOL     OW63811   3.655   3.658   9.397 -0.1863  0.5263 -0.0474
20691SOL    HW163812   3.592   3.720   9.361 -0.0834  1.1883  0.8752
20691SOL    HW263813   3.646   3.667   9.492  0.3062 -0.3927  0.0969
20692SOL     OW63814   4.245   6.649   0.863 -0.1838  0.2881 -0.6490
20692SOL    HW163815   4.275   6.559   0.875 -0.9250  0.1474  0.3159
20692SOL    HW263816   4.169   6.642   0.805 -1.0432  0.1082  0.4472
20693SOL     OW63817   2.753   4.923   3.113 -0.2447  0.2636 -0.2233
20693SOL    HW163818   2.722   4.968   3.191 -0.1679 -0.4003  0.1944
20693SOL    HW263819   2.803   4.990   3.065  1.0541  0.2674  1.0712
20694SOL     OW63820   8.164   1.985   0.296 -0.9748  0.3291  0.0588
20694SOL    HW163821   8.153   1.890   0.293  1.0245  0.0401  0.4124
20694SOL    HW263822   8.232   1.999   0.362 -0.0515  1.8733 -1.1503
20695SOL     OW63823   6.177   5.158   6.508  0.1264 -0.4799  0.2620
20695SOL    HW163824   6.120   5.081   6.501  0.0596 -0.5170  1.1012
20695SOL    HW263825   6.262   5.128   6.476 -0.2460 -0.5098 -0.7144
20696SOL     OW63826   9.319   1.889   3.362 -0.3886 -0.2805 -0.0030
20696SOL    HW163827   9.254   1.952   3.395 -2.0568 -1.6180 -0.6032
20696SOL    HW263828   9.323   1.907   3.268 -0.1529 -0.4370 -0.0233
20697SOL     OW63829   2.701   5.950   8.946 -0.2524  0.0731  0.1876
20697SOL    HW163830   2.742   5.891   8.882 -0.3538 -0.6565  0.7868
20697SOL    HW263831   2.769   6.014   8.967 -0.4205  0.7194 -1.1330
20698SOL     OW63832   3.338   3.967   5.191  0.6782 -0.3737 -0.4704
20698SOL    HW163833   3.372   3.977   5.280 -1.9072  2.0993  0.3941
20698SOL    HW263834   3.322   4.057   5.161 -1.2086 -1.2267 -2.2917
20699SOL     OW63835   2.887   9.446   4.717 -0.3769  0.3381 -0.0911
20699SOL    HW163836   2.803   9.468   4.758 -1.0410 -0.9424 -0.7225
20699SOL    HW263837   2.890   9.351   4.719 -0.4485  0.1848 -2.9875
20700SOL     OW63838   8.141   2.997   4.476 -0.1084  0.2245 -0.0861
20700SOL    HW163839   8.077   2.940   4.434  0.0843 -1.3896  1.6945
20700SOL    HW263840   8.089   3.070   4.510 -0.6313  0.1507 -0.7012
20701SOL     OW63841   6.871   4.649   8.760  0.2699  0.7327  0.3832
20701SOL    HW163842   6.790   4.694   8.737  0.1068  0.0440 -0.4505
20701SOL    HW263843   6.857   4.618   8.849  0.0991  1.6629  0.6957
20702SOL     OW63844   5.500   1.147   4.918  0.1683  0.4958  0.1264
20702SOL    HW163845   5.581   1.166   4.870  0.3948  0.2884  0.4239
20702SOL    HW263846   5.431   1.158   4.853  0.4772  0.2004 -0.2547
20703SOL     OW63847   3.259   2.353   9.496 -0.0498  0.4678  0.1673
20703SOL    HW163848   3.247   2.258   9.503 -0.4639  0.5657  0.8997
20703SOL    HW263849   3.212   2.377   9.416  1.1332 -0.1059 -0.7370
20704SOL     OW63850   8.653   7.988   4.225  0.1394 -0.0918 -0.0054
20704SOL    HW163851   8.631   7.972   4.317  0.8388  1.1006  0.4031
20704SOL    HW263852   8.643   7.903   4.182 -0.8061 -0.5318  1.0462
20705SOL     OW63853   2.528   0.291   3.760  0.3584  0.1762 -0.0273
20705SOL    HW163854   2.492   0.379   3.774 -0.2719 -0.0273 -0.3579
20705SOL    HW263855   2.602   0.305   3.701  0.9618  0.6196  0.8063
20706SOL     OW63856   5.325   7.522   2.958  1.1630  0.8753  0.2202
20706SOL    HW163857   5.273   7.601   2.961  0.1300  0.2040  0.5385
20706SOL    HW263858   5.303   7.475   3.039 -1.8106 -1.8823 -1.9067
20707SOL     OW63859   2.316   8.260   5.374  0.2271  0.2956  0.1667
20707SOL    HW163860   2.255   8.308   5.318 -0.8641 -1.3416 -0.0919
20707SOL    HW263861   2.295   8.291   5.463  0.3874  1.1839 -0.0912
20708SOL     OW63862   6.896   8.424   8.764 -0.2962  0.0218 -0.1922
20708SOL    HW163863   6.934   8.466   8.841  1.3068  0.7097 -1.3042
20708SOL    HW263864   6.897   8.492   8.697 -0.1867 -1.0043 -1.2631
20709SOL     OW63865   9.346   0.780   2.003 -1.1342  0.3551  0.2416
20709SOL    HW163866   9.400   0.857   1.984  0.5521 -0.3343  1.8893
20709SOL    HW263867   9.261   0.816   2.028 -1.2173  1.5293 -1.5762
20710SOL     OW63868   6.541   9.347   6.676 -0.0225  0.1005 -0.2390
20710SOL    HW163869   6.518   9.256   6.656  0.1278 -0.4297  1.7331
20710SOL    HW263870   6.471   9.376   6.734  1.5636  0.1226  1.7794
20711SOL     OW63871   7.277   8.221   5.987  0.3439  0.1189  0.0540
20711SOL    HW163872   7.189   8.244   5.957 -0.4254  0.0376  2.1069
20711SOL    HW263873   7.268   8.135   6.026  0.9953  0.7053  1.5874
20712SOL     OW63874   9.108   6.288   4.802 -0.3269 -0.0301  0.3409
20712SOL    HW163875   9.036   6.298   4.865 -2.5289  2.4390 -2.2701
20712SOL    HW263876   9.092   6.202   4.762 -0.9527 -0.1251  0.7660
20713SOL     OW63877   9.257   3.015   1.904 -0.2951  0.3470  0.0502
20713SOL    HW163878   9.237   3.108   1.891  1.1356  1.0562  2.3267
20713SOL    HW263879   9.245   2.976   1.817  1.0575  3.0655 -1.5240
20714SOL     OW63880   7.503   0.314   2.468 -0.1044  0.2405 -0.3175
20714SOL    HW163881   7.595   0.287   2.467  0.0792  0.6715  1.4593
20714SOL    HW263882   7.457   0.241   2.509 -0.2475  0.8038  0.5562
20715SOL     OW63883   3.666   4.500   7.071 -0.3679 -0.0552  0.0933
20715SOL    HW163884   3.657   4.446   7.149  0.6330 -1.5134 -0.7563
20715SOL    HW263885   3.622   4.582   7.093 -2.2401 -1.3148  1.3105
20716SOL     OW63886   9.364   7.774   5.896 -0.6720 -0.7120  0.0607
20716SOL    HW163887   9.338   7.690   5.935 -0.5068 -0.5871  0.4498
20716SOL    HW263888   9.445   7.797   5.942 -0.6629 -0.3902 -0.1179
20717SOL     OW63889   9.145   5.469   6.884 -0.4032  0.1614  0.4750
20717SOL    HW163890   9.152   5.543   6.824  0.7264  0.8519  1.4249
20717SOL    HW263891   9.210   5.406   6.853  0.6460  0.7985  1.3347
20718SOL     OW63892   2.200   3.299   3.218 -0.2348 -0.3850 -0.2807
20718SOL    HW163893   2.225   3.387   3.188  2.5155 -1.4610 -1.5090
20718SOL    HW263894   2.178   3.251   3.139 -0.7053 -1.0991  0.2679
20719SOL     OW63895   2.487   1.467   2.761 -0.2348  0.1389 -0.3686
20719SOL    HW163896   2.416   1.414   2.796  0.1766 -0.1131  0.0936
20719SOL    HW263897   2.551   1.404   2.727  0.3215  0.3194  0.3132
20720SOL     OW63898   1.929   1.896   3.830  0.4990 -0.0585 -0.2373
20720SOL    HW163899   1.959   1.937   3.748 -1.1688 -0.7405 -1.2478
20720SOL    HW263900   1.855   1.950   3.858  0.3505 -0.4815  0.2030
20721SOL     OW63901   1.327   8.468   6.081 -0.3365  0.8246 -0.7245
20721SOL    HW163902   1.292   8.446   5.995  0.1771 -0.1312 -0.6991
20721SOL    HW263903   1.275   8.415   6.142  0.6784 -0.1042 -0.6311
20722SOL     OW63904   7.700   4.646   7.673  0.0861 -0.8203 -0.4002
20722SOL    HW163905   7.680   4.624   7.764  0.4917  2.5450  0.6448
20722SOL    HW263906   7.621   4.690   7.641  0.5037 -0.6322 -1.1943
20723SOL     OW63907   5.633   0.005   7.259  0.0818  0.4186 -0.4156
20723SOL    HW163908   5.690   0.026   7.185 -2.4002  1.9085 -2.0664
20723SOL    HW263909   5.586  -0.074   7.232  1.4213 -0.9438  1.0307
20724SOL     OW63910   0.571   8.056   4.772  0.1922  0.1391 -0.1424
20724SOL    HW163911   0.602   7.971   4.806  0.2687  0.1609 -0.1560
20724SOL    HW263912   0.584   8.050   4.677  1.7067  0.7623 -0.0055
20725SOL     OW63913   1.021   8.022   9.231 -0.1398  0.6850 -0.2688
20725SOL    HW163914   1.021   8.110   9.193  1.7163  0.1379 -1.6990
20725SOL    HW263915   1.093   8.022   9.294 -2.5248  1.2496  2.6621
20726SOL     OW63916   4.322   2.778   2.180 -0.0018 -0.0486  0.3864
20726SOL    HW163917   4.227   2.774   2.169 -0.0045  0.2300  0.3113
20726SOL    HW263918   4.357   2.740   2.100 -0.0250  1.7070 -0.5137
20727SOL     OW63919   2.068   1.400   6.587  0.6288  0.0774 -0.1610
20727SOL    HW163920   2.066   1.483   6.540 -1.2564 -0.5593 -1.3492
20727SOL    HW263921   1.983   1.395   6.631  1.3599 -0.5129  1.2583
20728SOL     OW63922   0.174   9.588   2.166  0.1768  0.3161  0.1095
20728SOL    HW163923   0.093   9.582   2.116 -0.2915  1.9006  0.5914
20728SOL    HW263924   0.212   9.501   2.163  0.9972  0.6286 -4.3223
20729SOL     OW63925   6.003   2.885   7.401  0.0540  0.2865 -0.3592
20729SOL    HW163926   5.956   2.802   7.405  2.1944 -0.9937 -0.4196
20729SOL    HW263927   6.012   2.912   7.493  2.2585 -1.3500 -0.0106
20730SOL     OW63928   4.036   7.983   3.864  0.1531 -0.1690  0.0024
20730SOL    HW163929   3.946   7.977   3.897  0.5053  2.1147  1.5924
20730SOL    HW263930   4.036   7.927   3.787 -2.6247 -0.3025 -0.0278
20731SOL     OW63931   0.546   9.528   1.270 -0.0220  0.1706 -0.6305
20731SOL    HW163932   0.455   9.524   1.297 -0.1677  0.9745 -0.9706
20731SOL    HW263933   0.592   9.562   1.346 -0.2715  1.3912 -0.9991
20732SOL     OW63934   1.930   0.601   0.200 -0.1722  0.5461 -0.1277
20732SOL    HW163935   2.012   0.647   0.187  1.1348 -1.3602  0.8724
20732SOL    HW263936   1.951   0.509   0.182 -2.8044  0.2893 -2.7026
20733SOL     OW63937   7.859   7.428   4.954 -0.8700 -0.1177 -0.3113
20733SOL    HW163938   7.860   7.521   4.978  2.5953  0.8871 -3.4382
20733SOL    HW263939   7.941   7.394   4.990 -1.3385 -1.5516 -0.5671
20734SOL     OW63940   2.145   5.823   8.083 -0.5037  0.1194 -0.5179
20734SOL    HW163941   2.153   5.731   8.107 -2.8570  0.0925  0.3737
20734SOL    HW263942   2.110   5.866   8.161  2.2165  2.1902 -0.2746
20735SOL     OW63943   9.579   5.391   5.230  0.3473  0.4352 -0.1024
20735SOL    HW163944   9.656   5.448   5.224  1.5104 -0.8431  1.7239
20735SOL    HW263945   9.517   5.439   5.285  0.6356  0.6465  0.0356
20736SOL     OW63946   0.526   2.533   3.334 -0.3119  0.1077  0.3860
20736SOL    HW163947   0.577   2.614   3.327  0.1916 -0.2660 -0.4621
20736SOL    HW263948   0.502   2.512   3.244 -0.0693 -0.9160  0.5439
20737SOL     OW63949   7.883   9.129   5.568 -0.3925  0.8291 -0.3564
20737SOL    HW163950   7.901   9.176   5.649 -1.6097  1.5690 -0.4918
20737SOL    HW263951   7.825   9.188   5.519  0.1126  0.2821 -1.6468
20738SOL     OW63952   3.239   3.015   1.037 -0.3636  0.4879 -0.9249
20738SOL    HW163953   3.189   3.084   0.995 -1.4355  0.7842  0.7289
20738SOL    HW263954   3.330   3.031   1.010 -0.6603  2.2237 -1.0325
20739SOL     OW63955   5.479   4.390   5.018 -0.0521 -0.1573 -0.0644
20739SOL    HW163956   5.486   4.410   4.925 -1.4781 -1.1319 -0.4202
20739SOL    HW263957   5.440   4.302   5.021 -0.6925  0.1394  1.4484
20740SOL     OW63958   4.354   5.534   6.987  0.2542  0.2230  0.0885
20740SOL    HW163959   4.301   5.595   7.039 -0.9729 -0.8523  0.1353
20740SOL    HW263960   4.439   5.532   7.032 -0.0556  1.0248  0.7339
20741SOL     OW63961   5.948   8.137   7.615 -0.0208  0.5364  0.6168
20741SOL    HW163962   6.011   8.127   7.543 -0.7085  0.0837  0.0602
20741SOL    HW263963   5.998   8.180   7.685  1.3906 -1.2892  0.8133
20742SOL     OW63964   7.851   3.739   7.461 -0.8381  0.1429  0.1011
20742SOL    HW163965   7.849   3.656   7.415 -0.7096 -0.0748  0.4830
20742SOL    HW263966   7.797   3.798   7.408  0.0666  0.1623 -0.8347
20743SOL     OW63967   9.314   0.830   6.622 -0.1495 -0.6616 -0.1615
20743SOL    HW163968   9.284   0.758   6.566  0.2711 -0.4146 -0.7186
20743SOL    HW263969   9.240   0.847   6.681 -0.4292 -1.2326 -0.3409
20744SOL     OW63970   5.278   5.437   6.807 -0.2671 -0.3183 -0.1718
20744SOL    HW163971   5.193   5.398   6.787 -0.1694  0.6402 -2.8129
20744SOL    HW263972   5.331   5.422   6.729  0.9265  1.9039  0.1142
20745SOL     OW63973   8.138   6.374   0.630 -0.1402 -0.9542 -0.3952
20745SOL    HW163974   8.190   6.454   0.620  0.2238 -1.2651 -0.9948
20745SOL    HW263975   8.049   6.406   0.648 -0.2372 -0.3869 -1.7438
20746SOL     OW63976   1.368   3.280   0.715  0.3260  0.0094  0.0894
20746SOL    HW163977   1.433   3.342   0.683 -0.8353  2.7820  2.6482
20746SOL    HW263978   1.284   3.320   0.695 -0.4733 -0.7469  1.7403
20747SOL     OW63979   3.633   6.216   4.453 -0.1866 -0.4194  0.2135
20747SOL    HW163980   3.538   6.210   4.463 -0.4627 -0.1919 -1.8288
20747SOL    HW263981   3.649   6.194   4.361  1.6523  0.5127  0.2654
20748SOL     OW63982   8.719   5.375   6.070  0.1285 -0.5556  0.0248
20748SOL    HW163983   8.634   5.330   6.064  0.7128 -1.8240  0.9362
20748SOL    HW263984   8.713   5.426   6.151 -1.2527  2.7096 -1.9007
20749SOL     OW63985   5.480   6.097   8.045 -0.3348  0.4064 -0.4840
20749SOL    HW163986   5.503   6.020   8.097 -0.2772  0.6973 -0.0675
20749SOL    HW263987   5.556   6.154   8.052 -0.6694  0.8262 -0.1533
20750SOL     OW63988   5.016   8.359   4.316 -0.3044  0.4302  0.0556
20750SOL    HW163989   5.046   8.448   4.335 -1.8132  0.8015  0.8270
20750SOL    HW263990   5.081   8.303   4.357  0.4616  1.1696 -0.1113
20751SOL     OW63991   7.198   4.639   7.818 -0.1925 -0.3452  0.0500
20751SOL    HW163992   7.244   4.555   7.809 -1.3251 -0.9672 -0.2710
20751SOL    HW263993   7.258   4.704   7.783  0.4805 -1.1123 -0.2421
20752SOL     OW63994   2.226   7.586   6.158  0.0693  0.9660 -0.2034
20752SOL    HW163995   2.319   7.562   6.164  0.3865  2.1980  0.2963
20752SOL    HW263996   2.227   7.681   6.149 -1.0990  0.8420 -2.3582
20753SOL     OW63997   5.219   5.256   0.830  0.8112 -0.2432  0.1473
20753SOL    HW163998   5.293   5.316   0.817  0.6365  0.5401  2.3710
20753SOL    HW263999   5.158   5.278   0.758  1.6068  0.8869 -0.2194
20754SOL     OW64000   0.888   5.987   5.534  0.3716  0.1248 -0.1823
20754SOL    HW164001   0.925   6.069   5.501  0.1807 -0.0364 -0.7973
20754SOL    HW264002   0.813   6.015   5.587 -0.4027  0.3010 -1.3380
20755SOL     OW64003   9.316   8.047   0.277  0.1101 -0.1018  0.2395
20755SOL    HW164004   9.247   7.985   0.254  1.4383 -1.2747 -0.8183
20755SOL    HW264005   9.335   8.093   0.195 -0.3057  1.1763  0.8311
20756SOL     OW64006   5.427   3.683   1.029  0.5406  0.0131 -0.4538
20756SOL    HW164007   5.441   3.590   1.044  1.2542  0.1594 -0.1431
20756SOL    HW264008   5.424   3.691   0.933 -1.6749 -0.5989 -0.4925
20757SOL     OW64009   3.895   6.143   1.630  0.9859  0.2977 -0.0064
20757SOL    HW164010   3.879   6.059   1.587  0.5377 -0.1598  1.0301
20757SOL    HW264011   3.893   6.207   1.559  1.5253 -0.5763 -0.8377
20758SOL     OW64012   8.074   2.917   0.887  0.2866 -0.3406 -0.2063
20758SOL    HW164013   7.989   2.894   0.848  0.1326 -0.8697  0.4190
20758SOL    HW264014   8.076   3.012   0.886  1.0194 -0.2883 -3.0726
20759SOL     OW64015   4.400   6.017   4.990  0.4582  0.5410  0.3689
20759SOL    HW164016   4.453   6.075   4.935  0.5257  2.2989  2.1631
20759SOL    HW264017   4.333   5.983   4.930  0.7293  2.0853 -0.8956
20760SOL     OW64018   1.437   1.608   0.828 -0.2066 -0.5368  0.3017
20760SOL    HW164019   1.457   1.517   0.810  1.0757  0.0467 -1.4550
20760SOL    HW264020   1.357   1.605   0.881 -0.0996 -2.6601  0.4098
20761SOL     OW64021   8.755   8.637   7.126  0.2829 -0.7266  0.2744
20761SOL    HW164022   8.686   8.678   7.073  0.6053  0.0600  0.4470
20761SOL    HW264023   8.759   8.690   7.206  1.7372 -0.1427 -0.1426
20762SOL     OW64024   8.059   6.642   7.385 -0.0153  0.0994 -0.5220
20762SOL    HW164025   8.136   6.685   7.420  0.0649 -0.0717 -0.4876
20762SOL    HW264026   7.994   6.648   7.455 -0.4084  1.2477 -0.9656
20763SOL     OW64027   8.010   5.971   4.877 -0.4276 -0.2784  0.3113
20763SOL    HW164028   7.922   5.995   4.847 -1.6420 -2.1243  2.2183
20763SOL    HW264029   8.016   5.877   4.862  1.5544 -0.0862 -0.4432
20764SOL     OW64030   6.996   4.031   6.095 -0.1739  0.3064  0.4122
20764SOL    HW164031   6.948   4.066   6.020 -0.3372  2.3175  1.3996
20764SOL    HW264032   6.939   4.047   6.170  1.4608  1.6014  1.4403
20765SOL     OW64033   6.806   5.194   8.499 -0.6356 -0.9189 -0.6813
20765SOL    HW164034   6.887   5.149   8.473  0.0293 -1.8906  2.6336
20765SOL    HW264035   6.741   5.125   8.508 -1.1558 -0.4664 -0.8830
20766SOL     OW64036   2.440   3.488   5.200  0.5755  0.9087 -0.3318
20766SOL    HW164037   2.381   3.548   5.154 -0.5075 -0.8723 -1.3882
20766SOL    HW264038   2.443   3.522   5.290 -0.6632  2.0528 -0.6899
20767SOL     OW64039   0.418   4.321   1.131 -0.2242  0.6380  0.2812
20767SOL    HW164040   0.399   4.392   1.193  0.0020  1.3964 -0.4932
20767SOL    HW264041   0.487   4.270   1.174  0.3812  1.5237  0.3954
20768SOL     OW64042   4.972   6.763   8.958  0.3555 -0.4977  0.0684
20768SOL    HW164043   5.027   6.771   8.880  0.7187 -2.0277  0.1319
20768SOL    HW264044   5.031   6.782   9.031  1.4369 -3.9748  0.2814
20769SOL     OW64045   2.327   4.548   4.706 -0.4120 -0.2731 -0.4082
20769SOL    HW164046   2.409   4.509   4.675 -1.1245 -0.8124 -1.7175
20769SOL    HW264047   2.297   4.601   4.632 -1.4343 -0.4127 -0.1010
20770SOL     OW64048   4.111   3.791   7.063 -0.4590 -0.2541 -0.5956
20770SOL    HW164049   4.089   3.884   7.076 -0.2601 -0.3931  1.0236
20770SOL    HW264050   4.192   3.778   7.112 -1.0809 -1.5199  0.1621
20771SOL     OW64051   2.978   6.813   0.079 -0.2129 -0.0707  0.5085
20771SOL    HW164052   3.070   6.813   0.052 -0.3826  1.0682 -0.1153
20771SOL    HW264053   2.965   6.900   0.117 -1.5747  0.5569 -1.3056
20772SOL     OW64054   3.288   2.353   3.027 -0.0604  0.3350  0.3168
20772SOL    HW164055   3.341   2.295   2.971  0.5116  1.1256  0.0189
20772SOL    HW264056   3.216   2.381   2.971  0.5950  1.2459 -0.0861
20773SOL     OW64057   4.448   6.514   5.101  0.0494  0.0727 -0.3395
20773SOL    HW164058   4.534   6.549   5.079  0.3632 -1.7106 -2.1930
20773SOL    HW264059   4.397   6.591   5.127  1.4505  1.5081 -1.6278
20774SOL     OW64060   3.404   1.796   4.980  0.7875  1.2127 -0.3544
20774SOL    HW164061   3.333   1.753   5.027  0.6074  1.3686 -0.4825
20774SOL    HW264062   3.383   1.889   4.986  0.2184  1.1796 -1.6115
20775SOL     OW64063   3.808   1.900   5.571  0.0251  0.1357 -0.1626
20775SOL    HW164064   3.895   1.873   5.601  0.0758  0.1677 -0.2823
20775SOL    HW264065   3.822   1.984   5.528 -0.2602  0.8055  0.9957
20776SOL     OW64066   4.228   2.468   0.884  0.4074 -0.2621 -0.0687
20776SOL    HW164067   4.172   2.394   0.909  0.9872 -1.0384 -1.0200
20776SOL    HW264068   4.244   2.515   0.966 -0.9732 -0.4731  0.3528
20777SOL     OW64069   2.301   1.005   1.197  0.0336 -0.2033  0.2428
20777SOL    HW164070   2.339   0.968   1.117 -0.6318 -0.1626 -0.1058
20777SOL    HW264071   2.316   1.099   1.189  2.2748 -0.4169  1.4256
20778SOL     OW64072   0.530   5.798   3.650  0.0361  0.3147  0.7273
20778SOL    HW164073   0.579   5.804   3.732  2.5220  2.7619 -0.7607
20778SOL    HW264074   0.518   5.889   3.623 -0.2247 -0.4085 -1.8585
20779SOL     OW64075   2.349   3.883   0.930  0.5566 -0.0125 -0.0318
20779SOL    HW164076   2.438   3.918   0.925  0.6562  0.1948  2.0435
20779SOL    HW264077   2.293   3.960   0.931  0.4144 -0.1112 -0.5737
20780SOL     OW64078   1.923   1.144   7.572  0.2906 -0.1889  0.9398
20780SOL    HW164079   1.891   1.056   7.548  0.4167  0.1162 -0.4604
20780SOL    HW264080   2.008   1.128   7.612  0.8370 -0.6695 -0.3430
20781SOL     OW64081   5.498   1.619   6.100  0.0390  0.5695  0.2554
20781SOL    HW164082   5.434   1.640   6.031  0.7280  0.8930 -0.2901
20781SOL    HW264083   5.521   1.704   6.137  2.5346  0.8380 -1.6863
20782SOL     OW64084   1.760   8.151   8.979  0.1187  0.5450  0.5101
20782SOL    HW164085   1.811   8.211   8.924  0.0647  0.4530  0.3602
20782SOL    HW264086   1.822   8.123   9.047  1.0751 -1.5738 -1.1182
20783SOL     OW64087   1.874   0.640   1.507 -0.2811 -0.0129  0.0915
20783SOL    HW164088   1.877   0.691   1.425  0.9872  1.6832  1.1222
20783SOL    HW264089   1.786   0.654   1.541 -0.6644 -0.3452 -0.7458
20784SOL     OW64090   1.053   4.449   7.976 -0.5390  0.1796 -0.1332
20784SOL    HW164091   1.017   4.405   8.053  1.7181  0.5860  1.2629
20784SOL    HW264092   0.987   4.513   7.952 -2.2769 -1.4575  0.0403
20785SOL     OW64093   1.808   6.745   4.126  0.0982 -0.5542  0.3462
20785SOL    HW164094   1.872   6.754   4.056  0.1851  1.3043  0.6213
20785SOL    HW264095   1.724   6.733   4.080  0.2739 -0.2381 -0.0646
20786SOL     OW64096   6.720   9.248   2.616 -0.5902 -0.8312  0.3841
20786SOL    HW164097   6.697   9.315   2.680 -0.0968 -0.6234  0.3535
20786SOL    HW264098   6.662   9.175   2.635 -0.8473 -0.5518  0.6898
20787SOL     OW64099   6.526   0.519   7.393 -0.0050 -0.6049  0.0719
20787SOL    HW164100   6.455   0.500   7.332 -1.2505 -0.5575  1.4252
20787SOL    HW264101   6.488   0.500   7.479  1.4343  0.0298  0.8791
20788SOL     OW64102   8.216   2.809   6.400 -0.2959 -0.2888  0.2708
20788SOL    HW164103   8.238   2.745   6.467 -0.5016 -0.0853  0.5345
20788SOL    HW264104   8.175   2.881   6.448  0.9458  0.5472  0.1484
20789SOL     OW64105   7.838   4.208   6.121 -0.4440  0.2665  0.0937
20789SOL    HW164106   7.824   4.166   6.036 -0.9015  1.7820 -0.5975
20789SOL    HW264107   7.928   4.241   6.117 -1.1972  2.3399 -0.7294
20790SOL     OW64108   2.223   1.690   2.775 -0.0611  0.1763 -0.2274
20790SOL    HW164109   2.257   1.763   2.826 -0.9259 -0.1740  0.8993
20790SOL    HW264110   2.280   1.685   2.698 -0.4792  2.5678 -0.7812
20791SOL     OW64111   5.630   5.493   3.046  0.1148 -0.0484 -0.3152
20791SOL    HW164112   5.720   5.506   3.017  0.0930 -0.1390 -0.4205
20791SOL    HW264113   5.585   5.458   2.970  0.0381 -0.2008 -0.1994
20792SOL     OW64114   2.562   8.472   0.358  0.2490 -0.1566 -0.0306
20792SOL    HW164115   2.472   8.497   0.339 -0.0325 -0.0447  1.3523
20792SOL    HW264116   2.578   8.394   0.304 -0.2751  0.4988 -1.1534
20793SOL     OW64117   2.477   2.568   6.863 -0.0011 -0.2598  0.5174
20793SOL    HW164118   2.470   2.663   6.851 -2.1074 -0.3510  0.5718
20793SOL    HW264119   2.422   2.532   6.794 -0.4080 -1.3740  1.4003
20794SOL     OW64120   0.789   1.705   0.011  0.2390  0.4387 -0.4804
20794SOL    HW164121   0.805   1.781  -0.046  0.5804  0.2363 -0.6569
20794SOL    HW264122   0.697   1.713   0.036 -0.4715 -0.4925 -2.5809
20795SOL     OW64123   9.520   5.116   3.062  0.0486 -0.0515 -0.3185
20795SOL    HW164124   9.453   5.116   2.993  0.3137 -1.7239 -0.6317
20795SOL    HW264125   9.563   5.201   3.054 -1.8071  0.9516 -0.3050
20796SOL     OW64126   4.547   3.885   2.192  0.1735 -0.4950 -0.0344
20796SOL    HW164127   4.509   3.884   2.280  2.3793 -0.1259  1.0040
20796SOL    HW264128   4.506   3.959   2.148 -0.7592 -0.5159  0.7814
20797SOL     OW64129   7.572   9.041   3.755 -0.3988  0.3870 -0.1993
20797SOL    HW164130   7.536   9.114   3.704 -1.1795  0.6708  0.7235
20797SOL    HW264131   7.659   9.026   3.717  0.4030  2.7582  0.5103
20798SOL     OW64132   5.834   3.236   2.854 -0.5056  0.3837 -0.2729
20798SOL    HW164133   5.780   3.305   2.892  1.5540  1.8154  0.2434
20798SOL    HW264134   5.832   3.165   2.919  0.5837  1.6224  1.1928
20799SOL     OW64135   0.956   1.163   1.743  0.1912  0.3790 -0.2749
20799SOL    HW164136   1.006   1.174   1.662  0.0393  1.3130 -0.2592
20799SOL    HW264137   0.955   1.069   1.758  1.6300  0.3085 -0.4654
20800SOL     OW64138   7.356   7.553   5.107  0.1343  0.5871 -0.2579
20800SOL    HW164139   7.374   7.498   5.030  1.5597 -0.5457  0.8161
20800SOL    HW264140   7.416   7.627   5.098 -0.0476  0.7117 -0.4677
20801SOL     OW64141   7.429   1.296   7.546 -0.1025 -0.0479  0.2453
20801SOL    HW164142   7.369   1.277   7.474  0.9010  0.1707 -0.6661
20801SOL    HW264143   7.476   1.214   7.560  1.6019  0.6293 -1.1883
20802SOL     OW64144   5.879   3.687   7.584 -0.2681 -0.1242 -0.2078
20802SOL    HW164145   5.971   3.714   7.593  0.2866 -1.5969 -1.0193
20802SOL    HW264146   5.857   3.708   7.493 -1.0281  1.0111  0.2270
20803SOL     OW64147   6.734   1.929   2.092  0.4114 -0.4686  0.2968
20803SOL    HW164148   6.680   1.898   2.019 -0.8361  0.7948  0.6402
20803SOL    HW264149   6.812   1.874   2.089 -0.2059 -1.3240 -1.1709
20804SOL     OW64150   2.084   5.023   4.014 -0.8010  0.3386  0.2616
20804SOL    HW164151   2.101   5.039   3.922  0.1717 -2.0006 -0.0458
20804SOL    HW264152   1.993   5.049   4.027 -0.9113  0.8304 -1.3231
20805SOL     OW64153   4.643   6.906   8.528  0.5984  0.4465 -0.3287
20805SOL    HW164154   4.629   6.924   8.435  2.3911  0.4829 -0.6261
20805SOL    HW264155   4.636   6.811   8.536 -0.4645  0.5144 -0.3129
20806SOL     OW64156   5.821   8.017   3.305 -0.2827  0.1418 -0.0898
20806SOL    HW164157   5.733   8.030   3.339  0.0288  0.5447  0.5767
20806SOL    HW264158   5.877   8.012   3.382  0.2360 -0.4948 -0.4926
20807SOL     OW64159   7.238   8.625   5.196  0.2171 -0.2474 -0.2798
20807SOL    HW164160   7.197   8.630   5.110  0.6365  0.1724 -0.4572
20807SOL    HW264161   7.214   8.539   5.229 -0.3672 -0.2159 -0.6030
20808SOL     OW64162   3.102   2.536   3.725  1.0344  0.5286 -0.0292
20808SOL    HW164163   3.015   2.514   3.692  1.6033  0.4483 -1.5036
20808SOL    HW264164   3.152   2.561   3.648  1.9073  2.0365  0.9739
20809SOL     OW64165   3.669   3.631   5.944  0.0028  0.1097  0.2294
20809SOL    HW164166   3.632   3.719   5.937  0.0995  0.0351 -2.2279
20809SOL    HW264167   3.633   3.584   5.869  2.2176 -1.0559 -0.1848
20810SOL     OW64168   6.415   6.376   2.129 -0.1270  0.1060 -0.0624
20810SOL    HW164169   6.336   6.362   2.076  0.0804 -1.0842 -0.0802
20810SOL    HW264170   6.385   6.430   2.202 -0.9544 -0.3030 -0.0844
20811SOL     OW64171   6.181   0.886   4.148 -0.7354 -0.2827  0.2442
20811SOL    HW164172   6.245   0.958   4.150 -0.3199 -0.6272  2.3392
20811SOL    HW264173   6.235   0.807   4.146 -1.1829 -0.5888 -1.1213
20812SOL     OW64174   4.148   4.702   3.591  0.3229 -0.5344 -0.0044
20812SOL    HW164175   4.229   4.753   3.594  1.0423 -1.6269 -0.2068
20812SOL    HW264176   4.118   4.710   3.501 -0.3193  0.6355  0.2950
20813SOL     OW64177   2.352   1.026   4.834 -0.0610  0.6025 -0.1419
20813SOL    HW164178   2.264   1.005   4.801 -0.4020  1.2589  0.3268
20813SOL    HW264179   2.411   0.989   4.769 -0.6845  0.1103 -0.4426
20814SOL     OW64180   9.234   2.967   4.180 -0.1328 -0.1861 -0.2702
20814SOL    HW164181   9.156   2.966   4.235 -0.9301 -0.5695 -1.3712
20814SOL    HW264182   9.224   2.891   4.123  1.0642 -0.2531 -0.4154
20815SOL     OW64183   0.761   0.862   2.336 -0.2509 -0.2289  0.6129
20815SOL    HW164184   0.691   0.798   2.326  1.2476 -1.8183 -0.2485
20815SOL    HW264185   0.726   0.927   2.396 -2.7504 -0.5232 -0.3948
20816SOL     OW64186   1.542   8.695   0.026 -0.4266  0.4080 -0.0081
20816SOL    HW164187   1.570   8.604   0.018  1.8027  0.7540  2.5407
20816SOL    HW264188   1.597   8.742  -0.037  0.6127  0.3223  0.8053
20817SOL     OW64189   7.088   1.246   6.478 -0.4181  0.2555  0.4075
20817SOL    HW164190   7.000   1.223   6.449 -0.6814  0.0321  1.3827
20817SOL    HW264191   7.104   1.333   6.440 -1.0457  0.2854  0.2097
20818SOL     OW64192   1.591   8.013   4.811 -0.0559  0.2269 -0.1152
20818SOL    HW164193   1.621   8.007   4.901  0.8374  0.2105 -0.4083
20818SOL    HW264194   1.607   8.105   4.786 -3.2924  1.1572  0.7547
20819SOL     OW64195   5.416   4.251   3.432 -0.1736 -0.8226  0.2391
20819SOL    HW164196   5.434   4.198   3.355 -1.1370 -1.1625  0.2371
20819SOL    HW264197   5.469   4.329   3.421  0.9758 -1.5984  0.0485
20820SOL     OW64198   4.323   0.709   5.046  0.3453  0.5184 -0.1715
20820SOL    HW164199   4.379   0.707   5.123 -1.0598 -1.0960  0.8756
20820SOL    HW264200   4.283   0.796   5.048  1.3264  0.9839  0.1230
20821SOL     OW64201   6.334   2.807   1.128 -0.1306  0.4206  0.3620
20821SOL    HW164202   6.388   2.830   1.204  1.4213 -0.0202 -0.5562
20821SOL    HW264203   6.320   2.712   1.137  2.3869 -0.2029 -1.2343
20822SOL     OW64204   9.406   1.793   6.751  0.0464 -0.5163 -0.2286
20822SOL    HW164205   9.321   1.755   6.775 -0.8226  0.2514 -1.8806
20822SOL    HW264206   9.386   1.884   6.729  1.1780 -0.4739 -1.2096
20823SOL     OW64207   1.723   2.214   5.184 -0.2850  0.4431 -0.2560
20823SOL    HW164208   1.628   2.202   5.187 -0.3191  0.3403 -1.5057
20823SOL    HW264209   1.734   2.306   5.158 -0.0186  0.7920  0.9860
20824SOL     OW64210   2.830   0.795   0.935 -0.3114  0.2462 -0.3113
20824SOL    HW164211   2.861   0.824   0.850  0.1117  0.4303 -0.0963
20824SOL    HW264212   2.737   0.777   0.922 -0.1588 -0.1288 -0.9098
20825SOL     OW64213   5.593   7.920   7.299  0.5668  0.2676 -0.2034
20825SOL    HW164214   5.601   7.953   7.389 -0.7009 -0.7032  0.3000
20825SOL    HW264215   5.503   7.940   7.274  0.4425 -0.8043 -0.6901
20826SOL     OW64216   7.110   2.704   5.511  0.0918 -0.1838  0.1700
20826SOL    HW164217   7.061   2.751   5.578  0.1096 -0.3776  0.3193
20826SOL    HW264218   7.093   2.752   5.430  1.4311  1.0736  0.5865
20827SOL     OW64219   7.571   6.202   8.834 -1.1381  0.4058 -0.2517
20827SOL    HW164220   7.596   6.294   8.826  0.9786 -0.1626 -0.8149
20827SOL    HW264221   7.541   6.177   8.747  0.6105 -0.0064 -0.7878
20828SOL     OW64222   1.291   9.481   3.160 -0.4967  1.1815  0.0669
20828SOL    HW164223   1.200   9.485   3.131  0.1340  1.8490 -2.0592
20828SOL    HW264224   1.311   9.571   3.186  0.1474  1.5511 -1.6061
20829SOL     OW64225   1.733   9.317   5.871  0.1535  0.1322  0.4271
20829SOL    HW164226   1.718   9.314   5.776  1.8433  0.3902  0.1335
20829SOL    HW264227   1.696   9.235   5.903 -0.8724  0.2557 -0.3648
20830SOL     OW64228   3.395   6.483   0.472 -0.3926  0.1221 -0.3310
20830SOL    HW164229   3.318   6.427   0.455 -1.2004  2.1248 -4.6250
20830SOL    HW264230   3.469   6.423   0.464 -1.3286 -0.9284 -1.7253
20831SOL     OW64231   0.867   9.411   3.711 -0.2805 -0.0367  0.0991
20831SOL    HW164232   0.934   9.359   3.756  1.4049  0.9934 -1.0917
20831SOL    HW264233   0.843   9.479   3.774 -0.6060 -0.7426  0.7378
20832SOL     OW64234   5.656   5.336   8.698  0.1860  0.5525  0.5489
20832SOL    HW164235   5.633   5.364   8.609 -0.6457  0.1520  0.6318
20832SOL    HW264236   5.575   5.301   8.734  0.5044  0.7623  1.4935
20833SOL     OW64237   1.939   2.505   3.591 -0.2388 -0.1273  0.1074
20833SOL    HW164238   1.941   2.594   3.626  1.1371 -0.4999  1.0627
20833SOL    HW264239   1.846   2.487   3.577 -0.4983  1.7824 -1.0171
20834SOL     OW64240   4.808   4.288   9.069 -0.6940 -0.0477  0.3339
20834SOL    HW164241   4.714   4.307   9.068 -1.1470 -1.9641  1.0518
20834SOL    HW264242   4.813   4.196   9.095  1.3409 -0.3695 -0.9904
20835SOL     OW64243   3.319   8.195   7.930 -0.1698 -0.2928  0.8622
20835SOL    HW164244   3.409   8.163   7.927 -0.0231  0.0680  1.2108
20835SOL    HW264245   3.327   8.281   7.971 -0.8048 -0.7327  1.9466
20836SOL     OW64246   7.855   6.989   3.151 -0.6333  0.0856  0.2312
20836SOL    HW164247   7.789   6.928   3.182 -0.0620 -0.8312 -0.3085
20836SOL    HW264248   7.821   7.021   3.068 -0.7507  0.1935  0.3212
20837SOL     OW64249   4.751   8.337   4.371 -0.7550  0.4858  0.0640
20837SOL    HW164250   4.845   8.329   4.354 -0.8307 -0.8355  0.1880
20837SOL    HW264251   4.712   8.261   4.327 -1.8762  1.4674 -0.7094
20838SOL     OW64252   4.819   6.518   6.619 -0.2138 -0.8996  0.1839
20838SOL    HW164253   4.726   6.535   6.602 -0.2342  1.3459  2.0908
20838SOL    HW264254   4.858   6.510   6.532 -1.9740 -0.6205 -0.6806
20839SOL     OW64255   8.780   2.892   4.707 -0.6521 -0.4254 -0.4232
20839SOL    HW164256   8.710   2.953   4.730  0.0495  0.0270  0.6101
20839SOL    HW264257   8.801   2.912   4.616 -0.8040  0.4978 -0.2619
20840SOL     OW64258   0.001   7.248   3.714  0.2418  0.2949  0.4292
20840SOL    HW164259  -0.061   7.222   3.645  0.3892  0.1590  0.3482
20840SOL    HW264260  -0.025   7.195   3.789  1.5436 -1.3215 -0.1809
20841SOL     OW64261   8.181   2.250   7.575  0.0097  0.1884  0.1022
20841SOL    HW164262   8.094   2.218   7.551 -0.6655  1.6508  0.5070
20841SOL    HW264263   8.166   2.304   7.653  1.3174  0.2772  0.3081
20842SOL     OW64264   3.890   1.406   4.235 -0.1503 -0.5034 -0.3533
20842SOL    HW164265   3.951   1.351   4.187 -0.2259 -0.8089 -0.1039
20842SOL    HW264266   3.848   1.347   4.297 -1.3740 -0.4881 -1.1474
20843SOL     OW64267   1.082   2.206   2.822 -0.3268  0.1320 -0.1114
20843SOL    HW164268   1.020   2.133   2.826 -0.0685 -0.2155 -1.7469
20843SOL    HW264269   1.155   2.178   2.877 -0.6497 -0.4254  0.0432
20844SOL     OW64270   6.710   0.187   1.447  0.3132 -0.0373  0.2561
20844SOL    HW164271   6.646   0.134   1.496  0.2515 -0.2231 -0.0239
20844SOL    HW264272   6.773   0.214   1.513  0.6330 -0.8981  0.3162
20845SOL     OW64273   9.293   5.679   4.072 -0.0558 -0.0234 -0.2672
20845SOL    HW164274   9.375   5.650   4.112  0.0888  1.4432  0.5875
20845SOL    HW264275   9.226   5.653   4.136 -0.2154 -0.7637 -0.7253
20846SOL     OW64276   7.047   7.832   0.567 -0.2866 -0.1792  0.1466
20846SOL    HW164277   7.001   7.755   0.534  0.3069 -0.2028 -0.6561
20846SOL    HW264278   7.106   7.797   0.635  0.3567 -0.5267 -0.5711
20847SOL     OW64279   2.543   2.250   3.579  0.1786 -0.2535 -0.0262
20847SOL    HW164280   2.486   2.196   3.635 -2.7110 -0.9648 -3.2969
20847SOL    HW264281   2.567   2.324   3.634 -2.2680 -0.9785  2.2556
20848SOL     OW64282   8.025   5.178   1.399 -0.4927 -0.6033  0.2460
20848SOL    HW164283   8.083   5.163   1.474 -0.7605 -1.8751  0.2230
20848SOL    HW264284   8.049   5.109   1.337 -0.8598 -0.0866 -0.4830
20849SOL     OW64285   1.987   7.226   0.348  0.0645  0.4432 -0.1532
20849SOL    HW164286   2.030   7.142   0.330  0.0080  0.5885 -0.9828
20849SOL    HW264287   2.048   7.272   0.406  0.4768  0.1728 -0.3713
20850SOL     OW64288   3.824   7.224   4.304 -0.1669  0.7867 -0.1894
20850SOL    HW164289   3.809   7.221   4.210 -0.4988  2.1965 -0.2063
20850SOL    HW264290   3.916   7.249   4.313  0.0445  0.0094 -0.1250
20851SOL     OW64291   7.510   3.091   4.207  0.5133 -0.0114  0.2990
20851SOL    HW164292   7.508   3.129   4.295 -0.8178 -1.2154  0.8245
20851SOL    HW264293   7.586   3.033   4.208  0.0847 -0.5811  0.9242
20852SOL     OW64294   1.685   7.771   8.861 -0.5079  0.4313 -0.2115
20852SOL    HW164295   1.681   7.773   8.957 -2.1972 -1.9152 -0.1322
20852SOL    HW264296   1.664   7.860   8.834  0.3412  1.2346  1.5737
20853SOL     OW64297   3.924   0.862   4.423  0.4677 -0.6026 -0.8416
20853SOL    HW164298   3.931   0.836   4.332  1.9947  0.3194 -1.0183
20853SOL    HW264299   3.846   0.817   4.455 -1.2757  0.6274 -3.1151
20854SOL     OW64300   6.329   7.178   5.008  0.0194 -0.4075 -0.0728
20854SOL    HW164301   6.413   7.133   5.018  0.2439  0.0771  0.2860
20854SOL    HW264302   6.313   7.218   5.093 -1.3567 -1.7865  0.3443
20855SOL     OW64303   2.953   3.963   8.103 -0.3040 -0.2208 -0.2285
20855SOL    HW164304   3.007   4.010   8.167  2.6219 -2.7722 -0.5958
20855SOL    HW264305   2.946   4.023   8.029  1.5455  0.4780  0.1101
20856SOL     OW64306   5.110   4.911   7.606  0.1643  0.3162  0.4492
20856SOL    HW164307   5.037   4.890   7.665 -0.2716 -1.1600 -0.5420
20856SOL    HW264308   5.169   4.836   7.615 -0.0170 -0.0365 -1.1050
20857SOL     OW64309   6.760   1.044   1.170 -0.4228  0.6256  0.1796
20857SOL    HW164310   6.739   1.134   1.195 -0.6132  0.2581  1.4077
20857SOL    HW264311   6.740   1.040   1.076 -0.1042  1.9428  0.0395
20858SOL     OW64312   1.400   0.900   4.847 -0.4265 -0.2215  0.7729
20858SOL    HW164313   1.306   0.907   4.830 -0.1280  0.0419 -0.9169
20858SOL    HW264314   1.427   0.989   4.871 -0.3328  0.0634 -0.3485
20859SOL     OW64315   4.159   7.489   4.733  0.7361 -0.1818  0.2895
20859SOL    HW164316   4.109   7.450   4.661 -1.8887  1.0865  1.2747
20859SOL    HW264317   4.248   7.455   4.722  0.2107 -0.8628 -2.8903
20860SOL     OW64318   2.966   4.744   7.430 -0.1645 -0.5580  0.1866
20860SOL    HW164319   3.009   4.691   7.497 -0.9757  0.5583  1.6644
20860SOL    HW264320   2.880   4.763   7.467  0.0262  1.5884 -0.3732
20861SOL     OW64321   8.732   0.091   8.353  0.1447  0.1967  0.3442
20861SOL    HW164322   8.787   0.013   8.344 -1.3116 -1.1083  2.1497
20861SOL    HW264323   8.772   0.155   8.293  3.0808 -0.9359  0.9308
20862SOL     OW64324   9.308   8.760   3.204  0.1343 -0.2493  0.3691
20862SOL    HW164325   9.314   8.855   3.191 -0.0843 -0.4585 -1.7329
20862SOL    HW264326   9.396   8.728   3.185 -0.0159 -0.5303  0.1308
20863SOL     OW64327   1.284   8.525   2.811 -0.1255  0.2073  0.0130
20863SOL    HW164328   1.188   8.523   2.808 -0.0943 -0.7631 -0.9243
20863SOL    HW264329   1.311   8.509   2.720  0.9265  0.1435  0.3245
20864SOL     OW64330   9.208   1.457   2.825  0.3335  0.6492  0.3146
20864SOL    HW164331   9.265   1.434   2.752  0.5314  0.7036  0.4507
20864SOL    HW264332   9.120   1.439   2.793  0.4919 -0.6239  0.5153
20865SOL     OW64333   7.145   2.138   7.494 -0.9846  0.0124 -0.1753
20865SOL    HW164334   7.178   2.127   7.405  0.1663  1.6621  0.0082
20865SOL    HW264335   7.199   2.080   7.547 -0.5935  0.2277 -0.3359
20866SOL     OW64336   8.332   0.586   6.757  0.1077  1.0336  0.1741
20866SOL    HW164337   8.377   0.641   6.693  1.7388 -0.2827  0.1175
20866SOL    HW264338   8.377   0.501   6.752 -2.7816 -0.6052 -0.2947
20867SOL     OW64339   5.477   3.593   3.677  0.6147 -0.6416 -0.1126
20867SOL    HW164340   5.521   3.666   3.633  1.4258 -0.4076  1.0132
20867SOL    HW264341   5.384   3.611   3.669  0.7206 -0.8096 -2.0163
20868SOL     OW64342   3.766   5.577   0.814  0.6444  0.2811 -0.0528
20868SOL    HW164343   3.746   5.665   0.782  2.2695  0.6640 -0.1301
20868SOL    HW264344   3.688   5.525   0.793 -0.1511  1.5841 -0.4330
20869SOL     OW64345   9.117   6.929   7.909  0.3433 -0.6128  0.1041
20869SOL    HW164346   9.047   6.973   7.861  1.8036  2.2437  0.3810
20869SOL    HW264347   9.197   6.955   7.864  1.4644 -1.1114  1.7140
20870SOL     OW64348   1.158   8.828   8.400 -0.1097 -0.1700 -0.2315
20870SOL    HW164349   1.205   8.819   8.317  0.5446  1.1321 -0.0302
20870SOL    HW264350   1.079   8.877   8.378 -1.3477 -2.1827 -0.5326
20871SOL     OW64351   3.283   9.212   4.323 -0.7261 -0.1494  0.2710
20871SOL    HW164352   3.372   9.246   4.319 -0.6385 -0.4656 -0.6011
20871SOL    HW264353   3.291   9.119   4.302 -1.3878  0.0819 -1.2028
20872SOL     OW64354   6.991   6.699   8.785 -0.0728  0.0998 -0.0730
20872SOL    HW164355   6.908   6.716   8.741  0.1068  1.9297  0.2283
20872SOL    HW264356   6.989   6.606   8.805 -1.0908 -0.3516 -2.0247
20873SOL     OW64357   5.769   0.308   0.851 -0.2578 -0.2316 -0.0016
20873SOL    HW164358   5.725   0.349   0.925  0.4373 -0.6672  0.6732
20873SOL    HW264359   5.752   0.366   0.777  0.2656  0.9976  0.8118
20874SOL     OW64360   7.192   5.779   3.971  0.1214  0.0025  0.0675
20874SOL    HW164361   7.193   5.774   4.067  1.8003  2.4164  0.2731
20874SOL    HW264362   7.270   5.730   3.943  1.2662  1.6484  0.2078
20875SOL     OW64363   4.646   1.595   1.371  0.4185 -0.1201 -0.2642
20875SOL    HW164364   4.681   1.513   1.337 -0.1154 -1.0664  1.3434
20875SOL    HW264365   4.622   1.645   1.293  3.1215 -0.3895 -1.3562
20876SOL     OW64366   5.650   8.445   3.763  0.3668 -0.0543  0.1286
20876SOL    HW164367   5.630   8.376   3.826  3.0341 -1.3330 -0.2668
20876SOL    HW264368   5.706   8.506   3.812  0.9739 -0.1094 -0.4775
20877SOL     OW64369   0.701   8.550   8.888  0.0326  0.3108  0.2833
20877SOL    HW164370   0.781   8.602   8.881 -0.2504  0.9013  1.3382
20877SOL    HW264371   0.712   8.500   8.968  0.4517 -1.5578 -0.8691
20878SOL     OW64372   3.380   0.671   1.832 -0.8610 -0.4517  0.4807
20878SOL    HW164373   3.472   0.662   1.854 -1.4495 -1.2924  2.8952
20878SOL    HW264374   3.372   0.635   1.744  1.4389  1.7341 -0.7531
20879SOL     OW64375   4.729   0.842   5.416  0.0141 -0.3084  0.5310
20879SOL    HW164376   4.783   0.879   5.346 -1.4979  1.0653  0.0213
20879SOL    HW264377   4.671   0.780   5.371 -1.3528  1.0010  0.4389
20880SOL     OW64378   6.238   6.857   6.517  0.2143  0.0657  0.0282
20880SOL    HW164379   6.258   6.875   6.424 -0.8775  1.4423  0.0220
20880SOL    HW264380   6.307   6.903   6.565 -0.3314  1.0305 -0.0823
20881SOL     OW64381   6.438   3.844   1.588 -0.2841 -0.0323  0.0376
20881SOL    HW164382   6.355   3.837   1.542 -0.7124 -0.1725  0.8141
20881SOL    HW264383   6.452   3.938   1.598  0.0271  0.0113 -0.7488
20882SOL     OW64384   8.140   7.005   0.303 -0.7477  0.7257 -0.6265
20882SOL    HW164385   8.046   6.993   0.290 -1.2289  0.0084  2.6626
20882SOL    HW264386   8.151   7.099   0.317 -0.9660  0.8241 -1.1057
20883SOL     OW64387   2.210   1.777   1.394  0.3851  0.1310 -0.3676
20883SOL    HW164388   2.156   1.722   1.451  1.7750  0.4401  1.3277
20883SOL    HW264389   2.157   1.855   1.378  0.1912  0.2955  1.0062
20884SOL     OW64390   1.904   7.028   7.509  0.5907 -0.1767  0.1224
20884SOL    HW164391   1.863   7.113   7.526  0.6292 -0.4592  1.8451
20884SOL    HW264392   1.981   7.049   7.457  0.1038  0.7435 -0.2551
20885SOL     OW64393   6.745   8.503   1.736  0.0900  0.1275 -0.0682
20885SOL    HW164394   6.676   8.549   1.688  0.2902  1.5579  0.9318
20885SOL    HW264395   6.820   8.563   1.732  0.6414 -0.5015  0.5657
20886SOL     OW64396   3.972   2.507   2.409  0.1572 -0.3517 -0.3183
20886SOL    HW164397   4.023   2.580   2.444 -0.2912  0.8973 -2.0815
20886SOL    HW264398   3.953   2.533   2.319 -1.0358 -2.1417 -0.6336
20887SOL     OW64399   9.534   7.116   3.937  0.3070 -0.5959 -0.0135
20887SOL    HW164400   9.470   7.101   4.008 -1.6566  0.1556 -1.5282
20887SOL    HW264401   9.578   7.031   3.927 -3.2418 -2.4914 -1.4675
20888SOL     OW64402   7.838   2.528   2.696 -0.5727  0.5912  0.2545
20888SOL    HW164403   7.759   2.543   2.747  0.3296  1.3071  1.4836
20888SOL    HW264404   7.874   2.616   2.682 -0.0848  0.2873 -0.4551
20889SOL     OW64405   0.193   3.525   4.437  0.4375  0.0786 -0.6338
20889SOL    HW164406   0.150   3.524   4.352 -1.4861 -0.8579  0.2834
20889SOL    HW264407   0.282   3.494   4.420 -0.4441 -1.8542 -2.0458
20890SOL     OW64408   4.441   4.147   8.687  0.0685 -0.2695 -0.0077
20890SOL    HW164409   4.375   4.180   8.747 -0.1517  0.3425 -0.5653
20890SOL    HW264410   4.524   4.171   8.727 -0.0823  2.3935 -1.1117
20891SOL     OW64411   7.279   6.582   5.402  0.4549  0.3593  0.1196
20891SOL    HW164412   7.338   6.648   5.438  1.3268  0.6271 -1.6576
20891SOL    HW264413   7.318   6.498   5.427  0.7864  0.5342  0.1935
20892SOL     OW64414   8.948   0.793   7.009 -0.2635  0.2347 -0.0895
20892SOL    HW164415   8.987   0.787   7.096 -1.0783  0.2848  0.2949
20892SOL    HW264416   8.877   0.729   7.010  0.3563 -0.4766 -1.0751
20893SOL     OW64417   7.814   9.106   3.656 -0.0646  0.4748  0.1219
20893SOL    HW164418   7.815   9.112   3.560  0.4377 -1.2178 -0.0056
20893SOL    HW264419   7.865   9.182   3.685  0.1265  0.7795 -0.9639
20894SOL     OW64420   3.208   1.176   5.347 -0.6697 -0.8115 -0.5180
20894SOL    HW164421   3.197   1.149   5.438  0.3693 -1.2152 -0.4996
20894SOL    HW264422   3.298   1.206   5.342 -1.6816  2.6652 -0.5628
20895SOL     OW64423   6.610   4.761   0.534  0.3330  0.2202  0.0007
20895SOL    HW164424   6.559   4.784   0.456  0.0015  2.0985  0.7245
20895SOL    HW264425   6.686   4.714   0.501  1.2005  2.6166 -1.6894
20896SOL     OW64426   5.864   7.851   7.034  0.6043  0.6526  0.5172
20896SOL    HW164427   5.928   7.856   7.106  2.1911  0.6098 -0.8304
20896SOL    HW264428   5.809   7.928   7.046  0.3142  0.2360  2.2123
20897SOL     OW64429   4.484   1.287   0.262  0.4251 -0.2179 -0.2448
20897SOL    HW164430   4.485   1.380   0.239  0.2700 -0.6705 -2.2871
20897SOL    HW264431   4.570   1.271   0.300  1.0234  0.4693 -1.2638
20898SOL     OW64432   1.396   2.985   1.417 -0.0384 -0.0980  0.2604
20898SOL    HW164433   1.363   3.016   1.333 -0.0907  0.6848  0.5611
20898SOL    HW264434   1.320   2.987   1.475  0.3110  0.8068  0.7097
20899SOL     OW64435   0.889   7.110   5.309 -0.2286 -0.0644  0.4048
20899SOL    HW164436   0.965   7.058   5.333 -0.0711 -0.1535 -0.2519
20899SOL    HW264437   0.894   7.189   5.363  0.0993 -0.2618  0.6615
20900SOL     OW64438   1.727   1.804   3.443  0.5802 -0.1864  0.7216
20900SOL    HW164439   1.674   1.729   3.417  0.0127  0.7016 -0.7977
20900SOL    HW264440   1.812   1.790   3.401 -0.4385  1.4124 -2.1240
20901SOL     OW64441   0.470   9.242   9.285  0.3546  0.1831 -0.1352
20901SOL    HW164442   0.403   9.200   9.340  0.9463 -0.1486  0.3506
20901SOL    HW264443   0.445   9.221   9.195 -1.0227  1.3232 -0.0431
20902SOL     OW64444   9.477   5.137   9.055  0.1006 -0.2946 -0.0916
20902SOL    HW164445   9.437   5.195   8.991  0.6612 -0.5717 -0.7166
20902SOL    HW264446   9.439   5.162   9.139 -0.0759  0.5930 -0.4292
20903SOL     OW64447   2.794   7.491   7.339 -0.0458 -0.0708 -0.2641
20903SOL    HW164448   2.849   7.544   7.282  0.2241  1.0107  0.9503
20903SOL    HW264449   2.855   7.434   7.386  0.1543  1.4196  1.3907
20904SOL     OW64450   5.825   7.568   7.466 -0.7760  0.1643 -0.3510
20904SOL    HW164451   5.813   7.480   7.430 -0.5459  0.1946 -0.5039
20904SOL    HW264452   5.769   7.570   7.544  0.0006 -0.4789  0.2474
20905SOL     OW64453   9.481   4.529   7.005  0.4856 -0.0621  0.2496
20905SOL    HW164454   9.521   4.475   6.936  2.4102  1.8218 -0.2133
20905SOL    HW264455   9.481   4.473   7.082  2.9449 -0.6265 -0.0711
20906SOL     OW64456   6.754   1.989   4.325 -0.3940 -0.2175  0.1452
20906SOL    HW164457   6.812   1.914   4.310  1.0218  0.7495  0.6355
20906SOL    HW264458   6.687   1.956   4.384 -0.1014 -1.2368 -0.0657
20907SOL     OW64459   4.897   1.487   6.643 -0.3640  0.0530  0.6387
20907SOL    HW164460   4.851   1.406   6.667  0.9977 -0.5494  1.3304
20907SOL    HW264461   4.980   1.482   6.690  0.7535  0.7132 -1.1705
20908SOL     OW64462   2.453   0.902   8.577  0.0755 -0.4982 -0.2742
20908SOL    HW164463   2.539   0.908   8.536 -0.7062  0.1047 -1.8950
20908SOL    HW264464   2.416   0.820   8.546 -0.2890 -0.3281 -0.3020
20909SOL     OW64465   1.464   2.622   2.387 -0.2267  0.0985 -0.2680
20909SOL    HW164466   1.528   2.557   2.357 -0.2686  0.6430 -1.5877
20909SOL    HW264467   1.405   2.573   2.444 -0.2004 -1.0213 -1.1699
20910SOL     OW64468   3.452   8.297   1.053  0.1400  0.0058 -0.2013
20910SOL    HW164469   3.423   8.385   1.031  1.2984  0.8235  1.3420
20910SOL    HW264470   3.468   8.300   1.147 -1.6984 -2.4430  0.3010
20911SOL     OW64471   4.761   4.001   5.922 -0.7791 -0.3009  0.0164
20911SOL    HW164472   4.709   4.049   5.856  0.3249 -0.5810 -1.0933
20911SOL    HW264473   4.825   3.952   5.871  2.0587  1.7297  1.3899
20912SOL     OW64474   0.316   4.539   2.667 -0.4573  0.3649  0.0287
20912SOL    HW164475   0.348   4.612   2.720  1.1494 -1.2683  1.4911
20912SOL    HW264476   0.395   4.488   2.647 -1.5924 -1.4072 -0.1902
20913SOL     OW64477   8.155   8.505   5.685  0.6409 -0.2213 -0.5038
20913SOL    HW164478   8.120   8.459   5.609 -1.9052 -0.3823  0.6450
20913SOL    HW264479   8.080   8.512   5.745  1.8562  2.1948  0.8946
20914SOL     OW64480   8.957   5.131   6.166  0.4985 -0.2314 -0.2265
20914SOL    HW164481   8.881   5.091   6.125  1.1850 -0.5920 -1.1945
20914SOL    HW264482   8.925   5.213   6.203 -0.4015 -0.4998 -0.3991
20915SOL     OW64483   8.950   3.541   5.459 -0.3313  0.0790  0.6330
20915SOL    HW164484   8.942   3.476   5.390  0.9765  2.4837 -1.9908
20915SOL    HW264485   8.931   3.493   5.540 -1.4502 -2.9990 -1.2936
20916SOL     OW64486   6.642   8.038   4.238  0.5457  0.1361 -0.5824
20916SOL    HW164487   6.612   8.091   4.164  0.1393 -0.8723 -1.1598
20916SOL    HW264488   6.734   8.060   4.248  0.8525 -0.4054 -2.0128
20917SOL     OW64489   5.237   2.880   4.443 -0.0408  0.4225 -0.1630
20917SOL    HW164490   5.218   2.908   4.353 -1.0213  2.1965  0.5579
20917SOL    HW264491   5.151   2.868   4.483  0.2203  3.3408  1.5830
20918SOL     OW64492   2.404   8.074   1.076 -0.2469 -0.0024  0.1208
20918SOL    HW164493   2.444   8.031   1.000 -0.9584 -0.6119  0.0782
20918SOL    HW264494   2.310   8.059   1.065 -0.6170  2.3954 -0.3964
20919SOL     OW64495   0.305   4.078   9.518  0.7910 -0.1623 -0.1916
20919SOL    HW164496   0.255   3.999   9.534  0.1046  0.3012  0.0062
20919SOL    HW264497   0.338   4.104   9.604  1.0572 -0.2593 -0.2635
20920SOL     OW64498   8.045   8.885   7.153 -0.1166 -0.4047  0.0716
20920SOL    HW164499   8.075   8.800   7.122  0.5743 -0.1809  0.0890
20920SOL    HW264500   8.125   8.938   7.158 -0.4844  0.1340  0.4036
20921SOL     OW64501   7.362   3.965   6.633 -0.1840 -0.7687  0.1145
20921SOL    HW164502   7.440   3.911   6.619 -1.1004 -1.6000 -2.0773
20921SOL    HW264503   7.365   3.987   6.726  2.3349 -1.2743  0.2277
20922SOL     OW64504   8.595   0.366   0.225 -0.3931 -0.5153 -0.4146
20922SOL    HW164505   8.587   0.370   0.130  1.0010 -1.3621 -0.6054
20922SOL    HW264506   8.522   0.418   0.258  0.1070  1.2739 -1.9613
20923SOL     OW64507   9.024   8.136   2.860  0.0310  0.4590 -0.1187
20923SOL    HW164508   9.063   8.209   2.910  0.0017  0.3812  0.0198
20923SOL    HW264509   9.061   8.145   2.772 -1.7541  2.0374 -0.7677
20924SOL     OW64510   9.538   7.432   7.736 -0.2004  0.0209  0.2289
20924SOL    HW164511   9.478   7.487   7.785 -0.2903  0.4733 -0.3745
20924SOL    HW264512   9.601   7.493   7.697  0.3076 -0.3958  0.3847
20925SOL     OW64513   2.664   3.724   1.208  0.0821 -0.0311 -0.1802
20925SOL    HW164514   2.609   3.801   1.214 -1.7152 -1.1521 -1.3436
20925SOL    HW264515   2.681   3.699   1.299 -1.8756 -0.0049  0.2279
20926SOL     OW64516   9.563   7.189   7.645  0.2401 -0.1028 -0.0805
20926SOL    HW164517   9.570   7.130   7.720  0.5821  1.1299  0.8846
20926SOL    HW264518   9.540   7.274   7.682  1.0459  0.6960 -1.2937
20927SOL     OW64519   7.680   6.538   5.608 -0.2792 -0.1374 -0.0944
20927SOL    HW164520   7.696   6.551   5.702  1.4812  1.2762 -0.5329
20927SOL    HW264521   7.712   6.450   5.590  1.6366  0.4436  0.2339
20928SOL     OW64522   4.511   7.369   3.431 -0.4729  0.4010  0.4566
20928SOL    HW164523   4.561   7.441   3.393 -1.4415  1.1034  0.4699
20928SOL    HW264524   4.474   7.322   3.356  0.8554 -0.6243  0.4131
20929SOL     OW64525   6.041   6.152   3.558  0.9295  0.3842 -0.1370
20929SOL    HW164526   6.105   6.122   3.494  0.4371 -1.0614  0.0101
20929SOL    HW264527   6.070   6.240   3.582  2.0618  0.2910 -1.0969
20930SOL     OW64528   9.279   7.173   6.402 -0.0809 -0.8330 -0.1815
20930SOL    HW164529   9.292   7.085   6.437  0.3733 -0.4013  0.7915
20930SOL    HW264530   9.210   7.211   6.457 -1.0836 -0.9562 -1.3179
20931SOL     OW64531   7.264   8.336   0.855  0.5624  0.7919  0.0243
20931SOL    HW164532   7.187   8.320   0.910 -0.3137  2.1547 -0.7294
20931SOL    HW264533   7.325   8.266   0.876 -1.1359 -0.6882  0.2099
20932SOL     OW64534   1.063   3.923   7.298  0.1307 -0.1243  0.0599
20932SOL    HW164535   1.098   3.949   7.213 -1.0010 -0.3606 -0.5001
20932SOL    HW264536   1.106   3.840   7.318 -0.6485 -0.7974 -0.9799
20933SOL     OW64537   9.372   5.726   8.157 -0.3864  0.5945  0.1430
20933SOL    HW164538   9.370   5.686   8.070 -1.0066  0.1272  0.3655
20933SOL    HW264539   9.332   5.813   8.145 -0.0702  0.7058 -0.1177
20934SOL     OW64540   0.744   5.275   7.432 -0.1801  0.1290 -0.5833
20934SOL    HW164541   0.677   5.322   7.483 -0.0577  1.7275 -1.8081
20934SOL    HW264542   0.732   5.183   7.455 -1.0293  0.6568  1.2552
20935SOL     OW64543   1.292   7.732   1.888 -0.7659  0.1964  0.2220
20935SOL    HW164544   1.225   7.774   1.941 -1.0319 -1.1440  1.0066
20935SOL    HW264545   1.245   7.669   1.834 -0.4589  1.3302 -1.4429
20936SOL     OW64546   3.063   0.581   1.782 -0.2799 -0.1857 -0.1075
20936SOL    HW164547   3.118   0.659   1.795  1.6261 -1.4296 -0.3757
20936SOL    HW264548   3.036   0.556   1.870 -0.0645  0.2022  0.0713
20937SOL     OW64549   3.340   7.292   5.527  0.3154 -0.3240  0.1841
20937SOL    HW164550   3.417   7.321   5.479 -0.1047  0.9797  0.2538
20937SOL    HW264551   3.375   7.249   5.605  1.0313  1.6308  1.0238
20938SOL     OW64552   0.056   2.267   3.071  0.4538 -0.0720 -0.3474
20938SOL    HW164553   0.086   2.183   3.107 -0.9428 -0.1913  0.5921
20938SOL    HW264554  -0.015   2.294   3.128  1.6854  2.4231  0.1291
20939SOL     OW64555   7.947   2.070   7.796  0.9389  0.1734  0.1973
20939SOL    HW164556   7.889   2.125   7.847  0.7517 -0.2665  0.4657
20939SOL    HW264557   7.932   2.096   7.705 -0.5832 -0.7747  0.1537
20940SOL     OW64558   8.811   3.770   1.797 -0.5350  0.4414 -0.0178
20940SOL    HW164559   8.804   3.865   1.787 -0.7013  0.4999  0.6063
20940SOL    HW264560   8.721   3.738   1.788 -0.5782  0.4179  0.4974
20941SOL     OW64561   2.048   0.419   1.408  0.1158 -0.3284  0.3145
20941SOL    HW164562   2.111   0.386   1.473  0.1363 -0.0265  0.4476
20941SOL    HW264563   2.003   0.490   1.453 -1.9520 -1.9873  1.0530
20942SOL     OW64564   2.099   5.641   1.922  0.1099 -0.1757  0.1869
20942SOL    HW164565   2.174   5.582   1.938  1.6608  1.8347  0.8072
20942SOL    HW264566   2.139   5.724   1.898 -2.0106  0.6339 -0.7622
20943SOL     OW64567   4.580   0.266   8.658 -0.2784 -0.4410 -0.7372
20943SOL    HW164568   4.563   0.219   8.740 -0.3716 -2.5562 -1.8776
20943SOL    HW264569   4.538   0.351   8.670 -0.4452 -0.7536  1.3216
20944SOL     OW64570   1.417   8.020   2.617 -0.0666  0.5786 -0.1010
20944SOL    HW164571   1.479   8.035   2.545 -0.3590  0.5113 -0.3676
20944SOL    HW264572   1.341   7.980   2.575 -0.5752  1.2986  0.1159
20945SOL     OW64573   2.165   4.957   2.706  0.1983  0.8109 -0.1831
20945SOL    HW164574   2.164   4.867   2.739  0.8037  1.0557  0.5547
20945SOL    HW264575   2.094   4.961   2.643  0.6151 -0.3795 -0.7534
20946SOL     OW64576   8.921   3.122   6.309 -0.3004 -0.1092 -0.1833
20946SOL    HW164577   8.897   3.031   6.329 -0.1342 -0.0299  0.3941
20946SOL    HW264578   8.899   3.171   6.389 -0.3575  0.3552 -0.4786
20947SOL     OW64579   3.278   2.406   3.287  0.0790  0.0895 -0.3877
20947SOL    HW164580   3.275   2.377   3.196 -0.3908 -1.0450 -0.0254
20947SOL    HW264581   3.358   2.367   3.322  0.0615  0.2091 -0.2125
20948SOL     OW64582   4.345   1.101   4.758  0.5825  0.0648  0.2740
20948SOL    HW164583   4.399   1.022   4.757 -1.7190 -1.6290  0.9453
20948SOL    HW264584   4.258   1.071   4.784 -0.8403  2.5603 -1.1377
20949SOL     OW64585   3.165   7.039   2.458  0.1025  0.3747 -0.2356
20949SOL    HW164586   3.174   7.096   2.535  0.8657  0.1306 -0.1355
20949SOL    HW264587   3.086   6.989   2.475 -1.1168  2.0248 -0.7482
20950SOL     OW64588   2.108   5.347   5.592  0.9455 -0.2766  0.1269
20950SOL    HW164589   2.064   5.411   5.649  1.2444 -0.9358  1.1180
20950SOL    HW264590   2.146   5.283   5.652  2.1051 -0.4711 -0.7761
20951SOL     OW64591   7.315   4.892   8.401  0.0768  0.3798  0.0744
20951SOL    HW164592   7.314   4.892   8.497  1.4187 -1.1017  0.1258
20951SOL    HW264593   7.247   4.830   8.376  1.1983 -0.9074  0.1468
20952SOL     OW64594   8.811   3.092   8.485  0.1542 -0.6673  0.3811
20952SOL    HW164595   8.742   3.052   8.539  0.0295  0.5444  1.1474
20952SOL    HW264596   8.871   3.131   8.548  0.9209 -0.6833 -0.3245
20953SOL     OW64597   0.697   6.224   3.467  0.0919  0.3482 -0.2276
20953SOL    HW164598   0.715   6.180   3.384 -1.2936  0.9175 -0.8541
20953SOL    HW264599   0.756   6.299   3.466  0.5958 -0.0378 -0.3540
20954SOL     OW64600   5.231   5.504   1.898 -0.7185  0.3999  0.4867
20954SOL    HW164601   5.164   5.477   1.836  0.2306  0.1217 -0.4436
20954SOL    HW264602   5.217   5.449   1.975 -3.4294  2.3572  1.5542
20955SOL     OW64603   0.359   9.107   1.798 -0.0320 -0.4877  0.0734
20955SOL    HW164604   0.452   9.084   1.805  0.1737  0.5634  0.9764
20955SOL    HW264605   0.358   9.202   1.788 -0.9758 -0.5925 -1.1338
20956SOL     OW64606   0.383   5.302   4.955  0.2063  0.2037  0.1796
20956SOL    HW164607   0.365   5.231   4.893  0.8289  0.1781  0.0215
20956SOL    HW264608   0.393   5.380   4.900 -0.8169  0.4873  0.3796
20957SOL     OW64609   0.564   0.175   5.678 -0.0874  0.3050 -0.3789
20957SOL    HW164610   0.528   0.089   5.656 -2.9898  1.4293 -0.4372
20957SOL    HW264611   0.561   0.178   5.774 -0.0246  0.3806 -0.3792
20958SOL     OW64612   1.774   7.198   9.588 -0.3138 -0.0997  0.7554
20958SOL    HW164613   1.804   7.269   9.645  0.4831  0.0284  0.2008
20958SOL    HW264614   1.698   7.235   9.543 -0.0682  0.3177  0.6695
20959SOL     OW64615   7.767   5.146   5.686  0.0928  0.4220  0.1414
20959SOL    HW164616   7.689   5.107   5.645  0.4513 -0.0117 -0.1323
20959SOL    HW264617   7.790   5.219   5.628 -1.1664  1.7158  1.1792
20960SOL     OW64618   7.964   5.000   5.106  0.0363  0.3046 -0.5327
20960SOL    HW164619   7.901   5.068   5.082  0.4376  0.4538 -1.1824
20960SOL    HW264620   8.007   4.977   5.024 -0.7061 -1.3664 -0.4895
20961SOL     OW64621   0.337   2.508   8.612 -0.7831 -0.3292 -0.0007
20961SOL    HW164622   0.266   2.569   8.634 -1.1424  0.6246 -3.2643
20961SOL    HW264623   0.294   2.423   8.609 -1.1698 -0.1697  0.7058
20962SOL     OW64624   3.824   3.305   5.785 -0.0952  0.2046 -0.0382
20962SOL    HW164625   3.888   3.360   5.740 -0.5191  0.4671 -0.3312
20962SOL    HW264626   3.745   3.311   5.730 -0.4031 -0.0178  0.3777
20963SOL     OW64627   3.129   8.060   8.083 -0.0438 -0.1366 -0.3660
20963SOL    HW164628   3.198   8.098   8.029 -1.2708  1.4903 -0.8846
20963SOL    HW264629   3.171   7.987   8.128  2.0970  1.0120 -0.3754
20964SOL     OW64630   0.479   4.079   4.435  0.3795 -0.2387  0.2125
20964SOL    HW164631   0.389   4.055   4.454  0.0878 -0.4471 -1.2658
20964SOL    HW264632   0.484   4.079   4.339  1.4401  1.6617  0.2181
20965SOL     OW64633   5.487   7.155   4.137 -0.0632 -0.2795 -0.1003
20965SOL    HW164634   5.440   7.125   4.059  1.8365  2.0168 -2.2755
20965SOL    HW264635   5.561   7.095   4.145 -0.0835 -0.3232 -0.2348
20966SOL     OW64636   1.475   4.917   4.166  0.3660 -0.0657 -0.1892
20966SOL    HW164637   1.555   4.878   4.201 -0.0495  1.3298  2.6138
20966SOL    HW264638   1.405   4.858   4.194 -0.3808  2.6586  4.9180
20967SOL     OW64639   3.309   2.467   8.572 -0.0883  0.0463 -0.1033
20967SOL    HW164640   3.367   2.542   8.581 -1.3400  0.8147  2.3483
20967SOL    HW264641   3.252   2.471   8.649 -3.3622 -0.7087 -2.2886
20968SOL     OW64642   3.915   7.509   6.269  0.2168  0.2030 -0.1924
20968SOL    HW164643   3.889   7.421   6.295  0.6265  0.0178 -0.3997
20968SOL    HW264644   3.943   7.500   6.178 -1.3754  0.8789 -0.7877
20969SOL     OW64645   7.505   3.813   1.676 -0.0247 -0.1699  0.0768
20969SOL    HW164646   7.582   3.764   1.707  1.2663  0.4184 -1.9883
20969SOL    HW264647   7.435   3.748   1.673 -0.2492 -0.3342  3.8220
20970SOL     OW64648   2.204   1.653   8.947 -0.0996  0.2260  0.5470
20970SOL    HW164649   2.211   1.749   8.955 -0.7492  0.3150  0.1142
20970SOL    HW264650   2.132   1.630   9.006  0.0066  0.0148  0.5923
20971SOL     OW64651   4.670   2.056   5.314  0.5685 -0.1711 -0.2081
20971SOL    HW164652   4.620   1.974   5.305  2.1191 -1.0196 -1.5927
20971SOL    HW264653   4.723   2.043   5.392  0.4371 -0.2712 -0.1342
20972SOL     OW64654   3.472   5.310   0.559 -0.3867 -0.3978 -0.2290
20972SOL    HW164655   3.406   5.248   0.529 -0.2091 -0.6716 -0.0582
20972SOL    HW264656   3.468   5.382   0.496 -1.3172 -0.0914  0.1634
20973SOL     OW64657   8.866   0.898   0.350 -0.2168  0.5091 -0.0773
20973SOL    HW164658   8.859   0.889   0.445  0.5731  3.0922  0.2921
20973SOL    HW264659   8.959   0.913   0.334 -0.1308 -1.1493 -1.4422
20974SOL     OW64660   1.922   7.229   9.147 -0.1342  0.5101  0.0917
20974SOL    HW164661   1.880   7.299   9.098 -0.5520 -0.1546 -0.5319
20974SOL    HW264662   1.972   7.273   9.215  2.3937  1.6584 -2.3059
20975SOL     OW64663   8.897   7.972   4.608  0.8170  0.6927  0.0726
20975SOL    HW164664   8.913   7.878   4.606 -0.1694  0.5156  0.2389
20975SOL    HW264665   8.811   7.984   4.568 -0.1602  1.2629  2.1772
20976SOL     OW64666   9.223   0.960   1.241 -0.6580 -0.0880 -0.1225
20976SOL    HW164667   9.238   1.054   1.233 -0.2098  0.0182  1.5826
20976SOL    HW264668   9.136   0.953   1.282 -0.4657 -0.3902  0.2424
20977SOL     OW64669   5.423   6.752   5.631 -0.0323 -0.0180 -0.3106
20977SOL    HW164670   5.447   6.824   5.690 -2.2805 -0.5078  1.3050
20977SOL    HW264671   5.415   6.794   5.545  0.2599  1.3344  0.2953
20978SOL     OW64672   3.486   8.976   0.124  0.7082  0.1366  0.2560
20978SOL    HW164673   3.577   9.007   0.121  0.5749  0.5792  0.6899
20978SOL    HW264674   3.467   8.949   0.035  1.3363 -0.1498  0.2014
20979SOL     OW64675   8.909   3.307   7.921  0.0775 -0.0330  0.2518
20979SOL    HW164676   8.826   3.317   7.874  0.8463  1.0155 -0.9435
20979SOL    HW264677   8.962   3.251   7.865  0.5733  0.2167  0.4596
20980SOL     OW64678   3.898   0.696   6.858 -0.1325 -0.1738 -0.0162
20980SOL    HW164679   3.947   0.742   6.925 -1.2821 -0.2490  0.9161
20980SOL    HW264680   3.820   0.751   6.843 -1.3733 -1.5978  0.8904
20981SOL     OW64681   9.542   3.170   6.571  0.3981 -0.0882  0.2292
20981SOL    HW164682   9.466   3.199   6.622  0.2682 -0.4371  0.2350
20981SOL    HW264683   9.509   3.098   6.518  0.8987 -0.7217  0.7599
20982SOL     OW64684   6.213   0.957   4.976  0.0350 -0.1527 -0.3242
20982SOL    HW164685   6.178   1.010   5.048  1.0393 -0.3631  0.3410
20982SOL    HW264686   6.137   0.931   4.925 -0.7707 -0.5748  1.0587
20983SOL     OW64687   9.327   4.498   1.734  0.0240 -1.1226  0.6412
20983SOL    HW164688   9.270   4.425   1.713 -2.0239  0.6669 -0.3802
20983SOL    HW264689   9.387   4.504   1.659 -2.6145  0.8027 -1.5030
20984SOL     OW64690   3.959   3.599   2.290 -0.2477  0.0185 -0.2299
20984SOL    HW164691   4.003   3.580   2.207 -0.2375  1.9757 -0.7276
20984SOL    HW264692   3.885   3.655   2.266  0.4968  1.7278  1.1454
20985SOL     OW64693   4.977   1.565   4.479 -0.3396 -0.2705  0.6194
20985SOL    HW164694   4.887   1.556   4.449  0.2555 -0.9903 -1.0809
20985SOL    HW264695   5.019   1.482   4.455  1.5108  1.1319 -1.3698
20986SOL     OW64696   6.914   3.923   1.217 -0.5241 -0.4309  0.3169
20986SOL    HW164697   6.831   3.875   1.219 -0.1000 -1.3284 -1.5936
20986SOL    HW264698   6.892   4.007   1.176 -0.5690 -0.4620  0.2782
20987SOL     OW64699   1.770   1.285   3.973 -0.4352 -0.3560  0.9865
20987SOL    HW164700   1.684   1.307   3.936  0.3143  2.4741  0.6886
20987SOL    HW264701   1.823   1.261   3.897  0.0968  1.9261  0.5534
20988SOL     OW64702   6.936   0.492   3.638  0.0054 -0.1414 -0.4985
20988SOL    HW164703   6.858   0.504   3.584 -0.3142  2.8622  0.4566
20988SOL    HW264704   6.926   0.406   3.678 -1.1863 -1.1787 -2.8746
20989SOL     OW64705   2.353   1.576   4.738 -0.0887 -0.4324  0.1066
20989SOL    HW164706   2.319   1.588   4.827  0.0256 -1.6238  0.3180
20989SOL    HW264707   2.274   1.564   4.684 -0.1217 -0.5411  0.1783
20990SOL     OW64708   7.819   8.156   2.435  0.0596 -0.6907  0.2740
20990SOL    HW164709   7.890   8.215   2.410  0.7809 -1.7469 -0.2640
20990SOL    HW264710   7.826   8.150   2.530 -0.5956  0.7624  0.4451
20991SOL     OW64711   6.773   3.642   6.959 -0.0713 -0.1128 -0.2654
20991SOL    HW164712   6.736   3.671   6.875  1.2219  1.4261 -0.3574
20991SOL    HW264713   6.697   3.619   7.012 -0.9886  0.1681 -1.4081
20992SOL     OW64714   7.739   5.992   4.127 -0.5977 -0.5385 -0.0621
20992SOL    HW164715   7.662   5.975   4.074  0.4495 -1.0251 -1.5019
20992SOL    HW264716   7.795   6.047   4.071 -0.0353  0.0964  1.0710
20993SOL     OW64717   9.113   6.673   5.344  0.5503  0.6860 -0.1329
20993SOL    HW164718   9.051   6.707   5.279 -0.8922 -0.4370  0.5823
20993SOL    HW264719   9.111   6.738   5.415  0.6447  0.9394 -0.3588
20994SOL     OW64720   1.343   2.549   7.273  0.2762  0.1653  0.6783
20994SOL    HW164721   1.379   2.629   7.310  0.5463  0.7151 -0.7125
20994SOL    HW264722   1.409   2.520   7.209 -2.1579  2.0033 -3.0522
20995SOL     OW64723   9.311   0.230   2.437 -0.1752  0.6722 -0.0456
20995SOL    HW164724   9.266   0.169   2.379  0.3767 -0.4430  0.6631
20995SOL    HW264725   9.251   0.304   2.444 -2.0160 -0.7978  0.9414
20996SOL     OW64726   2.222   7.289   1.350  0.4827 -0.0966  0.0703
20996SOL    HW164727   2.131   7.288   1.320  1.2064  1.6133 -2.4495
20996SOL    HW264728   2.216   7.274   1.445 -2.2699 -1.5039 -0.2168
20997SOL     OW64729   0.786   7.986   4.405  0.4579 -0.2930 -0.1920
20997SOL    HW164730   0.708   8.034   4.432 -0.0287  0.1368 -2.1845
20997SOL    HW264731   0.789   7.910   4.463 -1.2113 -0.0975  0.1937
20998SOL     OW64732   7.335   4.169   3.143 -0.2795  0.4167  0.0786
20998SOL    HW164733   7.380   4.246   3.111  0.0444  1.4660  2.7532
20998SOL    HW264734   7.244   4.198   3.156 -0.6094 -0.2372 -0.6949
20999SOL     OW64735   7.905   7.809   0.561 -0.0327  0.1488 -0.3659
20999SOL    HW164736   7.822   7.763   0.558  1.1349 -2.3143  1.4482
20999SOL    HW264737   7.947   7.789   0.478 -0.1946 -0.8257 -0.2229
21000SOL     OW64738   2.651   7.638   4.957 -0.5278  0.0734 -0.0397
21000SOL    HW164739   2.743   7.665   4.967 -0.4430  0.4957 -1.6061
21000SOL    HW264740   2.601   7.718   4.972 -0.6600 -0.1916  0.9692
21001SOL     OW64741   6.963   0.222   7.001  0.3368 -1.2888  0.0161
21001SOL    HW164742   6.983   0.139   7.044 -0.3647 -0.6058  1.7539
21001SOL    HW264743   6.961   0.287   7.072  0.9408  0.2443 -1.2959
21002SOL     OW64744   6.560   7.657   6.142 -0.9760 -0.5326  0.8607
21002SOL    HW164745   6.573   7.665   6.236  0.2970 -0.8156  0.7216
21002SOL    HW264746   6.623   7.717   6.103 -3.3948  1.7829  0.1934
21003SOL     OW64747   2.637   3.035   6.874 -0.0146 -0.2283  0.3892
21003SOL    HW164748   2.728   3.055   6.897 -0.3660 -0.1422  1.7908
21003SOL    HW264749   2.591   3.119   6.878 -0.1133 -0.2155 -0.6392
21004SOL     OW64750   6.282   2.533   9.261 -0.6042 -0.4431 -0.0949
21004SOL    HW164751   6.253   2.441   9.257  1.7485 -1.2021 -1.7445
21004SOL    HW264752   6.308   2.554   9.171 -0.7171  1.7311  0.3342
21005SOL     OW64753   2.173   4.630   4.222  0.2323 -0.2902 -0.2887
21005SOL    HW164754   2.210   4.718   4.228  1.0878 -0.6902  0.5650
21005SOL    HW264755   2.219   4.590   4.149  1.1800 -0.6286  0.4762
21006SOL     OW64756   5.944   0.786   1.674 -0.1802 -0.1625  0.3265
21006SOL    HW164757   6.026   0.739   1.690  0.9686  0.8968 -1.9740
21006SOL    HW264758   5.965   0.878   1.688 -0.0680  0.4421 -3.0293
21007SOL     OW64759   1.664   1.537   6.840 -0.3817  0.1800 -0.2611
21007SOL    HW164760   1.659   1.626   6.804 -0.1831  0.0738 -0.5493
21007SOL    HW264761   1.711   1.487   6.774  0.4691  0.1098  0.3857
21008SOL     OW64762   3.568   2.438   4.327  0.0180  0.3596  0.0507
21008SOL    HW164763   3.610   2.363   4.370 -2.1081 -0.3772  0.9659
21008SOL    HW264764   3.612   2.514   4.365 -0.1206 -0.3441  1.7387
21009SOL     OW64765   9.455   3.898   9.365 -0.1937 -0.1913 -0.0274
21009SOL    HW164766   9.461   3.894   9.270  1.4575  2.7444 -0.1739
21009SOL    HW264767   9.530   3.849   9.397  0.5666  0.7510 -0.3455
21010SOL     OW64768   3.339   1.767   6.809 -0.2358 -0.1304 -0.4833
21010SOL    HW164769   3.419   1.726   6.841 -0.2685  0.6442  0.6365
21010SOL    HW264770   3.275   1.697   6.807 -0.1508 -0.2722  0.9108
21011SOL     OW64771   9.003   2.344   0.819 -0.2283  0.3946  0.4826
21011SOL    HW164772   8.965   2.263   0.853 -1.4302  0.0721 -1.5138
21011SOL    HW264773   8.979   2.410   0.884 -2.1523 -0.2414  0.4684
21012SOL     OW64774   4.072   9.331   3.047  0.5387 -0.8998 -0.3890
21012SOL    HW164775   4.062   9.422   3.073  0.0105 -1.1811  0.4136
21012SOL    HW264776   3.996   9.287   3.084  0.2135 -1.4798 -1.6745
21013SOL     OW64777   5.265   3.641   0.179  0.3628 -0.5143  0.4427
21013SOL    HW164778   5.325   3.582   0.226  2.7691  0.5203 -1.1453
21013SOL    HW264779   5.247   3.597   0.096  1.7641  0.6616 -0.5364
21014SOL     OW64780   5.286   1.918   5.491 -0.2807 -0.1668  0.8872
21014SOL    HW164781   5.193   1.935   5.474 -0.0226  0.7504  0.3868
21014SOL    HW264782   5.309   1.979   5.561  0.5173  1.2814 -0.5723
21015SOL     OW64783   5.019   4.517   5.075  0.4297  0.2355 -0.4495
21015SOL    HW164784   4.955   4.582   5.046 -0.8996 -0.9769 -0.3468
21015SOL    HW264785   5.090   4.568   5.113 -1.1604  1.6059  0.8404
21016SOL     OW64786   3.088   7.701   0.265 -0.2134  0.5653 -0.5246
21016SOL    HW164787   3.066   7.734   0.178  1.7870  0.2441 -1.1927
21016SOL    HW264788   3.016   7.641   0.286 -1.9127  2.3393 -0.9230
21017SOL     OW64789   6.277   7.761   1.518  0.2267  0.4932  0.6051
21017SOL    HW164790   6.318   7.729   1.438  0.2626  0.7302  0.5267
21017SOL    HW264791   6.185   7.770   1.496 -0.1433 -1.3836  1.1952
21018SOL     OW64792   5.071   5.280   5.477  0.1994  0.5378 -0.1080
21018SOL    HW164793   5.127   5.281   5.555  0.8219  0.9977 -0.5582
21018SOL    HW264794   5.123   5.236   5.410 -0.3123  0.1940 -0.2940
21019SOL     OW64795   5.479   3.754   1.543  0.5758 -0.2547 -0.0725
21019SOL    HW164796   5.559   3.711   1.573  1.3267  0.5038 -0.9076
21019SOL    HW264797   5.463   3.823   1.608  1.4153  0.4973 -0.6397
21020SOL     OW64798   5.839   6.416   9.467 -0.1613  0.0901  0.2864
21020SOL    HW164799   5.866   6.434   9.557  0.0899  0.4628  0.1380
21020SOL    HW264800   5.784   6.338   9.474  0.4448 -0.3111  0.6654
21021SOL     OW64801   1.015   5.437   8.356  0.4190  0.3480 -0.9477
21021SOL    HW164802   0.996   5.408   8.267 -0.8269  0.3651 -0.6946
21021SOL    HW264803   1.020   5.532   8.350  1.5283  0.2976 -1.2029
21022SOL     OW64804   9.488   3.064   2.006  0.6140  0.2871 -0.3293
21022SOL    HW164805   9.400   3.047   1.974  0.4131 -0.9866  0.8067
21022SOL    HW264806   9.530   2.978   2.007  1.1776  0.5597  1.1236
21023SOL     OW64807   2.153   1.053   7.729  0.1797  0.1784  0.0761
21023SOL    HW164808   2.134   1.131   7.781  0.6898  0.6941 -0.4985
21023SOL    HW264809   2.245   1.063   7.704  0.0278 -0.2206 -0.6561
21024SOL     OW64810   7.749   5.741   7.054 -0.9263 -0.3551 -0.2316
21024SOL    HW164811   7.790   5.814   7.007 -1.3532  1.5038  2.0807
21024SOL    HW264812   7.807   5.667   7.038 -0.0023  0.6712 -1.9979
21025SOL     OW64813   7.400   9.191   6.885  0.1217  0.0792  0.2021
21025SOL    HW164814   7.385   9.219   6.975  0.6814  0.2270  0.2564
21025SOL    HW264815   7.329   9.230   6.835 -0.0015  0.2758  0.5261
21026SOL     OW64816   2.381   9.381   4.787 -0.0795  0.6146 -0.3413
21026SOL    HW164817   2.424   9.464   4.766  0.4791  0.1882 -0.9276
21026SOL    HW264818   2.437   9.341   4.853 -0.2626  0.6355 -0.1753
21027SOL     OW64819   1.434   3.812   5.456  0.0500  0.0399 -0.0716
21027SOL    HW164820   1.405   3.724   5.482  1.1290 -0.4416 -0.4105
21027SOL    HW264821   1.387   3.829   5.374  0.2474 -0.4732 -0.3021
21028SOL     OW64822   7.240   2.522   9.255  0.0191 -0.2702  0.2291
21028SOL    HW164823   7.284   2.597   9.215  1.7065 -1.4160 -0.1314
21028SOL    HW264824   7.148   2.531   9.228 -0.1522  2.3889  1.3323
21029SOL     OW64825   7.652   2.629   6.997 -0.0771 -0.1977 -0.4536
21029SOL    HW164826   7.612   2.553   6.954 -0.0206 -1.2011  1.1471
21029SOL    HW264827   7.578   2.678   7.032 -0.0610 -1.7831  2.0679
21030SOL     OW64828   2.114   4.046   4.532 -0.4387 -0.2349 -0.3418
21030SOL    HW164829   2.053   4.082   4.468 -0.7374  1.5918  0.8676
21030SOL    HW264830   2.060   3.992   4.589 -1.0479  1.4306  0.7665
21031SOL     OW64831   9.358   1.105   0.090  0.6039 -0.1005  0.2296
21031SOL    HW164832   9.322   1.033   0.037 -0.4209  0.6718 -0.1574
21031SOL    HW264833   9.449   1.080   0.106  0.3161 -1.3933 -0.0508
21032SOL     OW64834   6.535   7.745   9.430 -0.0214 -0.5093 -0.0426
21032SOL    HW164835   6.481   7.764   9.507 -0.8983 -2.8695  0.0195
21032SOL    HW264836   6.472   7.742   9.357  0.8281  1.9554 -0.9945
21033SOL     OW64837   6.565   4.424   0.663 -0.1732  0.5101  0.2388
21033SOL    HW164838   6.629   4.411   0.733 -0.4943 -2.5475  0.0767
21033SOL    HW264839   6.480   4.410   0.705 -0.5331  1.0122 -0.3018
21034SOL     OW64840   2.553   5.079   1.096 -0.7799 -0.0404 -0.1030
21034SOL    HW164841   2.636   5.103   1.137 -1.3314  2.4427 -0.2443
21034SOL    HW264842   2.489   5.140   1.134 -2.2303 -0.8531 -1.1256
21035SOL     OW64843   2.934   6.224   5.685 -0.4412  0.1013 -0.1850
21035SOL    HW164844   2.881   6.297   5.717 -0.0825  0.3767 -0.2149
21035SOL    HW264845   2.886   6.190   5.609 -0.5622  0.3673 -0.2282
21036SOL     OW64846   7.581   2.705   8.901 -0.4296  0.1567 -0.5923
21036SOL    HW164847   7.539   2.757   8.970 -1.0594  2.1533 -2.3960
21036SOL    HW264848   7.527   2.719   8.823 -0.8351 -3.5336 -1.1698
21037SOL     OW64849   1.382   6.011   9.122 -0.1666 -0.6418 -0.1301
21037SOL    HW164850   1.363   5.955   9.046  1.8255 -1.1871 -0.2832
21037SOL    HW264851   1.470   5.985   9.149  0.8113  2.3011 -0.1023
21038SOL     OW64852   6.691   0.350   8.485 -0.1035 -1.1288  0.8194
21038SOL    HW164853   6.696   0.267   8.438 -0.3344 -2.3685  2.8419
21038SOL    HW264854   6.758   0.342   8.554  1.0035  1.0671  0.0806
21039SOL     OW64855   5.798   4.121   5.480  0.3420  0.6121  0.2122
21039SOL    HW164856   5.790   4.202   5.429  0.2627  0.0798 -0.6379
21039SOL    HW264857   5.792   4.051   5.415 -0.2707 -0.1010  1.0193
21040SOL     OW64858   8.735   7.377   1.491  0.1866  0.4762  0.0390
21040SOL    HW164859   8.823   7.367   1.527  0.5284  0.5401 -0.7606
21040SOL    HW264860   8.738   7.329   1.408 -0.6048  0.2799  0.1167
21041SOL     OW64861   2.296   2.213   6.995 -0.2837  0.1609 -0.3498
21041SOL    HW164862   2.379   2.177   6.966 -0.1954 -0.0900  0.2016
21041SOL    HW264863   2.313   2.243   7.085 -0.8572 -0.1481 -0.1319
21042SOL     OW64864   1.815   7.790   2.240  0.2184  0.4029  0.1227
21042SOL    HW164865   1.773   7.820   2.320 -1.4297 -0.2955 -0.4309
21042SOL    HW264866   1.746   7.794   2.173  1.1090 -0.5139 -0.9019
21043SOL     OW64867   7.352   8.708   3.064  0.2153  0.1806  0.1749
21043SOL    HW164868   7.427   8.672   3.112 -0.8871 -0.6588  1.3298
21043SOL    HW264869   7.367   8.681   2.974  0.4884 -1.4320  0.6670
21044SOL     OW64870   0.806   8.813   0.442  0.9814 -0.1913 -0.4507
21044SOL    HW164871   0.786   8.726   0.407 -2.2843 -0.8403  2.5121
21044SOL    HW264872   0.886   8.800   0.492  0.3311 -1.6259  0.2642
21045SOL     OW64873   9.367   8.258   8.479 -0.4550  0.3763  0.1081
21045SOL    HW164874   9.365   8.332   8.418 -1.7696  1.5282  1.4634
21045SOL    HW264875   9.293   8.273   8.537  0.2896 -1.0912  1.5162
21046SOL     OW64876   6.341   3.364   1.650  0.2852 -0.4715  0.8599
21046SOL    HW164877   6.402   3.434   1.671 -0.0819 -0.7304  3.0262
21046SOL    HW264878   6.265   3.380   1.707 -0.2106 -2.0579  0.7073
21047SOL     OW64879   6.123   0.336   6.508  0.3190 -0.4637 -0.2707
21047SOL    HW164880   6.061   0.298   6.570  0.8765 -0.1756  0.4683
21047SOL    HW264881   6.075   0.408   6.467 -0.8977 -2.1547 -1.9921
21048SOL     OW64882   9.453   6.600   1.541  0.2092  0.0768 -0.3133
21048SOL    HW164883   9.428   6.684   1.579 -0.7482  0.1347 -1.0286
21048SOL    HW264884   9.451   6.539   1.615  1.2469  0.7239  0.2762
21049SOL     OW64885   1.046   5.453   0.996  0.2527 -0.0688  0.1800
21049SOL    HW164886   0.975   5.508   0.962  0.3896 -0.1963 -0.3217
21049SOL    HW264887   1.114   5.458   0.929 -0.2506 -1.9220 -0.5284
21050SOL     OW64888   0.838   2.033   9.239  0.3095 -0.4144 -0.4044
21050SOL    HW164889   0.856   2.052   9.147 -0.5287 -0.0794 -0.5037
21050SOL    HW264890   0.900   2.089   9.287  1.0758 -0.9379 -0.7594
21051SOL     OW64891   4.318   1.495   0.723  0.2077  0.0599 -0.0439
21051SOL    HW164892   4.392   1.447   0.687 -0.6281 -0.5473 -0.9861
21051SOL    HW264893   4.276   1.536   0.647 -0.1787  0.7400  0.5245
21052SOL     OW64894   7.148   6.390   6.312  0.6076 -0.1022  0.0661
21052SOL    HW164895   7.111   6.479   6.313 -0.1390 -0.3988 -0.4883
21052SOL    HW264896   7.137   6.361   6.222  0.7404 -0.8093  0.2747
21053SOL     OW64897   5.520   2.767   8.361 -0.0256 -0.0134  0.2971
21053SOL    HW164898   5.565   2.845   8.393 -0.2598  0.4967 -0.5795
21053SOL    HW264899   5.449   2.753   8.423 -0.6708  1.1493 -0.1404
21054SOL     OW64900   2.967   7.346   7.496 -0.1603  0.6851 -0.4653
21054SOL    HW164901   3.020   7.306   7.427  0.5639  0.1852  0.3620
21054SOL    HW264902   2.964   7.280   7.565  3.1472  2.8067  2.0126
21055SOL     OW64903   6.698   6.928   6.518 -0.0834  0.0792 -0.2504
21055SOL    HW164904   6.746   6.846   6.510 -1.4071 -0.8679  1.1092
21055SOL    HW264905   6.727   6.980   6.442  0.9698 -1.5203 -0.9931
21056SOL     OW64906   4.148   8.041   4.597  0.0591 -0.6062 -0.0609
21056SOL    HW164907   4.084   8.063   4.529  0.5160  0.2514 -0.2412
21056SOL    HW264908   4.144   7.946   4.605 -0.0683 -0.7173 -1.2318
21057SOL     OW64909   4.553   2.776   5.240 -0.1463 -0.5206 -0.3504
21057SOL    HW164910   4.607   2.705   5.204 -0.7071 -2.8398  2.8591
21057SOL    HW264911   4.492   2.798   5.170  1.3481 -1.8276 -2.1518
21058SOL     OW64912   1.382   6.218   3.602  0.6386  0.2001  0.3953
21058SOL    HW164913   1.469   6.241   3.635  1.1834  0.1901 -0.9458
21058SOL    HW264914   1.382   6.122   3.599  0.0425  0.1417  1.7198
21059SOL     OW64915   0.042   5.872   1.163  0.1344  0.3993  0.1004
21059SOL    HW164916   0.053   5.822   1.082 -0.3088 -0.2001  0.3991
21059SOL    HW264917   0.131   5.887   1.194  0.2618 -1.5189  0.7856
21060SOL     OW64918   4.628   6.081   3.936  0.1185 -0.0074 -0.4678
21060SOL    HW164919   4.663   6.015   3.996  0.1747  0.5098  0.0857
21060SOL    HW264920   4.658   6.164   3.973 -1.3598  0.4377 -0.1825
21061SOL     OW64921   7.181   6.936   4.098 -0.2051 -0.5080 -0.0577
21061SOL    HW164922   7.159   7.028   4.112 -0.6123 -0.5450 -0.4416
21061SOL    HW264923   7.099   6.889   4.112 -0.0827 -0.7774 -0.2336
21062SOL     OW64924   0.666   3.684   5.359  0.0958 -0.0554 -0.1903
21062SOL    HW164925   0.633   3.751   5.418  0.4469  0.2275 -0.3120
21062SOL    HW264926   0.620   3.604   5.384  0.7838 -0.1032  0.9707
21063SOL     OW64927   3.855   5.536   4.345  0.0986  0.1676  0.2696
21063SOL    HW164928   3.937   5.562   4.386 -0.2170 -2.0753  2.5270
21063SOL    HW264929   3.876   5.455   4.299 -0.4960  0.5204 -0.6605
21064SOL     OW64930   8.432   7.217   4.389 -0.1054 -0.4217 -0.2197
21064SOL    HW164931   8.510   7.211   4.334 -0.1634  1.0336 -0.5045
21064SOL    HW264932   8.442   7.147   4.453  1.4067 -0.2942 -0.2829
21065SOL     OW64933   4.826   7.645   1.042 -0.4468 -0.5549  0.1295
21065SOL    HW164934   4.806   7.641   1.136 -0.3095 -0.8808  0.1447
21065SOL    HW264935   4.918   7.622   1.036  0.3875  2.3688  0.1985
21066SOL     OW64936   4.478   5.692   2.244 -0.3404 -0.0379  0.1576
21066SOL    HW164937   4.460   5.786   2.239 -1.0124 -0.2124 -2.0287
21066SOL    HW264938   4.573   5.685   2.233 -0.4959  0.3523 -1.9417
21067SOL     OW64939   4.690   6.608   4.993  0.2384  0.0423 -0.2975
21067SOL    HW164940   4.746   6.556   5.052  1.4282 -0.7663 -2.0731
21067SOL    HW264941   4.745   6.681   4.966 -0.3159  0.4324 -0.3767
21068SOL     OW64942   4.568   5.962   2.274 -0.1443  0.0373  0.2940
21068SOL    HW164943   4.581   5.994   2.364 -2.7080 -2.5779  1.7916
21068SOL    HW264944   4.487   6.003   2.245  0.6325  0.8122 -0.8602
21069SOL     OW64945   2.155   4.421   3.182 -0.0391  0.2061  0.6130
21069SOL    HW164946   2.091   4.363   3.140  0.9853  0.0379 -0.8025
21069SOL    HW264947   2.110   4.505   3.191 -0.7316 -0.1382  0.4156
21070SOL     OW64948   6.498   6.593   1.700 -0.3386  0.0800  0.1977
21070SOL    HW164949   6.581   6.621   1.739  0.7093 -0.5418 -1.4530
21070SOL    HW264950   6.459   6.674   1.666 -1.1992  0.6040  2.3099
21071SOL     OW64951   2.118   9.495   3.427  0.6200 -0.4722 -0.0602
21071SOL    HW164952   2.095   9.410   3.465  2.3733 -0.6899  0.5937
21071SOL    HW264953   2.118   9.556   3.501  1.1569 -0.2891 -0.2031
21072SOL     OW64954   5.791   1.013   2.454  0.2353 -0.0056  0.2088
21072SOL    HW164955   5.812   1.050   2.369 -0.8456 -0.7643 -0.4116
21072SOL    HW264956   5.806   0.919   2.444  1.2613  0.0261  1.2336
21073SOL     OW64957   0.560   2.121   6.050 -0.5899  0.0847  0.9101
21073SOL    HW164958   0.618   2.197   6.050  0.0078 -0.3585  0.4114
21073SOL    HW264959   0.608   2.055   6.100 -0.6369 -0.3020  0.4448
21074SOL     OW64960   0.998   3.325   1.786 -0.0276 -0.0405 -0.5373
21074SOL    HW164961   0.917   3.284   1.757  0.0363 -0.9399  0.5121
21074SOL    HW264962   1.048   3.254   1.826  0.3715  0.9071  0.7128
21075SOL     OW64963   3.262   7.812   1.084  0.4006 -0.3842  0.2046
21075SOL    HW164964   3.338   7.866   1.066  0.3580  0.1073  1.3675
21075SOL    HW264965   3.187   7.871   1.074  0.1254 -0.9695 -1.3447
21076SOL     OW64966   2.876   2.333   0.580  0.2304  0.2251  0.4079
21076SOL    HW164967   2.851   2.247   0.613  1.1029 -0.0269  0.4461
21076SOL    HW264968   2.820   2.394   0.627 -1.3133 -0.3833 -0.5404
21077SOL     OW64969   5.491   9.601   7.870  0.6108  0.4483 -0.3965
21077SOL    HW164970   5.495   9.563   7.783 -1.7113  0.0520 -0.3987
21077SOL    HW264971   5.581   9.630   7.889  1.5533 -1.2302 -2.0850
21078SOL     OW64972   2.796   8.379   6.547 -0.2648 -0.0814  0.4103
21078SOL    HW164973   2.845   8.299   6.529 -0.8815 -0.0999 -1.3488
21078SOL    HW264974   2.711   8.366   6.506 -0.3931  1.4516  0.1138
21079SOL     OW64975   1.092   5.840   3.930 -0.4032  0.2010 -0.9236
21079SOL    HW164976   1.020   5.836   3.993 -0.2444 -0.5449 -0.7783
21079SOL    HW264977   1.065   5.783   3.859 -0.0758  0.1269 -0.9904
21080SOL     OW64978   6.817   3.660   8.984  0.0147  0.1963  0.1641
21080SOL    HW164979   6.738   3.670   8.931 -0.4296 -0.1200  0.7641
21080SOL    HW264980   6.822   3.741   9.034  0.4505  0.5071 -0.3724
21081SOL     OW64981   5.994   3.416   6.004 -0.4913  0.0699 -0.3094
21081SOL    HW164982   6.073   3.386   5.959  0.5221  0.1858  1.3284
21081SOL    HW264983   5.991   3.364   6.085 -1.8184  0.4261 -0.1081
21082SOL     OW64984   4.519   7.747   1.387 -0.0020 -0.0745 -0.3119
21082SOL    HW164985   4.477   7.784   1.465 -1.0791  0.0896 -0.9429
21082SOL    HW264986   4.455   7.761   1.317  0.9567 -0.1849 -1.2349
21083SOL     OW64987   2.990   1.414   2.942 -0.1729 -0.1271 -0.0389
21083SOL    HW164988   2.911   1.417   2.995  0.0424  0.8562  0.2613
21083SOL    HW264989   2.993   1.500   2.899  0.6456 -0.1990 -0.1498
21084SOL     OW64990   4.644   4.000   6.174 -0.3651 -0.1307 -0.0770
21084SOL    HW164991   4.675   3.989   6.084 -0.4246 -0.6692 -0.0361
21084SOL    HW264992   4.724   4.009   6.226 -0.2954 -0.6762 -0.0793
21085SOL     OW64993   1.260   8.641   7.906 -0.4825 -0.3509 -0.7773
21085SOL    HW164994   1.270   8.572   7.971  0.9703 -1.4360 -2.0764
21085SOL    HW264995   1.259   8.595   7.822 -0.3660  1.1491 -1.6382
21086SOL     OW64996   5.444   1.276   2.553  0.6632 -0.4648  0.2867
21086SOL    HW164997   5.381   1.229   2.498  1.7878 -1.1961 -0.4260
21086SOL    HW264998   5.492   1.207   2.598  0.7171  0.0990  1.1102
21087SOL     OW64999   1.714   4.168   5.286 -0.2190  0.2510  0.3705
21087SOL    HW165000   1.728   4.246   5.232 -2.1214 -0.0490 -0.6662
21087SOL    HW265001   1.654   4.114   5.234  0.2860 -1.4717  1.4883
21088SOL     OW65002   8.325   7.281   2.160 -0.5450 -0.5505 -0.7364
21088SOL    HW165003   8.299   7.362   2.204 -2.4955 -0.2008 -2.3570
21088SOL    HW265004   8.376   7.310   2.084  1.4019 -1.0615  0.3109
21089SOL     OW65005   0.546   7.942   0.167 -0.2823  0.0545 -0.1423
21089SOL    HW165006   0.485   8.000   0.121 -0.5032 -0.0144  0.0614
21089SOL    HW265007   0.536   7.858   0.123  0.2093  0.2228 -0.5908
21090SOL     OW65008   6.982   6.314   4.746 -0.3102 -0.1607 -0.2750
21090SOL    HW165009   7.074   6.310   4.720 -0.4260 -0.9264 -0.5864
21090SOL    HW265010   6.934   6.284   4.670 -0.9340  1.6028 -0.6229
21091SOL     OW65011   8.620   5.707   9.219 -0.1699  0.2147  0.1935
21091SOL    HW165012   8.573   5.677   9.142  2.4976 -1.7983 -0.8137
21091SOL    HW265013   8.692   5.759   9.185  0.1726  0.6036  1.4403
21092SOL     OW65014   1.659   3.279   2.732  0.8197  0.0436 -0.2811
21092SOL    HW165015   1.634   3.287   2.823  0.8120  0.0030 -0.2797
21092SOL    HW265016   1.629   3.192   2.706  0.8952  0.0228 -0.2989
21093SOL     OW65017   4.084   9.529   4.457 -0.1665 -0.1932  0.4231
21093SOL    HW165018   4.077   9.620   4.428 -2.2515 -0.3065  0.3908
21093SOL    HW265019   4.174   9.520   4.487  0.4176  1.5510 -0.6388
21094SOL     OW65020   5.870   3.773   5.552  0.4777  0.4368  0.5027
21094SOL    HW165021   5.831   3.816   5.476 -1.9268 -0.6785  1.0133
21094SOL    HW265022   5.869   3.840   5.621  0.9852  0.8950  0.0753
21095SOL     OW65023   3.451   4.702   6.293 -0.5381  0.7092 -0.2476
21095SOL    HW165024   3.537   4.738   6.274 -1.0066  1.2939 -1.3119
21095SOL    HW265025   3.422   4.750   6.372  1.7187 -2.2541  2.6545
21096SOL     OW65026   3.855   1.754   3.328 -0.2216  0.1976 -0.2384
21096SOL    HW165027   3.827   1.803   3.405  1.1399 -1.1713  1.1892
21096SOL    HW265028   3.934   1.798   3.298  0.8055 -0.8526  0.8371
21097SOL     OW65029   3.644   5.185   1.808  0.2022  0.0421  0.3681
21097SOL    HW165030   3.590   5.116   1.848  0.0470  0.6338  1.2058
21097SOL    HW265031   3.728   5.143   1.790 -0.5450 -0.9183 -1.0319
21098SOL     OW65032   9.273   2.963   9.161 -0.2200 -0.0749 -0.3522
21098SOL    HW165033   9.367   2.949   9.155 -0.3362 -1.2875  0.3399
21098SOL    HW265034   9.239   2.937   9.076  0.0147 -0.1187 -0.4336
21099SOL     OW65035   0.481   1.681   2.862 -0.1543  0.2840 -0.3322
21099SOL    HW165036   0.401   1.643   2.825 -0.2077  1.1224 -1.1342
21099SOL    HW265037   0.521   1.610   2.912 -1.4915 -0.0988  0.2381
21100SOL     OW65038   0.502   2.114   6.508 -0.8924 -0.6285 -0.3091
21100SOL    HW165039   0.544   2.199   6.492 -0.6478 -1.0463 -2.0863
21100SOL    HW265040   0.430   2.134   6.567  2.2648 -0.0193  3.8164
21101SOL     OW65041   4.654   2.579   7.130  0.1331  0.3063 -0.1841
21101SOL    HW165042   4.691   2.525   7.200 -0.8045  0.8178  0.7332
21101SOL    HW265043   4.712   2.565   7.056  0.7396 -0.8198  0.4750
21102SOL     OW65044   3.178   2.394   5.544  0.9490  0.2414 -0.2555
21102SOL    HW165045   3.236   2.322   5.519  2.0361  0.7529  0.7093
21102SOL    HW265046   3.237   2.465   5.567 -0.0562  0.7586  0.8311
21103SOL     OW65047   2.633   3.252   0.649 -0.2426  0.2516 -0.0472
21103SOL    HW165048   2.667   3.202   0.723  0.0404 -0.8052 -0.8609
21103SOL    HW265049   2.538   3.247   0.658 -0.2048  0.3833  0.4115
21104SOL     OW65050   7.741   4.594   8.544 -0.1816  0.0329 -0.3014
21104SOL    HW165051   7.760   4.513   8.592 -1.7017  0.5510  1.3158
21104SOL    HW265052   7.650   4.585   8.515  0.1158  0.5403 -1.4631
21105SOL     OW65053   0.324   0.582   8.038  0.3118  0.9551  0.4190
21105SOL    HW165054   0.406   0.536   8.024 -0.1162 -0.0431  1.0816
21105SOL    HW265055   0.333   0.663   7.988  0.3903 -0.6034 -2.2181
21106SOL     OW65056   3.146   9.040   5.414  0.5022  0.0101 -0.0428
21106SOL    HW165057   3.091   9.007   5.485  0.0692  1.5980  0.4057
21106SOL    HW265058   3.168   8.963   5.363 -0.3332 -0.9733  1.0263
21107SOL     OW65059   3.577   2.230   7.983  0.7558 -0.4115 -0.6992
21107SOL    HW165060   3.643   2.176   7.940  0.9355 -1.4566  0.8176
21107SOL    HW265061   3.573   2.197   8.073 -0.5422  0.8240 -0.2575
21108SOL     OW65062   0.816   0.036   5.949 -0.0755  0.3992 -0.0537
21108SOL    HW165063   0.808  -0.059   5.959  0.1270  0.2885 -0.8803
21108SOL    HW265064   0.727   0.069   5.963 -0.0617  0.1382  0.6860
21109SOL     OW65065   8.803   9.183   6.255 -0.0489 -0.1126 -0.6006
21109SOL    HW165066   8.834   9.141   6.335 -1.6200  0.4368  0.3544
21109SOL    HW265067   8.841   9.271   6.257 -2.3857  0.9519  1.1374
21110SOL     OW65068   2.558   0.012   4.543  0.0653 -0.5558 -0.1748
21110SOL    HW165069   2.508  -0.057   4.499  1.1738 -1.5834  0.1195
21110SOL    HW265070   2.492   0.064   4.589 -1.0146 -0.0244 -2.2366
21111SOL     OW65071   9.033   6.724   0.342 -0.6676 -0.1907 -0.8282
21111SOL    HW165072   9.024   6.649   0.283 -0.7299 -1.2113  0.4290
21111SOL    HW265073   9.090   6.693   0.412 -0.9577  0.8370 -0.1064
21112SOL     OW65074   3.236   5.954   4.053  0.5118 -0.1580  0.0918
21112SOL    HW165075   3.325   5.989   4.054  0.6882 -0.5585  1.7696
21112SOL    HW265076   3.185   6.017   4.104 -0.0252 -0.3002 -0.2539
21113SOL     OW65077   4.511   5.497   1.525  0.0383  0.0818 -0.7616
21113SOL    HW165078   4.495   5.590   1.541 -0.1007  0.1023 -1.0134
21113SOL    HW265079   4.424   5.461   1.506 -0.5323 -0.8267  2.8956
21114SOL     OW65080   9.463   0.117   8.281  0.0615  0.0070  0.5131
21114SOL    HW165081   9.455   0.208   8.311 -0.9869 -0.5801  2.1865
21114SOL    HW265082   9.374   0.092   8.258  0.4199 -0.4832 -0.3771
21115SOL     OW65083   3.108   0.197   5.307 -0.5635  0.0637 -0.0389
21115SOL    HW165084   3.187   0.145   5.291 -0.3184 -0.4542  2.4243
21115SOL    HW265085   3.108   0.212   5.402 -2.8032  1.0951 -0.1355
21116SOL     OW65086   9.040   9.356   1.448 -0.0010  0.3375 -0.8127
21116SOL    HW165087   8.986   9.386   1.521  0.8216  1.1959 -0.5335
21116SOL    HW265088   9.073   9.271   1.476  0.1596  0.5796 -0.2624
21117SOL     OW65089   0.926   8.436   2.662  0.2658 -0.2296 -0.9531
21117SOL    HW165090   0.940   8.468   2.752  0.8278  0.3256 -1.2225
21117SOL    HW265091   0.991   8.367   2.651 -1.2143 -1.8035 -0.2372
21118SOL     OW65092   7.450   1.601   3.210  0.7304  0.2045 -0.1197
21118SOL    HW165093   7.434   1.647   3.128  0.6889  0.3682 -0.0190
21118SOL    HW265094   7.545   1.584   3.209  0.9162  1.1849  0.3113
21119SOL     OW65095   4.903   2.160   9.041 -0.0820 -0.7476  0.4224
21119SOL    HW165096   4.830   2.218   9.062  2.1661  2.0480  1.1924
21119SOL    HW265097   4.949   2.148   9.125  1.8941 -0.0139 -0.4939
21120SOL     OW65098   9.055   3.733   7.644  0.2836 -0.1189  0.4254
21120SOL    HW165099   9.144   3.706   7.619  0.1790 -1.6062  1.5719
21120SOL    HW265100   9.000   3.660   7.619 -0.7549  1.0497 -0.8483
21121SOL     OW65101   4.797   6.624   1.555  0.5519 -0.0166 -0.6358
21121SOL    HW165102   4.878   6.673   1.543 -0.1613  1.0023 -1.4521
21121SOL    HW265103   4.734   6.688   1.590 -0.4920 -0.2042 -2.0519
21122SOL     OW65104   5.326   4.856   0.292 -0.2492  0.1576 -0.2777
21122SOL    HW165105   5.278   4.914   0.350 -0.2628  0.0189 -0.1494
21122SOL    HW265106   5.285   4.770   0.304 -0.7598  0.2817 -1.0679
21123SOL     OW65107   5.072   7.544   5.402 -0.0972 -0.5573 -0.4326
21123SOL    HW165108   5.096   7.585   5.485  0.7164 -1.9971  0.0822
21123SOL    HW265109   4.977   7.557   5.396 -0.0374  0.3301  0.2819
21124SOL     OW65110   7.791   6.527   5.261 -0.4563 -0.2835 -0.3098
21124SOL    HW165111   7.761   6.452   5.312 -1.7799 -0.2356 -0.9599
21124SOL    HW265112   7.744   6.602   5.299  0.1221  0.0685 -0.2810
21125SOL     OW65113   8.403   6.981   0.830 -0.6474  0.0698  0.0386
21125SOL    HW165114   8.385   7.017   0.743  3.3445  1.9917 -0.2004
21125SOL    HW265115   8.424   7.057   0.884 -0.2242 -1.3050  1.9194
21126SOL     OW65116   3.832   4.349   4.406  0.3635  0.2118 -0.2480
21126SOL    HW165117   3.826   4.429   4.354 -1.8723  0.1855 -0.1226
21126SOL    HW265118   3.771   4.289   4.364  0.7676 -0.8610  0.6606
21127SOL     OW65119   7.860   3.292   8.912  0.5084  0.4424 -0.0678
21127SOL    HW165120   7.814   3.233   8.852  1.3248  0.4522 -0.7320
21127SOL    HW265121   7.820   3.277   8.997 -1.5378  1.2991 -0.8045
21128SOL     OW65122   2.047   0.140   5.049  0.1173  0.4154 -0.1897
21128SOL    HW165123   1.968   0.125   5.101 -0.2724  0.9819 -0.6127
21128SOL    HW265124   2.118   0.114   5.108 -0.3598  0.1717  0.2985
21129SOL     OW65125   3.030   1.706   8.219 -0.7102  0.2326 -0.1180
21129SOL    HW165126   2.956   1.741   8.170 -1.4784 -1.5039 -0.2806
21129SOL    HW265127   3.073   1.783   8.256 -1.2878  1.4467 -1.8329
21130SOL     OW65128   4.519   6.061   5.639 -0.4210  0.2963 -0.2205
21130SOL    HW165129   4.549   6.042   5.728  1.7425 -0.1002 -0.9864
21130SOL    HW265130   4.571   6.137   5.612 -2.5385  1.7455 -0.4489
21131SOL     OW65131   7.682   6.701   6.290 -0.4397  0.5979  0.0579
21131SOL    HW165132   7.741   6.627   6.307 -0.4091  0.5762 -0.1489
21131SOL    HW265133   7.595   6.663   6.289 -0.2810  0.1623 -2.3220
21132SOL     OW65134   2.834   6.738   9.442  0.6581  0.4688  0.1542
21132SOL    HW165135   2.876   6.782   9.516 -0.1610  1.6041 -0.0273
21132SOL    HW265136   2.762   6.796   9.418  0.8672  0.0890 -1.4863
21133SOL     OW65137   6.143   8.311   7.721  0.0985 -0.3809 -0.3139
21133SOL    HW165138   6.225   8.352   7.749 -0.2408  0.4788 -0.5448
21133SOL    HW265139   6.104   8.375   7.661 -1.6535  0.0901  1.2409
21134SOL     OW65140   4.063   4.403   6.143 -0.0301 -0.3798 -0.3221
21134SOL    HW165141   3.985   4.452   6.170  0.2809  0.0871 -0.2567
21134SOL    HW265142   4.051   4.389   6.049  0.7707  1.5198 -0.7661
21135SOL     OW65143   1.614   6.977   8.673  0.4528 -0.1531  0.3973
21135SOL    HW165144   1.575   6.889   8.673 -0.1809  0.0155 -2.3053
21135SOL    HW265145   1.575   7.020   8.748  1.2330 -2.3189  2.1593
21136SOL     OW65146   0.978   8.073   7.311  0.3200 -1.0161  0.1098
21136SOL    HW165147   1.001   8.166   7.309  1.9420 -1.3876 -1.6007
21136SOL    HW265148   0.995   8.046   7.401  2.3352 -0.1690  0.0419
21137SOL     OW65149   5.724   1.306   8.330  0.6564 -0.0475 -0.7432
21137SOL    HW165150   5.772   1.362   8.270  0.2039 -1.3337 -2.3636
21137SOL    HW265151   5.667   1.254   8.274  1.5993 -2.6785  0.5764
21138SOL     OW65152   9.024   2.973   3.802  0.3924 -0.0895  0.5728
21138SOL    HW165153   9.048   2.994   3.712 -1.0025 -0.4378  0.0806
21138SOL    HW265154   9.043   3.053   3.852  1.6992 -0.0829  0.0928
21139SOL     OW65155   6.683   1.251   4.762  0.0161 -0.0866  0.2555
21139SOL    HW165156   6.724   1.315   4.705  0.8065  0.9197  1.8948
21139SOL    HW265157   6.595   1.239   4.725  0.2727  1.0212 -0.7727
21140SOL     OW65158   8.305   1.332   4.003  0.3758  0.0275  0.5491
21140SOL    HW165159   8.238   1.372   4.057  1.6182  1.1906  1.2796
21140SOL    HW265160   8.322   1.396   3.934 -1.2600 -1.4663 -1.3827
21141SOL     OW65161   5.067   2.598   2.908 -0.0394  0.2440 -0.0751
21141SOL    HW165162   5.082   2.607   3.002 -0.1495 -1.4604  0.1429
21141SOL    HW265163   4.973   2.590   2.899 -0.1690  1.8694 -0.5181
21142SOL     OW65164   1.703   6.383   4.717 -0.0407 -0.3987  0.2814
21142SOL    HW165165   1.693   6.341   4.631 -1.4667  0.5685 -0.0730
21142SOL    HW265166   1.700   6.311   4.780  0.4962 -1.0777 -0.4527
21143SOL     OW65167   5.544   7.025   9.199  0.0952 -0.3626 -0.0584
21143SOL    HW165168   5.575   7.074   9.123 -0.0948 -0.8061 -0.4241
21143SOL    HW265169   5.481   6.963   9.164  1.5187 -1.9948  0.1472
21144SOL     OW65170   7.878   5.706   8.663 -0.1612  0.0333  0.7389
21144SOL    HW165171   7.930   5.678   8.588 -1.8357  0.4707 -0.6336
21144SOL    HW265172   7.887   5.801   8.665  1.6827 -0.1052  2.5195
21145SOL     OW65173   3.914   8.299   8.392 -0.0439 -0.2088 -1.1329
21145SOL    HW165174   3.968   8.377   8.408 -0.0791 -0.2844 -0.6309
21145SOL    HW265175   3.898   8.300   8.298  1.2878 -0.4671 -1.3962
21146SOL     OW65176   0.184   6.635   8.889  0.0472 -0.0643  0.0819
21146SOL    HW165177   0.141   6.575   8.950  1.4509  0.9492  2.1835
21146SOL    HW265178   0.159   6.603   8.803 -1.4464 -2.0127  1.1494
21147SOL     OW65179   1.057   3.366   7.440  0.0323  0.3415 -0.0989
21147SOL    HW165180   1.061   3.424   7.364  2.6829 -1.0003 -1.1122
21147SOL    HW265181   1.111   3.291   7.416 -2.4987 -2.1937  1.5085
21148SOL     OW65182   0.446   8.990   3.919 -0.2980 -0.1773 -0.0133
21148SOL    HW165183   0.358   8.977   3.885 -0.7754  0.3462  0.9946
21148SOL    HW265184   0.435   9.049   3.993  0.6824 -1.4242  1.1676
21149SOL     OW65185   8.372   7.863   4.295  0.0859 -0.1164  0.5955
21149SOL    HW165186   8.387   7.893   4.205 -2.4745  1.0819  0.4939
21149SOL    HW265187   8.338   7.774   4.284  3.0300 -1.3702  0.6532
21150SOL     OW65188   8.954   7.757   5.407  0.2221 -0.7624  0.4160
21150SOL    HW165189   8.879   7.803   5.445 -0.3751 -0.7575 -0.7256
21150SOL    HW265190   8.970   7.684   5.466  1.3539  0.9897  2.4396
21151SOL     OW65191   7.795   0.255   0.263 -0.5163 -0.3027  0.8081
21151SOL    HW165192   7.782   0.163   0.284  0.3806 -1.2081 -2.0175
21151SOL    HW265193   7.711   0.284   0.227 -0.6313 -0.2020  1.1627
21152SOL     OW65194   2.902   2.123   2.444 -0.1639 -0.0997 -0.1446
21152SOL    HW165195   2.916   2.093   2.533  1.6524 -0.3316 -0.4751
21152SOL    HW265196   2.854   2.052   2.401  0.0406 -0.5217  0.3208
21153SOL     OW65197   7.028   7.614   6.662 -0.2125 -0.0062  0.0892
21153SOL    HW165198   6.979   7.532   6.651 -2.0602  0.7277  2.0921
21153SOL    HW265199   7.045   7.619   6.756 -2.6726  3.2028  0.5234
21154SOL     OW65200   9.344   0.989   8.367  0.2671  0.1328  0.0526
21154SOL    HW165201   9.305   0.903   8.383 -0.7385  0.6994  0.7695
21154SOL    HW265202   9.358   1.026   8.454  0.9569  0.5785 -0.2411
21155SOL     OW65203   7.208   7.792   7.313  0.6555  0.1645 -0.2282
21155SOL    HW165204   7.263   7.755   7.381 -0.5730 -2.4767 -0.5274
21155SOL    HW265205   7.141   7.841   7.360  1.2907  0.5312  0.3076
21156SOL     OW65206   4.647   2.208   5.746 -0.6296 -0.1692  0.7478
21156SOL    HW165207   4.598   2.248   5.674  1.3166  1.2346  0.1158
21156SOL    HW265208   4.653   2.276   5.812 -0.9635 -0.8948  1.5487
21157SOL     OW65209   1.071   2.774   6.893 -0.5788  0.3343 -0.4520
21157SOL    HW165210   1.019   2.789   6.814 -2.6438 -1.7899  0.3582
21157SOL    HW265211   1.154   2.738   6.861 -1.0501  0.2929 -1.6883
21158SOL     OW65212   2.003   2.940   2.800  0.0275  0.3786 -0.0210
21158SOL    HW165213   1.924   2.954   2.853  0.1172  0.8645 -0.0087
21158SOL    HW265214   1.978   2.873   2.737 -0.0981 -0.1728  0.6017
21159SOL     OW65215   2.699   3.876   6.731 -0.1755 -0.2959  0.5632
21159SOL    HW165216   2.623   3.882   6.672  1.5402 -0.3878 -1.8005
21159SOL    HW265217   2.723   3.968   6.746 -0.1812 -0.2833  0.4997
21160SOL     OW65218   6.495   1.057   5.160  0.3650  0.5428 -0.9700
21160SOL    HW165219   6.430   1.125   5.177 -1.4496 -1.2854 -0.1527
21160SOL    HW265220   6.505   1.056   5.065 -1.5020  0.3284 -1.2044
21161SOL     OW65221   7.892   8.281   0.997  0.2334  0.1148  0.4134
21161SOL    HW165222   7.953   8.310   1.065  1.6166 -1.6146 -0.0168
21161SOL    HW265223   7.944   8.282   0.916 -0.7478  0.0343 -0.2303
21162SOL     OW65224   7.144   1.093   1.948 -0.8496  0.2776  0.6730
21162SOL    HW165225   7.225   1.102   1.898 -0.7414  0.3121  0.8519
21162SOL    HW265226   7.166   1.033   2.020 -0.7502  0.9200  1.1936
21163SOL     OW65227   0.128   8.991   0.553 -0.5098 -0.6965 -0.0010
21163SOL    HW165228   0.118   8.972   0.646  2.2558  1.1280  0.7760
21163SOL    HW265229   0.055   9.050   0.533 -0.5263 -0.2319  1.3089
21164SOL     OW65230   2.759   7.366   5.080  0.3091 -0.8921  0.3906
21164SOL    HW165231   2.686   7.367   5.018  0.2793  0.7319  0.3954
21164SOL    HW265232   2.802   7.451   5.067  0.6737 -0.7659  2.1547
21165SOL     OW65233   4.738   8.079   3.462 -0.2111  0.3252 -0.1110
21165SOL    HW165234   4.734   7.987   3.487  1.6410  0.4943  0.9913
21165SOL    HW265235   4.692   8.125   3.532 -1.1656  0.2629 -0.6788
21166SOL     OW65236   1.167   9.142   7.143 -0.3945  0.4795 -0.2775
21166SOL    HW165237   1.123   9.060   7.168 -1.2587  1.0343  0.0779
21166SOL    HW265238   1.260   9.124   7.156 -0.5746 -0.4264 -0.1533
21167SOL     OW65239   0.581   4.985   7.721  0.4493 -0.0531  0.0759
21167SOL    HW165240   0.561   4.976   7.814  0.3710  2.7399  0.4243
21167SOL    HW265241   0.512   5.043   7.687  0.6997 -0.7021 -1.6486
21168SOL     OW65242   7.637   6.173   1.679  0.1628  0.2823  0.3307
21168SOL    HW165243   7.630   6.268   1.687  1.0073  0.4121 -0.4104
21168SOL    HW265244   7.546   6.142   1.683 -0.0824  1.0720  1.0427
21169SOL     OW65245   7.638   8.083   0.669  0.1139 -0.1150 -0.3745
21169SOL    HW165246   7.624   8.013   0.605 -0.6730 -0.4531  0.1533
21169SOL    HW265247   7.705   8.049   0.728 -0.3919 -0.5150 -0.0147
21170SOL     OW65248   4.350   9.053   5.922  0.1426  0.0315 -0.5945
21170SOL    HW165249   4.271   9.004   5.896 -0.3512  0.2364  0.4668
21170SOL    HW265250   4.423   8.999   5.892 -0.3934 -0.2400 -1.4573
21171SOL     OW65251   8.294   1.974   4.584 -0.6029  0.3514 -0.1858
21171SOL    HW165252   8.272   1.962   4.676  1.1185 -1.0923  0.0992
21171SOL    HW265253   8.272   1.891   4.542  1.4716 -0.1487 -0.4167
21172SOL     OW65254   2.890   1.998   3.046  0.4329 -0.0563  0.1410
21172SOL    HW165255   2.973   1.985   3.092  0.2393  2.0830  1.2516
21172SOL    HW265256   2.904   1.961   2.959  2.1689 -0.7214  0.6743
21173SOL     OW65257   0.420   5.786   9.577  0.2217  0.3998 -0.3395
21173SOL    HW165258   0.352   5.853   9.592  1.0785  1.0375  0.8693
21173SOL    HW265259   0.493   5.834   9.538  0.5259  0.0072 -0.2611
21174SOL     OW65260   6.396   2.687   8.516 -0.0547  0.0895  0.0872
21174SOL    HW165261   6.421   2.675   8.424  0.1102  0.4375  0.0827
21174SOL    HW265262   6.448   2.624   8.564  0.0616  0.0942 -0.0323
21175SOL     OW65263   9.391   1.528   7.799 -0.2678 -0.4552 -0.3956
21175SOL    HW165264   9.406   1.544   7.706  1.7028 -1.5757 -0.3260
21175SOL    HW265265   9.478   1.512   7.835 -1.1731 -2.1420  1.2331
21176SOL     OW65266   7.232   0.691   3.024 -0.5264  0.1530 -0.1374
21176SOL    HW165267   7.317   0.664   3.059 -0.3628  0.3518 -0.3741
21176SOL    HW265268   7.229   0.786   3.039 -0.2872  0.3082 -0.9988
21177SOL     OW65269   5.494   0.135   1.158  0.1223 -0.1603  0.1083
21177SOL    HW165270   5.560   0.066   1.150  0.0898 -0.0916 -0.9268
21177SOL    HW265271   5.444   0.130   1.076 -0.3424  0.6204  0.3337
21178SOL     OW65272   4.128   3.924   1.024  0.1717  0.4675  0.7602
21178SOL    HW165273   4.128   3.868   0.946  0.4935  0.8902  0.4545
21178SOL    HW265274   4.216   3.961   1.027  0.1242  0.5412  1.2666
21179SOL     OW65275   1.262   1.798   3.305  0.2289 -0.2239  0.1215
21179SOL    HW165276   1.316   1.800   3.227  0.1159 -0.5108  0.0334
21179SOL    HW265277   1.185   1.850   3.283  0.3239 -0.0778  0.1371
21180SOL     OW65278   1.664   8.039   8.742  0.1965 -0.2789 -0.4451
21180SOL    HW165279   1.661   8.078   8.829  1.0239 -1.9048  0.3417
21180SOL    HW265280   1.675   8.114   8.683  1.0508  0.7429  0.9463
21181SOL     OW65281   9.294   8.217   5.064 -0.2971  0.8026  0.6677
21181SOL    HW165282   9.254   8.152   5.121 -0.7018  0.7437  0.3242
21181SOL    HW265283   9.236   8.292   5.068 -1.1435  0.2808 -0.7853
21182SOL     OW65284   2.901   0.616   2.210  0.4016 -0.3448 -0.2452
21182SOL    HW165285   2.990   0.651   2.221 -0.3196  1.8768 -1.1902
21182SOL    HW265286   2.909   0.553   2.138  1.1879 -0.1529 -0.3370
21183SOL     OW65287   1.213   5.236   6.395 -0.2280  0.1125 -0.1900
21183SOL    HW165288   1.301   5.257   6.364 -0.9992  3.0093 -0.6721
21183SOL    HW265289   1.227   5.167   6.459  2.0626 -1.7050 -2.3920
21184SOL     OW65290   1.901   4.172   4.714  0.3752  0.1064  0.5907
21184SOL    HW165291   1.846   4.214   4.648 -1.9491  0.4185  2.5487
21184SOL    HW265292   1.975   4.232   4.725 -0.7218  1.5808  0.3448
21185SOL     OW65293   0.816   0.039   3.824 -0.9284  0.0193 -0.3325
21185SOL    HW165294   0.721   0.051   3.828 -0.8739  0.7509 -0.9150
21185SOL    HW265295   0.847   0.060   3.912 -1.2523  0.3496 -0.2969
21186SOL     OW65296   7.348   6.984   1.610  0.4808  0.4352  0.7283
21186SOL    HW165297   7.335   6.903   1.659  1.1917 -0.1381 -0.0049
21186SOL    HW265298   7.441   7.005   1.623  1.2591 -0.8708 -1.9997
21187SOL     OW65299   1.489   6.434   6.330  0.5803  0.3148  0.1319
21187SOL    HW165300   1.424   6.500   6.351 -0.4372 -0.4637 -0.5208
21187SOL    HW265301   1.439   6.355   6.310  1.7713 -0.8385  1.4539
21188SOL     OW65302   4.392   9.102   5.302 -0.0901 -1.0810 -0.6821
21188SOL    HW165303   4.464   9.045   5.329  0.3943 -1.1972 -2.1257
21188SOL    HW265304   4.360   9.063   5.221 -0.6588 -0.0517 -0.9666
21189SOL     OW65305   5.362   8.111   8.740  0.2942 -0.3794 -0.3954
21189SOL    HW165306   5.315   8.163   8.674  0.3776  0.9689  0.5496
21189SOL    HW265307   5.444   8.158   8.752 -0.6709  0.8499  2.3415
21190SOL     OW65308   5.312   3.656   8.815 -0.0559 -0.3343  0.6065
21190SOL    HW165309   5.316   3.752   8.810 -0.7076 -0.3614 -1.9108
21190SOL    HW265310   5.356   3.634   8.897  0.2119  2.1102  1.1838
21191SOL     OW65311   8.569   3.435   7.056 -0.3729 -0.5236  0.8001
21191SOL    HW165312   8.574   3.404   6.965  0.6297 -0.6344  0.8834
21191SOL    HW265313   8.509   3.374   7.098 -1.9502  0.3407 -0.1024
21192SOL     OW65314   4.690   7.510   0.113 -0.2393 -0.1482 -0.6951
21192SOL    HW165315   4.634   7.520   0.036  0.4150 -1.2551 -1.3272
21192SOL    HW265316   4.705   7.600   0.143 -0.1771  0.3379 -2.0877
21193SOL     OW65317   6.123   0.223   7.696  0.6603  0.1206  0.0671
21193SOL    HW165318   6.038   0.221   7.740  0.0041  1.0733 -1.1349
21193SOL    HW265319   6.135   0.134   7.663  0.2229 -0.0602  0.3915
21194SOL     OW65320   2.581   3.401   4.596  0.1899  0.0656 -0.1709
21194SOL    HW165321   2.514   3.404   4.528  1.0144 -0.8837 -1.0506
21194SOL    HW265322   2.544   3.453   4.668 -1.9189 -1.2128 -0.2331
21195SOL     OW65323   9.215   7.598   1.567 -0.7465  0.2296  0.4734
21195SOL    HW165324   9.280   7.663   1.539  0.3682 -0.8186  0.5539
21195SOL    HW265325   9.210   7.610   1.662 -0.0713 -0.2227  0.5678
21196SOL     OW65326   0.670   7.443   6.976  0.3596  0.1758  0.2272
21196SOL    HW165327   0.605   7.392   7.023  0.5859  1.5997  2.2246
21196SOL    HW265328   0.638   7.444   6.885 -2.2082  0.5004  1.0389
21197SOL     OW65329   4.532   2.026   2.738 -0.6438  0.0404 -0.0250
21197SOL    HW165330   4.537   2.093   2.670 -1.4506 -0.4836 -0.6162
21197SOL    HW265331   4.455   2.049   2.789 -0.7913 -0.3029 -0.0891
21198SOL     OW65332   3.147   0.825   1.238 -0.4723 -0.1778  0.1827
21198SOL    HW165333   3.182   0.750   1.285  0.4214  1.0709  1.6047
21198SOL    HW265334   3.110   0.881   1.307  0.6724  1.6038 -0.5777
21199SOL     OW65335   9.106   3.822   0.193  0.3126 -0.0298 -0.0292
21199SOL    HW165336   9.149   3.907   0.194  1.1310 -0.4107 -0.8411
21199SOL    HW265337   9.169   3.763   0.234  1.0230 -0.7752 -2.0566
21200SOL     OW65338   2.326   8.740   1.763  1.2955  0.1581 -0.4090
21200SOL    HW165339   2.288   8.696   1.839 -1.4138  2.3037 -0.3541
21200SOL    HW265340   2.389   8.802   1.801  0.2492  0.9346  0.1311
21201SOL     OW65341   9.072   3.078   3.532  0.2312  0.2618  0.4898
21201SOL    HW165342   9.106   3.008   3.476  0.0088 -0.1278  0.8388
21201SOL    HW265343   9.124   3.155   3.508 -1.0341  0.5534 -1.5154
21202SOL     OW65344   7.877   2.261   0.627  0.2914  0.0418  0.3053
21202SOL    HW165345   7.947   2.315   0.665  0.9181 -1.4120  1.3624
21202SOL    HW265346   7.923   2.186   0.590 -0.7153 -1.9240  2.6936
21203SOL     OW65347   7.457   8.607   4.551  0.4193  0.8587 -0.1854
21203SOL    HW165348   7.408   8.612   4.469  2.6367  3.8263 -1.5335
21203SOL    HW265349   7.493   8.519   4.552  0.4207  0.7677 -2.5184
21204SOL     OW65350   8.379   5.412   3.102 -0.3544 -0.1762 -0.0607
21204SOL    HW165351   8.317   5.339   3.112 -0.0810 -0.4603 -0.4081
21204SOL    HW265352   8.375   5.458   3.185 -0.2573 -0.8039  0.2992
21205SOL     OW65353   7.239   5.377   0.058  0.1532  0.2351 -0.0362
21205SOL    HW165354   7.333   5.390   0.052  0.0830  0.5393 -0.4975
21205SOL    HW265355   7.214   5.340  -0.027  0.0036 -0.7832  0.4355
21206SOL     OW65356   2.132   8.613   9.046  0.3997 -0.4540 -0.4168
21206SOL    HW165357   2.069   8.615   8.974  0.1844  1.1735 -0.2172
21206SOL    HW265358   2.212   8.651   9.009  0.4663 -0.1462  0.0381
21207SOL     OW65359   1.559   1.570   4.204  0.8026  0.0541  0.6466
21207SOL    HW165360   1.588   1.530   4.286  0.8662  0.3855  0.7878
21207SOL    HW265361   1.638   1.577   4.151  0.5064 -1.5654 -0.0525
21208SOL     OW65362   4.468   0.026   6.803 -0.4254 -0.5711  0.1556
21208SOL    HW165363   4.555   0.008   6.839 -0.2865  0.6894  0.4873
21208SOL    HW265364   4.464  -0.026   6.723  0.7603 -0.4163 -0.0211
21209SOL     OW65365   4.401   4.857   3.582 -0.1457 -0.5269  0.7950
21209SOL    HW165366   4.496   4.862   3.578 -0.0911  0.6075  2.4815
21209SOL    HW265367   4.372   4.947   3.591 -0.9847 -0.9810  5.1220
21210SOL     OW65368   8.016   2.125   5.073 -0.4024 -0.2602  0.3235
21210SOL    HW165369   7.956   2.196   5.052  0.1345  0.6524  1.7100
21210SOL    HW265370   8.103   2.165   5.069  0.2438 -1.6563 -2.1175
21211SOL     OW65371   2.543   7.534   0.348  0.0565 -0.2997  0.4145
21211SOL    HW165372   2.553   7.613   0.401  0.4038  0.2150 -0.4001
21211SOL    HW265373   2.497   7.473   0.405 -1.3589  0.9219  0.6311
21212SOL     OW65374   6.344   3.927   5.639 -0.1082 -0.1803  0.1346
21212SOL    HW165375   6.270   3.878   5.604 -1.5919  1.9321  0.1429
21212SOL    HW265376   6.417   3.905   5.582 -0.6762 -2.4171  0.2018
21213SOL     OW65377   6.205   2.167   7.465  0.0581 -0.3510  0.0761
21213SOL    HW165378   6.163   2.159   7.551 -1.0516 -0.3265 -0.4470
21213SOL    HW265379   6.174   2.251   7.431  3.7047  1.7449  1.3111
21214SOL     OW65380   8.401   4.789   0.071 -0.0218  0.1192  0.0880
21214SOL    HW165381   8.324   4.813   0.122  0.3883  0.9048  0.3549
21214SOL    HW265382   8.365   4.750  -0.009 -0.7124  0.9774 -0.0425
21215SOL     OW65383   1.769   5.805   6.198  0.0286  0.6869 -0.3266
21215SOL    HW165384   1.714   5.727   6.196 -1.0043  1.3869 -0.0566
21215SOL    HW265385   1.715   5.871   6.242  1.4994  1.0835  0.9641
21216SOL     OW65386   0.122   1.083   0.170 -0.0218 -0.2030  0.0147
21216SOL    HW165387   0.134   1.099   0.263 -0.7365 -1.1803  0.2994
21216SOL    HW265388   0.108   1.170   0.132 -2.2971  0.0550  1.2332
21217SOL     OW65389   9.546   7.747   0.946 -0.5615  0.3760  0.3791
21217SOL    HW165390   9.533   7.703   0.863  0.7138 -1.7706  1.2328
21217SOL    HW265391   9.641   7.745   0.960 -0.7416  0.7147  1.8739
21218SOL     OW65392   3.345   1.405   1.454 -0.6862 -0.0708 -0.1696
21218SOL    HW165393   3.283   1.374   1.388  0.6481 -0.9984 -1.0250
21218SOL    HW265394   3.314   1.368   1.536 -1.5901 -0.0366 -0.4881
21219SOL     OW65395   2.485   6.788   7.393  0.1010  0.0512  0.0453
21219SOL    HW165396   2.415   6.781   7.328  0.6097 -1.0949 -0.4060
21219SOL    HW265397   2.522   6.875   7.379  1.4727 -0.8360 -2.6014
21220SOL     OW65398   4.108   6.289   1.001  0.6907 -0.0568  0.1848
21220SOL    HW165399   4.112   6.211   0.946 -1.3924 -1.3895  1.7723
21220SOL    HW265400   4.049   6.348   0.954  0.4780 -0.3818  0.0361
21221SOL     OW65401   4.941   6.191   9.077 -0.0730  0.2196  0.1858
21221SOL    HW165402   4.972   6.276   9.108  0.3199  0.7175 -1.4463
21221SOL    HW265403   4.995   6.128   9.124 -0.4803  0.8515  1.5476
21222SOL     OW65404   1.283   6.722   9.400  0.7155 -0.1727  0.0634
21222SOL    HW165405   1.285   6.693   9.309  0.6331  0.0185 -0.0003
21222SOL    HW265406   1.329   6.807   9.398  0.8230 -0.2270  0.2205
21223SOL     OW65407   5.117   7.069   8.807  0.0306 -0.3498  0.0833
21223SOL    HW165408   5.187   7.129   8.830 -0.1549 -0.0474 -0.1290
21223SOL    HW265409   5.102   7.085   8.713 -0.6357 -0.0750  0.2270
21224SOL     OW65410   3.259   3.614   2.602  0.1966  0.2133  0.1859
21224SOL    HW165411   3.304   3.534   2.632  1.5921  0.5183 -1.0001
21224SOL    HW265412   3.185   3.582   2.550  1.5838 -0.3753 -1.5199
21225SOL     OW65413   3.091   4.529   1.515 -0.3352  0.1090 -0.7771
21225SOL    HW165414   3.154   4.480   1.462 -0.4264 -0.5847 -0.2468
21225SOL    HW265415   3.136   4.612   1.534 -0.9341  1.1266 -3.3289
21226SOL     OW65416   4.043   2.290   1.044 -0.3498 -0.3677  0.1688
21226SOL    HW165417   3.977   2.300   1.113  3.3030 -1.0828  4.2048
21226SOL    HW265418   4.037   2.198   1.019  0.2083 -0.8744  1.8063
21227SOL     OW65419   6.360   4.632   3.556  0.0352  0.0374  0.3806
21227SOL    HW165420   6.366   4.550   3.605  1.8587  0.7171  1.3951
21227SOL    HW265421   6.432   4.627   3.493 -0.2911  0.5603 -0.0380
21228SOL     OW65422   0.238   6.433   4.620  0.5340 -0.0275  0.3016
21228SOL    HW165423   0.252   6.528   4.631  0.6621 -0.0388  0.2362
21228SOL    HW265424   0.326   6.395   4.629  0.8270  0.0506 -1.8536
21229SOL     OW65425   1.635   0.957   5.612 -0.4896  0.3953 -0.4155
21229SOL    HW165426   1.654   0.999   5.696 -0.7262 -2.1486  0.9794
21229SOL    HW265427   1.719   0.924   5.581 -0.5947  0.2874 -0.5891
21230SOL     OW65428   8.028   3.493   2.248  0.4690 -0.1207 -0.1628
21230SOL    HW165429   8.022   3.584   2.276 -0.4767  0.3568 -1.7892
21230SOL    HW265430   7.937   3.465   2.235  0.7812 -0.9132 -0.7971
21231SOL     OW65431   6.255   0.578   4.597 -0.5427  0.4649  0.1054
21231SOL    HW165432   6.325   0.525   4.559 -0.4699  0.7596 -0.1805
21231SOL    HW265433   6.182   0.569   4.535 -0.2352  1.4034 -0.4117
21232SOL     OW65434   4.368   4.190   7.420  0.1530 -0.1262 -0.1086
21232SOL    HW165435   4.355   4.229   7.506  2.0410 -1.0259  0.6571
21232SOL    HW265436   4.290   4.213   7.370 -1.2879 -0.1047  2.0349
21233SOL     OW65437   5.805   1.732   7.948  0.4092  0.1721  0.4022
21233SOL    HW165438   5.787   1.761   7.859  1.2251 -1.0730 -0.1869
21233SOL    HW265439   5.888   1.774   7.971  1.5060 -1.4855 -0.3899
21234SOL     OW65440   3.702   3.058   4.786 -0.0813 -0.7789  0.6246
21234SOL    HW165441   3.669   3.089   4.870 -1.9516 -0.2203 -0.2790
21234SOL    HW265442   3.741   3.135   4.745  0.1592 -0.8850  0.6465
21235SOL     OW65443   5.529   6.164   6.299 -0.2979  0.3127  0.1227
21235SOL    HW165444   5.569   6.088   6.342 -0.1137  0.2167 -0.2128
21235SOL    HW265445   5.448   6.179   6.347  0.5408  1.0340  1.3522
21236SOL     OW65446   8.630   2.933   1.182  0.3900 -0.2707 -0.0869
21236SOL    HW165447   8.666   3.021   1.170 -1.9546  0.6552 -1.0170
21236SOL    HW265448   8.569   2.942   1.255 -0.6280 -0.8423 -0.8450
21237SOL     OW65449   8.682   7.374   2.737  0.6694  0.8852  0.5944
21237SOL    HW165450   8.756   7.331   2.696  0.5617  1.4089 -0.1708
21237SOL    HW265451   8.686   7.465   2.707 -1.5462  0.4548 -1.3632
21238SOL     OW65452   2.187   0.877   6.783  0.5310  0.0093 -0.5525
21238SOL    HW165453   2.114   0.921   6.740  0.0257 -1.0402 -0.8055
21238SOL    HW265454   2.203   0.798   6.730  0.6166 -0.7374  0.5476
21239SOL     OW65455   4.165   9.390   2.797  0.3081 -0.0050  0.1526
21239SOL    HW165456   4.144   9.368   2.887 -1.6736  0.9419 -0.0308
21239SOL    HW265457   4.083   9.421   2.760  0.8788 -1.0934 -2.2157
21240SOL     OW65458   4.823   8.493   0.279  0.0995  0.0726  0.2207
21240SOL    HW165459   4.731   8.467   0.273  0.2399 -0.2680 -0.6566
21240SOL    HW265460   4.833   8.559   0.210  0.3439  0.6479  0.7970
21241SOL     OW65461   0.884   2.069   4.926 -0.3812 -0.1180  0.1095
21241SOL    HW165462   0.886   2.018   4.846 -1.8431 -0.2740  0.1567
21241SOL    HW265463   0.815   2.133   4.913 -0.4797  0.0088  1.1511
21242SOL     OW65464   0.283   6.966   9.415  0.5591  0.5422  0.3107
21242SOL    HW165465   0.189   6.968   9.399  0.4695 -1.6387  0.3447
21242SOL    HW265466   0.318   7.034   9.357 -1.0195  1.5068  0.4241
21243SOL     OW65467   1.937   7.324   0.659  0.2191  0.3496 -0.0901
21243SOL    HW165468   1.922   7.258   0.727 -1.9818 -1.8334 -2.4874
21243SOL    HW265469   1.856   7.375   0.657 -0.2999 -0.4618 -1.8555
21244SOL     OW65470   7.328   4.317   5.034  0.0234 -0.3134 -0.1147
21244SOL    HW165471   7.270   4.378   5.080  1.1462 -0.0702  1.0215
21244SOL    HW265472   7.413   4.360   5.032  0.6859 -1.5426  0.1233
21245SOL     OW65473   6.174   3.697   6.008 -0.8967 -0.4386  0.4742
21245SOL    HW165474   6.124   3.661   6.081 -0.0197 -2.1732  0.2503
21245SOL    HW265475   6.216   3.622   5.967  0.8707  0.8053 -0.1312
21246SOL     OW65476   1.965   0.865   2.235 -0.3502 -0.2601  0.4555
21246SOL    HW165477   1.914   0.841   2.313  0.2278  0.5736  1.1066
21246SOL    HW265478   2.050   0.892   2.269 -0.1133  0.1926 -0.4563
21247SOL     OW65479   7.363   0.146   9.092 -0.8396  0.4136  0.3515
21247SOL    HW165480   7.449   0.186   9.105 -0.6819  0.2381 -0.1243
21247SOL    HW265481   7.381   0.053   9.080 -0.8468  0.6299 -1.9531
21248SOL     OW65482   3.289   5.858   5.239  0.2024 -0.0997 -0.8055
21248SOL    HW165483   3.331   5.907   5.168  2.1410  1.6567  1.3948
21248SOL    HW265484   3.248   5.925   5.294 -0.7458 -1.3467  0.0552
21249SOL     OW65485   9.188   1.619   4.354  0.5918  0.4427  0.0753
21249SOL    HW165486   9.189   1.571   4.271  0.9684  0.3385  0.1391
21249SOL    HW265487   9.105   1.667   4.353  1.1783  1.4740 -0.9419
21250SOL     OW65488   2.848   1.366   7.620 -0.0017 -0.4293 -0.0048
21250SOL    HW165489   2.841   1.321   7.704 -1.4730  0.4709  0.3922
21250SOL    HW265490   2.757   1.381   7.593  0.4350 -0.5401 -1.6799
21251SOL     OW65491   0.613   0.663   6.627 -0.1848  0.4206 -0.1202
21251SOL    HW165492   0.650   0.640   6.712  0.2171  3.4670  0.6513
21251SOL    HW265493   0.641   0.593   6.568  2.3224 -0.1254  1.5700
21252SOL     OW65494   6.153   7.147   7.693  0.1311  0.0500  0.0868
21252SOL    HW165495   6.121   7.060   7.717 -0.1623 -0.0203 -0.5263
21252SOL    HW265496   6.249   7.140   7.698  0.0862  0.0072  1.0727
21253SOL     OW65497   0.876   9.485   4.903 -0.5891 -0.3208  0.6211
21253SOL    HW165498   0.819   9.418   4.940  0.9706 -0.9610  2.0433
21253SOL    HW265499   0.908   9.533   4.980 -1.4375  1.9102 -0.3468
21254SOL     OW65500   4.141   8.232   3.797 -0.0327  0.2166 -0.1683
21254SOL    HW165501   4.089   8.160   3.834 -0.1785  0.4625  0.1079
21254SOL    HW265502   4.191   8.265   3.871 -0.6285  0.9789 -0.1007
21255SOL     OW65503   3.701   4.232   5.047 -0.4412 -0.1781  0.1570
21255SOL    HW165504   3.689   4.230   4.952  0.9568  1.1303 -0.0897
21255SOL    HW265505   3.662   4.315   5.074  1.4760  0.7302  0.3090
21256SOL     OW65506   1.247   9.251   2.449  0.4271  0.5409  0.5224
21256SOL    HW165507   1.217   9.340   2.432 -0.3899  0.3154  0.7353
21256SOL    HW265508   1.250   9.210   2.363  0.6013  0.7075  0.4475
21257SOL     OW65509   7.981   7.659   8.992 -0.0937 -0.0964 -0.2896
21257SOL    HW165510   7.945   7.573   9.013 -0.3762  0.2901  0.8703
21257SOL    HW265511   8.044   7.677   9.061 -0.4964  0.9005 -0.1668
21258SOL     OW65512   2.728   0.272   5.456 -0.2571  0.2441 -0.5077
21258SOL    HW165513   2.742   0.213   5.381  0.9916  0.3118 -0.3575
21258SOL    HW265514   2.671   0.340   5.423 -1.3092 -0.7684 -0.8379
21259SOL     OW65515   7.648   6.443   8.855 -0.1876 -0.4823  0.5155
21259SOL    HW165516   7.739   6.415   8.849 -0.4080 -1.3571  1.1956
21259SOL    HW265517   7.644   6.493   8.936 -0.3652 -0.6463  0.6073
21260SOL     OW65518   3.870   2.108   2.738 -0.1530 -0.4383 -0.9299
21260SOL    HW165519   3.875   2.203   2.745 -0.6878 -0.4662 -0.0109
21260SOL    HW265520   3.924   2.086   2.662  2.5279  0.3210  0.6708
21261SOL     OW65521   0.499   7.553   7.262  0.1740 -0.0762 -0.1116
21261SOL    HW165522   0.571   7.579   7.204  0.4520 -0.8814 -0.1415
21261SOL    HW265523   0.479   7.463   7.236 -2.1329  0.7095 -1.4099
21262SOL     OW65524   1.406   2.877   4.633  0.0259  0.0924  0.3861
21262SOL    HW165525   1.431   2.787   4.612  1.1467  0.8924 -2.0224
21262SOL    HW265526   1.480   2.910   4.685  0.3945  0.1248 -0.1557
21263SOL     OW65527   1.188   5.927   2.764 -0.2470  0.2741  0.2412
21263SOL    HW165528   1.116   5.988   2.778  0.2825  1.0065 -0.1473
21263SOL    HW265529   1.265   5.972   2.800  0.1279 -0.2162  0.0676
21264SOL     OW65530   6.879   3.425   5.952 -0.0476  0.5586 -0.3825
21264SOL    HW165531   6.917   3.337   5.957 -1.3956 -0.0536 -0.4364
21264SOL    HW265532   6.823   3.430   6.029  0.9904  1.8744  0.3241
21265SOL     OW65533   2.207   5.864   1.843 -0.1544  0.0402 -0.2808
21265SOL    HW165534   2.171   5.953   1.841  1.4963  0.7415 -0.4840
21265SOL    HW265535   2.300   5.876   1.824 -0.1263 -1.8595 -1.5484
21266SOL     OW65536   4.134   9.604   3.897 -0.4383  0.0399  0.0661
21266SOL    HW165537   4.223   9.578   3.919 -1.0113 -0.6483  1.6691
21266SOL    HW265538   4.139   9.698   3.882  0.3946  0.1565  1.0488
21267SOL     OW65539   1.558   0.178   0.603  0.0968  0.5277 -0.3427
21267SOL    HW165540   1.650   0.181   0.626 -0.0861  2.2335  0.3302
21267SOL    HW265541   1.549   0.101   0.547  2.2760  1.2931 -1.8644
21268SOL     OW65542   5.603   3.434   8.104  0.0768 -0.2350 -0.5340
21268SOL    HW165543   5.694   3.407   8.115  0.0417 -0.9306 -1.7851
21268SOL    HW265544   5.552   3.361   8.141  0.0046  0.2733  0.4158
21269SOL     OW65545   4.705   0.212   6.396  0.2729  0.6359  0.2362
21269SOL    HW165546   4.764   0.158   6.450  0.5562  1.3174  0.6129
21269SOL    HW265547   4.630   0.230   6.453  0.2284  0.7312  0.1472
21270SOL     OW65548   3.092   6.673   1.458  0.4297  0.2770  0.3429
21270SOL    HW165549   3.041   6.702   1.383  1.5423  2.6975  0.4176
21270SOL    HW265550   3.027   6.644   1.522 -0.6837  0.6744 -0.5850
21271SOL     OW65551   4.432   2.359   4.863  0.0510 -0.1791 -0.3003
21271SOL    HW165552   4.500   2.394   4.806 -0.1984  0.0431 -0.4657
21271SOL    HW265553   4.415   2.271   4.830  0.0507 -0.1253 -0.4423
21272SOL     OW65554   5.439   1.976   0.743  0.2637  0.3036  0.2313
21272SOL    HW165555   5.533   1.988   0.756  0.6540 -1.4845 -0.5709
21272SOL    HW265556   5.420   1.890   0.782 -0.9288  0.3802 -0.1208
21273SOL     OW65557   6.484   4.915   1.312 -0.1007 -0.2734  0.4470
21273SOL    HW165558   6.442   4.964   1.383 -1.1638  1.3755 -1.2228
21273SOL    HW265559   6.418   4.851   1.285 -0.3852  0.2435 -0.1292
21274SOL     OW65560   3.477   2.825   1.978  0.1145 -0.6025  0.8829
21274SOL    HW165561   3.495   2.815   2.072  0.9978 -0.7889  0.7071
21274SOL    HW265562   3.557   2.865   1.943 -0.2278 -0.4949  0.2136
21275SOL     OW65563   2.343   0.350   4.074 -0.9798 -0.4627 -0.4582
21275SOL    HW165564   2.392   0.384   3.999 -0.6564  1.9219  0.7192
21275SOL    HW265565   2.410   0.329   4.139 -1.3370 -0.0685  0.0535
21276SOL     OW65566   6.776   2.735   8.719  0.2492  0.0027 -0.0744
21276SOL    HW165567   6.692   2.739   8.765 -0.8364 -0.0569 -1.9446
21276SOL    HW265568   6.799   2.827   8.704  0.0077  0.0092 -0.4206
21277SOL     OW65569   5.593   2.470   4.148 -0.4128 -0.0884 -0.6497
21277SOL    HW165570   5.513   2.504   4.188  0.9180 -0.1906  2.3493
21277SOL    HW265571   5.575   2.376   4.136 -1.2505  0.1563 -1.4495
21278SOL     OW65572   7.746   1.737   2.629 -0.4216  0.3536  0.2703
21278SOL    HW165573   7.795   1.667   2.586  0.7670  1.1624  0.2606
21278SOL    HW265574   7.770   1.730   2.722  1.1350  1.8362  0.0176
21279SOL     OW65575   4.753   5.901   9.505 -0.0983  0.2529 -0.1538
21279SOL    HW165576   4.711   5.857   9.579 -1.7665 -0.1600 -1.2653
21279SOL    HW265577   4.840   5.925   9.536 -0.0798 -1.5339  1.3385
21280SOL     OW65578   5.009   4.665   8.252  0.0489 -0.0429 -0.2170
21280SOL    HW165579   5.026   4.639   8.343  0.6354 -0.7952 -0.5295
21280SOL    HW265580   5.093   4.653   8.208 -0.3204 -0.0264 -0.9417
21281SOL     OW65581   2.516   1.888   1.423  0.0711  0.8269  0.2954
21281SOL    HW165582   2.572   1.957   1.459 -0.7422  1.8765 -0.3818
21281SOL    HW265583   2.431   1.931   1.412 -0.5792 -0.4269  0.2860
21282SOL     OW65584   8.905   3.861   0.835 -0.0124 -0.1510  0.0425
21282SOL    HW165585   8.910   3.797   0.906  1.3362 -0.3831 -0.2389
21282SOL    HW265586   8.878   3.942   0.877 -0.2866 -0.5391  0.6350
21283SOL     OW65587   7.770   9.512   8.552 -0.6182 -0.2221  0.2105
21283SOL    HW165588   7.825   9.565   8.610  1.4131 -0.3813 -1.4655
21283SOL    HW265589   7.683   9.517   8.591  0.2446  1.3454  2.1129
21284SOL     OW65590   7.395   8.775   7.468 -0.2682 -0.4357  0.3495
21284SOL    HW165591   7.374   8.754   7.559  0.3342 -1.5343  0.2523
21284SOL    HW265592   7.314   8.756   7.420 -0.3960 -0.4594  0.5738
21285SOL     OW65593   2.663   1.801   2.065  0.2339 -0.5196  0.2022
21285SOL    HW165594   2.714   1.737   2.015  0.0919 -0.3622 -0.1504
21285SOL    HW265595   2.648   1.873   2.003  0.6727 -0.0012  0.6939
21286SOL     OW65596   4.671   0.715   7.818  0.3279 -0.0617 -0.0516
21286SOL    HW165597   4.601   0.674   7.870  0.1677  1.2838  0.8381
21286SOL    HW265598   4.631   0.729   7.732 -0.9556  1.7380  0.7590
21287SOL     OW65599   5.899   1.701   5.232  0.3599 -0.0910 -0.5251
21287SOL    HW165600   5.985   1.741   5.227  0.9765 -0.6898  2.8402
21287SOL    HW265601   5.917   1.607   5.235 -0.2514 -0.1725  1.5897
21288SOL     OW65602   8.714   6.275   8.894  0.2308  0.0472 -0.1595
21288SOL    HW165603   8.805   6.255   8.870  1.4902  1.0943  3.1057
21288SOL    HW265604   8.661   6.218   8.838  2.7848  0.2840 -3.0547
21289SOL     OW65605   3.945   6.037   0.660  0.2521  0.0114  0.0570
21289SOL    HW165606   3.921   6.112   0.605 -0.5013  0.2899  0.7357
21289SOL    HW265607   3.908   5.961   0.615 -0.5081  0.2562  0.2411
21290SOL     OW65608   4.038   0.302   1.647 -0.0572 -0.3261  0.2893
21290SOL    HW165609   3.961   0.248   1.663  0.9714 -1.7082  0.7369
21290SOL    HW265610   4.032   0.372   1.711 -1.1608 -0.1606  0.0252
21291SOL     OW65611   8.997   2.774   2.824 -0.4234  0.3104 -0.1566
21291SOL    HW165612   8.987   2.866   2.848 -0.5197  0.2405  0.0722
21291SOL    HW265613   9.083   2.749   2.857 -0.1724  0.4628 -0.6853
21292SOL     OW65614   1.510   6.329   2.765 -0.3420  0.6214  0.2562
21292SOL    HW165615   1.447   6.389   2.804  0.3567  2.2210 -0.9873
21292SOL    HW265616   1.468   6.243   2.771 -1.0199  1.0389  2.8303
21293SOL     OW65617   3.222   7.091   0.370  0.0315 -0.3918 -0.2222
21293SOL    HW165618   3.146   7.034   0.363  0.1219 -0.5188 -0.1626
21293SOL    HW265619   3.203   7.149   0.444  0.0434 -0.4992 -0.1355
21294SOL     OW65620   8.628   8.689   2.431 -0.7712  0.4880 -0.0171
21294SOL    HW165621   8.536   8.676   2.409 -0.8851  1.0163  0.1298
21294SOL    HW265622   8.634   8.666   2.524 -0.5941 -0.2836 -0.2099
21295SOL     OW65623   5.962   5.028   0.991 -0.5016  0.3457 -0.4661
21295SOL    HW165624   5.939   5.116   1.020  0.1185 -0.0633  1.4234
21295SOL    HW265625   5.904   4.970   1.040  0.4188 -0.3735 -0.1869
21296SOL     OW65626   4.428   8.064   0.265  0.6392  0.5718  0.1940
21296SOL    HW165627   4.417   8.147   0.218  1.5045 -0.1247 -1.3266
21296SOL    HW265628   4.508   8.076   0.317 -0.4248  1.4128  1.6895
21297SOL     OW65629   3.933   1.170   5.775 -0.6120  0.2819  0.6592
21297SOL    HW165630   3.867   1.236   5.797  0.4360  1.2451  1.0116
21297SOL    HW265631   4.016   1.207   5.807  0.1685 -0.7091 -0.1358
21298SOL     OW65632   8.839   4.374   0.130 -0.4812  0.1954  0.4659
21298SOL    HW165633   8.927   4.392   0.163  0.7689 -0.8549 -1.9720
21298SOL    HW265634   8.800   4.460   0.117  1.5354  0.9301 -1.5445
21299SOL     OW65635   5.640   5.028   8.633 -0.2169  0.8775  0.5152
21299SOL    HW165636   5.597   5.098   8.584  0.9297  1.0774 -0.2435
21299SOL    HW265637   5.733   5.049   8.628  0.2277 -1.0294 -0.2992
21300SOL     OW65638   6.637   4.021   4.747 -0.0974 -0.7146  0.3205
21300SOL    HW165639   6.642   3.934   4.786  2.0333 -1.1181 -0.7570
21300SOL    HW265640   6.679   4.079   4.811 -0.7556 -0.5872  0.6525
21301SOL     OW65641   5.436   8.931   0.471 -0.2918 -0.6950 -0.2163
21301SOL    HW165642   5.451   8.906   0.562 -0.0221  1.1461  0.2964
21301SOL    HW265643   5.430   9.027   0.473 -0.7255 -0.6339 -2.0788
21302SOL     OW65644   4.337   4.084   5.084  0.6166  0.0798  0.4497
21302SOL    HW165645   4.311   4.093   5.176  0.3820  1.1753  0.2865
21302SOL    HW265646   4.297   4.001   5.056  0.5128 -0.1546  1.2731
21303SOL     OW65647   6.395   9.478   8.494  0.0545  0.4698  0.1156
21303SOL    HW165648   6.317   9.459   8.546  1.7627 -0.0129  2.6737
21303SOL    HW265649   6.462   9.499   8.558  2.6847 -1.4665 -1.8054
21304SOL     OW65650   4.317   2.051   5.140  0.7211  0.4659  0.4177
21304SOL    HW165651   4.367   2.132   5.128 -0.5367  1.1812 -0.1774
21304SOL    HW265652   4.332   2.027   5.232 -0.7237  2.6767  1.3195
21305SOL     OW65653   4.007   4.707   4.566  0.2661  0.1115  0.3097
21305SOL    HW165654   4.085   4.653   4.556 -0.0120 -0.4767  1.1799
21305SOL    HW265655   4.023   4.759   4.645 -0.3140 -0.1919  0.6357
21306SOL     OW65656   3.573   7.770   4.241 -0.2134 -0.6640 -0.0468
21306SOL    HW165657   3.491   7.796   4.198  0.9127 -0.6596 -2.3642
21306SOL    HW265658   3.565   7.675   4.253  0.5030 -1.2123 -3.0120
21307SOL     OW65659   1.484   2.306   2.556 -0.1013 -0.0574  0.1690
21307SOL    HW165660   1.475   2.216   2.587 -1.0840  0.3550  1.1539
21307SOL    HW265661   1.574   2.329   2.576 -0.0231 -0.6179  0.4815
21308SOL     OW65662   3.495   1.134   1.451 -0.0107 -0.0627 -0.8272
21308SOL    HW165663   3.454   1.077   1.517 -0.3807 -0.0475 -1.0423
21308SOL    HW265664   3.458   1.221   1.468  1.3373  0.3383  0.1694
21309SOL     OW65665   8.158   3.198   2.810  1.0033 -0.4103  0.4046
21309SOL    HW165666   8.241   3.198   2.762  1.4378  1.7330  1.0213
21309SOL    HW265667   8.104   3.262   2.763  0.8242  0.4528  1.7320
21310SOL     OW65668   7.237   1.096   2.661  0.1395  0.2364  0.6214
21310SOL    HW165669   7.264   1.106   2.752 -0.5935 -1.6557  1.1004
21310SOL    HW265670   7.278   1.169   2.615  0.5848  1.1866  2.4446
21311SOL     OW65671   9.156   2.471   6.365  0.1819  0.0562 -0.4297
21311SOL    HW165672   9.147   2.413   6.290  0.0307 -0.4846  0.0012
21311SOL    HW265673   9.198   2.549   6.330  0.0882 -0.1801 -1.0801
21312SOL     OW65674   6.906   5.187   5.197  0.0643  0.0893  0.3285
21312SOL    HW165675   6.901   5.282   5.201  0.5447  0.1656 -0.6017
21312SOL    HW265676   6.876   5.165   5.109  0.4567 -0.5818  0.3542
21313SOL     OW65677   0.261   0.442   4.289 -0.4994  0.2243 -0.5414
21313SOL    HW165678   0.170   0.471   4.279 -0.2387  1.2954  0.0164
21313SOL    HW265679   0.289   0.479   4.373 -0.1246 -1.7117  0.2196
21314SOL     OW65680   6.187   1.637   8.480 -0.0371  0.0500  0.3959
21314SOL    HW165681   6.160   1.602   8.566  0.1383  1.3040  0.9753
21314SOL    HW265682   6.116   1.697   8.456  0.6675  0.8916  0.4034
21315SOL     OW65683   4.832   8.057   6.700 -0.6576 -0.3444 -0.5493
21315SOL    HW165684   4.792   8.082   6.783 -0.2392  0.8532 -0.6893
21315SOL    HW265685   4.888   7.983   6.721 -0.5449 -0.0442  0.2376
21316SOL     OW65686   6.933   5.748   4.133 -0.1428 -0.8383 -0.1365
21316SOL    HW165687   6.925   5.817   4.067 -0.2008 -0.3451  0.3802
21316SOL    HW265688   6.896   5.670   4.091  0.1784 -0.6272 -0.8225
21317SOL     OW65689   0.026   8.090   3.954 -0.2918  0.5960  0.1443
21317SOL    HW165690   0.106   8.141   3.962 -0.0247  0.2271 -0.1010
21317SOL    HW265691  -0.045   8.154   3.961 -0.0078  0.7893  1.4556
21318SOL     OW65692   2.282   4.317   9.523  0.0284  0.3594 -0.5750
21318SOL    HW165693   2.334   4.266   9.585 -1.0634 -0.3478 -0.2290
21318SOL    HW265694   2.221   4.367   9.577  1.0472  2.0633 -0.9016
21319SOL     OW65695   2.493   2.354   5.091 -0.4647  0.0869  0.1192
21319SOL    HW165696   2.578   2.310   5.079 -0.6696 -0.1257 -0.6262
21319SOL    HW265697   2.481   2.405   5.011 -0.5424  0.9784  0.6981
21320SOL     OW65698   5.462   9.105   7.829 -0.1883 -0.2240 -0.4347
21320SOL    HW165699   5.544   9.155   7.822 -1.0927  1.1892 -1.4941
21320SOL    HW265700   5.393   9.171   7.821 -1.4406 -1.5964 -1.4675
21321SOL     OW65701   1.104   8.487   5.398  0.5534  0.3534  0.9762
21321SOL    HW165702   1.026   8.531   5.433  1.0015  0.2626  2.1205
21321SOL    HW265703   1.072   8.441   5.320 -0.6021  0.1064  1.5774
21322SOL     OW65704   4.861   1.552   6.992  0.0887 -0.4360 -0.6570
21322SOL    HW165705   4.838   1.608   6.917  2.8806  0.3075 -1.0667
21322SOL    HW265706   4.926   1.491   6.958  0.0865 -1.2709  0.7603
21323SOL     OW65707   8.288   1.945   6.139  0.3968  0.2757  0.1010
21323SOL    HW165708   8.347   1.954   6.064  1.6377 -0.8614  0.8896
21323SOL    HW265709   8.248   1.859   6.127  0.2345  0.2972  0.4781
21324SOL     OW65710   9.143   8.796   1.196 -0.0422 -0.6335  0.1324
21324SOL    HW165711   9.137   8.706   1.228 -0.1323 -0.1247  1.6038
21324SOL    HW265712   9.058   8.835   1.216 -0.0079 -0.2097 -0.5058
21325SOL     OW65713   5.351   8.130   8.289  0.3451  0.1632 -0.1451
21325SOL    HW165714   5.281   8.156   8.349 -0.4538  0.2505 -1.1037
21325SOL    HW265715   5.314   8.060   8.237  1.0023  0.1569 -0.6159
21326SOL     OW65716   3.440   1.956   7.415  0.2987 -0.6001 -0.1218
21326SOL    HW165717   3.383   1.898   7.465 -0.4129  0.3603  0.2073
21326SOL    HW265718   3.426   1.931   7.323  0.9668 -1.7878  0.0764
21327SOL     OW65719   2.560   3.284   6.928  0.2012 -0.2546 -0.6652
21327SOL    HW165720   2.465   3.289   6.936  0.3003  2.0256 -0.4363
21327SOL    HW265721   2.589   3.375   6.920  2.5105 -0.7548  0.9150
21328SOL     OW65722   9.004   7.014   0.221  0.4760  0.2365  0.6071
21328SOL    HW165723   8.956   6.980   0.297 -1.4282 -0.8389 -0.9947
21328SOL    HW265724   9.074   6.950   0.207  0.5388  0.1774  1.1515
21329SOL     OW65725   3.396   4.002   7.186  1.0490 -0.3010  0.4826
21329SOL    HW165726   3.394   4.032   7.096 -0.8481 -1.7728 -0.0261
21329SOL    HW265727   3.350   4.070   7.235  0.9129 -0.1440  0.1388
21330SOL     OW65728   5.215   1.101   3.275  0.4978  0.1533  0.2543
21330SOL    HW165729   5.267   1.108   3.355 -2.3083 -1.0270  2.3114
21330SOL    HW265730   5.159   1.179   3.276 -1.6765 -1.3381  1.1448
21331SOL     OW65731   1.152   9.318   4.527 -0.0668 -0.2531 -0.3801
21331SOL    HW165732   1.231   9.310   4.474  1.3067  0.4032  1.4891
21331SOL    HW265733   1.162   9.253   4.596 -0.1932  1.1044  0.9887
21332SOL     OW65734   1.899   3.204   7.246 -0.5590 -0.6130 -0.1259
21332SOL    HW165735   1.969   3.226   7.184 -0.4779  0.1717  0.2277
21332SOL    HW265736   1.847   3.285   7.252 -0.0635 -0.3794  1.4787
21333SOL     OW65737   3.197   4.914   6.735  0.2877 -0.5700  0.2809
21333SOL    HW165738   3.256   4.952   6.670 -0.9881 -1.2939 -1.3740
21333SOL    HW265739   3.206   4.820   6.724 -0.9627 -0.6984  0.1647
21334SOL     OW65740   0.018   9.579   8.880 -0.8744 -0.0001 -0.3071
21334SOL    HW165741   0.101   9.584   8.833  0.7762 -0.5364  2.3383
21334SOL    HW265742  -0.003   9.670   8.900 -0.7021  0.1119 -0.6330
21335SOL     OW65743   5.609   4.995   8.903 -0.4870 -0.1241 -0.4824
21335SOL    HW165744   5.618   5.031   8.815  1.0860  0.6208 -0.0542
21335SOL    HW265745   5.578   5.069   8.956  1.0951  0.1905  0.0635
21336SOL     OW65746   1.329   9.473   4.904  0.1095 -0.3138 -0.6338
21336SOL    HW165747   1.360   9.382   4.905  0.4433 -0.2351 -1.8982
21336SOL    HW265748   1.244   9.468   4.861  0.2996  0.0099 -1.0590
21337SOL     OW65749   8.362   0.572   4.196  0.1575  0.2623  0.6138
21337SOL    HW165750   8.348   0.487   4.154  1.0597  0.4814 -0.1787
21337SOL    HW265751   8.275   0.600   4.223 -0.7527  0.7637 -2.4140
21338SOL     OW65752   7.215   9.261   4.308  0.2027  0.5966 -0.0926
21338SOL    HW165753   7.180   9.243   4.395  0.5797 -2.6239 -0.4801
21338SOL    HW265754   7.275   9.334   4.321  1.4884 -0.7875  2.7556
21339SOL     OW65755   0.895   2.468   2.012 -0.2186 -0.6066  0.1154
21339SOL    HW165756   0.806   2.494   2.035 -0.1042  0.1772 -0.2772
21339SOL    HW265757   0.902   2.487   1.918  0.5790  0.0284  0.2852
21340SOL     OW65758   5.409   3.774   0.758 -0.2998 -0.3030  0.3811
21340SOL    HW165759   5.383   3.754   0.668  0.8176  1.9883 -0.5369
21340SOL    HW265760   5.328   3.804   0.800 -0.4919  0.3057 -0.3993
21341SOL     OW65761   5.482   3.981   7.569 -0.0679 -0.6404 -0.1815
21341SOL    HW165762   5.563   3.955   7.613 -1.3247 -1.1719  1.9530
21341SOL    HW265763   5.511   4.019   7.486  2.4084 -0.1114  0.8434
21342SOL     OW65764   4.770   7.076   8.694  0.4958  0.0525  0.6072
21342SOL    HW165765   4.713   7.019   8.643 -2.0011  3.6276 -0.9948
21342SOL    HW265766   4.856   7.068   8.653 -0.7331  0.4348 -2.2067
21343SOL     OW65767   4.514   7.497   6.986  0.2244 -0.4703 -0.7472
21343SOL    HW165768   4.428   7.493   7.029  0.3980  0.1359 -0.3324
21343SOL    HW265769   4.496   7.480   6.894 -0.4361  0.4034 -0.7843
21344SOL     OW65770   0.301   0.018   6.815  0.1017 -0.2112  0.2837
21344SOL    HW165771   0.258   0.090   6.861  3.0478  1.9484 -0.1055
21344SOL    HW265772   0.375  -0.007   6.871  0.2251 -1.6987 -0.4721
21345SOL     OW65773   4.332   6.096   1.945 -0.0957 -0.2620 -0.8665
21345SOL    HW165774   4.293   6.152   1.878 -1.9308 -2.7430 -2.0655
21345SOL    HW265775   4.390   6.037   1.895  0.5051 -0.5077  0.1033
21346SOL     OW65776   4.309   6.751   4.554  0.1373 -0.4392  0.3518
21346SOL    HW165777   4.330   6.699   4.632  0.8570 -0.6231  0.0492
21346SOL    HW265778   4.359   6.709   4.484 -0.8116 -0.5122 -0.2876
21347SOL     OW65779   1.270   6.383   0.343  0.6650  0.1484 -0.0393
21347SOL    HW165780   1.251   6.458   0.399  1.3231  0.5068 -0.2906
21347SOL    HW265781   1.302   6.316   0.403  2.6922  0.9868 -0.1132
21348SOL     OW65782   2.280   6.761   7.193  0.3800  0.4255 -0.8020
21348SOL    HW165783   2.327   6.798   7.119  1.3818  0.1349 -0.3304
21348SOL    HW265784   2.209   6.710   7.154  0.9551  0.1933 -1.5652
21349SOL     OW65785   7.966   5.633   1.854  0.2745 -0.0305 -0.4632
21349SOL    HW165786   8.061   5.637   1.860  0.3927 -0.5483 -1.6448
21349SOL    HW265787   7.935   5.689   1.925  1.4586  0.4933 -0.3345
21350SOL     OW65788   9.216   9.284   3.577 -0.3644  0.2340 -0.0947
21350SOL    HW165789   9.296   9.236   3.599  0.2880 -0.5740 -3.5966
21350SOL    HW265790   9.146   9.220   3.591  0.0641 -0.4035 -0.7753
21351SOL     OW65791   3.153   6.268   8.605 -0.1175 -0.7516 -0.6063
21351SOL    HW165792   3.067   6.242   8.638  0.3091 -0.1775  1.0584
21351SOL    HW265793   3.197   6.186   8.584 -0.7482 -1.0915 -0.6031
21352SOL     OW65794   4.408   0.404   0.316  0.1840  0.7521  0.4472
21352SOL    HW165795   4.389   0.380   0.406 -2.5624 -5.2301 -1.2330
21352SOL    HW265796   4.331   0.454   0.288 -0.1315  0.4319  0.7419
21353SOL     OW65797   3.211   4.506   9.421 -0.0629 -0.6601  0.1717
21353SOL    HW165798   3.180   4.501   9.330  1.2914  0.2360 -0.3757
21353SOL    HW265799   3.289   4.562   9.416 -0.8124  0.6341  2.1191
21354SOL     OW65800   6.252   6.694   7.813  0.6080  0.1135 -0.5126
21354SOL    HW165801   6.231   6.706   7.720 -1.3437 -2.3330 -0.4957
21354SOL    HW265802   6.279   6.602   7.819  1.7985  0.5454  1.1884
21355SOL     OW65803   4.222   8.533   7.501  0.2078  0.4009 -0.1357
21355SOL    HW165804   4.307   8.494   7.485  0.3955  0.3167  0.9514
21355SOL    HW265805   4.241   8.615   7.547 -0.2585  0.9389 -0.8660
21356SOL     OW65806   8.521   0.480   9.599  0.0812  0.2707  0.3378
21356SOL    HW165807   8.497   0.572   9.609 -0.0114  0.1476  1.2530
21356SOL    HW265808   8.497   0.459   9.509 -0.3956  0.9910  0.2926
21357SOL     OW65809   1.014   6.639   9.448 -0.1376  0.2055 -0.2914
21357SOL    HW165810   1.108   6.650   9.463 -0.0815 -0.8227  0.1938
21357SOL    HW265811   1.006   6.627   9.354  0.6338 -3.1125 -0.0337
21358SOL     OW65812   5.476   5.211   3.922 -0.3573  0.0693 -0.0072
21358SOL    HW165813   5.390   5.170   3.937  0.3006 -1.0934  0.7640
21358SOL    HW265814   5.494   5.258   4.004 -1.0871  1.9589 -0.8720
21359SOL     OW65815   4.721   6.146   3.498  0.2736  0.4021 -0.2634
21359SOL    HW165816   4.750   6.237   3.487 -0.8584  0.9877  1.1874
21359SOL    HW265817   4.627   6.149   3.483 -0.2397  0.0314  2.4048
21360SOL     OW65818   1.596   7.866   5.820 -0.2437 -0.3485 -0.2340
21360SOL    HW165819   1.602   7.774   5.845 -0.9233 -0.1480  0.7204
21360SOL    HW265820   1.630   7.868   5.730 -0.8847 -1.6432 -0.5389
21361SOL     OW65821   8.625   6.819   0.833 -0.0742 -0.1798 -0.4767
21361SOL    HW165822   8.667   6.885   0.888  0.1420 -0.1328 -0.6956
21361SOL    HW265823   8.546   6.862   0.801  0.1763  0.0537 -0.7934
21362SOL     OW65824   8.704   2.768   3.187 -0.1097  0.5811 -0.4169
21362SOL    HW165825   8.657   2.701   3.237 -0.6728  0.1618 -1.4803
21362SOL    HW265826   8.641   2.840   3.179 -0.3647  0.2699 -1.3113
21363SOL     OW65827   8.668   3.051   7.039 -0.3481  0.1269  0.2879
21363SOL    HW165828   8.690   3.134   7.080  0.5229 -0.1916  0.5022
21363SOL    HW265829   8.741   2.993   7.063 -2.0811 -1.4188  2.2041
21364SOL     OW65830   1.558   3.522   6.167 -0.4964  0.3331 -0.5524
21364SOL    HW165831   1.624   3.591   6.170  0.6885 -0.5787 -2.9929
21364SOL    HW265832   1.475   3.569   6.161 -0.1562  1.4955  2.2324
21365SOL     OW65833   1.132   2.853   9.190 -0.0810  0.6647  0.5411
21365SOL    HW165834   1.203   2.877   9.131 -0.1015  0.1174  0.2909
21365SOL    HW265835   1.070   2.804   9.135 -0.6011  1.0496  0.7779
21366SOL     OW65836   6.226   7.340   1.141 -0.2570  0.5328  0.1648
21366SOL    HW165837   6.277   7.266   1.108  0.2410  1.0312 -0.2068
21366SOL    HW265838   6.186   7.308   1.222  0.1305 -0.0706  0.1219
21367SOL     OW65839   8.552   3.129   9.085 -0.1800 -0.3235  0.5105
21367SOL    HW165840   8.570   3.124   8.991 -0.3235 -0.3582  0.4844
21367SOL    HW265841   8.498   3.208   9.095  0.5508  0.1707  0.6749
21368SOL     OW65842   7.089   5.283   4.979  0.6926  0.0529  0.1396
21368SOL    HW165843   7.053   5.327   5.056  1.1230  1.0153 -0.1946
21368SOL    HW265844   7.057   5.193   4.986  1.6216 -0.1806  2.0292
21369SOL     OW65845   4.507   3.962   7.400  0.1299 -0.1830  0.1449
21369SOL    HW165846   4.582   3.989   7.452  0.7437  1.4480 -1.4938
21369SOL    HW265847   4.455   4.042   7.390 -0.6142 -0.7577 -0.6993
21370SOL     OW65848   0.641   4.357   1.423  0.4156 -0.1122 -0.0630
21370SOL    HW165849   0.565   4.315   1.463  0.9114  0.2458  1.3293
21370SOL    HW265850   0.706   4.360   1.493  0.8659  1.7656 -0.5055
21371SOL     OW65851   0.651   8.341   1.909 -0.7789 -0.4513 -0.2818
21371SOL    HW165852   0.596   8.271   1.873  1.2310 -1.8172 -0.9264
21371SOL    HW265853   0.618   8.421   1.869 -1.6068 -1.3617 -1.4830
21372SOL     OW65854   1.244   5.735   0.192  0.0734  0.6922 -0.2610
21372SOL    HW165855   1.211   5.786   0.265 -1.5937 -1.1970  0.3836
21372SOL    HW265856   1.226   5.644   0.216  0.4466 -0.0463 -2.5636
21373SOL     OW65857   0.597   5.055   5.029  0.6197 -0.2866 -0.2576
21373SOL    HW165858   0.522   5.108   5.001  1.2299  0.6666 -0.1055
21373SOL    HW265859   0.584   4.971   4.985 -0.0691  0.1651 -0.9406
21374SOL     OW65860   0.403   5.585   2.742  0.4577  0.0041 -0.6230
21374SOL    HW165861   0.427   5.511   2.798 -0.8746  0.7926  1.0895
21374SOL    HW265862   0.421   5.555   2.653  0.6126 -2.1074  0.0681
21375SOL     OW65863   4.173   2.125   9.570 -0.3295 -0.2449  0.1426
21375SOL    HW165864   4.124   2.104   9.490  0.4878 -0.2226 -0.3687
21375SOL    HW265865   4.108   2.168   9.627 -0.4794  1.4487 -1.2204
21376SOL     OW65866   0.171   2.487   2.224 -0.2536  0.0376 -0.0824
21376SOL    HW165867   0.217   2.510   2.143 -0.1669  1.0553  0.2428
21376SOL    HW265868   0.088   2.535   2.219 -1.8332 -2.6169 -1.1699
21377SOL     OW65869   5.390   4.075   6.648  0.6804  0.0245 -0.5157
21377SOL    HW165870   5.377   4.147   6.709  1.6702 -0.7671  0.6691
21377SOL    HW265871   5.338   4.003   6.683  0.6009 -0.1982 -1.0711
21378SOL     OW65872   9.087   1.986   9.122 -0.7956 -0.2645 -0.1689
21378SOL    HW165873   9.179   2.001   9.146 -0.5167  1.3145 -1.9508
21378SOL    HW265874   9.058   1.916   9.181  1.0590  0.2941  1.5324
21379SOL     OW65875   3.987   4.887   9.201 -0.0780 -0.4113  0.3185
21379SOL    HW165876   3.933   4.839   9.264  0.9538 -1.8393  0.1763
21379SOL    HW265877   4.062   4.917   9.252 -0.8500  1.3744  0.4682
21380SOL     OW65878   0.696   8.606   9.266  0.2894 -0.0408 -0.1131
21380SOL    HW165879   0.731   8.518   9.257 -1.7765 -0.8516 -0.6945
21380SOL    HW265880   0.611   8.603   9.222  0.2655  2.3068 -0.3541
21381SOL     OW65881   5.010   5.734   1.740  0.0106 -0.1575  0.1246
21381SOL    HW165882   5.106   5.731   1.737  0.1608  1.3999  1.6004
21381SOL    HW265883   4.982   5.676   1.670  2.0403 -0.0013 -0.8988
21382SOL     OW65884   4.478   0.950   2.778  0.1663  0.0915 -0.0333
21382SOL    HW165885   4.479   1.036   2.821 -0.6660  0.5036 -0.7974
21382SOL    HW265886   4.569   0.922   2.778  0.4460  0.9704  0.2529
21383SOL     OW65887   0.457   6.584   3.657 -0.0870  0.2058  0.2212
21383SOL    HW165888   0.499   6.558   3.739  1.3087  0.0132 -0.5350
21383SOL    HW265889   0.528   6.585   3.593 -0.4326  3.6683 -0.2929
21384SOL     OW65890   7.281   2.219   5.385 -0.1988 -0.1100 -0.3294
21384SOL    HW165891   7.276   2.315   5.390  0.2359 -0.1322  1.3562
21384SOL    HW265892   7.375   2.200   5.389 -0.2849 -0.6124 -0.6485
21385SOL     OW65893   7.129   3.877   0.726  0.0882  0.2329 -0.0604
21385SOL    HW165894   7.162   3.964   0.746  2.4765 -0.9475  1.4725
21385SOL    HW265895   7.037   3.879   0.755  0.0923  2.1890 -0.0611
21386SOL     OW65896   0.981   0.781   7.238  0.1873  0.3982 -0.5004
21386SOL    HW165897   0.919   0.821   7.299  0.1969 -0.3466  0.0060
21386SOL    HW265898   1.053   0.845   7.233  0.8879 -0.1449  1.4425
21387SOL     OW65899   4.820   0.868   4.563  0.1311 -0.1743 -0.2530
21387SOL    HW165900   4.776   0.783   4.570 -0.2625  0.1296  1.8761
21387SOL    HW265901   4.774   0.913   4.493  0.4819 -1.7566 -1.5679
21388SOL     OW65902   3.344   8.676   6.352  0.7786  0.1495  0.2099
21388SOL    HW165903   3.273   8.624   6.391 -1.4573  1.4932 -1.7752
21388SOL    HW265904   3.359   8.747   6.414 -0.2492  0.3319  0.2665
21389SOL     OW65905   2.794   3.975   9.532  0.5112  0.2470  0.5527
21389SOL    HW165906   2.841   4.042   9.581  0.4044  0.6165  0.1541
21389SOL    HW265907   2.802   3.896   9.586  1.7020  0.2653  0.4287
21390SOL     OW65908   4.566   8.144   4.594  0.1210  0.2185  0.3754
21390SOL    HW165909   4.645   8.091   4.599 -0.4930 -0.6034  2.0322
21390SOL    HW265910   4.582   8.216   4.654 -0.0995  0.4741  0.1321
21391SOL     OW65911   9.579   8.926   2.019 -0.6441  0.0601  0.1469
21391SOL    HW165912   9.516   8.862   1.985 -2.4898  1.5928  0.4671
21391SOL    HW265913   9.526   9.005   2.035  1.2328  1.1728  1.2255
21392SOL     OW65914   6.055   1.127   8.592  0.2727 -0.2687 -0.3018
21392SOL    HW165915   6.062   1.204   8.535 -0.0671 -1.1783 -1.6154
21392SOL    HW265916   6.115   1.145   8.664 -2.0087  2.6048  1.1015
21393SOL     OW65917   1.872   3.883   0.806  0.5865  0.0002 -0.1946
21393SOL    HW165918   1.845   3.791   0.794  0.1075  0.1246 -0.0978
21393SOL    HW265919   1.849   3.902   0.897 -0.0872  0.4694 -0.4591
21394SOL     OW65920   8.176   3.288   9.333  0.1402  0.0249 -0.0700
21394SOL    HW165921   8.160   3.197   9.309  3.0001 -1.0600  1.6726
21394SOL    HW265922   8.098   3.313   9.383  0.5500 -2.6054  2.1718
21395SOL     OW65923   7.752   2.482   3.492 -0.0926  0.1681 -0.4233
21395SOL    HW165924   7.806   2.536   3.435 -0.8725  0.2424 -1.1170
21395SOL    HW265925   7.807   2.464   3.568 -0.2663  3.0723  0.4915
21396SOL     OW65926   6.629   6.801   2.924  0.2838 -0.0151  0.1367
21396SOL    HW165927   6.566   6.869   2.899  0.7075  0.5189  0.4877
21396SOL    HW265928   6.649   6.755   2.842 -1.5287 -1.0534  0.2185
21397SOL     OW65929   4.205   9.082   3.053 -0.2333 -0.2570  0.1004
21397SOL    HW165930   4.300   9.084   3.043  0.0264 -1.2836  1.9454
21397SOL    HW265931   4.178   9.172   3.036  1.0631  0.0644 -0.4132
21398SOL     OW65932   3.660   0.208   8.349 -0.2744 -0.2172  0.1103
21398SOL    HW165933   3.579   0.246   8.384 -0.3745 -1.3638  1.2112
21398SOL    HW265934   3.729   0.243   8.406 -0.2861 -1.0831  0.6754
21399SOL     OW65935   7.983   5.245   6.283  0.0230  0.5775  0.5270
21399SOL    HW165936   7.958   5.328   6.241 -0.2701  0.9642  1.4239
21399SOL    HW265937   7.931   5.179   6.238  0.3985  0.8501 -0.3289
21400SOL     OW65938   4.551   6.513   5.428  0.4099  0.7105  0.0977
21400SOL    HW165939   4.570   6.442   5.366 -0.3778  0.8141 -0.2816
21400SOL    HW265940   4.563   6.593   5.377  0.3397  0.8181  0.2488
21401SOL     OW65941   8.317   8.797   1.635 -0.3871  0.2397  0.2980
21401SOL    HW165942   8.411   8.810   1.625 -0.5722  0.6332 -1.2673
21401SOL    HW265943   8.278   8.868   1.583 -1.5192 -1.1087 -0.7825
21402SOL     OW65944   3.658   0.788   2.390 -0.1250 -0.4408 -0.0821
21402SOL    HW165945   3.669   0.840   2.310 -1.7949  0.0036 -0.0747
21402SOL    HW265946   3.602   0.843   2.446  1.3880 -0.5353  1.6060
21403SOL     OW65947   5.182   7.178   3.775 -0.3806  0.8012 -0.2866
21403SOL    HW165948   5.164   7.244   3.708  2.3040 -0.6890 -2.6915
21403SOL    HW265949   5.173   7.094   3.729 -0.3319 -0.3958  1.7515
21404SOL     OW65950   0.958   3.828   4.049  0.0845  0.2432 -0.0620
21404SOL    HW165951   0.937   3.796   3.961 -0.8954  1.8405 -0.4632
21404SOL    HW265952   1.004   3.911   4.034 -1.3308  1.2526  0.8910
21405SOL     OW65953   5.269   8.701   2.595  0.3395  0.4966  0.5659
21405SOL    HW165954   5.180   8.679   2.568  0.8634  0.4294 -1.2322
21405SOL    HW265955   5.284   8.790   2.562  1.1137  0.2976  0.3375
21406SOL     OW65956   2.663   5.519   8.294 -0.0015  0.2495 -0.2232
21406SOL    HW165957   2.675   5.603   8.250  1.3475 -0.2745 -0.9190
21406SOL    HW265958   2.694   5.454   8.230  1.9553 -0.5529  1.4234
21407SOL     OW65959   0.709   2.109   2.248 -0.6332  0.0778  0.0603
21407SOL    HW165960   0.658   2.188   2.231 -0.9776 -0.2428 -0.4281
21407SOL    HW265961   0.646   2.038   2.244 -0.2836 -0.2503  0.2442
21408SOL     OW65962   8.960   6.507   3.614 -0.2446  0.0295 -0.1622
21408SOL    HW165963   8.878   6.495   3.662 -0.7880 -0.3950 -1.1719
21408SOL    HW265964   9.008   6.425   3.628 -0.8456 -0.5186 -1.1420
21409SOL     OW65965   4.248   8.332   6.355 -0.0052 -0.5004  0.1880
21409SOL    HW165966   4.188   8.259   6.371  1.0142 -1.1660  1.1022
21409SOL    HW265967   4.221   8.367   6.270 -2.1266 -0.3241  0.8797
21410SOL     OW65968   5.457   1.798   4.572  0.3297 -0.4281 -0.3028
21410SOL    HW165969   5.399   1.738   4.618  0.9226 -1.7767 -1.2530
21410SOL    HW265970   5.505   1.743   4.510  0.3424  1.1356 -1.7689
21411SOL     OW65971   7.124   4.863   1.054  0.7200 -0.2981 -0.0623
21411SOL    HW165972   7.190   4.893   1.118  0.7188 -0.6228  0.0954
21411SOL    HW265973   7.152   4.902   0.971  0.0073  1.1806  0.3561
21412SOL     OW65974   8.315   7.082   0.105  0.1571  0.2856  0.2194
21412SOL    HW165975   8.235   7.096   0.054 -0.1863  0.1281  0.7024
21412SOL    HW265976   8.284   7.039   0.186  0.5225  1.6497  1.1178
21413SOL     OW65977   5.144   6.991   0.050 -0.3597  0.4209  0.3725
21413SOL    HW165978   5.136   6.920   0.113  0.5333  0.3199  0.3909
21413SOL    HW265979   5.238   7.011   0.049 -0.4679  0.9304 -0.3613
21414SOL     OW65980   5.047   0.516   1.818  0.3007 -0.4401  0.0383
21414SOL    HW165981   4.970   0.531   1.764 -0.5253 -2.7321  0.5119
21414SOL    HW265982   5.043   0.424   1.842  3.3625 -0.7433 -0.1738
21415SOL     OW65983   4.717   6.681   4.597 -0.1138  0.0246 -0.2370
21415SOL    HW165984   4.706   6.729   4.514  1.1039 -1.3585 -1.2463
21415SOL    HW265985   4.737   6.591   4.570 -0.8628 -0.7343  1.5936
21416SOL     OW65986   5.221   0.612   1.614  0.2823 -0.4087  0.7219
21416SOL    HW165987   5.313   0.587   1.603  0.7844  1.0142  1.4126
21416SOL    HW265988   5.195   0.569   1.696  1.2936  1.5489  2.1792
21417SOL     OW65989   2.393   6.955   5.369 -0.6435  0.0700  0.7801
21417SOL    HW165990   2.470   6.942   5.425  0.1243  0.9670 -0.0178
21417SOL    HW265991   2.352   6.869   5.364 -0.7326 -0.0340  2.6904
21418SOL     OW65992   6.683   0.953   3.382  0.2567  0.3014 -0.1227
21418SOL    HW165993   6.674   1.029   3.325 -0.2929  0.2411 -0.1166
21418SOL    HW265994   6.638   0.979   3.463 -0.9363 -0.4536 -0.5299
21419SOL     OW65995   8.953   2.283   1.481 -0.1061 -0.2844 -0.5194
21419SOL    HW165996   8.987   2.252   1.396  2.0298  0.2242  0.1062
21419SOL    HW265997   8.891   2.215   1.507 -0.5390 -0.6376 -2.3058
21420SOL     OW65998   1.885   4.780   7.273 -0.3862 -0.2740 -0.5676
21420SOL    HW165999   1.863   4.831   7.195 -1.8523  0.4246  0.2582
21420SOL    HW266000   1.941   4.838   7.325  1.0345 -0.9402 -1.3198
21421SOL     OW66001   0.820   1.462   5.736  0.4031  0.5981  0.4200
21421SOL    HW166002   0.912   1.469   5.761  0.3477  1.0761  0.5122
21421SOL    HW266003   0.818   1.394   5.670  1.3189  2.6833 -1.9067
21422SOL     OW66004   3.066   2.154   3.887  0.5234 -0.3514  0.3657
21422SOL    HW166005   2.971   2.170   3.880  0.6889 -0.0115 -1.6916
21422SOL    HW266006   3.086   2.169   3.980 -1.3529  0.0228  0.7532
21423SOL     OW66007   5.880   4.337   0.246  0.2474 -0.4935  0.1053
21423SOL    HW166008   5.830   4.341   0.327  0.6435  0.3936  0.3199
21423SOL    HW266009   5.971   4.334   0.274  0.4028  0.2349 -0.3058
21424SOL     OW66010   3.738   2.840   8.449 -0.5173  0.4810 -0.3861
21424SOL    HW166011   3.672   2.897   8.409 -0.3955  1.0060  0.1383
21424SOL    HW266012   3.818   2.857   8.398 -1.0993 -1.2330 -1.9591
21425SOL     OW66013   7.628   7.941   3.230  0.3145  0.6209  0.2953
21425SOL    HW166014   7.677   8.020   3.255  2.1162 -1.0295  2.4632
21425SOL    HW266015   7.661   7.874   3.290 -1.3381 -1.7285 -1.2910
21426SOL     OW66016   7.674   5.862   0.736  0.7412  0.2348 -0.3726
21426SOL    HW166017   7.768   5.880   0.735  1.0189 -0.9408  1.0838
21426SOL    HW266018   7.665   5.777   0.695  0.2876  0.3780 -0.5739
21427SOL     OW66019   1.879   4.151   0.941 -0.0414 -0.7388  0.1635
21427SOL    HW166020   1.915   4.091   1.006  1.0829 -0.2018  0.0631
21427SOL    HW266021   1.784   4.142   0.950  0.0985 -2.3087  0.3417
21428SOL     OW66022   7.066   4.443   9.011  0.2908  0.5378 -0.0687
21428SOL    HW166023   7.143   4.457   8.957  0.0413  4.4412  0.2765
21428SOL    HW266024   7.099   4.399   9.089  1.6265 -0.3556 -1.1067
21429SOL     OW66025   6.113   6.387   2.969 -0.3031 -0.4809  0.0672
21429SOL    HW166026   6.096   6.343   3.052  1.5237 -0.4793  0.4800
21429SOL    HW266027   6.049   6.350   2.909 -1.9229 -0.2089  1.5266
21430SOL     OW66028   5.422   6.970   9.446 -0.0982 -0.0512  0.1422
21430SOL    HW166029   5.433   6.972   9.541 -0.3576  0.6767  0.1652
21430SOL    HW266030   5.505   7.003   9.411 -0.0625 -0.1615  0.1228
21431SOL     OW66031   9.510   1.803   5.893  0.0349 -0.3787 -0.5395
21431SOL    HW166032   9.524   1.775   5.983 -1.3240  1.9221  0.4959
21431SOL    HW266033   9.530   1.896   5.893  0.4463 -0.4028 -2.7625
21432SOL     OW66034   8.697   8.813   6.198 -0.1355 -0.1184 -0.1652
21432SOL    HW166035   8.739   8.786   6.280  0.2869  0.7307 -0.0806
21432SOL    HW266036   8.614   8.766   6.196 -0.4737  0.3765  1.1105
21433SOL     OW66037   8.284   0.440   5.931  0.2734 -1.0685 -0.1467
21433SOL    HW166038   8.337   0.519   5.934 -1.1206  0.1792 -3.3506
21433SOL    HW266039   8.257   0.425   6.022 -0.1075  2.6708  0.4969
21434SOL     OW66040   2.402   2.862   3.746 -0.9629 -0.0929  0.2990
21434SOL    HW166041   2.371   2.854   3.655 -0.7796  0.7990  0.1505
21434SOL    HW266042   2.420   2.772   3.772 -0.1753 -0.3061 -0.8620
21435SOL     OW66043   2.172   7.872   2.628 -0.4286 -0.1297  0.0485
21435SOL    HW166044   2.117   7.828   2.563 -1.6361  1.9753 -0.4379
21435SOL    HW266045   2.147   7.964   2.622  0.2708  0.3021  2.6779
21436SOL     OW66046   0.239   2.406   8.932 -0.2389  0.1604 -0.1512
21436SOL    HW166047   0.178   2.479   8.931 -2.0816 -1.3065  0.5143
21436SOL    HW266048   0.189   2.332   8.966  1.6345 -1.3697 -0.5097
21437SOL     OW66049   3.140   0.030   3.276  0.0084  0.3765 -0.0737
21437SOL    HW166050   3.112  -0.001   3.190 -1.6462  1.7475 -0.0704
21437SOL    HW266051   3.091  -0.023   3.338  0.8272 -0.2635  0.0576
21438SOL     OW66052   2.308   6.857   5.643  0.2804 -0.1140  0.2749
21438SOL    HW166053   2.269   6.774   5.668  1.2348 -0.9760 -0.9489
21438SOL    HW266054   2.239   6.905   5.597 -0.2273 -0.2847  0.8609
21439SOL     OW66055   7.746   9.022   4.647 -0.5984  0.3205 -0.4998
21439SOL    HW166056   7.775   8.942   4.692  0.5424  1.2650  0.5100
21439SOL    HW266057   7.683   8.991   4.582  1.0868 -1.6169 -1.3285
21440SOL     OW66058   8.650   3.733   3.089  0.1375  0.4489 -0.7109
21440SOL    HW166059   8.624   3.667   3.024  0.4100  2.1206 -2.6135
21440SOL    HW266060   8.691   3.682   3.159 -2.9621 -1.7385 -0.2762
21441SOL     OW66061   0.776   0.266   0.217  0.0676  0.0522 -0.7121
21441SOL    HW166062   0.729   0.246   0.298 -1.2190  0.6375 -1.2793
21441SOL    HW266063   0.790   0.181   0.176  1.3384 -0.3218  0.4104
21442SOL     OW66064   2.260   1.845   1.731  0.2382  0.1412 -0.0158
21442SOL    HW166065   2.213   1.773   1.774  1.1561 -0.5616 -0.1393
21442SOL    HW266066   2.193   1.909   1.711 -0.9525 -1.4844 -1.5807
21443SOL     OW66067   7.881   7.395   2.901 -0.1854  0.3867 -0.4108
21443SOL    HW166068   7.860   7.488   2.909  0.2320  0.6801 -2.1688
21443SOL    HW266069   7.818   7.362   2.836  0.4497 -0.2649 -0.7099
21444SOL     OW66070   9.579   3.485   1.017 -0.1716  0.4478  0.1919
21444SOL    HW166071   9.497   3.440   0.994 -1.7246  2.3897  1.5467
21444SOL    HW266072   9.592   3.547   0.945 -0.4872  0.8404  0.4654
21445SOL     OW66073   1.004   7.317   7.693 -0.2311 -0.5949  0.3177
21445SOL    HW166074   0.939   7.255   7.660 -2.3593  2.3126 -1.5353
21445SOL    HW266075   1.062   7.332   7.619 -1.1823  1.2505 -0.1240
21446SOL     OW66076   6.653   8.535   9.058  0.3675  0.3489  0.1287
21446SOL    HW166077   6.620   8.489   9.135 -0.5520 -3.6021 -2.3354
21446SOL    HW266078   6.748   8.538   9.070  0.0959  3.1005  2.8598
21447SOL     OW66079   4.623   6.017   6.202  0.2176 -0.0988 -0.5416
21447SOL    HW166080   4.672   6.099   6.196  1.1873 -0.5946  0.1697
21447SOL    HW266081   4.690   5.951   6.219 -0.8151 -0.6327  1.7810
21448SOL     OW66082   3.333   6.411   0.885 -0.0664  0.3736 -0.3334
21448SOL    HW166083   3.385   6.374   0.956  1.0369 -1.8319 -2.1351
21448SOL    HW266084   3.265   6.462   0.929 -2.0086 -4.0788  2.6131
21449SOL     OW66085   1.266   5.704   0.875 -0.0096 -0.2363 -0.3185
21449SOL    HW166086   1.226   5.637   0.820 -1.3813 -0.9547  1.4633
21449SOL    HW266087   1.192   5.757   0.906  0.8795  1.0372 -0.3206
21450SOL     OW66088   5.806   7.721   2.687 -0.1935 -0.1325 -0.2439
21450SOL    HW166089   5.754   7.793   2.649  0.0837  0.3298  0.2552
21450SOL    HW266090   5.897   7.749   2.677 -0.0901 -0.3527  0.0728
21451SOL     OW66091   7.098   8.206   1.994  0.1585 -0.3753  0.2227
21451SOL    HW166092   7.180   8.237   1.954 -1.4770  1.2748 -2.1425
21451SOL    HW266093   7.050   8.166   1.921 -1.1984 -1.2347  1.5382
21452SOL     OW66094   4.707   1.681   7.487  0.1600  0.3082  0.5547
21452SOL    HW166095   4.707   1.686   7.391  2.3141  0.7641  0.5494
21452SOL    HW266096   4.623   1.638   7.508 -0.5552  0.6004 -1.4864
21453SOL     OW66097   6.991   8.270   7.734  0.4227 -0.0833 -0.3156
21453SOL    HW166098   6.952   8.193   7.692 -1.9054  1.9678 -2.2227
21453SOL    HW266099   7.082   8.270   7.704  1.0857 -3.0241  1.2928
21454SOL     OW66100   9.246   0.400   6.542  1.2152  0.0808 -0.4730
21454SOL    HW166101   9.259   0.394   6.636  1.1640 -0.2719 -0.4867
21454SOL    HW266102   9.300   0.475   6.515 -0.4673  1.5875  0.1502
21455SOL     OW66103   3.729   3.648   3.909  0.2667  0.6104  0.3794
21455SOL    HW166104   3.778   3.676   3.987 -0.2717  0.5951  0.7295
21455SOL    HW266105   3.651   3.704   3.908 -0.5067 -0.4181  0.7370
21456SOL     OW66106   7.136   1.500   5.964  0.3233 -0.4328  0.6669
21456SOL    HW166107   7.117   1.407   5.975 -0.6292 -0.3708 -0.3250
21456SOL    HW266108   7.231   1.506   5.971  0.5194 -1.6738 -0.5676
21457SOL     OW66109   3.671   0.457   1.136 -0.1831  0.1059  0.2373
21457SOL    HW166110   3.671   0.448   1.232 -2.4809  1.7708  0.4884
21457SOL    HW266111   3.684   0.551   1.121 -0.5559 -0.0280 -1.0463
21458SOL     OW66112   4.936   0.192   2.240  0.4073  0.1272  0.5086
21458SOL    HW166113   4.926   0.286   2.229  0.5446  0.1150  0.2881
21458SOL    HW266114   4.859   0.154   2.198  0.5444  0.1211  0.2627
21459SOL     OW66115   3.791   6.380   6.736 -1.1627  0.1461  0.1467
21459SOL    HW166116   3.852   6.395   6.664 -0.0754  0.3121  1.0771
21459SOL    HW266117   3.722   6.445   6.723 -0.0162  1.4370  0.2982
21460SOL     OW66118   6.688   8.551   0.199  0.4241 -0.0194 -0.6446
21460SOL    HW166119   6.705   8.463   0.164  0.4548  0.6152 -2.3092
21460SOL    HW266120   6.651   8.535   0.286 -2.0283 -1.8158 -1.8758
21461SOL     OW66121   4.144   7.475   7.544  0.6388  0.1993 -0.5536
21461SOL    HW166122   4.141   7.409   7.475 -2.1226  0.2716 -0.6345
21461SOL    HW266123   4.173   7.428   7.622 -1.1882 -1.1560 -0.6385
21462SOL     OW66124   7.616   0.021   2.491 -0.3571 -0.6282 -0.0920
21462SOL    HW166125   7.560   0.045   2.565 -0.4356  0.7421 -0.5658
21462SOL    HW266126   7.698   0.067   2.506  0.5676 -2.3247  0.3996
21463SOL     OW66127   3.003   5.462   3.392 -0.4292 -0.4476 -0.3188
21463SOL    HW166128   2.965   5.511   3.466 -1.4548  0.4593 -1.4095
21463SOL    HW266129   3.088   5.502   3.378 -0.1578 -0.7276  0.4645
21464SOL     OW66130   4.210   3.835   5.120  0.2052  0.0246  0.4238
21464SOL    HW166131   4.124   3.839   5.078  0.9735  1.4980 -1.1273
21464SOL    HW266132   4.193   3.798   5.207 -2.2697  1.9016  0.8384
21465SOL     OW66133   8.972   1.404   0.131 -0.8796 -0.2579 -0.4495
21465SOL    HW166134   9.013   1.468   0.073  1.9717 -1.1449  0.3809
21465SOL    HW266135   8.953   1.329   0.075  0.6504 -0.6108 -0.5616
21466SOL     OW66136   0.409   8.692   2.029  0.6703 -0.3929  0.1237
21466SOL    HW166137   0.402   8.744   2.109  2.1524 -0.6517  0.4363
21466SOL    HW266138   0.337   8.723   1.974 -0.9345 -0.8228  1.8844
21467SOL     OW66139   8.488   6.113   7.175 -0.3756 -0.2336  0.1971
21467SOL    HW166140   8.523   6.159   7.252 -2.2255  3.5184 -0.9829
21467SOL    HW266141   8.395   6.103   7.193 -0.6420 -0.3107 -1.1268
21468SOL     OW66142   6.719   7.877   6.019  0.5142  0.0168  0.0247
21468SOL    HW166143   6.798   7.827   6.039  0.8174 -0.3430 -1.8599
21468SOL    HW266144   6.728   7.900   5.927 -0.7504  1.5249  0.2405
21469SOL     OW66145   6.843   6.932   8.151 -0.4985 -0.4350  0.1282
21469SOL    HW166146   6.770   6.981   8.113  0.7936  1.5595  0.0796
21469SOL    HW266147   6.802   6.857   8.194 -2.3239 -0.8965 -2.2153
21470SOL     OW66148   0.086   6.333   9.435  0.0531 -0.1738 -0.2406
21470SOL    HW166149   0.039   6.342   9.518 -0.9205 -0.2795 -0.7598
21470SOL    HW266150   0.155   6.399   9.438  0.2400 -0.4031  0.7910
21471SOL     OW66151   2.495   8.001   7.711 -0.8696  0.2628 -0.5552
21471SOL    HW166152   2.480   8.058   7.786 -2.1247 -0.9096  0.1305
21471SOL    HW266153   2.580   7.961   7.728  0.0297  1.8636 -1.0461
21472SOL     OW66154   7.398   0.116   2.633 -0.2089 -0.5797 -0.6005
21472SOL    HW166155   7.336   0.045   2.649 -1.1628  0.4515  0.4478
21472SOL    HW266156   7.370   0.186   2.691  1.3400  0.2947 -0.8467
21473SOL     OW66157   1.639   3.005   8.572  0.1145 -0.4011 -0.2970
21473SOL    HW166158   1.628   2.944   8.645  1.4443  0.3222  0.5459
21473SOL    HW266159   1.655   2.948   8.496  1.4284 -1.1469  0.4905
21474SOL     OW66160   8.822   9.217   9.436  0.0454  0.7914 -0.5584
21474SOL    HW166161   8.895   9.271   9.405  1.4380 -1.4289 -1.4693
21474SOL    HW266162   8.750   9.236   9.376  0.2881  2.0523 -0.4688
21475SOL     OW66163   5.159   8.010   8.461  0.2491 -0.3041 -0.1723
21475SOL    HW166164   5.100   7.951   8.416  0.6759  0.0610 -1.2456
21475SOL    HW266165   5.243   7.964   8.462  0.0265 -0.7179  1.1279
21476SOL     OW66166   5.561   3.683   5.771  0.4187  0.1706 -0.6417
21476SOL    HW166167   5.502   3.607   5.767 -2.2395  1.7794  2.6130
21476SOL    HW266168   5.630   3.656   5.832 -0.1300  0.0602 -0.0467
21477SOL     OW66169   1.143   0.044   6.524  0.3513 -0.0186 -0.3393
21477SOL    HW166170   1.107   0.058   6.611 -1.4791  0.7709 -1.1485
21477SOL    HW266171   1.208   0.113   6.513 -0.9971  1.3012 -0.3683
21478SOL     OW66172   9.241   2.642   9.498  0.5959 -0.5720  0.1330
21478SOL    HW166173   9.301   2.614   9.567  1.3661 -2.2386 -1.1843
21478SOL    HW266174   9.203   2.561   9.464  0.1229  0.2373 -1.3274
21479SOL     OW66175   0.598   0.444   0.909  0.2118 -0.7545 -0.4466
21479SOL    HW166176   0.588   0.537   0.931  1.5113 -0.8394  0.6261
21479SOL    HW266177   0.514   0.420   0.870 -0.6415  0.5363  0.5004
21480SOL     OW66178   1.596   8.363   4.223 -0.8053  0.3177 -0.1996
21480SOL    HW166179   1.650   8.409   4.159  1.0625 -1.4033  0.0535
21480SOL    HW266180   1.542   8.304   4.170  0.3388 -0.6999 -0.2791
21481SOL     OW66181   8.196   3.050   3.471  0.2290  0.1458 -0.7679
21481SOL    HW166182   8.200   3.123   3.533  0.4672 -1.9237  1.8327
21481SOL    HW266183   8.238   3.084   3.391  1.3499  2.4752  0.7000
21482SOL     OW66184   8.914   6.267   7.149  0.0798  0.4553 -0.5627
21482SOL    HW166185   8.847   6.199   7.138 -0.1612  0.2919  1.5246
21482SOL    HW266186   8.928   6.272   7.243  0.8781  2.5613 -0.7297
21483SOL     OW66187   8.024   4.650   5.105  0.3403 -0.3038 -0.0121
21483SOL    HW166188   7.964   4.680   5.037  0.9746  0.0522 -0.4295
21483SOL    HW266189   8.070   4.576   5.065 -1.3009 -1.9767  1.0539
21484SOL     OW66190   3.017   9.321   5.644 -1.0535  0.5566  0.1844
21484SOL    HW166191   3.075   9.388   5.609 -1.5567  0.9808  0.1369
21484SOL    HW266192   3.073   9.266   5.698 -0.9334  2.0537  1.6531
21485SOL     OW66193   1.839   4.984   4.447 -0.2716 -0.8917 -0.6855
21485SOL    HW166194   1.755   5.017   4.478 -0.3682 -2.8881  1.4819
21485SOL    HW266195   1.876   5.056   4.396 -1.6356  1.4678  1.4287
21486SOL     OW66196   3.725   1.387   2.637  0.3766 -0.1369 -0.7615
21486SOL    HW166197   3.765   1.315   2.586  1.5990 -0.2964  0.3575
21486SOL    HW266198   3.773   1.386   2.720 -2.2519 -0.5683  0.8550
21487SOL     OW66199   6.998   6.357   1.407 -0.9315 -0.4137 -0.3376
21487SOL    HW166200   7.068   6.308   1.363 -1.1590  0.1501 -1.3674
21487SOL    HW266201   6.961   6.412   1.338 -2.5557 -0.8725  0.1422
21488SOL     OW66202   5.072   0.423   3.329  0.2596 -0.4585  0.0869
21488SOL    HW166203   5.033   0.449   3.413  2.3430 -1.4181  1.4642
21488SOL    HW266204   5.165   0.409   3.350  0.1549 -4.8844 -1.3829
21489SOL     OW66205   6.641   0.273   4.110 -0.2239 -0.9214  0.3515
21489SOL    HW166206   6.643   0.202   4.046 -0.8541 -0.3234 -0.3426
21489SOL    HW266207   6.584   0.242   4.180 -2.1427 -0.3330 -0.8937
21490SOL     OW66208   0.252   9.038   2.729 -0.6617 -0.6627 -0.0606
21490SOL    HW166209   0.285   8.966   2.783 -0.3969 -0.4293  0.0904
21490SOL    HW266210   0.204   8.995   2.658  1.1276 -1.0773 -1.0765
21491SOL     OW66211   2.392   7.563   8.862  0.7180  0.0112  0.5827
21491SOL    HW166212   2.327   7.624   8.898  0.6951  1.2692 -1.4117
21491SOL    HW266213   2.428   7.609   8.786  2.4803 -1.5086  0.4258
21492SOL     OW66214   4.569   2.313   6.386 -0.4071 -0.2948 -0.1877
21492SOL    HW166215   4.633   2.243   6.369 -1.6139 -1.1867 -1.2467
21492SOL    HW266216   4.521   2.283   6.463 -0.3169 -0.1789 -0.0856
21493SOL     OW66217   4.712   3.907   7.772 -0.3115  0.2447  0.4018
21493SOL    HW166218   4.624   3.886   7.804  0.2008 -2.4202  0.2876
21493SOL    HW266219   4.765   3.916   7.852 -0.0536 -1.4671  0.4610
21494SOL     OW66220   3.916   7.473   9.152 -0.3891  0.3726  0.1091
21494SOL    HW166221   3.836   7.495   9.200  0.1300 -2.1937  2.3902
21494SOL    HW266222   3.889   7.472   9.060 -2.3308  1.9893  0.5894
21495SOL     OW66223   9.373   6.717   8.504 -0.3172  0.2177 -0.4152
21495SOL    HW166224   9.380   6.647   8.569  0.5501 -0.8679 -1.6057
21495SOL    HW266225   9.282   6.713   8.475 -1.1395  1.7249  1.7452
21496SOL     OW66226   6.040   3.728   1.882  0.1831 -0.3126  0.0257
21496SOL    HW166227   5.962   3.725   1.937  0.0653  1.6376  0.0540
21496SOL    HW266228   6.102   3.781   1.933  0.8311 -0.2423 -0.8184
21497SOL     OW66229   2.928   4.408   0.529  0.6713 -0.0223  0.5947
21497SOL    HW166230   2.876   4.474   0.484  0.8190 -0.3903 -0.1295
21497SOL    HW266231   2.942   4.444   0.617  1.0574  1.0640  0.0942
21498SOL     OW66232   5.086   2.528   4.691 -0.1807 -0.1203  0.0554
21498SOL    HW166233   5.080   2.622   4.676 -1.8042 -0.4146 -1.4614
21498SOL    HW266234   5.014   2.491   4.640  1.1062 -2.2915 -0.2970
21499SOL     OW66235   6.291   6.627   0.067 -0.6433 -0.4794 -0.1599
21499SOL    HW166236   6.213   6.641   0.122  0.5869  0.9948  1.3104
21499SOL    HW266237   6.296   6.705   0.012  0.3170 -0.0570  0.4860
21500SOL     OW66238   6.077   6.139   5.669  0.4056  0.7769 -0.5294
21500SOL    HW166239   6.105   6.047   5.665 -0.8830  0.3436 -0.1617
21500SOL    HW266240   6.001   6.138   5.726 -0.3317  1.8963 -1.4423
21501SOL     OW66241   9.195   8.084   7.908  0.0727 -0.3869  0.2304
21501SOL    HW166242   9.267   8.021   7.906 -0.8418 -1.4459  0.4377
21501SOL    HW266243   9.129   8.044   7.965 -1.6181 -0.4354 -1.6699
21502SOL     OW66244   6.353   1.612   3.702  0.3240 -0.2012  0.1887
21502SOL    HW166245   6.379   1.703   3.685  0.1427 -0.4842 -1.8944
21502SOL    HW266246   6.435   1.568   3.725  0.6596  0.2083 -0.2007
21503SOL     OW66247   7.918   7.251   3.241  0.3480  0.6559  0.0685
21503SOL    HW166248   7.840   7.306   3.246  0.8129  1.2308  1.4549
21503SOL    HW266249   7.883   7.162   3.238 -0.3801  0.8273  2.0713
21504SOL     OW66250   1.679   2.253   3.077  0.0016  0.4767  0.4731
21504SOL    HW166251   1.728   2.306   3.140  1.0860 -0.9257  0.8447
21504SOL    HW266252   1.603   2.222   3.126  0.2618  0.2922  0.7601
21505SOL     OW66253   9.071   4.383   8.743  0.2818  0.1415  0.7897
21505SOL    HW166254   9.069   4.395   8.838  1.0824  1.2859  0.6859
21505SOL    HW266255   9.160   4.409   8.717  0.1055 -0.2507 -0.2570
21506SOL     OW66256   2.091   8.189   6.179  0.4150  0.2448  0.2656
21506SOL    HW166257   2.078   8.139   6.098  0.3768 -1.7707  1.4392
21506SOL    HW266258   2.004   8.190   6.221  0.9859 -1.3458  1.6327
21507SOL     OW66259   8.783   4.323   9.189 -0.4916  0.0479  0.2095
21507SOL    HW166260   8.861   4.338   9.244 -2.0032  0.2248  2.4189
21507SOL    HW266261   8.782   4.228   9.175  0.7593  0.1562 -0.9413
21508SOL     OW66262   8.792   0.337   5.827 -0.0798 -0.0626 -0.0719
21508SOL    HW166263   8.807   0.415   5.881 -0.2607 -0.1607  0.1160
21508SOL    HW266264   8.808   0.368   5.737 -2.9660  0.9697 -0.3434
21509SOL     OW66265   5.816   7.962   9.493 -0.2158  0.3125 -0.1076
21509SOL    HW166266   5.791   7.876   9.460  0.6052 -0.3849  1.0248
21509SOL    HW266267   5.764   7.974   9.572  1.9537 -0.6085  1.5645
21510SOL     OW66268   0.531   4.536   5.315  0.3498  0.1001  0.5504
21510SOL    HW166269   0.586   4.531   5.237  2.7531  1.3318  2.0468
21510SOL    HW266270   0.456   4.590   5.288  1.2515  0.7155 -0.8213
21511SOL     OW66271   4.128   2.409   4.472  0.0737 -0.5696 -0.0382
21511SOL    HW166272   4.068   2.451   4.410 -1.8411 -0.4809  1.7794
21511SOL    HW266273   4.119   2.316   4.453 -1.2474 -0.6165  0.6748
21512SOL     OW66274   0.065   4.580   4.626  0.0519  0.2737  0.5973
21512SOL    HW166275  -0.010   4.592   4.685  0.5782  2.3384  0.9278
21512SOL    HW266276   0.138   4.621   4.672  1.4485 -1.7330  0.2908
21513SOL     OW66277   5.707   9.362   1.900  0.5787 -0.2337 -0.0907
21513SOL    HW166278   5.744   9.444   1.933  0.4330 -0.6259  1.0998
21513SOL    HW266279   5.616   9.382   1.881  0.5334 -0.1245  0.2369
21514SOL     OW66280   0.584   4.426   8.472  0.3776 -0.2641  0.3747
21514SOL    HW166281   0.649   4.361   8.447  3.5548  2.9841 -0.6091
21514SOL    HW266282   0.579   4.419   8.567  0.5765 -1.9158  0.2983
21515SOL     OW66283   9.243   3.046   8.790 -0.1569 -0.5015  0.5431
21515SOL    HW166284   9.201   2.960   8.801  1.6263 -1.4924  0.1195
21515SOL    HW266285   9.233   3.064   8.696 -0.9095 -0.0249  0.7106
21516SOL     OW66286   7.954   7.583   7.050  0.0442 -0.1554 -0.0443
21516SOL    HW166287   7.898   7.559   6.976 -1.3654 -0.2246  1.0022
21516SOL    HW266288   7.942   7.512   7.113  1.1215 -0.0300  0.3215
21517SOL     OW66289   6.571   6.067   4.626 -0.2524 -0.8286 -0.3435
21517SOL    HW166290   6.644   6.054   4.566 -1.5341 -0.0941 -2.1662
21517SOL    HW266291   6.595   6.145   4.677  0.2910 -0.6949 -0.7999
21518SOL     OW66292   6.042   5.613   8.913 -0.3361 -0.5277  0.3568
21518SOL    HW166293   5.958   5.568   8.919 -1.6101  1.5659 -0.5959
21518SOL    HW266294   6.095   5.574   8.982 -2.5938 -0.8641  2.0182
21519SOL     OW66295   1.632   6.747   3.914  0.1760  0.7891 -0.2260
21519SOL    HW166296   1.651   6.841   3.914 -0.8947  1.0186  0.9932
21519SOL    HW266297   1.639   6.722   3.822  0.9364  1.9505 -0.5149
21520SOL     OW66298   9.011   9.333   7.578  0.0237  0.3439 -0.5389
21520SOL    HW166299   8.976   9.349   7.666  0.7291 -3.8510  0.7084
21520SOL    HW266300   9.050   9.417   7.553 -2.0040  2.3246  2.2058
21521SOL     OW66301   4.437   7.420   6.105  0.2959  0.6513 -0.0322
21521SOL    HW166302   4.363   7.467   6.067 -0.7048  0.4293  1.5302
21521SOL    HW266303   4.493   7.397   6.031 -1.1493  0.9337 -1.2381
21522SOL     OW66304   1.720   9.110   2.180 -0.1584  0.6629 -0.2654
21522SOL    HW166305   1.631   9.090   2.212  0.2003 -1.6782 -0.5677
21522SOL    HW266306   1.734   9.049   2.107  1.8847  0.6208  0.1025
21523SOL     OW66307   2.793   0.054   9.278 -0.0169 -0.1273  0.0333
21523SOL    HW166308   2.880   0.016   9.294 -1.4430 -2.9448  1.8416
21523SOL    HW266309   2.795   0.138   9.323  1.2757 -0.8838  1.4785
21524SOL     OW66310   4.906   3.915   5.697 -0.0879  0.1002 -0.3469
21524SOL    HW166311   4.977   3.852   5.704 -0.9755 -0.7969  1.1504
21524SOL    HW266312   4.935   3.977   5.629  2.1122 -0.1976  0.2432
21525SOL     OW66313   1.931   4.682   1.673  0.0998 -0.2263 -0.0565
21525SOL    HW166314   1.972   4.604   1.708  1.5388  0.0441 -1.0324
21525SOL    HW266315   1.848   4.689   1.719  0.6058 -1.4988  1.0991
21526SOL     OW66316   1.497   6.744   7.886 -0.2050  0.2525 -0.4951
21526SOL    HW166317   1.490   6.826   7.936 -3.1299  0.7800 -1.5522
21526SOL    HW266318   1.560   6.764   7.817 -0.4436  1.4307 -0.3961
21527SOL     OW66319   8.224   4.084   5.190 -0.2197  0.6966 -0.1740
21527SOL    HW166320   8.280   4.162   5.195  0.6941  0.1995 -1.8541
21527SOL    HW266321   8.207   4.073   5.096  0.9308 -1.9605 -0.1586
21528SOL     OW66322   3.151   8.902   3.507 -0.1854  0.5599 -0.0813
21528SOL    HW166323   3.226   8.891   3.565  0.4731  1.8924 -0.6213
21528SOL    HW266324   3.094   8.964   3.554 -0.7598 -0.1172  0.1354
21529SOL     OW66325   4.108   4.228   3.280  0.0407  0.1680  0.0206
21529SOL    HW166326   4.027   4.242   3.231  0.1867 -1.9657 -0.9693
21529SOL    HW266327   4.177   4.255   3.219  0.1549 -0.7628 -0.2759
21530SOL     OW66328   2.338   1.806   5.130  0.3204 -0.4702 -0.3004
21530SOL    HW166329   2.420   1.757   5.135  1.6117  1.4937 -1.1346
21530SOL    HW266330   2.362   1.896   5.153 -0.9951  0.7309 -3.0855
21531SOL     OW66331   7.683   7.492   4.077 -0.1414 -0.0309  0.0783
21531SOL    HW166332   7.742   7.422   4.103 -0.6549 -0.2990  0.5455
21531SOL    HW266333   7.609   7.447   4.035  0.2283  0.3312 -1.0052
21532SOL     OW66334   9.391   9.522   8.549  0.0372  0.5151  0.0482
21532SOL    HW166335   9.368   9.600   8.600 -0.7348 -0.4532  1.2240
21532SOL    HW266336   9.372   9.547   8.458  2.1026  2.5133  0.0633
21533SOL     OW66337   6.240   8.495   8.807  0.1097  0.1309 -0.5639
21533SOL    HW166338   6.164   8.465   8.759 -0.3279  1.1731 -0.5503
21533SOL    HW266339   6.219   8.478   8.899 -0.3561  0.9158 -0.5149
21534SOL     OW66340   3.562   2.886   1.644  0.3161  0.5184  0.4721
21534SOL    HW166341   3.558   2.791   1.652  0.4046  0.5116  0.4413
21534SOL    HW266342   3.591   2.916   1.730  2.8236  0.3341 -0.2154
21535SOL     OW66343   6.977   9.503   9.190 -0.0351 -0.3698 -0.3095
21535SOL    HW166344   7.058   9.453   9.183  0.0268 -0.3573  0.2765
21535SOL    HW266345   6.966   9.518   9.284 -0.8860 -0.6556 -0.3592
21536SOL     OW66346   5.256   8.892   0.876 -0.6322 -0.1069 -0.1824
21536SOL    HW166347   5.217   8.873   0.791  0.7532  1.2232 -1.1726
21536SOL    HW266348   5.196   8.954   0.917 -0.8514 -0.0565 -0.5775
21537SOL     OW66349   5.828   1.528   6.449  0.2963  0.1540  0.3582
21537SOL    HW166350   5.797   1.443   6.418 -1.5850  0.5404  1.0338
21537SOL    HW266351   5.919   1.513   6.476  0.3518 -1.3525 -0.5895
21538SOL     OW66352   3.964   2.400   6.631 -0.1096 -0.2134  0.0259
21538SOL    HW166353   3.968   2.389   6.727  0.5403 -0.5289 -0.0293
21538SOL    HW266354   4.055   2.415   6.605 -0.6137  2.8787 -0.2306
21539SOL     OW66355   2.534   1.232   8.019  0.5925 -0.0891  0.1105
21539SOL    HW166356   2.443   1.208   8.006  0.3288  0.5683  0.6951
21539SOL    HW266357   2.584   1.154   7.995 -0.2016 -1.0191  1.4069
21540SOL     OW66358   5.032   4.692   1.169 -0.2690  0.4375  0.2280
21540SOL    HW166359   5.037   4.601   1.141 -3.4171 -0.3235  1.6488
21540SOL    HW266360   5.010   4.741   1.090  0.8570 -0.0926 -0.4327
21541SOL     OW66361   8.026   1.680   6.396  0.1333  0.1148  0.6449
21541SOL    HW166362   8.093   1.665   6.330  0.4021 -1.3612  1.2157
21541SOL    HW266363   7.962   1.611   6.381 -1.7876  2.0112 -0.4644
21542SOL     OW66364   9.338   3.108   7.518 -0.4574 -0.2019 -0.1801
21542SOL    HW166365   9.310   3.197   7.497  1.2491  0.6661  0.9518
21542SOL    HW266366   9.416   3.094   7.465  0.2950 -0.3346  0.9231
21543SOL     OW66367   7.110   6.117   1.567  0.4754  0.0848 -0.1192
21543SOL    HW166368   7.150   6.203   1.575 -0.0062  0.2239  1.1450
21543SOL    HW266369   7.173   6.065   1.517  2.0465  0.4222  1.4114
21544SOL     OW66370   9.011   2.139   4.484 -0.3273 -1.0766  0.2953
21544SOL    HW166371   9.000   2.176   4.571  2.4181  1.5486 -0.3069
21544SOL    HW266372   9.063   2.060   4.497 -0.1669 -0.8456  1.0570
21545SOL     OW66373   3.002   8.470   1.093  0.2026  0.1552  0.0713
21545SOL    HW166374   2.970   8.555   1.121  0.3268  0.5096 -0.8312
21545SOL    HW266375   2.963   8.456   1.007  1.0662 -0.1972 -0.2784
21546SOL     OW66376   5.531   5.733   1.720  0.0417  0.5872  0.1299
21546SOL    HW166377   5.569   5.817   1.745  1.1140  0.3270 -0.5580
21546SOL    HW266378   5.555   5.673   1.790  0.8037  0.4583 -0.2298
21547SOL     OW66379   7.391   3.727   8.721 -0.0111 -0.2329 -0.0420
21547SOL    HW166380   7.329   3.659   8.695 -0.4496  0.4972 -0.9707
21547SOL    HW266381   7.343   3.809   8.711  0.5900  0.2434  0.8083
21548SOL     OW66382   0.955   1.302   0.455  0.4663 -0.8172  0.1579
21548SOL    HW166383   1.009   1.363   0.406  0.3239  0.9714  2.0900
21548SOL    HW266384   1.015   1.258   0.514 -0.1126  1.5923  2.7226
21549SOL     OW66385   3.986   7.279   0.718  0.2455  0.3791 -0.2169
21549SOL    HW166386   4.044   7.227   0.774 -0.9806 -0.5983  0.1746
21549SOL    HW266387   3.925   7.321   0.778  0.5298  1.4184 -0.6238
21550SOL     OW66388   0.418   1.561   4.849 -0.1213  0.0854  0.5220
21550SOL    HW166389   0.450   1.651   4.845  1.5861 -0.5268 -0.9480
21550SOL    HW266390   0.477   1.517   4.910  0.0562 -0.3825  0.0263
21551SOL     OW66391   2.145   8.142   1.564 -0.1288  0.0326  0.2446
21551SOL    HW166392   2.149   8.167   1.471  0.3985 -0.2727  0.1867
21551SOL    HW266393   2.208   8.200   1.607  0.2238 -0.3870  0.2904
21552SOL     OW66394   8.630   9.575   5.532  0.3567 -0.1672 -0.4704
21552SOL    HW166395   8.606   9.501   5.588 -3.1332  1.2228  0.1159
21552SOL    HW266396   8.591   9.554   5.447  0.5154  0.4374 -0.6943
21553SOL     OW66397   5.106   6.273   9.357  0.2991  0.0383 -0.0175
21553SOL    HW166398   5.193   6.239   9.335 -0.4531 -0.2798 -2.8564
21553SOL    HW266399   5.110   6.366   9.333 -0.1232  0.0533 -0.0325
21554SOL     OW66400   2.668   2.273   8.468 -0.0536 -0.1058 -0.0242
21554SOL    HW166401   2.572   2.277   8.464 -0.0417 -0.3750 -0.7915
21554SOL    HW266402   2.695   2.364   8.479 -0.4351 -0.1613  1.5943
21555SOL     OW66403   6.408   4.555   2.040  0.0262 -0.3720 -0.1440
21555SOL    HW166404   6.433   4.608   2.116 -0.1535 -1.9170  1.0294
21555SOL    HW266405   6.478   4.491   2.032  0.3399  0.1164 -1.6718
21556SOL     OW66406   2.850   9.020   1.537  0.0700  0.1554  0.5422
21556SOL    HW166407   2.893   8.935   1.549 -1.4602 -0.7743 -0.2395
21556SOL    HW266408   2.800   9.010   1.456 -0.3819  1.7158  0.6032
21557SOL     OW66409   2.926   5.321   8.524  0.0233 -0.3166 -0.2823
21557SOL    HW166410   2.897   5.237   8.487 -0.8987  0.1558 -0.6743
21557SOL    HW266411   2.850   5.352   8.573  0.2956  0.3765 -0.2951
21558SOL     OW66412   9.249   8.470   1.303 -0.1190 -0.1605 -0.0883
21558SOL    HW166413   9.333   8.433   1.329  0.1885  1.2030  0.9770
21558SOL    HW266414   9.226   8.423   1.223  0.6557 -1.9867  0.6970
21559SOL     OW66415   6.690   5.333   4.155 -0.3019 -0.2902 -0.0105
21559SOL    HW166416   6.783   5.315   4.174 -0.5557 -0.7106  0.8881
21559SOL    HW266417   6.651   5.246   4.149 -1.1855 -0.1418  2.4831
21560SOL     OW66418   9.080   5.622   6.289 -0.1990  0.5456 -0.4544
21560SOL    HW166419   9.176   5.625   6.287 -0.1943  0.4755 -0.3645
21560SOL    HW266420   9.060   5.555   6.355 -0.2952 -0.3213 -1.3423
21561SOL     OW66421   2.698   5.620   6.038  0.1323  0.0634 -0.1983
21561SOL    HW166422   2.642   5.665   5.974  1.9278  1.1513 -1.0885
21561SOL    HW266423   2.647   5.544   6.065 -1.0255 -0.0043 -2.3517
21562SOL     OW66424   2.033   5.322   1.389 -0.2781 -0.5884  0.3215
21562SOL    HW166425   2.047   5.293   1.479  1.2892  1.0421  0.6775
21562SOL    HW266426   2.049   5.416   1.392  0.5794 -0.6107 -1.7878
21563SOL     OW66427   7.565   5.732   8.493  0.4505 -0.0526 -0.5176
21563SOL    HW166428   7.567   5.759   8.585 -0.8557 -0.0009 -0.4949
21563SOL    HW266429   7.597   5.642   8.494  0.0399 -0.1946  0.0403
21564SOL     OW66430   5.820   7.738   3.215  0.6944  0.4488  0.0755
21564SOL    HW166431   5.797   7.677   3.284  0.3787  1.9923  1.3937
21564SOL    HW266432   5.790   7.823   3.247  3.4929  1.7527 -0.4711
21565SOL     OW66433   5.264   7.417   9.372 -0.0450 -0.3901  0.0481
21565SOL    HW166434   5.184   7.465   9.394  0.1820  0.3710 -0.7469
21565SOL    HW266435   5.262   7.340   9.429 -0.4640  0.5115  1.2852
21566SOL     OW66436   5.721   9.394   6.001 -0.2694 -0.9195  0.5839
21566SOL    HW166437   5.798   9.353   6.040  0.1967 -0.5247  0.1001
21566SOL    HW266438   5.649   9.369   6.058  0.1743 -1.5279  0.8882
21567SOL     OW66439   7.347   2.318   6.731  0.3105  0.3741 -0.3339
21567SOL    HW166440   7.275   2.380   6.741 -0.0250  0.3174 -2.1189
21567SOL    HW266441   7.305   2.233   6.723  0.7339 -0.0243  1.2344
21568SOL     OW66442   1.168   4.411   4.107  0.1456  0.3355  0.4490
21568SOL    HW166443   1.232   4.360   4.157  0.0056 -0.4186 -0.1227
21568SOL    HW266444   1.204   4.500   4.106  1.7143 -0.2597 -0.6828
21569SOL     OW66445   3.814   2.363   2.572  0.2157  0.3723 -0.7212
21569SOL    HW166446   3.873   2.408   2.510  1.4116  0.0210  0.1321
21569SOL    HW266447   3.828   2.409   2.655 -0.4701  0.0475 -0.4209
21570SOL     OW66448   7.849   5.243   1.092 -0.7442 -0.2348  0.0970
21570SOL    HW166449   7.798   5.321   1.070  0.7075  0.5112 -0.7572
21570SOL    HW266450   7.915   5.274   1.153  0.4458 -0.5597 -0.9758
21571SOL     OW66451   6.485   0.909   4.307 -0.0665 -0.1615  0.0094
21571SOL    HW166452   6.505   0.839   4.246  0.3298 -1.6401  1.7480
21571SOL    HW266453   6.462   0.984   4.252 -0.1356 -1.5363 -1.8989
21572SOL     OW66454   3.792   9.518   0.306 -0.3798 -0.3743  0.0110
21572SOL    HW166455   3.740   9.500   0.228 -1.8727  0.8844  0.6599
21572SOL    HW266456   3.756   9.600   0.341  1.2885 -0.0629  1.1553
21573SOL     OW66457   0.779   2.693   0.899 -0.5253  0.0170 -0.1229
21573SOL    HW166458   0.741   2.751   0.965 -0.8957  1.1364 -1.2678
21573SOL    HW266459   0.706   2.673   0.840  0.4054  1.6692 -1.9805
21574SOL     OW66460   3.060   5.038   2.255  0.1404  0.3579  0.6640
21574SOL    HW166461   3.047   5.108   2.318 -1.0073  0.8313 -0.0608
21574SOL    HW266462   3.154   5.023   2.254  0.4894  2.3650  0.3454
21575SOL     OW66463   9.459   1.596   7.545 -0.5440  0.2135 -0.0030
21575SOL    HW166464   9.436   1.686   7.565  0.9475  0.4609  0.7740
21575SOL    HW266465   9.547   1.602   7.507  0.0589 -0.9775  1.1195
21576SOL     OW66466   3.318   8.161   2.590 -0.2308  0.3212 -0.0099
21576SOL    HW166467   3.239   8.110   2.572  0.6712 -0.9415 -0.5473
21576SOL    HW266468   3.371   8.103   2.644  0.4830  1.0043  0.0233
21577SOL     OW66469   9.530   4.146   5.195 -0.0631 -0.1297 -0.6438
21577SOL    HW166470   9.607   4.127   5.140  0.6713 -2.0005  0.9125
21577SOL    HW266471   9.474   4.069   5.186 -0.3620 -0.0630  0.4706
21578SOL     OW66472   2.095   0.722   0.724  0.0427  0.2553 -0.1145
21578SOL    HW166473   2.104   0.627   0.728 -1.5344  0.0621 -0.7316
21578SOL    HW266474   2.130   0.753   0.807 -0.9807 -0.9969  0.8093
21579SOL     OW66475   9.122   8.431   5.027 -0.1413  0.9632  0.2800
21579SOL    HW166476   9.156   8.463   4.943  1.1296 -0.3341  0.2707
21579SOL    HW266477   9.028   8.421   5.011 -0.0079  1.2663 -0.8240
21580SOL     OW66478   5.145   2.821   8.954  0.6054 -0.1185  0.3700
21580SOL    HW166479   5.121   2.759   9.023  1.6976 -2.3934 -1.1638
21580SOL    HW266480   5.062   2.842   8.910  0.2268 -0.5955  0.8442
21581SOL     OW66481   6.698   5.407   0.986  0.4420  0.1104  0.0121
21581SOL    HW166482   6.683   5.344   1.057 -1.5888  1.0678  0.4831
21581SOL    HW266483   6.793   5.407   0.975  0.5717 -2.5694  0.3960
21582SOL     OW66484   6.910   6.829   2.642 -0.6094 -0.2098  0.3647
21582SOL    HW166485   6.972   6.805   2.711  1.3239 -0.2344 -1.2931
21582SOL    HW266486   6.872   6.745   2.615  2.0619 -0.9343 -1.6455
21583SOL     OW66487   1.024   2.288   2.559  0.0003  0.5317  0.3906
21583SOL    HW166488   1.033   2.222   2.628 -1.3171 -0.3383 -0.2245
21583SOL    HW266489   0.940   2.332   2.579 -0.4336  0.2137 -0.6877
21584SOL     OW66490   1.696   0.466   5.690 -0.1034 -0.5667 -0.4591
21584SOL    HW166491   1.681   0.400   5.758 -1.1334 -0.9798 -1.0738
21584SOL    HW266492   1.786   0.495   5.705 -0.3246 -0.5978  1.1295
21585SOL     OW66493   5.832   4.782   3.528  0.0072  0.0305  0.0622
21585SOL    HW166494   5.906   4.722   3.511 -0.1083 -0.0234 -0.2548
21585SOL    HW266495   5.860   4.865   3.489 -0.8670 -0.4754 -1.7543
21586SOL     OW66496   2.085   6.634   2.075  0.3123 -0.3081 -0.3529
21586SOL    HW166497   2.153   6.622   2.009  0.4746 -1.0809 -0.0518
21586SOL    HW266498   2.048   6.720   2.055  1.3985  0.1530 -0.4998
21587SOL     OW66499   9.197   7.617   0.860 -0.0355 -0.4779 -0.1481
21587SOL    HW166500   9.106   7.638   0.880 -0.5076 -3.3958  1.2209
21587SOL    HW266501   9.196   7.588   0.770 -0.4773 -0.6505 -0.0889
21588SOL     OW66502   0.488   6.707   6.866 -0.7800  0.1576  0.1196
21588SOL    HW166503   0.533   6.651   6.929 -0.4717  0.6107  0.3065
21588SOL    HW266504   0.503   6.796   6.898 -2.0154  0.3057  0.3186
21589SOL     OW66505   8.360   1.510   3.821  0.2926 -0.2527 -0.1915
21589SOL    HW166506   8.447   1.542   3.796 -0.4120  0.4864 -1.7920
21589SOL    HW266507   8.309   1.590   3.836 -0.7658 -0.6017 -1.6937
21590SOL     OW66508   5.735   7.474   2.093 -0.1427  0.2187 -0.0307
21590SOL    HW166509   5.697   7.399   2.139 -1.2868 -0.1599 -1.5209
21590SOL    HW266510   5.827   7.473   2.117 -0.5250 -0.4502  1.5705
21591SOL     OW66511   8.217   3.508   8.201  0.2465 -0.2266  0.3208
21591SOL    HW166512   8.299   3.547   8.171  0.7044 -2.2779 -1.3656
21591SOL    HW266513   8.244   3.434   8.255 -0.2448 -2.6008 -2.3832
21592SOL     OW66514   3.935   8.860   7.336 -0.2249  0.3908  0.0660
21592SOL    HW166515   3.951   8.770   7.365  0.0528 -0.6765 -2.9802
21592SOL    HW266516   3.842   8.861   7.314 -0.5194  1.2796  1.2652
21593SOL     OW66517   1.734   2.224   2.067  0.7994  0.3999  0.0338
21593SOL    HW166518   1.742   2.148   2.010  1.0339  0.5554 -0.1429
21593SOL    HW266519   1.648   2.261   2.047 -0.6401 -1.4969  2.1983
21594SOL     OW66520   3.029   2.641   7.721 -0.2151  0.1143  0.1108
21594SOL    HW166521   3.043   2.721   7.670  0.3352  0.2372  0.4466
21594SOL    HW266522   2.984   2.582   7.661 -0.2781  0.5402 -0.2660
21595SOL     OW66523   2.316   1.505   1.766  0.2321 -0.1952  0.3082
21595SOL    HW166524   2.367   1.545   1.695 -1.7154  1.0302 -0.4879
21595SOL    HW266525   2.249   1.453   1.721  0.7973 -1.8709  1.3204
21596SOL     OW66526   9.164   0.305   2.035  0.3350 -0.8406  0.6029
21596SOL    HW166527   9.140   0.214   2.017 -3.3118 -0.0764  0.8267
21596SOL    HW266528   9.116   0.327   2.115 -0.6980  1.8479 -0.6284
21597SOL     OW66529   8.259   5.628   9.400 -0.4108 -0.0336 -0.1126
21597SOL    HW166530   8.241   5.535   9.407 -0.7856  0.0809  0.4820
21597SOL    HW266531   8.248   5.648   9.306  1.5358 -0.9557 -0.5872
21598SOL     OW66532   8.845   7.237   1.297  0.0178 -0.0094 -0.1547
21598SOL    HW166533   8.897   7.162   1.326 -1.3707 -0.4917  1.2135
21598SOL    HW266534   8.896   7.275   1.225  1.1834 -1.7218 -0.2907
21599SOL     OW66535   9.110   9.485   4.533 -0.2683 -0.0798 -0.7630
21599SOL    HW166536   9.193   9.438   4.537 -0.6014 -0.6193  0.0628
21599SOL    HW266537   9.067   9.450   4.455  0.2885  0.2202 -1.2084
21600SOL     OW66538   1.829   4.072   0.105  0.0937 -0.2654  0.3054
21600SOL    HW166539   1.858   4.034   0.189  1.4157 -0.9915 -0.4475
21600SOL    HW266540   1.891   4.142   0.088 -0.0303 -0.2721 -0.1774
21601SOL     OW66541   1.653   1.643   1.884 -0.1419 -0.5720  0.3913
21601SOL    HW166542   1.706   1.564   1.892 -0.4665 -0.8593 -0.2634
21601SOL    HW266543   1.668   1.673   1.795  1.9514  1.5271  1.3396
21602SOL     OW66544   4.292   7.745   5.354  0.3360 -0.0992 -0.0669
21602SOL    HW166545   4.351   7.779   5.286  0.0218  1.6746  0.4964
21602SOL    HW266546   4.321   7.787   5.435 -0.1452 -1.1327  0.6635
21603SOL     OW66547   5.089   8.398   0.357  0.0630  0.0071  0.0076
21603SOL    HW166548   5.150   8.425   0.289  0.5148  0.2232  0.4930
21603SOL    HW266549   5.008   8.445   0.336  0.6424  1.2540  0.4629
21604SOL     OW66550   1.688   1.325   3.082  0.0799  0.1500 -0.3594
21604SOL    HW166551   1.686   1.400   3.142 -0.4931  1.3804 -1.8513
21604SOL    HW266552   1.758   1.269   3.116  0.8608  1.5960  0.5323
21605SOL     OW66553   3.057   7.117   1.232  0.3258 -1.1133 -0.1849
21605SOL    HW166554   3.053   7.211   1.248  0.5546 -0.9297 -1.1135
21605SOL    HW266555   3.086   7.079   1.315  1.0348 -0.2816 -0.0414
21606SOL     OW66556   3.966   9.221   1.826 -0.3249 -0.4098 -0.1706
21606SOL    HW166557   3.976   9.198   1.918  1.1783  0.5497 -0.0706
21606SOL    HW266558   4.035   9.285   1.809 -0.7688 -0.3352 -1.8866
21607SOL     OW66559   1.114   7.657   9.353 -0.5724 -0.1443 -0.4337
21607SOL    HW166560   1.117   7.562   9.346  3.6764 -0.1750 -0.4932
21607SOL    HW266561   1.073   7.686   9.271 -0.0741 -1.8857 -1.3455
21608SOL     OW66562   9.610   1.675   0.974 -0.1415 -0.0384  0.5083
21608SOL    HW166563   9.521   1.694   1.005 -0.9119  1.0560 -2.0569
21608SOL    HW266564   9.653   1.632   1.048 -2.8023 -0.6285  1.8383
21609SOL     OW66565   2.782   2.943   1.732 -0.0574  0.3953 -0.0366
21609SOL    HW166566   2.689   2.962   1.719 -0.0507  0.4679  0.0208
21609SOL    HW266567   2.784   2.850   1.755 -0.2226  0.6520  1.0799
21610SOL     OW66568   3.526   2.423   3.180  0.2681 -0.0960 -0.0494
21610SOL    HW166569   3.584   2.472   3.122  0.5844 -1.0756 -0.5851
21610SOL    HW266570   3.442   2.420   3.133 -0.1194  0.9535  0.5338
21611SOL     OW66571   5.047   4.247   6.670  0.5367  0.2089  0.8663
21611SOL    HW166572   5.130   4.256   6.717  0.2223 -0.7085  1.6193
21611SOL    HW266573   4.980   4.254   6.738  0.0079  0.4826  0.3268
21612SOL     OW66574   3.271   9.335   8.130  0.2236 -0.1038  0.0817
21612SOL    HW166575   3.246   9.248   8.161 -0.8539  0.5450  1.1730
21612SOL    HW266576   3.337   9.364   8.193 -0.7099  0.5385  0.8004
21613SOL     OW66577   1.833   3.348   7.602 -0.2592  0.1063  0.0752
21613SOL    HW166578   1.917   3.304   7.585  0.1481 -0.1555  2.3284
21613SOL    HW266579   1.780   3.329   7.525  1.0935 -1.4071 -0.5609
21614SOL     OW66580   6.140   3.181   1.947 -0.3737  0.1358  0.3964
21614SOL    HW166581   6.112   3.245   1.881 -1.2952 -0.8851 -0.2400
21614SOL    HW266582   6.089   3.103   1.927  1.2671 -1.0543  0.6887
21615SOL     OW66583   0.147   0.210   2.313 -0.0952  0.2711  0.2871
21615SOL    HW166584   0.164   0.137   2.254  0.6667 -0.2337  1.1085
21615SOL    HW266585   0.075   0.180   2.368  1.0585 -0.3924  1.4745
21616SOL     OW66586   2.993   8.153   2.889  0.3171  0.0032  0.7010
21616SOL    HW166587   3.070   8.203   2.862  0.3332 -0.9423 -1.1270
21616SOL    HW266588   2.919   8.207   2.861  0.3357 -0.5687 -0.4945
21617SOL     OW66589   4.959   0.512   2.709  0.3893  0.1884 -0.2982
21617SOL    HW166590   4.913   0.571   2.649  1.2218 -0.3211 -1.4905
21617SOL    HW266591   5.009   0.569   2.767  1.7468  0.6991 -1.8855
21618SOL     OW66592   3.661   7.638   9.035 -0.0843  0.5047  0.1841
21618SOL    HW166593   3.710   7.720   9.026 -0.0283  0.5295  0.6679
21618SOL    HW266594   3.688   7.605   9.121 -1.1422  0.6706  0.5907
21619SOL     OW66595   1.679   7.259   7.075 -0.0140 -0.4601 -0.1830
21619SOL    HW166596   1.587   7.274   7.094 -0.0917 -0.5473 -0.4939
21619SOL    HW266597   1.719   7.346   7.079 -0.4886 -0.1131 -2.1155
21620SOL     OW66598   2.652   5.430   2.900 -0.2389 -0.0845 -0.1649
21620SOL    HW166599   2.590   5.428   2.973 -1.2659 -0.5314 -1.0124
21620SOL    HW266600   2.665   5.523   2.882 -0.2927  0.0199  0.3235
21621SOL     OW66601   7.809   8.018   6.417 -0.1502  0.5291  0.7709
21621SOL    HW166602   7.824   8.055   6.330 -1.2673  0.9169  0.7199
21621SOL    HW266603   7.740   7.952   6.403  1.4401 -1.2559  0.9438
21622SOL     OW66604   1.282   6.499   6.927  0.0983 -0.0169  0.2406
21622SOL    HW166605   1.272   6.474   6.835  1.6738  1.3340 -0.3455
21622SOL    HW266606   1.352   6.441   6.959  1.4048  1.2709 -0.1880
21623SOL     OW66607   0.543   6.783   5.636 -0.3548  0.2934  0.4863
21623SOL    HW166608   0.542   6.849   5.705  1.5466 -1.0808  1.9333
21623SOL    HW266609   0.605   6.816   5.571  0.0162  0.2881  0.8355
21624SOL     OW66610   7.660   9.012   6.955 -0.0848  0.1607 -0.4681
21624SOL    HW166611   7.736   8.976   6.910  0.2995  0.1383  0.1859
21624SOL    HW266612   7.623   9.075   6.892  2.3825  2.6449  0.3545
21625SOL     OW66613   2.166   8.582   1.578 -0.0101 -0.4283 -0.2133
21625SOL    HW166614   2.076   8.588   1.611  0.3182 -1.7798  1.0605
21625SOL    HW266615   2.211   8.656   1.618 -0.2317 -0.5773  0.3225
21626SOL     OW66616   1.631   5.579   6.225  0.0489  0.2171  0.4042
21626SOL    HW166617   1.542   5.613   6.239 -0.4753 -1.4526  1.3895
21626SOL    HW266618   1.670   5.577   6.312 -0.5925 -3.2499  0.7562
21627SOL     OW66619   8.005   3.358   3.185  0.3112 -0.5605 -0.1621
21627SOL    HW166620   8.066   3.425   3.214 -1.3987  1.5247 -1.0933
21627SOL    HW266621   7.934   3.360   3.249 -0.3290 -0.6278 -0.8537
21628SOL     OW66622   0.605   0.560   7.507  0.1751  0.3198  0.5136
21628SOL    HW166623   0.551   0.484   7.486  0.2982  0.3038  0.2515
21628SOL    HW266624   0.570   0.630   7.452 -2.0855  1.3683  3.0347
21629SOL     OW66625   4.032   1.467   0.128  0.1796  0.4478 -0.1990
21629SOL    HW166626   3.993   1.388   0.090 -0.4401 -0.7578  2.6315
21629SOL    HW266627   4.110   1.435   0.173 -0.2041  1.3691  1.1903
21630SOL     OW66628   2.511   7.999   4.134  0.0513 -0.5352 -0.4393
21630SOL    HW166629   2.594   8.013   4.178 -0.2422 -3.1800  1.2238
21630SOL    HW266630   2.533   7.995   4.041  1.3629  1.0565 -0.2434
21631SOL     OW66631   5.338   0.238   6.404 -0.1375  0.1125 -0.0306
21631SOL    HW166632   5.323   0.144   6.414  0.8168 -0.1497 -0.8582
21631SOL    HW266633   5.433   0.246   6.395  0.0925  1.4400  2.6911
21632SOL     OW66634   0.570   2.369   2.209  0.1045  0.3166  0.0666
21632SOL    HW166635   0.607   2.432   2.146 -0.3178 -0.1310 -0.6386
21632SOL    HW266636   0.609   2.395   2.293 -0.1139  1.5680 -0.1906
21633SOL     OW66637   8.769   3.789   9.540 -0.4339 -0.2465 -0.5711
21633SOL    HW166638   8.838   3.723   9.548  1.5947  1.8246  0.0332
21633SOL    HW266639   8.735   3.798   9.629  0.5905  0.8087 -0.2704
21634SOL     OW66640   2.382   9.455   8.656 -0.8156  0.3896  0.5937
21634SOL    HW166641   2.454   9.443   8.718  0.6823 -1.3296 -1.3152
21634SOL    HW266642   2.313   9.397   8.689  0.6159 -1.8820 -0.1881
21635SOL     OW66643   7.375   9.272   2.697 -0.3028 -0.4648  0.4809
21635SOL    HW166644   7.374   9.176   2.693 -0.0879 -0.4647  0.3907
21635SOL    HW266645   7.452   9.297   2.646 -1.3509 -0.1715 -1.0320
21636SOL     OW66646   8.382   8.692   3.577 -0.5906 -0.0205  0.1472
21636SOL    HW166647   8.455   8.753   3.567 -1.3807  0.8534 -0.4935
21636SOL    HW266648   8.423   8.607   3.592  0.5279  0.6937  1.2258
21637SOL     OW66649   6.482   7.167   3.085  0.1112  0.4185  0.1480
21637SOL    HW166650   6.554   7.193   3.027  0.2876  0.2053  0.2689
21637SOL    HW266651   6.519   7.097   3.138 -0.5945 -0.6598 -0.7354
21638SOL     OW66652   7.831   2.037   3.577  0.5403 -0.6204  0.8647
21638SOL    HW166653   7.907   2.007   3.628  1.7119  0.4228 -0.1823
21638SOL    HW266654   7.770   2.071   3.642  3.0871  3.1423  1.6168
21639SOL     OW66655   1.256   0.773   2.658  0.5874 -0.4331  0.2798
21639SOL    HW166656   1.186   0.827   2.693  0.8372 -0.1613  0.3567
21639SOL    HW266657   1.214   0.723   2.588  0.3681 -0.1107  0.1781
21640SOL     OW66658   3.041   4.536   3.491 -0.6427 -0.0467 -0.3005
21640SOL    HW166659   3.053   4.630   3.503  0.8986 -0.2044 -0.4241
21640SOL    HW266660   3.129   4.503   3.474 -0.6599 -1.9217  2.5632
21641SOL     OW66661   4.069   2.544   4.901  0.3847 -0.1712 -0.6099
21641SOL    HW166662   4.106   2.483   4.838  2.4724 -0.2180  0.5499
21641SOL    HW266663   4.131   2.617   4.903 -0.2153  0.3379  0.5555
21642SOL     OW66664   4.793   9.132   0.036  0.1370 -0.5673 -0.2294
21642SOL    HW166665   4.786   9.198  -0.034  0.7057 -1.8397 -1.5352
21642SOL    HW266666   4.828   9.181   0.110 -0.8904  0.9268 -0.6649
21643SOL     OW66667   9.192   5.910   7.559 -0.3055  0.5304 -0.3693
21643SOL    HW166668   9.137   5.967   7.613 -0.4986 -1.1470  1.2993
21643SOL    HW266669   9.157   5.921   7.471 -0.9021  2.2910  0.0370
21644SOL     OW66670   8.479   3.849   2.710 -0.6345 -0.0030  0.6908
21644SOL    HW166671   8.442   3.761   2.714 -1.5717  0.3586  0.1144
21644SOL    HW266672   8.433   3.892   2.638  0.0030  0.8754  0.7901
21645SOL     OW66673   0.341   7.595   9.302  0.4987 -0.1951 -0.1476
21645SOL    HW166674   0.324   7.533   9.372 -1.8050  0.3469 -0.1679
21645SOL    HW266675   0.324   7.546   9.221  1.3471 -0.2878 -0.2823
21646SOL     OW66676   4.688   6.543   8.958 -0.2407 -0.6522  0.5361
21646SOL    HW166677   4.780   6.522   8.942 -0.5718 -2.5882  0.9759
21646SOL    HW266678   4.645   6.458   8.967 -2.1701  0.1968 -0.0918
21647SOL     OW66679   3.356   2.528   9.240  0.2476  0.2061 -0.3044
21647SOL    HW166680   3.401   2.444   9.248 -1.8111 -0.8155  1.3811
21647SOL    HW266681   3.263   2.505   9.240 -0.3708  2.5198  0.6090
21648SOL     OW66682   7.073   3.247   4.700 -0.3249  0.8526  0.3270
21648SOL    HW166683   7.123   3.323   4.728 -0.8343  1.0670  0.6818
21648SOL    HW266684   7.110   3.223   4.615  0.1905  1.1665  0.4587
21649SOL     OW66685   7.860   8.539   2.992 -0.0390  0.0779 -0.4822
21649SOL    HW166686   7.874   8.620   2.944  1.1027 -0.2082 -0.6542
21649SOL    HW266687   7.819   8.566   3.074 -1.5678  0.6123 -1.3962
21650SOL     OW66688   8.687   5.954   6.556  0.1297  0.1360  0.0362
21650SOL    HW166689   8.641   5.870   6.564  0.2622 -0.0544 -1.0086
21650SOL    HW266690   8.621   6.013   6.520 -0.0093  0.5354  0.9207
21651SOL     OW66691   2.491   3.200   5.138  0.5281 -0.0225  0.1959
21651SOL    HW166692   2.558   3.179   5.203  0.5608 -0.4097  0.0407
21651SOL    HW266693   2.470   3.292   5.153  0.6941 -0.0539  0.6087
21652SOL     OW66694   4.834   0.819   3.453  0.4977  0.0959  0.1064
21652SOL    HW166695   4.812   0.768   3.375  2.4418 -1.3181  0.4134
21652SOL    HW266696   4.886   0.893   3.419  0.6224 -0.0536 -0.0324
21653SOL     OW66697   2.873   6.468   7.191  0.2802 -0.0120 -0.8337
21653SOL    HW166698   2.933   6.538   7.166  2.5468 -1.7688 -0.6334
21653SOL    HW266699   2.789   6.512   7.204  1.6415  2.6939 -0.4856
21654SOL     OW66700   5.140   0.777   5.293 -0.0478  0.2763  0.0336
21654SOL    HW166701   5.094   0.757   5.374  1.3684 -0.4461  0.7020
21654SOL    HW266702   5.207   0.840   5.318  2.5386 -2.3300  0.1970
21655SOL     OW66703   2.000   1.647   0.941  0.5013  0.2594  0.5580
21655SOL    HW166704   2.052   1.704   0.999 -0.0581  0.0860  1.2517
21655SOL    HW266705   1.909   1.673   0.957 -0.0207 -2.3572  2.7269
21656SOL     OW66706   6.102   3.188   2.839  0.0271  0.2297  0.0298
21656SOL    HW166707   6.108   3.283   2.852 -2.1290  0.3403  0.4939
21656SOL    HW266708   6.009   3.170   2.831  0.4767 -1.5181 -2.8884
21657SOL     OW66709   8.184   8.865   2.573  0.5137  0.4283 -0.8801
21657SOL    HW166710   8.200   8.770   2.579  1.3375  0.5544 -0.9808
21657SOL    HW266711   8.226   8.891   2.491  0.1497  0.8625 -0.9338
21658SOL     OW66712   2.962   4.566   4.561 -0.2212  0.4276  0.1737
21658SOL    HW166713   2.941   4.512   4.637  0.5016 -1.3814 -0.8643
21658SOL    HW266714   3.039   4.617   4.589  0.0574 -0.2344  0.6411
21659SOL     OW66715   5.016   6.134   4.767  0.1160 -0.7850  0.3227
21659SOL    HW166716   5.006   6.191   4.844  1.1599 -0.5826  0.3177
21659SOL    HW266717   5.088   6.172   4.718  0.0505 -1.4429 -0.2993
21660SOL     OW66718   8.883   5.561   8.611 -0.2723 -0.4157  0.3043
21660SOL    HW166719   8.885   5.587   8.703  0.6803  0.7603 -0.0288
21660SOL    HW266720   8.971   5.578   8.579 -0.1162 -2.3253 -0.4511
21661SOL     OW66721   5.021   4.614   6.619 -0.5672  0.3413 -0.8687
21661SOL    HW166722   5.083   4.623   6.547  0.3055 -2.3135 -0.5612
21661SOL    HW266723   4.977   4.531   6.603 -0.5231 -0.2284  1.4951
21662SOL     OW66724   2.494   7.762   8.077  0.2772 -0.1051 -0.1374
21662SOL    HW166725   2.458   7.681   8.041  0.7565 -0.4892  0.2199
21662SOL    HW266726   2.544   7.801   8.005 -1.7547  1.0353 -1.0006
21663SOL     OW66727   5.019   7.216   0.374  0.6068 -0.2778 -0.3796
21663SOL    HW166728   4.927   7.238   0.361  0.7831  0.9402  0.3014
21663SOL    HW266729   5.061   7.234   0.290  0.3771  0.0042 -0.4350
21664SOL     OW66730   6.590   0.514   1.000  0.1211 -0.1273  0.9936
21664SOL    HW166731   6.505   0.484   0.966  0.1634 -0.6546  1.3537
21664SOL    HW266732   6.654   0.453   0.964  0.2447 -0.2741  1.4508
21665SOL     OW66733   9.287   2.352   1.119  0.1935  0.9350  0.0974
21665SOL    HW166734   9.285   2.345   1.023  1.9203  0.1871  0.0642
21665SOL    HW266735   9.351   2.422   1.136  0.8656  0.1943  0.6885
21666SOL     OW66736   5.784   7.726   8.562  0.1685 -0.0708  0.0086
21666SOL    HW166737   5.842   7.775   8.620  0.7373  0.1583 -0.7411
21666SOL    HW266738   5.733   7.793   8.517  0.2899 -0.2091 -0.3360
21667SOL     OW66739   9.295   1.426   4.500  0.2154 -0.5278 -0.5912
21667SOL    HW166740   9.245   1.490   4.449  0.7979  0.3044 -0.1437
21667SOL    HW266741   9.248   1.419   4.583  1.6680  1.5096  0.4955
21668SOL     OW66742   4.563   2.597   9.383 -0.2999  0.1361 -0.3637
21668SOL    HW166743   4.652   2.566   9.398 -0.4049 -0.5001 -1.0056
21668SOL    HW266744   4.528   2.612   9.471  0.9884  2.0663 -0.1216
21669SOL     OW66745   7.881   8.759   3.285  0.4785 -0.3698 -0.3589
21669SOL    HW166746   7.803   8.794   3.243 -0.8737 -2.0600  0.6413
21669SOL    HW266747   7.893   8.814   3.363  0.5293  0.1071 -0.6932
21670SOL     OW66748   0.195   1.146   7.240  0.0349  0.0134  0.2434
21670SOL    HW166749   0.168   1.061   7.205 -0.1585 -0.3509  1.2298
21670SOL    HW266750   0.274   1.126   7.291 -0.7561  0.1794  1.5739
21671SOL     OW66751   5.246   7.195   6.898  0.3138 -0.6695 -0.6362
21671SOL    HW166752   5.231   7.194   6.804  0.4924  0.0074 -0.6835
21671SOL    HW266753   5.179   7.138   6.935  0.0567 -0.6982 -1.1470
21672SOL     OW66754   1.118   8.874   7.229 -0.1144  0.6653  0.3614
21672SOL    HW166755   1.170   8.831   7.297 -1.8825 -1.4041  0.5151
21672SOL    HW266756   1.092   8.803   7.169 -1.7735  1.7776 -0.3362
21673SOL     OW66757   5.659   2.223   6.753  0.3031 -0.1367 -0.0191
21673SOL    HW166758   5.703   2.235   6.669  2.1059  0.0075  0.8968
21673SOL    HW266759   5.712   2.157   6.799  0.5752  1.2498  1.7777
21674SOL     OW66760   5.745   3.911   3.815  0.4550  0.7149 -0.4113
21674SOL    HW166761   5.774   3.981   3.874  2.1432  0.2725 -0.6541
21674SOL    HW266762   5.811   3.842   3.826 -0.3107 -0.1929 -1.3432
21675SOL     OW66763   8.240   6.242   0.129  0.1410 -0.2207 -0.0685
21675SOL    HW166764   8.329   6.215   0.108  0.3661  0.8034 -0.4825
21675SOL    HW266765   8.241   6.257   0.223 -0.3207 -2.7873  0.4292
21676SOL     OW66766   0.477   1.895   7.368 -0.6294 -0.2365  0.3406
21676SOL    HW166767   0.539   1.965   7.389  0.8882 -1.3724 -0.2032
21676SOL    HW266768   0.414   1.936   7.308 -0.4441  0.9486  0.9345
21677SOL     OW66769   7.372   1.452   8.911  0.3208  0.5743 -0.0533
21677SOL    HW166770   7.327   1.369   8.927  0.6451  0.5906  0.9959
21677SOL    HW266771   7.333   1.513   8.972 -1.0185  1.6363 -1.8852
21678SOL     OW66772   5.959   3.963   1.149  0.0263 -0.1959 -0.3551
21678SOL    HW166773   5.916   4.047   1.163 -1.7321 -0.8186 -1.6115
21678SOL    HW266774   6.039   3.967   1.201 -0.9184  1.5428  1.0420
21679SOL     OW66775   1.033   6.800   4.683  0.2680  0.1608 -0.3007
21679SOL    HW166776   1.048   6.894   4.672  0.6745  0.0473 -0.7680
21679SOL    HW266777   0.941   6.793   4.707  0.6673  0.8178  1.6259
21680SOL     OW66778   2.005   8.987   4.393 -0.3574  0.4082  0.7868
21680SOL    HW166779   1.923   9.029   4.420  0.2099  1.3816  1.0588
21680SOL    HW266780   2.064   9.060   4.376  0.1964 -0.2613 -0.2526
21681SOL     OW66781   5.286   3.586   7.659 -0.4517 -0.8163  0.8528
21681SOL    HW166782   5.321   3.615   7.743  0.7071  1.4909 -0.3410
21681SOL    HW266783   5.254   3.666   7.617  2.1839 -1.2539 -2.3357
21682SOL     OW66784   9.469   2.426   0.690 -0.3673  0.5510 -0.7968
21682SOL    HW166785   9.518   2.462   0.764 -2.3968  2.5014 -0.3023
21682SOL    HW266786   9.470   2.495   0.624  0.0222 -0.5349 -1.9823
21683SOL     OW66787   8.569   3.302   7.579 -0.3539 -0.3286  0.5952
21683SOL    HW166788   8.501   3.342   7.525 -0.8362 -0.1885  1.2889
21683SOL    HW266789   8.590   3.369   7.644 -0.6926 -0.9517  1.3642
21684SOL     OW66790   2.239   3.911   0.594  0.0106 -0.3919  0.0690
21684SOL    HW166791   2.278   3.915   0.682 -0.3828 -0.0371  0.2265
21684SOL    HW266792   2.147   3.930   0.608 -0.3397 -1.7369 -0.2348
21685SOL     OW66793   3.799   3.419   0.561  0.0162 -0.3129  0.4157
21685SOL    HW166794   3.744   3.493   0.533 -0.2914 -0.1065  1.5128
21685SOL    HW266795   3.889   3.449   0.546 -0.1055  0.2816  0.8305
21686SOL     OW66796   5.819   9.202   7.677 -0.5745  0.3840 -0.5394
21686SOL    HW166797   5.871   9.216   7.598  1.4681 -2.3195  0.2000
21686SOL    HW266798   5.874   9.235   7.749  0.1400 -2.2317  0.2200
21687SOL     OW66799   5.072   1.345   0.047  0.4048  0.4303  0.4515
21687SOL    HW166800   4.990   1.309   0.013  0.7045  0.9194 -0.8419
21687SOL    HW266801   5.134   1.337  -0.026  1.3541  0.5947  1.2238
21688SOL     OW66802   0.792   9.418   5.708  0.1569 -0.1734 -0.3451
21688SOL    HW166803   0.757   9.350   5.765  0.2383 -0.3980 -0.5615
21688SOL    HW266804   0.732   9.421   5.634 -0.4690  0.7457  0.1658
21689SOL     OW66805   1.406   8.517   3.637  0.2614  0.2753 -0.2872
21689SOL    HW166806   1.458   8.536   3.715  0.1215  1.1235 -0.3885
21689SOL    HW266807   1.340   8.587   3.634  1.0765  1.0286 -1.8794
21690SOL     OW66808   6.092   3.026   1.439  0.0995  1.1451 -0.0261
21690SOL    HW166809   6.188   3.027   1.444  0.1039  1.1470 -0.1262
21690SOL    HW266810   6.071   2.942   1.400  0.0114  0.6074  1.1199
21691SOL     OW66811   2.890   2.516   3.528 -0.2258 -0.4269 -0.3238
21691SOL    HW166812   2.876   2.469   3.446  0.3167 -0.7966 -0.2098
21691SOL    HW266813   2.869   2.607   3.507 -0.3361 -0.5602 -0.8029
21692SOL     OW66814   6.352   8.750   3.486  0.3776  0.8903 -0.2248
21692SOL    HW166815   6.264   8.715   3.498  0.5431  0.1024 -1.2086
21692SOL    HW266816   6.356   8.778   3.395  1.6764 -0.6786 -0.6964
21693SOL     OW66817   4.942   6.355   3.488 -0.2409 -0.3235  0.2350
21693SOL    HW166818   5.018   6.412   3.482 -0.6095  0.4411  2.0578
21693SOL    HW266819   4.978   6.266   3.490  0.7953  0.0619  2.6132
21694SOL     OW66820   1.694   8.171   1.602 -0.3451 -0.1803 -0.3412
21694SOL    HW166821   1.706   8.158   1.696 -2.3388 -1.3596 -0.1776
21694SOL    HW266822   1.666   8.262   1.594  0.2170  0.0422  0.1516
21695SOL     OW66823   1.212   1.318   5.463 -0.3665 -0.3583  0.2825
21695SOL    HW166824   1.175   1.406   5.456  1.2661  0.3896  0.7535
21695SOL    HW266825   1.137   1.260   5.448 -1.4333  1.0918 -0.2481
21696SOL     OW66826   9.390   5.367   3.974  0.1047 -0.3697 -0.7325
21696SOL    HW166827   9.321   5.316   4.017  0.1201  1.0495  1.1299
21696SOL    HW266828   9.405   5.441   4.034  2.9441 -0.4050 -1.2882
21697SOL     OW66829   2.191   9.016   3.381 -0.2723 -0.0283  0.3996
21697SOL    HW166830   2.167   9.064   3.302 -1.3138  0.6197  1.0926
21697SOL    HW266831   2.244   9.077   3.431  0.9144 -0.6506 -0.0518
21698SOL     OW66832   5.998   1.303   1.954 -0.3494 -0.3664  0.2724
21698SOL    HW166833   5.969   1.392   1.931 -1.0707 -0.5016  0.6226
21698SOL    HW266834   5.979   1.296   2.048  2.0376 -0.0098  0.8583
21699SOL     OW66835   5.754   8.400   0.310 -0.2686  0.4310  0.0748
21699SOL    HW166836   5.812   8.455   0.258 -1.5251  0.4243 -1.4185
21699SOL    HW266837   5.788   8.311   0.298  0.2885  0.5944  0.4363
21700SOL     OW66838   1.535   8.498   4.731  0.7456  0.2999  0.6666
21700SOL    HW166839   1.560   8.515   4.640  1.4773  0.5983  0.9097
21700SOL    HW266840   1.513   8.406   4.733 -3.0021  1.0163 -0.6279
21701SOL     OW66841   5.643   8.162   8.740  0.0100  0.4804 -0.1838
21701SOL    HW166842   5.709   8.095   8.757  0.6304  0.3836 -2.6196
21701SOL    HW266843   5.685   8.222   8.677 -1.4436  1.6889 -0.0552
21702SOL     OW66844   9.240   8.500   0.956 -0.2925 -0.1576  0.0180
21702SOL    HW166845   9.263   8.565   1.022 -1.4438 -0.3979  0.6919
21702SOL    HW266846   9.283   8.420   0.985  0.5346  0.1122 -0.4242
21703SOL     OW66847   8.230   4.720   2.308  0.4318  0.2396  0.2752
21703SOL    HW166848   8.288   4.794   2.318 -0.8747  1.1329  1.6105
21703SOL    HW266849   8.144   4.759   2.288 -0.0241 -0.9561 -0.2123
21704SOL     OW66850   4.357   8.480   9.195  0.1280 -0.2604 -0.0090
21704SOL    HW166851   4.384   8.391   9.215  0.2886 -0.6744 -1.9393
21704SOL    HW266852   4.286   8.498   9.257 -0.0403 -1.7962  0.2774
21705SOL     OW66853   3.373   7.887   0.738  0.2596  0.0608 -0.0158
21705SOL    HW166854   3.286   7.854   0.716 -0.0396  0.3092  0.7677
21705SOL    HW266855   3.360   7.980   0.754  1.0364  0.5345 -1.8349
21706SOL     OW66856   6.308   7.598   1.083  1.0858 -0.0436  0.7239
21706SOL    HW166857   6.282   7.511   1.114  0.9239  0.0487  0.8539
21706SOL    HW266858   6.365   7.582   1.008 -1.5306 -0.2736 -1.3919
21707SOL     OW66859   3.815   0.068   5.552  0.1608  0.3802  0.3191
21707SOL    HW166860   3.747   0.098   5.492  1.1909  1.9819 -0.1184
21707SOL    HW266861   3.872   0.144   5.563  0.4734 -0.1168  2.6828
21708SOL     OW66862   0.313   4.802   7.835 -0.0397 -0.0306  0.0321
21708SOL    HW166863   0.219   4.811   7.819  0.0062  0.5890  0.0791
21708SOL    HW266864   0.340   4.889   7.864  0.5143 -0.2577  0.1955
21709SOL     OW66865   1.351   3.415   7.605 -0.5785  0.0780 -0.0660
21709SOL    HW166866   1.425   3.467   7.574 -1.3779  0.5660 -1.2768
21709SOL    HW266867   1.275   3.456   7.562 -1.7311  0.4896  2.2354
21710SOL     OW66868   4.454   5.148   8.401 -0.0198 -0.0639 -0.2296
21710SOL    HW166869   4.464   5.074   8.460 -0.1672  1.4406  1.8177
21710SOL    HW266870   4.507   5.127   8.325  0.1617 -2.1122  0.4189
21711SOL     OW66871   2.495   7.145   1.316  0.1346  0.7863 -0.0833
21711SOL    HW166872   2.474   7.210   1.383 -2.5963  1.2045 -1.1901
21711SOL    HW266873   2.490   7.194   1.233 -0.4223 -0.4647 -0.8305
21712SOL     OW66874   4.121   4.665   2.033  0.3915  0.5092  0.0132
21712SOL    HW166875   4.063   4.634   2.102 -0.0689 -2.1535 -1.4364
21712SOL    HW266876   4.182   4.592   2.018  0.9364  1.2873 -1.8646
21713SOL     OW66877   8.227   3.284   3.628 -0.1159  0.6148  0.0089
21713SOL    HW166878   8.148   3.301   3.680  0.7647  2.7821  0.7469
21713SOL    HW266879   8.299   3.297   3.689  0.9440 -3.6298  0.0193
21714SOL     OW66880   6.425   8.002   4.436  0.0864  0.6124  0.3234
21714SOL    HW166881   6.400   7.916   4.403 -1.1591  1.1305 -0.1530
21714SOL    HW266882   6.492   8.033   4.375 -0.6360  0.6491 -0.4736
21715SOL     OW66883   9.333   0.731   7.205 -0.1170  0.9150  0.1588
21715SOL    HW166884   9.368   0.674   7.274  3.7353  2.0549 -0.6214
21715SOL    HW266885   9.253   0.767   7.242 -0.8932 -2.3023  1.9915
21716SOL     OW66886   7.553   2.528   3.695  0.3492  0.2043  0.2841
21716SOL    HW166887   7.603   2.515   3.614  1.2808  1.0619  0.7074
21716SOL    HW266888   7.610   2.493   3.764 -0.3443 -0.3125  0.6044
21717SOL     OW66889   9.580   9.169   7.558  0.6086  0.5678  0.1602
21717SOL    HW166890   9.524   9.142   7.631  0.3755 -0.0582 -0.2395
21717SOL    HW266891   9.596   9.262   7.573  1.5116  0.2133  1.6361
21718SOL     OW66892   9.508   5.165   2.238 -0.3728 -0.0018  0.4733
21718SOL    HW166893   9.575   5.231   2.257  0.5636 -0.6044 -0.6349
21718SOL    HW266894   9.427   5.205   2.267  0.3770  1.0063  1.2700
21719SOL     OW66895   8.617   2.328   6.762 -0.1420  0.4580  0.9784
21719SOL    HW166896   8.635   2.373   6.844 -2.0165 -0.9896  2.2784
21719SOL    HW266897   8.567   2.393   6.711  0.7759  1.2646  1.0770
21720SOL     OW66898   7.230   1.360   3.607  0.2724  0.0391  0.1048
21720SOL    HW166899   7.229   1.410   3.525 -1.9986  0.4871  0.3540
21720SOL    HW266900   7.192   1.275   3.583  1.9204 -0.7679  0.1983
21721SOL     OW66901   3.104   6.139   5.938 -0.8919 -0.3641  0.3690
21721SOL    HW166902   3.067   6.194   6.008 -0.3534 -0.7354  0.9572
21721SOL    HW266903   3.197   6.158   5.940 -0.7204 -1.2122  0.4958
21722SOL     OW66904   8.564   3.559   8.177  0.0539  0.7140 -0.7009
21722SOL    HW166905   8.615   3.566   8.096 -0.5345  3.1115 -0.9297
21722SOL    HW266906   8.538   3.467   8.181  1.7946  0.0923 -2.1649
21723SOL     OW66907   9.417   8.463   8.278 -0.5539  0.2384  0.4930
21723SOL    HW166908   9.353   8.521   8.234 -1.6214 -0.7910  0.6356
21723SOL    HW266909   9.461   8.520   8.340 -0.6309  1.2093 -0.3011
21724SOL     OW66910   3.390   0.296   0.796 -0.1968 -0.7052 -0.1006
21724SOL    HW166911   3.429   0.229   0.853 -1.1242 -2.1808 -1.1229
21724SOL    HW266912   3.376   0.371   0.854 -3.1434 -2.8502  2.3440
21725SOL     OW66913   6.590   8.971   7.210  0.1108  0.3487  0.2424
21725SOL    HW166914   6.525   9.005   7.148 -0.1631 -0.5504  0.0242
21725SOL    HW266915   6.647   8.915   7.157 -0.6627 -1.1473  0.9398
21726SOL     OW66916   1.533   8.743   8.255  0.6468 -0.1712  0.5632
21726SOL    HW166917   1.464   8.694   8.299 -0.2696  0.8978  0.3627
21726SOL    HW266918   1.614   8.701   8.284  0.2223  1.1436  4.2287
21727SOL     OW66919   0.030   6.114   3.722 -0.2440 -0.6735 -0.3437
21727SOL    HW166920   0.124   6.130   3.710 -0.4291 -0.0415 -1.1070
21727SOL    HW266921   0.024   6.058   3.799  0.7847 -1.0430 -0.5179
21728SOL     OW66922   1.809   2.807   1.720  0.2896 -0.1938 -0.1564
21728SOL    HW166923   1.860   2.841   1.794  0.2753  0.1794 -0.3188
21728SOL    HW266924   1.833   2.714   1.715 -1.2123 -0.7416  1.6033
21729SOL     OW66925   0.063   6.778   7.908  0.1025  0.2184  0.7391
21729SOL    HW166926   0.097   6.852   7.857 -1.4732  0.1903 -0.4336
21729SOL    HW266927   0.080   6.802   7.999  1.0896  1.2636  0.3133
21730SOL     OW66928   1.503   5.284   1.036  0.2836 -0.2444 -0.2256
21730SOL    HW166929   1.560   5.243   1.101  0.9563 -0.3852 -0.8947
21730SOL    HW266930   1.421   5.301   1.083  1.5772  1.9684  1.4041
21731SOL     OW66931   7.153   8.809   9.125 -0.2875 -0.6134  0.2365
21731SOL    HW166932   7.082   8.874   9.124  1.2671  1.1668  0.7149
21731SOL    HW266933   7.136   8.755   9.049 -1.8236  0.1493 -0.0097
21732SOL     OW66934   3.794   2.572   3.072 -0.7245  0.5704  0.4243
21732SOL    HW166935   3.790   2.617   3.156 -0.0253 -2.6100  2.3388
21732SOL    HW266936   3.888   2.562   3.054 -0.8674  0.0498 -0.0649
21733SOL     OW66937   4.394   5.673   4.278 -0.0090  0.6094  0.0268
21733SOL    HW166938   4.470   5.651   4.223  0.5061  0.4305  0.7925
21733SOL    HW266939   4.425   5.662   4.368 -1.2891 -0.6473  0.3554
21734SOL     OW66940   8.216   4.604   5.567  0.2643 -0.0361 -0.0644
21734SOL    HW166941   8.199   4.527   5.512  0.7329 -0.3803  0.2610
21734SOL    HW266942   8.291   4.579   5.620 -1.4902 -0.5580  2.3435
21735SOL     OW66943   0.528   3.489   5.776  0.0177 -0.3113 -0.4934
21735SOL    HW166944   0.611   3.532   5.796  0.3025 -1.3221  0.6741
21735SOL    HW266945   0.543   3.397   5.800 -1.2815 -0.5920 -0.7090
21736SOL     OW66946   5.586   5.594   3.570 -0.3971 -0.0955 -0.6492
21736SOL    HW166947   5.509   5.652   3.562 -0.8005 -0.6709 -1.0109
21736SOL    HW266948   5.549   5.507   3.582  0.1576  0.0323  3.2345
21737SOL     OW66949   5.867   3.225   9.190 -0.0640 -0.0500  0.5764
21737SOL    HW166950   5.940   3.280   9.217  1.0473 -1.5408  0.7366
21737SOL    HW266951   5.868   3.152   9.252 -0.6457 -0.9399 -0.4297
21738SOL     OW66952   8.498   0.796   0.815  0.2258 -1.0919 -0.0032
21738SOL    HW166953   8.419   0.819   0.768  1.1842 -0.6512 -1.4596
21738SOL    HW266954   8.559   0.868   0.797  2.2888 -3.1944 -2.2166
21739SOL     OW66955   5.250   8.690   1.320 -0.1379  0.0541 -0.3704
21739SOL    HW166956   5.314   8.666   1.253  0.6110 -1.3593  0.8022
21739SOL    HW266957   5.175   8.633   1.303  0.4347 -1.0112  0.5436
21740SOL     OW66958   1.754   2.478   5.154 -0.0444  0.6441 -0.2407
21740SOL    HW166959   1.694   2.549   5.179 -1.0912 -0.3140  0.0570
21740SOL    HW266960   1.840   2.520   5.150 -0.6176  1.9087  0.0210
21741SOL     OW66961   4.998   1.271   6.277 -0.1453 -0.4785  0.1758
21741SOL    HW166962   4.966   1.243   6.191  0.5400  0.0204 -0.2489
21741SOL    HW266963   5.028   1.361   6.264  1.4924 -0.9450  0.5307
21742SOL     OW66964   4.017   5.850   1.805 -0.3274 -0.1837  0.0319
21742SOL    HW166965   4.062   5.910   1.746  0.2172  1.2674  1.8566
21742SOL    HW266966   3.924   5.860   1.783 -0.1400  0.3623 -0.5326
21743SOL     OW66967   1.985   6.632   8.157 -0.3025  0.1707 -0.2233
21743SOL    HW166968   1.999   6.539   8.177  0.4760  0.6884  1.9690
21743SOL    HW266969   2.052   6.652   8.092  0.1647 -0.5822  0.0078
21744SOL     OW66970   4.530   0.116   0.466 -0.1187  0.3351  0.2904
21744SOL    HW166971   4.605   0.145   0.415 -2.3194  2.4006 -2.1073
21744SOL    HW266972   4.521   0.023   0.447  2.0386 -0.0735  1.0384
21745SOL     OW66973   5.093   6.433   9.000 -0.1702 -0.0683 -0.5760
21745SOL    HW166974   5.076   6.350   8.954 -0.0320 -1.1798  1.2783
21745SOL    HW266975   5.119   6.494   8.931 -2.3549 -0.9452 -2.2944
21746SOL     OW66976   6.185   2.262   5.414  0.1649  0.5898  0.8977
21746SOL    HW166977   6.206   2.320   5.341  0.7666  0.3690  0.8895
21746SOL    HW266978   6.175   2.321   5.489  1.8464  0.6267  1.1187
21747SOL     OW66979   9.444   7.970   7.030 -0.0846  0.1779 -0.0118
21747SOL    HW166980   9.362   8.001   7.068 -0.8279 -3.1791  1.4654
21747SOL    HW266981   9.430   7.977   6.935 -0.3965  3.3537  0.1364
21748SOL     OW66982   1.369   3.088   2.935  0.4416  0.4362 -0.1882
21748SOL    HW166983   1.422   3.094   3.014  0.3776 -0.0218 -0.1072
21748SOL    HW266984   1.428   3.050   2.870  0.2799  0.1381 -0.1605
21749SOL     OW66985   8.327   3.151   5.197 -0.2573 -0.0406 -0.3720
21749SOL    HW166986   8.323   3.095   5.119 -0.1213  0.8943 -1.0716
21749SOL    HW266987   8.257   3.118   5.253  2.0230 -3.2243  0.8802
21750SOL     OW66988   1.773   3.556   1.372 -0.1187 -0.1983 -0.5430
21750SOL    HW166989   1.783   3.506   1.291  1.5269 -0.6235 -0.1039
21750SOL    HW266990   1.786   3.492   1.441  0.1999  0.4987  0.0514
21751SOL     OW66991   4.884   3.286   5.983 -0.1081  0.0144 -0.3050
21751SOL    HW166992   4.856   3.313   6.071  0.5959  1.4943 -0.5019
21751SOL    HW266993   4.978   3.267   5.992  0.4036  1.9450 -1.0667
21752SOL     OW66994   9.248   8.947   9.549  0.1465 -0.6330  0.7569
21752SOL    HW166995   9.166   8.897   9.544 -0.2916  0.1259  0.0510
21752SOL    HW266996   9.229   9.028   9.502  0.4136  0.7874  2.9308
21753SOL     OW66997   1.121   6.138   6.104  0.1360 -0.4813 -0.4073
21753SOL    HW166998   1.091   6.228   6.105  0.7661 -0.2701 -0.1768
21753SOL    HW266999   1.184   6.134   6.033  0.1983 -0.7124 -0.3409
21754SOL     OW67000   2.350   0.766   5.630  0.0419  0.0645 -0.3240
21754SOL    HW167001   2.339   0.859   5.611  1.7578 -0.0385 -2.1664
21754SOL    HW267002   2.394   0.730   5.552  1.1267 -1.9064  1.0930
21755SOL     OW67003   6.160   3.228   7.836 -0.3358  0.0915  0.3349
21755SOL    HW167004   6.141   3.197   7.925  0.6732 -0.2428  0.4474
21755SOL    HW267005   6.250   3.200   7.820 -0.4877  0.2016 -0.7770
21756SOL     OW67006   4.064   0.595   2.147  0.2311  0.1235 -0.1222
21756SOL    HW167007   4.138   0.647   2.114 -0.0647  1.5507  1.3262
21756SOL    HW267008   4.093   0.505   2.139  2.1025  0.6417  0.2650
21757SOL     OW67009   0.168   0.234   2.701 -0.1290  0.5824 -0.1138
21757SOL    HW167010   0.148   0.211   2.611 -2.1821 -1.4004  0.7471
21757SOL    HW267011   0.250   0.187   2.721 -0.3706 -0.0469 -0.5756
21758SOL     OW67012   0.258   5.710   8.620 -0.4566  0.4386  0.0588
21758SOL    HW167013   0.236   5.651   8.548 -1.5865 -1.7755  2.0892
21758SOL    HW267014   0.349   5.735   8.604 -0.7075  0.1075 -2.1560
21759SOL     OW67015   9.069   8.032   0.651 -0.3751 -0.1492  0.0884
21759SOL    HW167016   9.017   8.047   0.730  0.8774 -0.5355  1.0080
21759SOL    HW267017   9.138   8.098   0.654 -0.1155 -0.3804 -0.5222
21760SOL     OW67018   8.387   1.623   8.805  0.3668  0.2232  0.4962
21760SOL    HW167019   8.414   1.714   8.801 -0.3801  0.4324  0.0849
21760SOL    HW267020   8.394   1.600   8.898  1.2689  0.4698  0.4983
21761SOL     OW67021   9.599   4.334   3.231 -0.4876  0.0429 -0.3984
21761SOL    HW167022   9.608   4.335   3.136 -0.6939 -0.5693 -0.4275
21761SOL    HW267023   9.672   4.279   3.261 -1.2023 -0.8707 -0.3005
21762SOL     OW67024   3.193   8.367   9.174  0.4947 -0.0467  0.0308
21762SOL    HW167025   3.251   8.308   9.125  2.2483 -1.0294  3.0667
21762SOL    HW267026   3.114   8.315   9.189  0.3999 -0.1365 -0.7203
21763SOL     OW67027   6.055   1.966   0.007  0.1003  0.0882  0.2954
21763SOL    HW167028   6.081   1.956  -0.085 -1.9796 -0.1153 -0.3130
21763SOL    HW267029   6.052   1.876   0.041  1.0498  0.1762  0.6303
21764SOL     OW67030   1.796   8.843   1.729 -0.4951  0.0772  0.1969
21764SOL    HW167031   1.776   8.749   1.725  1.9248 -0.5899  1.4709
21764SOL    HW267032   1.890   8.847   1.711 -0.6626  2.3590 -0.4081
21765SOL     OW67033   9.251   4.177   8.488 -0.0245 -0.5262 -0.3303
21765SOL    HW167034   9.189   4.149   8.556 -0.0075 -2.0166 -0.8781
21765SOL    HW267035   9.280   4.095   8.448  1.1846  0.2352 -1.0729
21766SOL     OW67036   1.763   5.386   6.068 -0.4679 -0.5723 -0.1312
21766SOL    HW167037   1.740   5.386   5.975 -1.2329 -2.0032  0.0185
21766SOL    HW267038   1.702   5.448   6.108 -0.9663 -0.8671 -0.4179
21767SOL     OW67039   7.693   9.094   2.491 -0.1917 -0.4233 -0.1927
21767SOL    HW167040   7.704   9.011   2.444  2.0078  0.1169 -0.7552
21767SOL    HW267041   7.701   9.161   2.423  0.9656  0.3121  0.6418
21768SOL     OW67042   4.715   3.524   3.240 -0.5857  0.1773 -0.4112
21768SOL    HW167043   4.794   3.535   3.188 -1.7698  0.6071 -2.2323
21768SOL    HW267044   4.688   3.614   3.261 -1.0126  0.0695 -0.4876
21769SOL     OW67045   0.378   4.219   6.763 -0.1973  0.8855  0.2118
21769SOL    HW167046   0.345   4.279   6.830  1.2127 -0.2393  1.9980
21769SOL    HW267047   0.319   4.143   6.768  0.4492  0.4131  0.8577
21770SOL     OW67048   9.137   3.547   7.296  0.5562 -0.1820  0.1216
21770SOL    HW167049   9.099   3.635   7.307  0.0361 -0.5552  1.4922
21770SOL    HW267050   9.068   3.497   7.252  0.0499 -0.4374  1.1862
21771SOL     OW67051   0.001   9.158   3.067 -0.3670  0.2123  0.2164
21771SOL    HW167052   0.024   9.139   2.976 -1.2582  0.2078 -0.0264
21771SOL    HW267053  -0.083   9.205   3.060  0.5084  1.9495  0.9334
21772SOL     OW67054   4.943   0.476   0.113 -0.1150  0.4751  0.5453
21772SOL    HW167055   4.992   0.439   0.187  0.4714  0.0117 -0.0645
21772SOL    HW267056   4.856   0.493   0.148 -0.7206 -2.3567  0.6275
21773SOL     OW67057   2.641   9.391   1.825  0.0364  0.2221  0.5943
21773SOL    HW167058   2.550   9.422   1.829  0.3585  1.2338  0.4685
21773SOL    HW267059   2.640   9.308   1.871 -1.0522 -0.0125  0.1938
21774SOL     OW67060   7.793   6.047   7.475  0.1485 -0.9144 -0.6992
21774SOL    HW167061   7.776   6.141   7.480 -0.3583 -0.8980 -2.2283
21774SOL    HW267062   7.752   6.011   7.554 -0.3292  0.0436 -0.4956
21775SOL     OW67063   9.529   8.265   3.500 -0.4715  0.2216  0.3168
21775SOL    HW167064   9.601   8.298   3.553  1.2869 -1.9448 -0.5906
21775SOL    HW267065   9.536   8.170   3.504  0.1837 -0.1472 -4.1740
21776SOL     OW67066   0.349   7.782   9.537 -0.3066 -0.9081  1.2857
21776SOL    HW167067   0.326   7.727   9.463  1.0992  0.1049  0.0316
21776SOL    HW267068   0.435   7.751   9.565  0.9354  1.0886 -0.0144
21777SOL     OW67069   5.632   2.920   4.847  0.0457 -0.1272 -0.4315
21777SOL    HW167070   5.559   2.859   4.859  0.5705 -0.5177  0.9192
21777SOL    HW267071   5.590   3.003   4.823 -0.7535 -0.6631 -0.9299
21778SOL     OW67072   2.289   2.932   6.660 -0.2860 -0.3340 -0.2901
21778SOL    HW167073   2.260   3.008   6.609  2.5480  2.1818  1.5414
21778SOL    HW267074   2.360   2.894   6.608  0.0753 -0.0648 -0.0028
21779SOL     OW67075   1.951   7.316   1.313 -0.4830 -0.3304 -0.6575
21779SOL    HW167076   1.909   7.266   1.383  0.0611 -0.4991 -0.4473
21779SOL    HW267077   1.900   7.397   1.307 -0.6721 -0.4148 -0.2189
21780SOL     OW67078   8.567   9.028   0.031  0.0712 -0.2143  0.1035
21780SOL    HW167079   8.581   9.081   0.110  0.0099 -2.3085  1.6116
21780SOL    HW267080   8.654   9.016  -0.006  0.0868  0.8810 -0.2668
21781SOL     OW67081   7.097   1.451   0.664  0.4359  0.0804  0.0707
21781SOL    HW167082   7.120   1.507   0.590  0.1606 -0.6422 -0.5678
21781SOL    HW267083   7.028   1.500   0.710 -0.9576 -0.4177 -1.3897
21782SOL     OW67084   3.651   8.577   1.043 -0.1464 -0.4879  0.4459
21782SOL    HW167085   3.736   8.561   1.084  0.5068 -0.3647 -0.7888
21782SOL    HW267086   3.655   8.528   0.961  0.3887  2.7215 -1.6279
21783SOL     OW67087   5.950   6.810   1.868  0.4902  0.0385 -0.3874
21783SOL    HW167088   6.022   6.813   1.805 -0.1587  1.5094 -1.1046
21783SOL    HW267089   5.900   6.732   1.844  0.7755  0.0683 -1.0856
21784SOL     OW67090   7.695   0.956   6.365  0.6402  0.2021 -0.7153
21784SOL    HW167091   7.637   0.971   6.290 -0.1717 -2.0927 -0.6164
21784SOL    HW267092   7.777   0.925   6.326  0.7931  0.5811 -0.7052
21785SOL     OW67093   7.611   0.495   2.771  0.2774  0.1212 -0.0056
21785SOL    HW167094   7.593   0.457   2.685  1.5615 -0.8517  0.1255
21785SOL    HW267095   7.524   0.513   2.807 -0.3202  2.1771 -2.1536
21786SOL     OW67096   0.701   6.525   0.884 -0.3443 -0.6989  0.6990
21786SOL    HW167097   0.774   6.571   0.842 -0.5309  0.1950  1.3291
21786SOL    HW267098   0.743   6.454   0.933  0.2882  0.7007  2.2736
21787SOL     OW67099   0.242   2.038   8.696 -0.2483  0.7453  0.0353
21787SOL    HW167100   0.202   2.009   8.614 -0.8399 -0.1216  0.6127
21787SOL    HW267101   0.326   1.992   8.700 -0.8081 -0.2908  0.5340
21788SOL     OW67102   7.063   3.678   8.232 -0.0627  0.6316 -0.3064
21788SOL    HW167103   7.046   3.747   8.168  3.3296  0.8858 -1.1261
21788SOL    HW267104   7.084   3.601   8.179 -1.3297 -0.3816  0.5930
21789SOL     OW67105   4.597   4.098   6.421  0.4669 -0.8053  0.0757
21789SOL    HW167106   4.592   4.035   6.349 -0.9206 -1.1883  0.4790
21789SOL    HW267107   4.511   4.140   6.422  1.6302  1.8490 -0.7994
21790SOL     OW67108   3.825   4.756   6.892 -0.4734  0.0447 -0.2451
21790SOL    HW167109   3.894   4.746   6.826 -1.0873 -0.5141 -0.8131
21790SOL    HW267110   3.750   4.711   6.855 -1.7770  2.2813 -0.5254
21791SOL     OW67111   8.584   7.625   1.993 -0.4619  0.5431 -0.4454
21791SOL    HW167112   8.576   7.691   2.061 -3.0092  2.0511 -2.0272
21791SOL    HW267113   8.622   7.671   1.919  0.1688 -0.4653 -0.7646
21792SOL     OW67114   5.186   8.397   0.620  0.0498  0.0227 -0.8060
21792SOL    HW167115   5.131   8.395   0.542 -0.3455 -1.3879 -0.5202
21792SOL    HW267116   5.248   8.468   0.604 -1.7382  1.5710 -1.2026
21793SOL     OW67117   9.542   2.206   8.508 -0.5204  0.3176  0.2284
21793SOL    HW167118   9.483   2.281   8.500 -1.2973 -0.2077  0.8821
21793SOL    HW267119   9.493   2.133   8.472 -0.8254 -0.3964  2.0131
21794SOL     OW67120   8.495   7.142   7.128  0.5813 -0.7328  0.3276
21794SOL    HW167121   8.502   7.099   7.043 -0.7746 -2.1655  0.9003
21794SOL    HW267122   8.431   7.211   7.115  2.0445  0.5526 -0.3484
21795SOL     OW67123   3.026   5.176   9.226 -0.5080 -0.5662 -0.4474
21795SOL    HW167124   3.001   5.227   9.148  1.9618  0.4321 -0.6793
21795SOL    HW267125   3.054   5.092   9.191  0.0948 -0.3074 -0.5950
21796SOL     OW67126   7.431   8.079   9.197 -0.3291  0.3321 -0.4919
21796SOL    HW167127   7.404   7.999   9.152 -1.2270  0.5496 -0.3610
21796SOL    HW267128   7.397   8.150   9.143 -1.8681  0.5941  0.7246
21797SOL     OW67129   7.168   8.386   4.302 -0.0987 -0.3362  0.0748
21797SOL    HW167130   7.137   8.398   4.392 -0.1126  0.6384 -0.0457
21797SOL    HW267131   7.221   8.464   4.285 -1.5640  0.3976 -1.3728
21798SOL     OW67132   3.092   4.505   1.109  0.4806 -0.0842  0.0286
21798SOL    HW167133   3.006   4.510   1.149  0.7348 -0.7914  0.7018
21798SOL    HW267134   3.077   4.522   1.016 -0.3549 -0.0545  0.1633
21799SOL     OW67135   4.160   4.438   0.188  0.0398 -0.0433  0.4893
21799SOL    HW167136   4.234   4.495   0.166  0.3296  0.0644  1.6620
21799SOL    HW267137   4.184   4.352   0.152  0.8624 -0.0702  1.0665
21800SOL     OW67138   8.613   4.153   5.618  0.1917 -0.4408  0.0578
21800SOL    HW167139   8.521   4.171   5.598  0.2041  2.1146  1.8010
21800SOL    HW267140   8.610   4.109   5.703  0.5794  0.8461  0.7643
21801SOL     OW67141   8.443   6.027   4.362  0.1369 -0.2135  0.1341
21801SOL    HW167142   8.417   6.114   4.394 -0.1077 -0.8697  1.8202
21801SOL    HW267143   8.363   5.975   4.368  0.5324 -0.8302  0.1236
21802SOL     OW67144   6.707   4.100   5.995  0.4839  0.2363  0.7145
21802SOL    HW167145   6.630   4.051   5.965  0.5044  0.9144 -0.5479
21802SOL    HW267146   6.760   4.110   5.916  1.6004  0.2770  1.4522
21803SOL     OW67147   9.397   4.403   5.284  0.1449 -0.6635  0.1798
21803SOL    HW167148   9.366   4.424   5.196 -0.4277  0.6787  0.6740
21803SOL    HW267149   9.425   4.312   5.279 -0.0957 -0.6716 -1.3275
21804SOL     OW67150   0.030   9.134   4.703 -0.3235  0.4048  0.5683
21804SOL    HW167151   0.097   9.178   4.651  0.2818 -2.0162 -0.8315
21804SOL    HW267152   0.053   9.154   4.794 -0.8833  3.9954  0.0820
21805SOL     OW67153   5.866   3.498   2.412  0.0567 -0.3797 -0.0535
21805SOL    HW167154   5.912   3.573   2.374 -0.1499 -0.4704 -0.4976
21805SOL    HW267155   5.774   3.525   2.414 -0.0223 -0.6271 -0.2377
21806SOL     OW67156   6.845   3.677   1.437 -0.1460 -0.7282 -0.0628
21806SOL    HW167157   6.775   3.639   1.383 -0.9160  0.9095 -0.2848
21806SOL    HW267158   6.799   3.736   1.497  1.0825  0.8290 -0.6007
21807SOL     OW67159   4.023   4.670   7.821  0.7830 -0.3040 -0.3506
21807SOL    HW167160   4.072   4.740   7.864 -0.4377  1.0699 -1.1098
21807SOL    HW267161   4.090   4.609   7.791  1.7626 -0.8101  2.4969
21808SOL     OW67162   3.469   2.546   2.777  0.0269  0.1428  0.0516
21808SOL    HW167163   3.562   2.568   2.774  0.0663 -0.0519 -0.1883
21808SOL    HW267164   3.467   2.454   2.806 -0.1475  0.5404  1.3494
21809SOL     OW67165   6.344   2.054   6.088 -0.1357 -0.3917 -0.5404
21809SOL    HW167166   6.341   2.061   5.992  0.7561  0.0882 -0.5448
21809SOL    HW267167   6.342   1.960   6.105  1.4214 -0.5728 -1.1326
21810SOL     OW67168   7.303   0.132   4.047 -0.0126 -0.3867 -0.5447
21810SOL    HW167169   7.383   0.151   4.097  0.0062  1.7391 -1.2844
21810SOL    HW267170   7.250   0.077   4.106  1.5435 -0.9838  0.3414
21811SOL     OW67171   4.637   7.759   8.261 -0.1906  0.6503 -0.0776
21811SOL    HW167172   4.721   7.768   8.306 -1.7036  0.9301  2.9186
21811SOL    HW267173   4.624   7.665   8.251  0.0799  0.5826  0.2245
21812SOL     OW67174   6.184   8.620   4.846 -0.3972 -0.3310  0.4939
21812SOL    HW167175   6.096   8.616   4.808 -1.2519 -1.1880  2.3976
21812SOL    HW267176   6.180   8.694   4.907  0.5958  0.3478 -0.2243
21813SOL     OW67177   2.420   2.533   8.203 -0.5823  0.2210 -0.1893
21813SOL    HW167178   2.397   2.589   8.128  1.2905 -1.1432 -1.9024
21813SOL    HW267179   2.373   2.451   8.186  1.1648 -0.7006 -0.8792
21814SOL     OW67180   6.882   8.556   6.469 -0.3984 -0.4048  0.3924
21814SOL    HW167181   6.964   8.592   6.436 -1.9527  1.6128 -1.5397
21814SOL    HW267182   6.880   8.466   6.436  0.4077 -0.0398 -0.7003
21815SOL     OW67183   4.223   2.951   8.646  0.0053  0.2047 -0.2670
21815SOL    HW167184   4.263   2.912   8.723 -0.9044  1.8628  1.1199
21815SOL    HW267185   4.295   2.962   8.584  0.6949 -1.4391  0.1930
21816SOL     OW67186   4.746   8.662   4.788  0.6334 -0.4267  0.1799
21816SOL    HW167187   4.774   8.731   4.848  0.6216 -0.0133 -0.2809
21816SOL    HW267188   4.660   8.690   4.756 -0.0894 -1.4320  1.1840
21817SOL     OW67189   8.423   8.405   4.980 -0.2676 -0.2117 -0.4349
21817SOL    HW167190   8.503   8.355   4.995 -0.8914 -0.9678  0.4943
21817SOL    HW267191   8.362   8.343   4.942 -0.6427  0.1760 -0.4747
21818SOL     OW67192   4.472   5.026   1.428  0.6673 -0.4141 -0.1006
21818SOL    HW167193   4.453   4.942   1.387 -2.3692  0.5212 -0.8074
21818SOL    HW267194   4.488   5.004   1.520  1.1491 -1.8583 -0.4904
21819SOL     OW67195   7.303   2.023   6.010 -0.2382 -0.8671  0.5187
21819SOL    HW167196   7.372   2.077   5.973 -0.5901 -0.7523  0.0109
21819SOL    HW267197   7.334   1.933   5.998  1.2452 -0.8081  3.1132
21820SOL     OW67198   7.838   5.400   8.653  0.0149 -0.0386  0.2801
21820SOL    HW167199   7.863   5.490   8.633 -0.1232  0.2397  1.2766
21820SOL    HW267200   7.870   5.386   8.743 -1.0588 -0.5506  0.5988
21821SOL     OW67201   5.403   9.440   4.785 -0.0375  0.6038 -0.4483
21821SOL    HW167202   5.375   9.372   4.724 -1.7711  0.4706  0.4532
21821SOL    HW267203   5.345   9.430   4.860  2.8038 -0.0659  1.8406
21822SOL     OW67204   3.941   3.868   0.370 -0.3945 -0.4632  0.0764
21822SOL    HW167205   4.004   3.940   0.369  2.0286 -2.4465 -0.9320
21822SOL    HW267206   3.889   3.883   0.450  0.8528  1.6703  0.5721
21823SOL     OW67207   0.332   7.847   7.501  0.2477 -0.1787 -0.0658
21823SOL    HW167208   0.379   7.931   7.497  0.7836 -0.5023 -0.9380
21823SOL    HW267209   0.244   7.869   7.471  0.4857  0.0135 -0.6419
21824SOL     OW67210   4.143   8.628   8.898 -0.2534 -0.8772 -0.2338
21824SOL    HW167211   4.151   8.707   8.844 -0.5260  1.0232  2.3048
21824SOL    HW267212   4.049   8.617   8.910 -0.1724 -0.6222  0.7021
21825SOL     OW67213   6.507   4.376   2.723  0.1242  0.0335 -0.3395
21825SOL    HW167214   6.528   4.466   2.746 -0.5941 -0.1168  1.0164
21825SOL    HW267215   6.561   4.323   2.783  0.9309 -0.4712 -1.4644
21826SOL     OW67216   4.509   0.863   7.608 -0.0172 -0.1493  0.3681
21826SOL    HW167217   4.469   0.914   7.679 -0.2673 -0.2410  0.2928
21826SOL    HW267218   4.593   0.907   7.591 -0.6246  0.7911 -0.3117
21827SOL     OW67219   6.414   6.479   7.016  0.0085  0.3793  0.3327
21827SOL    HW167220   6.402   6.571   6.994 -0.3800  0.6016  1.4062
21827SOL    HW267221   6.332   6.453   7.058  0.0526 -0.5083 -0.0973
21828SOL     OW67222   5.635   4.545   5.975  0.0964 -0.1354 -0.1750
21828SOL    HW167223   5.547   4.510   5.958 -1.1505  2.8900 -0.5114
21828SOL    HW267224   5.676   4.549   5.889  0.6491 -1.5602 -0.0164
21829SOL     OW67225   4.884   2.434   5.211 -0.0905  0.7505 -0.2725
21829SOL    HW167226   4.841   2.390   5.138  1.6782 -0.7780 -0.4710
21829SOL    HW267227   4.824   2.504   5.236 -1.9375 -0.3162 -1.4927
21830SOL     OW67228   6.186   2.969   5.554  0.4408  0.1108 -0.0685
21830SOL    HW167229   6.211   3.060   5.569  2.6252 -0.6132  1.1554
21830SOL    HW267230   6.185   2.959   5.459 -3.2095  2.1866 -0.4195
21831SOL     OW67231   3.640   5.963   9.488  0.0943  0.2365 -0.2389
21831SOL    HW167232   3.588   6.043   9.480  1.6129  1.2031 -0.8344
21831SOL    HW267233   3.613   5.910   9.413 -0.1978  0.6102 -0.4030
21832SOL     OW67234   1.996   6.089   8.073  0.2377 -0.5799 -0.5998
21832SOL    HW167235   1.952   6.031   8.135 -0.4224  1.1435  0.6461
21832SOL    HW267236   1.937   6.094   7.998 -0.5849 -0.1522  0.0511
21833SOL     OW67237   6.587   5.657   1.097 -0.5629 -0.2285  0.0542
21833SOL    HW167238   6.649   5.728   1.116  0.6109 -1.5192  1.2994
21833SOL    HW267239   6.643   5.583   1.074 -1.7565 -0.8937 -0.8193
21834SOL     OW67240   7.617   1.945   6.168  0.1440  0.3060 -0.5138
21834SOL    HW167241   7.667   1.928   6.089  0.8294  0.0458 -0.0384
21834SOL    HW267242   7.673   1.912   6.239 -0.0608  1.3456  0.1484
21835SOL     OW67243   8.225   1.800   7.189 -0.1976  0.2787  0.1203
21835SOL    HW167244   8.174   1.879   7.204 -1.0390 -0.4270  1.1420
21835SOL    HW267245   8.198   1.769   7.102  2.0268  2.4453 -1.4680
21836SOL     OW67246   8.942   5.494   2.562 -0.3748 -0.7297 -0.0542
21836SOL    HW167247   8.942   5.472   2.469 -1.1677  0.8048 -0.4513
21836SOL    HW267248   8.897   5.421   2.604  1.0607 -2.0300 -0.6805
21837SOL     OW67249   3.894   5.833   0.464  0.2443  0.2389 -0.0795
21837SOL    HW167250   3.940   5.875   0.391 -0.7485  1.0982 -0.2382
21837SOL    HW267251   3.941   5.751   0.479  2.9758  1.8354  0.9294
21838SOL     OW67252   2.964   6.795   4.522 -0.2816  0.4020 -0.0870
21838SOL    HW167253   3.028   6.852   4.479 -0.3728 -0.0949 -0.8981
21838SOL    HW267254   3.018   6.729   4.565 -0.1826  0.9954  0.7228
21839SOL     OW67255   8.689   5.221   0.613 -0.2073  0.5647 -0.7923
21839SOL    HW167256   8.599   5.190   0.602  0.8376 -2.7369 -1.0633
21839SOL    HW267257   8.705   5.214   0.707 -0.6846  2.8693 -0.4669
21840SOL     OW67258   8.617   2.883   7.457 -0.8236  0.0879  0.4904
21840SOL    HW167259   8.564   2.930   7.521  0.6534 -1.5609  3.0791
21840SOL    HW267260   8.554   2.827   7.411 -1.6061 -0.4718  2.1820
21841SOL     OW67261   8.475   6.686   1.476 -0.0252 -0.3698  0.8148
21841SOL    HW167262   8.466   6.633   1.555  0.2515  0.0375  1.1221
21841SOL    HW267263   8.560   6.661   1.440 -0.5685 -1.2746  0.0990
21842SOL     OW67264   0.240   4.305   8.517  0.5353 -0.2429  0.0339
21842SOL    HW167265   0.145   4.307   8.506  0.0832 -1.2013  2.8496
21842SOL    HW267266   0.273   4.367   8.452 -1.7962 -1.4556 -2.5098
21843SOL     OW67267   3.582   5.430   6.159  0.8778 -0.7088 -0.7867
21843SOL    HW167268   3.577   5.335   6.157 -0.8228 -0.6624 -0.2339
21843SOL    HW267269   3.520   5.456   6.227  1.8441  0.7748 -0.4081
21844SOL     OW67270   7.444   7.103   8.793 -0.0519 -0.4495 -0.4025
21844SOL    HW167271   7.349   7.112   8.785  0.1303  0.6271 -1.6708
21844SOL    HW267272   7.457   7.015   8.826 -1.5349 -0.2375  0.8550
21845SOL     OW67273   2.401   5.728   4.011  0.3820 -0.0743  0.2732
21845SOL    HW167274   2.458   5.701   3.939  1.3334 -1.3214  1.4136
21845SOL    HW267275   2.351   5.802   3.977  2.4939  0.9024 -0.8795
21846SOL     OW67276   3.389   7.299   8.594 -0.5875  0.4660 -0.3288
21846SOL    HW167277   3.478   7.305   8.559 -0.6329  1.2902 -0.3229
21846SOL    HW267278   3.379   7.207   8.620  0.2700  0.3753 -0.3012
21847SOL     OW67279   6.792   0.309   0.958 -0.2167  0.2113 -0.0935
21847SOL    HW167280   6.787   0.241   1.025  0.0123  1.5286  1.3286
21847SOL    HW267281   6.866   0.363   0.985  0.3031  0.4093 -1.8133
21848SOL     OW67282   5.146   3.725   5.727 -0.0572 -0.0974  0.2742
21848SOL    HW167283   5.240   3.718   5.741  0.2781  1.1022 -1.0941
21848SOL    HW267284   5.113   3.635   5.732  1.0832 -0.4780  1.1911
21849SOL     OW67285   1.342   9.523   1.011  0.4348 -0.2445  0.4130
21849SOL    HW167286   1.311   9.432   1.007  1.2433 -0.5813  1.3146
21849SOL    HW267287   1.265   9.576   0.992  0.2768 -1.1347 -1.7378
21850SOL     OW67288   9.424   7.094   4.232 -0.2739  0.3041  0.2873
21850SOL    HW167289   9.438   7.028   4.300 -0.3080  1.7532  1.7924
21850SOL    HW267290   9.509   7.138   4.224 -0.2827  0.1783 -0.6044
21851SOL     OW67291   0.726   5.803   2.707  0.5870  0.7028 -0.3109
21851SOL    HW167292   0.704   5.880   2.654 -0.9652  0.0033 -0.7496
21851SOL    HW267293   0.656   5.800   2.773  0.7674 -0.1926 -0.1546
21852SOL     OW67294   1.661   9.365   4.624  0.2901 -0.1580 -0.5406
21852SOL    HW167295   1.742   9.374   4.674  0.7615 -2.3819 -0.8057
21852SOL    HW267296   1.680   9.410   4.541  0.4383  1.2240  0.2027
21853SOL     OW67297   5.616   5.903   3.141 -0.2768  0.5763 -0.3560
21853SOL    HW167298   5.674   5.865   3.075 -0.7004  0.0967 -0.4580
21853SOL    HW267299   5.611   5.995   3.119  0.0526  0.5270 -0.6421
21854SOL     OW67300   8.771   0.313   4.406 -0.5574 -0.2979  0.0915
21854SOL    HW167301   8.734   0.227   4.386  1.0430 -1.0144  0.0378
21854SOL    HW267302   8.695   0.371   4.414 -1.5938 -1.1655 -2.3782
21855SOL     OW67303   4.467   2.193   3.895  0.3419  0.3495  0.4429
21855SOL    HW167304   4.463   2.153   3.981 -0.3202  1.5207  0.9865
21855SOL    HW267305   4.552   2.167   3.860  0.0770 -1.2280  0.8810
21856SOL     OW67306   1.093   4.689   4.843  0.2182  0.7553  0.2702
21856SOL    HW167307   1.094   4.610   4.898 -2.1679  1.2010  1.0794
21856SOL    HW267308   1.037   4.750   4.890 -1.7500  1.2705 -2.4760
21857SOL     OW67309   0.240   3.970   7.346 -0.2747  0.3721 -0.2472
21857SOL    HW167310   0.255   3.877   7.363 -0.7148  0.4853  0.9138
21857SOL    HW267311   0.327   4.007   7.331  0.0772  0.0419  0.8475
21858SOL     OW67312   8.752   4.435   0.803 -0.0095 -0.2300 -0.1909
21858SOL    HW167313   8.661   4.462   0.809 -0.2962 -1.2355  0.3635
21858SOL    HW267314   8.787   4.482   0.727 -1.2225 -0.4746 -0.9299
21859SOL     OW67315   2.372   1.054   1.461 -0.1531 -0.2191  0.0687
21859SOL    HW167316   2.336   1.017   1.380 -1.7492 -1.0899  1.1122
21859SOL    HW267317   2.439   0.991   1.488  0.1004 -0.1374 -0.3542
21860SOL     OW67318   2.960   5.696   6.167 -0.5245 -0.3634  0.2396
21860SOL    HW167319   2.875   5.654   6.151  0.0677 -2.6444  2.4854
21860SOL    HW267320   3.024   5.625   6.157  0.9197  0.8259  0.7064
21861SOL     OW67321   6.243   7.036   5.261 -0.1043 -0.1455  0.3601
21861SOL    HW167322   6.311   7.032   5.328 -0.5410 -1.2884  0.7659
21861SOL    HW267323   6.239   6.947   5.225 -0.1699  0.3520 -0.8900
21862SOL     OW67324   4.906   5.323   5.797 -0.3442  0.4759  0.4002
21862SOL    HW167325   4.897   5.242   5.847 -0.3740 -0.1221 -0.5507
21862SOL    HW267326   4.852   5.309   5.719 -1.2322  1.8414  0.7430
21863SOL     OW67327   7.077   4.389   2.437  0.0038 -0.3560 -0.3604
21863SOL    HW167328   7.141   4.456   2.462 -0.3906 -0.9230  2.4623
21863SOL    HW267329   7.121   4.306   2.456 -0.9478 -0.7891 -0.0146
21864SOL     OW67330   4.651   4.799   7.425 -0.1635  0.0630 -0.2023
21864SOL    HW167331   4.725   4.756   7.466 -0.7093 -0.6221  0.0863
21864SOL    HW267332   4.616   4.856   7.493  0.5107  0.9277 -0.5596
21865SOL     OW67333   4.475   2.503   4.497 -0.3625 -0.1930  0.2072
21865SOL    HW167334   4.542   2.518   4.564 -0.1628  2.5325 -0.5030
21865SOL    HW267335   4.394   2.533   4.538 -0.1596  1.9684 -0.8362
21866SOL     OW67336   0.960   4.913   1.465  0.0937  0.3605  0.1254
21866SOL    HW167337   0.912   4.890   1.386 -2.4670  0.3880  1.5835
21866SOL    HW267338   1.039   4.957   1.433 -0.4527 -0.3418 -2.3974
21867SOL     OW67339   4.285   3.654   1.566  0.1970 -0.3879  0.2514
21867SOL    HW167340   4.216   3.682   1.505 -1.8009 -0.3953  2.3983
21867SOL    HW267341   4.268   3.562   1.582  0.7834 -0.4221  0.7235
21868SOL     OW67342   1.447   6.985   5.904 -0.7366 -0.0432 -0.5704
21868SOL    HW167343   1.496   6.912   5.943 -0.6720  0.5107  0.4223
21868SOL    HW267344   1.511   7.028   5.847  0.2018  1.0574  1.2002
21869SOL     OW67345   7.214   8.561   1.629 -0.3416 -0.3899 -0.0951
21869SOL    HW167346   7.150   8.509   1.580 -1.3272  0.0243  0.7059
21869SOL    HW267347   7.252   8.501   1.692 -0.3810 -0.4958 -0.1730
21870SOL     OW67348   2.352   0.612   0.324 -0.0810 -0.1166  0.0773
21870SOL    HW167349   2.330   0.675   0.393  0.2528  0.6564 -0.5110
21870SOL    HW267350   2.447   0.618   0.316 -0.1107 -0.2489 -0.4007
21871SOL     OW67351   2.524   9.441   8.919  0.0121  0.7360  0.6817
21871SOL    HW167352   2.561   9.357   8.943  0.9074  0.6676 -0.7913
21871SOL    HW267353   2.457   9.458   8.985  1.4870  0.0399  2.4302
21872SOL     OW67354   3.014   4.236   2.225  1.3022  0.2179 -0.1546
21872SOL    HW167355   3.104   4.269   2.234  0.7361  2.3927 -1.5875
21872SOL    HW267356   3.003   4.222   2.131  0.5912 -1.5423  0.1558
21873SOL     OW67357   1.324   7.278   0.532  0.0129  0.3352 -0.3652
21873SOL    HW167358   1.279   7.297   0.450  0.9187  2.4221 -0.4413
21873SOL    HW267359   1.253   7.260   0.594 -1.0249  3.0943 -0.5825
21874SOL     OW67360   9.014   9.091   2.549  0.3018 -0.2026  0.7708
21874SOL    HW167361   8.969   9.007   2.546  0.9783 -0.5513  0.1867
21874SOL    HW267362   9.099   9.075   2.509  0.7744  0.5572  1.4219
21875SOL     OW67363   8.761   0.588   4.473 -0.5342 -0.4493 -0.3189
21875SOL    HW167364   8.853   0.603   4.453 -0.1986 -0.1046  1.2963
21875SOL    HW267365   8.718   0.582   4.388  1.0543 -1.1543 -1.1123
21876SOL     OW67366   5.520   3.119   3.643 -0.4649  0.5463  0.1953
21876SOL    HW167367   5.443   3.172   3.620 -0.9232  0.0253  0.4984
21876SOL    HW267368   5.583   3.182   3.678 -1.3341  0.8057  1.3799
21877SOL     OW67369   2.787   9.011   9.132  0.0339  0.0330 -0.1786
21877SOL    HW167370   2.804   8.946   9.064  0.9007 -1.5332  1.4313
21877SOL    HW267371   2.748   8.961   9.204 -1.0021  1.6444  0.4464
21878SOL     OW67372   5.548   3.225   5.412  0.2673  0.0433 -0.0193
21878SOL    HW167373   5.485   3.255   5.346  0.5069 -2.8418 -1.7130
21878SOL    HW267374   5.631   3.264   5.384  0.0578  0.1756 -0.4759
21879SOL     OW67375   7.598   2.121   9.499 -0.0883 -0.3905  0.1230
21879SOL    HW167376   7.561   2.154   9.417 -0.5858 -1.4254 -0.0709
21879SOL    HW267377   7.540   2.156   9.567  2.3792  3.6708  0.4677
21880SOL     OW67378   9.123   5.927   4.405 -0.0171  0.0968  0.0832
21880SOL    HW167379   9.086   5.839   4.412  1.4759 -0.6463 -0.7533
21880SOL    HW267380   9.089   5.960   4.322  0.3183 -0.1620 -0.1629
21881SOL     OW67381   4.498   1.368   0.568  0.3928  0.0710  0.3934
21881SOL    HW167382   4.567   1.401   0.511  0.2370  0.7102  0.5655
21881SOL    HW267383   4.488   1.277   0.543  0.5259  0.2656 -0.4006
21882SOL     OW67384   8.069   8.739   9.228 -0.0975  0.1513 -0.9380
21882SOL    HW167385   8.161   8.753   9.206 -0.0332  1.4793  0.0267
21882SOL    HW267386   8.070   8.684   9.306 -0.1872 -0.9343 -1.6792
21883SOL     OW67387   3.343   1.388   2.350 -0.1035  0.4926 -0.6262
21883SOL    HW167388   3.328   1.372   2.444  1.5279 -0.1368 -0.4389
21883SOL    HW267389   3.255   1.401   2.314 -1.2157 -3.0484  0.3228
21884SOL     OW67390   5.313   2.479   1.103 -0.1865  0.0779 -0.6898
21884SOL    HW167391   5.293   2.572   1.119  0.0315 -0.0766  0.5533
21884SOL    HW267392   5.237   2.433   1.139 -0.2013 -0.2440 -1.1298
21885SOL     OW67393   5.227   6.153   6.812 -0.2223  0.2499 -0.1309
21885SOL    HW167394   5.317   6.181   6.823 -0.3571  0.4438  0.5323
21885SOL    HW267395   5.175   6.222   6.854 -0.6355 -0.2255  0.1535
21886SOL     OW67396   9.387   9.196   9.255 -0.4304 -0.2084  0.2329
21886SOL    HW167397   9.449   9.124   9.254  1.2234  1.1532 -0.6604
21886SOL    HW267398   9.383   9.227   9.165 -2.0901  0.0357  0.3499
21887SOL     OW67399   1.023   4.306   1.400 -0.1161  0.8227  0.3640
21887SOL    HW167400   1.118   4.312   1.390 -0.1171 -0.3134 -0.6276
21887SOL    HW267401   1.011   4.284   1.493  0.6055  0.7202  0.4446
21888SOL     OW67402   1.077   3.380   8.709  0.1229 -0.0562 -0.2442
21888SOL    HW167403   1.004   3.419   8.758  0.3590 -1.3543  1.2120
21888SOL    HW267404   1.036   3.314   8.653  0.0560 -0.0044 -0.2563
21889SOL     OW67405   5.749   3.917   6.248 -0.1041 -0.0625  0.9053
21889SOL    HW167406   5.708   3.838   6.284 -0.0925 -0.0843  0.8701
21889SOL    HW267407   5.842   3.907   6.268  0.1442 -0.8311 -0.5417
21890SOL     OW67408   4.465   9.268   5.693 -0.1645 -0.5879  0.1294
21890SOL    HW167409   4.428   9.180   5.697  1.1743 -1.2218 -0.6553
21890SOL    HW267410   4.469   9.288   5.599  0.0949  0.0702  0.2737
21891SOL     OW67411   0.447   8.693   0.093  0.4973 -0.7072 -0.5731
21891SOL    HW167412   0.377   8.629   0.105 -0.4668  0.4312  0.0679
21891SOL    HW267413   0.405   8.778   0.107  1.4542  0.1858 -2.6436
21892SOL     OW67414   8.621   8.980   0.968  0.4510  0.2654  0.3452
21892SOL    HW167415   8.656   8.917   0.905 -0.3663 -1.6098  1.6890
21892SOL    HW267416   8.694   9.041   0.984  1.6552 -0.9895 -0.1598
21893SOL     OW67417   7.703   8.147   4.017  0.0201  0.3313  0.4964
21893SOL    HW167418   7.762   8.183   4.084 -0.6193  1.3067  0.5532
21893SOL    HW267419   7.757   8.142   3.939  0.6360 -0.3517  0.9520
21894SOL     OW67420   1.333   2.864   2.331 -0.1373 -0.3510 -0.1685
21894SOL    HW167421   1.263   2.843   2.392  0.3218  0.1877  0.5587
21894SOL    HW267422   1.397   2.793   2.342 -0.8966 -1.2850 -1.4111
21895SOL     OW67423   8.565   6.488   0.711 -0.2300 -0.3488  0.5084
21895SOL    HW167424   8.603   6.473   0.798 -0.0641  0.4620  0.5818
21895SOL    HW267425   8.481   6.529   0.729 -1.8027 -3.2799  0.4015
21896SOL     OW67426   1.782   1.767   8.891  0.1928  0.2992  0.3665
21896SOL    HW167427   1.787   1.844   8.948  0.3082  1.5595 -1.2667
21896SOL    HW267428   1.761   1.694   8.950  0.6632  1.4660  2.0462
21897SOL     OW67429   7.845   3.770   0.715  0.6679 -0.2588  0.6561
21897SOL    HW167430   7.841   3.720   0.634  0.5178 -0.8591  1.0251
21897SOL    HW267431   7.939   3.778   0.733  0.6844 -0.8478  0.8554
21898SOL     OW67432   0.913   0.024   0.796 -0.2323  0.7314 -0.1609
21898SOL    HW167433   0.855   0.093   0.829 -1.2307  0.2080 -0.7598
21898SOL    HW267434   0.959  -0.008   0.873 -1.1322  0.8166  0.4263
21899SOL     OW67435   1.756   5.656   8.678  0.0905 -0.4835 -0.8127
21899SOL    HW167436   1.819   5.595   8.716 -1.2503 -2.9003 -2.2512
21899SOL    HW267437   1.737   5.718   8.749  2.7026 -0.7330  0.1952
21900SOL     OW67438   8.102   3.962   9.198 -0.3595  0.1467 -0.5511
21900SOL    HW167439   8.156   3.911   9.260  1.2599 -0.3592 -2.2697
21900SOL    HW267440   8.156   4.039   9.178 -0.7060  0.1389 -1.5515
21901SOL     OW67441   7.952   8.351   4.912  0.1807  0.4052 -0.7792
21901SOL    HW167442   7.887   8.400   4.962  0.0965 -0.2602 -0.2110
21901SOL    HW267443   7.939   8.260   4.940  0.3453  0.0666 -1.7884
21902SOL     OW67444   4.050   2.851   1.783 -0.1621 -0.0164 -0.0398
21902SOL    HW167445   3.969   2.814   1.749 -0.0296  1.0735 -1.6458
21902SOL    HW267446   4.055   2.939   1.744  2.8797 -0.8568 -1.8627
21903SOL     OW67447   4.059   7.429   6.019  0.7165 -0.2980 -0.1907
21903SOL    HW167448   4.051   7.397   5.929  3.7179 -1.4895 -0.1639
21903SOL    HW267449   4.140   7.480   6.019  1.4318 -1.2969  2.0208
21904SOL     OW67450   3.271   5.633   2.043  0.2669  0.2701 -0.7418
21904SOL    HW167451   3.293   5.625   1.950 -0.3600  0.3594 -0.8985
21904SOL    HW267452   3.243   5.546   2.068  1.0132  0.0953 -0.4768
21905SOL     OW67453   7.686   0.008   4.758 -0.4458 -0.2665 -0.5245
21905SOL    HW167454   7.757  -0.053   4.775  0.0646 -1.0911 -4.5441
21905SOL    HW267455   7.726   0.095   4.763  0.8788 -0.7036 -2.3797
21906SOL     OW67456   5.756   0.923   9.241 -1.0609  0.6321  0.4093
21906SOL    HW167457   5.775   0.829   9.245  0.1044  0.8414  0.3308
21906SOL    HW267458   5.670   0.932   9.281 -1.3925 -0.5249 -0.0062
21907SOL     OW67459   1.273   0.858   8.499 -0.8785  0.1449 -0.2246
21907SOL    HW167460   1.312   0.923   8.441  0.1137 -1.5715 -1.5805
21907SOL    HW267461   1.341   0.841   8.565 -0.6487 -0.3597 -0.5811
21908SOL     OW67462   1.401   4.417   8.064  0.0423  0.2593 -0.1026
21908SOL    HW167463   1.496   4.414   8.055 -0.0341  1.2458 -1.6287
21908SOL    HW267464   1.379   4.341   8.118  1.5836 -0.7490 -0.8343
21909SOL     OW67465   7.400   3.720   7.938  0.1535 -0.4903  0.4116
21909SOL    HW167466   7.376   3.786   8.004  0.7429  0.2630 -0.1103
21909SOL    HW267467   7.491   3.699   7.958 -0.3149 -1.9301  1.2043
21910SOL     OW67468   3.430   1.630   6.156  0.3258 -0.4353  0.5468
21910SOL    HW167469   3.348   1.589   6.130  0.1863 -0.6251  1.2517
21910SOL    HW267470   3.437   1.611   6.250  0.1741  1.2998  0.9322
21911SOL     OW67471   6.235   5.184   5.694 -0.5565  0.0831 -0.3537
21911SOL    HW167472   6.189   5.101   5.701 -1.2933  0.4476 -0.7344
21911SOL    HW267473   6.177   5.240   5.643  0.4957  0.4363 -1.2084
21912SOL     OW67474   8.497   8.565   7.581  0.1948  0.0623 -0.2613
21912SOL    HW167475   8.574   8.599   7.626  0.8784 -0.2359 -1.1770
21912SOL    HW267476   8.486   8.622   7.506 -0.5774  0.1890 -0.0607
21913SOL     OW67477   9.445   2.128   9.359  0.7612  0.0624  0.2470
21913SOL    HW167478   9.406   2.098   9.442 -0.0114 -0.8443 -0.4212
21913SOL    HW267479   9.426   2.058   9.297  0.5798  1.0985 -0.9120
21914SOL     OW67480   4.761   6.758   0.454 -0.2789 -0.6027 -0.6821
21914SOL    HW167481   4.814   6.801   0.387  0.8585 -0.3885  0.3213
21914SOL    HW267482   4.686   6.816   0.467  0.6577  0.5137 -0.1615
21915SOL     OW67483   6.076   4.951   5.731 -0.0618  0.3884  0.9383
21915SOL    HW167484   5.987   4.969   5.762 -1.3656  0.0643 -2.1450
21915SOL    HW267485   6.094   4.862   5.760 -1.0695  0.1863  0.9865
21916SOL     OW67486   5.064   4.901   3.835 -0.2595  0.1114  0.4345
21916SOL    HW167487   5.032   4.837   3.900 -0.4080  0.0862  0.3365
21916SOL    HW267488   4.999   4.899   3.765 -0.0259  0.0360  0.2177
21917SOL     OW67489   0.637   4.539   0.097  0.1276 -0.0077  0.3174
21917SOL    HW167490   0.619   4.539   0.003  1.1372 -2.4295  0.0399
21917SOL    HW267491   0.720   4.586   0.105  0.4361 -0.4733 -0.1079
21918SOL     OW67492   0.650   0.806   4.576  0.1299 -0.4739 -0.0311
21918SOL    HW167493   0.653   0.751   4.498  0.4545  1.4573 -1.4626
21918SOL    HW267494   0.715   0.875   4.559 -0.1340  0.2668  1.7298
21919SOL     OW67495   0.736   2.948   0.086 -0.9532  0.1368 -0.3827
21919SOL    HW167496   0.690   2.869   0.116  0.5202  0.3460  2.8392
21919SOL    HW267497   0.701   3.018   0.140 -0.8556  1.3645 -1.8604
21920SOL     OW67498   2.398   0.309   1.997  0.1473  0.6966  0.2500
21920SOL    HW167499   2.308   0.312   2.027 -0.3564  3.1881 -1.2179
21920SOL    HW267500   2.393   0.330   1.904  2.2700  1.4949  0.2555
21921SOL     OW67501   6.282   7.515   4.294 -0.4530  0.0463 -0.1434
21921SOL    HW167502   6.217   7.456   4.256 -1.4622  0.3767  1.0049
21921SOL    HW267503   6.272   7.503   4.389  0.0473  1.3020  0.0817
21922SOL     OW67504   2.236   4.354   6.655  0.4718 -0.2364  0.1172
21922SOL    HW167505   2.275   4.425   6.706 -0.2685 -0.0438  0.4329
21922SOL    HW267506   2.168   4.319   6.712 -0.6386  0.2318 -0.8756
21923SOL     OW67507   1.842   2.343   3.255 -0.4448 -0.2810  0.8120
21923SOL    HW167508   1.905   2.413   3.274 -3.5298  2.4238  2.1123
21923SOL    HW267509   1.800   2.325   3.339 -1.5380 -1.8169 -0.0106
21924SOL     OW67510   8.446   8.448   4.370  0.1559  0.9487  0.5473
21924SOL    HW167511   8.519   8.390   4.348  0.3923  1.9059 -1.3996
21924SOL    HW267512   8.394   8.452   4.290 -1.8625  0.6072  1.7623
21925SOL     OW67513   3.543   9.392   8.763 -0.2530  0.1891 -0.0352
21925SOL    HW167514   3.554   9.305   8.725 -1.9458  0.1799 -0.5771
21925SOL    HW267515   3.449   9.402   8.772 -0.1630  2.4232 -1.0266
21926SOL     OW67516   3.796   7.651   8.092  0.2134 -0.7888  0.0218
21926SOL    HW167517   3.878   7.697   8.075 -0.6485  0.7346 -0.2005
21926SOL    HW267518   3.760   7.635   8.005  0.1526 -1.2698  0.1295
21927SOL     OW67519   2.487   4.357   2.862  0.0411 -0.2394  0.7163
21927SOL    HW167520   2.476   4.450   2.880 -3.5394 -0.8980  2.7573
21927SOL    HW267521   2.402   4.328   2.830  0.5672 -3.1087  1.6589
21928SOL     OW67522   4.430   9.107   3.932 -0.2971 -0.2775 -0.1669
21928SOL    HW167523   4.341   9.132   3.955  0.4246  1.7246  0.6905
21928SOL    HW267524   4.485   9.172   3.977  1.4407  1.3540 -4.1971
21929SOL     OW67525   7.898   7.253   2.162 -0.2879  0.4942  0.0456
21929SOL    HW167526   7.967   7.284   2.104  0.3882 -0.2686  0.4246
21929SOL    HW267527   7.826   7.314   2.148  1.4551  3.1793  1.8263
21930SOL     OW67528   3.390   3.356   0.049  0.8112  0.6544  0.2015
21930SOL    HW167529   3.314   3.301   0.031  1.5774 -0.6291  0.7401
21930SOL    HW267530   3.438   3.357  -0.033 -0.1120  2.0322 -0.3443
21931SOL     OW67531   7.899   8.324   6.062  0.3672  0.3460  0.0656
21931SOL    HW167532   7.946   8.302   6.143 -0.4855  0.4261  0.6004
21931SOL    HW267533   7.808   8.303   6.082  0.2641 -0.5265 -1.2113
21932SOL     OW67534   8.648   0.017   8.750 -0.1933 -0.2838 -0.9501
21932SOL    HW167535   8.709  -0.057   8.746  0.2943  0.1295 -1.3141
21932SOL    HW267536   8.562  -0.022   8.733  0.0011 -0.8297 -0.7127
21933SOL     OW67537   2.675   3.823   7.485  0.3396 -0.8795 -0.2718
21933SOL    HW167538   2.584   3.835   7.457 -0.5122 -0.9624  2.2151
21933SOL    HW267539   2.706   3.911   7.505  0.0213 -1.0430  1.0267
21934SOL     OW67540   5.476   2.731   5.354  0.0535 -0.4072 -0.5761
21934SOL    HW167541   5.463   2.648   5.399  0.6578  0.4974  1.4222
21934SOL    HW267542   5.389   2.772   5.354  0.3028  0.2196  1.2292
21935SOL     OW67543   3.102   1.913   1.529 -0.4309  0.3294  0.4527
21935SOL    HW167544   3.034   1.873   1.475 -1.2025  1.2446  0.7273
21935SOL    HW267545   3.174   1.930   1.469 -0.6229 -0.2051  0.0650
21936SOL     OW67546   7.670   8.502   6.481  0.6211  0.1649 -0.7592
21936SOL    HW167547   7.634   8.415   6.495  0.4818  0.1767 -1.0285
21936SOL    HW267548   7.759   8.498   6.516  0.6307 -0.0998 -0.8128
21937SOL     OW67549   4.436   9.249   1.418 -0.0708  0.5117  0.4576
21937SOL    HW167550   4.401   9.333   1.389 -0.9210 -0.0256 -0.1225
21937SOL    HW267551   4.531   9.261   1.417 -0.1918  1.9490  1.9083
21938SOL     OW67552   3.981   5.995   3.280 -0.6750  0.2909  0.3029
21938SOL    HW167553   4.070   5.974   3.253 -0.8633 -0.8529  0.5311
21938SOL    HW267554   3.991   6.070   3.338  0.2286 -0.3621  1.0124
21939SOL     OW67555   4.436   2.939   1.927  0.9702  0.0473 -0.6835
21939SOL    HW167556   4.493   2.977   1.860  0.5864  0.0539 -1.0110
21939SOL    HW267557   4.393   2.865   1.883 -0.5483  1.0534 -0.9757
21940SOL     OW67558   3.715   5.115   2.743 -0.1110  0.1933 -0.4987
21940SOL    HW167559   3.755   5.046   2.690  1.3181  0.6270 -0.0356
21940SOL    HW267560   3.747   5.099   2.831 -0.6002  0.8497 -0.1941
21941SOL     OW67561   3.494   3.377   4.853 -0.0404  0.4274 -0.8429
21941SOL    HW167562   3.454   3.344   4.773  1.8246 -2.0376 -0.8468
21941SOL    HW267563   3.577   3.331   4.861  0.5730  1.7337  1.7237
21942SOL     OW67564   5.301   5.788   0.386 -0.2854  0.4517  0.5807
21942SOL    HW167565   5.346   5.708   0.413  1.1524  1.4161  1.1184
21942SOL    HW267566   5.330   5.854   0.448  0.6071  2.0006 -1.4015
21943SOL     OW67567   4.279   0.199   8.635 -0.0789  0.2985 -0.4573
21943SOL    HW167568   4.365   0.223   8.601  0.7699 -0.2299  1.2151
21943SOL    HW267569   4.237   0.153   8.563  1.4998 -0.4349 -0.9491
21944SOL     OW67570   4.044   3.320   3.675 -0.2920 -0.5796  0.9971
21944SOL    HW167571   4.039   3.282   3.762  1.6902 -0.7185  1.1009
21944SOL    HW267572   4.126   3.285   3.638 -0.3922  0.5475 -0.3898
21945SOL     OW67573   0.183   1.207   0.402  0.7971 -0.6272  0.4666
21945SOL    HW167574   0.233   1.242   0.328 -1.5201 -1.2109 -1.4653
21945SOL    HW267575   0.118   1.275   0.421 -0.9077 -1.9426 -0.4387
21946SOL     OW67576   7.806   5.039   3.123 -0.2099 -0.1109 -0.4910
21946SOL    HW167577   7.733   4.990   3.159  0.7043 -0.1118  1.5328
21946SOL    HW267578   7.805   5.020   3.029 -0.2096 -3.6138  0.0796
21947SOL     OW67579   0.069   7.553   8.903  0.1572 -0.7669 -0.1762
21947SOL    HW167580  -0.016   7.582   8.936  0.2257 -1.8827  1.0504
21947SOL    HW267581   0.067   7.576   8.810 -0.9830  0.3311  0.0941
21948SOL     OW67582   4.103   2.524   3.030 -0.3859  0.4796 -0.0456
21948SOL    HW167583   4.153   2.586   2.978  0.4501  0.3516  0.5935
21948SOL    HW267584   4.143   2.526   3.116 -1.2502  0.0971  0.3796
21949SOL     OW67585   4.190   8.559   0.441  0.3974 -0.0456 -0.1980
21949SOL    HW167586   4.201   8.467   0.465 -0.0093  0.1050  0.6091
21949SOL    HW267587   4.280   8.593   0.436  0.5331 -0.3562  0.0663
21950SOL     OW67588   2.936   8.765   5.509  0.0250 -0.2460  0.1829
21950SOL    HW167589   2.871   8.835   5.508 -0.7410 -0.9052  1.6757
21950SOL    HW267590   2.893   8.691   5.466  0.0381 -0.4715  0.5543
21951SOL     OW67591   0.822   5.701   0.476 -0.3882  0.2768  0.0772
21951SOL    HW167592   0.740   5.693   0.428 -0.5738  1.6032  0.1352
21951SOL    HW267593   0.881   5.638   0.434 -0.2837  1.9020 -2.4543
21952SOL     OW67594   9.187   1.607   1.611  0.4667 -0.3664  0.1886
21952SOL    HW167595   9.119   1.653   1.658  1.6727  1.0389  0.6339
21952SOL    HW267596   9.165   1.620   1.518 -0.0605 -0.2430  0.3277
21953SOL     OW67597   5.876   9.280   8.704  0.6037  0.5878  0.4632
21953SOL    HW167598   5.860   9.245   8.616  2.0224  1.3121 -0.1126
21953SOL    HW267599   5.916   9.208   8.752  2.5887  1.0254 -0.4190
21954SOL     OW67600   3.914   2.406   1.722  0.3687 -0.8784 -0.2840
21954SOL    HW167601   3.994   2.388   1.771  1.3960  1.2680 -1.0586
21954SOL    HW267602   3.853   2.440   1.787  0.7054 -0.8227  0.0042
21955SOL     OW67603   5.016   4.462   6.386  0.0098  0.2441 -0.0042
21955SOL    HW167604   5.104   4.427   6.390 -0.5969 -1.3745 -0.1363
21955SOL    HW267605   4.959   4.385   6.387 -1.4343  1.2700  1.0260
21956SOL     OW67606   3.530   0.219   1.557 -0.2678 -0.2353 -0.4190
21956SOL    HW167607   3.557   0.128   1.571 -1.0523 -0.5114 -0.6464
21956SOL    HW267608   3.524   0.256   1.646 -1.5497 -0.8920 -0.2131
21957SOL     OW67609   8.142   2.701   8.662  0.0868 -0.2477 -0.5247
21957SOL    HW167610   8.120   2.751   8.741 -0.3956 -0.5880 -0.4425
21957SOL    HW267611   8.214   2.644   8.688  0.8376  0.6018 -0.6937
21958SOL     OW67612   1.555   2.078   7.522  0.6737  0.1093 -0.0234
21958SOL    HW167613   1.592   2.020   7.589 -1.4436 -0.6339  0.5948
21958SOL    HW267614   1.474   2.111   7.562  1.3581  2.8247 -0.7212
21959SOL     OW67615   2.917   4.267   7.940  0.9074 -0.7652 -0.1166
21959SOL    HW167616   2.869   4.336   7.894  2.5619 -0.3563 -1.2977
21959SOL    HW267617   2.947   4.309   8.021  0.3589 -0.6668  0.0443
21960SOL     OW67618   8.741   8.136   2.881  0.1336 -0.5611  0.2216
21960SOL    HW167619   8.759   8.111   2.971  0.3968  0.2322  0.3966
21960SOL    HW267620   8.826   8.158   2.844  0.0476 -1.0159 -0.2678
21961SOL     OW67621   5.563   1.853   8.081 -1.0892 -0.4825 -0.1763
21961SOL    HW167622   5.561   1.758   8.080 -1.3149 -0.4770 -0.1602
21961SOL    HW267623   5.516   1.878   8.161  1.7507 -0.4475  1.6399
21962SOL     OW67624   4.228   1.367   6.735 -0.2410  0.5124 -0.5530
21962SOL    HW167625   4.320   1.380   6.713 -0.5060  0.6493 -1.6157
21962SOL    HW267626   4.217   1.411   6.819  0.3972  1.4645 -0.9574
21963SOL     OW67627   4.354   5.424   9.314  0.2037 -0.0033  0.0324
21963SOL    HW167628   4.432   5.370   9.332  0.9941  1.1862  0.2946
21963SOL    HW267629   4.387   5.514   9.312 -1.0459  0.4615 -0.6486
21964SOL     OW67630   8.594   9.021   1.425  0.1233  0.0187  0.3060
21964SOL    HW167631   8.609   8.932   1.458  0.6521 -1.2682 -2.9874
21964SOL    HW267632   8.499   9.032   1.430 -0.0693 -1.1910 -0.1741
21965SOL     OW67633   1.636   7.348   8.094  0.0426  0.3836 -0.2770
21965SOL    HW167634   1.677   7.317   8.175  0.4541  0.6211 -0.3955
21965SOL    HW267635   1.685   7.427   8.070  0.7237 -0.3583 -1.4243
21966SOL     OW67636   2.142   3.347   3.975 -0.1818  0.7421  0.1760
21966SOL    HW167637   2.079   3.315   4.040  0.3197  0.8946  0.7486
21966SOL    HW267638   2.182   3.267   3.940 -1.5888  0.5637 -1.1416
21967SOL     OW67639   1.510   6.081   1.919 -0.3321  0.4312  0.4001
21967SOL    HW167640   1.464   6.066   2.002  1.9031  1.1994  1.8756
21967SOL    HW267641   1.528   5.993   1.885 -0.1817  0.0684  1.3914
21968SOL     OW67642   5.864   7.647   5.107 -0.1995  0.4598 -0.1335
21968SOL    HW167643   5.852   7.685   5.194 -1.2652 -0.3141  0.0837
21968SOL    HW267644   5.854   7.553   5.121  0.5052  0.2529 -0.9574
21969SOL     OW67645   3.781   1.179   1.377  0.2685 -0.3933  0.3844
21969SOL    HW167646   3.709   1.157   1.435  0.3020  0.7237  0.8778
21969SOL    HW267647   3.782   1.275   1.374  0.4800 -0.4083 -1.1957
21970SOL     OW67648   6.816   2.876   4.100  0.4226  0.2724  0.0202
21970SOL    HW167649   6.808   2.783   4.123  0.2856 -0.0971 -1.4053
21970SOL    HW267650   6.728   2.911   4.108  0.8218  0.8842  2.7674
21971SOL     OW67651   5.653   4.808   1.438 -0.1007 -0.0823 -0.0462
21971SOL    HW167652   5.568   4.842   1.410 -0.0765 -0.0456 -0.0741
21971SOL    HW267653   5.640   4.713   1.444 -0.6123  0.0620  1.5341
21972SOL     OW67654   7.609   1.403   9.169 -0.4132 -0.0136 -0.3658
21972SOL    HW167655   7.615   1.381   9.076  2.6480 -1.3901  0.0265
21972SOL    HW267656   7.557   1.483   9.171 -1.0800 -0.2478 -3.1717
21973SOL     OW67657   2.011   0.097   6.670  0.4331  0.6770  0.0291
21973SOL    HW167658   1.967   0.118   6.588 -0.6440 -0.3926  0.3046
21973SOL    HW267659   2.093   0.147   6.667  0.5141  0.5008 -1.7745
21974SOL     OW67660   8.623   3.402   0.717  0.0246 -0.2707  0.2832
21974SOL    HW167661   8.672   3.346   0.776 -0.7741 -0.2665  0.9683
21974SOL    HW267662   8.532   3.391   0.744 -0.2412  0.5715 -0.2429
21975SOL     OW67663   4.903   7.668   1.995 -0.1138 -0.3565  0.0231
21975SOL    HW167664   4.960   7.637   2.066 -0.3876 -0.5761  0.1488
21975SOL    HW267665   4.815   7.648   2.025 -0.3766  1.4311  0.5400
21976SOL     OW67666   3.499   7.542   7.033  0.2902 -0.0890 -0.0472
21976SOL    HW167667   3.447   7.602   6.980  0.0256 -0.8686 -0.6952
21976SOL    HW267668   3.588   7.552   6.999  0.1439 -0.4915 -0.5588
21977SOL     OW67669   1.609   5.942   2.852 -0.4507 -0.1812 -0.5167
21977SOL    HW167670   1.563   5.866   2.815 -3.7775  2.2865 -2.0347
21977SOL    HW267671   1.560   5.963   2.931  0.9131 -0.0370  0.3042
21978SOL     OW67672   3.874   8.760   1.962 -0.5718  0.2313  0.4144
21978SOL    HW167673   3.941   8.756   2.031  0.5841 -0.5864 -0.7059
21978SOL    HW267674   3.839   8.672   1.957 -0.4132  0.1986 -0.2561
21979SOL     OW67675   0.292   7.959   1.813 -0.1491 -0.3494  0.3179
21979SOL    HW167676   0.379   7.993   1.796  0.2374 -0.6979  1.5118
21979SOL    HW267677   0.272   7.987   1.903 -2.2850  1.8312 -0.7239
21980SOL     OW67678   3.036   0.231   4.474  0.4210  0.1872  0.4852
21980SOL    HW167679   2.946   0.247   4.504 -0.3753 -2.3709 -0.2610
21980SOL    HW267680   3.025   0.176   4.397  2.6649  0.0328  0.2277
21981SOL     OW67681   1.445   6.712   1.335  0.6566  0.0361 -0.0826
21981SOL    HW167682   1.530   6.676   1.310  1.8911  1.7791  1.2779
21981SOL    HW267683   1.438   6.793   1.285 -0.9004 -0.7444 -1.2129
21982SOL     OW67684   6.834   6.996   2.451 -0.0463 -0.0165 -0.5365
21982SOL    HW167685   6.917   7.013   2.405  0.5410 -0.6163  0.2608
21982SOL    HW267686   6.856   6.926   2.512 -1.5923 -1.5190 -1.6082
21983SOL     OW67687   4.209   4.145   5.576 -0.8690 -0.3573 -0.3541
21983SOL    HW167688   4.248   4.198   5.645 -0.8223  1.2216 -1.5099
21983SOL    HW267689   4.138   4.200   5.542 -1.5670 -1.5372 -0.8664
21984SOL     OW67690   7.566   6.955   3.994 -0.0770  0.5287 -0.4647
21984SOL    HW167691   7.519   6.956   4.077  3.6726  4.4994  2.0355
21984SOL    HW267692   7.505   6.995   3.932 -2.5354 -1.4126  0.5450
21985SOL     OW67693   4.725   0.644   8.699  0.1288 -0.2641 -0.4446
21985SOL    HW167694   4.756   0.707   8.764 -0.7909 -0.0256 -0.2219
21985SOL    HW267695   4.803   0.596   8.673  0.3563 -1.0837  1.6143
21986SOL     OW67696   5.866   1.978   6.436  0.5800 -0.2865 -0.0680
21986SOL    HW167697   5.928   1.947   6.370  0.9302  0.9522 -0.3645
21986SOL    HW267698   5.892   1.934   6.517 -0.3757 -2.4910 -0.8796
21987SOL     OW67699   3.573   7.027   7.616  0.3574  0.0215 -0.3261
21987SOL    HW167700   3.508   7.096   7.602 -0.0514 -0.0889  0.9389
21987SOL    HW267701   3.649   7.072   7.652 -0.2753 -0.2952  1.4739
21988SOL     OW67702   4.042   7.000   3.965  0.2446  0.5698 -0.2215
21988SOL    HW167703   4.012   6.936   3.900 -1.3962 -0.0452  1.0489
21988SOL    HW267704   4.135   7.011   3.947  0.1884 -0.8420 -1.6006
21989SOL     OW67705   8.284   2.865   5.654 -0.3784 -0.0001  0.0746
21989SOL    HW167706   8.299   2.875   5.560  1.4763  1.0943  0.4394
21989SOL    HW267707   8.361   2.817   5.686 -0.6075  0.2932  1.1237
21990SOL     OW67708   4.975   1.767   8.970 -0.1546  0.1214 -0.0655
21990SOL    HW167709   4.925   1.748   8.890 -2.0613  1.2933  0.7605
21990SOL    HW267710   4.926   1.839   9.012  0.3372 -0.9384  2.5164
21991SOL     OW67711   5.573   9.193   3.582  0.1845  0.0039  0.2793
21991SOL    HW167712   5.505   9.191   3.514 -0.1665  3.6929  0.3214
21991SOL    HW267713   5.526   9.220   3.661  0.9873 -1.9710  1.4860
21992SOL     OW67714   7.643   8.260   4.993 -0.3310  0.0962 -0.4902
21992SOL    HW167715   7.651   8.219   5.079 -0.7490  0.9027 -0.0486
21992SOL    HW267716   7.568   8.319   5.002  0.7751  1.6255 -0.8081
21993SOL     OW67717   5.817   9.417   2.149  0.0186  0.3647  0.0749
21993SOL    HW167718   5.799   9.438   2.241 -0.8937  1.7143 -0.3956
21993SOL    HW267719   5.745   9.360   2.123 -0.8355  1.6037 -0.3485
21994SOL     OW67720   0.399   4.115   8.728 -0.2247 -0.1464 -0.2003
21994SOL    HW167721   0.356   4.181   8.673 -0.2278 -0.3270 -0.4147
21994SOL    HW267722   0.490   4.115   8.699 -0.6833 -1.8589 -1.7983
21995SOL     OW67723   9.390   7.225   3.511  0.3679 -0.0010  0.3184
21995SOL    HW167724   9.344   7.274   3.443  1.5570 -1.0648 -1.3373
21995SOL    HW267725   9.337   7.237   3.589 -0.5767  2.0119 -0.5623
21996SOL     OW67726   8.072   2.480   1.853  0.0589 -0.0318  0.2090
21996SOL    HW167727   7.986   2.494   1.893  0.7780 -3.0928  3.2975
21996SOL    HW267728   8.098   2.567   1.820 -2.7744  1.6996  2.1058
21997SOL     OW67729   6.030   6.504   1.802  0.0963 -0.9318  0.1841
21997SOL    HW167730   6.056   6.415   1.827  0.7748 -1.2303 -1.4716
21997SOL    HW267731   5.960   6.527   1.864 -1.6933 -3.4962 -0.7284
21998SOL     OW67732   5.218   3.308   0.122  0.3760  0.2744  0.1705
21998SOL    HW167733   5.136   3.324   0.168 -0.3980 -1.1069 -0.6754
21998SOL    HW267734   5.274   3.264   0.187 -0.4724 -1.0576  0.0362
21999SOL     OW67735   0.323   2.564   7.335 -0.3267 -0.3931  0.9032
21999SOL    HW167736   0.396   2.621   7.359  0.9676 -1.6018  0.0107
21999SOL    HW267737   0.256   2.625   7.302  0.5462  0.6918  1.0495
22000SOL     OW67738   9.474   5.801   3.072 -0.1986  0.0862  0.2119
22000SOL    HW167739   9.386   5.838   3.081 -0.3494 -0.0843 -0.5119
22000SOL    HW267740   9.466   5.711   3.104 -0.2431  0.1224  0.3039
22001SOL     OW67741   8.031   6.327   6.644  0.1011  0.3488  0.0962
22001SOL    HW167742   8.056   6.339   6.736  3.3649 -1.1961 -0.4439
22001SOL    HW267743   7.942   6.292   6.648  0.1542  0.3059  2.6826
22002SOL     OW67744   0.268   9.574   6.022  0.3134  0.3156 -0.5311
22002SOL    HW167745   0.356   9.545   5.997  0.0689  0.0564 -1.0928
22002SOL    HW267746   0.243   9.516   6.094  0.1942 -0.2797 -1.0473
22003SOL     OW67747   5.906   7.505   6.188 -0.1019 -0.2209  0.0333
22003SOL    HW167748   5.984   7.493   6.134  0.3841 -1.8622  1.0454
22003SOL    HW267749   5.862   7.581   6.149 -0.4681 -2.0011 -3.4827
22004SOL     OW67750   9.325   3.330   3.975 -0.2364  0.1290  0.0617
22004SOL    HW167751   9.298   3.291   4.059  1.4155 -1.6865 -0.1956
22004SOL    HW267752   9.316   3.424   3.989 -2.2169 -0.2026  1.4803
22005SOL     OW67753   9.575   4.842   4.856  1.0454  0.2129  0.3086
22005SOL    HW167754   9.654   4.803   4.894 -0.1371 -0.8427  1.8120
22005SOL    HW267755   9.541   4.899   4.925  0.1865  0.1807 -0.0768
22006SOL     OW67756   2.571   2.756   8.925 -0.0170 -0.4894  0.3699
22006SOL    HW167757   2.500   2.722   8.870 -1.3270  2.6850 -0.1330
22006SOL    HW267758   2.572   2.698   9.001 -2.4921 -1.2668 -0.0810
22007SOL     OW67759   4.855   8.907   9.457  0.0164  0.2189  0.0069
22007SOL    HW167760   4.862   8.820   9.497 -1.1273 -0.1556 -0.5699
22007SOL    HW267761   4.868   8.968   9.529  1.2288 -0.4175  0.3543
22008SOL     OW67762   5.912   5.185   1.712  0.2849 -0.4926 -0.2201
22008SOL    HW167763   5.837   5.230   1.750  1.0811  0.8976 -0.2431
22008SOL    HW267764   5.879   5.146   1.632 -0.9839 -1.9428  0.9425
22009SOL     OW67765   2.100   2.856   5.893 -0.6514  0.0489  0.1057
22009SOL    HW167766   2.183   2.872   5.848 -0.6115  0.6808  0.3930
22009SOL    HW267767   2.069   2.943   5.917 -1.6464 -0.1474 -0.4266
22010SOL     OW67768   1.232   4.693   6.246  0.7140  0.2069  0.0688
22010SOL    HW167769   1.268   4.759   6.187 -1.1087  0.8385 -0.3754
22010SOL    HW267770   1.230   4.737   6.332  1.7727 -0.1379  0.2917
22011SOL     OW67771   5.267   3.452   2.615  0.9991  0.4304  0.3469
22011SOL    HW167772   5.334   3.447   2.683 -0.5312 -0.0878  1.9046
22011SOL    HW267773   5.232   3.541   2.623  1.8678  0.9094 -0.8750
22012SOL     OW67774   7.523   0.568   1.064 -0.5887 -0.3049 -0.3161
22012SOL    HW167775   7.558   0.644   1.019 -1.2194 -0.4057 -0.9966
22012SOL    HW267776   7.555   0.493   1.012 -0.7511 -0.4569 -0.1973
22013SOL     OW67777   6.372   2.725   8.223  0.6761  0.1594  0.2938
22013SOL    HW167778   6.296   2.734   8.280  1.5802 -0.8707  1.7128
22013SOL    HW267779   6.336   2.695   8.140 -0.6164  1.2222  0.4210
22014SOL     OW67780   1.262   5.847   4.203  0.0065 -0.5473 -0.0463
22014SOL    HW167781   1.345   5.877   4.164 -0.7835  0.9010 -0.7163
22014SOL    HW267782   1.204   5.923   4.195 -0.7249 -0.7743  2.4442
22015SOL     OW67783   1.678   6.189   9.284 -0.7622 -0.0703  0.6076
22015SOL    HW167784   1.682   6.142   9.201 -2.1045 -0.1315  0.5685
22015SOL    HW267785   1.732   6.136   9.343 -1.0253 -0.8386  0.1743
22016SOL     OW67786   6.922   2.105   7.655 -0.2719 -0.1646  0.4359
22016SOL    HW167787   6.946   2.119   7.746 -0.4463  0.7456  0.3512
22016SOL    HW267788   7.000   2.130   7.605  0.5189 -2.5069  0.3960
22017SOL     OW67789   6.952   0.923   2.333  0.3842  0.3737 -0.3687
22017SOL    HW167790   6.942   0.936   2.427 -0.5443 -2.1287 -0.0395
22017SOL    HW267791   6.863   0.931   2.299  0.6220  0.6082 -0.9433
22018SOL     OW67792   6.181   6.515   1.515 -0.5070 -0.4491  0.0518
22018SOL    HW167793   6.121   6.532   1.588 -2.6359  2.8273 -2.2005
22018SOL    HW267794   6.236   6.594   1.511 -0.6176 -0.4313 -1.9647
22019SOL     OW67795   4.496   6.654   4.774  0.3753 -0.4887 -0.5832
22019SOL    HW167796   4.531   6.589   4.834  1.6191  0.8928  0.2818
22019SOL    HW267797   4.573   6.683   4.724 -0.4620 -0.9093 -2.1641
22020SOL     OW67798   8.049   0.261   9.438 -0.3324  0.2064 -0.2754
22020SOL    HW167799   8.040   0.191   9.503  0.1878  1.4710  1.2170
22020SOL    HW267800   8.142   0.282   9.438 -0.5992  1.5030  0.0036
22021SOL     OW67801   8.517   3.958   4.913 -0.4053  0.4043  0.3115
22021SOL    HW167802   8.477   3.905   4.844  2.7997  0.6683 -1.9195
22021SOL    HW267803   8.484   3.919   4.994 -2.8660 -1.1029 -1.2735
22022SOL     OW67804   6.916   7.679   6.411 -0.3504  0.2068 -0.7289
22022SOL    HW167805   6.922   7.653   6.503 -1.2541  2.3740  0.0246
22022SOL    HW267806   6.822   7.680   6.392 -0.1971  0.2505 -1.5204
22023SOL     OW67807   2.533   4.828   5.955 -0.1057  0.2004 -0.1725
22023SOL    HW167808   2.553   4.760   6.019  2.1586 -0.6934 -1.7091
22023SOL    HW267809   2.527   4.909   6.007 -1.2659 -0.8730  1.4772
22024SOL     OW67810   3.979   8.065   4.404 -0.3220  0.4851  0.0172
22024SOL    HW167811   3.894   8.093   4.440 -0.5083  0.1429 -0.1442
22024SOL    HW267812   3.981   8.103   4.317 -0.2681  0.5736  0.0574
22025SOL     OW67813   3.198   2.972   3.498 -0.3062  0.4621 -0.5132
22025SOL    HW167814   3.219   2.935   3.412  2.5852 -0.9942  0.6891
22025SOL    HW267815   3.240   3.058   3.497  1.1829 -0.2287 -0.0359
22026SOL     OW67816   3.023   7.859   7.719  0.6316  0.2554  0.3168
22026SOL    HW167817   3.078   7.912   7.661  0.1554  1.8557  1.2634
22026SOL    HW267818   2.996   7.784   7.666  2.8465 -0.0316 -0.4965
22027SOL     OW67819   7.171   4.716   4.928  0.5300 -0.1574 -0.0645
22027SOL    HW167820   7.114   4.672   4.865  0.2987  0.6850 -0.4609
22027SOL    HW267821   7.138   4.687   5.014  0.1640 -0.4822 -0.3093
22028SOL     OW67822   7.535   4.367   4.134  0.4974  0.0061  0.3593
22028SOL    HW167823   7.574   4.311   4.201  0.6886 -0.5288 -0.1916
22028SOL    HW267824   7.471   4.420   4.182 -0.8422 -1.7806  0.6527
22029SOL     OW67825   2.477   5.818   3.336 -0.1118  0.5974  0.1212
22029SOL    HW167826   2.569   5.801   3.357 -0.2708  0.5998  0.8431
22029SOL    HW267827   2.451   5.888   3.397 -1.0946 -0.6458  1.1767
22030SOL     OW67828   7.636   2.924   5.551  0.2512 -0.0076  0.2237
22030SOL    HW167829   7.599   2.847   5.509  1.6230 -1.0678  0.8947
22030SOL    HW267830   7.572   2.947   5.619 -2.0777  1.8194 -2.3329
22031SOL     OW67831   6.013   1.385   7.661  0.1830 -0.1178  0.1055
22031SOL    HW167832   5.961   1.337   7.725 -0.5138 -0.8174 -0.9630
22031SOL    HW267833   6.100   1.346   7.668 -0.3217 -1.4341 -0.6062
22032SOL     OW67834   0.983   7.090   9.149 -0.3214  0.2105 -0.0014
22032SOL    HW167835   0.924   7.147   9.198  0.9653 -0.2701  2.2121
22032SOL    HW267836   1.002   7.018   9.209  1.7609 -0.1363 -1.0030
22033SOL     OW67837   5.393   4.557   1.287 -0.1838  0.0469  0.3203
22033SOL    HW167838   5.418   4.550   1.195  2.1361 -0.4675  0.9232
22033SOL    HW267839   5.395   4.650   1.306 -1.7065  0.2434 -0.3795
22034SOL     OW67840   7.940   2.003   6.614 -0.1905  0.6879 -0.0902
22034SOL    HW167841   7.981   2.089   6.625 -1.9058  1.6841 -1.1735
22034SOL    HW267842   7.924   1.995   6.520 -0.1904 -0.7901  0.0031
22035SOL     OW67843   6.429   9.344   3.685 -0.3303  0.0388 -0.7192
22035SOL    HW167844   6.484   9.423   3.681  1.2707 -0.9068  1.1227
22035SOL    HW267845   6.365   9.357   3.615  1.1622  2.0111 -1.8504
22036SOL     OW67846   8.296   5.916   6.549  0.2004  0.0099  0.1760
22036SOL    HW167847   8.307   6.006   6.516  0.4681  0.2742  0.9523
22036SOL    HW267848   8.224   5.923   6.612 -0.1960 -0.4527 -0.2238
22037SOL     OW67849   3.906   8.604   1.516  0.0939  0.0467  0.8247
22037SOL    HW167850   3.901   8.689   1.560 -0.4672  1.4984 -1.7890
22037SOL    HW267851   3.825   8.559   1.540  0.4246  0.1966  2.2794
22038SOL     OW67852   9.582   5.621   6.830  0.0479 -0.1980  0.0593
22038SOL    HW167853   9.512   5.686   6.826  0.0930 -0.0660  1.0164
22038SOL    HW267854   9.548   5.554   6.890 -0.0727 -1.1596 -1.0500
22039SOL     OW67855   4.515   3.164   1.360  0.0607  0.4657 -0.3841
22039SOL    HW167856   4.462   3.121   1.293 -1.9632  1.5775  0.3792
22039SOL    HW267857   4.486   3.256   1.358  1.6202  1.0135  0.4488
22040SOL     OW67858   2.827   6.468   4.412  0.8700 -0.0266 -0.2015
22040SOL    HW167859   2.916   6.489   4.384  0.5631 -0.3198 -1.4657
22040SOL    HW267860   2.776   6.469   4.331 -0.1019 -0.7770  0.3804
22041SOL     OW67861   6.275   8.051   1.401 -0.1818  0.0643  0.1408
22041SOL    HW167862   6.367   8.032   1.386  0.2888  0.0291  2.5882
22041SOL    HW267863   6.268   8.146   1.396 -0.1085  0.0423 -0.4371
22042SOL     OW67864   0.234   6.628   4.848 -0.5320  0.0225 -0.6052
22042SOL    HW167865   0.318   6.583   4.841 -0.2315  0.1920  1.3862
22042SOL    HW267866   0.192   6.588   4.924 -1.7613  0.7379 -0.8841
22043SOL     OW67867   4.399   2.026   7.405  0.6670  0.0520 -0.1920
22043SOL    HW167868   4.439   1.991   7.325  1.7115 -0.3935  0.5035
22043SOL    HW267869   4.402   1.953   7.467 -3.5486 -0.8985 -0.8064
22044SOL     OW67870   6.886   2.334   6.971 -0.3599  0.4493 -0.3375
22044SOL    HW167871   6.921   2.333   7.060 -0.9146  0.2501 -0.1188
22044SOL    HW267872   6.792   2.316   6.982 -0.2852 -0.4075 -1.0251
22045SOL     OW67873   8.847   0.078   1.325 -0.1743 -0.1609 -0.6336
22045SOL    HW167874   8.862   0.084   1.419 -0.0573  1.2920 -0.7194
22045SOL    HW267875   8.858  -0.015   1.304  0.8474 -0.3417  0.6034
22046SOL     OW67876   3.788   2.711   4.130 -0.7058  1.1888 -0.1284
22046SOL    HW167877   3.713   2.741   4.079 -0.9381  1.0340  0.1183
22046SOL    HW267878   3.834   2.650   4.072 -0.5737  1.5488 -0.4059
22047SOL     OW67879   0.789   5.302   7.790 -0.0509 -0.2444  0.2058
22047SOL    HW167880   0.750   5.291   7.876 -1.3708 -0.7791 -0.4466
22047SOL    HW267881   0.716   5.328   7.733  0.1192 -3.0047 -1.4246
22048SOL     OW67882   4.605   6.430   1.113  0.0656  0.3159  0.5946
22048SOL    HW167883   4.606   6.504   1.173 -0.4610 -1.6157  3.1856
22048SOL    HW267884   4.670   6.452   1.046  2.5234  1.6555  3.2054
22049SOL     OW67885   8.402   5.975   0.705 -0.1078 -0.4183 -0.8107
22049SOL    HW167886   8.381   5.882   0.711  1.5217 -0.8317 -1.0511
22049SOL    HW267887   8.333   6.018   0.755 -0.5174 -1.8103 -0.1193
22050SOL     OW67888   1.782   8.010   2.652  0.1592 -0.2154 -0.0253
22050SOL    HW167889   1.717   8.030   2.720  1.0963 -1.0718  1.1614
22050SOL    HW267890   1.825   8.094   2.636 -1.0847  0.3221 -0.6904
22051SOL     OW67891   4.285   6.663   7.741 -0.4913 -0.2739  0.1818
22051SOL    HW167892   4.244   6.747   7.723 -1.2816 -0.5632  0.5742
22051SOL    HW267893   4.287   6.657   7.836  0.1869 -0.4013  0.1626
22052SOL     OW67894   6.623   8.036   6.565 -0.2158  0.5991  0.1502
22052SOL    HW167895   6.616   7.950   6.524  0.0483  0.1206  1.0883
22052SOL    HW267896   6.633   8.018   6.658  1.4958  1.5829  0.2003
22053SOL     OW67897   3.003   4.219   1.927  0.2272 -0.5751 -0.2317
22053SOL    HW167898   2.913   4.205   1.897 -0.2443  1.0859  0.2932
22053SOL    HW267899   3.031   4.299   1.882  0.1945  0.8829  2.1684
22054SOL     OW67900   2.260   6.807   3.717  0.1387  0.0069  0.0832
22054SOL    HW167901   2.227   6.795   3.628 -0.0175  2.2214 -0.2136
22054SOL    HW267902   2.330   6.871   3.709 -2.5984  3.6445  1.9259
22055SOL     OW67903   7.471   8.509   0.749  0.4108 -0.1556  0.1783
22055SOL    HW167904   7.399   8.452   0.778  1.1198 -0.4385  1.4864
22055SOL    HW267905   7.525   8.453   0.694  0.1924 -0.2425  0.0490
22056SOL     OW67906   6.160   1.086   9.132  0.0676  0.1732  0.0690
22056SOL    HW167907   6.094   1.155   9.131 -0.7519 -0.5913  0.3398
22056SOL    HW267908   6.243   1.133   9.143 -0.2131  1.3024 -2.0376
22057SOL     OW67909   4.290   1.015   7.728  0.1130  0.2437 -0.6505
22057SOL    HW167910   4.368   1.027   7.782 -0.3939  1.1463 -0.1026
22057SOL    HW267911   4.305   1.072   7.652  1.3920 -1.9350 -2.1706
22058SOL     OW67912   9.014   3.074   4.743  0.2013 -0.1872  0.6432
22058SOL    HW167913   8.964   3.138   4.794  0.6008 -1.1195  2.2762
22058SOL    HW267914   9.087   3.049   4.800 -0.6656 -3.0667  0.6348
22059SOL     OW67915   6.094   0.805   9.186 -0.0315  0.4659  0.7378
22059SOL    HW167916   6.087   0.899   9.175  1.0902  0.9006  3.1419
22059SOL    HW267917   6.183   0.784   9.157 -0.2761  0.1304  0.2096
22060SOL     OW67918   8.937   0.397   0.308 -0.2620 -0.4990  0.8106
22060SOL    HW167919   8.929   0.491   0.291  0.9701 -0.2040  1.7124
22060SOL    HW267920   8.890   0.384   0.390 -1.1407 -0.8498  0.2755
22061SOL     OW67921   8.088   0.576   9.520 -0.3068  0.0505  0.0274
22061SOL    HW167922   8.110   0.488   9.547 -0.8019 -0.4302 -1.0523
22061SOL    HW267923   8.136   0.633   9.580  2.4745 -0.9190 -1.0968
22062SOL     OW67924   1.919   2.994   1.923  0.1768  0.0704  0.0364
22062SOL    HW167925   1.899   3.085   1.903  0.4847  0.6625  2.1892
22062SOL    HW267926   1.847   2.966   1.980 -0.6421 -1.4985 -1.6452
22063SOL     OW67927   1.699   7.132   4.449  0.1938 -0.4041 -0.0266
22063SOL    HW167928   1.700   7.044   4.412 -1.5165 -0.8519  0.8689
22063SOL    HW267929   1.645   7.124   4.527 -0.4407  1.5547 -0.2115
22064SOL     OW67930   9.322   0.070   3.555 -0.2413 -0.1966  0.1204
22064SOL    HW167931   9.374  -0.002   3.591  0.4324  1.3844  2.4834
22064SOL    HW267932   9.367   0.093   3.473  0.7997 -1.0334  0.4328
22065SOL     OW67933   1.134   5.359   7.217 -0.2085  0.1308 -0.1160
22065SOL    HW167934   1.179   5.442   7.225  2.0554 -0.8777 -1.5483
22065SOL    HW267935   1.101   5.341   7.306  1.0791  1.5386  0.6888
22066SOL     OW67936   9.355   7.889   7.811 -0.1968  0.0585  0.0802
22066SOL    HW167937   9.357   7.801   7.848 -0.4279 -0.7162 -1.6189
22066SOL    HW267938   9.413   7.883   7.735 -1.3924  0.9298 -0.9289
22067SOL     OW67939   1.589   5.557   5.492 -0.0556 -0.5742 -0.4970
22067SOL    HW167940   1.575   5.471   5.455 -1.5766  1.1627 -4.4938
22067SOL    HW267941   1.510   5.606   5.470  1.5262  2.3934 -0.1573
22068SOL     OW67942   5.367   4.473   0.844 -0.6330  0.5385 -0.1843
22068SOL    HW167943   5.431   4.409   0.812 -0.8464  0.3583 -0.2515
22068SOL    HW267944   5.294   4.467   0.782 -0.4087  1.2576 -0.5323
22069SOL     OW67945   6.373   6.748   6.938 -0.0509 -1.5359 -0.1380
22069SOL    HW167946   6.444   6.772   6.878  1.3153 -1.0639  1.5690
22069SOL    HW267947   6.303   6.811   6.918  1.1081 -0.1288  0.0161
22070SOL     OW67948   7.879   0.932   6.173 -0.1650  0.1918 -0.2801
22070SOL    HW167949   7.932   0.872   6.121 -0.0123  0.1134 -0.0376
22070SOL    HW267950   7.933   1.011   6.179  0.0339  0.0267  0.1702
22071SOL     OW67951   8.926   0.620   4.263 -0.3841 -0.4106 -0.3712
22071SOL    HW167952   8.956   0.529   4.262 -0.9247 -0.5909 -0.5888
22071SOL    HW267953   8.858   0.623   4.197 -0.4704  0.1212 -0.2601
22072SOL     OW67954   8.858   4.712   2.395  0.3796 -0.5317  0.1934
22072SOL    HW167955   8.825   4.679   2.478  0.7519  3.3965  2.1808
22072SOL    HW267956   8.951   4.729   2.411 -0.1565  3.2213  0.2762
22073SOL     OW67957   6.114   6.355   1.327  0.2048 -0.5663  0.1085
22073SOL    HW167958   6.136   6.418   1.396 -1.7372  1.5454 -1.0550
22073SOL    HW267959   6.023   6.332   1.344  0.4361 -1.9031 -0.3776
22074SOL     OW67960   8.117   4.874   2.943  0.5872  0.2193 -0.3298
22074SOL    HW167961   8.103   4.917   3.028  0.2660  1.2651 -0.8982
22074SOL    HW267962   8.131   4.782   2.965  0.5195  0.4782  0.8616
22075SOL     OW67963   7.019   6.478   1.163 -0.5041 -0.1445 -0.1310
22075SOL    HW167964   6.967   6.465   1.084 -1.0671  1.2948 -0.0301
22075SOL    HW267965   7.101   6.517   1.132 -1.1801  1.5220  0.0421
22076SOL     OW67966   4.626   4.756   4.001  0.5363 -0.1847  0.1511
22076SOL    HW167967   4.612   4.804   4.082  0.2027 -0.3718  0.2045
22076SOL    HW267968   4.549   4.774   3.948 -1.0834 -3.0185  1.3334
22077SOL     OW67969   4.409   8.530   1.904 -0.1783 -0.3481  0.0367
22077SOL    HW167970   4.401   8.604   1.843  0.5841 -1.0478 -0.9527
22077SOL    HW267971   4.342   8.547   1.970 -1.2985  0.2578 -1.1906
22078SOL     OW67972   7.007   3.893   1.779  0.7093 -0.0823  0.4505
22078SOL    HW167973   7.056   3.921   1.702  0.0035  1.7751  0.6324
22078SOL    HW267974   6.978   3.804   1.757  0.4212  0.4351 -1.4928
22079SOL     OW67975   3.948   8.383   4.474  0.0564 -0.4172 -0.3250
22079SOL    HW167976   3.941   8.414   4.564 -1.0985  0.5656 -0.7281
22079SOL    HW267977   4.036   8.346   4.468 -0.6476 -2.7513  1.8720
22080SOL     OW67978   8.684   8.272   4.265 -0.1826 -0.5597  0.1316
22080SOL    HW167979   8.765   8.288   4.217 -0.7026 -1.4039 -1.0628
22080SOL    HW267980   8.668   8.178   4.254 -0.1701 -0.8499  2.2251
22081SOL     OW67981   7.745   1.680   4.871  0.0444 -0.4526  0.0215
22081SOL    HW167982   7.704   1.716   4.793  0.0951  1.7319  0.9300
22081SOL    HW267983   7.686   1.704   4.943  0.8107 -0.9436  0.8367
22082SOL     OW67984   5.434   7.361   1.451  0.2044  0.0418 -0.1935
22082SOL    HW167985   5.377   7.437   1.451 -0.2397 -0.2734  0.8074
22082SOL    HW267986   5.492   7.375   1.526 -1.0408 -1.4284  1.1068
22083SOL     OW67987   4.357   2.734   4.217 -0.3913  0.4902  0.4092
22083SOL    HW167988   4.417   2.735   4.292 -0.9117  1.7954  0.8396
22083SOL    HW267989   4.288   2.796   4.241 -0.3663  1.2198 -1.3129
22084SOL     OW67990   6.003   4.368   2.827  0.0677 -0.0993  0.6427
22084SOL    HW167991   5.963   4.405   2.748  1.6289  2.0265  0.7428
22084SOL    HW267992   6.088   4.335   2.798  0.1464 -0.4142  1.2111
22085SOL     OW67993   3.038   2.934   9.610  0.2066 -0.3600  0.1531
22085SOL    HW167994   3.013   2.927   9.702 -0.4646  0.0193  0.0049
22085SOL    HW267995   3.053   2.844   9.582  0.5283 -0.4681  0.6629
22086SOL     OW67996   3.421   5.944   5.824 -0.0722 -0.5086  0.6172
22086SOL    HW167997   3.514   5.936   5.846  1.3429  2.2519 -3.3418
22086SOL    HW267998   3.391   6.020   5.874  0.0252 -0.8034  1.1386
22087SOL     OW67999   2.364   2.346   1.774 -0.2754  0.0486  0.4229
22087SOL    HW168000   2.401   2.433   1.787 -1.0334  0.5476 -0.6251
22087SOL    HW268001   2.378   2.302   1.858  0.6692  0.9622  0.7668
22088SOL     OW68002   7.287   3.529   1.393  0.3084  0.0535  0.1558
22088SOL    HW168003   7.330   3.447   1.372  0.0326  0.2780 -1.3740
22088SOL    HW268004   7.214   3.535   1.332  0.5215  1.5943 -0.0015
22089SOL     OW68005   2.333   7.721   6.416  0.1447  0.4860 -0.2673
22089SOL    HW168006   2.286   7.785   6.468  0.1351  0.4056 -0.1765
22089SOL    HW268007   2.418   7.761   6.400  0.4909  0.1282  0.5953
22090SOL     OW68008   3.215   7.025   6.971  0.5414  0.4093 -0.2371
22090SOL    HW168009   3.266   7.048   6.894 -1.3356  0.1049 -1.6474
22090SOL    HW268010   3.244   6.936   6.993  0.8608  0.3778 -0.7787
22091SOL     OW68011   2.869   1.746   1.455  0.2196  0.5334  0.0680
22091SOL    HW168012   2.824   1.671   1.417  0.7329 -0.3775  1.2073
22091SOL    HW268013   2.819   1.822   1.424 -0.6584 -0.3001 -0.6268
22092SOL     OW68014   4.485   8.436   4.344  0.1773  0.1173 -0.6100
22092SOL    HW168015   4.502   8.501   4.276  2.1028  0.9911  0.6189
22092SOL    HW268016   4.571   8.415   4.380 -0.7275 -0.4132  1.4472
22093SOL     OW68017   5.705   6.059   6.070  0.0973  0.3031 -0.4579
22093SOL    HW168018   5.762   5.996   6.113 -1.2192 -1.0174 -0.5857
22093SOL    HW268019   5.647   6.092   6.139  1.2299  1.9618 -0.2349
22094SOL     OW68020   6.087   4.641   7.651  0.2768  0.5882  0.1223
22094SOL    HW168021   6.113   4.570   7.593  1.1820 -1.1759  2.5145
22094SOL    HW268022   6.140   4.716   7.622 -0.5923  0.3414 -2.3506
22095SOL     OW68023   6.096   9.241   8.229 -0.0996  0.2855  0.0361
22095SOL    HW168024   6.128   9.276   8.146  0.9079 -2.6283 -0.9494
22095SOL    HW268025   6.027   9.180   8.203 -2.3188  1.9400  1.6988
22096SOL     OW68026   6.493   0.937   5.633  0.2164  0.3209  0.1100
22096SOL    HW168027   6.523   1.024   5.606 -1.0528  1.2404  1.4675
22096SOL    HW268028   6.436   0.954   5.709  0.2251 -1.7309  0.6398
22097SOL     OW68029   1.223   5.254   6.129 -1.0997  0.1584  0.0050
22097SOL    HW168030   1.218   5.240   6.224 -0.6399  1.6810  0.2866
22097SOL    HW268031   1.158   5.193   6.092 -2.2249  0.4577  1.3948
22098SOL     OW68032   2.257   3.400   7.327  0.3383 -0.6549  0.2734
22098SOL    HW168033   2.298   3.328   7.279  0.1384 -0.6278  0.0599
22098SOL    HW268034   2.249   3.470   7.263 -0.1583 -0.7035  0.2725
22099SOL     OW68035   3.608   6.002   6.025 -0.0972  0.1217  0.0997
22099SOL    HW168036   3.676   6.070   6.027 -0.4424  0.4782 -0.2278
22099SOL    HW268037   3.655   5.921   6.044 -0.0013  0.6893  2.5718
22100SOL     OW68038   3.291   4.425   8.528 -0.1321  0.4922 -0.5544
22100SOL    HW168039   3.335   4.497   8.573  0.4486  0.2273 -0.6981
22100SOL    HW268040   3.356   4.391   8.466 -1.1039  1.2271 -2.0212
22101SOL     OW68041   7.326   1.794   0.001  0.3600  0.0032 -0.5147
22101SOL    HW168042   7.362   1.714  -0.036  1.4808  0.4825 -0.4952
22101SOL    HW268043   7.260   1.822  -0.062 -2.6799 -2.7841  1.1210
22102SOL     OW68044   7.040   7.769   3.833 -0.0463  0.6946 -0.3239
22102SOL    HW168045   6.963   7.800   3.784 -0.7947  0.1577  0.4829
22102SOL    HW268046   7.086   7.712   3.771  0.3167  1.8859 -1.1851
22103SOL     OW68047   2.062   2.997   6.868 -0.2222 -0.4790  0.2425
22103SOL    HW168048   2.050   2.950   6.785 -3.3264 -2.4537  1.6428
22103SOL    HW268049   2.113   2.937   6.922  0.6502  0.2451  0.2513
22104SOL     OW68050   8.018   6.773   6.680 -0.2843  0.8470  0.3160
22104SOL    HW168051   7.982   6.853   6.642  0.6240  0.8813 -0.5119
22104SOL    HW268052   7.953   6.706   6.660  0.2244  0.8407 -1.4409
22105SOL     OW68053   4.660   9.247   3.210 -0.0827 -0.0874  0.4154
22105SOL    HW168054   4.707   9.324   3.176 -1.0936 -0.9045 -3.3966
22105SOL    HW268055   4.729   9.187   3.238  0.8728  0.8746  0.2053
22106SOL     OW68056   2.134   3.983   5.268  0.0949 -0.5577 -0.1964
22106SOL    HW168057   2.046   3.995   5.234  0.8895 -0.3775 -2.3451
22106SOL    HW268058   2.173   4.070   5.268  0.5594 -0.7588 -0.0954
22107SOL     OW68059   0.853   0.389   7.294  1.1192 -0.2040 -0.1557
22107SOL    HW168060   0.844   0.452   7.366  1.8912 -2.4425  2.0574
22107SOL    HW268061   0.880   0.307   7.337  0.9095 -1.8725 -2.9445
22108SOL     OW68062   9.485   5.537   3.206  0.0520  0.0729  0.3723
22108SOL    HW168063   9.495   5.482   3.129 -0.5610 -0.0963  0.4033
22108SOL    HW268064   9.508   5.481   3.279 -0.2547 -0.0482  0.3784
22109SOL     OW68065   0.147   4.983   6.881 -0.0814 -0.2892 -0.2637
22109SOL    HW168066   0.071   4.933   6.851 -0.7596  0.4709  0.1546
22109SOL    HW268067   0.203   4.990   6.804 -0.1506 -1.3559 -0.4233
22110SOL     OW68068   3.045   5.550   3.011 -0.2529 -0.3479 -0.6045
22110SOL    HW168069   3.069   5.625   3.066  0.3329  0.9362 -2.5421
22110SOL    HW268070   2.998   5.491   3.071  2.0821  0.0317  1.7645
22111SOL     OW68071   1.899   0.164   2.051  0.1878  0.3933  0.2794
22111SOL    HW168072   1.945   0.126   1.977  0.0701 -0.7904  0.7944
22111SOL    HW268073   1.837   0.097   2.079  0.5154  0.6338  1.7027
22112SOL     OW68074   6.950   4.728   5.401  0.1376  0.0006  0.3751
22112SOL    HW168075   6.887   4.696   5.466  0.7660 -2.1446 -0.0072
22112SOL    HW268076   6.920   4.816   5.380 -2.6305 -0.8719  0.3478
22113SOL     OW68077   1.009   6.323   2.674  0.2169 -0.0688 -0.4563
22113SOL    HW168078   0.957   6.338   2.595  0.8784  0.8862 -0.7186
22113SOL    HW268079   0.971   6.381   2.740 -0.7613 -1.3344  0.1664
22114SOL     OW68080   2.904   5.892   5.995 -0.5778  0.3919 -0.1239
22114SOL    HW168081   2.842   5.962   6.017 -1.7588 -0.1176 -1.6524
22114SOL    HW268082   2.902   5.833   6.070  0.3591  1.9004  1.1552
22115SOL     OW68083   1.048   5.469   6.333 -0.3481  0.5365 -0.6010
22115SOL    HW168084   0.991   5.453   6.257  0.3280 -0.2824 -0.9541
22115SOL    HW268085   1.111   5.397   6.331 -1.3814 -0.5455  1.7725
22116SOL     OW68086   3.518   7.182   5.034 -0.4544 -0.1417  0.6919
22116SOL    HW168087   3.498   7.185   5.127 -2.7027 -0.4516  0.2759
22116SOL    HW268088   3.452   7.123   4.997  0.8619 -0.6398 -1.0002
22117SOL     OW68089   0.841   8.151   3.853 -0.6574  0.1418  0.3898
22117SOL    HW168090   0.821   8.089   3.783  1.3694 -1.4706  1.1337
22117SOL    HW268091   0.818   8.104   3.933  0.2406  0.6245  0.9492
22118SOL     OW68092   7.974   9.448   7.345 -0.0735  0.5863  0.3265
22118SOL    HW168093   7.886   9.486   7.340 -0.6713 -0.7605  0.3026
22118SOL    HW268094   7.961   9.354   7.337  1.3082  0.2943  1.1310
22119SOL     OW68095   5.498   3.432   7.628 -0.3426  0.8551  0.0438
22119SOL    HW168096   5.459   3.344   7.624  0.9541  0.2274  0.6117
22119SOL    HW268097   5.423   3.491   7.621 -1.1746 -0.2765 -1.1591
22120SOL     OW68098   7.490   3.284   6.113  0.6216  0.0278 -0.2561
22120SOL    HW168099   7.551   3.224   6.156  0.4827 -0.6744 -1.0258
22120SOL    HW268100   7.446   3.329   6.185  0.0186 -1.4954  0.3522
22121SOL     OW68101   5.653   5.149   5.158 -0.1512 -0.0502  0.2507
22121SOL    HW168102   5.651   5.232   5.205  0.1681  0.2770 -0.2959
22121SOL    HW268103   5.745   5.138   5.134 -0.3710 -0.0022 -0.6461
22122SOL     OW68104   8.379   2.173   2.149 -0.3648  0.2013 -0.4409
22122SOL    HW168105   8.309   2.237   2.133 -0.2651  0.4763  0.1763
22122SOL    HW268106   8.401   2.185   2.242  0.7578  0.3773 -0.7161
22123SOL     OW68107   3.932   5.412   8.403 -0.0185  0.2557  0.5685
22123SOL    HW168108   3.849   5.396   8.358 -1.0253  0.5581  2.2486
22123SOL    HW268109   3.927   5.360   8.483  2.2016 -1.1526 -0.1296
22124SOL     OW68110   2.353   0.519   4.422 -0.4538  0.6732 -0.4458
22124SOL    HW168111   2.407   0.544   4.496  0.8995  0.3266 -1.2651
22124SOL    HW268112   2.376   0.581   4.353  0.6874 -0.8500 -1.5353
22125SOL     OW68113   0.380   0.134   1.554 -0.6558 -0.0595  0.0955
22125SOL    HW168114   0.398   0.040   1.555 -1.8261 -0.3233  2.2278
22125SOL    HW268115   0.288   0.141   1.529 -0.3943  0.6002 -0.7481
22126SOL     OW68116   0.285   4.052   3.922  0.2084  0.8522  0.2069
22126SOL    HW168117   0.286   3.991   3.849 -1.4029  0.3088  0.6072
22126SOL    HW268118   0.193   4.073   3.936  0.2789 -0.2460  3.0234
22127SOL     OW68119   0.438   0.408   4.035 -0.0209  0.3760  0.2673
22127SOL    HW168120   0.375   0.427   4.104 -1.0678 -2.6178  0.2448
22127SOL    HW268121   0.385   0.394   3.957  0.6680 -1.6400  0.1197
22128SOL     OW68122   3.050   0.950   4.412 -0.2003  0.4386 -0.0768
22128SOL    HW168123   2.978   0.978   4.468 -1.5111 -1.9523 -0.4271
22128SOL    HW268124   3.044   0.854   4.411  1.6807  0.2641 -1.8381
22129SOL     OW68125   7.917   9.438   0.570 -0.7840 -0.5249 -0.3621
22129SOL    HW168126   7.963   9.521   0.555 -1.4425 -0.0892 -0.0060
22129SOL    HW268127   7.971   9.373   0.525  0.0924 -0.0036 -0.1040
22130SOL     OW68128   9.358   1.686   1.086 -0.1334  0.2510  0.3674
22130SOL    HW168129   9.321   1.598   1.087 -1.2345  0.6990  0.0324
22130SOL    HW268130   9.383   1.702   1.177 -0.4554 -0.1944  0.5384
22131SOL     OW68131   0.364   4.299   1.827 -0.3192  0.4356 -0.3002
22131SOL    HW168132   0.286   4.310   1.881 -0.4665  0.1039 -0.4428
22131SOL    HW268133   0.408   4.384   1.830 -1.0405  0.8373 -0.7733
22132SOL     OW68134   0.114   9.075   8.396  0.3516  0.2027 -0.1025
22132SOL    HW168135   0.122   9.065   8.301 -0.5543 -1.3831 -0.0368
22132SOL    HW268136   0.043   9.138   8.407  0.3698  0.2890 -0.4625
22133SOL     OW68137   6.260   9.423   0.288 -0.6267 -0.1430 -0.0439
22133SOL    HW168138   6.199   9.398   0.356  0.3018 -1.1870  0.4512
22133SOL    HW268139   6.254   9.352   0.223  2.2330 -2.0291  1.4991
22134SOL     OW68140   7.010   8.869   2.825  0.2044  0.6310  0.0032
22134SOL    HW168141   7.031   8.958   2.796  0.2261 -0.0382 -2.1964
22134SOL    HW268142   6.933   8.880   2.881  0.1279  2.0229 -0.3306
22135SOL     OW68143   2.756   1.521   1.352  0.1251 -0.6310  0.3232
22135SOL    HW168144   2.750   1.468   1.273 -0.2167  2.1337 -1.6853
22135SOL    HW268145   2.710   1.472   1.419 -0.3579 -2.6939 -1.4270
22136SOL     OW68146   3.056   8.150   6.335  0.4450 -0.3727 -0.6278
22136SOL    HW168147   2.977   8.153   6.281  0.4360 -0.3319 -0.6120
22136SOL    HW268148   3.117   8.209   6.291  0.5387 -0.5630 -0.7562
22137SOL     OW68149   2.014   4.291   1.129  0.2073 -0.0657 -0.0340
22137SOL    HW168150   1.962   4.261   1.054  0.1073  1.0906 -0.4580
22137SOL    HW268151   2.101   4.306   1.094  1.2023 -3.0564  0.9175
22138SOL     OW68152   8.783   5.949   0.905 -0.3633 -0.3828  0.0234
22138SOL    HW168153   8.865   5.903   0.919  0.3486  0.2735 -1.6737
22138SOL    HW268154   8.809   6.034   0.868 -1.7590  0.2394  0.3900
22139SOL     OW68155   0.218   8.544   2.554  0.5613 -0.8461 -0.1226
22139SOL    HW168156   0.251   8.582   2.635  1.3688  0.0680 -0.8528
22139SOL    HW268157   0.297   8.521   2.504  0.2614  2.3080 -2.3451
22140SOL     OW68158   4.201   3.459   6.029 -0.2122  0.3186  0.4829
22140SOL    HW168159   4.168   3.413   5.952  1.2220  1.5592 -0.9634
22140SOL    HW268160   4.291   3.428   6.040  0.0229  1.0852  0.8595
22141SOL     OW68161   4.857   0.837   5.173  0.7342 -0.0721  0.0737
22141SOL    HW168162   4.871   0.822   5.080  1.3902 -3.8269  0.6128
22141SOL    HW268163   4.944   0.827   5.212  0.1048 -1.1248  1.2907
22142SOL     OW68164   4.765   8.880   6.076  0.3606  0.3805 -0.8506
22142SOL    HW168165   4.849   8.874   6.123  0.1708  0.6509 -0.4678
22142SOL    HW268166   4.699   8.873   6.145 -0.0011 -2.0373 -1.3600
22143SOL     OW68167   3.566   5.447   4.903 -0.0828 -0.2487  0.1263
22143SOL    HW168168   3.564   5.438   4.998  1.9567 -4.1140 -0.0218
22143SOL    HW268169   3.483   5.410   4.873 -0.5503  0.6038  0.3298
22144SOL     OW68170   3.297   8.958   8.773 -0.1740  0.3279  0.0681
22144SOL    HW168171   3.364   8.928   8.835  0.0547  0.4424 -0.1229
22144SOL    HW268172   3.291   9.052   8.788 -1.9440  0.0205  1.7103
22145SOL     OW68173   4.316   1.077   4.239 -0.5390  0.3034 -0.1554
22145SOL    HW168174   4.399   1.124   4.233  0.3685 -1.2607 -0.5029
22145SOL    HW268175   4.266   1.125   4.306  1.5309  0.0095  1.7239
22146SOL     OW68176   1.815   8.013   5.416 -0.0769  0.3123  0.4933
22146SOL    HW168177   1.765   8.094   5.427  1.7942  1.4435  1.0662
22146SOL    HW268178   1.782   7.956   5.485 -0.0251  1.3449  1.4134
22147SOL     OW68179   4.487   5.204   0.010 -0.4980  0.5198 -0.2486
22147SOL    HW168180   4.555   5.154   0.054 -0.8678  0.7837  0.6453
22147SOL    HW268181   4.479   5.285   0.061 -0.9483  0.8263 -0.7871
22148SOL     OW68182   2.284   4.542   5.967  0.3561 -1.0455 -0.1876
22148SOL    HW168183   2.234   4.497   5.899  0.3474 -0.9764 -0.2270
22148SOL    HW268184   2.217   4.578   6.026  0.3547 -0.7864 -0.3470
22149SOL     OW68185   6.775   0.391   4.490 -0.1553  0.0520 -0.2854
22149SOL    HW168186   6.854   0.436   4.520 -0.0018  0.2038 -0.9187
22149SOL    HW268187   6.709   0.414   4.555 -0.0808  1.1937 -0.6026
22150SOL     OW68188   5.599   4.553   1.502 -0.2401  0.2679 -0.3515
22150SOL    HW168189   5.513   4.567   1.541 -0.7032  1.6617 -1.7647
22150SOL    HW268190   5.648   4.504   1.568 -1.2711  1.7123  1.5893
22151SOL     OW68191   5.946   8.671   7.491 -0.1854  0.0340  0.0601
22151SOL    HW168192   6.023   8.649   7.437 -1.2949 -0.8655 -1.2382
22151SOL    HW268193   5.963   8.760   7.521  0.9474  0.1969 -0.9538
22152SOL     OW68194   0.011   7.682   5.251  0.3515 -0.1602 -0.1550
22152SOL    HW168195   0.070   7.726   5.313 -1.9488 -0.0445  2.0833
22152SOL    HW268196   0.030   7.589   5.261  0.6571 -0.0821  0.0053
22153SOL     OW68197   5.076   8.130   0.430 -0.5153  0.4882 -0.5660
22153SOL    HW168198   5.162   8.107   0.396 -0.5172  0.0695 -0.2967
22153SOL    HW268199   5.068   8.224   0.414  0.2366  0.6475 -0.0527
22154SOL     OW68200   8.110   9.103   8.431  0.4345 -0.7298 -0.1534
22154SOL    HW168201   8.068   9.029   8.476 -0.7762  0.8482  1.4348
22154SOL    HW268202   8.038   9.160   8.406  1.2117 -0.8010 -2.8780
22155SOL     OW68203   0.663   1.949   0.579 -0.2974 -0.3747 -0.2600
22155SOL    HW168204   0.748   1.965   0.539 -0.5643  0.4765 -0.5023
22155SOL    HW268205   0.683   1.905   0.662  0.2437 -2.4423 -1.4255
22156SOL     OW68206   3.147   1.284   3.136 -0.4193  0.1348  1.0306
22156SOL    HW168207   3.087   1.239   3.196 -1.4173  1.1212  0.7853
22156SOL    HW268208   3.091   1.320   3.068  0.5868  0.0370  0.1290
22157SOL     OW68209   6.355   1.055   3.596  0.3771 -0.2344  0.2198
22157SOL    HW168210   6.288   0.995   3.630  1.6180 -0.0781  3.2367
22157SOL    HW268211   6.352   1.130   3.655  1.4889  0.9422 -1.1614
22158SOL     OW68212   4.945   9.289   4.619  0.0186  1.0415  0.1229
22158SOL    HW168213   4.927   9.331   4.535  5.9140  0.8229 -1.7582
22158SOL    HW268214   4.925   9.197   4.605 -1.6218  1.3803  0.0272
22159SOL     OW68215   2.664   6.864   3.449 -0.2324 -0.6566  0.3424
22159SOL    HW168216   2.715   6.803   3.502 -0.7466 -0.7220  0.7597
22159SOL    HW268217   2.705   6.859   3.362  0.3394 -0.8636  0.6168
22160SOL     OW68218   5.288   2.519   7.317  0.0961  0.1918  0.1843
22160SOL    HW168219   5.247   2.534   7.231 -0.2992 -2.6602 -0.2470
22160SOL    HW268220   5.214   2.519   7.378 -0.1686 -1.4243 -0.0786
22161SOL     OW68221   0.779   2.367   8.733  0.6087 -0.1404 -0.1660
22161SOL    HW168222   0.691   2.367   8.770  1.1096  1.0892  1.1169
22161SOL    HW268223   0.835   2.333   8.803  1.2820  0.0323 -0.6046
22162SOL     OW68224   1.778   5.770   9.238 -0.1081 -0.1092 -0.2542
22162SOL    HW168225   1.687   5.771   9.210  0.1282  1.0305 -1.0645
22162SOL    HW268226   1.785   5.843   9.300  0.3963  0.2857 -0.7558
22163SOL     OW68227   1.956   3.743   3.986 -0.5992  0.5833 -0.3895
22163SOL    HW168228   2.008   3.692   3.924  1.0897  0.9197  0.6694
22163SOL    HW268229   1.911   3.677   4.039 -0.1979  0.2464 -0.4618
22164SOL     OW68230   4.401   5.814   1.871 -0.2486  0.4295 -0.2307
22164SOL    HW168231   4.471   5.765   1.913 -0.5688  0.0301 -0.1504
22164SOL    HW268232   4.414   5.799   1.778 -2.0753 -2.3516 -0.1709
22165SOL     OW68233   5.699   2.328   1.808 -0.1356 -0.4487 -0.4526
22165SOL    HW168234   5.613   2.368   1.819  0.3777  0.4041  0.7343
22165SOL    HW268235   5.709   2.316   1.714 -1.9394 -1.4829 -0.5498
22166SOL     OW68236   8.455   6.889   8.988 -0.2923  0.3217 -0.0245
22166SOL    HW168237   8.470   6.843   8.906 -0.1636 -1.6847  1.0635
22166SOL    HW268238   8.492   6.832   9.055 -2.1710  0.8935  1.6167
22167SOL     OW68239   7.631   3.093   8.047  0.1187 -0.4290 -0.4238
22167SOL    HW168240   7.544   3.063   8.075  0.7363 -0.4344  1.7078
22167SOL    HW268241   7.635   3.072   7.954 -2.3653  0.0845 -0.7311
22168SOL     OW68242   6.122   4.659   5.750  0.0439  0.3539  0.2985
22168SOL    HW168243   6.075   4.612   5.681 -0.9207  0.3942  0.9084
22168SOL    HW268244   6.087   4.624   5.832  1.4910 -0.0178  0.7961
22169SOL     OW68245   5.368   8.544   9.342 -0.6392  0.5126  0.0499
22169SOL    HW168246   5.402   8.457   9.361  0.1944  1.1013  1.4087
22169SOL    HW268247   5.276   8.541   9.369 -0.2923  0.3908  1.2954
22170SOL     OW68248   1.541   6.591   0.355 -0.0298  0.4823  0.1992
22170SOL    HW168249   1.524   6.677   0.395  0.8201  0.9845 -0.4914
22170SOL    HW268250   1.548   6.531   0.429 -1.6830  0.8047  0.6508
22171SOL     OW68251   2.238   5.277   7.001 -0.0124 -0.3330  0.0921
22171SOL    HW168252   2.303   5.331   7.045 -1.7415  1.1513  0.9815
22171SOL    HW268253   2.288   5.207   6.958  2.3112  1.8253 -0.9235
22172SOL     OW68254   9.282   0.984   7.011  0.3532 -0.3143 -0.4407
22172SOL    HW168255   9.204   0.994   7.066 -1.1050  2.3488 -2.6911
22172SOL    HW268256   9.248   0.951   6.927  1.7817  0.0608 -1.1986
22173SOL     OW68257   0.386   4.820   5.534 -0.4541 -0.2099  0.0686
22173SOL    HW168258   0.411   4.862   5.451 -0.9951 -0.2384 -0.1175
22173SOL    HW268259   0.291   4.809   5.527 -0.6208  0.5095  1.0318
22174SOL     OW68260   2.635   1.799   3.268 -0.0467  0.5242  0.1438
22174SOL    HW168261   2.723   1.830   3.290  0.8238 -1.9108  0.4263
22174SOL    HW268262   2.578   1.844   3.330  1.2053  0.9304  1.0631
22175SOL     OW68263   3.293   2.969   0.477 -0.0411 -0.1422  0.4730
22175SOL    HW168264   3.338   2.894   0.437  0.5241 -0.6224  1.9333
22175SOL    HW268265   3.200   2.953   0.459  0.0350 -1.4121  1.0555
22176SOL     OW68266   7.042   0.348   5.487 -0.3545 -0.2154 -0.1588
22176SOL    HW168267   7.090   0.265   5.485  0.6640  0.1983  2.6035
22176SOL    HW268268   7.089   0.404   5.425 -0.0705 -1.1788 -0.8478
22177SOL     OW68269   8.673   1.878   6.698  0.1150  0.3425  0.1647
22177SOL    HW168270   8.579   1.890   6.701  0.1212  0.2551  1.0278
22177SOL    HW268271   8.707   1.933   6.769  0.5424 -0.9981  1.0499
22178SOL     OW68272   4.727   2.590   2.189 -0.2528 -0.5654 -0.4775
22178SOL    HW168273   4.708   2.555   2.102 -0.8407  0.2227 -0.6717
22178SOL    HW268274   4.747   2.682   2.174  1.7714 -0.8722 -0.0330
22179SOL     OW68275   1.289   7.416   2.399  0.8422 -0.6812 -0.1719
22179SOL    HW168276   1.321   7.366   2.324  0.5532 -0.1133 -0.6849
22179SOL    HW268277   1.366   7.466   2.428  0.6576  0.0288 -0.8661
22180SOL     OW68278   5.003   4.763   7.833  0.0829  0.2497  0.0154
22180SOL    HW168279   5.055   4.824   7.885  0.1927  0.2157 -0.0530
22180SOL    HW268280   5.033   4.676   7.860  0.8909  0.2477 -0.8555
22181SOL     OW68281   8.246   0.673   1.452 -0.3370 -0.5793  0.2099
22181SOL    HW168282   8.239   0.617   1.530  1.5875 -0.9801  0.1396
22181SOL    HW268283   8.274   0.758   1.485  2.6499 -1.3245 -0.1420
22182SOL     OW68284   5.785   5.538   8.976  0.4333  0.2986  0.1005
22182SOL    HW168285   5.692   5.552   8.962  0.5807  0.0347 -1.3361
22182SOL    HW268286   5.793   5.520   9.069 -0.9181  0.5293  0.2825
22183SOL     OW68287   5.394   7.097   0.093  0.0603 -0.3807 -0.2922
22183SOL    HW168288   5.416   7.190   0.081 -0.1389 -0.4229 -1.0910
22183SOL    HW268289   5.401   7.082   0.187 -0.7869  0.6687 -0.0390
22184SOL     OW68290   3.031   6.787   8.836  0.0082 -0.2139  0.1997
22184SOL    HW168291   3.109   6.734   8.818 -0.5895 -1.1285  0.2310
22184SOL    HW268292   3.063   6.877   8.838  0.7272 -0.3840 -1.7626
22185SOL     OW68293   1.007   6.386   6.122  0.0896  0.0096 -0.1885
22185SOL    HW168294   0.920   6.346   6.125  0.3297 -0.5071  0.0863
22185SOL    HW268295   0.992   6.474   6.088 -0.7270  0.3948  1.0981
22186SOL     OW68296   1.060   4.230   5.754  0.2427  0.0173  0.3354
22186SOL    HW168297   1.115   4.300   5.717 -0.8954 -0.0465 -1.5921
22186SOL    HW268298   1.015   4.272   5.827  0.4034  1.0005 -0.1093
22187SOL     OW68299   2.498   5.296   8.047  0.3003  0.4206 -0.2151
22187SOL    HW168300   2.474   5.301   7.955  2.9858 -0.5365 -1.0775
22187SOL    HW268301   2.570   5.359   8.057  0.7426 -0.2195  0.9491
22188SOL     OW68302   6.417   8.238   9.126 -0.5253 -0.2352  0.0719
22188SOL    HW168303   6.428   8.319   9.177  0.7690 -0.0940 -0.4189
22188SOL    HW268304   6.403   8.171   9.193  0.7291  0.0178  0.6287
22189SOL     OW68305   3.524   8.967   4.732 -0.5222  0.0274  0.0782
22189SOL    HW168306   3.485   8.886   4.765  2.1483 -0.7249  1.7278
22189SOL    HW268307   3.467   9.036   4.763 -2.0066 -1.1098 -0.0078
22190SOL     OW68308   6.112   6.690   7.166 -0.1573  0.0117  0.5997
22190SOL    HW168309   6.122   6.597   7.146  2.5922  0.2198  0.5336
22190SOL    HW268310   6.202   6.721   7.181 -0.7577  3.0395 -1.1029
22191SOL     OW68311   6.096   5.250   2.098 -0.1049 -0.5706  0.5204
22191SOL    HW168312   6.178   5.201   2.092  1.2417  1.4569  1.3648
22191SOL    HW268313   6.119   5.339   2.071 -1.9503  0.1429  1.1528
22192SOL     OW68314   9.575   6.395   3.764  0.0546 -0.1928  0.1697
22192SOL    HW168315   9.629   6.424   3.690 -0.3028  0.0505  0.0015
22192SOL    HW268316   9.571   6.300   3.755 -1.2088 -0.0604 -0.9875
22193SOL     OW68317   3.765   3.554   4.672 -0.5087  0.2117 -0.0412
22193SOL    HW168318   3.691   3.560   4.612 -0.9769 -0.4700  0.4543
22193SOL    HW268319   3.756   3.631   4.729 -1.0459 -0.0523  0.2407
22194SOL     OW68320   5.861   5.366   9.258 -0.0602  0.1771  0.1781
22194SOL    HW168321   5.827   5.393   9.343  1.4408  1.9896  0.2574
22194SOL    HW268322   5.949   5.333   9.277 -0.0241 -0.1873 -0.5772
22195SOL     OW68323   7.733   6.765   6.028 -0.2852 -0.0838 -0.1401
22195SOL    HW168324   7.719   6.717   6.110 -0.5779  0.2450  0.0072
22195SOL    HW268325   7.645   6.790   6.000 -0.1980 -0.3460 -0.6476
22196SOL     OW68326   0.948   8.195   0.797 -0.0092  0.6041 -0.5119
22196SOL    HW168327   0.969   8.251   0.722 -1.2715  0.3838 -1.0598
22196SOL    HW268328   0.855   8.175   0.787  0.2609 -1.1036  0.0018
22197SOL     OW68329   8.216   0.356   3.822 -0.3124  0.0457 -1.1133
22197SOL    HW168330   8.193   0.263   3.818 -1.9208  0.3281  0.2994
22197SOL    HW268331   8.135   0.402   3.798  0.2631  1.0923 -1.1201
22198SOL     OW68332   6.281   9.569   9.019  0.1788 -0.5537  0.2567
22198SOL    HW168333   6.249   9.659   9.026 -1.7871 -1.2472  0.6751
22198SOL    HW268334   6.324   9.552   9.103  0.7229  0.0337  0.1068
22199SOL     OW68335   8.543   2.885   0.227 -0.1926 -0.3342  0.1200
22199SOL    HW168336   8.496   2.802   0.219 -0.8236 -0.0482  0.7229
22199SOL    HW268337   8.571   2.887   0.319  2.0062 -1.0185 -0.4810
22200SOL     OW68338   2.262   4.821   0.301  0.4203 -0.3188  0.1041
22200SOL    HW168339   2.352   4.844   0.275 -0.1495 -0.5298 -2.2832
22200SOL    HW268340   2.268   4.730   0.331  1.2584  0.2067  1.6773
22201SOL     OW68341   4.742   9.430   0.638  0.1562 -0.1689 -0.6246
22201SOL    HW168342   4.691   9.389   0.708 -0.4215 -0.6041 -1.2965
22201SOL    HW268343   4.745   9.523   0.662 -0.4201 -0.2411 -0.2548
22202SOL     OW68344   9.159   3.865   8.984  0.0860 -0.0238  0.1153
22202SOL    HW168345   9.233   3.874   9.044  0.7775 -1.4476 -0.4834
22202SOL    HW268346   9.102   3.800   9.025 -0.9236  1.1367  0.6230
22203SOL     OW68347   8.687   1.417   9.564  0.0982  0.5173 -0.0543
22203SOL    HW168348   8.684   1.457   9.651 -0.4574  1.8953 -0.6876
22203SOL    HW268349   8.688   1.323   9.582  1.7531  0.7598  1.4886
22204SOL     OW68350   2.608   6.805   9.054  0.1588 -0.2273 -0.2207
22204SOL    HW168351   2.524   6.818   9.010 -1.0639 -1.5309  1.5824
22204SOL    HW268352   2.674   6.833   8.990 -1.6357  1.0349 -1.6053
22205SOL     OW68353   4.405   6.530   9.089 -0.0083  0.2768 -0.1096
22205SOL    HW168354   4.398   6.578   9.172 -1.8540  0.4792 -0.3585
22205SOL    HW268355   4.419   6.598   9.023 -0.7111  0.3115 -0.2258
22206SOL     OW68356   8.585   8.522   3.843 -0.4490 -0.6085  0.3975
22206SOL    HW168357   8.667   8.528   3.892 -0.7352 -1.7671  1.0670
22206SOL    HW268358   8.544   8.608   3.852  1.1508  0.3406 -0.8260
22207SOL     OW68359   0.383   6.935   3.203  0.1528  0.0559  0.2199
22207SOL    HW168360   0.430   6.978   3.275 -1.4707 -0.3570  1.6027
22207SOL    HW268361   0.447   6.929   3.133  0.9879  3.1025  0.5777
22208SOL     OW68362   5.173   0.061   2.256  0.9680  0.0295  0.3988
22208SOL    HW168363   5.235   0.127   2.224  0.5255  0.6312  0.7547
22208SOL    HW268364   5.088   0.105   2.253  0.6007 -0.6888  0.2032
22209SOL     OW68365   6.852   4.065   4.459  0.2653 -0.1259  0.2303
22209SOL    HW168366   6.757   4.065   4.459  0.2511 -1.3044  0.9460
22209SOL    HW268367   6.876   4.088   4.369 -0.7162 -1.9094 -0.5237
22210SOL     OW68368   3.821   3.628   0.914 -0.9634  0.3024  0.5679
22210SOL    HW168369   3.821   3.724   0.910 -0.9777  0.3093  0.7281
22210SOL    HW268370   3.731   3.604   0.891 -0.5285  0.2523 -1.1581
22211SOL     OW68371   8.365   2.896   3.711 -0.1487  0.1424  0.1166
22211SOL    HW168372   8.426   2.893   3.637 -0.2220 -1.5356  0.0764
22211SOL    HW268373   8.279   2.910   3.671  0.0984  1.8394  0.1198
22212SOL     OW68374   9.232   0.184   6.373  0.6894 -0.2968 -0.1270
22212SOL    HW168375   9.250   0.264   6.421 -0.3616 -0.5095  0.6359
22212SOL    HW268376   9.307   0.127   6.393  0.2815 -0.3746  1.2477
22213SOL     OW68377   0.395   4.094   2.196  0.0509  0.1753  0.3426
22213SOL    HW168378   0.459   4.120   2.130  0.7811  0.1831  1.0374
22213SOL    HW268379   0.425   4.008   2.226 -0.9453 -0.3720 -0.1712
22214SOL     OW68380   9.314   3.210   4.228  0.0646 -0.1466  0.0053
22214SOL    HW168381   9.271   3.126   4.210  1.0839 -0.6606 -0.1008
22214SOL    HW268382   9.324   3.212   4.323 -2.8722  1.3526  0.4147
22215SOL     OW68383   0.662   9.249   1.265 -0.1975  0.4398  0.9790
22215SOL    HW168384   0.733   9.228   1.325  0.3935 -0.1611  0.0956
22215SOL    HW268385   0.641   9.341   1.284  0.7810  0.6093  1.2894
22216SOL     OW68386   6.848   4.097   3.665 -1.1404 -0.0806  0.1094
22216SOL    HW168387   6.796   4.099   3.745 -0.8242  1.8926  0.3245
22216SOL    HW268388   6.885   4.009   3.663 -0.1507  0.1740  2.7961
22217SOL     OW68389   7.953   4.608   6.211  0.2520 -0.0609  0.8373
22217SOL    HW168390   7.861   4.613   6.184  0.6088  1.6800 -0.2015
22217SOL    HW268391   7.956   4.653   6.296  0.2372  0.4868  0.5537
22218SOL     OW68392   6.857   6.207   6.871 -0.0845 -0.0957  0.4446
22218SOL    HW168393   6.810   6.124   6.867  2.0399 -1.3873  0.9536
22218SOL    HW268394   6.793   6.272   6.843 -1.7873 -1.9024 -0.0567
22219SOL     OW68395   4.864   7.032   1.957 -0.2633  0.2378  0.2581
22219SOL    HW168396   4.888   6.989   1.875  0.0435  0.8903  0.0017
22219SOL    HW268397   4.770   7.016   1.965  0.2870 -3.0099  1.6622
22220SOL     OW68398   1.158   8.496   1.760 -0.2724 -1.1077 -0.4751
22220SOL    HW168399   1.098   8.491   1.685 -2.5427  3.4313  0.6289
22220SOL    HW268400   1.219   8.566   1.737 -0.0868 -0.6468  1.2624
22221SOL     OW68401   3.840   5.103   8.082  0.6516 -0.2384  0.3258
22221SOL    HW168402   3.828   5.133   7.992 -0.9235 -1.1870  0.1807
22221SOL    HW268403   3.902   5.165   8.120 -0.5020  1.6558 -0.6983
22222SOL     OW68404   4.346   2.224   0.272  0.5001 -0.0265 -0.3800
22222SOL    HW168405   4.344   2.297   0.333  1.2140 -1.2325  1.1371
22222SOL    HW268406   4.253   2.206   0.254  0.3090  1.0210 -0.5300
22223SOL     OW68407   3.588   7.924   2.634 -0.2400 -0.6410  0.2196
22223SOL    HW168408   3.616   7.964   2.552  0.7679 -0.6184  0.5725
22223SOL    HW268409   3.513   7.870   2.609  0.5398 -1.2615 -0.8599
22224SOL     OW68410   6.039   3.259   0.677 -0.0936 -0.3986  0.0136
22224SOL    HW168411   6.030   3.214   0.593  1.6006 -1.6807  0.4833
22224SOL    HW268412   6.100   3.206   0.727 -0.0068  1.0755  1.5654
22225SOL     OW68413   5.800   6.502   2.782 -0.0543  0.2060 -0.0161
22225SOL    HW168414   5.709   6.502   2.755  0.0051  0.6045 -0.2188
22225SOL    HW268415   5.797   6.513   2.877 -0.2343 -0.3690  0.0456
22226SOL     OW68416   9.293   3.334   8.892  0.0048 -0.4058 -0.3476
22226SOL    HW168417   9.199   3.351   8.893 -0.0296 -0.5770 -0.6364
22226SOL    HW268418   9.301   3.240   8.878  0.2014 -0.6242  1.0958
22227SOL     OW68419   2.645   4.214   5.146  0.0857 -0.3538  0.1807
22227SOL    HW168420   2.626   4.307   5.162 -0.3873 -0.5368  0.7236
22227SOL    HW268421   2.569   4.181   5.098  0.2985 -0.4406 -0.1010
22228SOL     OW68422   1.671   3.657   8.591 -0.6259  0.0430 -0.1972
22228SOL    HW168423   1.642   3.620   8.675 -0.5426  0.3329 -0.0418
22228SOL    HW268424   1.695   3.580   8.539  0.2186 -0.0862  0.3712
22229SOL     OW68425   7.699   5.443   1.003 -0.1392  0.1257 -0.4278
22229SOL    HW168426   7.750   5.481   0.932 -0.1309  1.1237  0.1000
22229SOL    HW268427   7.608   5.458   0.977 -0.1676  2.7192  0.8721
22230SOL     OW68428   6.932   1.035   6.244 -0.4318 -0.1553  0.2852
22230SOL    HW168429   6.989   0.975   6.196 -0.5577 -0.5497  0.6109
22230SOL    HW268430   6.943   1.008   6.336 -1.5673 -0.6171  0.3011
22231SOL     OW68431   1.134   9.476   8.069  0.0139 -0.0589 -0.2595
22231SOL    HW168432   1.223   9.446   8.090  0.3672  1.4860  0.5688
22231SOL    HW268433   1.101   9.410   8.008  1.9090 -0.3940 -1.0016
22232SOL     OW68434   6.602   0.236   5.076 -0.9367  0.2718  0.2777
22232SOL    HW168435   6.596   0.171   5.146 -0.8092  0.5475  0.5542
22232SOL    HW268436   6.612   0.319   5.123  1.5850  0.2311 -0.0473
22233SOL     OW68437   2.152   4.626   8.544 -0.1029  0.7373  0.8912
22233SOL    HW168438   2.128   4.579   8.624 -1.9642 -1.3334 -0.7472
22233SOL    HW268439   2.209   4.566   8.497  0.2973  1.5863  0.2592
22234SOL     OW68440   4.841   3.117   7.139 -0.0775  0.4853 -0.9574
22234SOL    HW168441   4.778   3.183   7.111  1.0265  1.4109 -1.3387
22234SOL    HW268442   4.796   3.034   7.126 -1.2673  1.1246 -1.0691
22235SOL     OW68443   4.907   9.018   4.890 -0.5142 -0.6850  0.1511
22235SOL    HW168444   4.824   9.044   4.851 -0.2041 -2.2175 -1.6740
22235SOL    HW268445   4.887   8.941   4.942 -0.3651 -0.6023  0.3328
22236SOL     OW68446   8.882   2.944   7.139 -0.0774  0.4180  0.1542
22236SOL    HW168447   8.888   2.893   7.220  1.1133  1.1772  0.5703
22236SOL    HW268448   8.947   2.903   7.081  2.4484  2.6203  1.2075
22237SOL     OW68449   5.376   8.474   8.903  0.4031  0.1652 -0.4830
22237SOL    HW168450   5.362   8.535   8.976 -1.3443  1.6271 -1.9282
22237SOL    HW268451   5.471   8.462   8.899  0.5315 -0.2342  2.1852
22238SOL     OW68452   6.644   7.516   7.217 -0.2415 -0.3971  0.4564
22238SOL    HW168453   6.656   7.480   7.128  1.7439  0.0241  0.4995
22238SOL    HW268454   6.594   7.596   7.204 -0.4275 -0.6169 -0.2324
22239SOL     OW68455   0.533   6.955   0.973 -0.0705 -0.0368 -0.6970
22239SOL    HW168456   0.627   6.954   0.987 -0.1657 -2.5775  0.3416
22239SOL    HW268457   0.519   6.897   0.897 -0.7773  0.7766 -1.2121
22240SOL     OW68458   9.341   3.243   6.763 -0.1832 -0.6422 -0.1288
22240SOL    HW168459   9.282   3.284   6.700  1.6663 -1.0075 -2.2307
22240SOL    HW268460   9.286   3.224   6.838 -1.6604  3.5259  0.1023
22241SOL     OW68461   2.211   7.902   4.434 -0.0516 -0.6208  0.0856
22241SOL    HW168462   2.223   7.813   4.402 -1.3091 -1.6130  2.1771
22241SOL    HW268463   2.262   7.905   4.515 -0.6188  0.3373  0.4247
22242SOL     OW68464   1.523   4.082   0.122 -0.4411 -0.5121 -0.3867
22242SOL    HW168465   1.532   4.057   0.214  0.5813 -0.7812 -0.5468
22242SOL    HW268466   1.564   4.010   0.074  0.4328  0.3486 -0.9694
22243SOL     OW68467   0.804   9.106   4.225 -0.0811 -0.0535 -0.3369
22243SOL    HW168468   0.799   9.044   4.298 -0.2446 -0.9161 -1.0580
22243SOL    HW268469   0.855   9.179   4.259 -0.5249 -0.2407  0.7770
22244SOL     OW68470   6.582   0.341   6.550 -0.3873 -0.2173 -0.7633
22244SOL    HW168471   6.545   0.420   6.511 -1.5625 -0.0970  0.5211
22244SOL    HW268472   6.673   0.364   6.569 -0.4391  0.4808 -1.3103
22245SOL     OW68473   3.320   2.274   6.132 -0.4958  0.2315  0.0732
22245SOL    HW168474   3.282   2.190   6.160 -1.3809  0.8144  0.6948
22245SOL    HW268475   3.387   2.293   6.198 -0.1129 -0.1136 -0.2164
22246SOL     OW68476   7.029   5.844   3.407 -0.1672 -0.3111 -0.0053
22246SOL    HW168477   7.063   5.924   3.447  2.0573 -1.0384 -0.3192
22246SOL    HW268478   7.036   5.859   3.313  1.1225 -1.1690 -0.0753
22247SOL     OW68479   5.553   2.105   2.284  0.0135 -0.2924 -0.2255
22247SOL    HW168480   5.552   2.193   2.320 -2.0274 -0.2265 -0.3482
22247SOL    HW268481   5.544   2.117   2.189 -0.1029 -0.6160 -0.2588
22248SOL     OW68482   1.404   5.950   4.931  0.0873  0.3944  0.2910
22248SOL    HW168483   1.337   5.888   4.962 -0.6931  1.5511  1.0254
22248SOL    HW268484   1.461   5.963   5.007  1.0267 -0.4173 -0.2672
22249SOL     OW68485   5.002   7.340   8.707 -0.5030 -0.2550  0.0104
22249SOL    HW168486   4.999   7.266   8.647 -0.0033 -1.0149  0.9046
22249SOL    HW268487   5.084   7.384   8.686  0.3687 -1.3328  1.0607
22250SOL     OW68488   4.740   1.592   4.784  0.0815 -0.7294 -0.5813
22250SOL    HW168489   4.696   1.671   4.751  3.3435  1.1007 -0.9831
22250SOL    HW268490   4.791   1.560   4.710 -0.5734 -2.8436 -0.1908
22251SOL     OW68491   8.541   1.828   0.054  0.5631 -0.5650 -0.1621
22251SOL    HW168492   8.466   1.852  -0.000  0.0317 -2.1266 -0.1693
22251SOL    HW268493   8.587   1.910   0.069 -1.9324  0.7371  1.0735
22252SOL     OW68494   4.067   5.318   6.658 -0.5302  0.0181 -0.1749
22252SOL    HW168495   4.092   5.237   6.702  0.4675  0.1965 -0.4041
22252SOL    HW268496   3.973   5.325   6.674 -0.3590 -0.3960  1.1419
22253SOL     OW68497   5.471   7.065   0.344  0.4046 -0.4310 -0.4631
22253SOL    HW168498   5.566   7.078   0.352  0.6440 -2.1443 -0.0665
22253SOL    HW268499   5.456   6.978   0.380 -1.5964  0.5224  1.2106
22254SOL     OW68500   0.137   6.072   4.326  0.0336 -0.1595  0.3770
22254SOL    HW168501   0.042   6.071   4.319  0.0345  0.4463  0.1403
22254SOL    HW268502   0.155   6.085   4.419 -0.1156 -0.4522  0.4446
22255SOL     OW68503   5.022   3.181   7.389 -0.1026  0.0849 -0.2423
22255SOL    HW168504   5.071   3.257   7.358 -0.1002  0.0744 -0.2641
22255SOL    HW268505   4.995   3.135   7.310  1.5829 -1.0128 -0.2304
22256SOL     OW68506   0.334   9.537   4.240 -0.3536 -0.1375  0.7996
22256SOL    HW168507   0.245   9.561   4.213 -0.4624 -1.9928 -0.6417
22256SOL    HW268508   0.340   9.566   4.331 -2.2218  0.5583  0.7399
22257SOL     OW68509   8.149   1.119   1.349  0.5261 -0.2778 -0.4341
22257SOL    HW168510   8.133   1.102   1.256 -0.6650 -1.3063 -0.0742
22257SOL    HW268511   8.208   1.048   1.376 -1.1548 -1.5464  0.1295
22258SOL     OW68512   5.654   0.251   4.381  0.0025 -0.1207  0.1299
22258SOL    HW168513   5.618   0.306   4.311  1.0571  1.2084  0.5757
22258SOL    HW268514   5.688   0.314   4.445  0.7907 -1.3091  0.9120
22259SOL     OW68515   6.109   1.625   7.882  0.0291 -0.0467  0.2127
22259SOL    HW168516   6.077   1.705   7.841 -2.3476 -0.3995  1.2114
22259SOL    HW268517   6.082   1.555   7.823 -1.0139 -0.3335  0.9835
22260SOL     OW68518   2.130   9.079   0.954  0.1085  0.4585 -0.1700
22260SOL    HW168519   2.141   9.027   0.874  3.4821  0.1700  0.3455
22260SOL    HW268520   2.182   9.158   0.938  2.3793 -0.4137  2.3237
22261SOL     OW68521   5.066   3.211   5.305  0.2026 -0.0062  0.2465
22261SOL    HW168522   5.018   3.252   5.232 -0.3252 -0.2604  0.4446
22261SOL    HW268523   5.047   3.118   5.296  0.2339 -0.0496  0.6386
22262SOL     OW68524   8.373   5.418   1.262 -0.6207 -0.1794 -0.1391
22262SOL    HW168525   8.387   5.324   1.254  0.3882 -0.3142  2.2853
22262SOL    HW268526   8.441   5.447   1.323 -0.3707  2.2882 -1.4859
22263SOL     OW68527   6.389   5.771   4.429 -0.6052  0.2130 -0.4601
22263SOL    HW168528   6.420   5.860   4.413 -1.6552  0.7722  0.4934
22263SOL    HW268529   6.445   5.716   4.374 -0.6473  1.5500 -1.9063
22264SOL     OW68530   9.227   5.972   9.384  0.0576  0.0044 -0.1598
22264SOL    HW168531   9.298   6.036   9.382  0.3843 -0.3592 -0.7626
22264SOL    HW268532   9.157   6.015   9.433  0.8470  0.1992  0.8381
22265SOL     OW68533   1.870   7.418   6.281  0.4875 -0.5858  0.0702
22265SOL    HW168534   1.934   7.479   6.319  0.6483  0.5107 -1.8231
22265SOL    HW268535   1.918   7.335   6.273  1.4040 -0.0112 -0.5260
22266SOL     OW68536   2.649   5.990   7.759 -0.2492  0.1834 -0.1849
22266SOL    HW168537   2.567   5.990   7.809 -0.3015 -0.4622 -0.2734
22266SOL    HW268538   2.705   5.928   7.805 -1.0650 -2.1321 -2.1652
22267SOL     OW68539   1.579   2.276   0.401 -0.1973 -0.0397 -0.1176
22267SOL    HW168540   1.504   2.335   0.398 -0.9133 -0.8562  0.8302
22267SOL    HW268541   1.598   2.266   0.494  1.5126  0.6425 -0.3672
22268SOL     OW68542   2.889   5.703   1.072  0.1873 -0.0468 -0.3976
22268SOL    HW168543   2.943   5.764   1.122 -0.8136 -0.6347  1.5208
22268SOL    HW268544   2.799   5.732   1.089 -0.2149 -0.7475 -1.2563
22269SOL     OW68545   4.785   8.775   8.806  0.0807 -0.2763 -0.2556
22269SOL    HW168546   4.841   8.765   8.728 -1.3456 -1.4339 -1.1833
22269SOL    HW268547   4.791   8.691   8.851 -0.5874 -0.2825 -0.1666
22270SOL     OW68548   1.516   2.841   9.393 -0.7139 -0.1015  0.1715
22270SOL    HW168549   1.567   2.819   9.471  1.0657 -0.3392 -1.0040
22270SOL    HW268550   1.455   2.769   9.383  1.5475 -2.0394 -0.6887
22271SOL     OW68551   1.633   6.175   7.834 -0.4473 -0.2559 -0.5377
22271SOL    HW168552   1.714   6.139   7.798  0.1875 -0.2987  0.8876
22271SOL    HW268553   1.648   6.270   7.837  0.6935 -0.4407  2.2793
22272SOL     OW68554   8.116   7.446   6.786  0.6128  0.5005  0.6994
22272SOL    HW168555   8.097   7.418   6.697  0.3998  1.1001  0.5598
22272SOL    HW268556   8.032   7.470   6.823  0.9801  2.7632  0.2074
22273SOL     OW68557   2.072   9.415   8.917  0.2382  0.3957 -0.0620
22273SOL    HW168558   2.103   9.501   8.889  1.2955  0.7890  2.1079
22273SOL    HW268559   2.129   9.353   8.870  2.4866  1.0433  1.6412
22274SOL     OW68560   2.384   9.499   9.376 -0.5208  0.4316  0.1662
22274SOL    HW168561   2.458   9.446   9.407  0.3057  0.8218 -1.0864
22274SOL    HW268562   2.326   9.505   9.452  0.1038 -0.9751  0.7844
22275SOL     OW68563   1.773   8.546   7.579 -0.3524  0.7354  0.2329
22275SOL    HW168564   1.806   8.461   7.551  0.4678  1.5079 -1.2446
22275SOL    HW268565   1.681   8.531   7.599 -0.3386 -0.3830 -0.5055
22276SOL     OW68566   7.824   8.520   1.249 -0.3283 -0.2187  0.1669
22276SOL    HW168567   7.793   8.593   1.196  1.4864  0.6603  0.2441
22276SOL    HW268568   7.913   8.545   1.275 -0.2315 -1.7604  1.5027
22277SOL     OW68569   3.063   3.688   4.020  0.0908  0.1933  0.5753
22277SOL    HW168570   3.044   3.672   4.112 -2.2392  1.2333  0.3612
22277SOL    HW268571   2.982   3.665   3.974  1.2912 -0.6206 -1.2867
22278SOL     OW68572   3.177   9.138   5.790  0.4070  0.1676  0.4405
22278SOL    HW168573   3.139   9.058   5.755  0.7410 -1.0623  2.7347
22278SOL    HW268574   3.218   9.112   5.872 -0.2853  2.8769  1.7464
22279SOL     OW68575   1.881   6.020   2.867 -0.4127 -0.8371 -0.0249
22279SOL    HW168576   1.902   6.114   2.873  0.0879 -1.0434  2.0117
22279SOL    HW268577   1.787   6.016   2.880 -0.0388 -0.8084  3.8388
22280SOL     OW68578   3.415   4.661   9.284  0.0370  0.4507  0.0582
22280SOL    HW168579   3.435   4.574   9.250 -1.5638 -0.8247  2.1480
22280SOL    HW268580   3.355   4.699   9.220 -0.8759 -0.8486  0.1060
22281SOL     OW68581   5.336   0.115   1.953  0.2930 -0.0614  0.3580
22281SOL    HW168582   5.319   0.165   2.033 -1.1073 -1.3094  0.8875
22281SOL    HW268583   5.338   0.181   1.884  0.1003  0.8965  1.2345
22282SOL     OW68584   3.002   0.583   4.149 -1.0601 -0.2398  0.7214
22282SOL    HW168585   3.087   0.540   4.155 -1.1450 -0.4453  0.4672
22282SOL    HW268586   2.939   0.512   4.159 -1.2029 -0.1973  0.1778
22283SOL     OW68587   2.384   5.558   0.683  0.2515  0.1705  0.1900
22283SOL    HW168588   2.458   5.569   0.742  0.7855  0.4179 -0.5170
22283SOL    HW268589   2.344   5.644   0.679  1.5506  0.7431 -1.5416
22284SOL     OW68590   4.170   1.107   1.107 -0.2709  0.2913 -0.6589
22284SOL    HW168591   4.088   1.058   1.108 -0.1654  0.1108 -0.7234
22284SOL    HW268592   4.210   1.091   1.192  0.6555 -1.2726 -1.3443
22285SOL     OW68593   2.111   5.525   9.074  0.2257 -0.5270  0.2454
22285SOL    HW168594   2.036   5.517   9.014  0.2475 -0.7515  0.2451
22285SOL    HW268595   2.162   5.597   9.040  0.7361 -1.2532 -0.5569
22286SOL     OW68596   5.064   4.409   1.081  0.2136  0.3119  0.6298
22286SOL    HW168597   5.110   4.387   1.162  0.1419 -1.1859  0.2764
22286SOL    HW268598   5.038   4.325   1.044 -0.2815  1.0058 -0.6521
22287SOL     OW68599   4.642   7.004   1.255 -0.6809 -0.0559 -0.3110
22287SOL    HW168600   4.631   7.023   1.162 -0.8697  0.6237 -0.1517
22287SOL    HW268601   4.601   7.078   1.300 -1.5348 -0.8841  0.3204
22288SOL     OW68602   1.661   6.424   2.272  0.0818 -0.3240 -0.4531
22288SOL    HW168603   1.644   6.518   2.274 -1.0624 -0.4953 -1.2501
22288SOL    HW268604   1.630   6.392   2.357  0.1346 -0.0314 -0.3234
22289SOL     OW68605   4.722   2.465   3.833 -0.1248  0.0080 -0.1695
22289SOL    HW168606   4.679   2.390   3.792  0.4752 -0.9698  0.9260
22289SOL    HW268607   4.651   2.514   3.875 -0.3772 -0.6744  0.2151
22290SOL     OW68608   7.994   8.998   2.777 -0.2897 -0.3714 -0.1166
22290SOL    HW168609   8.060   9.054   2.820 -1.2884  0.3929  0.4706
22290SOL    HW268610   8.044   8.925   2.742  0.6194 -1.0928  2.4368
22291SOL     OW68611   5.795   4.107   6.036 -0.0359 -0.5339  0.4448
22291SOL    HW168612   5.756   4.057   5.965 -0.4415 -0.8373  0.8741
22291SOL    HW268613   5.770   4.060   6.116  1.4186 -0.8792  0.7242
22292SOL     OW68614   6.740   8.103   3.112 -0.5773 -0.2875  0.0319
22292SOL    HW168615   6.707   8.046   3.182  1.2120 -0.0253  1.1757
22292SOL    HW268616   6.798   8.164   3.158  1.6006 -0.8541 -1.8198
22293SOL     OW68617   7.072   2.984   4.008 -0.2417 -0.0637  0.0501
22293SOL    HW168618   7.004   2.918   4.019 -1.6483  1.5589  1.8391
22293SOL    HW268619   7.148   2.950   4.056 -0.0182 -1.5126 -1.2646
22294SOL     OW68620   3.816   2.238   3.153 -0.2379  0.7761  0.5954
22294SOL    HW168621   3.910   2.219   3.154 -0.5577 -0.8665  1.7940
22294SOL    HW268622   3.806   2.310   3.215 -0.0230 -0.4764  2.1301
22295SOL     OW68623   5.401   7.558   3.265  1.0485 -0.0991 -0.4864
22295SOL    HW168624   5.392   7.468   3.234  0.4474  0.3119 -1.5553
22295SOL    HW268625   5.399   7.550   3.361  0.8655 -1.2028 -0.5650
22296SOL     OW68626   8.459   3.835   2.339  0.5472 -0.1917  0.6726
22296SOL    HW168627   8.394   3.876   2.396  0.4987  0.8387 -0.0983
22296SOL    HW268628   8.434   3.861   2.250  1.9523  0.1755  0.3529
22297SOL     OW68629   0.830   3.031   5.993 -0.4624  0.1177 -0.1524
22297SOL    HW168630   0.790   3.084   6.061 -2.0393 -1.0590 -0.1221
22297SOL    HW268631   0.857   2.950   6.037  1.7973  0.7614 -0.2170
22298SOL     OW68632   3.053   7.285   2.115 -0.1881 -0.0557  0.1781
22298SOL    HW168633   3.041   7.190   2.110 -2.4222  0.0474  2.0859
22298SOL    HW268634   2.997   7.320   2.046 -0.5609 -0.0664  0.4756
22299SOL     OW68635   4.061   8.555   7.034 -0.0782  0.4627  0.0335
22299SOL    HW168636   4.003   8.481   7.053  1.3325 -0.4231  1.1190
22299SOL    HW268637   4.007   8.616   6.983 -1.7272 -0.6277  0.4033
22300SOL     OW68638   8.904   2.311   8.970 -0.0708  0.1720  0.2382
22300SOL    HW168639   8.840   2.339   9.035  0.0739  2.5070 -0.5107
22300SOL    HW268640   8.987   2.348   9.000  0.3427 -0.2551 -0.3390
22301SOL     OW68641   6.966   4.124   7.203  0.5237  0.1793 -0.4374
22301SOL    HW168642   7.055   4.120   7.237  0.5815  0.4687 -0.5578
22301SOL    HW268643   6.931   4.036   7.220  0.6799  0.2023  0.0151
22302SOL     OW68644   6.078   5.548   5.511  0.3114  0.6766  0.1174
22302SOL    HW168645   6.097   5.544   5.417 -2.0141  1.8452 -0.4642
22302SOL    HW268646   6.164   5.561   5.552  1.8029 -2.5381 -1.5416
22303SOL     OW68647   6.708   0.144   2.044  0.0343 -0.0096 -0.3135
22303SOL    HW168648   6.708   0.067   1.988 -1.0110 -0.5112  0.3482
22303SOL    HW268649   6.675   0.113   2.128 -1.4620  1.3628 -0.3480
22304SOL     OW68650   1.650   2.774   2.791 -0.3168  0.2100  0.9243
22304SOL    HW168651   1.620   2.684   2.806 -0.3099  0.0080 -0.2347
22304SOL    HW268652   1.717   2.766   2.724  0.9764  0.8880  2.0833
22305SOL     OW68653   8.127   9.117   5.423 -0.3750 -0.0026 -0.3670
22305SOL    HW168654   8.062   9.118   5.494  0.4074 -1.1780  0.4047
22305SOL    HW268655   8.171   9.032   5.432  1.8109  1.0708 -0.3606
22306SOL     OW68656   4.005   0.372   7.737 -0.0550 -0.8029 -0.7731
22306SOL    HW168657   3.922   0.402   7.775  0.1525  0.7140 -1.4641
22306SOL    HW268658   4.018   0.285   7.775 -1.4759 -0.6739  0.0918
22307SOL     OW68659   4.514   1.979   5.862  0.6304 -0.2226  0.0618
22307SOL    HW168660   4.523   1.959   5.956 -1.1589  2.0529  0.8296
22307SOL    HW268661   4.575   2.051   5.847 -0.1587  0.4398 -0.0886
22308SOL     OW68662   0.150   3.325   4.728  0.1130 -0.3318 -0.1589
22308SOL    HW168663   0.146   3.397   4.665 -1.1679 -0.5117 -0.3062
22308SOL    HW268664   0.078   3.341   4.788  1.0995 -0.3702  1.0670
22309SOL     OW68665   1.530   8.498   5.342  0.0756  0.5147 -0.6576
22309SOL    HW168666   1.500   8.507   5.251 -0.1108  2.0800 -0.4673
22309SOL    HW268667   1.602   8.560   5.349  0.1979  0.2832  0.2327
22310SOL     OW68668   7.200   9.579   4.944 -0.4558  0.2159  0.2919
22310SOL    HW168669   7.225   9.617   5.028 -0.1222 -0.4702  0.5160
22310SOL    HW268670   7.276   9.525   4.920 -1.1689 -0.8205  0.3098
22311SOL     OW68671   3.778   4.109   6.153 -0.1845 -0.1876  0.0113
22311SOL    HW168672   3.818   4.135   6.070 -1.2680 -0.0786 -0.4917
22311SOL    HW268673   3.700   4.060   6.128 -0.8327  0.3222  0.9607
22312SOL     OW68674   7.380   2.507   5.732 -1.0826  0.6919 -0.2491
22312SOL    HW168675   7.321   2.574   5.769 -0.6420  1.1254 -0.3223
22312SOL    HW268676   7.336   2.424   5.751 -1.5393  0.9882  0.0265
22313SOL     OW68677   3.226   4.167   4.228  0.3343  0.3665  0.1222
22313SOL    HW168678   3.203   4.079   4.199  1.2106  0.0134  0.4764
22313SOL    HW268679   3.194   4.171   4.318 -0.4548  0.7143 -0.1617
22314SOL     OW68680   3.726   4.379   0.200 -0.5832  0.0063 -0.0711
22314SOL    HW168681   3.712   4.405   0.108 -2.2071  0.7866  0.3523
22314SOL    HW268682   3.759   4.459   0.242  1.5859 -0.7405 -0.2197
22315SOL     OW68683   8.905   6.239   5.423 -0.1656  0.1183 -0.3669
22315SOL    HW168684   8.946   6.298   5.487  1.2339 -1.4973  0.2812
22315SOL    HW268685   8.962   6.244   5.346 -0.4875  0.2142 -0.5993
22316SOL     OW68686   5.687   0.858   7.454 -0.2208  0.7965  0.5454
22316SOL    HW168687   5.723   0.865   7.542  1.3902  0.5083 -0.0561
22316SOL    HW268688   5.762   0.834   7.399 -1.4057 -0.2010 -0.7185
22317SOL     OW68689   4.537   4.112   0.082  0.1245 -0.4760 -0.3582
22317SOL    HW168690   4.520   4.121   0.175  0.9259 -0.5991 -0.1887
22317SOL    HW268691   4.525   4.019   0.064  1.2992 -0.7064 -0.0757
22318SOL     OW68692   7.111   2.245   1.753  0.1778  0.2096 -0.7262
22318SOL    HW168693   7.043   2.311   1.761  0.0996  0.0065  0.4516
22318SOL    HW268694   7.064   2.165   1.731 -0.3483 -0.5261  2.5728
22319SOL     OW68695   3.683   7.594   1.638 -0.3752 -0.2159 -0.0879
22319SOL    HW168696   3.724   7.673   1.674 -0.5294  0.1878 -0.7719
22319SOL    HW268697   3.592   7.619   1.622 -0.5873 -0.7318  0.2816
22320SOL     OW68698   2.518   2.491   8.643 -0.1681 -0.3776  0.5385
22320SOL    HW168699   2.464   2.429   8.594 -0.1919 -0.5337  0.7602
22320SOL    HW268700   2.587   2.516   8.581  1.0283 -2.1827  1.0737
22321SOL     OW68701   8.087   7.312   5.048 -0.0038  0.3659 -0.1147
22321SOL    HW168702   8.095   7.303   5.143  0.4816  1.7299 -0.0070
22321SOL    HW268703   8.151   7.251   5.013  1.4160  1.4435  0.5019
22322SOL     OW68704   7.377   9.181   4.714  0.6055 -0.5938 -0.1618
22322SOL    HW168705   7.372   9.225   4.799  0.3305 -0.9883  0.0293
22322SOL    HW268706   7.461   9.135   4.715  1.6736  1.2024 -1.0013
22323SOL     OW68707   4.192   0.490   1.544  0.0615 -0.3432 -0.0608
22323SOL    HW168708   4.136   0.416   1.568  0.9950 -0.9336  0.3450
22323SOL    HW268709   4.132   0.553   1.503 -0.7741 -1.2510 -0.2761
22324SOL     OW68710   8.876   2.945   7.870  0.6642 -0.1357 -0.0334
22324SOL    HW168711   8.871   2.884   7.796  1.4397  0.2790 -0.4381
22324SOL    HW268712   8.819   3.017   7.845  0.3770 -0.3141  0.0926
22325SOL     OW68713   8.509   8.713   1.039 -0.5382 -0.4727  0.2052
22325SOL    HW168714   8.529   8.804   1.058  0.8153 -0.2173 -2.0536
22325SOL    HW268715   8.562   8.663   1.101 -0.2899  0.2673  0.6008
22326SOL     OW68716   4.852   2.172   7.015  0.5699 -0.1312 -0.3074
22326SOL    HW168717   4.793   2.097   7.009  1.7723 -0.9845 -2.4648
22326SOL    HW268718   4.937   2.134   7.039  0.5335  0.9496  1.7028
22327SOL     OW68719   0.868   5.269   1.196 -0.0843  0.1289 -0.2496
22327SOL    HW168720   0.860   5.312   1.111 -0.2298 -0.3371 -0.4762
22327SOL    HW268721   0.828   5.183   1.183  1.8321 -0.7976 -0.3136
22328SOL     OW68722   3.609   7.361   9.119  0.0513  0.7341  0.7037
22328SOL    HW168723   3.676   7.304   9.157  0.1426  0.9321  0.8362
22328SOL    HW268724   3.586   7.318   9.036 -0.8827 -0.2581  1.4335
22329SOL     OW68725   5.817   3.184   7.340  0.4468 -0.0345  0.3506
22329SOL    HW168726   5.788   3.275   7.339 -2.4326 -0.7520  2.7449
22329SOL    HW268727   5.849   3.170   7.429  1.5733 -1.2084 -0.2049
22330SOL     OW68728   6.905   6.607   1.779  0.4116 -0.2312  0.0195
22330SOL    HW168729   6.905   6.512   1.792 -1.3301 -0.3076 -0.2945
22330SOL    HW268730   6.920   6.618   1.685 -3.0406 -0.4293 -0.6811
22331SOL     OW68731   3.444   3.376   8.213 -0.6005  0.6439 -0.3749
22331SOL    HW168732   3.397   3.365   8.130 -3.2016  0.4686  1.0322
22331SOL    HW268733   3.395   3.324   8.276  0.2241  2.2210  1.6906
22332SOL     OW68734   3.424   5.121   2.223  0.0205 -0.1583  0.4806
22332SOL    HW168735   3.431   5.215   2.209  0.1105 -0.3489 -0.9929
22332SOL    HW268736   3.514   5.089   2.220 -0.1323 -0.5306 -1.2281
22333SOL     OW68737   2.880   0.409   8.442 -0.0648  0.4677 -0.1521
22333SOL    HW168738   2.888   0.442   8.352  0.1331  2.2500  0.4824
22333SOL    HW268739   2.805   0.457   8.477  1.9661  2.5014  1.7140
22334SOL     OW68740   2.267   1.237   8.864  0.4423  0.3558 -0.3017
22334SOL    HW168741   2.288   1.161   8.809  1.6577  1.1312 -0.9514
22334SOL    HW268742   2.326   1.229   8.939  0.7257  0.7562 -0.4766
22335SOL     OW68743   9.324   1.724   7.131  0.5722 -0.0647  0.3908
22335SOL    HW168744   9.311   1.819   7.127 -0.2522 -0.2135 -0.7964
22335SOL    HW268745   9.280   1.690   7.054  0.4198 -1.4830  1.0690
22336SOL     OW68746   6.856   3.145   8.006  0.6058  0.6431 -0.2569
22336SOL    HW168747   6.799   3.085   8.054  0.8642  2.7812  2.9870
22336SOL    HW268748   6.800   3.219   7.982  1.3877  1.5650  0.6478
22337SOL     OW68749   3.828   4.907   2.586  0.1128  0.1111  0.1774
22337SOL    HW168750   3.812   4.813   2.582 -4.2811  0.7031 -2.4994
22337SOL    HW268751   3.860   4.930   2.499 -0.8137  1.2823  0.1140
22338SOL     OW68752   2.021   2.035   0.158 -0.7467 -0.4507  0.2367
22338SOL    HW168753   1.965   1.995   0.091 -1.7894 -1.1282  1.4692
22338SOL    HW268754   1.996   2.127   0.159  0.6361  0.0078 -1.6003
22339SOL     OW68755   2.653   3.810   4.225  0.4087  0.3631 -0.2391
22339SOL    HW168756   2.690   3.863   4.154 -2.0131  1.0725 -1.0580
22339SOL    HW268757   2.620   3.732   4.182  1.2725 -0.4593  0.5395
22340SOL     OW68758   5.678   1.253   1.832 -0.0282  0.1683 -0.0745
22340SOL    HW168759   5.658   1.329   1.777  0.9902  0.2138 -0.4072
22340SOL    HW268760   5.683   1.289   1.921 -3.8116 -0.2479  0.4702
22341SOL     OW68761   1.000   5.688   3.062  0.0925  0.5224 -0.0714
22341SOL    HW168762   0.966   5.777   3.074 -0.4575  0.2241  0.7060
22341SOL    HW268763   1.001   5.675   2.967 -1.4524  0.7668 -0.1475
22342SOL     OW68764   2.222   3.629   0.916 -0.5884  0.4097  0.3642
22342SOL    HW168765   2.273   3.587   0.986 -2.7210 -2.1582  0.5392
22342SOL    HW268766   2.253   3.719   0.915  3.2575 -0.6857  1.0612
22343SOL     OW68767   4.300   8.611   4.460  0.1202  0.0887  0.3468
22343SOL    HW168768   4.232   8.656   4.511  1.0125 -1.2483  2.8711
22343SOL    HW268769   4.333   8.677   4.400 -3.1375  0.8936 -0.8102
22344SOL     OW68770   5.520   7.265   8.508 -0.4476 -0.3153  0.8532
22344SOL    HW168771   5.614   7.254   8.524 -0.3097 -0.1953  0.1850
22344SOL    HW268772   5.502   7.209   8.433 -0.5852  0.8177  0.0199
22345SOL     OW68773   1.744   7.011   1.923 -0.0856 -0.0417 -0.0001
22345SOL    HW168774   1.683   7.065   1.873  1.4016  2.3670  0.6715
22345SOL    HW268775   1.720   7.025   2.015 -2.0528 -3.5317  0.1837
22346SOL     OW68776   2.843   7.812   6.156  0.4538  0.1755  0.2459
22346SOL    HW168777   2.884   7.752   6.093  2.5953  1.8781 -0.1018
22346SOL    HW268778   2.828   7.892   6.106 -0.7571  0.5337  1.1399
22347SOL     OW68779   5.485   8.363   4.997  0.5548 -0.0096 -0.2246
22347SOL    HW168780   5.459   8.274   4.971  1.0600 -0.4882  0.8571
22347SOL    HW268781   5.565   8.351   5.047  1.0842  1.1499 -0.7473
22348SOL     OW68782   8.959   4.582   2.652 -0.1154  0.5421  0.2180
22348SOL    HW168783   8.912   4.640   2.711 -1.7622 -1.2807  0.8031
22348SOL    HW268784   9.052   4.604   2.664 -0.6660  3.5093 -0.1742
22349SOL     OW68785   2.182   8.603   3.554 -0.2693  0.4406  0.2564
22349SOL    HW168786   2.211   8.512   3.546 -1.1129  0.2159 -0.4065
22349SOL    HW268787   2.110   8.599   3.617  0.6736  0.8947  1.3979
22350SOL     OW68788   7.701   5.355   6.928 -0.3923  0.1806  0.2099
22350SOL    HW168789   7.660   5.376   7.012  1.7358 -0.0775  1.3724
22350SOL    HW268790   7.687   5.433   6.874 -2.4655  0.0531  0.4800
22351SOL     OW68791   1.703   6.031   9.074 -0.2113 -0.2642  0.9724
22351SOL    HW168792   1.720   5.963   9.009 -1.6580 -1.6243  1.9465
22351SOL    HW268793   1.784   6.082   9.077  0.3178 -0.9125 -0.9741
22352SOL     OW68794   4.721   6.812   8.990  0.5776 -0.0225  0.2728
22352SOL    HW168795   4.815   6.798   8.977  0.6904  1.5663 -1.0342
22352SOL    HW268796   4.683   6.724   8.983  2.0940 -0.9883  2.7760
22353SOL     OW68797   2.441   6.850   1.571  0.0321 -0.1350  0.1234
22353SOL    HW168798   2.418   6.881   1.483 -1.6666  0.5987  0.7787
22353SOL    HW268799   2.489   6.924   1.610  0.6386 -0.3962 -0.1173
22354SOL     OW68800   4.943   5.875   4.760  0.3863 -0.1889 -0.7199
22354SOL    HW168801   4.986   5.960   4.771 -0.3080 -0.0085  0.8957
22354SOL    HW268802   4.852   5.891   4.782 -0.1334 -0.9962 -2.1651
22355SOL     OW68803   4.082   2.441   7.232 -0.2444  0.3315  0.6117
22355SOL    HW168804   3.996   2.405   7.211 -0.1220  1.0179 -1.2457
22355SOL    HW268805   4.143   2.368   7.217 -0.3378  0.3267  0.2440
22356SOL     OW68806   3.573   4.007   4.580 -0.3914 -0.6207  0.5057
22356SOL    HW168807   3.597   4.099   4.575 -1.0670 -0.4107  0.9419
22356SOL    HW268808   3.635   3.968   4.641  1.0886 -0.8775 -1.0941
22357SOL     OW68809   2.801   4.401   9.471  0.0833 -0.3475 -0.3823
22357SOL    HW168810   2.831   4.337   9.535  0.7556 -0.3058 -0.6556
22357SOL    HW268811   2.839   4.372   9.388  0.3067  0.3482 -0.5233
22358SOL     OW68812   3.429   6.422   7.643  0.0699 -0.0184 -0.1479
22358SOL    HW168813   3.373   6.345   7.647 -0.0772  0.1096  0.3481
22358SOL    HW268814   3.378   6.491   7.686  1.4494 -0.4155  2.2980
22359SOL     OW68815   8.545   5.579   4.108 -0.6974  0.2968  0.0164
22359SOL    HW168816   8.542   5.606   4.200 -1.5655  1.8363 -0.4284
22359SOL    HW268817   8.461   5.537   4.093 -0.1703 -0.8499  0.1524
22360SOL     OW68818   2.855   8.415   1.378 -0.4958 -0.6262 -0.3816
22360SOL    HW168819   2.781   8.402   1.319 -2.3987  0.1382  1.7158
22360SOL    HW268820   2.876   8.508   1.371 -0.3715 -0.6423 -0.2343
22361SOL     OW68821   3.195   6.297   5.665 -0.1830 -0.0486  0.0188
22361SOL    HW168822   3.109   6.258   5.681 -0.7196  0.9411 -0.3783
22361SOL    HW268823   3.207   6.358   5.737 -0.1868  0.4221 -0.3740
22362SOL     OW68824   2.027   3.041   8.220 -0.0982  0.0013  0.2872
22362SOL    HW168825   2.104   3.047   8.276 -0.0814 -1.5259  0.4658
22362SOL    HW268826   2.054   3.083   8.138 -0.3536  2.9217  1.5817
22363SOL     OW68827   8.463   4.036   3.735 -0.5640  0.0051 -0.5181
22363SOL    HW168828   8.490   4.055   3.645 -0.9081 -1.8120 -1.0468
22363SOL    HW268829   8.450   3.942   3.737 -0.8982  0.0462  1.3687
22364SOL     OW68830   0.101   8.102   2.612  0.6332 -0.1629  0.0490
22364SOL    HW168831   0.036   8.112   2.681  2.2195  0.8871  1.4656
22364SOL    HW268832   0.105   8.008   2.596 -0.5680 -0.3147  0.5592
22365SOL     OW68833   7.757   8.589   0.170 -0.0929 -0.2148  0.7567
22365SOL    HW168834   7.822   8.592   0.240 -1.4583  0.0113  2.0563
22365SOL    HW268835   7.775   8.667   0.117  0.4284  0.0606  1.3334
22366SOL     OW68836   1.797   0.911   7.081 -0.1488  0.1882  0.4164
22366SOL    HW168837   1.771   0.985   7.136  0.0622  0.3334  0.3200
22366SOL    HW268838   1.807   0.948   6.994  1.9843  0.4752  0.7403
22367SOL     OW68839   7.237   6.630   1.098  0.8410  0.3102 -0.1181
22367SOL    HW168840   7.198   6.658   1.015 -0.4175 -0.6654  0.1128
22367SOL    HW268841   7.309   6.572   1.073 -0.6118 -1.3783 -0.5644
22368SOL     OW68842   1.380   6.974   3.132 -0.1549  0.2366 -0.1636
22368SOL    HW168843   1.408   6.990   3.042 -2.0581 -0.1590 -0.8648
22368SOL    HW268844   1.352   7.059   3.165  0.8681  0.4469  0.1983
22369SOL     OW68845   3.691   7.224   3.256  0.0900  0.5484  0.1928
22369SOL    HW168846   3.739   7.202   3.336 -0.9581 -0.8076  0.4806
22369SOL    HW268847   3.712   7.316   3.241 -0.4988  1.1563  2.6290
22370SOL     OW68848   4.824   4.830   3.672 -0.3836 -0.0491 -0.1771
22370SOL    HW168849   4.776   4.779   3.737 -0.4715 -1.0246 -0.9906
22370SOL    HW268850   4.755   4.869   3.618 -0.2918 -0.2261 -0.4229
22371SOL     OW68851   0.226   2.890   2.596  0.0165  0.3437  0.3180
22371SOL    HW168852   0.318   2.899   2.573 -0.3347  0.4761 -1.1160
22371SOL    HW268853   0.187   2.974   2.572 -1.0180 -0.6928 -1.8856
22372SOL     OW68854   1.698   4.282   2.915  0.1297 -0.3179 -0.3067
22372SOL    HW168855   1.632   4.214   2.929 -0.9752  0.5437 -1.0480
22372SOL    HW268856   1.695   4.299   2.821 -0.8137  1.8386  0.0339
22373SOL     OW68857   3.776   8.628   8.135 -0.2070 -0.1487  0.2034
22373SOL    HW168858   3.684   8.654   8.139 -0.3902 -0.4890 -1.3494
22373SOL    HW268859   3.780   8.566   8.063  1.6338  1.5258 -1.2364
22374SOL     OW68860   6.012   1.919   4.909  0.4949 -0.6058 -0.5005
22374SOL    HW168861   5.984   1.954   4.825  0.8297 -1.2399 -0.8864
22374SOL    HW268862   5.934   1.878   4.946 -0.5654  2.5641  1.0779
22375SOL     OW68863   3.373   0.761   4.890  0.2348  0.0943  0.1670
22375SOL    HW168864   3.319   0.839   4.897  1.4835  0.9432  0.6400
22375SOL    HW268865   3.366   0.735   4.798 -0.3057  0.6650  0.0391
22376SOL     OW68866   0.629   5.745   1.448  0.0462  0.1811 -0.0525
22376SOL    HW168867   0.652   5.763   1.357 -1.2607 -1.0327 -0.6755
22376SOL    HW268868   0.620   5.650   1.452  0.6054  0.1689  1.4938
22377SOL     OW68869   2.918   1.623   5.055 -0.1910  0.1780  0.5216
22377SOL    HW168870   2.963   1.543   5.027 -2.1194 -1.3625  1.5740
22377SOL    HW268871   2.989   1.685   5.074  1.3618 -1.2215 -0.4139
22378SOL     OW68872   8.503   1.677   6.008 -0.0519 -0.5562 -0.0826
22378SOL    HW168873   8.418   1.657   6.046 -0.2716 -0.2972 -0.4270
22378SOL    HW268874   8.482   1.722   5.926  0.4155  1.5781  0.8977
22379SOL     OW68875   2.526   9.051   0.766  0.4874  0.2328  0.1029
22379SOL    HW168876   2.488   8.981   0.714  0.2589  0.5298 -0.1331
22379SOL    HW268877   2.612   9.067   0.726  0.4184  0.2856 -0.0251
22380SOL     OW68878   7.744   7.277   1.563  0.1753  0.2959 -0.3216
22380SOL    HW168879   7.781   7.227   1.635  0.6378 -1.9411 -1.9937
22380SOL    HW268880   7.817   7.286   1.501 -0.0471  2.6643 -0.3224
22381SOL     OW68881   2.612   2.656   3.792 -0.5841 -0.7761  0.2895
22381SOL    HW168882   2.567   2.668   3.709  2.2129 -0.3623 -1.2927
22381SOL    HW268883   2.641   2.565   3.791  0.7157 -0.3828  0.0838
22382SOL     OW68884   7.813   1.405   4.812 -0.3163  0.5544 -0.1237
22382SOL    HW168885   7.817   1.364   4.898 -1.9748 -0.0651 -0.3075
22382SOL    HW268886   7.781   1.494   4.829 -1.4061  0.1850 -0.1340
22383SOL     OW68887   9.159   4.096   6.955  0.0041  0.4048 -0.2036
22383SOL    HW168888   9.102   4.037   6.906 -0.3715 -0.9281  1.7331
22383SOL    HW268889   9.171   4.172   6.898  0.2904 -1.4026 -2.6734
22384SOL     OW68890   4.393   0.840   3.086 -0.1552  0.0149  0.2467
22384SOL    HW168891   4.482   0.823   3.054 -0.6805 -2.1055 -0.2513
22384SOL    HW268892   4.400   0.922   3.134  1.9743  0.1272 -0.1540
22385SOL     OW68893   3.274   4.084   4.612  0.2307 -0.3662  0.3035
22385SOL    HW168894   3.294   4.093   4.705 -0.7724  0.1675  0.4902
22385SOL    HW268895   3.359   4.075   4.569  0.8973  1.8450  1.0198
22386SOL     OW68896   7.945   2.659   9.169  0.0434 -0.0625 -0.7154
22386SOL    HW168897   7.956   2.589   9.233  0.2287  1.5529  1.1105
22386SOL    HW268898   7.902   2.617   9.094 -0.7039 -1.8978  0.6832
22387SOL     OW68899   7.474   2.189   4.324 -0.3433  0.1043 -0.2396
22387SOL    HW168900   7.491   2.097   4.306 -2.4396 -0.3707 -0.0975
22387SOL    HW268901   7.423   2.189   4.405  1.2027  1.5591  0.8019
22388SOL     OW68902   7.530   4.480   1.438 -0.0203 -0.2396  0.2160
22388SOL    HW168903   7.496   4.510   1.522  0.2391 -0.5133  0.4169
22388SOL    HW268904   7.514   4.386   1.437  3.4608 -1.0025  1.6433
22389SOL     OW68905   0.220   6.158   8.056 -0.2669 -0.5057  0.6016
22389SOL    HW168906   0.137   6.200   8.077 -1.1378 -2.7504  2.0857
22389SOL    HW268907   0.195   6.071   8.022  1.4549 -0.6246 -0.5393
22390SOL     OW68908   7.856   4.013   6.888  0.1734  1.1606  0.0163
22390SOL    HW168909   7.795   3.940   6.904  2.0298 -0.5640 -0.3471
22390SOL    HW268910   7.801   4.091   6.889 -2.2562 -0.4006 -1.6628
22391SOL     OW68911   0.786   4.143   1.886 -0.0658  0.2216  0.0908
22391SOL    HW168912   0.880   4.129   1.883  0.0857 -0.4116  3.4478
22391SOL    HW268913   0.748   4.061   1.854  0.5009  0.4606 -1.2304
22392SOL     OW68914   1.789   3.204   0.310  0.2497  0.6384 -1.0439
22392SOL    HW168915   1.769   3.242   0.395 -1.0683  1.2522 -1.6067
22392SOL    HW268916   1.737   3.256   0.248  0.3747 -0.4713 -2.1005
22393SOL     OW68917   8.905   3.207   6.579 -0.5766  0.2057 -0.0750
22393SOL    HW168918   8.880   3.204   6.672 -1.6871  2.2887 -0.2484
22393SOL    HW268919   8.994   3.241   6.580  0.3619 -2.0276  0.2697
22394SOL     OW68920   9.161   0.951   3.377  0.1007 -1.0546  0.5596
22394SOL    HW168921   9.136   0.863   3.349 -0.0131 -0.8472 -0.0134
22394SOL    HW268922   9.241   0.970   3.328 -0.8885 -0.1195 -0.7702
22395SOL     OW68923   7.900   5.924   0.117  0.2787 -0.0674 -0.2221
22395SOL    HW168924   7.928   5.862   0.184 -0.4073 -0.7831 -0.5840
22395SOL    HW268925   7.945   5.896   0.037  0.0732 -0.0220 -0.3558
22396SOL     OW68926   1.608   7.407   2.377 -0.0062  0.3392 -0.2378
22396SOL    HW168927   1.593   7.313   2.380 -2.1054  0.6301 -0.1748
22396SOL    HW268928   1.686   7.421   2.431  0.0685 -1.3074  0.1267
22397SOL     OW68929   5.844   5.673   3.556 -0.1735 -0.2853  0.2418
22397SOL    HW168930   5.832   5.757   3.600  0.2834 -0.1687  0.1485
22397SOL    HW268931   5.756   5.633   3.556 -0.5005  0.4218 -0.1965
22398SOL     OW68932   4.025   6.069   5.439 -0.4135  0.1134  0.0317
22398SOL    HW168933   3.973   6.147   5.456 -2.6443 -1.2493 -0.2340
22398SOL    HW268934   4.032   6.065   5.344  1.7743  1.2102  0.0695
22399SOL     OW68935   1.524   7.324   4.794  0.2532  0.8052  0.4849
22399SOL    HW168936   1.477   7.290   4.718  2.0807 -0.6401 -0.0647
22399SOL    HW268937   1.563   7.406   4.764 -0.6474  1.2414  0.4867
22400SOL     OW68938   9.470   8.098   3.015  0.1820 -0.3503 -0.1533
22400SOL    HW168939   9.423   8.023   3.050 -1.0955  0.2040 -0.6277
22400SOL    HW268940   9.448   8.170   3.075  0.7103 -0.1547 -0.1868
22401SOL     OW68941   5.023   5.729   1.175 -0.1353 -0.4654  0.1552
22401SOL    HW168942   5.057   5.787   1.243 -0.1278  0.4817 -0.6434
22401SOL    HW268943   5.089   5.660   1.168  0.4337  0.0494  0.3042
22402SOL     OW68944   0.554   1.902   2.205  0.1148  0.3311  0.0964
22402SOL    HW168945   0.552   1.919   2.111  3.8443  0.4920 -0.1019
22402SOL    HW268946   0.494   1.827   2.217  0.9657 -0.9365 -2.7438
22403SOL     OW68947   5.996   0.638   2.655 -0.1479  0.3076 -0.5152
22403SOL    HW168948   6.081   0.680   2.640  0.1989 -0.9759 -2.6058
22403SOL    HW268949   6.001   0.556   2.607 -3.0413  0.7714 -1.8481
22404SOL     OW68950   4.502   1.601   5.434 -0.0111  0.0746 -0.1446
22404SOL    HW168951   4.536   1.671   5.377 -0.8775 -0.6648 -1.6436
22404SOL    HW268952   4.538   1.521   5.396 -3.0735 -0.7249 -1.6393
22405SOL     OW68953   1.185   8.955   9.274  0.1083 -0.3915 -1.1715
22405SOL    HW168954   1.190   9.023   9.207 -0.2139  0.3525 -0.4603
22405SOL    HW268955   1.098   8.966   9.313 -0.3556 -1.8556 -1.6888
22406SOL     OW68956   1.639   4.266   1.461  0.9670  0.1243 -0.3220
22406SOL    HW168957   1.717   4.307   1.422  1.6202 -0.8027 -0.0385
22406SOL    HW268958   1.626   4.186   1.410 -2.7957  2.5354 -3.6655
22407SOL     OW68959   6.712   0.495   4.261  0.1318  0.4360 -0.3370
22407SOL    HW168960   6.709   0.456   4.348 -1.6812  2.1187  0.4272
22407SOL    HW268961   6.680   0.427   4.203  0.1471 -0.2875  0.4785
22408SOL     OW68962   6.519   2.987   7.045 -0.1253  0.2979 -0.1428
22408SOL    HW168963   6.536   3.079   7.027  0.4756  0.4952  1.2899
22408SOL    HW268964   6.606   2.948   7.052 -0.3744 -0.3342 -0.4798
22409SOL     OW68965   0.391   8.953   7.834 -0.1650 -0.4913  0.5759
22409SOL    HW168966   0.426   9.005   7.906 -0.1453 -2.6592  2.2106
22409SOL    HW268967   0.296   8.961   7.841 -0.1488  0.0320  0.2540
22410SOL     OW68968   0.177   3.249   2.049  0.3565  0.1097  0.2325
22410SOL    HW168969   0.104   3.235   1.989  0.5885 -0.5318  0.0970
22410SOL    HW268970   0.236   3.309   2.002  0.0375  0.4407  0.2488
22411SOL     OW68971   1.254   5.690   4.870 -0.0424  0.1788  0.1808
22411SOL    HW168972   1.160   5.687   4.852  0.1771 -0.1556 -0.9776
22411SOL    HW268973   1.285   5.602   4.848  0.9870  1.0579 -2.0858
22412SOL     OW68974   5.742   1.506   6.032  0.5383 -0.1609  0.0910
22412SOL    HW168975   5.724   1.488   5.940  0.8516 -3.1516  0.5104
22412SOL    HW268976   5.658   1.532   6.069  0.3070  0.5632 -0.9069
22413SOL     OW68977   7.257   0.386   0.438  0.3976 -0.3767 -0.6071
22413SOL    HW168978   7.301   0.302   0.449 -0.6916 -1.1070 -1.6452
22413SOL    HW268979   7.198   0.393   0.513  1.7689  0.3123  0.4452
22414SOL     OW68980   8.629   4.795   8.957 -0.5441 -0.0267  0.5826
22414SOL    HW168981   8.663   4.722   8.906 -2.8557 -0.8318  0.0745
22414SOL    HW268982   8.701   4.859   8.959  0.8805 -1.5165 -0.5234
22415SOL     OW68983   2.996   7.744   3.434  0.1757  0.2064 -0.3757
22415SOL    HW168984   3.006   7.682   3.506  0.8657  1.8757  1.0550
22415SOL    HW268985   2.938   7.700   3.372  0.4853 -1.7611  0.6467
22416SOL     OW68986   6.104   5.684   6.443 -0.6900 -0.2898  0.2101
22416SOL    HW168987   6.156   5.676   6.364 -1.0436 -1.0816  0.0483
22416SOL    HW268988   6.124   5.605   6.493 -0.4014  0.2430  0.9533
22417SOL     OW68989   7.504   0.390   8.781 -0.4253  0.6621  0.4224
22417SOL    HW168990   7.564   0.356   8.847 -1.5999 -0.9509  0.7032
22417SOL    HW268991   7.560   0.435   8.718  1.1103 -1.0161  0.5308
22418SOL     OW68992   4.589   8.450   8.317  0.4366  0.4866 -0.4371
22418SOL    HW168993   4.552   8.376   8.270  0.0100 -0.1858  0.9144
22418SOL    HW268994   4.604   8.516   8.249 -1.0186 -0.0976 -1.3760
22419SOL     OW68995   7.157   4.012   8.284  0.3143  0.3936  0.6186
22419SOL    HW168996   7.129   3.974   8.367  1.1908 -1.0055  0.3067
22419SOL    HW268997   7.081   4.063   8.254 -1.0380 -1.3500  0.9411
22420SOL     OW68998   3.619   7.188   7.367 -0.2796  0.3444  0.0746
22420SOL    HW168999   3.550   7.135   7.328  0.1202 -0.0308 -0.1304
22420SOL    HW269000   3.574   7.265   7.402 -0.3922  2.3049 -3.8056
22421SOL     OW69001   8.606   8.257   9.374 -0.1108  0.1577 -0.4154
22421SOL    HW169002   8.598   8.306   9.455  0.7766 -0.0718 -0.1704
22421SOL    HW269003   8.695   8.220   9.377  0.1944  0.6970 -1.7935
22422SOL     OW69004   5.948   2.609   1.663 -0.5966  0.1334 -0.2209
22422SOL    HW169005   5.898   2.658   1.728  0.5269 -0.9064  1.5151
22422SOL    HW269006   5.983   2.534   1.712 -0.2587 -1.0623 -2.2008
22423SOL     OW69007   4.922   7.421   5.173 -0.2802  0.3085 -0.2630
22423SOL    HW169008   4.856   7.353   5.160 -2.1483  2.0314 -0.2885
22423SOL    HW269009   4.910   7.449   5.264  1.1819 -0.0780  0.0697
22424SOL     OW69010   7.431   2.084   4.710  0.2862 -0.0748 -0.2074
22424SOL    HW169011   7.387   2.132   4.640  0.3998 -0.0349 -0.2517
22424SOL    HW269012   7.407   2.130   4.790 -3.0526 -2.3440  0.2749
22425SOL     OW69013   9.491   1.163   7.062  0.1850 -0.3791 -0.5422
22425SOL    HW169014   9.426   1.093   7.059  0.2027 -0.3632 -1.8068
22425SOL    HW269015   9.478   1.204   7.147 -2.7346  0.7964 -1.4219
22426SOL     OW69016   1.124   4.555   6.771 -0.1190 -0.4512  0.3501
22426SOL    HW169017   1.192   4.515   6.825  0.8013 -0.7285 -0.9688
22426SOL    HW269018   1.133   4.649   6.788  0.8265 -0.4543 -0.0480
22427SOL     OW69019   3.613   7.180   5.993  0.1722 -0.1942  0.2232
22427SOL    HW169020   3.538   7.182   6.052 -0.9270  1.0665 -1.1441
22427SOL    HW269021   3.590   7.113   5.928  1.2296 -1.3366  0.9724
22428SOL     OW69022   1.444   0.730   2.091 -0.1061 -0.0538 -0.0958
22428SOL    HW169023   1.421   0.670   2.019  2.9769  0.2495 -1.4773
22428SOL    HW269024   1.439   0.817   2.051  1.5320  0.1249  0.0243
22429SOL     OW69025   0.372   5.791   0.238 -0.0663  0.6220  0.5433
22429SOL    HW169026   0.451   5.834   0.205 -1.2251  1.4661 -1.2037
22429SOL    HW269027   0.303   5.857   0.232 -1.3426 -0.6932  0.1587
22430SOL     OW69028   2.836   5.353   7.511  0.1186  0.2043 -0.1395
22430SOL    HW169029   2.923   5.362   7.551  0.1022 -1.0000  0.1907
22430SOL    HW269030   2.845   5.397   7.426  0.7032  1.1244  0.3720
22431SOL     OW69031   7.837   1.959   9.340 -0.4756 -0.8292 -0.0698
22431SOL    HW169032   7.791   1.959   9.256 -0.7583 -1.0060  0.0851
22431SOL    HW269033   7.779   2.007   9.399  0.9451  1.7916 -0.6266
22432SOL     OW69034   5.202   9.561   2.527  0.0658 -0.1095  0.0135
22432SOL    HW169035   5.197   9.644   2.575  2.6165 -0.0082  0.2231
22432SOL    HW269036   5.199   9.586   2.435 -1.0077  0.0198  0.0667
22433SOL     OW69037   4.276   8.809   3.537  0.1830  0.1372  0.6649
22433SOL    HW169038   4.311   8.824   3.625 -1.1788 -0.4884  1.3420
22433SOL    HW269039   4.185   8.836   3.543 -0.0662 -0.4185 -0.4176
22434SOL     OW69040   3.204   0.633   5.370 -0.0835  0.1311  0.3741
22434SOL    HW169041   3.232   0.543   5.355 -0.9693 -0.1551  0.3785
22434SOL    HW269042   3.164   0.659   5.287 -2.3036 -0.4324  1.2058
22435SOL     OW69043   9.124   4.453   2.263  0.2645  0.0687 -0.1023
22435SOL    HW169044   9.157   4.365   2.279  0.7024  0.2365 -0.0612
22435SOL    HW269045   9.072   4.474   2.340 -0.1342 -0.2865 -0.2709
22436SOL     OW69046   0.112   4.671   8.976  0.2921 -0.1225  0.6166
22436SOL    HW169047   0.175   4.724   8.927  0.0748  0.7523  1.2543
22436SOL    HW269048   0.027   4.697   8.941  0.1597  0.2412  1.1994
22437SOL     OW69049   8.088   2.270   2.117 -0.2494  0.2656 -0.1566
22437SOL    HW169050   8.033   2.348   2.127  0.0064  0.8834 -2.7595
22437SOL    HW269051   8.061   2.232   2.033  1.2830 -1.0646 -0.0955
22438SOL     OW69052   7.834   9.125   0.970 -0.2563  0.3179  0.5691
22438SOL    HW169053   7.919   9.085   0.952 -0.7146 -0.4161 -0.0256
22438SOL    HW269054   7.792   9.130   0.884 -0.7330  0.8685  0.8284
22439SOL     OW69055   1.607   3.842   6.899 -0.2667  0.5389 -0.0996
22439SOL    HW169056   1.568   3.868   6.983 -0.2040  2.1393 -0.5282
22439SOL    HW269057   1.658   3.919   6.872  0.0531 -0.1078 -1.4082
22440SOL     OW69058   4.142   6.013   2.569 -0.4800  0.0465  0.2433
22440SOL    HW169059   4.075   5.980   2.628  0.0164 -0.0444  0.7670
22440SOL    HW269060   4.152   5.945   2.503  0.0067 -0.5199  0.8934
22441SOL     OW69061   6.721   5.056   4.978 -0.1086  0.0669 -0.2232
22441SOL    HW169062   6.696   4.976   5.024 -0.8242 -0.1314 -0.9273
22441SOL    HW269063   6.780   5.027   4.909 -2.9122 -0.3943 -2.6208
22442SOL     OW69064   1.121   8.230   4.025 -0.6983  0.4995  0.5245
22442SOL    HW169065   1.121   8.264   3.936 -1.9853 -0.2072  0.2372
22442SOL    HW269066   1.122   8.308   4.080 -1.6914  0.9853 -0.1187
22443SOL     OW69067   5.257   6.298   0.442 -0.0909  0.1558  0.1379
22443SOL    HW169068   5.236   6.290   0.349  0.2265 -2.6188  0.2225
22443SOL    HW269069   5.172   6.303   0.485 -0.4380 -2.1804 -0.1295
22444SOL     OW69070   1.971   7.607   8.700 -0.1817 -0.7098 -0.4756
22444SOL    HW169071   2.051   7.555   8.692  0.2193  0.2070 -3.8749
22444SOL    HW269072   1.999   7.688   8.742  0.5720 -0.6474 -1.0760
22445SOL     OW69073   7.503   6.727   9.120 -0.3217  0.1973 -0.1005
22445SOL    HW169074   7.559   6.652   9.103  0.3546  0.6747 -0.0078
22445SOL    HW269075   7.448   6.701   9.194 -0.4099 -0.3686 -0.3618
22446SOL     OW69076   8.771   3.203   1.171 -0.6404 -0.4187 -0.4964
22446SOL    HW169077   8.714   3.217   1.246  0.2842  2.0148 -0.1509
22446SOL    HW269078   8.849   3.162   1.207  1.0297  3.2914  0.5781
22447SOL     OW69079   4.282   0.304   6.593 -0.2541  0.4770 -0.0114
22447SOL    HW169080   4.343   0.231   6.581  0.6024  1.1664  0.1016
22447SOL    HW269081   4.335   0.382   6.580 -1.3569  1.0824 -0.9997
22448SOL     OW69082   5.078   3.137   8.997  0.1612 -0.1296  0.1882
22448SOL    HW169083   5.146   3.137   8.928 -1.1743  1.7166 -1.2221
22448SOL    HW269084   5.090   3.220   9.042 -0.6991 -0.1167  0.4036
22449SOL     OW69085   6.266   2.072   1.154 -0.3185  0.6737 -0.0708
22449SOL    HW169086   6.278   2.162   1.185 -0.5377  0.6244  0.1621
22449SOL    HW269087   6.350   2.029   1.169 -0.4961  0.5825  0.6885
22450SOL     OW69088   3.130   1.778   5.068  0.1931 -0.0220  0.7361
22450SOL    HW169089   3.155   1.865   5.097 -0.0482  0.1073  0.5614
22450SOL    HW269090   3.142   1.780   4.973  1.9086 -0.7393  0.9034
22451SOL     OW69091   0.995   9.029   1.975 -0.4683  0.8076  0.3743
22451SOL    HW169092   0.964   9.010   2.064 -0.4712 -0.1508  0.1688
22451SOL    HW269093   0.960   8.959   1.921  0.8793  0.4872 -0.1066
22452SOL     OW69094   7.050   8.215   5.840  0.1415 -0.2762 -0.5241
22452SOL    HW169095   7.001   8.253   5.768 -0.0707 -1.0785 -0.8145
22452SOL    HW269096   7.080   8.131   5.807  0.5397 -0.3999  0.1250
22453SOL     OW69097   2.084   0.366   4.847 -0.2869 -0.6945  0.0842
22453SOL    HW169098   2.055   0.429   4.913  0.6985 -1.5270  1.3631
22453SOL    HW269099   2.146   0.415   4.793 -1.6653  0.2105 -0.7549
22454SOL     OW69100   6.205   5.623   7.812  0.0666  0.4868  0.0213
22454SOL    HW169101   6.263   5.667   7.750 -0.0889 -1.0454 -1.2528
22454SOL    HW269102   6.254   5.546   7.841 -0.4516  0.3958  0.6979
22455SOL     OW69103   2.808   2.650   2.015 -0.0296  0.0834 -0.1051
22455SOL    HW169104   2.770   2.587   2.076  0.8020 -1.7565 -1.4055
22455SOL    HW269105   2.808   2.605   1.930  0.7838  1.7591 -1.0503
22456SOL     OW69106   3.418   4.751   7.881  0.6711  0.3795 -0.4080
22456SOL    HW169107   3.451   4.738   7.970  0.1898 -1.3715 -0.4403
22456SOL    HW269108   3.481   4.812   7.841  2.1557 -0.5128  0.4536
22457SOL     OW69109   4.348   5.912   6.615 -0.6634 -0.1567  0.1127
22457SOL    HW169110   4.350   5.875   6.703 -2.3350  0.8267  0.6127
22457SOL    HW269111   4.361   6.006   6.628 -2.6288  0.2319 -0.4913
22458SOL     OW69112   5.615   4.694   4.687 -0.4432  0.4820  0.1789
22458SOL    HW169113   5.687   4.682   4.749 -0.0357  0.9770 -0.1867
22458SOL    HW269114   5.658   4.719   4.605 -0.9601 -0.3910 -0.3772
22459SOL     OW69115   6.257   9.340   2.750 -0.2204  0.0109 -0.7739
22459SOL    HW169116   6.235   9.292   2.830 -1.5514  0.3950 -0.8870
22459SOL    HW269117   6.246   9.433   2.774 -3.2072  0.0859 -2.0459
22460SOL     OW69118   7.653   0.259   5.076  0.4538  0.0510 -0.7467
22460SOL    HW169119   7.638   0.347   5.112 -0.1184 -1.0346  1.7922
22460SOL    HW269120   7.718   0.274   5.006 -0.7471  2.6766 -1.4579
22461SOL     OW69121   6.703   3.610   1.238 -0.0360 -0.2942  0.0069
22461SOL    HW169122   6.662   3.695   1.222  3.4079  1.0146 -3.8107
22461SOL    HW269123   6.671   3.555   1.166 -0.7972 -1.7407  1.3859
22462SOL     OW69124   7.273   5.934   8.073 -0.3814  0.2163 -0.3823
22462SOL    HW169125   7.221   5.856   8.091 -0.4615  0.6433  1.4564
22462SOL    HW269126   7.213   6.007   8.087  0.3052  0.6612  0.3584
22463SOL     OW69127   5.713   2.628   0.029 -0.4583  0.0754  0.1309
22463SOL    HW169128   5.684   2.539   0.047 -1.7251  0.3370 -0.4991
22463SOL    HW269129   5.646   2.663  -0.030 -0.8245  1.9759  1.6053
22464SOL     OW69130   7.594   1.725   7.174  0.2520 -0.5134 -0.1395
22464SOL    HW169131   7.601   1.652   7.236 -0.8051 -0.7205 -0.2482
22464SOL    HW269132   7.503   1.724   7.146  0.3677  0.4915 -0.5931
22465SOL     OW69133   0.724   0.418   1.165 -0.5045 -1.0602  0.3867
22465SOL    HW169134   0.748   0.327   1.152  1.2581 -0.3439 -2.1290
22465SOL    HW269135   0.685   0.445   1.082 -0.4313  0.6196  0.8571
22466SOL     OW69136   8.148   5.295   9.352  0.1062  0.1544 -0.8308
22466SOL    HW169137   8.088   5.221   9.352 -0.3153  0.4918 -0.8551
22466SOL    HW269138   8.156   5.319   9.444  1.0117 -0.5273 -0.7153
22467SOL     OW69139   7.811   8.837   1.696  0.1988  0.2593  0.8340
22467SOL    HW169140   7.784   8.745   1.697 -2.0342  0.8512  0.1806
22467SOL    HW269141   7.880   8.841   1.630  0.5987 -0.9947  1.1467
22468SOL     OW69142   8.183   2.752   8.061 -0.5489  0.1177 -0.0067
22468SOL    HW169143   8.150   2.809   8.130  2.2995 -0.5986  2.1056
22468SOL    HW269144   8.237   2.810   8.006  1.6095 -0.2298  1.6189
22469SOL     OW69145   0.982   7.010   7.087 -0.5391  0.1861 -0.7702
22469SOL    HW169146   1.049   6.946   7.060 -1.1104 -0.4561 -0.6973
22469SOL    HW269147   1.018   7.094   7.060  1.3630  0.1384  1.2710
22470SOL     OW69148   1.730   8.279   2.052  0.4638  0.4049 -0.0895
22470SOL    HW169149   1.706   8.370   2.033 -3.2903 -0.2584  0.7009
22470SOL    HW269150   1.800   8.286   2.118  1.5512  2.6477 -1.3687
22471SOL     OW69151   2.957   4.741   6.935 -0.0559 -0.2308  0.2502
22471SOL    HW169152   3.006   4.818   6.908 -0.8386  0.2564  0.1818
22471SOL    HW269153   2.985   4.725   7.025 -0.9388  1.0257  0.7834
22472SOL     OW69154   9.104   7.474   4.189  0.0224  0.1701  0.0930
22472SOL    HW169155   9.137   7.416   4.258  0.0719 -1.3763 -1.1616
22472SOL    HW269156   9.021   7.434   4.163 -0.6025  1.4318  0.0725
22473SOL     OW69157   6.161   4.106   8.351 -0.3626 -1.0443 -0.6198
22473SOL    HW169158   6.203   4.024   8.374 -1.3597 -1.2882  0.4158
22473SOL    HW269159   6.075   4.103   8.394  0.2653  1.2921  1.0194
22474SOL     OW69160   8.984   2.280   3.855  0.1678  0.2492  0.1927
22474SOL    HW169161   8.992   2.184   3.851  0.0138  0.2718 -0.7828
22474SOL    HW269162   9.048   2.306   3.922 -0.8572 -0.6444  1.5797
22475SOL     OW69163   3.594   1.397   0.821 -0.2408 -0.1172  0.7345
22475SOL    HW169164   3.544   1.389   0.902  0.2469 -0.8898  0.9746
22475SOL    HW269165   3.657   1.324   0.824 -0.6903 -0.6111 -0.6576
22476SOL     OW69166   6.767   7.644   1.135  0.3727 -0.3552  0.0008
22476SOL    HW169167   6.763   7.681   1.223  0.6555 -2.3755  0.9329
22476SOL    HW269168   6.682   7.665   1.096 -0.3978 -0.7807  1.3733
22477SOL     OW69169   4.089   8.545   6.506  0.5707  0.0335  0.2524
22477SOL    HW169170   4.124   8.633   6.521  0.5898 -0.1556  1.3637
22477SOL    HW269171   4.147   8.507   6.439 -0.1047  1.2457 -1.0859
22478SOL     OW69172   1.365   9.327   4.340 -0.6102 -0.1395 -0.7053
22478SOL    HW169173   1.344   9.263   4.272 -0.9917  2.2235 -2.9928
22478SOL    HW269174   1.451   9.362   4.315 -0.6360  0.5993  0.1672
22479SOL     OW69175   5.328   9.449   8.341 -0.3082 -0.4845  0.5778
22479SOL    HW169176   5.351   9.391   8.268 -0.9324 -1.2999  1.0078
22479SOL    HW269177   5.387   9.422   8.411  1.8896  1.8196 -0.2493
22480SOL     OW69178   4.780   2.032   8.813 -0.3689 -0.5461  0.4792
22480SOL    HW169179   4.749   2.103   8.756 -0.3959 -0.4961  0.5569
22480SOL    HW269180   4.815   2.076   8.890 -0.1836 -0.6075  0.4293
22481SOL     OW69181   3.315   9.426   6.366 -0.2195  0.4257  0.1690
22481SOL    HW169182   3.299   9.359   6.433  0.1437  1.2562  1.0989
22481SOL    HW269183   3.306   9.378   6.283 -1.6245 -0.4236  0.7595
22482SOL     OW69184   5.107   6.720   4.101 -0.2775  0.6193  0.5625
22482SOL    HW169185   5.121   6.706   4.195 -0.7938 -1.5503  0.3698
22482SOL    HW269186   5.014   6.744   4.094 -0.4501 -0.0116  0.5691
22483SOL     OW69187   1.418   4.737   8.299 -0.2439  0.0476 -0.4762
22483SOL    HW169188   1.351   4.692   8.349 -0.2576 -1.1562 -1.5426
22483SOL    HW269189   1.480   4.770   8.365 -0.6939 -0.7782  0.3711
22484SOL     OW69190   3.668   4.131   8.432  0.1106  0.2749  0.0765
22484SOL    HW169191   3.592   4.080   8.461 -0.8969  1.5762 -0.1677
22484SOL    HW269192   3.728   4.127   8.506  0.1281 -1.3517  0.0100
22485SOL     OW69193   0.247   5.681   7.536 -0.6399  0.1225  0.6266
22485SOL    HW169194   0.335   5.686   7.499 -1.6189  1.1365 -1.7754
22485SOL    HW269195   0.245   5.750   7.602 -0.3074  1.8032 -1.0299
22486SOL     OW69196   6.892   0.567   3.967  0.6805  0.2940  0.1586
22486SOL    HW169197   6.798   0.546   3.966  0.7125  0.1733 -0.5913
22486SOL    HW269198   6.900   0.646   3.913  1.0414  0.1852  0.0520
22487SOL     OW69199   6.694   8.817   0.148  0.5028  0.0544 -0.0278
22487SOL    HW169200   6.706   8.731   0.189  0.7150  0.3488  0.5451
22487SOL    HW269201   6.675   8.876   0.222 -2.0494  0.0948 -0.6077
22488SOL     OW69202   8.486   2.064   6.383 -0.3789  0.0129  0.1422
22488SOL    HW169203   8.479   2.001   6.312 -2.1713 -1.8961  1.8670
22488SOL    HW269204   8.425   2.134   6.360  0.7268  0.5755 -1.2070
22489SOL     OW69205   0.063   6.605   2.644  0.1611  0.0139  0.2785
22489SOL    HW169206   0.031   6.538   2.704  2.1182 -0.7391  0.5590
22489SOL    HW269207   0.061   6.686   2.696 -0.0906 -0.2427  0.6746
22490SOL     OW69208   4.757   7.413   2.812  0.4465 -0.5936 -0.1479
22490SOL    HW169209   4.729   7.321   2.816  0.6672 -0.6677 -0.2728
22490SOL    HW269210   4.760   7.433   2.718 -0.7945 -0.0830 -0.0960
22491SOL     OW69211   3.746   4.543   2.800  0.1030  0.0136 -0.5211
22491SOL    HW169212   3.784   4.603   2.735 -0.0483  1.1791  0.4395
22491SOL    HW269213   3.801   4.553   2.877 -0.7303 -0.0774  0.0998
22492SOL     OW69214   1.477   2.027   5.106 -0.7318  0.0055 -0.0670
22492SOL    HW169215   1.498   1.948   5.055  2.3373  2.1192 -2.4853
22492SOL    HW269216   1.409   2.071   5.055 -1.0170 -0.1074  0.2131
22493SOL     OW69217   7.342   3.921   0.306 -0.4171  0.1384 -0.2834
22493SOL    HW169218   7.347   3.866   0.228  0.1958  1.5745 -1.3009
22493SOL    HW269219   7.248   3.939   0.317 -1.0466 -3.5227  1.9037
22494SOL     OW69220   8.278   8.363   3.133  0.2313  0.0348  0.5990
22494SOL    HW169221   8.272   8.435   3.070 -0.8761 -0.0173  0.6255
22494SOL    HW269222   8.299   8.405   3.216  0.3748  0.2446  0.4580
22495SOL     OW69223   8.645   3.452   8.519  0.3009  0.0788 -0.4845
22495SOL    HW169224   8.651   3.430   8.612  0.8698 -1.2478 -0.8129
22495SOL    HW269225   8.609   3.374   8.479 -0.0807  0.7005 -1.3734
22496SOL     OW69226   9.352   7.878   5.012  0.5098  0.7892  0.5544
22496SOL    HW169227   9.301   7.801   4.988  0.0999  0.7861  1.3853
22496SOL    HW269228   9.320   7.901   5.100  1.5236  1.1331  0.8474
22497SOL     OW69229   3.986   5.094   5.129  0.0014  0.4400 -0.3938
22497SOL    HW169230   3.952   5.126   5.213 -0.2691 -0.5899 -0.0963
22497SOL    HW269231   3.942   5.148   5.063 -1.4042 -0.1212  0.0371
22498SOL     OW69232   5.066   9.473   4.823  0.2523  0.2632 -0.3923
22498SOL    HW169233   5.021   9.449   4.742 -0.0776 -0.8274  0.0828
22498SOL    HW269234   5.086   9.389   4.864  0.1598  0.8005  0.7898
22499SOL     OW69235   0.171   5.744   1.744  0.1398 -0.2732  0.2580
22499SOL    HW169236   0.204   5.671   1.691  1.3694  1.1337 -0.9978
22499SOL    HW269237   0.213   5.732   1.830  3.1196  0.7758 -0.9269
22500SOL     OW69238   2.653   0.261   3.503 -0.0208 -0.0798  0.0447
22500SOL    HW169239   2.612   0.347   3.503 -2.0532 -0.9811 -0.4561
22500SOL    HW269240   2.691   0.252   3.416  1.3150  0.7704  0.5150
22501SOL     OW69241   1.413   0.666   7.793  0.0484 -0.2053 -0.0990
22501SOL    HW169242   1.428   0.586   7.742  0.5900  0.0499 -0.3450
22501SOL    HW269243   1.397   0.734   7.728  0.7615  0.1244  0.0595
22502SOL     OW69244   1.598   4.037   1.332  0.3634  0.1491 -0.0599
22502SOL    HW169245   1.656   4.069   1.262  0.6393  0.5018  0.3223
22502SOL    HW269246   1.654   3.983   1.387  0.6221  1.3605  0.9207
22503SOL     OW69247   2.034   5.415   0.311 -0.2701 -0.1019  0.0538
22503SOL    HW169248   2.089   5.346   0.273  0.5701 -0.0752  1.1574
22503SOL    HW269249   1.977   5.443   0.239  0.5419 -0.7674 -0.8763
22504SOL     OW69250   7.462   7.920   2.719 -0.0684  0.6454 -0.0594
22504SOL    HW169251   7.414   7.982   2.774  1.7351 -0.2262  2.7036
22504SOL    HW269252   7.545   7.906   2.765  1.6557 -0.1249 -3.1028
22505SOL     OW69253   6.554   1.671   8.716  0.5655  0.4503  0.0079
22505SOL    HW169254   6.587   1.760   8.729  0.2515  0.3456  1.8015
22505SOL    HW269255   6.535   1.639   8.805  0.4387 -1.3196 -0.6109
22506SOL     OW69256   6.975   4.573   0.704  0.0670 -0.2522  0.3671
22506SOL    HW169257   6.918   4.577   0.627  1.8996  1.5283 -0.9824
22506SOL    HW269258   6.963   4.657   0.747  1.3490  0.0133  0.2523
22507SOL     OW69259   1.469   7.292   7.528  0.5053 -0.0071 -0.0685
22507SOL    HW169260   1.481   7.197   7.527 -1.4586 -0.2996 -0.9119
22507SOL    HW269261   1.504   7.320   7.613 -1.0920 -1.8419  1.2811
22508SOL     OW69262   0.401   3.435   3.774  0.1986 -0.6725  0.9292
22508SOL    HW169263   0.310   3.414   3.754  0.0265  1.6873 -1.4237
22508SOL    HW269264   0.400   3.529   3.792  2.1855 -0.5613  0.6770
22509SOL     OW69265   6.387   7.740   2.014  0.2513  0.4465  0.0121
22509SOL    HW169266   6.418   7.720   1.926  1.7469 -1.0698  0.8233
22509SOL    HW269267   6.316   7.678   2.029  0.7248 -0.0388  0.2621
22510SOL     OW69268   7.684   4.095   3.173  0.1571  0.4205 -0.3895
22510SOL    HW169269   7.775   4.102   3.203 -0.2642  0.2635  0.9895
22510SOL    HW269270   7.672   4.171   3.116  0.9126  0.8947  0.0647
22511SOL     OW69271   5.630   9.539   8.881 -0.3170 -0.1194 -0.3329
22511SOL    HW169272   5.669   9.550   8.794 -0.0860 -1.9830 -0.5064
22511SOL    HW269273   5.536   9.534   8.864 -0.2634 -0.6375 -0.5217
22512SOL     OW69274   7.843   0.736   2.532  0.1238  0.5693  0.0403
22512SOL    HW169275   7.747   0.734   2.528 -0.2262  3.7275  2.1637
22512SOL    HW269276   7.871   0.758   2.444 -0.8919 -2.0987 -1.0355
22513SOL     OW69277   7.759   2.615   4.833 -0.3512  1.0319  0.0286
22513SOL    HW169278   7.724   2.534   4.872  0.3973  0.8234  0.2929
22513SOL    HW269279   7.727   2.614   4.743 -0.1328  0.2981 -0.0475
22514SOL     OW69280   3.984   9.235   4.796 -0.1076  0.2944  0.0866
22514SOL    HW169281   4.021   9.163   4.848  1.5091  0.7760 -0.3487
22514SOL    HW269282   4.023   9.314   4.833 -2.0300  1.0197  0.7055
22515SOL     OW69283   6.931   0.919   3.504 -0.0618  0.2697  0.2986
22515SOL    HW169284   6.982   0.849   3.464 -0.7717 -0.4994  0.6903
22515SOL    HW269285   6.841   0.904   3.474 -0.3774  0.4618  1.1177
22516SOL     OW69286   7.359   2.311   1.872  0.0397  0.4938 -0.3681
22516SOL    HW169287   7.292   2.287   1.808  1.6215 -2.7894 -0.9845
22516SOL    HW269288   7.315   2.306   1.957 -0.9450  0.3032 -0.8751
22517SOL     OW69289   3.716   7.162   8.400 -0.3457 -0.3473  0.2424
22517SOL    HW169290   3.705   7.067   8.394  1.9472 -0.6271 -0.6171
22517SOL    HW269291   3.783   7.183   8.335 -0.5299  1.8208  0.6621
22518SOL     OW69292   2.649   3.736   2.129  0.2951 -0.0456 -0.2978
22518SOL    HW169293   2.589   3.696   2.192 -0.5204  1.5784  0.0050
22518SOL    HW269294   2.694   3.804   2.179 -0.5078  1.4080 -1.5070
22519SOL     OW69295   7.123   8.120   4.188  1.5409  0.0501  0.0816
22519SOL    HW169296   7.156   8.050   4.132  2.7616  0.4235  0.2959
22519SOL    HW269297   7.200   8.150   4.236  1.5936  3.1592 -1.7232
22520SOL     OW69298   8.476   3.861   1.487 -0.3802 -0.2735 -0.4615
22520SOL    HW169299   8.566   3.880   1.514 -0.9553  1.4359  0.4361
22520SOL    HW269300   8.473   3.766   1.478  1.2588 -0.4496  0.4566
22521SOL     OW69301   1.656   0.319   9.317 -0.7394 -0.0222  0.1153
22521SOL    HW169302   1.562   0.340   9.319 -0.8107 -0.1017 -1.4168
22521SOL    HW269303   1.659   0.225   9.334 -0.8436  0.1409  1.1360
22522SOL     OW69304   3.527   5.456   5.881  0.0244 -0.6266 -0.0747
22522SOL    HW169305   3.544   5.433   5.972  1.8810 -2.1031 -0.7243
22522SOL    HW269306   3.597   5.518   5.858 -0.3112 -0.4202 -0.5544
22523SOL     OW69307   3.637   4.463   7.988 -0.0959 -0.5622 -0.2961
22523SOL    HW169308   3.614   4.503   8.072 -0.7223  2.5788 -1.8316
22523SOL    HW269309   3.732   4.458   7.990 -0.0932 -0.3928  0.5398
22524SOL     OW69310   0.627   3.144   0.255  0.2986  0.1861 -0.2926
22524SOL    HW169311   0.587   3.230   0.252 -0.9104 -0.3681 -0.5889
22524SOL    HW269312   0.717   3.160   0.285  0.3871  1.6313 -1.2461
22525SOL     OW69313   8.569   2.996   5.671  0.0391 -0.3548 -0.6524
22525SOL    HW169314   8.486   3.041   5.654 -1.3464 -1.9601  1.2958
22525SOL    HW269315   8.584   2.941   5.595 -0.6344  0.0371 -1.0723
22526SOL     OW69316   7.167   6.479   1.893  0.2336  0.1209  0.5091
22526SOL    HW169317   7.210   6.450   1.974 -0.6047 -0.6218  0.6977
22526SOL    HW269318   7.074   6.479   1.914  0.0714  0.8355 -0.1780
22527SOL     OW69319   8.126   3.062   9.201 -0.3018 -0.5495 -0.1603
22527SOL    HW169320   8.172   2.996   9.253  0.2474 -0.9044 -1.0798
22527SOL    HW269321   8.039   3.024   9.186 -0.7828 -0.0590  1.2259
22528SOL     OW69322   4.591   2.187   0.103 -0.8060  0.0614 -0.0866
22528SOL    HW169323   4.560   2.178   0.192  2.1258  1.2558  1.1937
22528SOL    HW269324   4.596   2.281   0.088  0.0298 -0.1020 -0.9763
22529SOL     OW69325   5.313   8.186   4.027 -0.1062  0.0777 -0.2483
22529SOL    HW169326   5.331   8.244   3.953 -1.7071  1.9844  0.7415
22529SOL    HW269327   5.370   8.218   4.097  0.2817 -0.7123 -0.1953
22530SOL     OW69328   2.447   2.743   6.369 -0.0661  0.2042  0.2539
22530SOL    HW169329   2.503   2.805   6.323 -1.0339 -0.4652 -1.9625
22530SOL    HW269330   2.505   2.668   6.388  0.3023  0.4069 -0.0523
22531SOL     OW69331   0.814   1.944   7.270 -0.8035  0.4786 -0.2619
22531SOL    HW169332   0.908   1.937   7.284 -0.5187 -1.4793 -2.5951
22531SOL    HW269333   0.775   1.912   7.352  0.5934 -0.9486 -0.1144
22532SOL     OW69334   4.067   2.275   0.176  0.1740 -0.0966  0.0269
22532SOL    HW169335   4.054   2.224   0.256  1.8114 -0.7303 -0.0799
22532SOL    HW269336   4.066   2.366   0.205 -0.9612 -0.2464  0.4969
22533SOL     OW69337   8.426   3.904   3.201 -0.1743  0.6931  0.3113
22533SOL    HW169338   8.502   3.857   3.166 -0.2756  1.1402 -0.5340
22533SOL    HW269339   8.363   3.904   3.128 -0.7449  0.8583  0.8009
22534SOL     OW69340   1.631   3.930   7.849 -0.2045 -0.0121  0.5685
22534SOL    HW169341   1.603   3.915   7.939 -1.6399  1.5452  0.4250
22534SOL    HW269342   1.551   3.952   7.802  0.5758 -0.4091 -1.0315
22535SOL     OW69343   7.530   2.392   9.018 -0.4387 -0.1072  0.6468
22535SOL    HW169344   7.574   2.411   8.935  0.8368 -1.3219  0.9996
22535SOL    HW269345   7.547   2.469   9.073 -0.3513  0.2333  0.1507
22536SOL     OW69346   6.768   3.086   0.922 -0.2568 -0.3226  0.5742
22536SOL    HW169347   6.702   3.151   0.897  0.4004 -0.7112 -2.6827
22536SOL    HW269348   6.718   3.005   0.936 -0.5856 -0.7442 -2.3686
22537SOL     OW69349   7.848   6.886   8.953 -0.4776  0.1106 -0.1536
22537SOL    HW169350   7.864   6.893   9.048 -0.1422 -0.2753 -0.1790
22537SOL    HW269351   7.791   6.960   8.933  2.4112  2.5031 -0.3078
22538SOL     OW69352   6.004   2.081   8.972  0.1127  0.5446  0.8915
22538SOL    HW169353   6.085   2.058   9.017  0.4268  0.6518  0.3778
22538SOL    HW269354   6.030   2.102   8.883 -0.5618 -0.0944  0.5318
22539SOL     OW69355   2.073   7.239   6.246 -0.1685  0.4847  0.3615
22539SOL    HW169356   2.149   7.250   6.303  0.0615  0.4088  0.0674
22539SOL    HW269357   2.101   7.271   6.161 -1.0590  2.2700  0.6976
22540SOL     OW69358   8.993   7.095   6.388  0.5818 -0.4461  0.6070
22540SOL    HW169359   9.014   7.027   6.451 -1.3166 -0.4030  1.3644
22540SOL    HW269360   8.980   7.174   6.440 -2.1630 -0.6571  0.4294
22541SOL     OW69361   7.580   7.677   2.235 -0.0953 -0.2971 -0.4681
22541SOL    HW169362   7.579   7.596   2.284  0.9455  1.0108  1.8961
22541SOL    HW269363   7.656   7.670   2.178 -0.1509 -1.0635 -0.4509
22542SOL     OW69364   2.487   4.371   8.079  0.3245  0.4039 -0.1297
22542SOL    HW169365   2.472   4.297   8.020 -1.0641  1.1238 -0.7197
22542SOL    HW269366   2.443   4.345   8.160 -3.6763  2.0555 -1.5174
22543SOL     OW69367   3.308   9.294   6.110 -0.0476 -0.7071  0.4759
22543SOL    HW169368   3.285   9.363   6.047  0.6675  0.7723  1.7670
22543SOL    HW269369   3.354   9.228   6.058 -0.7916 -0.2534 -0.8040
22544SOL     OW69370   6.288   7.562   2.609  0.3481  0.0920  0.0998
22544SOL    HW169371   6.237   7.597   2.682 -2.8620 -0.3765 -1.6773
22544SOL    HW269372   6.245   7.479   2.588  2.5275 -0.8370 -1.0033
22545SOL     OW69373   4.478   8.320   0.568  0.2801 -0.1429 -0.0705
22545SOL    HW169374   4.481   8.392   0.631 -0.1510  1.0094 -1.3059
22545SOL    HW269375   4.385   8.314   0.543  0.5749  0.1356 -1.3358
22546SOL     OW69376   8.043   6.203   8.029 -0.4309 -0.3242 -0.6924
22546SOL    HW169377   8.125   6.166   7.997  0.0223 -0.8856  0.9972
22546SOL    HW269378   8.040   6.291   7.991  1.0472 -0.2345 -0.6518
22547SOL     OW69379   5.970   8.924   8.786 -0.2437 -0.3992 -0.3209
22547SOL    HW169380   5.944   8.913   8.695  1.1088  1.6451 -1.0208
22547SOL    HW269381   6.065   8.936   8.783  0.0426 -1.6905  1.5231
22548SOL     OW69382   7.792   9.544   6.716 -0.2935 -0.0018  0.3423
22548SOL    HW169383   7.714   9.545   6.771  1.0230  1.3241  2.3455
22548SOL    HW269384   7.853   9.603   6.761  1.1901  0.5042 -2.1424
22549SOL     OW69385   6.914   0.546   6.936  0.0272  0.2102 -0.3977
22549SOL    HW169386   6.901   0.563   7.029  0.6795 -0.6643 -0.1395
22549SOL    HW269387   6.862   0.614   6.892 -0.0124  0.8397  0.5926
22550SOL     OW69388   5.314   2.931   5.054  0.1650  0.1923 -0.1132
22550SOL    HW169389   5.325   3.020   5.020 -1.7786  0.2216 -0.7886
22550SOL    HW269390   5.259   2.887   4.989 -2.8989 -0.0430  2.3694
22551SOL     OW69391   2.202   0.439   3.604  0.0679 -0.0367  0.3022
22551SOL    HW169392   2.145   0.513   3.623 -0.1771 -0.4633  1.3534
22551SOL    HW269393   2.291   0.473   3.614  0.0105  0.5914 -1.1868
22552SOL     OW69394   4.692   5.017   2.120  0.2147 -0.3110  0.1404
22552SOL    HW169395   4.692   4.963   2.041 -1.4520 -0.3723  0.1505
22552SOL    HW269396   4.600   5.039   2.134  0.6923  1.3072  0.9814
22553SOL     OW69397   6.547   3.220   9.242 -0.1537 -0.0314 -0.0475
22553SOL    HW169398   6.519   3.292   9.185 -1.4426 -0.7284 -0.3247
22553SOL    HW269399   6.539   3.255   9.331  0.8947  0.7248 -0.2331
22554SOL     OW69400   5.987   0.962   6.134  0.1620 -0.1872 -0.7243
22554SOL    HW169401   6.001   0.973   6.228 -2.3441 -0.9429 -0.1789
22554SOL    HW269402   5.927   1.033   6.110  0.4703 -0.2330 -1.6925
22555SOL     OW69403   5.217   6.131   8.929 -0.4760 -0.4872 -0.0252
22555SOL    HW169404   5.297   6.150   8.977 -0.5385  0.4712 -0.2650
22555SOL    HW269405   5.165   6.077   8.988 -0.1438 -0.1364  0.5972
22556SOL     OW69406   9.315   3.653   7.586  0.0859  0.4181 -0.0851
22556SOL    HW169407   9.358   3.725   7.540 -0.8780  1.9392  1.2914
22556SOL    HW269408   9.372   3.635   7.660 -0.2258  0.5099  0.1765
22557SOL     OW69409   7.490   6.239   6.206 -0.2653 -0.2922 -0.0264
22557SOL    HW169410   7.549   6.248   6.131  0.2510 -0.4561  0.3524
22557SOL    HW269411   7.459   6.149   6.201 -0.5104 -0.1965 -0.2443
22558SOL     OW69412   8.924   4.717   0.764  0.5491  0.3223 -0.1905
22558SOL    HW169413   8.940   4.675   0.679  2.1513 -0.4605  0.4662
22558SOL    HW269414   8.978   4.796   0.761 -0.3670  0.9620 -0.3581
22559SOL     OW69415   4.966   7.983   6.965  0.1337 -0.4940  0.0632
22559SOL    HW169416   4.991   7.967   7.056  0.0094 -2.7908 -0.2405
22559SOL    HW269417   4.895   7.921   6.949 -0.1308  0.1655 -1.4983
22560SOL     OW69418   3.365   5.323   2.959  0.2609  0.1008  0.3648
22560SOL    HW169419   3.440   5.375   2.931  0.9295 -0.4329  1.1445
22560SOL    HW269420   3.298   5.388   2.981  0.4362  0.5727 -0.4500
22561SOL     OW69421   3.082   1.134   7.236 -0.7525  0.6585  0.2580
22561SOL    HW169422   3.072   1.160   7.327  0.1165  0.7071  0.3486
22561SOL    HW269423   3.173   1.156   7.214  0.1729 -2.4841  0.4266
22562SOL     OW69424   2.221   9.499   7.780  0.3288 -0.0771  0.2112
22562SOL    HW169425   2.139   9.512   7.734  0.2683 -2.4301 -0.4806
22562SOL    HW269426   2.195   9.466   7.866  0.5222 -1.3392 -0.1960
22563SOL     OW69427   5.487   4.358   5.796 -0.0043  0.0802 -0.2025
22563SOL    HW169428   5.539   4.415   5.739  0.6485  1.0580  1.2997
22563SOL    HW269429   5.489   4.273   5.753 -0.3200  0.9706 -2.1019
22564SOL     OW69430   8.173   1.659   5.810 -0.0335 -0.6023  0.4525
22564SOL    HW169431   8.167   1.616   5.895 -2.7979 -0.9185  0.1817
22564SOL    HW269432   8.232   1.733   5.825  0.6009 -1.4242  2.2750
22565SOL     OW69433   1.029   4.854   2.243  0.2791 -0.4318 -0.6511
22565SOL    HW169434   1.023   4.761   2.222 -1.6666 -0.4129 -0.4037
22565SOL    HW269435   1.091   4.859   2.316  0.7445 -1.4715 -0.9583
22566SOL     OW69436   7.654   7.991   0.269 -0.1334 -0.2613  0.5378
22566SOL    HW169437   7.729   7.958   0.219  0.4888  2.7445 -0.7570
22566SOL    HW269438   7.609   8.049   0.207 -1.0007  1.3612  2.5823
22567SOL     OW69439   8.647   8.505   3.042 -0.7874  0.3990 -0.2411
22567SOL    HW169440   8.602   8.552   3.112 -0.9864  0.5123 -0.4447
22567SOL    HW269441   8.674   8.422   3.082 -0.4240  0.6905  0.1245
22568SOL     OW69442   7.379   9.211   6.350 -0.2112  0.0913 -0.1919
22568SOL    HW169443   7.288   9.227   6.377  0.0988  0.0828  0.9172
22568SOL    HW269444   7.404   9.132   6.398  0.9086  1.0458  0.8678
22569SOL     OW69445   6.643   9.503   3.620 -0.9853 -0.1214  0.2317
22569SOL    HW169446   6.649   9.574   3.684 -0.9074 -0.8070  1.0180
22569SOL    HW269447   6.607   9.543   3.542  1.3320  1.3186 -0.1972
22570SOL     OW69448   7.390   0.167   8.658 -0.7480  0.1388  0.6189
22570SOL    HW169449   7.296   0.172   8.676 -0.4514  1.1798  2.1371
22570SOL    HW269450   7.426   0.248   8.696  0.7315 -0.1461 -0.0999
22571SOL     OW69451   9.535   7.041   1.015 -0.2266 -0.6913 -0.0948
22571SOL    HW169452   9.444   7.040   0.987  0.4728 -1.6863 -2.5639
22571SOL    HW269453   9.570   6.956   0.988  1.2626 -0.6699  1.5310
22572SOL     OW69454   1.848   4.079   2.072 -0.3758  0.0577 -0.3916
22572SOL    HW169455   1.861   3.985   2.083  1.6505  0.5500  2.7577
22572SOL    HW269456   1.753   4.091   2.077 -0.6684 -1.8070 -0.8890
22573SOL     OW69457   0.986   8.558   0.917 -0.1423 -0.7319  0.2574
22573SOL    HW169458   1.000   8.548   0.823  3.6449  0.8327  0.4562
22573SOL    HW269459   0.897   8.526   0.933 -0.1630 -3.0068 -3.4791
22574SOL     OW69460   4.064   4.941   0.972 -0.1836  0.1508  0.0950
22574SOL    HW169461   3.972   4.965   0.961  0.2637  2.8527  1.3798
22574SOL    HW269462   4.113   5.018   0.942  1.7225 -1.4329 -1.1044
22575SOL     OW69463   7.653   7.898   6.932  0.7843  0.6973 -0.2772
22575SOL    HW169464   7.749   7.897   6.937  0.7771  0.8711 -0.1286
22575SOL    HW269465   7.634   7.858   6.847  0.9469 -0.4957  0.2275
22576SOL     OW69466   4.394   3.124   0.227 -0.0111 -0.0993 -0.0358
22576SOL    HW169467   4.301   3.111   0.210 -0.0405 -0.0346  0.0699
22576SOL    HW269468   4.438   3.084   0.152 -0.1229 -0.1511 -0.0745
22577SOL     OW69469   1.260   1.222   3.684 -0.4742  0.0617  0.3817
22577SOL    HW169470   1.239   1.208   3.777 -2.7455  0.8868  0.0631
22577SOL    HW269471   1.270   1.317   3.676  1.4853 -0.1294  0.0568
22578SOL     OW69472   4.204   0.712   6.517 -0.1792  0.1827 -0.5849
22578SOL    HW169473   4.143   0.656   6.468  1.6132 -0.4004 -2.2649
22578SOL    HW269474   4.148   0.770   6.568 -2.1926  0.5660 -3.0450
22579SOL     OW69475   6.238   4.311   2.676 -0.1750  0.1444  0.0359
22579SOL    HW169476   6.333   4.302   2.675 -0.3419 -4.2233  0.9788
22579SOL    HW269477   6.211   4.301   2.585  0.2315 -0.7275  0.0030
22580SOL     OW69478   9.123   5.970   2.943  0.4355 -0.2610  0.0860
22580SOL    HW169479   9.163   5.985   3.028  0.1934  0.9468 -0.0007
22580SOL    HW269480   9.161   6.036   2.885  0.5111 -0.9863 -0.7251
22581SOL     OW69481   5.602   6.086   2.297  0.3237  0.5628  0.2372
22581SOL    HW169482   5.580   6.031   2.222  1.1435 -0.3059  0.6201
22581SOL    HW269483   5.610   6.174   2.260  0.7812  0.1375 -0.7129
22582SOL     OW69484   5.014   5.699   6.059  0.1031 -0.0153 -0.3441
22582SOL    HW169485   5.047   5.622   6.105 -0.3440 -0.4071 -0.6689
22582SOL    HW269486   4.968   5.663   5.983 -1.9132  0.4459  0.5828
22583SOL     OW69487   7.629   2.196   5.081 -0.4334 -0.4514 -0.0419
22583SOL    HW169488   7.625   2.279   5.129  0.2346 -0.1836 -0.4447
22583SOL    HW269489   7.680   2.216   5.003  2.4401 -1.9416  1.3060
22584SOL     OW69490   7.096   0.747   5.770 -0.2548  0.5703 -0.6759
22584SOL    HW169491   7.119   0.777   5.682  0.7690 -0.4917 -0.8001
22584SOL    HW269492   7.164   0.785   5.826  0.5033 -0.7070 -0.7044
22585SOL     OW69493   9.532   2.481   6.240  0.5674  0.0296  0.0949
22585SOL    HW169494   9.573   2.466   6.325  0.5257  1.6103  0.4178
22585SOL    HW269495   9.597   2.531   6.191  0.1902 -0.0128 -0.4553
22586SOL     OW69496   7.908   8.135   0.093  0.0728  0.3417 -0.4943
22586SOL    HW169497   7.885   8.176   0.009  0.7821  0.7656 -0.4913
22586SOL    HW269498   8.003   8.144   0.099 -0.0526  1.1077  0.7588
22587SOL     OW69499   1.940   0.101   0.328 -0.3777  0.2504 -0.1072
22587SOL    HW169500   1.908   0.115   0.416 -2.2305 -0.1133 -0.6861
22587SOL    HW269501   1.931   0.185   0.284 -1.2828 -0.0387 -0.4892
22588SOL     OW69502   7.263   6.738   6.299 -0.3225  0.2149 -0.0558
22588SOL    HW169503   7.246   6.753   6.206 -1.6420  0.9481  0.2813
22588SOL    HW269504   7.184   6.693   6.331 -0.0729  0.3575  0.7957
22589SOL     OW69505   5.099   5.012   9.120  0.5886 -0.0259  0.4446
22589SOL    HW169506   5.066   5.093   9.160  1.0240  0.0735  0.6212
22589SOL    HW269507   5.194   5.017   9.134  0.6644 -0.3538  0.0546
22590SOL     OW69508   3.077   9.428   7.527 -0.2778 -0.0832 -0.4961
22590SOL    HW169509   3.145   9.413   7.461 -0.2051 -0.7995 -0.2622
22590SOL    HW269510   3.040   9.513   7.503  2.2958  1.5383  0.7499
22591SOL     OW69511   4.153   2.373   1.840  0.4961 -0.6154 -0.6382
22591SOL    HW169512   4.242   2.409   1.841  0.4269 -0.4565 -0.1277
22591SOL    HW269513   4.148   2.319   1.918  0.7146 -2.0299 -1.5734
22592SOL     OW69514   2.725   0.701   8.704  0.0786 -0.1710  0.6052
22592SOL    HW169515   2.698   0.742   8.622  2.0094 -0.0801 -0.0340
22592SOL    HW269516   2.769   0.771   8.753  0.7347 -0.7169  0.8175
22593SOL     OW69517   7.958   5.515   3.322  0.2835 -0.0164  0.0229
22593SOL    HW169518   8.004   5.463   3.388 -3.3078 -1.6473  1.5156
22593SOL    HW269519   7.952   5.457   3.246 -0.8512 -0.5646  0.5089
22594SOL     OW69520   1.144   9.533   4.221 -0.2558  0.0128 -0.0866
22594SOL    HW169521   1.168   9.455   4.269 -2.3139 -0.8068 -0.2770
22594SOL    HW269522   1.077   9.575   4.275 -1.9839 -0.4691 -1.7401
22595SOL     OW69523   7.798   4.843   8.158  0.0236  0.7598  0.5205
22595SOL    HW169524   7.800   4.850   8.254  1.1676 -0.6358  0.6267
22595SOL    HW269525   7.746   4.764   8.141 -0.0172  0.9025 -0.0125
22596SOL     OW69526   4.848   8.767   5.053 -0.0005 -0.0435  0.2067
22596SOL    HW169527   4.916   8.714   5.094  0.5243  0.7009  0.3138
22596SOL    HW269528   4.766   8.737   5.092  0.2389 -1.0596 -0.0402
22597SOL     OW69529   6.141   7.867   3.231  0.1586  0.0108  0.3559
22597SOL    HW169530   6.157   7.946   3.281 -0.5586  0.0113  0.5892
22597SOL    HW269531   6.065   7.887   3.177 -0.4676 -0.7498  0.9386
22598SOL     OW69532   1.083   7.529   2.920  0.5135 -0.3147 -0.0923
22598SOL    HW169533   1.043   7.442   2.916  0.4565 -0.3545  1.2085
22598SOL    HW269534   1.029   7.583   2.861  0.9891 -1.3098 -1.4796
22599SOL     OW69535   0.575   4.105   1.131  0.1363 -0.0861 -0.4025
22599SOL    HW169536   0.609   4.148   1.052 -0.7291  0.1884 -0.6350
22599SOL    HW269537   0.539   4.022   1.099  2.4378 -1.3794  0.1403
22600SOL     OW69538   4.070   6.945   5.410  0.1728 -0.2711 -0.0560
22600SOL    HW169539   4.101   6.984   5.328 -1.2843 -0.2373 -0.6089
22600SOL    HW269540   4.070   6.850   5.393 -2.8505 -0.1718 -1.1690
22601SOL     OW69541   6.717   2.251   3.223  0.2744 -0.0695  0.0878
22601SOL    HW169542   6.706   2.323   3.286 -0.7248  0.6297 -0.8601
22601SOL    HW269543   6.774   2.189   3.269 -2.5197 -0.9163  2.8053
22602SOL     OW69544   3.885   5.471   1.698 -0.0039  0.3070 -0.2389
22602SOL    HW169545   3.963   5.490   1.647 -1.0184  3.2013 -0.9020
22602SOL    HW269546   3.897   5.519   1.780 -0.9287  0.5209 -0.2176
22603SOL     OW69547   5.350   4.728   8.993 -0.2121 -0.0273  0.2619
22603SOL    HW169548   5.257   4.710   8.982  0.0908 -0.4591 -1.9636
22603SOL    HW269549   5.371   4.790   8.923  1.1542  0.1653  0.8150
22604SOL     OW69550   8.132   0.666   0.437  0.1761 -0.2780 -0.4642
22604SOL    HW169551   8.176   0.660   0.522 -1.4181 -0.1146  0.4173
22604SOL    HW269552   8.131   0.759   0.417  1.1119 -0.3760 -0.9753
22605SOL     OW69553   1.435   1.802   8.024 -0.5141  0.0126  0.0723
22605SOL    HW169554   1.387   1.810   7.942 -0.8565 -0.6880  0.1991
22605SOL    HW269555   1.400   1.872   8.079 -0.7180  0.0919 -0.1560
22606SOL     OW69556   2.797   1.577   0.423  0.2448 -0.1839  0.5675
22606SOL    HW169557   2.768   1.659   0.461 -0.1588 -0.8919  1.8466
22606SOL    HW269558   2.787   1.513   0.493 -2.1463 -1.8928 -1.1640
22607SOL     OW69559   9.273   8.715   5.141  0.0818  0.1650  0.0246
22607SOL    HW169560   9.368   8.704   5.148 -0.1772 -3.3701 -0.1639
22607SOL    HW269561   9.260   8.759   5.056  1.5267  0.3663 -0.1088
22608SOL     OW69562   1.647   7.779   7.444 -0.5376  0.5255 -0.4056
22608SOL    HW169563   1.581   7.835   7.485 -0.4776  0.4121 -0.1532
22608SOL    HW269564   1.622   7.776   7.351 -2.6387 -1.8856  0.1162
22609SOL     OW69565   7.934   6.940   8.104  0.1866 -0.4751 -0.1931
22609SOL    HW169566   7.859   6.964   8.159  0.4278  1.3916 -0.6206
22609SOL    HW269567   7.962   7.022   8.064  1.5778 -1.3800 -1.1703
22610SOL     OW69568   8.028   8.326   2.469 -0.5223  0.4872  0.3968
22610SOL    HW169569   8.023   8.397   2.533 -0.6565  0.2726  0.6275
22610SOL    HW269570   8.098   8.269   2.501 -0.1921  0.6849  0.0369
22611SOL     OW69571   7.275   5.133   5.582  0.6123  0.5977  0.6158
22611SOL    HW169572   7.220   5.101   5.511  0.4539  0.5875  0.7410
22611SOL    HW269573   7.214   5.144   5.656  0.6902  1.0526  0.6131
22612SOL     OW69574   4.586   7.624   9.320 -0.1587 -0.6431  0.1189
22612SOL    HW169575   4.620   7.640   9.233 -0.1449 -0.4013  0.1670
22612SOL    HW269576   4.599   7.706   9.367  0.2798 -0.9258  0.4967
22613SOL     OW69577   6.447   5.760   0.720  0.3495 -0.2340 -0.2430
22613SOL    HW169578   6.429   5.807   0.802 -0.2262  0.8507 -0.9699
22613SOL    HW269579   6.365   5.717   0.698  0.4471 -0.3696 -0.3442
22614SOL     OW69580   4.722   4.803   3.198 -0.7021  0.3442 -0.1247
22614SOL    HW169581   4.763   4.720   3.221 -0.9753  0.6274  1.4663
22614SOL    HW269582   4.651   4.813   3.261 -0.4452  1.9549 -0.0560
22615SOL     OW69583   3.969   2.355   5.137  0.4977 -0.7359  0.2115
22615SOL    HW169584   3.965   2.328   5.046 -1.7130 -0.0376  0.0412
22615SOL    HW269585   4.057   2.391   5.148  0.6197 -0.3436 -1.7646
22616SOL     OW69586   6.552   0.016   9.563  0.4833 -0.0101  0.3069
22616SOL    HW169587   6.510   0.076   9.625  0.7018 -0.1212  0.5636
22616SOL    HW269588   6.531   0.053   9.477 -0.5851 -0.3521  0.3992
22617SOL     OW69589   3.566   0.929   0.243 -0.4216  0.1020  0.1794
22617SOL    HW169590   3.616   0.947   0.322  0.4632 -1.4947  0.0237
22617SOL    HW269591   3.607   0.851   0.206 -2.8600 -1.1215 -0.1157
22618SOL     OW69592   8.125   7.030   4.564  0.1434 -0.2405  0.7717
22618SOL    HW169593   8.143   7.123   4.546 -1.3587  0.0032  0.3413
22618SOL    HW269594   8.070   7.002   4.490  0.9747 -1.6209  0.6469
22619SOL     OW69595   8.003   9.152   0.084 -0.4365 -0.1399 -0.3276
22619SOL    HW169596   8.097   9.140   0.101 -0.1018  0.7805 -1.4151
22619SOL    HW269597   7.990   9.121  -0.005 -1.4331 -1.4003  0.2212
22620SOL     OW69598   7.606   1.656   5.389 -0.7455  0.2324 -0.8131
22620SOL    HW169599   7.535   1.600   5.419  0.8331 -1.7439 -0.4563
22620SOL    HW269600   7.648   1.688   5.469 -2.2623  2.9593 -0.9899
22621SOL     OW69601   0.811   3.290   0.007 -0.2745 -0.7071 -0.0565
22621SOL    HW169602   0.806   3.239   0.088 -0.3232 -0.7641 -0.0951
22621SOL    HW269603   0.900   3.275  -0.024 -0.6606 -1.7761 -0.7170
22622SOL     OW69604   5.245   5.116   5.324 -0.0285 -0.3838 -0.0910
22622SOL    HW169605   5.285   5.168   5.254 -0.0399  0.0323  0.2089
22622SOL    HW269606   5.319   5.071   5.365  0.3664  1.4857  1.3868
22623SOL     OW69607   0.612   1.638   5.765  0.4189 -0.1129 -0.0744
22623SOL    HW169608   0.677   1.570   5.748 -1.1847 -2.0460  1.1860
22623SOL    HW269609   0.569   1.611   5.846 -0.7808  2.0470  0.0826
22624SOL     OW69610   0.267   0.528   5.662 -0.4194 -0.3203  0.5412
22624SOL    HW169611   0.298   0.592   5.599 -0.6810 -0.5951  0.1224
22624SOL    HW269612   0.174   0.516   5.641 -0.3034 -1.0655  0.3990
22625SOL     OW69613   3.472   5.458   6.422 -0.0748  0.1816  0.0330
22625SOL    HW169614   3.379   5.457   6.446 -0.4705  0.9768 -1.3679
22625SOL    HW269615   3.510   5.524   6.480 -0.1419 -0.8794  1.3370
22626SOL     OW69616   3.079   4.555   3.033 -0.2483  0.3742 -0.0970
22626SOL    HW169617   3.007   4.576   3.094 -0.5470  1.1407 -0.7001
22626SOL    HW269618   3.148   4.617   3.056  0.5099 -0.7715  0.9104
22627SOL     OW69619   5.544   8.400   7.674  0.0625  0.7202  0.1300
22627SOL    HW169620   5.527   8.464   7.743 -1.3165 -0.5388  1.0223
22627SOL    HW269621   5.608   8.340   7.713  0.2388  0.7238 -0.1547
22628SOL     OW69622   4.216   8.592   2.109  0.2537  0.1797  0.7598
22628SOL    HW169623   4.266   8.589   2.190 -0.9537 -2.0427  1.5137
22628SOL    HW269624   4.133   8.633   2.134 -0.2665 -0.8502  0.7538
22629SOL     OW69625   4.515   5.425   0.619  0.0518 -0.0536 -0.5255
22629SOL    HW169626   4.511   5.450   0.711 -0.5000 -0.3795 -0.4523
22629SOL    HW269627   4.459   5.348   0.613 -1.8854  1.3276 -1.5566
22630SOL     OW69628   4.422   8.381   7.530 -0.5197  0.0034 -0.0080
22630SOL    HW169629   4.467   8.301   7.503  0.0132  0.7596 -1.4167
22630SOL    HW269630   4.489   8.433   7.574 -0.0855  0.9435 -1.7257
22631SOL     OW69631   3.702   4.686   5.615 -0.4673 -0.7300 -0.8439
22631SOL    HW169632   3.651   4.764   5.634 -2.0636 -1.3413 -2.3029
22631SOL    HW269633   3.749   4.707   5.534  0.0369 -0.8827 -0.5980
22632SOL     OW69634   7.225   3.010   5.527 -0.2450 -0.1907 -0.2365
22632SOL    HW169635   7.238   2.941   5.461  0.5946 -0.0194 -0.2614
22632SOL    HW269636   7.163   3.070   5.486 -2.1520 -1.6570  0.3561
22633SOL     OW69637   2.875   2.475   7.575  0.0730  0.0511 -0.3644
22633SOL    HW169638   2.920   2.392   7.562 -0.0236 -0.2957  1.3197
22633SOL    HW269639   2.783   2.455   7.558  0.2196  0.1563 -1.3199
22634SOL     OW69640   7.617   3.790   5.613 -0.1928 -0.3519  0.0678
22634SOL    HW169641   7.537   3.839   5.631 -1.0116 -0.7632 -2.1207
22634SOL    HW269642   7.672   3.851   5.563 -0.6999 -1.1811 -1.5800
22635SOL     OW69643   3.990   3.627   2.738  0.5254 -0.1378 -0.0970
22635SOL    HW169644   3.956   3.698   2.793 -1.4661  1.3888 -3.0317
22635SOL    HW269645   3.960   3.547   2.780  0.2922  0.8729  1.7444
22636SOL     OW69646   5.376   4.379   8.965  0.0419  0.1067  0.0720
22636SOL    HW169647   5.452   4.436   8.980  0.2463 -0.0330 -0.4093
22636SOL    HW269648   5.302   4.439   8.956  0.2705  0.3063 -0.5266
22637SOL     OW69649   6.517   5.866   1.989  0.0724 -0.0013  0.0071
22637SOL    HW169650   6.556   5.782   2.013 -2.4812 -1.3578 -0.2124
22637SOL    HW269651   6.542   5.925   2.060  1.0773 -1.2110  0.7016
22638SOL     OW69652   0.964   6.989   3.196 -0.4781  0.4103  0.1297
22638SOL    HW169653   1.031   7.052   3.225  0.1761 -0.4662  0.5872
22638SOL    HW269654   0.881   7.029   3.223  0.0641 -0.2993  3.3026
22639SOL     OW69655   2.798   7.777   8.252  0.3823 -0.2967 -0.0673
22639SOL    HW169656   2.815   7.861   8.294  0.5806 -0.4985  0.2559
22639SOL    HW269657   2.803   7.796   8.158 -0.0882  0.1605 -0.0081
22640SOL     OW69658   5.394   5.088   2.758  0.9051 -0.3391  0.1772
22640SOL    HW169659   5.420   5.132   2.677  1.6860 -0.5424  0.3121
22640SOL    HW269660   5.298   5.095   2.759  0.9666  0.7035 -0.1733
22641SOL     OW69661   4.126   1.565   8.606 -0.2842 -0.6205  0.9013
22641SOL    HW169662   4.156   1.544   8.695  2.4871  0.6702  0.3722
22641SOL    HW269663   4.199   1.542   8.550 -1.5320 -0.2937 -0.9503
22642SOL     OW69664   8.899   4.160   4.272 -0.5937  0.4370 -0.2339
22642SOL    HW169665   8.851   4.224   4.325  0.4453  1.4712 -0.4872
22642SOL    HW269666   8.849   4.154   4.191 -3.0990 -2.3704  1.3559
22643SOL     OW69667   3.968   5.714   1.556 -0.8771 -0.1823  0.1082
22643SOL    HW169668   3.923   5.784   1.507 -0.8474  0.5493  1.1029
22643SOL    HW269669   3.985   5.752   1.642 -0.8269 -1.4131  0.6618
22644SOL     OW69670   4.206   2.979   4.076 -0.2005 -0.2595 -0.0758
22644SOL    HW169671   4.149   2.922   4.127 -1.7058  1.1311 -0.0993
22644SOL    HW269672   4.205   2.943   3.988  0.5280 -1.3384  0.3422
22645SOL     OW69673   9.471   9.181   4.104 -0.0524 -0.4602 -0.1886
22645SOL    HW169674   9.520   9.122   4.161  0.0612 -0.0750  0.1140
22645SOL    HW269675   9.442   9.253   4.161  1.0652  0.5384 -0.8241
22646SOL     OW69676   7.315   7.503   0.463  0.7401  0.1441 -0.2308
22646SOL    HW169677   7.257   7.499   0.539  0.8778  0.3711 -0.1110
22646SOL    HW269678   7.260   7.540   0.393  0.8677  0.8238  0.0139
22647SOL     OW69679   0.381   5.674   5.141  0.3918 -0.4190  0.0363
22647SOL    HW169680   0.417   5.751   5.187 -0.5468 -1.2064  2.2497
22647SOL    HW269681   0.453   5.642   5.088  1.6387  0.4867  1.1062
22648SOL     OW69682   2.107   0.668   4.130 -1.0154 -0.5128  1.0176
22648SOL    HW169683   2.138   0.595   4.076  1.9935  0.2773  1.4871
22648SOL    HW269684   2.054   0.721   4.071 -1.2595 -1.8120  0.0200
22649SOL     OW69685   5.493   1.669   0.510  0.0223  0.6528 -0.5965
22649SOL    HW169686   5.568   1.610   0.510 -0.3278  0.2046 -0.3305
22649SOL    HW269687   5.438   1.639   0.438 -0.6264  0.0451  0.1434
22650SOL     OW69688   2.823   8.711   1.039 -0.4446 -0.0784  0.1397
22650SOL    HW169689   2.747   8.655   1.027  0.7716 -1.5157 -1.3128
22650SOL    HW269690   2.788   8.800   1.037 -1.8724 -0.5585 -3.2610
22651SOL     OW69691   5.055   5.499   5.146 -0.0339 -0.3966 -0.7321
22651SOL    HW169692   5.044   5.547   5.228  1.9369  0.1797 -0.7506
22651SOL    HW269693   5.054   5.566   5.078  0.2300 -0.6580 -1.0004
22652SOL     OW69694   9.214   1.398   6.499  0.4743 -0.5195  0.0106
22652SOL    HW169695   9.188   1.468   6.559  1.5137 -1.2491  1.3774
22652SOL    HW269696   9.275   1.345   6.550  1.5326 -1.0870 -1.7700
22653SOL     OW69697   7.675   2.278   0.808  0.0968  0.3151 -0.4532
22653SOL    HW169698   7.597   2.274   0.753  0.2066 -1.1178 -0.5243
22653SOL    HW269699   7.748   2.265   0.747  0.3288  0.4592 -0.2091
22654SOL     OW69700   0.596   4.325   7.061  0.7561  0.5481 -0.2878
22654SOL    HW169701   0.566   4.259   6.998 -3.5022  0.7264  1.2198
22654SOL    HW269702   0.684   4.295   7.087  0.5479 -2.3774 -2.4301
22655SOL     OW69703   6.149   0.555   4.300 -0.2227 -0.2657 -0.7963
22655SOL    HW169704   6.213   0.596   4.241 -0.9535 -0.0332 -1.4420
22655SOL    HW269705   6.079   0.619   4.309 -1.4129 -1.3459 -1.8602
22656SOL     OW69706   1.652   8.963   1.935  0.2837  0.2110 -0.2110
22656SOL    HW169707   1.706   8.929   1.863 -0.4659  0.5323 -0.9420
22656SOL    HW269708   1.581   8.900   1.944  1.0967 -0.5628  1.1886
22657SOL     OW69709   6.355   4.693   4.483  0.4299 -0.0966 -0.6556
22657SOL    HW169710   6.279   4.638   4.464 -0.4834  0.5856  0.8516
22657SOL    HW269711   6.361   4.753   4.409 -0.7926  0.1287 -0.5919
22658SOL     OW69712   9.491   0.738   3.864 -0.4865  0.4897  0.1736
22658SOL    HW169713   9.520   0.794   3.792 -1.1677  2.1333  1.1285
22658SOL    HW269714   9.396   0.749   3.867 -0.5317 -0.0127  0.9682
22659SOL     OW69715   0.331   7.509   9.051 -0.5399 -0.0227  0.5578
22659SOL    HW169716   0.260   7.520   8.989  0.0400  0.6264 -0.0122
22659SOL    HW269717   0.411   7.522   8.999 -0.0539  1.5910  1.6137
22660SOL     OW69718   8.369   1.058   4.033  0.2808  0.1145  0.4188
22660SOL    HW169719   8.353   1.151   4.021  1.5904  0.1183 -1.6918
22660SOL    HW269720   8.326   1.037   4.117 -1.6676  2.1803  0.0277
22661SOL     OW69721   6.254   5.810   0.179 -0.1446 -0.0978 -0.1874
22661SOL    HW169722   6.346   5.807   0.208 -0.4223 -1.4347  0.6679
22661SOL    HW269723   6.220   5.891   0.217  1.1349  1.4293 -2.0947
22662SOL     OW69724   4.980   6.705   0.850 -0.1668  0.1863 -0.1042
22662SOL    HW169725   5.059   6.658   0.878  0.0334  1.3038  1.3301
22662SOL    HW269726   5.003   6.741   0.764  1.2023  1.1559  0.6331
22663SOL     OW69727   7.438   0.602   6.270 -0.7947 -0.9212 -0.5765
22663SOL    HW169728   7.512   0.656   6.240  0.7722 -2.4634  0.3090
22663SOL    HW269729   7.440   0.526   6.212 -1.4439 -1.1719 -0.2774
22664SOL     OW69730   5.636   7.551   2.835  0.2621  0.0899  0.1263
22664SOL    HW169731   5.709   7.596   2.794  0.8389 -1.0783 -0.1599
22664SOL    HW269732   5.570   7.620   2.848  0.4962  0.7130 -1.7162
22665SOL     OW69733   5.851   3.399   1.084  0.1125  0.4306  0.4059
22665SOL    HW169734   5.884   3.454   1.155  0.0950 -0.4156  1.1025
22665SOL    HW269735   5.786   3.342   1.127  0.0875 -0.0785 -0.2930
22666SOL     OW69736   1.800   5.309   3.813  0.3856 -0.2950 -0.0259
22666SOL    HW169737   1.862   5.326   3.884  0.3965 -0.9101  0.1186
22666SOL    HW269738   1.740   5.383   3.815  0.3048 -0.3743  0.7176
22667SOL     OW69739   1.535   1.865   6.851 -0.1007 -1.2582 -0.0848
22667SOL    HW169740   1.514   1.893   6.761  1.2143 -1.1707 -0.3925
22667SOL    HW269741   1.625   1.894   6.864  0.1672 -2.4213  0.8107
22668SOL     OW69742   3.162   0.798   1.954  0.1094 -0.3378  0.4475
22668SOL    HW169743   3.246   0.783   1.910  0.2820  1.1679  0.2075
22668SOL    HW269744   3.169   0.748   2.035  1.6143  0.4107  0.8323
22669SOL     OW69745   4.056   7.791   4.966 -1.0636 -0.4433  0.1694
22669SOL    HW169746   4.151   7.785   4.962 -1.1607 -1.5161 -1.4341
22669SOL    HW269747   4.036   7.880   4.940 -0.5057 -0.1413  0.7323
22670SOL     OW69748   3.303   0.319   9.410  0.4250 -0.1290 -0.5358
22670SOL    HW169749   3.269   0.272   9.334  1.2361  0.1206 -1.0664
22670SOL    HW269750   3.245   0.294   9.482 -1.8169  1.4675 -1.6957
22671SOL     OW69751   1.807   6.244   6.794  0.1579  0.8990 -0.0744
22671SOL    HW169752   1.821   6.240   6.699 -1.1182  0.8877 -0.2920
22671SOL    HW269753   1.827   6.335   6.817  1.1185  0.7371 -0.2253
22672SOL     OW69754   3.298   7.360   1.478  0.5910  0.0474 -0.3529
22672SOL    HW169755   3.283   7.412   1.556 -1.2344 -0.0029 -0.6398
22672SOL    HW269756   3.211   7.340   1.444  1.2944  0.8986 -2.9534
22673SOL     OW69757   0.205   3.158   5.065 -0.1398  0.0086 -0.4300
22673SOL    HW169758   0.218   3.122   4.978 -1.3522  0.1596 -0.6916
22673SOL    HW269759   0.120   3.123   5.093 -0.0364  0.4285  0.4467
22674SOL     OW69760   9.117   7.837   8.954  0.0078  0.3391  0.0599
22674SOL    HW169761   9.130   7.918   8.904 -1.9010  0.0023 -1.0858
22674SOL    HW269762   9.187   7.838   9.019  1.0261  2.0916 -0.9658
22675SOL     OW69763   6.878   5.312   7.511 -0.6797  0.0001  0.5321
22675SOL    HW169764   6.786   5.288   7.517 -0.7503  0.5779  2.6175
22675SOL    HW269765   6.891   5.334   7.419 -2.5469 -0.3550  0.1396
22676SOL     OW69766   2.501   6.916   1.945  0.1095  0.5298 -0.4858
22676SOL    HW169767   2.446   6.983   1.904  0.1712  1.2228  0.5424
22676SOL    HW269768   2.568   6.896   1.879 -1.4306 -0.4613 -1.8400
22677SOL     OW69769   7.196   8.618   0.905 -0.0474  0.5840 -0.1131
22677SOL    HW169770   7.248   8.672   0.965 -0.0887 -0.0788  0.5383
22677SOL    HW269771   7.242   8.534   0.902  0.1155  0.6915 -1.2533
22678SOL     OW69772   4.125   2.890   2.354 -0.0488  0.2555 -0.0227
22678SOL    HW169773   4.105   2.983   2.366 -0.5561  0.2226 -0.5521
22678SOL    HW269774   4.188   2.889   2.282 -2.0661  0.0470 -1.8922
22679SOL     OW69775   7.058   8.816   2.562  0.1120 -0.4369 -0.6800
22679SOL    HW169776   7.041   8.820   2.656  1.1220 -0.3208 -0.4907
22679SOL    HW269777   7.072   8.724   2.544 -2.6449 -0.8029 -1.2136
22680SOL     OW69778   8.324   5.152   7.914  0.4713  0.1280  0.1388
22680SOL    HW169779   8.360   5.170   8.001  0.7743 -0.1583  0.0728
22680SOL    HW269780   8.316   5.239   7.873  3.4629  0.0594 -0.7929
22681SOL     OW69781   8.889   2.734   4.332 -0.0266  0.7317 -1.0581
22681SOL    HW169782   8.805   2.708   4.296 -1.0691  1.3404  0.7953
22681SOL    HW269783   8.870   2.813   4.383  1.5473  0.5588 -0.1187
22682SOL     OW69784   7.737   0.322   4.487  0.0839 -0.4995  0.6694
22682SOL    HW169785   7.772   0.404   4.454 -0.5951 -0.0277  1.0823
22682SOL    HW269786   7.692   0.283   4.412  0.2294 -0.3993  0.5286
22683SOL     OW69787   8.559   5.583   7.198 -0.2540  0.0824  0.5054
22683SOL    HW169788   8.624   5.650   7.175  2.8160 -1.5577  3.3971
22683SOL    HW269789   8.551   5.589   7.293 -3.3820 -0.7899  0.3960
22684SOL     OW69790   2.594   5.861   4.571  0.4004  0.4992  0.4941
22684SOL    HW169791   2.560   5.876   4.483 -1.1536  1.9797  1.2832
22684SOL    HW269792   2.682   5.826   4.557  1.0291  2.6345 -1.6666
22685SOL     OW69793   8.897   5.727   9.403  0.0073 -0.1029  0.5152
22685SOL    HW169794   8.848   5.791   9.351 -0.2091 -0.7491 -0.1108
22685SOL    HW269795   8.844   5.648   9.398  1.5335 -1.1185 -0.9912
22686SOL     OW69796   3.603   6.220   7.928  0.5734  0.3785 -0.0841
22686SOL    HW169797   3.584   6.186   7.841  0.5473  1.2949 -0.4506
22686SOL    HW269798   3.533   6.284   7.944 -0.0513 -0.5478  1.0645
22687SOL     OW69799   4.560   3.925   2.699  0.0128  0.1723  0.3092
22687SOL    HW169800   4.574   3.851   2.758 -0.4247 -0.1017  0.0746
22687SOL    HW269801   4.592   4.001   2.747 -0.3342 -0.0514  0.8972
22688SOL     OW69802   2.177   7.078   9.120 -0.0672  0.2815 -0.4161
22688SOL    HW169803   2.205   7.170   9.129 -0.9050  0.5928 -0.9477
22688SOL    HW269804   2.082   7.080   9.131 -0.0091 -0.6544  0.4501
22689SOL     OW69805   4.593   1.295   2.629  0.4189  0.3088  0.4836
22689SOL    HW169806   4.651   1.363   2.596  0.4096  0.5279  0.9126
22689SOL    HW269807   4.652   1.222   2.651  0.2425 -0.6293 -1.9033
22690SOL     OW69808   0.445   8.651   3.999  0.5023 -0.2861  0.2616
22690SOL    HW169809   0.371   8.596   4.027 -2.0696  1.2860 -2.8760
22690SOL    HW269810   0.506   8.589   3.957 -0.9700 -1.1718 -0.6592
22691SOL     OW69811   7.634   7.433   7.932 -0.0222 -0.0576  0.1348
22691SOL    HW169812   7.682   7.412   8.012  1.0299  1.4283 -0.0646
22691SOL    HW269813   7.611   7.348   7.895  0.0070 -0.7752  1.6913
22692SOL     OW69814   1.107   6.190   3.558 -0.2377 -0.1504  0.6430
22692SOL    HW169815   1.195   6.218   3.581  0.2782 -1.7953  0.8116
22692SOL    HW269816   1.058   6.194   3.640  0.0996 -0.7143  0.8738
22693SOL     OW69817   0.093   4.030   8.771 -0.3667 -0.1660  0.4204
22693SOL    HW169818   0.121   4.046   8.681 -0.3011  2.0398  0.7954
22693SOL    HW269819   0.013   4.080   8.781  0.3685  0.7839  1.9807
22694SOL     OW69820   3.408   5.769   8.891 -0.2108  0.5931  0.0766
22694SOL    HW169821   3.396   5.755   8.985 -1.4863 -1.1661 -0.3079
22694SOL    HW269822   3.385   5.686   8.851 -1.7752  1.8996 -1.9656
22695SOL     OW69823   9.105   2.802   9.339 -0.3491  0.5401  0.3095
22695SOL    HW169824   9.158   2.868   9.296  0.4640  0.6032  1.3895
22695SOL    HW269825   9.167   2.748   9.387 -1.2097  0.3520  1.2487
22696SOL     OW69826   8.503   8.644   5.921  0.1622  0.0443  0.5488
22696SOL    HW169827   8.422   8.694   5.929  0.8775  1.3935 -0.3034
22696SOL    HW269828   8.508   8.621   5.828  0.7140 -0.0996  0.6121
22697SOL     OW69829   5.335   3.369   5.281  0.0493  0.7583  0.0989
22697SOL    HW169830   5.264   3.307   5.262  0.7733 -0.4564  1.1701
22697SOL    HW269831   5.296   3.433   5.340 -0.4755  0.8048 -0.2914
22698SOL     OW69832   9.317   6.338   9.096  0.1837 -0.0393 -0.1330
22698SOL    HW169833   9.371   6.385   9.160  0.5887  1.2511 -1.3729
22698SOL    HW269834   9.228   6.344   9.130  0.7220 -2.1484  1.9166
22699SOL     OW69835   8.205   3.439   1.208 -0.4095 -0.6886  0.3781
22699SOL    HW169836   8.268   3.471   1.273 -0.2069 -1.4433  0.5546
22699SOL    HW269837   8.173   3.357   1.244 -0.4414 -1.0171 -0.3853
22700SOL     OW69838   7.772   5.771   4.290  0.3420 -0.2147 -0.0373
22700SOL    HW169839   7.684   5.733   4.281  0.4240 -0.7053  1.1165
22700SOL    HW269840   7.772   5.844   4.227 -0.5558 -0.7845 -0.7360
22701SOL     OW69841   0.443   2.815   4.050 -0.5383 -0.1197  1.2270
22701SOL    HW169842   0.478   2.749   3.990 -2.5039  0.4256 -0.6431
22701SOL    HW269843   0.381   2.766   4.105 -2.3648  0.1683 -0.4858
22702SOL     OW69844   7.965   5.478   9.207 -0.4906 -0.4177 -0.3333
22702SOL    HW169845   7.904   5.524   9.265  0.3054  0.6284 -0.3147
22702SOL    HW269846   8.015   5.421   9.265 -0.2278  0.0557 -0.0888
22703SOL     OW69847   2.331   8.761   5.705 -0.3912 -0.2010  0.5149
22703SOL    HW169848   2.329   8.856   5.717  0.1729 -0.2085  0.6647
22703SOL    HW269849   2.413   8.744   5.658 -0.5584 -0.6002  0.3630
22704SOL     OW69850   0.638   5.588   3.999 -0.1709 -0.2390 -0.3230
22704SOL    HW169851   0.627   5.681   3.981  1.3735  0.0022 -0.1610
22704SOL    HW269852   0.552   5.549   3.982 -0.6010  1.0759 -1.2421
22705SOL     OW69853   0.442   6.958   4.304  0.1058 -0.3698 -0.2108
22705SOL    HW169854   0.392   7.023   4.256 -1.5233 -0.0753  1.7682
22705SOL    HW269855   0.526   7.000   4.321  1.2332 -0.8923 -3.6163
22706SOL     OW69856   3.046   5.072   5.884  0.0516  0.7339 -0.5115
22706SOL    HW169857   3.014   4.990   5.846 -1.4070  1.3582 -0.6748
22706SOL    HW269858   3.104   5.108   5.817 -0.4472  0.5411 -1.0533
22707SOL     OW69859   6.156   9.527   9.388  0.3390  0.1415 -0.0040
22707SOL    HW169860   6.250   9.543   9.378  0.0654  0.8639 -1.7735
22707SOL    HW269861   6.133   9.472   9.313 -0.5108 -0.7298  0.8837
22708SOL     OW69862   7.366   1.023   0.068 -0.4510  0.1651 -0.2155
22708SOL    HW169863   7.313   0.953   0.106  0.2644  0.1186  0.7239
22708SOL    HW269864   7.435   0.978   0.020  0.8605  0.1677  1.5691
22709SOL     OW69865   0.407   0.632   8.364  0.0178  0.2274 -0.0068
22709SOL    HW169866   0.361   0.637   8.281 -2.9286 -1.4642  1.3573
22709SOL    HW269867   0.415   0.538   8.381  0.3423  0.5370  1.7259
22710SOL     OW69868   4.259   5.224   0.750 -0.5162 -0.3946 -0.3678
22710SOL    HW169869   4.238   5.270   0.832  0.4260  1.4136 -1.0879
22710SOL    HW269870   4.354   5.217   0.751 -0.4662 -0.0053 -1.4730
22711SOL     OW69871   6.832   6.921   9.434  0.1982 -0.7943 -0.0481
22711SOL    HW169872   6.865   6.850   9.489 -1.0861 -1.3187  0.0851
22711SOL    HW269873   6.821   6.995   9.494  0.6241 -0.7811  0.0121
22712SOL     OW69874   1.331   8.571   0.893  0.3503  0.2472  0.1849
22712SOL    HW169875   1.272   8.617   0.833  1.8975  1.2520 -0.6431
22712SOL    HW269876   1.348   8.487   0.849 -0.0278  0.1830  0.1573
22713SOL     OW69877   3.798   0.604   2.122 -0.2416 -0.1086  0.4129
22713SOL    HW169878   3.776   0.692   2.153 -0.8353 -1.0021  2.7373
22713SOL    HW269879   3.894   0.601   2.126 -0.1106  0.8851 -1.1551
22714SOL     OW69880   7.479   1.975   8.687  0.6614 -0.4892  0.5530
22714SOL    HW169881   7.567   1.968   8.725  0.1004  1.3211  2.3808
22714SOL    HW269882   7.424   2.003   8.760 -1.1678 -0.1502 -0.8916
22715SOL     OW69883   5.491   8.411   2.953  0.1872  0.2342 -0.0346
22715SOL    HW169884   5.521   8.320   2.952 -0.2192  0.0973 -1.3157
22715SOL    HW269885   5.571   8.462   2.935 -0.0125 -0.0450 -1.9284
22716SOL     OW69886   8.309   8.468   1.028 -0.7008 -0.9059  0.3456
22716SOL    HW169887   8.273   8.380   1.037  1.3227 -1.8651 -0.3542
22716SOL    HW269888   8.399   8.461   1.060 -0.3086  0.7588 -0.2839
22717SOL     OW69889   3.552   2.719   5.335  0.0489  0.5436 -0.0893
22717SOL    HW169890   3.606   2.799   5.338 -1.8155  1.8546  0.3459
22717SOL    HW269891   3.569   2.676   5.419 -1.6492  2.4481  1.3326
22718SOL     OW69892   1.117   7.930   1.548 -0.2890 -0.0569 -0.2661
22718SOL    HW169893   1.034   7.903   1.589 -0.3810  1.1124  0.3819
22718SOL    HW269894   1.098   7.932   1.455 -0.6246 -0.9788 -0.2347
22719SOL     OW69895   2.328   8.236   8.963 -0.2192  0.6285 -0.7290
22719SOL    HW169896   2.269   8.184   8.909  0.6820 -0.3845 -0.7679
22719SOL    HW269897   2.341   8.317   8.913 -0.6262  0.3581 -1.2820
22720SOL     OW69898   4.740   4.881   5.864 -0.6499 -0.2806  0.3188
22720SOL    HW169899   4.649   4.893   5.891 -0.3890  0.2369  0.9908
22720SOL    HW269900   4.743   4.792   5.827 -1.1324 -0.8271  1.5554
22721SOL     OW69901   0.228   2.576   2.644  0.6459  0.1265 -0.5156
22721SOL    HW169902   0.238   2.659   2.690  2.6950  1.0198 -2.3718
22721SOL    HW269903   0.137   2.574   2.617  0.5976  1.8763 -0.5809
22722SOL     OW69904   0.022   2.244   2.056 -0.1024 -0.0515  0.1578
22722SOL    HW169905   0.070   2.284   1.984 -1.3362  0.8331 -0.2148
22722SOL    HW269906   0.064   2.277   2.135  1.5367 -1.3686 -0.1164
22723SOL     OW69907   2.014   6.467   0.550 -0.1076  0.0793  0.2427
22723SOL    HW169908   1.928   6.438   0.518  0.6385 -1.0350 -0.8034
22723SOL    HW269909   2.067   6.475   0.472  1.3518 -1.2621  1.0497
22724SOL     OW69910   9.570   4.317   8.501 -0.4678 -0.2440  0.6781
22724SOL    HW169911   9.530   4.395   8.463  1.0565  0.0417 -0.4190
22724SOL    HW269912   9.536   4.245   8.448  2.7553  0.2655 -2.4498
22725SOL     OW69913   0.167   0.492   6.175 -1.1032  0.4549  0.2706
22725SOL    HW169914   0.206   0.405   6.167 -0.7480  0.7520 -1.5807
22725SOL    HW269915   0.238   0.547   6.209 -0.4276  0.5905 -1.2772
22726SOL     OW69916   2.454   1.355   7.778  0.1496  0.2182  0.7388
22726SOL    HW169917   2.536   1.384   7.819  0.8808 -2.4334  1.3623
22726SOL    HW269918   2.393   1.349   7.851 -0.3863  1.3254  0.4086
22727SOL     OW69919   7.779   0.778   3.892  0.0559 -0.1331  0.5117
22727SOL    HW169920   7.704   0.806   3.945  0.8932 -0.5191  1.9594
22727SOL    HW269921   7.760   0.811   3.804 -1.5675  0.2005  0.9562
22728SOL     OW69922   3.588   2.063   3.097 -0.3819  0.0679 -0.5148
22728SOL    HW169923   3.658   2.128   3.097  0.1142 -0.4535 -0.9492
22728SOL    HW269924   3.539   2.080   3.177  1.2025 -0.5875  0.6434
22729SOL     OW69925   4.984   8.076   8.054  0.2405 -0.0287 -0.2097
22729SOL    HW169926   4.948   8.161   8.078 -0.2330 -0.8293  2.1763
22729SOL    HW269927   5.038   8.094   7.977 -2.5653  1.8052 -1.9413
22730SOL     OW69928   4.109   5.087   6.086  0.0336 -0.5303 -0.3672
22730SOL    HW169929   4.124   4.995   6.066  0.1674 -0.8880  1.2382
22730SOL    HW269930   4.180   5.134   6.043  0.2118 -1.2208 -0.8319
22731SOL     OW69931   7.435   7.071   9.168  0.1948 -0.6801  0.2393
22731SOL    HW169932   7.441   7.020   9.087 -1.5273 -0.1855 -0.2367
22731SOL    HW269933   7.422   7.007   9.237 -0.6407 -0.9779 -0.1842
22732SOL     OW69934   0.267   3.379   7.751 -0.1735  0.2079 -0.1470
22732SOL    HW169935   0.333   3.438   7.715 -0.1865  0.4128  0.1546
22732SOL    HW269936   0.311   3.294   7.756  0.3571  0.5190  0.8315
22733SOL     OW69937   2.040   3.533   0.549  0.1624 -0.4807 -0.2751
22733SOL    HW169938   1.999   3.452   0.521 -0.6589  0.6592 -2.6624
22733SOL    HW269939   2.127   3.507   0.581 -0.1406 -2.2834 -0.8561
22734SOL     OW69940   7.409   7.469   2.038  0.0433 -0.4130  0.4506
22734SOL    HW169941   7.443   7.546   1.993 -2.2247  1.0975  1.1185
22734SOL    HW269942   7.335   7.502   2.090  0.0903 -2.7423  2.1885
22735SOL     OW69943   7.358   7.243   4.500  0.3508 -0.2641  0.4019
22735SOL    HW169944   7.356   7.178   4.570 -0.0324 -0.3989  0.2699
22735SOL    HW269945   7.303   7.205   4.431  0.3872  0.0555  0.1972
22736SOL     OW69946   7.499   6.852   8.885 -0.2670  0.1174  0.1044
22736SOL    HW169947   7.557   6.795   8.835 -1.4080  0.4516 -1.6839
22736SOL    HW269948   7.496   6.813   8.972  0.5127 -1.4287 -0.5316
22737SOL     OW69949   5.348   0.494   3.422 -0.0151 -0.3336 -0.5945
22737SOL    HW169950   5.422   0.436   3.402 -1.2949 -2.4442  0.4558
22737SOL    HW269951   5.359   0.569   3.363  3.7709  0.1863  0.4955
22738SOL     OW69952   1.970   2.304   1.581  0.4375  0.0101 -0.4499
22738SOL    HW169953   2.039   2.313   1.516  1.6116  1.9365  0.9482
22738SOL    HW269954   1.891   2.287   1.530  1.5298  0.1501 -2.2710
22739SOL     OW69955   3.559   7.450   6.465 -0.3183 -0.3098 -0.3808
22739SOL    HW169956   3.498   7.386   6.429 -1.5038 -0.3787  1.5896
22739SOL    HW269957   3.643   7.404   6.469 -0.9754 -1.5244  0.2817
22740SOL     OW69958   8.572   1.664   3.371 -0.2299  0.2660 -0.5621
22740SOL    HW169959   8.652   1.638   3.419 -2.0931 -2.2360  1.5249
22740SOL    HW269960   8.523   1.716   3.434 -1.5907 -0.8804 -0.6363
22741SOL     OW69961   4.702   5.468   6.550  0.6243 -0.2818  0.7894
22741SOL    HW169962   4.637   5.529   6.585  0.4494 -0.4315  0.7267
22741SOL    HW269963   4.761   5.450   6.624  0.8314  0.1645  0.7372
22742SOL     OW69964   4.188   0.200   0.302 -0.0162 -0.1066 -0.1398
22742SOL    HW169965   4.244   0.222   0.376  0.3218 -0.7473 -0.1964
22742SOL    HW269966   4.174   0.283   0.257  1.0887  0.0259 -0.2634
22743SOL     OW69967   8.720   6.438   9.301 -0.1404  0.4117 -0.5959
22743SOL    HW169968   8.778   6.512   9.284  1.1357  0.0657  1.9188
22743SOL    HW269969   8.738   6.413   9.391 -1.9416 -1.7561 -0.7568
22744SOL     OW69970   7.514   2.534   0.131 -0.1642  0.4468  0.0355
22744SOL    HW169971   7.590   2.505   0.081 -1.1410 -1.4468 -0.4667
22744SOL    HW269972   7.447   2.554   0.066 -0.6235  0.5038  0.5112
22745SOL     OW69973   9.525   5.672   5.123 -0.2670  0.1841  0.3439
22745SOL    HW169974   9.482   5.591   5.096 -1.0528 -0.0429  2.1262
22745SOL    HW269975   9.468   5.708   5.191  1.2102  1.0579  1.1683
22746SOL     OW69976   7.532   5.226   2.525  0.1819 -0.1400 -0.0018
22746SOL    HW169977   7.610   5.277   2.503  1.2631 -1.5146  0.5074
22746SOL    HW269978   7.566   5.142   2.555 -1.5036 -0.7251  0.3709
22747SOL     OW69979   7.434   1.872   3.738  0.2971 -0.2949 -0.4311
22747SOL    HW169980   7.480   1.818   3.801 -0.6836  0.3090  0.8552
22747SOL    HW269981   7.374   1.812   3.693 -0.3417 -0.4016  0.5469
22748SOL     OW69982   0.193   7.176   3.322 -0.5878  0.0333 -0.0375
22748SOL    HW169983   0.135   7.178   3.246 -0.9058  0.4778  0.2078
22748SOL    HW269984   0.271   7.129   3.292 -1.3233 -1.1315 -0.1998
22749SOL     OW69985   5.282   6.421   5.878  0.4580 -0.2298 -0.5564
22749SOL    HW169986   5.254   6.451   5.792 -0.7489  1.8840  0.4807
22749SOL    HW269987   5.230   6.342   5.894  0.7706 -0.6957 -1.7849
22750SOL     OW69988   6.889   8.079   4.331 -0.0132  0.3684 -0.3343
22750SOL    HW169989   6.930   8.081   4.417 -0.0128  0.7745 -0.3396
22750SOL    HW269990   6.963   8.077   4.270 -0.0103 -1.5901 -0.3113
22751SOL     OW69991   5.940   9.009   2.081  0.6671  0.0947  0.1494
22751SOL    HW169992   5.873   8.991   2.016  1.2692  0.2673 -0.5392
22751SOL    HW269993   5.899   8.989   2.165 -0.1963  0.0842 -0.2644
22752SOL     OW69994   5.782   5.637   8.631 -0.0667  0.7180 -0.1307
22752SOL    HW169995   5.807   5.553   8.593  1.8797 -0.3271  3.0269
22752SOL    HW269996   5.701   5.619   8.678 -0.1556  0.8497 -0.2334
22753SOL     OW69997   9.354   4.723   3.665 -0.0603 -1.0707  0.8249
22753SOL    HW169998   9.364   4.800   3.722  0.9561 -0.4144 -0.1749
22753SOL    HW269999   9.302   4.755   3.591  2.1527 -0.6651 -0.6662
22754SOL     OW70000   5.618   3.021   8.672  0.2601  0.2741 -0.0630
22754SOL    HW170001   5.541   2.993   8.722 -0.2561  1.0582 -0.3898
22754SOL    HW270002   5.658   2.940   8.642 -0.6369 -0.1441 -0.1687
22755SOL     OW70003   8.496   5.068   7.294  0.7550  0.1306  0.1032
22755SOL    HW170004   8.402   5.065   7.276  0.8340 -0.4853 -0.2329
22755SOL    HW270005   8.508   5.014   7.372  1.0231 -1.1031 -0.7614
22756SOL     OW70006   8.504   5.742   6.538  0.1202 -0.2324  0.4610
22756SOL    HW170007   8.488   5.680   6.467  0.0044 -0.3905  0.6233
22756SOL    HW270008   8.429   5.801   6.536 -0.9758 -1.5012  1.7814
22757SOL     OW70009   5.599   4.925   0.280  0.3212  0.4691 -0.1084
22757SOL    HW170010   5.511   4.889   0.271  0.4584 -0.3057  1.2735
22757SOL    HW270011   5.591   4.988   0.352  0.7675  0.8209 -0.3648
22758SOL     OW70012   2.610   7.321   7.270 -0.2301 -0.0182 -0.4575
22758SOL    HW170013   2.657   7.239   7.252 -1.0414 -0.1496 -2.2168
22758SOL    HW270014   2.677   7.381   7.302  0.5719 -1.0606 -0.1344
22759SOL     OW70015   4.469   2.406   3.295 -0.0775  0.4612 -0.0629
22759SOL    HW170016   4.439   2.496   3.310  0.3118  0.7408 -0.9318
22759SOL    HW270017   4.440   2.386   3.206  1.3839  0.3604 -0.5361
22760SOL     OW70018   9.409   1.110   7.444  0.7141  0.3831  0.1627
22760SOL    HW170019   9.430   1.035   7.389 -0.1008  0.4546 -0.2709
22760SOL    HW270020   9.423   1.186   7.386 -1.0664  0.4139 -0.2912
22761SOL     OW70021   2.518   1.307   0.192  0.1650 -0.8375  0.5884
22761SOL    HW170022   2.425   1.311   0.214 -0.4013  1.7769 -1.7494
22761SOL    HW270023   2.521   1.260   0.108  0.4022  2.0857 -1.1833
22762SOL     OW70024   4.400   5.358   5.517  0.4679 -0.5098 -0.7518
22762SOL    HW170025   4.327   5.331   5.462 -0.6447 -0.0546  0.4449
22762SOL    HW270026   4.449   5.421   5.463 -0.4789 -0.2270 -1.2964
22763SOL     OW70027   7.254   4.196   6.079 -0.2581 -0.0240  0.0312
22763SOL    HW170028   7.343   4.163   6.065  0.4414  1.6026  0.3066
22763SOL    HW270029   7.205   4.121   6.112  0.9342 -1.0325 -0.4104
22764SOL     OW70030   5.738   5.697   2.326 -0.2650 -0.3145 -0.2229
22764SOL    HW170031   5.829   5.691   2.297 -0.5188 -0.4803 -1.0277
22764SOL    HW270032   5.687   5.664   2.252 -1.0030  0.1499  0.0623
22765SOL     OW70033   9.036   2.791   0.766  0.9090 -0.6766 -0.2108
22765SOL    HW170034   9.073   2.879   0.777 -1.2166  0.1754  0.5477
22765SOL    HW270035   9.094   2.749   0.703  1.4587  1.5969 -1.3311
22766SOL     OW70036   0.608   2.271   9.150 -0.0240 -0.3309 -0.0052
22766SOL    HW170037   0.522   2.277   9.190  0.3148  0.7932  0.6130
22766SOL    HW270038   0.666   2.316   9.211  0.8529 -0.2988 -0.8286
22767SOL     OW70039   6.746   1.437   8.924  0.3269 -0.0278 -0.1343
22767SOL    HW170040   6.695   1.366   8.886  1.1413 -1.0723  0.6450
22767SOL    HW270041   6.683   1.508   8.938 -0.5922 -0.7513 -0.5402
22768SOL     OW70042   8.026   0.903   1.005 -0.1168 -0.0538  0.6742
22768SOL    HW170043   8.030   0.879   0.912 -0.3307  0.9648  0.3820
22768SOL    HW270044   8.032   0.820   1.052 -1.3716 -0.7206 -0.2791
22769SOL     OW70045   1.699   7.559   8.666 -0.4371 -0.1353  0.2246
22769SOL    HW170046   1.688   7.618   8.740  0.4715  2.1232 -1.3424
22769SOL    HW270047   1.793   7.547   8.657 -0.5788 -1.3500  0.1134
22770SOL     OW70048   5.656   9.366   6.332 -0.1818  0.3091  0.4823
22770SOL    HW170049   5.619   9.295   6.384 -0.0205 -0.3403 -0.2671
22770SOL    HW270050   5.749   9.343   6.324 -0.1968  0.4250 -0.0441
22771SOL     OW70051   2.227   0.927   3.053 -0.4861  0.0679  0.4670
22771SOL    HW170052   2.142   0.886   3.035 -0.1769 -1.1338  1.5670
22771SOL    HW270053   2.285   0.893   2.986  0.0647 -2.3965  2.0647
22772SOL     OW70054   1.107   2.992   9.431  0.3190  0.3592 -0.4138
22772SOL    HW170055   1.087   2.926   9.364 -3.9933  0.9945 -0.0334
22772SOL    HW270056   1.065   2.959   9.510 -0.1160  2.5110  0.3262
22773SOL     OW70057   2.194   3.364   1.526 -0.4624  0.5105  0.3645
22773SOL    HW170058   2.220   3.344   1.436  0.1178 -0.4362  0.7373
22773SOL    HW270059   2.200   3.460   1.532 -0.1806  0.5502 -0.4991
22774SOL     OW70060   6.804   4.201   3.409  0.3501  0.0567 -0.9978
22774SOL    HW170061   6.844   4.155   3.483  0.9708  1.6618 -0.2853
22774SOL    HW270062   6.723   4.238   3.444  0.7453  0.9920 -1.0279
22775SOL     OW70063   5.891   6.813   7.205  0.2763 -0.3378 -0.5562
22775SOL    HW170064   5.837   6.790   7.130  0.1505 -1.2021 -0.2161
22775SOL    HW270065   5.969   6.758   7.196  0.9287  0.6139 -0.8317
22776SOL     OW70066   0.315   2.827   8.063 -0.3203  0.0604 -0.6212
22776SOL    HW170067   0.227   2.791   8.063  0.3790 -1.8020 -1.2841
22776SOL    HW270068   0.361   2.775   7.996  1.4898  0.3939  0.3184
22777SOL     OW70069   9.168   8.164   1.273  0.3067  0.4146 -0.0459
22777SOL    HW170070   9.232   8.191   1.340  2.2292 -2.2535 -0.6587
22777SOL    HW270071   9.130   8.084   1.307 -0.2394  0.1621 -1.2227
22778SOL     OW70072   8.123   2.235   1.256  0.3751  0.5634  0.2265
22778SOL    HW170073   8.044   2.233   1.311  0.1070  0.1628 -0.1671
22778SOL    HW270074   8.135   2.328   1.235 -0.2741  0.5826 -0.1060
22779SOL     OW70075   4.115   4.815   0.584 -0.4743  0.1212 -0.4301
22779SOL    HW170076   4.067   4.749   0.633 -1.7596  0.4922 -1.1606
22779SOL    HW270077   4.190   4.768   0.548 -0.0950 -0.4005  0.9480
22780SOL     OW70078   7.487   3.001   1.334 -0.6588  0.2593  0.6556
22780SOL    HW170079   7.494   2.906   1.343  0.3524  0.4243  1.9676
22780SOL    HW270080   7.567   3.027   1.288 -1.3143  0.4033 -0.4206
22781SOL     OW70081   0.071   6.201   8.909  0.3420  0.2010 -0.9619
22781SOL    HW170082   0.095   6.294   8.910 -0.0411  0.3278  0.7464
22781SOL    HW270083  -0.024   6.201   8.907  0.3505 -0.1839 -1.6321
22782SOL     OW70084   9.513   1.672   9.605  0.1577  0.5966 -0.5514
22782SOL    HW170085   9.518   1.607   9.535 -1.4309  2.0877 -2.1479
22782SOL    HW270086   9.519   1.620   9.686  1.1761 -1.2706 -1.7435
22783SOL     OW70087   3.593   6.045   2.366 -0.2940 -0.2073  0.4241
22783SOL    HW170088   3.538   6.115   2.331 -0.6387  0.0435  1.4125
22783SOL    HW270089   3.534   5.972   2.379  0.0894 -0.7369 -0.7088
22784SOL     OW70090   0.519   1.623   4.123  0.3901 -0.0256 -0.6174
22784SOL    HW170091   0.466   1.703   4.125 -0.6079 -0.6720  0.3118
22784SOL    HW270092   0.604   1.649   4.159 -0.0875  0.5071  0.1576
22785SOL     OW70093   6.090   4.170   6.440 -0.2922  0.5077 -0.6377
22785SOL    HW170094   6.146   4.202   6.510 -1.5487  1.5068 -0.0511
22785SOL    HW270095   6.073   4.247   6.386 -0.6311  0.0818 -1.1569
22786SOL     OW70096   4.000   1.813   8.602 -0.2065  0.0724  0.2203
22786SOL    HW170097   3.977   1.839   8.512 -3.0243 -0.2012  0.7872
22786SOL    HW270098   4.046   1.730   8.591  0.1593  0.4085 -1.0105
22787SOL     OW70099   3.476   8.034   3.319 -0.1684 -0.1880  0.1348
22787SOL    HW170100   3.439   8.053   3.406 -0.6369 -1.0891  0.1491
22787SOL    HW270101   3.433   8.097   3.261  1.2961  1.4840  0.7639
22788SOL     OW70102   5.774   1.175   1.554 -0.0435 -0.0476  0.2390
22788SOL    HW170103   5.830   1.098   1.546  0.5839  0.4860 -0.7264
22788SOL    HW270104   5.721   1.159   1.632 -1.1150 -2.2179 -0.8506
22789SOL     OW70105   2.496   6.269   7.009  0.3968 -0.1286  0.1360
22789SOL    HW170106   2.497   6.365   7.017  0.3892 -0.1408  0.2761
22789SOL    HW270107   2.452   6.253   6.925 -0.5513 -0.0327  0.5910
22790SOL     OW70108   3.602   1.624   1.557  0.2452  0.0637 -0.1676
22790SOL    HW170109   3.562   1.625   1.470  0.5224  0.3838 -0.2952
22790SOL    HW270110   3.529   1.615   1.617  0.1369 -1.2210 -0.4796
22791SOL     OW70111   4.148   5.694   4.683  0.2460 -0.1403 -0.3146
22791SOL    HW170112   4.085   5.673   4.613  0.7108  0.9580 -1.0888
22791SOL    HW270113   4.184   5.779   4.658  1.4397 -0.3691  0.5545
22792SOL     OW70114   8.811   8.545   3.991 -0.2962 -0.3628 -0.0394
22792SOL    HW170115   8.825   8.533   4.085  0.6442 -0.0154 -0.1297
22792SOL    HW270116   8.847   8.466   3.950 -0.7014 -0.5118 -0.1136
22793SOL     OW70117   0.565   8.547   4.713  0.0744 -0.1001 -0.5596
22793SOL    HW170118   0.540   8.535   4.622  0.5829 -0.9888 -0.5941
22793SOL    HW270119   0.526   8.472   4.759  1.3619 -0.6831 -0.3676
22794SOL     OW70120   7.678   6.542   8.091  0.0026  0.4939  0.2043
22794SOL    HW170121   7.613   6.508   8.153 -0.2251  0.3703 -0.0941
22794SOL    HW270122   7.702   6.466   8.038 -0.8349  0.8692 -0.7529
22795SOL     OW70123   8.921   4.440   3.163  0.1065 -0.0846  0.1851
22795SOL    HW170124   9.010   4.405   3.160  0.5175  1.0402 -1.7335
22795SOL    HW270125   8.932   4.533   3.182 -0.7649 -0.2006  1.3823
22796SOL     OW70126   5.168   3.506   8.021  0.0665  0.4623  0.0134
22796SOL    HW170127   5.162   3.412   8.039 -4.0916  0.4869 -0.3431
22796SOL    HW270128   5.132   3.515   7.933 -0.7219  2.5040  0.4986
22797SOL     OW70129   2.722   2.245   6.064  0.4010 -0.3050  0.2948
22797SOL    HW170130   2.660   2.234   5.992  1.2849  0.2010 -0.5550
22797SOL    HW270131   2.754   2.156   6.081 -1.0546 -0.7038  1.2443
22798SOL     OW70132   2.569   3.474   7.783 -0.4170 -0.0005 -0.1196
22798SOL    HW170133   2.536   3.559   7.753 -0.7900 -0.2076 -0.3032
22798SOL    HW270134   2.664   3.484   7.782 -0.4641  0.5386  0.2257
22799SOL     OW70135   6.760   8.867   2.412 -0.1487 -0.2713 -0.0602
22799SOL    HW170136   6.752   8.774   2.390 -1.1409 -0.3191  0.4513
22799SOL    HW270137   6.807   8.868   2.495  0.6503 -0.2642 -0.5065
22800SOL     OW70138   5.183   0.919   6.691 -0.2644 -0.2418 -0.1574
22800SOL    HW170139   5.176   0.921   6.786  1.3682  0.5315 -0.0321
22800SOL    HW270140   5.109   0.972   6.660  0.4603  1.3634  0.7683
22801SOL     OW70141   4.210   3.501   8.707 -0.9424  0.6163 -0.0178
22801SOL    HW170142   4.204   3.414   8.747 -0.1630  0.8138  0.5593
22801SOL    HW270143   4.140   3.502   8.642 -0.5051 -0.7240 -0.5576
22802SOL     OW70144   3.489   5.020   6.819  0.3757  0.0723 -0.6688
22802SOL    HW170145   3.453   5.072   6.747 -1.2000 -0.2361 -0.1427
22802SOL    HW270146   3.450   4.933   6.807 -1.3305  0.4502  1.5001
22803SOL     OW70147   5.954   6.774   4.044  0.0106  0.1258 -0.4464
22803SOL    HW170148   5.951   6.845   4.108  1.0841 -0.2357  0.0306
22803SOL    HW270149   6.043   6.739   4.051 -0.8143 -1.9860  0.1017
22804SOL     OW70150   1.385   7.281   2.181 -0.0531 -0.6778 -0.1287
22804SOL    HW170151   1.434   7.234   2.114  1.5710 -0.4063  0.8125
22804SOL    HW270152   1.307   7.312   2.136  1.2587  0.0265 -2.0753
22805SOL     OW70153   9.426   7.211   1.233 -0.0714 -0.1613 -0.0659
22805SOL    HW170154   9.481   7.198   1.156  2.0529  1.1505  1.1542
22805SOL    HW270155   9.360   7.274   1.205 -0.1727 -0.7180 -1.1531
22806SOL     OW70156   4.253   2.665   6.745 -0.2528 -0.2763  0.0869
22806SOL    HW170157   4.216   2.721   6.677  0.5243 -0.9832 -0.9478
22806SOL    HW270158   4.214   2.697   6.827  0.3515  1.9182 -0.4340
22807SOL     OW70159   0.383   4.868   4.321 -0.3587  0.1785  0.1562
22807SOL    HW170160   0.460   4.812   4.327 -0.1182  0.5886  1.0437
22807SOL    HW270161   0.403   4.927   4.249  0.4945  0.7639  0.8489
22808SOL     OW70162   1.936   4.618   6.652 -0.4403  0.2206 -0.3191
22808SOL    HW170163   1.901   4.533   6.679  0.7574  0.1187  1.0156
22808SOL    HW270164   1.911   4.626   6.560 -0.5705 -1.5802 -0.4715
22809SOL     OW70165   0.867   7.609   1.762  0.1084  0.9730  0.0552
22809SOL    HW170166   0.832   7.520   1.766 -0.6544  1.2066 -0.9706
22809SOL    HW270167   0.882   7.633   1.854 -2.3895  0.8394  0.5770
22810SOL     OW70168   6.545   5.200   7.935  0.6266 -0.4654 -0.0159
22810SOL    HW170169   6.546   5.196   7.839 -0.7226  1.5284 -0.1741
22810SOL    HW270170   6.491   5.125   7.961 -0.0831 -0.2893 -0.9150
22811SOL     OW70171   4.675   0.885   4.328  0.4458 -0.2285 -0.4882
22811SOL    HW170172   4.599   0.893   4.386  0.8804 -0.7484  0.1727
22811SOL    HW270173   4.645   0.919   4.244 -0.5964 -0.6391 -0.3005
22812SOL     OW70174   7.606   4.680   6.277 -0.0775  0.1634 -0.5131
22812SOL    HW170175   7.555   4.599   6.272 -0.7587  0.6345 -1.4344
22812SOL    HW270176   7.620   4.706   6.186  1.4934  0.2607 -0.2840
22813SOL     OW70177   8.327   3.332   9.098  0.3613 -0.0681  0.1046
22813SOL    HW170178   8.282   3.320   9.182 -1.3700  1.0391 -0.6059
22813SOL    HW270179   8.288   3.266   9.040  1.5778 -0.8568  0.1547
22814SOL     OW70180   6.807   2.652   9.041  0.4164  0.5280  0.1554
22814SOL    HW170181   6.723   2.680   9.005 -0.6389 -1.4408  0.9316
22814SOL    HW270182   6.865   2.645   8.965 -0.5676  0.4592 -0.6090
22815SOL     OW70183   9.429   1.659   1.348 -0.0965  0.5974  0.1002
22815SOL    HW170184   9.511   1.618   1.377  0.3982  1.1709 -0.4618
22815SOL    HW270185   9.403   1.714   1.422  0.9766  1.7828 -0.3538
22816SOL     OW70186   7.583   6.891   4.559  0.1206 -0.3852 -0.5197
22816SOL    HW170187   7.633   6.968   4.531  0.8013 -1.1243 -1.3836
22816SOL    HW270188   7.634   6.856   4.633  0.4675 -0.6879 -0.8972
22817SOL     OW70189   5.487   0.550   0.081  0.2763  0.4224 -0.3106
22817SOL    HW170190   5.405   0.556   0.131  1.0238  3.2746  0.7623
22817SOL    HW270191   5.527   0.468   0.110 -1.4140 -0.1851  0.4026
22818SOL     OW70192   0.343   8.280   0.381  0.1536  0.6966 -0.0989
22818SOL    HW170193   0.326   8.353   0.441  1.2074 -0.6929  2.0023
22818SOL    HW270194   0.267   8.223   0.391  0.0297  0.7703 -0.5977
22819SOL     OW70195   9.546   9.186   4.451 -0.8542  0.3855  0.1396
22819SOL    HW170196   9.590   9.176   4.536 -1.0776 -0.1920  0.1964
22819SOL    HW270197   9.596   9.131   4.391 -0.5980  0.9254 -0.1452
22820SOL     OW70198   3.780   1.680   9.450  0.2389 -0.5062 -0.6667
22820SOL    HW170199   3.755   1.621   9.522  1.3081  0.0548  0.2006
22820SOL    HW270200   3.783   1.767   9.490  2.3341 -0.3800 -0.9812
22821SOL     OW70201   0.049   6.868   4.849  0.8255 -0.1292 -0.0358
22821SOL    HW170202   0.070   6.779   4.877  2.1306 -0.6182 -2.3256
22821SOL    HW270203  -0.021   6.857   4.785  0.4574  0.5784  0.2329
22822SOL     OW70204   9.076   7.598   5.892  0.1342  0.0376  0.1823
22822SOL    HW170205   8.994   7.602   5.940  1.1661 -0.4370  2.0892
22822SOL    HW270206   9.099   7.505   5.890  0.2755  0.0802 -1.0058
22823SOL     OW70207   5.247   6.115   3.862 -0.0069 -0.2182 -0.3407
22823SOL    HW170208   5.164   6.083   3.897  0.4145  1.6963  2.8068
22823SOL    HW270209   5.228   6.205   3.833  1.2599  1.0605  2.4163
22824SOL     OW70210   0.775   7.541   3.182  0.3599  0.2356 -0.4665
22824SOL    HW170211   0.826   7.581   3.253 -0.9390 -1.9381  1.8398
22824SOL    HW270212   0.688   7.580   3.190  0.5657  1.0715 -1.9072
22825SOL     OW70213   7.421   4.119   0.020  0.1678 -0.2062 -0.1859
22825SOL    HW170214   7.447   4.082   0.104  0.6952  0.0425 -0.2328
22825SOL    HW270215   7.501   4.114  -0.034 -0.8162 -2.8877 -1.5998
22826SOL     OW70216   7.906   2.977   7.409 -0.2868 -0.1518 -0.1665
22826SOL    HW170217   7.938   2.991   7.498  1.3466 -0.1966 -0.7031
22826SOL    HW270218   7.838   2.910   7.417  0.1028 -0.4283  0.9939
22827SOL     OW70219   2.702   2.659   9.155 -0.1847  0.4708 -0.4887
22827SOL    HW170220   2.766   2.718   9.116  0.3053 -0.7179 -1.5473
22827SOL    HW270221   2.747   2.621   9.231  0.2739 -0.1202 -1.0435
22828SOL     OW70222   1.072   1.113   5.017  0.5248  0.5815  0.0132
22828SOL    HW170223   1.163   1.096   5.039 -0.0306 -2.1795  0.6319
22828SOL    HW270224   1.050   1.047   4.952 -1.2041  0.6989  0.4219
22829SOL     OW70225   1.700   4.590   6.972  0.2045 -0.5023 -0.2388
22829SOL    HW170226   1.646   4.591   6.893  1.7828 -0.4564 -1.3715
22829SOL    HW270227   1.765   4.521   6.955  1.5667  0.6084  0.2972
22830SOL     OW70228   8.461   9.520   7.849 -0.3473 -0.3698 -0.3185
22830SOL    HW170229   8.409   9.600   7.855 -1.6617 -1.2876  2.5471
22830SOL    HW270230   8.403   9.457   7.807  0.1757 -0.2098 -1.3007
22831SOL     OW70231   3.131   8.080   9.342  0.4035 -0.3564 -0.3385
22831SOL    HW170232   3.166   7.992   9.334  0.8841 -0.2247  0.2100
22831SOL    HW270233   3.200   8.130   9.387  1.5939  1.1736 -3.5619
22832SOL     OW70234   5.596   7.465   6.877  0.7100  0.2454 -0.6417
22832SOL    HW170235   5.675   7.479   6.929  1.8683 -0.1124 -2.2581
22832SOL    HW270236   5.555   7.388   6.917  0.9410  0.6815  0.4689
22833SOL     OW70237   2.944   0.246   0.249  0.5483 -0.4558 -0.2156
22833SOL    HW170238   2.955   0.152   0.239 -0.7233 -0.5108 -1.2732
22833SOL    HW270239   2.920   0.258   0.341 -0.4817 -1.3077 -0.3532
22834SOL     OW70240   3.649   0.630   1.887 -0.2688  0.3520  0.8082
22834SOL    HW170241   3.705   0.694   1.843  0.6094 -1.0845 -0.2875
22834SOL    HW270242   3.691   0.616   1.972  1.0862 -0.6540  0.0262
22835SOL     OW70243   1.048   8.796   1.042 -0.1709  0.0614  0.0118
22835SOL    HW170244   1.016   8.728   0.983 -2.6760 -0.5967  1.9709
22835SOL    HW270245   1.101   8.749   1.106  0.3724  0.3847 -0.1954
22836SOL     OW70246   3.677   6.584   5.703 -0.3233 -0.2874 -0.1771
22836SOL    HW170247   3.724   6.658   5.666 -1.7356  0.5391 -0.3833
22836SOL    HW270248   3.700   6.510   5.647  0.2781  0.2146 -0.6019
22837SOL     OW70249   8.913   7.253   8.063 -0.0024 -0.2747  0.3438
22837SOL    HW170250   8.906   7.207   7.979  0.0625 -2.4308  1.4563
22837SOL    HW270251   8.993   7.218   8.103 -1.1856 -0.9607  2.2380
22838SOL     OW70252   5.177   5.843   8.057 -1.0267  0.0569 -0.0212
22838SOL    HW170253   5.218   5.885   7.982  0.9565  2.1567  2.0698
22838SOL    HW270254   5.220   5.758   8.064 -1.7456 -0.4866 -1.5697
22839SOL     OW70255   6.118   0.191   3.184  0.3709  0.2191  0.2464
22839SOL    HW170256   6.062   0.114   3.195 -0.3833  0.7200  0.0615
22839SOL    HW270257   6.072   0.261   3.231 -0.5197  1.2637 -2.0073
22840SOL     OW70258   0.382   6.582   0.287  0.1597 -0.2730 -0.4199
22840SOL    HW170259   0.449   6.520   0.258  0.4072  0.2892 -1.0617
22840SOL    HW270260   0.392   6.658   0.229 -0.4086  0.2033  0.0923
22841SOL     OW70261   8.006   1.687   7.996 -0.2219 -0.3435 -0.2863
22841SOL    HW170262   8.058   1.767   7.983 -1.2870  0.7644  1.7492
22841SOL    HW270263   7.986   1.657   7.908  2.8176 -0.1621 -1.1620
22842SOL     OW70264   7.005   0.416   9.215 -0.2031 -0.0377  0.3165
22842SOL    HW170265   6.922   0.451   9.247 -0.4714 -0.6514  0.3074
22842SOL    HW270266   7.017   0.456   9.129 -1.5076 -1.4519 -0.5825
22843SOL     OW70267   3.576   3.877   1.469  0.4633 -0.6267 -0.1499
22843SOL    HW170268   3.499   3.820   1.474 -1.3463  1.7562  1.5613
22843SOL    HW270269   3.600   3.878   1.377 -2.9935  0.2360 -1.1863
22844SOL     OW70270   4.829   0.679   1.137  0.1073 -0.2093 -0.5098
22844SOL    HW170271   4.845   0.766   1.174  0.1118 -0.8879  1.2025
22844SOL    HW270272   4.860   0.685   1.047 -0.0053  1.5904 -0.4697
22845SOL     OW70273   8.403   1.967   0.427  0.1164  0.1568  0.3397
22845SOL    HW170274   8.443   1.946   0.511  0.6570 -0.9602 -0.1822
22845SOL    HW270275   8.402   1.885   0.379  1.0820  1.0469 -1.2899
22846SOL     OW70276   6.440   5.692   5.226 -0.5071  0.2296  0.3154
22846SOL    HW170277   6.448   5.775   5.178  0.1200 -0.0888 -0.1474
22846SOL    HW270278   6.350   5.663   5.208 -0.9468  1.1117  1.0036
22847SOL     OW70279   8.059   7.638   9.253  0.4454 -0.0425 -0.7758
22847SOL    HW170280   8.102   7.702   9.311  1.3029 -0.9809 -0.3475
22847SOL    HW270281   8.016   7.578   9.313 -1.5413  0.8933 -1.2002
22848SOL     OW70282   6.406   8.375   6.901  0.5668  0.7358 -0.4829
22848SOL    HW170283   6.338   8.374   6.834  0.7380 -1.1885 -0.6839
22848SOL    HW270284   6.474   8.316   6.868  0.7327 -0.1376  1.2652
22849SOL     OW70285   3.666   5.251   7.819  0.0131  0.0822 -0.2981
22849SOL    HW170286   3.632   5.296   7.742 -0.1349 -0.8750 -0.8005
22849SOL    HW270287   3.693   5.165   7.787  0.4608 -0.1293  0.6125
22850SOL     OW70288   5.225   2.961   4.163 -0.2189 -0.3909  0.1475
22850SOL    HW170289   5.167   2.977   4.088  2.2823 -0.6714 -1.9627
22850SOL    HW270290   5.270   3.044   4.178 -1.2949 -0.0726  2.0020
22851SOL     OW70291   0.973   0.461   4.628 -0.3662 -0.1696 -0.2775
22851SOL    HW170292   1.015   0.391   4.678 -1.2562  0.0211  0.7886
22851SOL    HW270293   0.883   0.464   4.663 -0.4238  1.3019 -0.5063
22852SOL     OW70294   2.897   7.818   0.665  0.0237 -0.1297  0.0542
22852SOL    HW170295   2.839   7.792   0.736  0.5171  0.7822  0.8039
22852SOL    HW270296   2.981   7.836   0.707  0.8997 -1.4767 -1.0167
22853SOL     OW70297   4.396   9.306   3.293 -0.1466 -0.0022 -0.0476
22853SOL    HW170298   4.483   9.280   3.263  0.1952  0.5367  0.4649
22853SOL    HW270299   4.392   9.279   3.384 -0.5195 -0.0245 -0.0680
22854SOL     OW70300   6.947   0.825   5.040  0.2096  0.4780 -0.7546
22854SOL    HW170301   6.991   0.904   5.010  0.8741  0.2058 -0.5203
22854SOL    HW270302   6.950   0.766   4.964 -0.4069  0.7136 -0.9746
22855SOL     OW70303   1.840   6.318   9.053 -0.0147 -0.0028 -0.2697
22855SOL    HW170304   1.859   6.312   9.147 -1.7063  1.2410  0.1977
22855SOL    HW270305   1.898   6.254   9.013 -0.1582 -1.5155  1.7720
22856SOL     OW70306   8.191   3.736   5.987  0.1736  0.3823 -0.1460
22856SOL    HW170307   8.127   3.713   6.053 -0.1088 -1.7707 -1.0985
22856SOL    HW270308   8.273   3.695   6.016  0.6348  1.3891  0.0224
22857SOL     OW70309   3.315   8.484   6.825  0.0026  0.5775 -0.0272
22857SOL    HW170310   3.396   8.471   6.777 -1.5495 -0.2717 -2.6104
22857SOL    HW270311   3.285   8.396   6.847 -1.9305  0.5619 -2.3067
22858SOL     OW70312   1.719   6.812   9.536  0.5143  0.0424  0.4393
22858SOL    HW170313   1.675   6.864   9.603  0.1039 -1.7754  1.6432
22858SOL    HW270314   1.648   6.775   9.484  0.4849 -2.5057  2.0876
22859SOL     OW70315   4.669   5.379   8.006  0.2795 -0.1958 -0.1389
22859SOL    HW170316   4.706   5.455   7.962  0.8317 -1.4267 -1.9293
22859SOL    HW270317   4.744   5.338   8.050  0.0483  0.1062  0.5404
22860SOL     OW70318   8.715   6.346   4.234  0.0189  0.1817 -0.0674
22860SOL    HW170319   8.685   6.261   4.265  0.9549 -0.8591 -1.8048
22860SOL    HW270320   8.673   6.409   4.291  0.9811 -1.4951  2.6986
22861SOL     OW70321   7.833   5.212   6.686  0.0344 -0.8740  0.6177
22861SOL    HW170322   7.769   5.247   6.748  0.2447  0.6130  0.0288
22861SOL    HW270323   7.918   5.225   6.729  0.0165 -2.3150  1.1485
22862SOL     OW70324   2.836   8.289   2.637 -0.0823 -0.2291 -0.0569
22862SOL    HW170325   2.828   8.323   2.726 -2.7615 -1.0130  0.0798
22862SOL    HW270326   2.920   8.323   2.606  1.1037 -0.2315  2.8559
22863SOL     OW70327   7.216   4.659   5.555 -0.2338  0.0210  0.2457
22863SOL    HW170328   7.128   4.674   5.520 -0.2330  0.0594  0.2595
22863SOL    HW270329   7.222   4.718   5.630  0.2867  0.9977 -0.5434
22864SOL     OW70330   7.192   0.806   3.762 -0.2900  0.0052  0.0807
22864SOL    HW170331   7.231   0.842   3.683  4.4107  0.5836  2.2830
22864SOL    HW270332   7.234   0.720   3.773 -0.0482  0.3291  2.3026
22865SOL     OW70333   2.697   6.371   4.806  0.6737 -0.4461 -0.5139
22865SOL    HW170334   2.741   6.341   4.886  0.8003  0.2671 -0.3080
22865SOL    HW270335   2.605   6.353   4.822  0.4427  1.4628  0.6436
22866SOL     OW70336   7.135   4.706   8.316  0.0679 -0.4911 -0.5958
22866SOL    HW170337   7.093   4.663   8.390  1.9120 -0.9280  0.2558
22866SOL    HW270338   7.110   4.654   8.239 -2.4589  0.3873 -0.4606
22867SOL     OW70339   1.035   3.178   5.139 -0.1666  0.0379  0.0729
22867SOL    HW170340   1.124   3.145   5.130 -0.1218 -0.0023  0.6039
22867SOL    HW270341   1.046   3.273   5.149 -0.1605  0.0055  0.3968
22868SOL     OW70342   0.751   1.379   1.454 -0.4517 -0.4193 -0.1255
22868SOL    HW170343   0.736   1.286   1.437 -0.5087 -0.3705 -0.3378
22868SOL    HW270344   0.764   1.384   1.549  0.8438 -0.8356 -0.2523
22869SOL     OW70345   8.268   1.724   4.489 -0.4136 -0.3111  0.3311
22869SOL    HW170346   8.297   1.736   4.399  1.4944 -1.3193  0.7783
22869SOL    HW270347   8.194   1.664   4.483 -0.6473  0.0574 -0.5849
22870SOL     OW70348   3.020   0.076   2.769 -0.8352 -0.8836  0.2826
22870SOL    HW170349   2.926   0.061   2.768 -0.7747 -1.4448  1.3349
22870SOL    HW270350   3.051   0.045   2.685 -1.7072  0.1970 -0.4703
22871SOL     OW70351   7.739   3.466   5.138 -0.5230  0.1927 -0.2217
22871SOL    HW170352   7.684   3.421   5.074  0.1365 -1.1302  0.1306
22871SOL    HW270353   7.828   3.455   5.106 -0.2575  0.2154  0.4952
22872SOL     OW70354   3.552   3.679   7.971 -0.1849 -0.2619 -0.4885
22872SOL    HW170355   3.601   3.608   7.930  0.0785  0.3479 -1.2771
22872SOL    HW270356   3.464   3.645   7.983  0.1673 -1.0168 -0.0393
22873SOL     OW70357   3.612   3.344   1.042 -0.4170  0.0098 -0.5000
22873SOL    HW170358   3.528   3.377   1.012  0.1422  1.5351 -0.4705
22873SOL    HW270359   3.647   3.295   0.967 -0.5509  0.8832 -1.1443
22874SOL     OW70360   7.996   3.394   5.059 -0.0260 -0.3463  0.0129
22874SOL    HW170361   8.030   3.347   5.135 -1.3505  0.5935  1.2551
22874SOL    HW270362   8.063   3.459   5.038 -0.6132  0.9637  1.9216
22875SOL     OW70363   2.733   6.632   3.627 -0.0798  0.0707  0.8901
22875SOL    HW170364   2.828   6.622   3.620 -0.0286  1.3023 -0.5656
22875SOL    HW270365   2.705   6.555   3.678  1.7622  0.1486  2.1207
22876SOL     OW70366   3.049   5.320   6.574  0.5436  0.1075 -0.1514
22876SOL    HW170367   3.045   5.251   6.508 -0.7993  0.5574 -0.5877
22876SOL    HW270368   2.964   5.316   6.618  1.1206  0.3330  1.0256
22877SOL     OW70369   9.522   3.625   8.582 -0.2116 -0.0618  0.3905
22877SOL    HW170370   9.558   3.671   8.657 -0.4168 -1.6571  1.5081
22877SOL    HW270371   9.559   3.537   8.587 -1.4825 -0.6835 -0.4623
22878SOL     OW70372   8.182   4.260   6.455  0.4410 -0.5738 -0.4823
22878SOL    HW170373   8.106   4.317   6.454 -0.0912 -1.1283  1.9132
22878SOL    HW270374   8.160   4.191   6.516  3.2390 -0.1529  1.2169
22879SOL     OW70375   6.891   6.579   4.797 -0.1830 -0.1261  0.2776
22879SOL    HW170376   6.926   6.493   4.819  0.6134 -0.2702 -1.3417
22879SOL    HW270377   6.968   6.631   4.774 -0.7992  0.3139 -0.9267
22880SOL     OW70378   4.138   6.518   8.346  0.2253 -0.4096  0.2777
22880SOL    HW170379   4.047   6.516   8.317 -0.0961 -1.0793  1.2593
22880SOL    HW270380   4.181   6.451   8.293 -0.0518 -0.6864  0.3964
22881SOL     OW70381   0.990   8.991   4.901  0.2603  0.1998 -0.3228
22881SOL    HW170382   0.933   8.917   4.924 -0.4307 -0.0739 -2.6557
22881SOL    HW270383   0.969   9.010   4.810  2.9156  1.0255 -0.8574
22882SOL     OW70384   1.684   5.419   4.304  0.2026  0.0151 -0.6932
22882SOL    HW170385   1.617   5.455   4.362  1.3854  1.3823 -0.0943
22882SOL    HW270386   1.640   5.405   4.221 -0.6071  1.8354 -0.6088
22883SOL     OW70387   7.241   5.224   6.314  0.3040  0.1033 -0.4031
22883SOL    HW170388   7.233   5.230   6.409  0.5076  0.4250 -0.4043
22883SOL    HW270389   7.154   5.244   6.280 -0.3668 -2.2045 -0.2138
22884SOL     OW70390   0.557   8.808   6.308  0.3767  0.3729 -0.3709
22884SOL    HW170391   0.465   8.822   6.330  0.5307 -1.2770  1.5899
22884SOL    HW270392   0.603   8.883   6.347 -0.0347  0.7749 -0.6463
22885SOL     OW70393   6.041   2.167   5.063  0.5017 -0.6549 -0.3160
22885SOL    HW170394   5.996   2.235   5.013  1.4068 -0.3893 -0.7937
22885SOL    HW270395   6.053   2.095   5.000 -0.5774 -1.3365  0.2234
22886SOL     OW70396   0.893   7.228   0.642 -0.7946 -0.2233 -0.7997
22886SOL    HW170397   0.862   7.318   0.655  0.1515  0.6399 -3.8118
22886SOL    HW270398   0.836   7.192   0.574 -0.3755 -1.5232 -0.5016
22887SOL     OW70399   7.195   1.898   0.804  0.1444 -0.9087  0.1706
22887SOL    HW170400   7.287   1.880   0.825  0.2081 -1.1980 -0.3309
22887SOL    HW270401   7.180   1.987   0.836  1.0615 -0.2497 -1.1625
22888SOL     OW70402   5.729   0.049   0.783  0.2328 -0.2135 -0.2532
22888SOL    HW170403   5.693   0.068   0.697  0.8298 -1.7211 -0.8779
22888SOL    HW270404   5.735   0.134   0.827  2.1606  0.9820 -2.5643
22889SOL     OW70405   8.743   2.900   3.864 -0.1595 -0.7443 -0.3114
22889SOL    HW170406   8.826   2.925   3.824 -0.8878  0.7238 -0.9771
22889SOL    HW270407   8.757   2.915   3.957 -0.0410  0.6932 -0.5317
22890SOL     OW70408   8.985   5.116   2.243 -0.4310  0.0998  0.0071
22890SOL    HW170409   8.998   5.095   2.150 -0.6879  1.3413 -0.3247
22890SOL    HW270410   8.903   5.073   2.266 -1.0884  0.9128 -0.7322
22891SOL     OW70411   2.066   0.423   5.527  0.0439 -0.4196 -0.0053
22891SOL    HW170412   2.098   0.438   5.616  0.3738  1.0183 -0.3437
22891SOL    HW270413   2.139   0.450   5.471 -0.2240 -1.1517 -0.7300
22892SOL     OW70414   2.976   2.566   9.093  0.4288  0.2021 -0.0209
22892SOL    HW170415   2.907   2.535   9.034  0.5228  0.0847 -0.0693
22892SOL    HW270416   3.001   2.652   9.058 -1.9733  1.8064  1.8582
22893SOL     OW70417   4.921   4.536   5.364  0.8279  0.8532  0.3446
22893SOL    HW170418   4.838   4.564   5.325  0.2074  0.1149  1.0896
22893SOL    HW270419   4.951   4.464   5.308  0.8269  0.9490  0.2219
22894SOL     OW70420   9.512   4.119   2.277 -0.1480 -0.1499  0.1501
22894SOL    HW170421   9.456   4.172   2.333  2.8337  2.1283  1.2701
22894SOL    HW270422   9.544   4.049   2.335  0.0490  0.0042  0.2290
22895SOL     OW70423   4.094   6.397   7.328  0.2537  0.0591 -0.2138
22895SOL    HW170424   4.007   6.382   7.291  0.5450 -0.2365 -0.7829
22895SOL    HW270425   4.100   6.493   7.337 -0.7293  0.0191  1.3076
22896SOL     OW70426   4.618   4.081   3.141 -0.2587  0.2133 -0.5485
22896SOL    HW170427   4.599   4.103   3.050  1.4067 -0.4622 -1.0883
22896SOL    HW270428   4.692   4.137   3.165  1.6663 -2.0699 -0.8090
22897SOL     OW70429   3.202   0.104   0.678  0.2719  0.0980 -0.3037
22897SOL    HW170430   3.132   0.097   0.743  1.1419 -1.1034  0.5282
22897SOL    HW270431   3.240   0.191   0.693 -0.5525  0.4674 -0.2803
22898SOL     OW70432   6.479   3.892   3.939 -0.5132 -0.6653  0.7004
22898SOL    HW170433   6.425   3.933   4.007 -0.9865 -1.4386  0.8051
22898SOL    HW270434   6.425   3.820   3.906 -1.0024  0.6684 -1.6606
22899SOL     OW70435   1.248   6.654   1.882 -0.3000  0.2311 -0.0331
22899SOL    HW170436   1.164   6.610   1.872  0.7273 -2.0457  0.6631
22899SOL    HW270437   1.313   6.589   1.855  1.2740  1.8405 -0.3441
22900SOL     OW70438   4.595   2.413   0.746 -0.4359 -0.5898 -0.7442
22900SOL    HW170439   4.596   2.436   0.839 -0.9182 -2.6863 -0.1787
22900SOL    HW270440   4.612   2.496   0.701 -1.5711  0.7415  1.1390
22901SOL     OW70441   6.640   4.246   2.427  0.2811  0.1292 -0.3969
22901SOL    HW170442   6.545   4.236   2.417  0.1601 -0.5133  1.1573
22901SOL    HW270443   6.670   4.159   2.455  1.0179  0.8680  1.2162
22902SOL     OW70444   9.342   7.434   1.054  0.4729  0.6327  0.1202
22902SOL    HW170445   9.437   7.430   1.048  0.5842  0.5933  1.5049
22902SOL    HW270446   9.311   7.425   0.964  1.7408 -0.6238 -0.2257
22903SOL     OW70447   9.370   8.840   7.533  0.1742 -0.1421  0.2066
22903SOL    HW170448   9.433   8.815   7.600 -0.7444  0.5660  1.3691
22903SOL    HW270449   9.417   8.826   7.450  1.8067  0.2612  1.0159
22904SOL     OW70450   5.120   8.950   4.720  0.3733  0.1674 -0.2423
22904SOL    HW170451   5.105   9.012   4.648 -1.3118 -1.4246 -1.3595
22904SOL    HW270452   5.051   8.971   4.784  1.6308  1.3224  0.8157
22905SOL     OW70453   6.167   4.928   3.466  0.1604  0.4577 -0.2609
22905SOL    HW170454   6.201   4.879   3.391  0.6386  0.8618 -0.3156
22905SOL    HW270455   6.169   4.866   3.538 -1.1951 -0.2211 -0.7839
22906SOL     OW70456   3.179   5.481   7.153  0.3071  0.0073 -0.2918
22906SOL    HW170457   3.204   5.559   7.201  0.2929 -0.6607  0.8507
22906SOL    HW270458   3.091   5.460   7.186  0.4237 -0.6395 -0.3768
22907SOL     OW70459   1.159   9.606   1.956 -0.7924  0.4468 -0.1569
22907SOL    HW170460   1.169   9.701   1.964  0.7948  0.2781  0.2677
22907SOL    HW270461   1.187   9.572   2.041  0.0197 -0.4793 -0.7738
22908SOL     OW70462   4.918   8.199   6.460  0.3926  0.3874  0.3937
22908SOL    HW170463   4.873   8.164   6.537  0.1335  1.7809  0.9037
22908SOL    HW270464   4.848   8.230   6.403  0.5557 -1.1315 -0.6873
22909SOL     OW70465   4.262   0.856   4.108 -0.0733 -0.1617  0.1632
22909SOL    HW170466   4.265   0.932   4.166  1.4035  0.6753 -0.9085
22909SOL    HW270467   4.299   0.784   4.159 -1.0552 -0.0616  1.0349
22910SOL     OW70468   1.464   3.021   8.036 -0.0908 -0.4441 -0.8158
22910SOL    HW170469   1.540   3.079   8.044  0.2530 -0.8113 -1.3810
22910SOL    HW270470   1.399   3.074   7.989 -0.0656 -0.2432 -0.6240
22911SOL     OW70471   9.571   1.608   7.093  0.2949  0.3987  0.3388
22911SOL    HW170472   9.546   1.583   7.004 -1.2967 -1.1758  1.1836
22911SOL    HW270473   9.491   1.641   7.132  1.1399  1.7292  1.0220
22912SOL     OW70474   3.858   1.105   1.120 -0.1633 -0.4647 -0.6335
22912SOL    HW170475   3.776   1.127   1.076 -0.2873  1.5847  0.5373
22912SOL    HW270476   3.847   1.137   1.210  1.2040 -1.8992  0.1069
22913SOL     OW70477   7.911   3.153   1.217  0.1340  0.0812 -0.0852
22913SOL    HW170478   7.893   3.065   1.250 -0.2608 -0.6527 -2.1236
22913SOL    HW270479   7.958   3.196   1.289  2.2514 -2.4789  0.2181
22914SOL     OW70480   1.571   5.278   4.861 -0.7674 -0.2814 -0.3881
22914SOL    HW170481   1.566   5.211   4.793 -1.9199  2.0893 -2.8051
22914SOL    HW270482   1.632   5.343   4.827  0.4995 -0.1005  1.9920
22915SOL     OW70483   1.237   1.511   4.980 -0.5517  0.4656  0.3476
22915SOL    HW170484   1.232   1.438   4.918 -1.3192 -2.2012  3.2779
22915SOL    HW270485   1.321   1.552   4.961  0.2916 -1.6711 -0.9489
22916SOL     OW70486   0.001   2.091   7.663 -0.2457  0.2577  0.5220
22916SOL    HW170487  -0.006   2.136   7.748 -0.4714 -0.8790  1.1246
22916SOL    HW270488   0.088   2.051   7.665  0.0664  0.8773 -0.1327
22917SOL     OW70489   7.318   0.102   3.736 -0.1629 -0.0181 -0.1503
22917SOL    HW170490   7.398   0.153   3.750 -2.0808  2.6594  1.8810
22917SOL    HW270491   7.316   0.040   3.809 -0.2463  0.3007  0.1156
22918SOL     OW70492   7.449   2.758   7.820  0.1743  0.2310  0.2810
22918SOL    HW170493   7.446   2.679   7.874  1.1805 -0.7825 -1.0733
22918SOL    HW270494   7.409   2.732   7.737  0.9756  0.9852 -0.3593
22919SOL     OW70495   2.668   6.078   3.868 -0.1058  0.0531 -0.0012
22919SOL    HW170496   2.726   6.154   3.876 -2.6876  2.2653 -0.8539
22919SOL    HW270497   2.725   6.002   3.886  3.2274  1.9291 -1.6823
22920SOL     OW70498   9.109   5.855   4.975 -0.6169 -0.3406 -0.0401
22920SOL    HW170499   9.150   5.905   4.904  1.1354  1.6036  2.1802
22920SOL    HW270500   9.017   5.881   4.973 -0.1962  1.1941 -0.4197
22921SOL     OW70501   2.694   4.407   9.159  0.3937  0.6274  0.9777
22921SOL    HW170502   2.720   4.497   9.137  0.1861  0.8258  1.5345
22921SOL    HW270503   2.601   4.414   9.179 -0.1815 -0.1063 -1.1661
22922SOL     OW70504   7.989   6.663   3.678 -0.3434 -0.5550  0.3521
22922SOL    HW170505   8.018   6.687   3.766  0.5454 -1.9087  0.4528
22922SOL    HW270506   7.952   6.744   3.643  3.8200  1.5240  0.0826
22923SOL     OW70507   2.257   2.569   6.311 -0.3646 -0.1415 -0.1163
22923SOL    HW170508   2.328   2.628   6.337  1.6551 -2.1423 -0.7779
22923SOL    HW270509   2.214   2.614   6.238 -0.0740  1.2968  0.5714
22924SOL     OW70510   7.038   7.579   3.161 -0.0821 -0.0616 -0.0580
22924SOL    HW170511   7.033   7.585   3.065 -2.1425 -0.1597  0.0003
22924SOL    HW270512   7.128   7.605   3.182 -0.3620  2.6422 -1.8179
22925SOL     OW70513   4.082   1.041   9.564 -0.5224  0.2373 -0.2310
22925SOL    HW170514   4.056   1.067   9.476 -2.8930 -1.0586  0.0082
22925SOL    HW270515   4.019   0.975   9.590  2.1448 -2.0044  1.1633
22926SOL     OW70516   4.463   4.798   3.315  0.1502  0.5760 -0.0049
22926SOL    HW170517   4.439   4.831   3.401  0.6292  2.2649 -0.4763
22926SOL    HW270518   4.379   4.776   3.273 -0.0447 -0.9122  1.1027
22927SOL     OW70519   3.663   6.771   4.679 -0.1427 -0.7206  0.1772
22927SOL    HW170520   3.625   6.684   4.667 -0.6576 -0.2890 -1.7481
22927SOL    HW270521   3.590   6.831   4.659  1.0093  0.1242 -1.8053
22928SOL     OW70522   5.042   8.562   1.708 -0.4167 -0.2014 -0.1280
22928SOL    HW170523   4.962   8.540   1.660 -2.0618 -0.5205  2.5267
22928SOL    HW270524   5.064   8.651   1.680 -2.2314  0.2234 -0.3412
22929SOL     OW70525   9.571   5.864   4.784  0.0221  0.3719  0.1887
22929SOL    HW170526   9.577   5.826   4.872  0.9450  0.6212  0.2474
22929SOL    HW270527   9.482   5.900   4.779  0.1129  0.7831  1.2077
22930SOL     OW70528   8.229   7.568   7.654 -0.3164  0.2425 -0.2089
22930SOL    HW170529   8.153   7.529   7.696  0.8064 -1.1614  0.6306
22930SOL    HW270530   8.216   7.551   7.561  0.1844 -2.4325  0.1206
22931SOL     OW70531   6.730   9.171   0.101  0.7877  0.1891 -0.3369
22931SOL    HW170532   6.809   9.123   0.077 -0.0518 -1.3152 -0.2179
22931SOL    HW270533   6.728   9.167   0.197 -0.3543 -1.4365 -0.3757
22932SOL     OW70534   6.860   4.029   2.286 -0.3649  0.0073 -0.0074
22932SOL    HW170535   6.766   4.032   2.269 -0.3592 -0.5049 -0.1458
22932SOL    HW270536   6.901   4.040   2.200 -0.3284 -1.6708 -0.2376
22933SOL     OW70537   2.820   5.444   9.193 -0.5010  0.3428 -0.2305
22933SOL    HW170538   2.895   5.422   9.138 -0.6332  1.7178 -0.9977
22933SOL    HW270539   2.757   5.374   9.176 -1.1353  1.4442 -3.0321
22934SOL     OW70540   4.069   9.438   5.040  0.2591  0.1636  0.4408
22934SOL    HW170541   4.128   9.511   5.058 -0.3091  0.2267  2.2568
22934SOL    HW270542   4.101   9.366   5.094  1.9398 -1.6520 -2.6954
22935SOL     OW70543   2.068   2.324   6.860  0.6389  0.0118  0.5875
22935SOL    HW170544   2.135   2.271   6.904  1.1097 -0.7019 -0.9232
22935SOL    HW270545   1.988   2.305   6.908  1.3388  0.1836  1.8648
22936SOL     OW70546   1.591   0.786   6.652 -0.3578 -0.2254 -0.6426
22936SOL    HW170547   1.601   0.807   6.559  1.2474  0.7722 -0.2951
22936SOL    HW270548   1.563   0.868   6.692 -1.4189 -0.7501 -0.2794
22937SOL     OW70549   5.572   0.177   3.369 -0.3449  0.1624 -0.0005
22937SOL    HW170550   5.510   0.148   3.302 -0.7816  2.4306 -0.6893
22937SOL    HW270551   5.561   0.273   3.371  1.4586  0.3902  1.5457
22938SOL     OW70552   3.891   6.763   0.129 -0.3633  0.2870 -0.6363
22938SOL    HW170553   3.876   6.696   0.063 -0.3314  0.2668 -0.6233
22938SOL    HW270554   3.904   6.713   0.210  0.9429  0.2488 -0.8500
22939SOL     OW70555   6.011   6.261   0.418  0.3478 -0.1843 -0.2739
22939SOL    HW170556   5.995   6.264   0.513  3.1041 -0.5069  0.3003
22939SOL    HW270557   6.013   6.168   0.397  0.9455 -0.1509 -0.3838
22940SOL     OW70558   2.814   5.010   4.112  0.6214 -0.5509 -0.4270
22940SOL    HW170559   2.775   5.073   4.172 -1.4462 -0.1083 -2.1141
22940SOL    HW270560   2.748   4.942   4.101  1.5608 -1.3967 -1.0516
22941SOL     OW70561   1.962   3.408   6.618 -0.1745 -0.9741  0.3193
22941SOL    HW170562   1.886   3.465   6.607 -0.2595 -0.9956  0.7802
22941SOL    HW270563   1.936   3.345   6.685  0.5191 -0.4927  1.0543
22942SOL     OW70564   8.812   5.903   9.152  0.1152 -0.0172 -0.0414
22942SOL    HW170565   8.881   5.936   9.095  1.0738 -0.5864  0.7431
22942SOL    HW270566   8.759   5.980   9.172 -0.4852  0.1252 -1.9745
22943SOL     OW70567   2.814   2.171   3.300 -0.0386  0.1403  0.0220
22943SOL    HW170568   2.827   2.116   3.223  1.1580 -0.7492  0.8229
22943SOL    HW270569   2.835   2.260   3.270 -1.3785  0.1031 -1.1232
22944SOL     OW70570   1.874   9.084   7.488  0.4777 -0.2986  0.6469
22944SOL    HW170571   1.815   9.113   7.558 -1.8592  0.4255 -1.4623
22944SOL    HW270572   1.920   9.164   7.462  0.0857 -0.1904  0.2678
22945SOL     OW70573   2.015   5.518   7.412  0.1420  0.0259 -0.0626
22945SOL    HW170574   2.031   5.567   7.492  1.9147 -0.6797  0.0678
22945SOL    HW270575   1.950   5.570   7.365 -2.5158 -0.5806  2.6825
22946SOL     OW70576   1.321   7.677   2.668 -0.1607 -0.3178  0.8371
22946SOL    HW170577   1.259   7.683   2.596  0.0546 -1.8032  0.5020
22946SOL    HW270578   1.406   7.670   2.626 -0.0853 -1.7770  1.1983
22947SOL     OW70579   9.395   3.793   4.569 -0.0791 -0.5413  0.1303
22947SOL    HW170580   9.389   3.885   4.544 -0.3851 -0.5371  0.2090
22947SOL    HW270581   9.401   3.795   4.665 -0.6523 -0.6237  0.1707
22948SOL     OW70582   6.023   4.698   2.784 -0.2245  0.1932  0.5952
22948SOL    HW170583   6.035   4.787   2.752 -1.5774  0.1358 -0.1448
22948SOL    HW270584   6.111   4.661   2.785  0.1392  0.9405 -0.9237
22949SOL     OW70585   0.477   2.336   0.043 -0.4738 -0.4258  0.0636
22949SOL    HW170586   0.568   2.310   0.057 -0.8335 -1.9602 -0.3362
22949SOL    HW270587   0.430   2.302   0.119 -0.5370  1.5833  1.0007
22950SOL     OW70588   6.282   8.648   4.586  0.3938  0.0338 -0.2544
22950SOL    HW170589   6.257   8.632   4.677  0.6726 -0.7792 -0.3156
22950SOL    HW270590   6.364   8.696   4.592 -0.3693  1.3665 -0.0715
22951SOL     OW70591   9.398   4.666   1.435 -0.0932  0.5794  0.8479
22951SOL    HW170592   9.450   4.706   1.366 -1.1738  1.3173  0.4310
22951SOL    HW270593   9.402   4.572   1.417  1.1699  0.6044  0.9073
22952SOL     OW70594   7.744   1.047   1.465 -0.3098 -0.3112 -0.6005
22952SOL    HW170595   7.702   1.006   1.389 -2.2207 -0.4118  0.4596
22952SOL    HW270596   7.685   1.118   1.490  0.3442 -0.2196  0.7397
22953SOL     OW70597   4.072   6.157   3.010  0.2849 -0.6043 -0.0565
22953SOL    HW170598   4.007   6.185   2.946  1.1441  0.4478 -0.5078
22953SOL    HW270599   4.025   6.155   3.093 -0.7070 -1.4580 -0.6182
22954SOL     OW70600   8.740   4.978   2.484 -0.4987 -0.2758  0.0876
22954SOL    HW170601   8.722   4.890   2.450 -0.0074 -0.0877 -0.7100
22954SOL    HW270602   8.801   4.963   2.556 -1.7717 -0.7081  1.0955
22955SOL     OW70603   4.378   2.427   9.256  0.2793 -0.0210  0.4642
22955SOL    HW170604   4.348   2.385   9.336 -0.0519  0.1592  0.4345
22955SOL    HW270605   4.450   2.484   9.284 -0.3928  0.6961  0.7705
22956SOL     OW70606   3.442   6.200   7.051  0.3642  0.9767 -0.0351
22956SOL    HW170607   3.521   6.194   6.997  1.8771  0.6992  2.0971
22956SOL    HW270608   3.430   6.294   7.064  2.6612  1.0287  2.6926
22957SOL     OW70609   8.818   2.933   6.544  0.3455 -0.3793  0.5804
22957SOL    HW170610   8.914   2.933   6.544  0.3737  0.8960 -0.7058
22957SOL    HW270611   8.794   2.994   6.613  0.5103  0.7552 -0.3425
22958SOL     OW70612   8.679   4.042   2.323  0.0653  1.1509  0.4173
22958SOL    HW170613   8.645   3.960   2.286  1.4038  0.7601 -0.0095
22958SOL    HW270614   8.602   4.095   2.339 -1.0494 -0.8370  2.3189
22959SOL     OW70615   1.086   9.326   9.266  0.4108 -0.1311  0.4576
22959SOL    HW170616   1.161   9.284   9.308  1.4962  1.6195  0.3875
22959SOL    HW270617   1.082   9.413   9.306 -0.3482  0.5299 -0.9728
22960SOL     OW70618   7.461   8.773   8.561  0.1548  0.3360  0.0673
22960SOL    HW170619   7.415   8.733   8.487 -0.2213  3.2173 -1.3980
22960SOL    HW270620   7.392   8.804   8.619  0.4417 -2.6053  2.1914
22961SOL     OW70621   2.191   3.394   2.417  0.1555  0.1026  0.3683
22961SOL    HW170622   2.283   3.381   2.441  0.1539 -0.3583  0.1337
22961SOL    HW270623   2.183   3.489   2.404  1.0601 -0.0196 -1.4067
22962SOL     OW70624   3.476   1.885   8.337 -0.0392 -0.1222  0.4379
22962SOL    HW170625   3.405   1.943   8.308 -0.2558 -0.9111 -0.6684
22962SOL    HW270626   3.498   1.917   8.425 -0.7545  1.0640  0.2138
22963SOL     OW70627   4.619   1.513   6.247 -0.5832  0.6488  0.3432
22963SOL    HW170628   4.582   1.447   6.307 -0.3241  1.2929  1.2314
22963SOL    HW270629   4.681   1.562   6.300  0.5047  0.5162 -0.7655
22964SOL     OW70630   3.835   3.929   5.744  0.1059 -0.4128 -0.2384
22964SOL    HW170631   3.761   3.882   5.783  0.8715 -3.4807 -2.1232
22964SOL    HW270632   3.906   3.866   5.743  1.8797  1.4688 -1.1809
22965SOL     OW70633   3.360   8.153   4.150 -0.7232  0.7546  0.0314
22965SOL    HW170634   3.279   8.114   4.119 -0.0287  0.3298 -1.3312
22965SOL    HW270635   3.412   8.079   4.181 -0.2242  0.8226 -0.6175
22966SOL     OW70636   3.970   8.847   1.206 -0.1848  0.2428 -0.1095
22966SOL    HW170637   3.947   8.923   1.260  0.1199 -0.6334  1.3011
22966SOL    HW270638   3.952   8.875   1.116 -0.2434  1.9217  0.3896
22967SOL     OW70639   4.411   2.082   6.504  0.0019 -0.0653 -0.1529
22967SOL    HW170640   4.412   2.057   6.412 -0.4950  0.2798 -0.2545
22967SOL    HW270641   4.328   2.050   6.538  0.1648 -0.1579  0.1690
22968SOL     OW70642   6.302   5.125   7.230 -0.1297 -0.1249  0.5269
22968SOL    HW170643   6.328   5.085   7.147 -1.7077 -0.1180 -0.0117
22968SOL    HW270644   6.275   5.214   7.207 -0.0966  0.0447  1.1251
22969SOL     OW70645   2.558   0.739   0.032  0.5193  0.1655 -0.0176
22969SOL    HW170646   2.649   0.715   0.019  0.5584 -0.1896  0.8202
22969SOL    HW270647   2.560   0.813   0.093  0.2318 -0.3370  0.6239
22970SOL     OW70648   8.550   5.326   5.448  0.3060  0.5806 -0.2395
22970SOL    HW170649   8.461   5.348   5.474  0.9634  2.4328  0.6566
22970SOL    HW270650   8.586   5.277   5.522  0.6162  1.5476  0.2736
22971SOL     OW70651   6.077   6.062   7.808 -0.5044 -0.3184 -0.6848
22971SOL    HW170652   6.118   6.041   7.724  0.9184 -0.9440  0.1267
22971SOL    HW270653   6.044   5.978   7.840  2.4977 -0.9703  1.1553
22972SOL     OW70654   3.795   7.430   9.563 -0.1779  0.4524  0.0382
22972SOL    HW170655   3.796   7.468   9.475 -2.1046 -0.6388 -0.5225
22972SOL    HW270656   3.849   7.351   9.555 -1.0165 -0.1009 -0.4476
22973SOL     OW70657   9.453   9.479   2.504 -0.1563  0.6714  0.1503
22973SOL    HW170658   9.361   9.451   2.502  0.1643 -0.5534  1.2742
22973SOL    HW270659   9.503   9.398   2.495  0.8116  0.9851  2.1866
22974SOL     OW70660   6.765   1.323   1.829 -0.4490  0.2178 -0.1386
22974SOL    HW170661   6.771   1.228   1.838 -0.2235  0.2878  0.4995
22974SOL    HW270662   6.780   1.356   1.917  2.0654  0.9489 -0.7603
22975SOL     OW70663   8.052   2.429   4.529  0.2718 -0.4003  0.0517
22975SOL    HW170664   8.093   2.404   4.446 -0.5669 -3.7769  0.5187
22975SOL    HW270665   7.966   2.387   4.526  0.2955 -0.7780  2.7106
22976SOL     OW70666   7.442   1.164   1.556  0.1432  0.4324 -0.2420
22976SOL    HW170667   7.396   1.107   1.494  1.2364  1.8805 -2.5165
22976SOL    HW270668   7.396   1.247   1.552 -1.7441 -0.2327  3.4307
22977SOL     OW70669   6.005   0.666   6.182  0.1874  0.5123 -0.7374
22977SOL    HW170670   6.006   0.762   6.183  1.6377  0.6178  2.7018
22977SOL    HW270671   6.095   0.641   6.164 -0.1361 -0.2439 -1.3777
22978SOL     OW70672   3.789   9.465   5.095  0.0881 -0.1841  0.3107
22978SOL    HW170673   3.759   9.382   5.059  0.8380 -0.3169 -0.0195
22978SOL    HW270674   3.882   9.453   5.112 -0.1435  0.0344  1.8820
22979SOL     OW70675   1.079   3.902   3.076  0.1196 -0.0093  0.0148
22979SOL    HW170676   1.036   3.876   3.158 -0.7253 -1.7113 -0.9206
22979SOL    HW270677   1.016   3.879   3.007  1.6442 -0.5505 -1.2577
22980SOL     OW70678   8.930   5.387   2.323 -0.2581 -0.2572  0.0501
22980SOL    HW170679   8.942   5.292   2.313  1.9462 -0.3673  2.6241
22980SOL    HW270680   8.992   5.426   2.262  0.7792 -0.5556  0.8889
22981SOL     OW70681   1.198   4.179   2.330  0.1911 -0.3284  0.5667
22981SOL    HW170682   1.206   4.084   2.328  2.6498 -0.2017 -2.2394
22981SOL    HW270683   1.198   4.205   2.238  1.1011  2.4331  1.2515
22982SOL     OW70684   9.463   1.973   0.014  0.5418  0.1065  0.7459
22982SOL    HW170685   9.513   2.025   0.077  2.0553  0.2879 -0.5417
22982SOL    HW270686   9.476   1.882   0.041 -0.4566  0.2591  1.8197
22983SOL     OW70687   6.734   2.035   6.979  0.5130 -0.5606 -0.4539
22983SOL    HW170688   6.794   2.078   7.039  0.7173 -0.2368 -0.8896
22983SOL    HW270689   6.777   2.040   6.893 -0.2870 -0.0117 -0.8360
22984SOL     OW70690   9.452   2.611   1.074  1.1483  0.4190 -0.0288
22984SOL    HW170691   9.409   2.672   1.015 -0.3443  0.1374  0.6921
22984SOL    HW270692   9.506   2.665   1.131 -0.2775  1.1197  0.7030
22985SOL     OW70693   3.696   8.077   8.970  0.1687 -0.5967  0.4186
22985SOL    HW170694   3.670   8.030   8.891  0.9480 -0.2209 -0.0721
22985SOL    HW270695   3.692   8.170   8.945 -1.5012 -0.3563  1.4127
22986SOL     OW70696   5.255   3.535   7.231  0.7450 -0.3459 -0.0004
22986SOL    HW170697   5.205   3.484   7.167 -0.8250 -3.0255  3.0596
22986SOL    HW270698   5.208   3.618   7.238 -0.8802 -1.2112 -0.1811
22987SOL     OW70699   3.070   3.211   9.270  0.2227 -0.2476 -0.7730
22987SOL    HW170700   3.066   3.116   9.280 -1.6284 -0.1791 -0.4342
22987SOL    HW270701   3.001   3.244   9.327  1.8802  1.4529  0.3684
22988SOL     OW70702   5.003   8.545   6.990 -0.5318 -0.1620 -0.4605
22988SOL    HW170703   4.918   8.580   7.017 -0.2307 -0.0020  0.3160
22988SOL    HW270704   4.983   8.485   6.918 -1.6643 -2.3937  1.5559
22989SOL     OW70705   3.940   5.465   5.117  0.7249 -0.0489  0.7711
22989SOL    HW170706   3.900   5.469   5.030 -0.0325  0.1869  1.1231
22989SOL    HW270707   4.017   5.522   5.110 -0.2351  1.2924  0.7081
22990SOL     OW70708   6.518   5.673   3.962  0.1066 -0.2829  0.0438
22990SOL    HW170709   6.522   5.763   3.929  0.1310  0.2741  1.5295
22990SOL    HW270710   6.560   5.621   3.893  0.5259  0.8971 -0.6178
22991SOL     OW70711   3.975   0.849   9.116 -0.0654 -0.1958 -0.1913
22991SOL    HW170712   3.959   0.911   9.046  0.8005  0.1878 -0.0630
22991SOL    HW270713   4.051   0.798   9.087  0.4990  0.1750  0.5817
22992SOL     OW70714   2.738   4.932   0.034  0.6908  0.3442  0.0760
22992SOL    HW170715   2.654   4.957   0.071 -1.2556 -1.6347 -2.6433
22992SOL    HW270716   2.789   5.013   0.033 -1.9299  2.0838 -0.0812
22993SOL     OW70717   7.913   7.029   6.479  0.4413  0.1849 -0.3486
22993SOL    HW170718   7.963   6.987   6.408  1.1045 -1.7060  1.1435
22993SOL    HW270719   7.824   6.998   6.467  0.3461  0.6536 -0.9033
22994SOL     OW70720   6.714   7.037   3.248  0.3773  0.2567  0.5547
22994SOL    HW170721   6.752   6.955   3.215 -0.8148  0.8037 -2.4593
22994SOL    HW270722   6.759   7.052   3.331  2.4634 -2.1327 -0.0157
22995SOL     OW70723   4.472   4.901   5.929  0.0446 -0.3247 -0.1251
22995SOL    HW170724   4.407   4.858   5.984 -1.5923  1.0696 -0.8778
22995SOL    HW270725   4.464   4.994   5.951  1.0507 -0.0105 -1.0021
22996SOL     OW70726   0.927   5.420   1.886 -0.0127  0.3135  0.4961
22996SOL    HW170727   1.004   5.444   1.937 -0.4766  1.2788  0.7778
22996SOL    HW270728   0.948   5.335   1.849  1.0723  0.4337  0.7977
22997SOL     OW70729   4.339   0.668   4.324  0.4785  0.0552  0.0117
22997SOL    HW170730   4.432   0.648   4.313  0.2299 -1.0940 -0.1303
22997SOL    HW270731   4.306   0.599   4.381 -0.1600  0.8199  0.5877
22998SOL     OW70732   5.387   0.991   7.088 -0.3870  0.3842  0.5912
22998SOL    HW170733   5.455   0.937   7.048 -0.2494  1.7158 -1.1000
22998SOL    HW270734   5.430   1.031   7.164  0.5502  0.7295 -0.1048
22999SOL     OW70735   2.461   3.269   1.020  0.1863 -0.3093  0.0875
22999SOL    HW170736   2.439   3.220   1.099  0.0386 -1.6348 -0.7515
22999SOL    HW270737   2.556   3.269   1.017  0.3115  1.8608  1.5171
23000SOL     OW70738   0.069   0.294   4.479  0.1732  0.0998 -0.0706
23000SOL    HW170739   0.012   0.273   4.552  0.2305  0.4458  0.0766
23000SOL    HW270740   0.010   0.322   4.409  0.1555  0.3623  0.0486
23001SOL     OW70741   6.966   3.739   2.605  0.0277 -0.3744  0.1402
23001SOL    HW170742   6.956   3.776   2.692 -0.3517  0.5584 -0.2763
23001SOL    HW270743   6.892   3.678   2.596  0.2225 -0.6745  0.5611
23002SOL     OW70744   9.522   3.392   1.754  0.3978 -0.2420 -0.1290
23002SOL    HW170745   9.449   3.447   1.784 -0.4004 -0.3948 -1.6885
23002SOL    HW270746   9.601   3.439   1.782 -0.2755  0.5837  0.4593
23003SOL     OW70747   5.886   1.897   2.950  0.4266  0.8890 -0.1572
23003SOL    HW170748   5.829   1.923   3.022 -0.8280 -2.0911  0.0528
23003SOL    HW270749   5.963   1.860   2.992  0.1722  0.1427 -0.3248
23004SOL     OW70750   7.708   1.317   0.132 -0.4261 -0.5055 -0.2424
23004SOL    HW170751   7.647   1.390   0.121  1.4918  1.1412 -0.4655
23004SOL    HW270752   7.658   1.251   0.181 -1.6615  1.6781  1.5915
23005SOL     OW70753   5.685   1.039   3.554 -0.2925 -0.0560 -0.2274
23005SOL    HW170754   5.722   1.049   3.642  1.7243  0.9654 -1.1350
23005SOL    HW270755   5.761   1.032   3.496 -1.5346  0.9172 -2.0784
23006SOL     OW70756   0.034   3.986   4.822  0.8823  0.6584  0.1370
23006SOL    HW170757   0.111   3.928   4.821 -0.5838 -1.4712  1.5753
23006SOL    HW270758  -0.022   3.950   4.891 -3.3693 -0.6306 -3.4798
23007SOL     OW70759   5.056   7.704   6.460 -0.9601 -0.0540  0.1023
23007SOL    HW170760   5.073   7.793   6.490 -2.4824  0.5089 -0.6390
23007SOL    HW270761   4.999   7.666   6.527  1.9512 -1.5308  1.9517
23008SOL     OW70762   1.003   6.065   5.106 -0.1399 -0.0424  0.5307
23008SOL    HW170763   1.088   6.063   5.151  1.2995 -1.4790 -2.0390
23008SOL    HW270764   0.996   5.979   5.064 -1.7467  0.9136 -1.3095
23009SOL     OW70765   5.409   6.042   2.479  0.6176  0.6275  0.0604
23009SOL    HW170766   5.469   6.047   2.404 -0.0067 -0.8235 -0.5700
23009SOL    HW270767   5.360   5.961   2.465 -1.2087  1.5603  0.7718
23010SOL     OW70768   1.395   3.891   8.084 -0.1304 -0.3589 -0.3342
23010SOL    HW170769   1.339   3.854   8.016  0.1973 -1.4058 -0.0416
23010SOL    HW270770   1.339   3.897   8.161 -0.3059  0.1771 -0.4997
23011SOL     OW70771   1.650   9.067   2.635  0.1949  0.5332  0.0781
23011SOL    HW170772   1.575   9.115   2.601 -0.4770 -1.4063 -1.3367
23011SOL    HW270773   1.723   9.092   2.578 -0.2517 -0.3870 -0.9374
23012SOL     OW70774   6.144   7.122   3.208 -0.1978 -0.0932  0.0585
23012SOL    HW170775   6.224   7.128   3.261  0.0110 -0.5451 -0.1979
23012SOL    HW270776   6.094   7.199   3.232 -0.5577 -0.7818  1.6431
23013SOL     OW70777   1.208   2.462   4.823  0.7102  0.2427 -0.1904
23013SOL    HW170778   1.200   2.499   4.735 -0.9124  0.8782  0.1869
23013SOL    HW270779   1.186   2.370   4.813  1.3727  0.1196 -0.5763
23014SOL     OW70780   7.330   3.756   0.597 -0.2459  0.9567  0.3990
23014SOL    HW170781   7.261   3.777   0.659  1.4083  3.6566  1.4975
23014SOL    HW270782   7.305   3.800   0.515 -1.3492 -0.7931 -0.2587
23015SOL     OW70783   4.310   0.627   1.755  0.2075 -0.2273  0.0010
23015SOL    HW170784   4.367   0.673   1.692 -2.7173  0.5779 -2.3000
23015SOL    HW270785   4.263   0.562   1.702 -0.7077 -1.1802  1.8684
23016SOL     OW70786   1.749   4.035   6.277  0.0943 -0.1062 -0.4316
23016SOL    HW170787   1.756   4.129   6.295  1.9642 -0.3199  0.2089
23016SOL    HW270788   1.666   4.009   6.318  0.3646  0.9644  0.8705
23017SOL     OW70789   5.457   3.314   8.379  0.7258 -0.1956 -0.5574
23017SOL    HW170790   5.420   3.402   8.373  0.4412 -0.2150  0.6078
23017SOL    HW270791   5.543   3.327   8.418  0.4922 -0.4674  0.0610
23018SOL     OW70792   0.701   6.938   3.510 -0.1981 -0.2879 -0.3744
23018SOL    HW170793   0.767   6.968   3.572  0.9676 -2.4152 -0.5272
23018SOL    HW270794   0.705   7.002   3.438  0.7784  0.3268  0.2027
23019SOL     OW70795   5.688   7.083   3.277  0.2208 -0.2252 -0.4172
23019SOL    HW170796   5.752   7.014   3.258  0.0489 -1.0707  1.8471
23019SOL    HW270797   5.698   7.144   3.204  1.3415 -1.9393 -1.7912
23020SOL     OW70798   6.506   8.098   4.807 -0.1327  0.3475  0.1224
23020SOL    HW170799   6.503   8.138   4.720  0.3655 -1.3365 -0.7261
23020SOL    HW270800   6.417   8.066   4.822 -0.0049 -0.1835 -0.2065
23021SOL     OW70801   4.716   1.376   3.468 -0.3202 -0.0730 -0.0876
23021SOL    HW170802   4.687   1.301   3.415 -1.0030  0.3389 -0.3123
23021SOL    HW270803   4.774   1.338   3.534  0.1125 -0.6736 -0.7916
23022SOL     OW70804   0.968   5.350   4.539 -0.4413  0.5884 -0.2010
23022SOL    HW170805   0.983   5.359   4.445 -1.2935 -0.4609 -0.4505
23022SOL    HW270806   0.920   5.430   4.563  1.3486  1.7344 -0.2801
23023SOL     OW70807   3.423   6.387   0.148  0.0683 -0.5083  0.3522
23023SOL    HW170808   3.393   6.477   0.132  1.0265 -0.4310 -1.1989
23023SOL    HW270809   3.504   6.398   0.198  0.3409 -0.4773 -0.0865
23024SOL     OW70810   6.702   8.917   7.746 -0.0521  0.6995  0.4873
23024SOL    HW170811   6.737   8.829   7.756 -1.0038  0.4027  1.3592
23024SOL    HW270812   6.759   8.958   7.681  0.1911 -0.6619 -0.2001
23025SOL     OW70813   3.846   4.977   2.990 -0.4297  0.7540 -0.5577
23025SOL    HW170814   3.905   4.916   2.947 -0.0795  0.0878  0.7953
23025SOL    HW270815   3.897   5.057   3.001  0.4433  0.0410  0.9983
23026SOL     OW70816   7.750   6.943   0.672 -0.2087 -0.5945  0.3883
23026SOL    HW170817   7.694   6.952   0.595  1.0971 -3.4043 -1.0127
23026SOL    HW270818   7.799   7.026   0.675 -1.7383  0.3968 -0.5284
23027SOL     OW70819   6.269   4.604   2.785  0.3529 -0.0112 -0.4705
23027SOL    HW170820   6.336   4.650   2.835 -0.4456 -0.1379  0.7533
23027SOL    HW270821   6.317   4.533   2.741  1.0791  0.1543  0.0324
23028SOL     OW70822   7.798   2.158   6.954  0.2947  0.0564  0.1159
23028SOL    HW170823   7.762   2.121   7.034  2.0667 -1.8542  0.1014
23028SOL    HW270824   7.723   2.166   6.895 -0.9304  0.9279  1.7204
23029SOL     OW70825   9.048   3.604   0.573 -0.1646 -0.2746 -0.0929
23029SOL    HW170826   8.983   3.584   0.505 -0.9669  1.4899  0.0961
23029SOL    HW270827   9.132   3.600   0.527 -0.5834 -0.4922 -0.8684
23030SOL     OW70828   0.983   8.942   2.657  0.4341  0.1401  0.2051
23030SOL    HW170829   0.959   8.856   2.621  0.1917 -0.4449  1.6511
23030SOL    HW270830   1.071   8.929   2.692 -0.1160  0.0324  1.6521
23031SOL     OW70831   2.498   6.920   3.671  0.2886 -0.1862  0.0381
23031SOL    HW170832   2.548   6.902   3.750 -0.9950  2.6969  1.6812
23031SOL    HW270833   2.563   6.921   3.601  1.7154 -1.2809  1.2868
23032SOL     OW70834   3.559   6.421   8.516 -0.1348 -0.1206 -0.1799
23032SOL    HW170835   3.520   6.430   8.430  1.6437 -0.8555 -1.1153
23032SOL    HW270836   3.613   6.343   8.510 -0.0831 -0.2712  1.6538
23033SOL     OW70837   0.731   3.904   5.988  0.4555 -0.2390 -0.0789
23033SOL    HW170838   0.732   3.986   5.938 -0.9487 -0.8123 -1.1341
23033SOL    HW270839   0.645   3.866   5.969  0.5110 -1.2676  1.5535
23034SOL     OW70840   3.965   9.258   3.453 -0.3305  0.2068  0.1580
23034SOL    HW170841   3.934   9.205   3.526  0.4837 -0.9657 -0.3090
23034SOL    HW270842   3.983   9.344   3.491  0.5380 -0.5119  1.4560
23035SOL     OW70843   4.778   1.634   1.739  0.1336  0.1421 -0.0510
23035SOL    HW170844   4.785   1.556   1.794  2.6201  0.9712  0.9724
23035SOL    HW270845   4.847   1.624   1.674  0.1120  1.1989 -0.2607
23036SOL     OW70846   5.932   8.342   9.104 -0.5098 -0.3329  0.5142
23036SOL    HW170847   5.963   8.348   9.194 -2.2482 -0.7333  1.1877
23036SOL    HW270848   6.007   8.309   9.055  0.9482  1.3413  1.4953
23037SOL     OW70849   4.697   5.518   1.744 -1.1547  0.4226 -0.5555
23037SOL    HW170850   4.665   5.517   1.653 -2.6907 -0.1556 -0.0449
23037SOL    HW270851   4.693   5.426   1.771  1.4645  0.2186 -0.5709
23038SOL     OW70852   6.421   2.877   5.914  0.2076 -0.0636  0.0121
23038SOL    HW170853   6.396   2.849   5.826  0.1683  0.4525 -0.1430
23038SOL    HW270854   6.517   2.880   5.912  0.2407 -0.8622  0.2405
23039SOL     OW70855   1.266   7.635   3.466  0.0648 -0.5725  0.4297
23039SOL    HW170856   1.308   7.699   3.523 -1.5321  1.7873 -0.8724
23039SOL    HW270857   1.328   7.622   3.394  0.3730 -0.4825  0.6770
23040SOL     OW70858   3.444   7.384   4.771 -0.1927  0.5148  0.3659
23040SOL    HW170859   3.529   7.346   4.796 -1.0012 -2.0146 -0.4449
23040SOL    HW270860   3.383   7.352   4.838 -1.5586 -2.7860 -2.1949
23041SOL     OW70861   9.117   5.401   9.004 -0.3290  0.5437 -0.3108
23041SOL    HW170862   9.117   5.497   8.996 -2.1796  0.5471 -0.6721
23041SOL    HW270863   9.208   5.376   8.987  0.2963  2.2597  0.2463
23042SOL     OW70864   4.430   3.948   3.564  0.3385 -0.4365 -0.0347
23042SOL    HW170865   4.380   3.971   3.486  2.2897 -0.2459 -1.2903
23042SOL    HW270866   4.400   4.011   3.631 -2.3756 -1.5114 -0.1280
23043SOL     OW70867   0.316   9.443   8.906 -0.3138  0.2485 -0.3657
23043SOL    HW170868   0.383   9.380   8.934 -0.3467  0.0725 -0.6698
23043SOL    HW270869   0.278   9.476   8.987  0.6773  0.9361 -0.1761
23044SOL     OW70870   3.608   5.171   6.088 -0.0969  0.0593  0.2990
23044SOL    HW170871   3.563   5.105   6.035  0.5770  0.5490 -0.9157
23044SOL    HW270872   3.699   5.167   6.059  0.1441  0.8561  0.9082
23045SOL     OW70873   8.613   7.322   5.736  0.2768  0.1558  0.3281
23045SOL    HW170874   8.643   7.292   5.651  0.1674 -0.3159  0.4504
23045SOL    HW270875   8.555   7.251   5.767 -2.2270  1.6625 -0.5817
23046SOL     OW70876   0.780   7.608   7.161 -1.0857  0.0093 -0.2307
23046SOL    HW170877   0.732   7.560   7.094 -0.4483 -0.1562 -0.5764
23046SOL    HW270878   0.870   7.615   7.127 -1.2611  1.8747 -0.4374
23047SOL     OW70879   2.956   1.705   6.114 -0.2336  0.2112  0.3271
23047SOL    HW170880   3.031   1.653   6.085  1.1383  0.6119  2.8387
23047SOL    HW270881   2.976   1.794   6.084 -0.2153  0.1463  0.1431
23048SOL     OW70882   3.930   5.244   9.215  0.4333  0.4264  0.5605
23048SOL    HW170883   3.922   5.324   9.162  2.2662  0.6797  0.6027
23048SOL    HW270884   3.846   5.237   9.261 -0.1573  1.7301 -0.2502
23049SOL     OW70885   4.701   2.223   7.285 -0.1961  0.3467  0.2400
23049SOL    HW170886   4.700   2.245   7.192 -1.9753  0.5147  0.2601
23049SOL    HW270887   4.743   2.137   7.289  1.2555  0.9818 -0.5231
23050SOL     OW70888   5.511   6.321   7.150  0.0203  0.2796  0.0075
23050SOL    HW170889   5.443   6.347   7.212  0.4825 -0.1875  0.7303
23050SOL    HW270890   5.590   6.312   7.204  0.4296 -0.1393 -0.6497
23051SOL     OW70891   5.764   2.107   4.963  0.1066 -0.0068 -0.7232
23051SOL    HW170892   5.751   2.020   4.999 -2.3725  0.0138 -1.3740
23051SOL    HW270893   5.770   2.093   4.868 -2.0359  0.6004 -1.0014
23052SOL     OW70894   5.032   7.908   2.447  0.6146 -0.2441  0.6035
23052SOL    HW170895   5.045   7.994   2.408  0.6960 -0.3714  0.3459
23052SOL    HW270896   4.940   7.908   2.476 -0.0681 -0.8732 -1.4317
23053SOL     OW70897   8.256   3.428   6.486  0.0449 -0.1118 -0.3336
23053SOL    HW170898   8.163   3.435   6.464 -0.2512  0.4019  0.9798
23053SOL    HW270899   8.285   3.519   6.493  0.7401 -0.2705 -1.0783
23054SOL     OW70900   5.569   5.083   0.499 -0.1718 -0.7533  0.1893
23054SOL    HW170901   5.531   5.084   0.587 -0.2597 -0.7183  0.1519
23054SOL    HW270902   5.539   5.165   0.459 -0.6674 -1.0610 -0.0911
23055SOL     OW70903   8.814   1.734   6.317 -0.0830  0.7143 -0.2858
23055SOL    HW170904   8.908   1.750   6.330 -0.2887  1.4850  0.3489
23055SOL    HW270905   8.778   1.820   6.294 -0.6733  0.4826 -0.2348
23056SOL     OW70906   5.224   1.010   3.989 -0.5792 -0.0644 -0.1299
23056SOL    HW170907   5.309   1.013   3.945 -1.7716  2.8082 -2.6112
23056SOL    HW270908   5.179   0.936   3.950 -0.7015  0.9742 -2.0909
23057SOL     OW70909   6.655   0.123   4.460 -0.0965  0.1807  0.0661
23057SOL    HW170910   6.566   0.130   4.425 -0.3130  0.1779  0.6010
23057SOL    HW270911   6.683   0.213   4.471  0.1390  0.1855 -0.5091
23058SOL     OW70912   6.251   5.629   4.045 -0.4484 -0.0432  0.0701
23058SOL    HW170913   6.243   5.704   4.104  0.2732  0.8748 -0.9593
23058SOL    HW270914   6.300   5.663   3.970 -1.3915 -1.1656 -1.0854
23059SOL     OW70915   9.212   1.099   0.595 -0.2509 -0.1787  0.0609
23059SOL    HW170916   9.279   1.037   0.565 -0.4036  0.0023 -0.6857
23059SOL    HW270917   9.261   1.179   0.617  0.0344 -0.7736  1.7295
23060SOL     OW70918   3.410   5.650   1.383 -0.3639 -0.0925  0.3788
23060SOL    HW170919   3.429   5.556   1.390  1.1419  0.2768  1.7432
23060SOL    HW270920   3.315   5.654   1.377 -0.8330 -1.6007  4.0022
23061SOL     OW70921   2.845   5.745   2.029 -0.5221  0.1221 -0.4276
23061SOL    HW170922   2.889   5.671   1.987 -1.1224 -1.3103  1.3342
23061SOL    HW270923   2.755   5.717   2.039 -0.9168  1.3728 -0.2901
23062SOL     OW70924   4.032   9.444   2.086  0.1501  0.5123 -0.1393
23062SOL    HW170925   3.960   9.473   2.031 -0.6883 -0.2553  0.5151
23062SOL    HW270926   4.110   9.452   2.031  0.0734  4.1064  0.0037
23063SOL     OW70927   6.279   3.408   6.420 -0.2194 -0.3724  0.1745
23063SOL    HW170928   6.259   3.321   6.456  2.0506  0.0495  2.7735
23063SOL    HW270929   6.194   3.451   6.413 -1.3768 -2.6411 -0.9092
23064SOL     OW70930   5.892   8.380   1.349  0.2553  0.1558  0.3379
23064SOL    HW170931   5.950   8.319   1.395  0.5185 -0.0570 -0.2631
23064SOL    HW270932   5.812   8.330   1.332 -0.5377  0.7577  2.0712
23065SOL     OW70933   4.611   1.666   2.883 -0.1951 -0.1884  0.1295
23065SOL    HW170934   4.564   1.594   2.924  2.7440 -3.6757 -2.0094
23065SOL    HW270935   4.656   1.710   2.956 -0.4102 -1.8914  1.3371
23066SOL     OW70936   2.464   8.200   6.092 -0.9409  0.0183 -0.6897
23066SOL    HW170937   2.517   8.274   6.060 -1.4201 -0.1592 -1.9455
23066SOL    HW270938   2.507   8.123   6.056 -1.0638 -0.2474 -0.2728
23067SOL     OW70939   3.705   0.955   0.498  0.5197 -0.1734  0.4951
23067SOL    HW170940   3.789   0.984   0.533 -0.0852  0.4590  1.4495
23067SOL    HW270941   3.698   0.863   0.526  1.0462 -0.3452  0.0910
23068SOL     OW70942   5.233   5.762   8.381 -0.4200 -0.5940  0.1593
23068SOL    HW170943   5.319   5.760   8.421  0.2327 -1.3917 -1.2309
23068SOL    HW270944   5.224   5.852   8.348 -0.6306 -0.1721  1.3130
23069SOL     OW70945   1.078   2.718   7.314  0.2283  0.2279 -0.1362
23069SOL    HW170946   1.147   2.655   7.334 -0.4672  0.1246  2.2279
23069SOL    HW270947   1.123   2.802   7.307  0.6796  0.1151  1.0923
23070SOL     OW70948   0.727   2.016   1.937 -0.3405  0.5968  0.1425
23070SOL    HW170949   0.813   2.054   1.954  0.3756 -1.9895  3.3625
23070SOL    HW270950   0.737   1.924   1.959 -3.8235  0.0930  0.1561
23071SOL     OW70951   9.198   2.951   5.275 -0.1777 -0.0360  0.3945
23071SOL    HW170952   9.149   3.015   5.222 -1.7085 -2.4066 -1.2619
23071SOL    HW270953   9.288   2.983   5.274 -0.7579  1.7415 -0.8984
23072SOL     OW70954   8.670   1.676   4.837  0.4194  0.0916  0.4473
23072SOL    HW170955   8.587   1.644   4.874  0.0414  0.1169 -0.3489
23072SOL    HW270956   8.665   1.771   4.846 -0.2215  0.1944 -0.7360
23073SOL     OW70957   5.802   8.116   5.486 -0.2985  0.0370  0.6556
23073SOL    HW170958   5.758   8.094   5.404  0.6161 -1.1750  0.4612
23073SOL    HW270959   5.756   8.194   5.518 -1.7120 -0.4103 -0.1907
23074SOL     OW70960   3.577   7.073   2.224 -0.4741  0.3929  0.6198
23074SOL    HW170961   3.564   6.993   2.276 -1.4550  0.7718  0.9776
23074SOL    HW270962   3.504   7.130   2.249 -0.4721  0.9282 -0.5441
23075SOL     OW70963   9.356   1.114   3.697 -0.3260 -0.1015  0.3859
23075SOL    HW170964   9.328   1.026   3.673  1.7585 -0.8577  0.4775
23075SOL    HW270965   9.414   1.140   3.626 -0.8642  1.1818  0.4024
23076SOL     OW70966   9.079   9.442   3.401 -0.0889  0.3696 -0.1378
23076SOL    HW170967   9.127   9.474   3.325  0.2780  2.6734  0.9534
23076SOL    HW270968   9.144   9.396   3.454  0.3871  1.3514  0.1604
23077SOL     OW70969   1.864   7.773   3.539  0.3220 -0.1352 -0.3071
23077SOL    HW170970   1.906   7.763   3.625  0.4891  0.9029 -0.2640
23077SOL    HW270971   1.936   7.787   3.478  0.1423  0.0363 -0.4816
23078SOL     OW70972   8.692   6.595   5.880  0.2790  0.0048  0.1358
23078SOL    HW170973   8.748   6.545   5.819 -0.3752 -1.3859  0.6404
23078SOL    HW270974   8.610   6.606   5.832  0.5661  1.0013 -0.1404
23079SOL     OW70975   6.788   4.509   2.907 -0.5504 -0.5276  0.0694
23079SOL    HW170976   6.794   4.434   2.966 -1.0747 -0.6937 -0.0825
23079SOL    HW270977   6.821   4.476   2.823 -0.9399 -0.6332 -0.0404
23080SOL     OW70978   9.190   8.706   3.772  0.8522 -0.1967 -0.0949
23080SOL    HW170979   9.272   8.710   3.722  1.7417  2.0665  1.3962
23080SOL    HW270980   9.213   8.739   3.858 -1.5942  0.2082  0.4746
23081SOL     OW70981   1.641   2.361   7.488  0.6646  0.5066 -0.0700
23081SOL    HW170982   1.629   2.266   7.493  4.1676 -0.1203 -0.9490
23081SOL    HW270983   1.636   2.391   7.579  1.0494 -0.7565  0.3784
23082SOL     OW70984   6.261   8.735   2.773 -0.5325  0.6231 -0.2919
23082SOL    HW170985   6.355   8.715   2.771 -0.9707 -1.7401 -0.5773
23082SOL    HW270986   6.247   8.790   2.696  0.5604  0.6775 -0.4695
23083SOL     OW70987   6.709   9.568   8.806 -1.1698  0.3030  0.4773
23083SOL    HW170988   6.705   9.659   8.779 -1.5943  0.6868  1.8036
23083SOL    HW270989   6.627   9.530   8.774 -0.6476  0.1617 -0.7707
23084SOL     OW70990   8.321   7.454   0.152 -0.0567  0.8343  0.2156
23084SOL    HW170991   8.290   7.502   0.075 -1.0761  0.3797  0.3153
23084SOL    HW270992   8.410   7.486   0.166  0.4505  0.3730 -1.6155
23085SOL     OW70993   1.308   2.947   1.821  0.2019  0.0899  0.0440
23085SOL    HW170994   1.382   2.980   1.771  0.3942 -0.3741  0.0182
23085SOL    HW270995   1.346   2.915   1.903  0.0016  0.0756  0.1322
23086SOL     OW70996   7.264   4.524   0.289 -0.1097 -0.7658  0.3743
23086SOL    HW170997   7.320   4.491   0.219 -0.0873  1.4268 -0.7236
23086SOL    HW270998   7.322   4.581   0.340 -0.8501 -0.0615  0.4312
23087SOL     OW70999   6.674   2.202   3.681 -0.5082  0.5595 -0.8289
23087SOL    HW171000   6.719   2.259   3.743  1.1886 -0.4110 -1.0903
23087SOL    HW271001   6.724   2.210   3.600  0.3167 -1.8602 -0.6455
23088SOL     OW71002   7.784   8.251   4.255  0.1842  0.5615  0.3794
23088SOL    HW171003   7.837   8.273   4.331  0.3742  1.2919  0.0460
23088SOL    HW271004   7.743   8.333   4.229  0.7354  0.4971 -0.7725
23089SOL     OW71005   8.671   5.731   4.990 -0.4328  0.0500 -0.4295
23089SOL    HW171006   8.670   5.688   5.076  1.6259  2.3966  0.9074
23089SOL    HW271007   8.582   5.763   4.978 -1.2416 -1.9019 -0.1013
23090SOL     OW71008   9.604   8.292   0.115  0.0391  0.0369  0.1369
23090SOL    HW171009   9.563   8.378   0.130 -0.6910 -0.5598  1.8406
23090SOL    HW271010   9.530   8.232   0.107  0.5306 -0.8416  1.7731
23091SOL     OW71011   3.967   6.368   2.501  0.6008 -0.0986 -0.0757
23091SOL    HW171012   3.976   6.335   2.411 -0.0859  0.1177 -0.2309
23091SOL    HW271013   3.901   6.312   2.541 -0.5877  1.0367 -0.3469
23092SOL     OW71014   5.522   2.558   2.597 -0.3938 -0.8109  0.5030
23092SOL    HW171015   5.480   2.644   2.602  0.7835 -0.2515  1.2779
23092SOL    HW271016   5.605   2.575   2.551 -0.5055 -1.6856 -0.0431
23093SOL     OW71017   5.482   1.628   2.896 -0.3689  0.1193  0.2735
23093SOL    HW171018   5.505   1.700   2.836 -0.4492 -0.0733  0.0110
23093SOL    HW271019   5.425   1.572   2.845  0.0584 -0.3758  0.3344
23094SOL     OW71020   7.229   3.768   3.776  0.3327 -0.4153 -0.1685
23094SOL    HW171021   7.279   3.848   3.793 -0.0364 -0.8488  4.2128
23094SOL    HW271022   7.144   3.798   3.745  0.5708  0.8098  0.3119
23095SOL     OW71023   3.162   7.025   5.494  0.2848  0.6826 -0.5205
23095SOL    HW171024   3.144   7.055   5.583 -1.1175 -1.0390 -0.1685
23095SOL    HW271025   3.083   7.048   5.445  1.4920  2.6700 -1.6731
23096SOL     OW71026   0.333   4.568   7.978 -0.4746 -0.1097 -0.9423
23096SOL    HW171027   0.335   4.647   7.924 -1.2954  0.7684  0.2624
23096SOL    HW271028   0.248   4.528   7.959 -1.2163  0.7519  0.4054
23097SOL     OW71029   5.900   0.618   5.688 -0.0492 -0.6611 -0.2284
23097SOL    HW171030   5.839   0.602   5.759 -1.1681  0.0775 -0.9802
23097SOL    HW271031   5.968   0.674   5.726 -0.3283 -0.7500  0.4060
23098SOL     OW71032   6.395   9.077   9.055  0.3706 -0.8695  0.4918
23098SOL    HW171033   6.363   9.081   9.145  2.5339 -0.3353  1.3196
23098SOL    HW271034   6.429   9.165   9.037  1.5770 -1.4414 -0.1716
23099SOL     OW71035   9.327   2.226   7.612  0.3405 -0.1303 -0.1161
23099SOL    HW171036   9.418   2.199   7.619  0.4914  0.1152 -1.0351
23099SOL    HW271037   9.281   2.173   7.677  0.9255 -1.2269 -0.5761
23100SOL     OW71038   8.754   2.174   6.468 -0.3813  0.1145  0.1388
23100SOL    HW171039   8.795   2.098   6.510 -0.3554  0.9072  1.6277
23100SOL    HW271040   8.669   2.143   6.438  1.0534 -1.4708 -2.6717
23101SOL     OW71041   4.090   4.481   9.422 -0.0818 -0.4295 -0.3186
23101SOL    HW171042   4.090   4.386   9.422 -0.3284 -0.4404 -1.1055
23101SOL    HW271043   4.112   4.505   9.332 -2.3981  0.2206 -0.7889
23102SOL     OW71044   0.555   1.899   3.832  0.2464 -0.0894  0.7435
23102SOL    HW171045   0.636   1.856   3.805  0.6057  1.0116 -0.0026
23102SOL    HW271046   0.494   1.884   3.759 -0.3758 -1.2321  1.4583
23103SOL     OW71047   1.089   8.580   8.504  0.3637 -0.0020  0.3125
23103SOL    HW171048   1.116   8.664   8.466  0.4166 -0.2609 -0.2419
23103SOL    HW271049   1.001   8.565   8.469 -0.2072  0.4705  1.5056
23104SOL     OW71050   8.093   0.111   3.785  0.0047 -0.0460  0.5902
23104SOL    HW171051   8.123   0.040   3.728 -0.5174 -1.0165  1.4851
23104SOL    HW271052   8.042   0.067   3.853 -0.3084  1.1945  1.1847
23105SOL     OW71053   4.446   2.301   5.127  0.1876  0.5098 -0.7273
23105SOL    HW171054   4.429   2.307   5.033  2.4617  5.1553 -1.1427
23105SOL    HW271055   4.527   2.251   5.135 -1.5178 -2.4825 -0.7805
23106SOL     OW71056   8.420   7.710   2.463  0.7681 -0.6128  0.2469
23106SOL    HW171057   8.512   7.707   2.439  1.0524  1.1860  0.9615
23106SOL    HW271058   8.373   7.706   2.379  1.6516  2.3304 -0.5065
23107SOL     OW71059   5.425   6.182   0.078  0.4964  0.4255  0.3433
23107SOL    HW171060   5.414   6.165  -0.016 -0.0324  1.8706  0.1076
23107SOL    HW271061   5.447   6.097   0.116 -2.9933 -1.0393 -0.5132
23108SOL     OW71062   1.647   4.057   1.017  0.2215 -0.1589 -0.4100
23108SOL    HW171063   1.560   4.098   1.016 -0.2211 -1.0657 -0.9745
23108SOL    HW271064   1.634   3.975   1.065  0.7344 -0.3659 -0.6189
23109SOL     OW71065   7.992   2.874   3.930 -0.1896 -0.2323  0.2682
23109SOL    HW171066   7.923   2.810   3.941  1.3341 -2.0077  0.0455
23109SOL    HW271067   7.961   2.932   3.860 -0.8631 -1.8631 -0.8345
23110SOL     OW71068   5.674   5.927   1.809 -0.2800  0.6234 -0.1042
23110SOL    HW171069   5.646   5.998   1.752 -0.4554 -0.6802 -1.7086
23110SOL    HW271070   5.770   5.926   1.802 -0.3427 -0.0177 -1.0155
23111SOL     OW71071   2.610   1.114   9.294  0.0548 -0.3787  0.1148
23111SOL    HW171072   2.667   1.040   9.272  0.2975 -1.0768  2.7073
23111SOL    HW271073   2.578   1.094   9.382  0.8011  2.9723  1.3249
23112SOL     OW71074   2.618   5.787   8.456 -0.2936  0.1947 -0.2057
23112SOL    HW171075   2.571   5.726   8.399 -1.4680 -0.2898  1.2151
23112SOL    HW271076   2.680   5.831   8.399  0.7459 -2.4696 -1.2867
23113SOL     OW71077   1.061   8.877   7.952 -0.2324 -0.0165  0.2198
23113SOL    HW171078   1.028   8.861   8.041  0.4979  1.2643  0.7595
23113SOL    HW271079   1.136   8.819   7.943 -0.6931 -0.6182  0.1884
23114SOL     OW71080   2.719   7.597   6.583 -0.0918 -0.3224 -0.0782
23114SOL    HW171081   2.805   7.629   6.558 -0.2615  0.7805  0.6971
23114SOL    HW271082   2.685   7.662   6.644 -1.2954 -0.9614 -0.0232
23115SOL     OW71083   3.264   3.252   3.884 -0.0716 -0.3411 -0.0178
23115SOL    HW171084   3.194   3.298   3.838  0.2176  0.9469  0.7578
23115SOL    HW271085   3.251   3.274   3.977 -0.3980 -2.5213  0.5094
23116SOL     OW71086   8.557   1.270   8.843 -0.4214  0.1725 -0.4924
23116SOL    HW171087   8.623   1.283   8.776  0.0080  0.8572  0.0493
23116SOL    HW271088   8.531   1.178   8.833  0.2599  0.0261 -1.0222
23117SOL     OW71089   2.099   2.629   9.467  0.1805  0.4138 -0.1951
23117SOL    HW171090   2.160   2.556   9.473  0.8502  1.0663  1.4632
23117SOL    HW271091   2.137   2.697   9.522 -1.2718  1.4061 -0.3555
23118SOL     OW71092   0.527   7.051   1.439  0.3281 -0.2871  0.6796
23118SOL    HW171093   0.597   7.059   1.375 -0.8141 -2.3296 -0.9746
23118SOL    HW271094   0.516   6.957   1.451 -1.5916 -0.0135  1.4925
23119SOL     OW71095   4.668   2.477   7.805  0.0540  0.1129  0.0385
23119SOL    HW171096   4.656   2.566   7.771  1.8780  0.2160 -0.4109
23119SOL    HW271097   4.607   2.424   7.754  1.6902  0.4965 -2.5071
23120SOL     OW71098   7.155   0.043   4.700 -0.0669 -0.2765 -0.7763
23120SOL    HW171099   7.123   0.133   4.695 -1.5230 -0.7409 -0.1853
23120SOL    HW271100   7.156   0.023   4.794  1.5796 -0.4354 -0.7986
23121SOL     OW71101   0.084   0.466   1.127 -0.2991 -0.2101 -0.1026
23121SOL    HW171102   0.009   0.525   1.141 -0.5498 -0.5100 -0.1622
23121SOL    HW271103   0.158   0.524   1.110 -0.3773  0.1150  0.6314
23122SOL     OW71104   6.028   8.307   9.384 -0.5205 -0.1102  0.0138
23122SOL    HW171105   5.948   8.326   9.433  0.2133 -1.3905  1.7920
23122SOL    HW271106   6.097   8.354   9.432 -0.1525  0.9068 -1.4467
23123SOL     OW71107   3.894   5.074   0.782 -0.8883 -0.5856 -0.1817
23123SOL    HW171108   3.852   5.145   0.734 -0.5376 -1.2004 -1.4442
23123SOL    HW271109   3.957   5.037   0.720  0.5301 -0.5854  1.2084
23124SOL     OW71110   0.580   3.017   5.080 -0.1664 -0.8405  0.5468
23124SOL    HW171111   0.659   2.977   5.115  0.6588 -0.4547 -0.7904
23124SOL    HW271112   0.542   2.951   5.023 -1.0213 -1.1460  1.4355
23125SOL     OW71113   0.848   3.567   0.743 -0.3382 -0.5234 -0.3380
23125SOL    HW171114   0.932   3.604   0.715 -1.0052  1.3158 -0.0612
23125SOL    HW271115   0.850   3.574   0.839 -0.6963 -0.7359 -0.3129
23126SOL     OW71116   6.451   6.660   1.225 -0.3293 -0.6695 -0.7113
23126SOL    HW171117   6.522   6.605   1.258  0.9222  0.8781 -0.7057
23126SOL    HW271118   6.488   6.704   1.149 -1.7361 -0.8031 -1.5085
23127SOL     OW71119   2.858   8.844   3.107  0.1461  0.6668 -0.1861
23127SOL    HW171120   2.930   8.780   3.109 -0.7080 -0.2999  0.6639
23127SOL    HW271121   2.873   8.898   3.185 -0.4149  0.0291  0.3759
23128SOL     OW71122   1.860   0.786   5.283 -0.3619  0.7543  0.3273
23128SOL    HW171123   1.806   0.714   5.316  1.5255 -0.8522  0.0957
23128SOL    HW271124   1.847   0.785   5.189  1.5803 -1.0118  0.0249
23129SOL     OW71125   3.963   2.374   2.815  0.5880  0.1464  0.2191
23129SOL    HW171126   4.052   2.344   2.795 -0.1275 -1.8228 -0.2151
23129SOL    HW271127   3.957   2.370   2.910  0.2699 -1.9601  0.1495
23130SOL     OW71128   2.091   7.821   6.867 -0.2452 -0.1444 -0.4629
23130SOL    HW171129   2.149   7.839   6.941 -0.8291  0.8638 -0.2378
23130SOL    HW271130   2.148   7.776   6.803  0.5081 -0.1325  0.1812
23131SOL     OW71131   7.045   7.588   8.520  0.0006  0.4330 -0.8164
23131SOL    HW171132   7.094   7.566   8.599 -1.3306 -2.2569 -0.6242
23131SOL    HW271133   7.104   7.563   8.448  0.6607  1.5741 -0.6986
23132SOL     OW71134   6.980   5.953   9.500 -0.1036  0.5607  0.3055
23132SOL    HW171135   6.904   6.000   9.468 -1.0138 -0.3114  1.1018
23132SOL    HW271136   7.039   6.021   9.532 -1.8389  1.1972  2.4146
23133SOL     OW71137   2.234   6.190   7.507  0.8547  0.2253 -0.2750
23133SOL    HW171138   2.314   6.239   7.491  0.9926  0.1136  0.0524
23133SOL    HW271139   2.235   6.172   7.601  2.5035 -3.2225 -0.7710
23134SOL     OW71140   6.158   7.123   0.351 -0.5001 -0.0850 -0.0801
23134SOL    HW171141   6.198   7.074   0.423 -0.0485  0.3409 -0.0341
23134SOL    HW271142   6.212   7.102   0.275  0.1059  0.8560  0.0780
23135SOL     OW71143   4.170   2.243   7.727  0.9103  0.2862  0.9040
23135SOL    HW171144   4.184   2.263   7.635 -0.7727  0.9858  0.7573
23135SOL    HW271145   4.198   2.322   7.774  0.3948  0.4954  0.8640
23136SOL     OW71146   5.023   2.128   3.034  0.0691 -0.2503 -1.0645
23136SOL    HW171147   5.032   2.109   2.940  2.4084 -0.8418 -0.7910
23136SOL    HW271148   5.059   2.216   3.043  2.4833 -1.2370 -0.3959
23137SOL     OW71149   5.179   4.977   0.714 -0.1163 -0.3108 -0.2946
23137SOL    HW171150   5.200   5.064   0.746  1.0932 -0.6284 -0.1531
23137SOL    HW271151   5.173   4.986   0.619 -1.0342  0.1115 -0.2089
23138SOL     OW71152   7.572   2.236   5.451  0.0194 -0.2509  0.0490
23138SOL    HW171153   7.620   2.287   5.516  0.4456  0.1773 -0.5887
23138SOL    HW271154   7.575   2.289   5.372 -1.2801 -0.3373 -0.0857
23139SOL     OW71155   5.539   6.224   3.956 -0.3991  0.2058  0.1058
23139SOL    HW171156   5.486   6.240   3.878 -0.2362  1.4042  0.2177
23139SOL    HW271157   5.481   6.246   4.029  0.1839  1.4168  0.2322
23140SOL     OW71158   1.126   7.011   5.369 -0.3577  0.5169 -0.2359
23140SOL    HW171159   1.162   6.945   5.430 -1.1961 -0.0009 -0.2951
23140SOL    HW271160   1.177   7.091   5.389  0.5650 -0.0929 -0.0582
23141SOL     OW71161   0.951   0.280   8.567 -0.0769  0.3973 -0.0290
23141SOL    HW171162   0.958   0.364   8.522 -0.4311  0.7853  0.6203
23141SOL    HW271163   0.876   0.237   8.525  2.8373 -1.7460 -3.7304
23142SOL     OW71164   6.074   3.449   2.999  0.2218 -0.1927  0.2353
23142SOL    HW171165   6.021   3.452   3.079 -0.0362 -1.6256  0.1540
23142SOL    HW271166   6.014   3.474   2.929  0.3209  0.5978  0.4279
23143SOL     OW71167   8.540   0.492   0.966  0.1549 -0.1767 -0.9763
23143SOL    HW171168   8.629   0.524   0.980  0.3439 -1.1112  0.1118
23143SOL    HW271169   8.484   0.565   0.992  0.5674 -0.7691  1.8681
23144SOL     OW71170   1.308   5.491   5.259 -0.1976  0.0654  0.3052
23144SOL    HW171171   1.300   5.431   5.333  0.9117 -1.1289 -0.4931
23144SOL    HW271172   1.297   5.578   5.298 -1.9327 -0.6210  1.4785
23145SOL     OW71173   8.145   1.380   0.694 -0.0274  0.0618 -0.4249
23145SOL    HW171174   8.116   1.466   0.723 -1.0664  0.1492 -1.6776
23145SOL    HW271175   8.098   1.318   0.751  0.1556  0.2853 -0.0231
23146SOL     OW71176   8.924   7.724   9.156 -0.1884 -0.0005  0.5681
23146SOL    HW171177   8.885   7.667   9.090 -2.0349 -0.4613  1.9627
23146SOL    HW271178   8.952   7.802   9.107 -0.2691 -0.8807 -0.9371
23147SOL     OW71179   7.270   6.623   2.592 -0.2927 -0.1606  0.2066
23147SOL    HW171180   7.251   6.685   2.521 -0.4645 -1.4132 -0.8817
23147SOL    HW271181   7.221   6.657   2.667 -1.9477 -0.0075 -0.8858
23148SOL     OW71182   0.720   3.534   5.029 -0.1808 -0.1354 -0.1185
23148SOL    HW171183   0.714   3.447   5.068  1.8936 -0.9047 -1.3628
23148SOL    HW271184   0.679   3.592   5.094 -1.9616 -2.0338  0.5754
23149SOL     OW71185   3.471   3.349   6.963 -0.5695  0.0981  0.0425
23149SOL    HW171186   3.545   3.315   6.913  0.1591  1.9491 -0.2124
23149SOL    HW271187   3.394   3.304   6.927  0.4389 -2.6083  0.9779
23150SOL     OW71188   3.750   0.233   0.092  0.4215  0.1368 -0.2721
23150SOL    HW171189   3.831   0.183   0.082  0.3487 -0.8682  3.0289
23150SOL    HW271190   3.684   0.168   0.115 -1.4778  0.9270 -2.9723
23151SOL     OW71191   5.629   3.061   7.578  0.0843 -0.9857 -0.3040
23151SOL    HW171192   5.606   3.108   7.658 -0.0361  0.1625 -0.9796
23151SOL    HW271193   5.573   3.100   7.511  0.7177 -1.3894 -1.0828
23152SOL     OW71194   8.363   6.701   6.081 -0.0631  0.3639  0.1815
23152SOL    HW171195   8.273   6.727   6.061 -0.3782 -0.1858  0.8638
23152SOL    HW271196   8.367   6.697   6.176  0.1871 -1.3056  0.1278
23153SOL     OW71197   8.042   0.295   8.655 -0.0597  0.1346  0.0062
23153SOL    HW171198   8.111   0.241   8.616 -0.4328  0.2852 -0.8632
23153SOL    HW271199   8.082   0.382   8.664  0.0418  0.0869  0.0297
23154SOL     OW71200   6.206   5.665   8.095  0.3656  0.4328 -0.6763
23154SOL    HW171201   6.112   5.679   8.106  0.3601 -0.2852  0.2982
23154SOL    HW271202   6.220   5.670   8.000 -1.0948 -1.9966 -1.0900
23155SOL     OW71203   3.703   0.705   0.180  0.3454 -0.4620 -0.3424
23155SOL    HW171204   3.699   0.645   0.106 -0.3542 -0.8912  0.0330
23155SOL    HW271205   3.698   0.649   0.257  1.1366 -0.0226  0.0373
23156SOL     OW71206   6.864   3.645   5.147 -0.0084  0.1508 -0.0198
23156SOL    HW171207   6.908   3.708   5.204 -0.0352  0.0302  0.1352
23156SOL    HW271208   6.847   3.694   5.066  4.1297 -0.9133 -1.7646
23157SOL     OW71209   2.783   0.779   5.461 -0.4123 -0.3873  0.5963
23157SOL    HW171210   2.838   0.821   5.395 -0.9060 -0.5783  0.0599
23157SOL    HW271211   2.808   0.822   5.543  1.0485 -0.9600  0.4807
23158SOL     OW71212   3.533   9.565   9.166  0.3296  0.6074 -0.3475
23158SOL    HW171213   3.443   9.570   9.133 -0.4595  0.4950  1.5856
23158SOL    HW271214   3.577   9.503   9.109 -0.9986  0.2369 -1.0150
23159SOL     OW71215   3.738   2.262   1.095 -0.5902 -0.1652 -0.0122
23159SOL    HW171216   3.695   2.329   1.149 -1.6213  0.0279 -1.0422
23159SOL    HW271217   3.700   2.180   1.125 -1.1414 -0.0599 -0.4095
23160SOL     OW71218   6.768   2.182   1.293  0.0568 -0.3988 -0.1710
23160SOL    HW171219   6.815   2.253   1.336  0.4918 -1.4627  1.1890
23160SOL    HW271220   6.837   2.122   1.264 -0.2915 -0.2054 -1.4682
23161SOL     OW71221   2.442   2.989   2.148 -0.7068  0.1278 -0.2138
23161SOL    HW171222   2.421   2.900   2.121 -1.3064  0.4465 -0.8433
23161SOL    HW271223   2.525   2.981   2.196 -0.4981 -0.7003 -0.6927
23162SOL     OW71224   4.270   6.252   2.854  0.4001  0.4033  0.2181
23162SOL    HW171225   4.224   6.190   2.911  1.9527 -0.8323  0.2082
23162SOL    HW271226   4.225   6.335   2.866 -1.9422 -0.7707  0.0441
23163SOL     OW71227   8.661   8.232   4.608  1.2631 -0.3584 -0.8621
23163SOL    HW171228   8.661   8.283   4.690  1.6464 -0.4219 -0.8197
23163SOL    HW271229   8.748   8.246   4.571  1.1907 -0.5635 -1.1149
23164SOL     OW71230   0.419   6.484   4.355  0.1106  0.0718  0.2953
23164SOL    HW171231   0.502   6.480   4.403 -1.5695  0.7274  3.5317
23164SOL    HW271232   0.405   6.395   4.325  2.3337  0.1128 -1.1185
23165SOL     OW71233   5.889   7.579   9.159 -0.1103  0.0607 -0.0308
23165SOL    HW171234   5.942   7.552   9.234  0.4893 -0.6172 -0.6877
23165SOL    HW271235   5.925   7.664   9.134 -0.0391  0.0932  0.1781
23166SOL     OW71236   1.529   0.394   5.217 -0.0175 -0.0106 -0.3649
23166SOL    HW171237   1.623   0.404   5.203 -0.0308  1.0559  0.1974
23166SOL    HW271238   1.493   0.373   5.131  0.9724 -2.6089 -0.2295
23167SOL     OW71239   0.233   1.179   9.114  0.3600 -0.7971 -0.2948
23167SOL    HW171240   0.294   1.230   9.059 -0.7760 -0.1412 -0.9839
23167SOL    HW271241   0.146   1.203   9.082 -0.2417 -3.0720 -0.5398
23168SOL     OW71242   2.927   1.542   6.313  0.5853 -0.1059  0.1459
23168SOL    HW171243   2.956   1.620   6.265  4.2277 -0.8247  0.8486
23168SOL    HW271244   2.832   1.550   6.318  0.7198  3.7996 -0.5959
23169SOL     OW71245   6.722   4.249   8.704 -0.1820  0.5037  0.6908
23169SOL    HW171246   6.683   4.185   8.645 -0.7881  1.5755 -0.1103
23169SOL    HW271247   6.706   4.215   8.792  0.1491 -0.7850  0.2634
23170SOL     OW71248   7.085   8.109   0.539  0.4471 -0.5061 -0.0959
23170SOL    HW171249   7.169   8.131   0.500  1.4325 -1.3897  1.4300
23170SOL    HW271250   7.071   8.017   0.517  0.7078 -0.8317  1.0678
23171SOL     OW71251   0.807   4.444   8.766  0.1105 -0.5976  0.3143
23171SOL    HW171252   0.807   4.351   8.791 -0.2618 -0.6249  0.2194
23171SOL    HW271253   0.802   4.491   8.849 -2.1786 -0.6985  0.3092
23172SOL     OW71254   8.732   9.058   7.422  0.1400 -0.4646 -0.0491
23172SOL    HW171255   8.781   9.133   7.388  1.0021 -1.0276 -0.0873
23172SOL    HW271256   8.780   9.031   7.500  1.2409 -2.4029 -1.3091
23173SOL     OW71257   4.642   1.843   6.372 -0.0645  0.1353  0.4004
23173SOL    HW171258   4.592   1.824   6.451 -0.4871  0.6337  0.2580
23173SOL    HW271259   4.690   1.763   6.354  0.5154  0.2153  1.5114
23174SOL     OW71260   5.029   7.515   7.394  0.2291  0.2719  0.1997
23174SOL    HW171261   5.051   7.514   7.487  1.5405 -3.1200 -0.0170
23174SOL    HW271262   4.935   7.497   7.391 -0.0079  1.2895  0.8328
23175SOL     OW71263   4.652   8.638   8.119 -0.3206 -0.1542  0.2814
23175SOL    HW171264   4.668   8.706   8.054 -0.1458 -0.2503  0.2230
23175SOL    HW271265   4.733   8.633   8.170  0.1521 -1.1870 -0.5160
23176SOL     OW71266   3.017   8.475   5.295  0.9700 -0.2574  0.4770
23176SOL    HW171267   3.083   8.448   5.359  1.6741 -0.6021 -0.3720
23176SOL    HW271268   3.062   8.469   5.211 -0.2981 -0.9755 -0.1692
23177SOL     OW71269   6.177   0.337   6.184 -0.5194  0.4769  0.3006
23177SOL    HW171270   6.111   0.278   6.219 -0.2514 -0.8110 -1.2650
23177SOL    HW271271   6.258   0.286   6.185  0.1627  1.5241  0.7731
23178SOL     OW71272   4.730   1.933   0.421  0.0988 -0.1718  0.3825
23178SOL    HW171273   4.773   1.870   0.362 -2.8177 -1.1059 -0.9360
23178SOL    HW271274   4.638   1.928   0.397 -1.1070  0.3433  4.2674
23179SOL     OW71275   8.118   8.827   2.189 -0.0078  0.6089  0.1923
23179SOL    HW171276   8.056   8.775   2.138  0.5758 -0.3378  0.4298
23179SOL    HW271277   8.070   8.847   2.270 -1.0398  2.3592 -0.7939
23180SOL     OW71278   7.289   6.680   2.136 -0.0811 -0.1592  0.2801
23180SOL    HW171279   7.354   6.686   2.066 -1.4460  1.4232 -0.9549
23180SOL    HW271280   7.288   6.767   2.176 -1.6466 -0.0092  0.0108
23181SOL     OW71281   5.030   5.363   1.739 -0.3614  0.0590  0.4160
23181SOL    HW171282   4.974   5.413   1.681 -0.6438 -0.3982  0.2874
23181SOL    HW271283   5.012   5.271   1.717  0.7807 -0.0902  0.0397
23182SOL     OW71284   0.711   2.971   1.583 -0.0773  0.3196 -0.5776
23182SOL    HW171285   0.800   2.939   1.571 -0.0184 -0.5947  1.6660
23182SOL    HW271286   0.655   2.899   1.555  0.0486 -2.7543  5.3427
23183SOL     OW71287   2.410   7.849   2.440  0.2198 -0.8067  0.6932
23183SOL    HW171288   2.355   7.912   2.489 -1.1015 -0.2966 -1.3273
23183SOL    HW271289   2.499   7.869   2.469 -0.3732  0.3900  1.8673
23184SOL     OW71290   3.094   1.627   8.824 -0.4313 -0.2413 -0.4309
23184SOL    HW171291   3.138   1.694   8.771 -2.1971  1.0852 -0.3222
23184SOL    HW271292   3.096   1.662   8.913 -2.3645  0.2832 -0.5495
23185SOL     OW71293   3.191   0.071   0.387  0.1387 -0.0890 -0.4245
23185SOL    HW171294   3.222   0.074   0.478 -1.1734 -1.3900  0.1094
23185SOL    HW271295   3.212   0.157   0.352  1.0885  0.2840  0.9773
23186SOL     OW71296   6.149   5.543   2.036  0.0263 -0.0261 -0.0033
23186SOL    HW171297   6.133   5.490   1.958 -0.9253  1.8506 -1.1619
23186SOL    HW271298   6.146   5.633   2.004  0.6409  0.7580  2.0450
23187SOL     OW71299   8.077   6.739   3.924  0.0298 -0.1099 -0.9613
23187SOL    HW171300   8.045   6.806   3.984 -1.1284 -0.6239 -0.9901
23187SOL    HW271301   8.090   6.661   3.978  1.5910  0.1748 -0.8862
23188SOL     OW71302   3.577   3.872   3.323 -0.3931 -0.2391  0.0989
23188SOL    HW171303   3.517   3.943   3.347 -0.7093 -0.5613  0.2771
23188SOL    HW271304   3.643   3.872   3.392  0.2673  0.6331 -0.5213
23189SOL     OW71305   0.912   0.433   5.240 -0.6765 -0.9779  0.2929
23189SOL    HW171306   0.926   0.447   5.333 -0.6305 -0.5648  0.2242
23189SOL    HW271307   0.972   0.362   5.217  1.4767  0.8091 -0.0279
23190SOL     OW71308   5.582   0.384   5.855  0.0066  0.0503  0.6049
23190SOL    HW171309   5.625   0.302   5.831  0.7477  1.0433 -1.7184
23190SOL    HW271310   5.652   0.438   5.891  0.0383  0.4898 -0.0946
23191SOL     OW71311   1.810   6.925   6.011 -0.5122 -0.1807  0.3885
23191SOL    HW171312   1.830   6.862   6.080 -1.5172  0.2377  1.0917
23191SOL    HW271313   1.784   7.005   6.058 -1.5656 -0.0044 -0.4584
23192SOL     OW71314   6.350   6.381   3.374  0.3370 -0.1178 -0.4774
23192SOL    HW171315   6.393   6.295   3.383 -1.3806 -0.9639  0.0527
23192SOL    HW271316   6.296   6.388   3.452 -1.8828  0.0746 -1.9564
23193SOL     OW71317   6.949   0.256   3.760 -0.0853  0.5187  0.0727
23193SOL    HW171318   7.036   0.273   3.795  0.3851  0.0619 -0.8222
23193SOL    HW271319   6.917   0.180   3.810  0.5238 -0.0464 -0.3717
23194SOL     OW71320   6.770   4.231   7.018  0.0007  0.1532  0.2890
23194SOL    HW171321   6.783   4.326   7.006  0.3586  0.0167 -0.4523
23194SOL    HW271322   6.854   4.200   7.052 -0.5359  0.2980  1.8278
23195SOL     OW71323   6.034   3.471   2.077 -0.0099  1.1710 -0.2281
23195SOL    HW171324   6.088   3.486   2.155 -0.5790  0.8496  0.2412
23195SOL    HW271325   6.096   3.465   2.005  0.5825  0.8200  0.3016
23196SOL     OW71326   2.526   5.601   6.593  0.7450 -0.1108 -0.3496
23196SOL    HW171327   2.524   5.593   6.497 -0.1486  1.4735 -0.4914
23196SOL    HW271328   2.457   5.664   6.613 -0.2582 -1.6962  1.5071
23197SOL     OW71329   9.069   9.544   8.721  0.0093 -0.1916  0.2320
23197SOL    HW171330   9.078   9.622   8.666 -1.3942  2.6416  3.6325
23197SOL    HW271331   8.983   9.509   8.699  0.3742 -0.4468 -0.8569
23198SOL     OW71332   5.699   5.986   6.422  0.1835 -0.1962  0.5635
23198SOL    HW171333   5.767   6.045   6.453  0.7004 -1.2450  1.4750
23198SOL    HW271334   5.745   5.917   6.375 -0.3917 -0.0369 -0.2639
23199SOL     OW71335   7.023   8.666   8.226  0.1745  0.1716 -0.1477
23199SOL    HW171336   7.046   8.753   8.259 -1.7022  1.0749 -1.0767
23199SOL    HW271337   6.943   8.643   8.272  0.5681 -1.0329 -0.0191
23200SOL     OW71338   6.938   1.346   9.450  0.1931  0.1657  0.4343
23200SOL    HW171339   6.952   1.265   9.498  3.4351  1.6210  2.3308
23200SOL    HW271340   6.848   1.372   9.473 -0.6749 -2.4617  0.3061
23201SOL     OW71341   4.961   3.367   4.537 -0.3678  0.2532  0.7257
23201SOL    HW171342   5.029   3.360   4.470  0.2332  0.8177  1.2563
23201SOL    HW271343   4.899   3.431   4.502 -0.8236 -0.5398  0.0759
23202SOL     OW71344   6.309   5.457   7.506 -0.0443 -0.1093  0.0557
23202SOL    HW171345   6.341   5.501   7.427  1.5167  0.6955  1.0839
23202SOL    HW271346   6.377   5.473   7.572 -1.6298 -0.1148  1.7921
23203SOL     OW71347   6.637   2.146   8.199 -0.2016  0.0223 -0.0670
23203SOL    HW171348   6.638   2.161   8.105 -0.1597  0.9479  0.0727
23203SOL    HW271349   6.549   2.172   8.227 -0.2564 -0.3657  0.1378
23204SOL     OW71350   7.560   4.714   7.903  0.0489  0.8212 -0.2617
23204SOL    HW171351   7.522   4.692   7.987 -0.0951  1.2676 -0.2063
23204SOL    HW271352   7.488   4.752   7.853 -0.1920 -0.5889 -1.0454
23205SOL     OW71353   6.662   4.735   1.447 -0.0594 -0.1488 -0.1437
23205SOL    HW171354   6.648   4.732   1.542  0.9281 -1.2077 -0.0184
23205SOL    HW271355   6.616   4.815   1.419  0.1914  0.5441  1.3127
23206SOL     OW71356   3.755   3.574   5.257  0.2231  0.1454 -0.0712
23206SOL    HW171357   3.815   3.633   5.302  0.0764 -0.2080  0.5913
23206SOL    HW271358   3.682   3.630   5.230  0.7706  0.5463 -0.7466
23207SOL     OW71359   9.028   4.197   4.792 -0.4348 -0.1567  0.9116
23207SOL    HW171360   9.068   4.280   4.819  0.4693 -0.2156 -0.1631
23207SOL    HW271361   9.027   4.201   4.697 -0.5848 -1.2883  0.8555
23208SOL     OW71362   3.027   2.955   3.030 -0.5946  0.8048 -0.0294
23208SOL    HW171363   3.006   2.964   2.937 -0.2683  1.5187 -0.0378
23208SOL    HW271364   3.097   3.018   3.045  0.4003 -0.3377  0.3722
23209SOL     OW71365   5.137   9.185   0.578  0.3249  0.9183 -0.2945
23209SOL    HW171366   5.095   9.269   0.557  1.8370  1.5595 -0.9334
23209SOL    HW271367   5.203   9.207   0.644  0.0918  0.0578  0.2284
23210SOL     OW71368   4.990   8.025   4.391  0.1882  0.1462  0.5269
23210SOL    HW171369   5.073   8.068   4.413 -0.3793  0.9448  1.1882
23210SOL    HW271370   4.985   8.031   4.296  0.5087  0.8238  0.5439
23211SOL     OW71371   4.746   7.759   4.999 -0.4826  0.0103  0.4935
23211SOL    HW171372   4.756   7.854   4.998  1.7216 -0.1512 -0.6165
23211SOL    HW271373   4.836   7.726   5.010 -0.9997 -1.9357 -0.5893
23212SOL     OW71374   1.844   8.867   3.159  0.8024 -0.3241  0.1104
23212SOL    HW171375   1.832   8.919   3.239 -2.6692 -1.7694  0.7270
23212SOL    HW271376   1.841   8.930   3.088  0.3058  0.6937  1.0043
23213SOL     OW71377   5.501   4.067   3.217 -0.2391  0.3384 -0.1204
23213SOL    HW171378   5.418   4.092   3.177  0.3027  0.0575 -1.5121
23213SOL    HW271379   5.496   3.971   3.223 -0.6594  0.4262  1.3547
23214SOL     OW71380   5.868   0.587   0.170 -0.6942 -0.1298  0.5229
23214SOL    HW171381   5.794   0.641   0.197 -1.3837  0.3425 -2.0277
23214SOL    HW271382   5.890   0.619   0.082  2.2398 -0.5841  0.9875
23215SOL     OW71383   3.552   8.771   2.086  0.6146  0.0010 -0.3036
23215SOL    HW171384   3.568   8.707   2.017 -1.9634 -2.0153  0.7828
23215SOL    HW271385   3.490   8.833   2.047  2.2609  1.2673 -1.0028
23216SOL     OW71386   7.498   6.439   8.271 -0.2829 -0.2719  0.0927
23216SOL    HW171387   7.410   6.477   8.278 -0.2531  0.1110 -1.4626
23216SOL    HW271388   7.492   6.358   8.322 -1.8076 -0.7039 -0.7041
23217SOL     OW71389   3.563   7.229   8.863  0.0020  0.2206 -0.2169
23217SOL    HW171390   3.531   7.312   8.829 -0.2515  0.2000 -0.0314
23217SOL    HW271391   3.627   7.200   8.798 -0.7384  0.0035 -0.8697
23218SOL     OW71392   8.167   3.098   9.540 -0.7519 -0.2300 -0.5124
23218SOL    HW171393   8.219   3.158   9.593 -1.5380 -0.8085  0.9940
23218SOL    HW271394   8.228   3.028   9.516 -0.8873 -1.1677  1.6626
23219SOL     OW71395   9.503   0.000   0.598 -0.2263 -0.8061 -0.9744
23219SOL    HW171396   9.445  -0.053   0.653  0.4902  0.3999  1.0523
23219SOL    HW271397   9.488   0.090   0.628  2.1717 -0.3977 -0.8350
23220SOL     OW71398   9.006   6.886   2.742 -0.2819 -0.2540  0.1889
23220SOL    HW171399   9.047   6.877   2.828  0.1644 -0.9366 -0.0830
23220SOL    HW271400   8.925   6.935   2.758  1.2363  2.3340  0.5533
23221SOL     OW71401   5.462   2.348   0.905  0.3410  0.2298  0.0068
23221SOL    HW171402   5.424   2.398   0.977  0.1397  0.6262 -0.3687
23221SOL    HW271403   5.386   2.308   0.861  0.4761 -0.1567  0.1193
23222SOL     OW71404   5.985   7.709   1.526 -0.2963  0.2939 -0.1066
23222SOL    HW171405   5.977   7.795   1.484 -1.3022  0.2126 -0.1219
23222SOL    HW271406   5.940   7.649   1.467 -1.0605  0.0478  0.6976
23223SOL     OW71407   2.613   0.487   8.494  0.4296  0.0976  0.1230
23223SOL    HW171408   2.582   0.485   8.403  0.5414  0.4345  0.0790
23223SOL    HW271409   2.539   0.522   8.543  0.4719  0.1816  0.1251
23224SOL     OW71410   5.569   2.733   3.235 -0.2139  0.5479 -0.0106
23224SOL    HW171411   5.618   2.653   3.213 -0.9383 -0.1526  0.8454
23224SOL    HW271412   5.537   2.765   3.151  0.3599  0.1209 -0.4029
23225SOL     OW71413   1.804   3.644   6.119 -0.4724  0.2653 -0.2676
23225SOL    HW171414   1.764   3.697   6.050  1.1545  0.0965 -1.3964
23225SOL    HW271415   1.866   3.703   6.161  0.2199 -0.2919 -0.4942
23226SOL     OW71416   1.281   5.113   3.191  0.0066  0.9040  0.3063
23226SOL    HW171417   1.249   5.122   3.281 -1.6907  0.4755 -0.2141
23226SOL    HW271418   1.376   5.103   3.200 -0.3054 -1.1818  2.2161
23227SOL     OW71419   7.285   8.455   3.927  0.3581  0.1407  0.1073
23227SOL    HW171420   7.276   8.361   3.945 -3.9482  0.4129  0.6119
23227SOL    HW271421   7.323   8.460   3.840  1.3774 -2.0125  0.3684
23228SOL     OW71422   9.031   4.918   1.426 -0.1952 -0.2000  0.1187
23228SOL    HW171423   8.977   4.942   1.501  1.3925 -1.7329  1.8736
23228SOL    HW271424   9.118   4.954   1.447  0.6373 -1.9158 -0.2173
23229SOL     OW71425   5.853   1.566   8.912 -0.0848 -1.0053  0.7766
23229SOL    HW171426   5.761   1.559   8.936 -0.9946 -2.4414 -2.5311
23229SOL    HW271427   5.872   1.485   8.865  2.2548  0.1252 -0.4201
23230SOL     OW71428   9.112   2.477   0.497 -0.6678  0.8278 -0.5133
23230SOL    HW171429   9.021   2.458   0.522 -1.0102  2.8293 -0.0662
23230SOL    HW271430   9.110   2.481   0.401 -1.0456  0.8030 -0.5077
23231SOL     OW71431   3.486   3.160   0.625  0.2535  0.2528  0.1955
23231SOL    HW171432   3.454   3.223   0.561  1.8292  0.0271 -0.8718
23231SOL    HW271433   3.443   3.078   0.602 -0.5269  0.5514  0.5490
23232SOL     OW71434   8.577   3.100   8.823 -0.2281  0.0775  0.4136
23232SOL    HW171435   8.615   3.023   8.780  0.3685  0.0337  1.0130
23232SOL    HW271436   8.566   3.163   8.752 -1.0763 -0.6859 -0.1557
23233SOL     OW71437   4.394   5.533   6.266  0.2334 -0.6406  0.4123
23233SOL    HW171438   4.302   5.507   6.271  0.1524 -0.2819  0.8360
23233SOL    HW271439   4.415   5.563   6.354  0.5065  0.0960  0.1033
23234SOL     OW71440   2.068   3.242   1.782 -0.0717  0.0342  0.5603
23234SOL    HW171441   2.100   3.245   1.692 -1.6908 -0.2406 -0.0610
23234SOL    HW271442   2.112   3.167   1.821 -0.0774 -0.4329 -0.3098
23235SOL     OW71443   2.770   2.744   0.930  0.6468  0.4671  0.8483
23235SOL    HW171444   2.802   2.788   1.009  2.9098  0.0185  0.2342
23235SOL    HW271445   2.730   2.813   0.878  2.0152  1.3762  0.9661
23236SOL     OW71446   2.869   9.004   3.331 -0.3148  0.7553  0.8933
23236SOL    HW171447   2.917   8.966   3.405 -0.6820 -1.0536  0.2342
23236SOL    HW271448   2.777   8.993   3.354 -0.4264  0.9027  0.5198
23237SOL     OW71449   7.525   0.930   5.338 -0.2868 -0.0865  0.2407
23237SOL    HW171450   7.545   0.851   5.388 -0.7039 -1.2038 -1.3034
23237SOL    HW271451   7.506   0.899   5.249 -0.9274  1.7008 -0.2943
23238SOL     OW71452   5.072   7.243   0.113  0.2469  0.3764 -0.2551
23238SOL    HW171453   5.013   7.283   0.049 -0.3052 -0.6385 -0.4020
23238SOL    HW271454   5.110   7.168   0.067  0.5756  0.1959  0.3009
23239SOL     OW71455   2.349   2.422   8.842  0.6040  0.6038  0.5235
23239SOL    HW171456   2.259   2.452   8.832  0.4754  0.3574  0.8925
23239SOL    HW271457   2.391   2.444   8.759 -0.1559 -0.4988 -0.2012
23240SOL     OW71458   6.263   4.122   9.130 -0.6283 -0.5430  0.1636
23240SOL    HW171459   6.330   4.160   9.072  0.8865  0.2979  2.3304
23240SOL    HW271460   6.198   4.192   9.140 -1.5697 -1.1356 -1.4419
23241SOL     OW71461   1.183   2.723   0.727 -0.5783  0.7153  0.3264
23241SOL    HW171462   1.190   2.659   0.656  0.6844  0.9028  0.2556
23241SOL    HW271463   1.117   2.686   0.785 -1.2098  0.2689 -0.6443
23242SOL     OW71464   7.126   7.250   9.587  0.0201 -0.0817  0.0601
23242SOL    HW171465   7.150   7.281   9.500 -0.0543 -2.5185 -0.9019
23242SOL    HW271466   7.179   7.172   9.601  0.1651  0.3505  2.3049
23243SOL     OW71467   4.282   1.733   0.855  0.2172 -0.0967  0.1671
23243SOL    HW171468   4.265   1.643   0.827 -1.1910 -0.4295  1.9356
23243SOL    HW271469   4.378   1.740   0.856  0.3540 -1.0045 -1.5921
23244SOL     OW71470   1.242   7.425   7.093 -0.0414  0.4994  0.3033
23244SOL    HW171471   1.305   7.387   7.155 -0.5569  0.6828  0.9552
23244SOL    HW271472   1.198   7.349   7.054  1.0824  0.3427 -0.7115
23245SOL     OW71473   0.984   1.735   6.961 -0.8313  0.8563 -0.2239
23245SOL    HW171474   0.952   1.825   6.952 -2.0905  0.3495 -1.0053
23245SOL    HW271475   0.950   1.689   6.885 -1.1300 -0.5560  0.7244
23246SOL     OW71476   5.540   1.195   8.165 -0.0271  0.0219  0.1243
23246SOL    HW171477   5.461   1.141   8.158  1.0284 -1.5523 -0.3268
23246SOL    HW271478   5.534   1.255   8.090 -1.2975  0.6756  0.7137
23247SOL     OW71479   0.144   6.490   6.657 -0.3690 -0.0746 -0.0563
23247SOL    HW171480   0.160   6.462   6.567  0.1386  0.8616 -0.2641
23247SOL    HW271481   0.222   6.463   6.705  0.1075  0.9202 -0.2507
23248SOL     OW71482   3.896   7.500   7.430 -0.0072 -0.3491  0.2493
23248SOL    HW171483   3.890   7.595   7.431  0.8679 -0.2838  1.4783
23248SOL    HW271484   3.968   7.480   7.489  1.0306 -1.7031 -1.3649
23249SOL     OW71485   4.895   8.117   1.784 -0.0101 -0.2014  0.5072
23249SOL    HW171486   4.924   8.032   1.750  0.0063  0.9847 -2.8330
23249SOL    HW271487   4.975   8.157   1.819  0.8308 -0.1521 -1.3315
23250SOL     OW71488   0.545   9.546   4.064 -0.6050  0.1195  0.2857
23250SOL    HW171489   0.576   9.630   4.030 -0.2169  0.2392  0.9391
23250SOL    HW271490   0.495   9.569   4.142 -1.0536 -0.2028  0.0942
23251SOL     OW71491   1.259   8.815   2.047  0.0772 -0.0281 -0.0261
23251SOL    HW171492   1.305   8.749   2.099  0.6926 -1.5113 -2.3459
23251SOL    HW271493   1.171   8.781   2.037  0.6345 -1.0297 -1.9740
23252SOL     OW71494   9.007   2.084   6.201  0.1960 -0.0566  0.0714
23252SOL    HW171495   9.013   2.021   6.129  2.8537  1.0297 -0.8061
23252SOL    HW271496   9.066   2.050   6.268 -0.4002  0.1841  0.7340
23253SOL     OW71497   1.151   6.793   0.996 -0.1647  0.1029 -0.0214
23253SOL    HW171498   1.212   6.865   1.005 -0.6692  0.4876  0.3674
23253SOL    HW271499   1.182   6.727   1.059 -2.7111  2.1063  3.6873
23254SOL     OW71500   3.765   9.557   1.999  0.1925 -0.2742 -0.4048
23254SOL    HW171501   3.729   9.542   2.087  1.5263  0.4635  0.3056
23254SOL    HW271502   3.688   9.570   1.944 -0.6962 -1.2407  0.5467
23255SOL     OW71503   9.467   6.261   5.703 -0.3625  0.7381  0.5315
23255SOL    HW171504   9.515   6.181   5.725  1.1144  1.1905 -0.7866
23255SOL    HW271505   9.456   6.307   5.786  1.2210  0.4346  0.9372
23256SOL     OW71506   8.090   3.627   3.626 -0.0801  0.2751  0.1889
23256SOL    HW171507   8.121   3.554   3.572  3.4055  1.3392  0.5166
23256SOL    HW271508   8.101   3.597   3.716 -1.1205  0.2868  0.3236
23257SOL     OW71509   1.514   4.671   3.916 -0.0789  0.3368 -0.4766
23257SOL    HW171510   1.452   4.737   3.946  2.2148  1.8361  1.2999
23257SOL    HW271511   1.499   4.596   3.973 -2.2078 -0.5389 -2.0411
23258SOL     OW71512   7.176   1.345   1.081 -0.1350  0.6115  0.0644
23258SOL    HW171513   7.175   1.278   1.012  1.4012 -0.3436  0.9138
23258SOL    HW271514   7.196   1.426   1.035 -0.6904  0.2689 -0.8142
23259SOL     OW71515   6.300   3.243   4.709 -0.0289  0.1814 -0.0997
23259SOL    HW171516   6.283   3.316   4.648  1.3000 -0.4210 -1.2444
23259SOL    HW271517   6.215   3.201   4.719 -0.1454 -0.2605 -2.3327
23260SOL     OW71518   8.854   4.745   7.689  0.4046 -0.4689  0.0142
23260SOL    HW171519   8.882   4.655   7.707 -1.5399 -0.9432  0.9544
23260SOL    HW271520   8.852   4.751   7.593  0.8617 -1.3221 -0.0592
23261SOL     OW71521   3.457   8.648   2.357  0.0552 -0.4370  0.4053
23261SOL    HW171522   3.513   8.691   2.292  1.7818 -0.8480  1.5491
23261SOL    HW271523   3.422   8.720   2.410  1.1718 -0.2849  0.9534
23262SOL     OW71524   4.045   5.271   0.359 -0.5868  0.0302  0.2078
23262SOL    HW171525   4.099   5.260   0.281  0.3165 -0.4720  0.8897
23262SOL    HW271526   4.070   5.199   0.417 -1.4952  0.1900  0.8248
23263SOL     OW71527   6.122   3.033   5.950  0.0049 -0.2034 -0.2941
23263SOL    HW171528   6.135   2.982   6.030 -1.4873  0.7439  0.6213
23263SOL    HW271529   6.087   2.971   5.886  0.8633 -0.8967 -0.1052
23264SOL     OW71530   9.283   7.539   6.434  0.2832 -0.1455 -0.0344
23264SOL    HW171531   9.192   7.515   6.449 -0.1513  1.8425  0.8326
23264SOL    HW271532   9.333   7.480   6.491 -0.4849 -0.8866 -0.1065
23265SOL     OW71533   7.683   8.142   5.256 -0.0616  0.0919 -0.2666
23265SOL    HW171534   7.761   8.089   5.270  0.9652  1.6499  0.2649
23265SOL    HW271535   7.610   8.084   5.275  1.0080 -1.0276  0.5495
23266SOL     OW71536   8.488   6.028   1.728  0.0137 -0.1690  0.2704
23266SOL    HW171537   8.454   6.115   1.709 -0.0106 -0.6092 -1.9029
23266SOL    HW271538   8.413   5.970   1.713 -0.0237 -0.5808  1.8860
23267SOL     OW71539   6.650   1.363   8.393 -0.1679 -0.4543 -0.4093
23267SOL    HW171540   6.746   1.359   8.395 -0.1352 -0.5163 -1.3351
23267SOL    HW271541   6.623   1.281   8.352 -0.6440 -0.6372  0.2645
23268SOL     OW71542   3.869   0.248   6.273 -0.3686 -0.4480 -0.0873
23268SOL    HW171543   3.932   0.198   6.220 -0.4390 -2.3215  1.4915
23268SOL    HW271544   3.917   0.270   6.353 -0.7711  0.9188 -0.1861
23269SOL     OW71545   5.871   3.496   6.765  0.0133 -0.7244 -0.0722
23269SOL    HW171546   5.811   3.433   6.726  0.0083 -0.6648 -0.1590
23269SOL    HW271547   5.857   3.487   6.860 -1.3055  0.4464 -0.1291
23270SOL     OW71548   4.376   8.600   3.169 -0.6689 -0.2868  0.3279
23270SOL    HW171549   4.454   8.602   3.113 -0.3404 -0.8086  0.7565
23270SOL    HW271550   4.403   8.550   3.246 -1.1387  0.3663  0.9270
23271SOL     OW71551   5.110   5.986   9.145  0.7141  0.8937  0.0584
23271SOL    HW171552   5.145   5.984   9.234  1.1208  0.8937 -0.1017
23271SOL    HW271553   5.102   5.894   9.120 -0.5366  0.8493  0.5353
23272SOL     OW71554   6.172   1.672   1.412 -0.2116 -0.2987  0.6383
23272SOL    HW171555   6.158   1.615   1.336 -1.8088  0.6182  0.1853
23272SOL    HW271556   6.168   1.761   1.377  1.1087  0.1283  1.5034
23273SOL     OW71557   2.133   8.154   0.198 -0.7039 -0.0686  0.3917
23273SOL    HW171558   2.040   8.170   0.208 -0.6740  0.9580 -0.6916
23273SOL    HW271559   2.138   8.074   0.145 -0.9752 -0.0986  0.4118
23274SOL     OW71560   3.237   7.472   2.416  0.4597  0.2305 -0.4816
23274SOL    HW171561   3.291   7.503   2.343  1.5496 -0.7508 -0.1274
23274SOL    HW271562   3.232   7.546   2.476 -0.1939  0.9464 -1.3964
23275SOL     OW71563   9.059   5.581   0.919 -0.0078 -0.4043  0.5678
23275SOL    HW171564   9.145   5.548   0.895  1.4375  2.4149  1.5395
23275SOL    HW271565   9.013   5.591   0.836  1.7518  0.9602 -0.3029
23276SOL     OW71566   2.071   7.218   3.762  0.0039  0.2355  0.3356
23276SOL    HW171567   2.092   7.306   3.731 -0.9507  0.0297 -0.9621
23276SOL    HW271568   2.130   7.161   3.712 -0.0001  0.0637  0.5274
23277SOL     OW71569   3.035   9.105   8.953 -0.0471 -0.4592  0.4154
23277SOL    HW171570   2.961   9.060   8.912 -1.4902  0.5806  1.7604
23277SOL    HW271571   3.000   9.189   8.981  1.4391 -0.2517  1.8281
23278SOL     OW71572   7.679   6.786   5.279  0.1977 -0.0429  0.3597
23278SOL    HW171573   7.600   6.781   5.333 -0.6738 -0.1002 -0.8930
23278SOL    HW271574   7.731   6.855   5.320 -0.7603  0.3986  0.8781
23279SOL     OW71575   3.347   3.858   3.165  0.3069  0.4475  0.0250
23279SOL    HW171576   3.427   3.867   3.217  1.5429  1.9088 -2.0126
23279SOL    HW271577   3.370   3.795   3.097  0.0240  1.5172 -1.0839
23280SOL     OW71578   7.435   9.476   4.828 -0.3218 -0.9498 -0.5299
23280SOL    HW171579   7.492   9.413   4.872  0.1717 -0.8901 -1.0652
23280SOL    HW271580   7.493   9.549   4.806 -0.8245 -0.4493 -0.1940
23281SOL     OW71581   1.459   9.510   2.185  0.2566 -0.2226  0.5644
23281SOL    HW171582   1.539   9.489   2.137 -0.5197 -1.1958 -0.3791
23281SOL    HW271583   1.394   9.451   2.148 -1.6006  2.4183 -0.7039
23282SOL     OW71584   3.614   0.132   8.036  0.1484 -0.4799  0.3365
23282SOL    HW171585   3.548   0.195   8.063  1.0667  0.9536 -0.6183
23282SOL    HW271586   3.682   0.185   7.995 -0.3739 -2.2784 -3.2610
23283SOL     OW71587   0.366   8.272   4.475 -0.0276 -0.5204 -0.2803
23283SOL    HW171588   0.346   8.233   4.391 -1.2607  0.7254 -0.5989
23283SOL    HW271589   0.281   8.298   4.511  0.6098  0.4453  0.5959
23284SOL     OW71590   4.386   8.874   2.474 -0.8699  0.3270  0.0749
23284SOL    HW171591   4.440   8.953   2.480  1.6244 -1.2124 -0.8239
23284SOL    HW271592   4.409   8.824   2.552  0.3595 -1.1010 -1.1440
23285SOL     OW71593   7.503   6.076   3.496  0.4592 -0.2137 -0.6209
23285SOL    HW171594   7.557   6.155   3.497 -2.1431  1.7129  0.3975
23285SOL    HW271595   7.559   6.007   3.531  2.2385  1.6385  0.3462
23286SOL     OW71596   0.984   1.947   3.762 -0.0116  0.2791 -0.5052
23286SOL    HW171597   0.987   2.037   3.731  0.1638  0.7617  0.8244
23286SOL    HW271598   0.926   1.902   3.701 -1.6972  1.7611 -0.0650
23287SOL     OW71599   3.304   7.347   7.331  0.4396 -0.6647  0.1775
23287SOL    HW171600   3.325   7.436   7.305 -1.0759 -0.2903  0.1186
23287SOL    HW271601   3.250   7.313   7.259 -1.4626 -0.5757  1.4755
23288SOL     OW71602   4.386   7.978   4.745 -1.1502  0.4128 -0.2046
23288SOL    HW171603   4.447   8.005   4.676 -0.4243 -1.5423 -0.3875
23288SOL    HW271604   4.305   7.958   4.699 -0.1845 -2.5415 -0.8682
23289SOL     OW71605   2.125   3.666   2.449 -0.8016  0.0545 -0.2982
23289SOL    HW171606   2.206   3.670   2.499  0.6122 -3.5380 -1.9638
23289SOL    HW271607   2.126   3.745   2.395  0.7342  0.8689  0.8541
23290SOL     OW71608   1.552   3.835   8.436  0.5431 -0.1842 -0.0791
23290SOL    HW171609   1.569   3.771   8.505 -0.0798  1.7913  2.0493
23290SOL    HW271610   1.591   3.916   8.469  2.7088  0.3036 -3.3596
23291SOL     OW71611   3.345   6.480   4.581 -0.3416  0.0688  0.3862
23291SOL    HW171612   3.438   6.458   4.590  0.1725  1.7293 -0.4026
23291SOL    HW271613   3.304   6.399   4.550  1.4603  0.1356 -2.5213
23292SOL     OW71614   3.571   4.963   5.549  0.2948 -0.7747 -0.5969
23292SOL    HW171615   3.509   4.995   5.613 -1.0756 -0.9773 -1.7733
23292SOL    HW271616   3.626   5.038   5.528  0.1570 -0.4719  0.1243
23293SOL     OW71617   6.789   7.860   3.742  0.3170 -0.3692  0.1447
23293SOL    HW171618   6.762   7.826   3.656  1.2645 -1.1872  0.1558
23293SOL    HW271619   6.709   7.860   3.794 -0.3583  0.5121 -0.8387
23294SOL     OW71620   6.335   5.762   9.512 -0.1592 -0.7778  0.8217
23294SOL    HW171621   6.419   5.805   9.528 -0.8219  1.0777 -0.3373
23294SOL    HW271622   6.273   5.808   9.570 -0.7568 -0.6704  0.1125
23295SOL     OW71623   1.279   5.606   3.146  0.5175 -0.1625 -0.0489
23295SOL    HW171624   1.196   5.653   3.135 -0.3803 -1.3607  1.2373
23295SOL    HW271625   1.266   5.523   3.099  1.5936  0.2630 -1.1657
23296SOL     OW71626   9.175   2.476   7.584 -0.5271  0.2408 -0.1400
23296SOL    HW171627   9.211   2.388   7.600 -0.6210  0.1829 -0.2434
23296SOL    HW271628   9.087   2.473   7.622  0.3859  1.1030  2.1713
23297SOL     OW71629   2.282   6.289   0.418 -0.2763  0.1435  0.5093
23297SOL    HW171630   2.369   6.251   0.406 -0.4344 -0.2939  0.7257
23297SOL    HW271631   2.222   6.218   0.396 -0.5934  0.7875 -0.7664
23298SOL     OW71632   8.606   4.139   0.663  0.1544 -0.5977 -0.4199
23298SOL    HW171633   8.687   4.190   0.655  0.7340 -1.2061  1.2598
23298SOL    HW271634   8.582   4.147   0.755 -0.5781 -2.0882 -0.4587
23299SOL     OW71635   3.352   7.551   6.121  0.0557  0.2669  0.0252
23299SOL    HW171636   3.378   7.460   6.130 -0.7913  0.0145  0.0205
23299SOL    HW271637   3.433   7.598   6.105  0.5298 -0.4540  0.2716
23300SOL     OW71638   3.560   1.044   4.045  0.4098 -0.6017 -0.3157
23300SOL    HW171639   3.570   1.060   3.951 -0.4021 -1.1329 -0.5024
23300SOL    HW271640   3.480   1.091   4.069  1.0121  0.1672  0.2854
23301SOL     OW71641   5.079   2.829   4.689 -0.4669 -0.5239 -0.0656
23301SOL    HW171642   5.149   2.818   4.753 -2.1385 -1.3905  1.7226
23301SOL    HW271643   5.057   2.922   4.693  0.1754 -0.3597 -0.2291
23302SOL     OW71644   4.022   4.156   8.306  0.2386 -0.0393 -0.1267
23302SOL    HW171645   3.998   4.233   8.256  1.7574  0.1478 -0.6165
23302SOL    HW271646   4.061   4.096   8.242 -0.6522 -1.1109  0.2949
23303SOL     OW71647   6.735   5.155   6.543 -0.1366  0.1546 -0.2655
23303SOL    HW171648   6.645   5.144   6.515 -0.1912 -0.3123  0.0911
23303SOL    HW271649   6.737   5.122   6.633  1.0560 -2.7576 -1.2667
23304SOL     OW71650   2.465   2.064   3.823  0.5922 -0.3910 -0.0582
23304SOL    HW171651   2.478   2.045   3.916 -2.4730 -0.4222  0.4743
23304SOL    HW271652   2.469   1.978   3.780 -0.4417 -0.7147  0.4537
23305SOL     OW71653   5.205   0.099   0.118  0.1741  0.0875 -0.2337
23305SOL    HW171654   5.229   0.153   0.193  0.3057  0.9110 -0.8555
23305SOL    HW271655   5.273   0.032   0.113 -0.0871 -0.2519  0.6478
23306SOL     OW71656   7.119   2.990   6.053 -0.6088  0.0849  0.2604
23306SOL    HW171657   7.156   2.934   5.985  0.3407  0.8159  0.1574
23306SOL    HW271658   7.169   2.969   6.132 -0.4964  0.5146  0.3063
23307SOL     OW71659   1.254   3.564   6.187  0.0930 -0.1419 -0.4186
23307SOL    HW171660   1.198   3.499   6.231  0.7697  0.6207  1.6929
23307SOL    HW271661   1.251   3.641   6.244  1.3487  0.7808 -1.5403
23308SOL     OW71662   4.803   7.526   1.271  0.1460  0.3525  0.2877
23308SOL    HW171663   4.745   7.501   1.343 -0.0341 -4.2977 -1.1322
23308SOL    HW271664   4.884   7.477   1.288  0.9093  0.9328 -1.4920
23309SOL     OW71665   0.446   6.464   4.879  0.0906 -0.0363  0.1818
23309SOL    HW171666   0.470   6.418   4.798 -1.8983 -2.3992  0.7819
23309SOL    HW271667   0.529   6.483   4.922  1.0942 -0.9739 -1.2537
23310SOL     OW71668   0.601   6.303   8.244 -0.4637 -0.3121 -0.5077
23310SOL    HW171669   0.516   6.294   8.287 -0.3260  1.7904  0.3041
23310SOL    HW271670   0.643   6.376   8.289  0.6072  0.5617 -2.7771
23311SOL     OW71671   5.763   8.794   9.455 -0.1105 -0.5476  0.3049
23311SOL    HW171672   5.738   8.772   9.545 -0.0871 -1.4049  0.1068
23311SOL    HW271673   5.757   8.889   9.452 -1.1433 -0.5769  0.9133
23312SOL     OW71674   8.464   3.063   7.591 -0.3414 -0.7138 -0.9782
23312SOL    HW171675   8.482   3.156   7.602 -0.3184 -0.8187 -0.0959
23312SOL    HW271676   8.405   3.041   7.663 -0.7809 -1.2687 -1.4898
23313SOL     OW71677   8.959   1.610   0.965  0.0366 -0.4956  1.3459
23313SOL    HW171678   8.937   1.572   0.880  3.2916  0.3108 -0.0250
23313SOL    HW271679   8.950   1.705   0.952 -0.1671 -0.3942  2.1484
23314SOL     OW71680   3.189   6.300   0.483 -0.1528 -0.2112 -0.4566
23314SOL    HW171681   3.165   6.239   0.553  1.3684  0.1241  0.3924
23314SOL    HW271682   3.105   6.337   0.454 -0.7876  0.4892  1.9830
23315SOL     OW71683   6.727   0.880   1.530 -0.0836  0.0934 -0.3228
23315SOL    HW171684   6.762   0.791   1.528 -1.0081 -0.3246  0.6418
23315SOL    HW271685   6.803   0.937   1.540  0.5569 -0.5425 -1.3965
23316SOL     OW71686   9.430   4.988   3.281  0.5177 -0.1168 -0.4611
23316SOL    HW171687   9.435   5.029   3.194  0.1623  2.0843  0.4730
23316SOL    HW271688   9.337   4.970   3.294  0.6802 -1.3653 -0.8922
23317SOL     OW71689   4.336   1.531   9.478 -0.2789  0.1158  0.0688
23317SOL    HW171690   4.249   1.557   9.510 -0.5017 -0.3704 -0.1361
23317SOL    HW271691   4.369   1.610   9.435 -0.3520  0.4992  0.6943
23318SOL     OW71692   5.639   8.589   8.402 -0.1346  0.0093  0.1147
23318SOL    HW171693   5.654   8.529   8.475  3.9739  0.1884 -0.3461
23318SOL    HW271694   5.637   8.676   8.442 -0.3486 -0.0492  0.2333
23319SOL     OW71695   5.978   2.650   3.403  0.3738 -0.1953 -0.0325
23319SOL    HW171696   6.041   2.691   3.462 -1.9282  0.8721  1.8521
23319SOL    HW271697   5.927   2.724   3.368 -0.8541 -1.0914 -0.2087
23320SOL     OW71698   2.606   8.791   2.103 -0.3166  0.0014  0.2326
23320SOL    HW171699   2.623   8.800   2.010 -1.7344 -1.3034 -0.1927
23320SOL    HW271700   2.556   8.869   2.127 -0.1326  0.2331 -0.1394
23321SOL     OW71701   3.936   0.199   9.412  0.4565  0.1079 -0.1000
23321SOL    HW171702   3.869   0.132   9.401  2.7021 -2.2574 -0.6144
23321SOL    HW271703   3.957   0.198   9.505  0.1147  0.4961 -0.0185
23322SOL     OW71704   0.339   0.765   9.604 -0.3174  0.1306  0.0149
23322SOL    HW171705   0.332   0.860   9.609  1.6279  0.2410  1.5697
23322SOL    HW271706   0.341   0.736   9.695 -1.8242 -1.5345 -0.4248
23323SOL     OW71707   0.732   7.364   3.489 -0.2977  0.5941  0.0486
23323SOL    HW171708   0.660   7.418   3.457 -0.4408 -0.2268 -1.0651
23323SOL    HW271709   0.694   7.309   3.557 -0.7942  0.0158 -0.6799
23324SOL     OW71710   1.573   3.986   2.518  0.7284  0.0255 -0.3546
23324SOL    HW171711   1.531   3.900   2.525  0.1028 -0.0891 -3.8955
23324SOL    HW271712   1.503   4.044   2.491  1.8818  0.8599 -1.6506
23325SOL     OW71713   2.762   6.665   2.410  0.1310  0.3056  0.0876
23325SOL    HW171714   2.669   6.663   2.389  0.0904  2.1423 -0.0445
23325SOL    HW271715   2.770   6.615   2.491 -0.9782  0.1553  0.1097
23326SOL     OW71716   0.228   6.696   3.768  0.1689  0.4001  0.0775
23326SOL    HW171717   0.225   6.765   3.702 -1.0390  0.6826  0.3944
23326SOL    HW271718   0.315   6.658   3.759  0.4824  1.2714 -0.8108
23327SOL     OW71719   1.288   6.257   4.266  0.3882  0.1637  0.1762
23327SOL    HW171720   1.267   6.338   4.218  3.3500  0.0372 -1.5797
23327SOL    HW271721   1.277   6.187   4.201 -3.4098 -1.2235  1.9907
23328SOL     OW71722   3.856   4.823   3.514 -0.4344 -0.5632  0.7019
23328SOL    HW171723   3.779   4.872   3.543 -0.1850 -0.3182  0.9497
23328SOL    HW271724   3.844   4.736   3.553 -0.8790 -0.7041  0.2546
23329SOL     OW71725   5.183   6.172   3.090  0.0173  0.1351  0.0313
23329SOL    HW171726   5.133   6.145   3.168 -2.1191 -0.8134 -1.5548
23329SOL    HW271727   5.118   6.170   3.019  0.9882  4.4150 -1.2314
23330SOL     OW71728   1.839   8.364   2.678 -0.4077  0.3798 -0.1716
23330SOL    HW171729   1.764   8.422   2.690 -0.1260  0.7422 -0.1328
23330SOL    HW271730   1.875   8.388   2.592 -0.6425 -0.1474 -0.4204
23331SOL     OW71731   5.239   1.265   2.878 -0.0805 -0.1022  0.0148
23331SOL    HW171732   5.155   1.309   2.892  0.1519  0.3186  0.1040
23331SOL    HW271733   5.234   1.185   2.930 -0.2497  0.1455  0.3806
23332SOL     OW71734   5.046   0.756   7.134  0.5370  0.4998 -0.5627
23332SOL    HW171735   5.055   0.665   7.108  0.2008  0.3052  0.0030
23332SOL    HW271736   4.960   0.782   7.102  0.8045  0.7480 -1.0974
23333SOL     OW71737   5.736   4.772   7.659 -0.4468 -0.0117  0.0687
23333SOL    HW171738   5.676   4.805   7.592 -0.3546  0.6425  0.3065
23333SOL    HW271739   5.799   4.718   7.610  1.3308  2.6759 -0.8273
23334SOL     OW71740   0.578   7.174   0.624 -0.1704 -0.9298 -0.4146
23334SOL    HW171741   0.558   7.183   0.717 -0.9475  0.7413 -0.7034
23334SOL    HW271742   0.509   7.117   0.590 -0.6979 -0.4328 -0.1999
23335SOL     OW71743   5.293   4.417   2.992 -0.2087  0.3249  0.0121
23335SOL    HW171744   5.242   4.463   3.059 -1.0743  0.0352 -0.4345
23335SOL    HW271745   5.254   4.444   2.909  1.0453  0.9065 -0.4052
23336SOL     OW71746   2.313   8.369   1.389 -0.2646  0.1830 -0.1261
23336SOL    HW171747   2.236   8.384   1.334  0.0148  0.2416 -0.5153
23336SOL    HW271748   2.336   8.455   1.422 -0.3991  0.1571  0.0326
23337SOL     OW71749   2.793   4.558   6.077  0.3595 -0.0468 -0.2031
23337SOL    HW171750   2.742   4.531   6.001  0.4209 -1.7928  0.3233
23337SOL    HW271751   2.730   4.598   6.136  0.5729  2.9581 -1.7966
23338SOL     OW71752   3.588   3.630   2.558 -0.8014  0.0070 -0.3561
23338SOL    HW171753   3.542   3.635   2.473  0.1317 -0.2938 -0.8915
23338SOL    HW271754   3.650   3.559   2.547 -0.1703  0.4365  0.3511
23339SOL     OW71755   5.326   1.260   0.626  0.2490 -0.1150 -0.0510
23339SOL    HW171756   5.407   1.210   0.636  0.3501  0.2089  0.7689
23339SOL    HW271757   5.257   1.194   0.626  0.5121 -0.4159 -0.9883
23340SOL     OW71758   6.869   7.361   8.058 -0.4079 -0.5425  0.0240
23340SOL    HW171759   6.877   7.329   8.148  0.6886 -0.6043 -0.0840
23340SOL    HW271760   6.941   7.422   8.048 -0.2447 -0.8826 -0.9594
23341SOL     OW71761   0.151   3.304   6.674  0.1792  0.9028  0.5881
23341SOL    HW171762   0.228   3.301   6.618 -0.6868  0.8178 -0.6403
23341SOL    HW271763   0.091   3.239   6.637  0.1613 -0.2364  2.5288
23342SOL     OW71764   8.812   4.131   0.884 -0.0906 -0.1882  0.6306
23342SOL    HW171765   8.891   4.148   0.934 -0.5780  1.6082  0.8334
23342SOL    HW271766   8.764   4.214   0.884 -2.2352 -1.3537  0.9604
23343SOL     OW71767   7.281   4.465   2.009 -0.4431 -0.4386 -0.2462
23343SOL    HW171768   7.268   4.489   1.917 -1.5071 -1.7424 -0.4666
23343SOL    HW271769   7.196   4.432   2.038 -0.2575  0.4040  1.3706
23344SOL     OW71770   9.510   4.645   8.458 -0.2861 -0.4520  0.1891
23344SOL    HW171771   9.514   4.738   8.479 -0.5394 -0.3277 -0.2888
23344SOL    HW271772   9.548   4.639   8.370 -0.4483 -0.7674  0.1378
23345SOL     OW71773   1.597   7.813   2.990  0.1149  0.0216 -0.4674
23345SOL    HW171774   1.678   7.776   2.954 -0.2785 -1.0121 -0.3095
23345SOL    HW271775   1.582   7.891   2.936  1.7332  0.8059  0.1399
23346SOL     OW71776   4.053   9.606   3.133 -0.7871  0.4383  0.1414
23346SOL    HW171777   4.037   9.684   3.079 -0.5038 -0.3055 -1.0426
23346SOL    HW271778   4.142   9.618   3.166 -1.1885  1.2041  0.9933
23347SOL     OW71779   5.254   2.223   7.695  0.0900 -0.9008  0.1050
23347SOL    HW171780   5.311   2.223   7.618  0.1173  0.9509  0.0781
23347SOL    HW271781   5.165   2.219   7.659  0.1297 -2.2836  0.0955
23348SOL     OW71782   3.932   7.917   6.255  0.3649  0.0122 -0.5471
23348SOL    HW171783   4.003   7.853   6.257 -0.2597 -0.6933  0.1939
23348SOL    HW271784   3.960   7.987   6.313  0.7562  0.0757 -0.8117
23349SOL     OW71785   0.280   0.344   1.732  0.1971 -0.2188 -0.2320
23349SOL    HW171786   0.375   0.340   1.722  0.2830  2.6304 -1.3543
23349SOL    HW271787   0.264   0.312   1.821  2.1636 -0.9532 -0.0909
23350SOL     OW71788   4.972   3.530   3.147  0.4930  0.5481 -0.1406
23350SOL    HW171789   4.983   3.482   3.065  0.6798 -1.0500  0.7680
23350SOL    HW271790   4.992   3.621   3.125  0.1698  0.2221 -1.9333
23351SOL     OW71791   1.962   8.259   0.832 -0.3413  0.1345  1.4089
23351SOL    HW171792   1.959   8.163   0.832 -3.9747  0.1175  1.8297
23351SOL    HW271793   1.884   8.286   0.784  1.9562  3.0295 -1.1826
23352SOL     OW71794   5.180   3.944   2.697  0.1243  0.6983 -0.1455
23352SOL    HW171795   5.218   4.029   2.675 -0.9029  0.7574 -1.8873
23352SOL    HW271796   5.087   3.955   2.680 -0.0134 -0.7914 -0.4464
23353SOL     OW71797   0.956   3.641   2.203  0.2531  0.5254 -0.1994
23353SOL    HW171798   0.946   3.616   2.111  2.5613  3.1184 -1.2968
23353SOL    HW271799   0.958   3.737   2.202  0.9275  0.6206  2.4736
23354SOL     OW71800   4.087   4.308   1.611 -0.1183  0.0448 -0.3857
23354SOL    HW171801   4.012   4.308   1.553 -0.5056  1.0361  0.0813
23354SOL    HW271802   4.052   4.334   1.697  0.5473 -0.7072  0.1315
23355SOL     OW71803   6.909   1.115   8.461 -0.0868  0.1889 -0.1261
23355SOL    HW171804   6.887   1.025   8.482  1.0180 -0.3441 -1.1236
23355SOL    HW271805   6.895   1.122   8.367  1.9774  0.3585 -0.4772
23356SOL     OW71806   1.283   0.602   0.838  0.0334  0.2937 -0.3923
23356SOL    HW171807   1.271   0.544   0.913 -1.2072  0.1453 -0.6802
23356SOL    HW271808   1.377   0.598   0.819 -0.1090 -2.3157 -0.9601
23357SOL     OW71809   9.126   3.729   4.861  0.5745 -0.0246  0.1095
23357SOL    HW171810   9.203   3.738   4.806 -0.1095  0.4501 -0.7950
23357SOL    HW271811   9.103   3.819   4.885 -1.2083  0.0804 -1.7910
23358SOL     OW71812   1.209   0.850   0.494  0.4296  0.2873 -0.4225
23358SOL    HW171813   1.205   0.924   0.434 -0.9448 -1.2157 -2.2909
23358SOL    HW271814   1.299   0.852   0.528  1.1177  1.4614 -2.1725
23359SOL     OW71815   2.320   4.231   2.286  0.5954  0.4673 -0.4763
23359SOL    HW171816   2.327   4.219   2.191  2.4649  0.6785 -0.4033
23359SOL    HW271817   2.228   4.213   2.306  0.5507 -1.3261 -2.0762
23360SOL     OW71818   3.534   2.309   6.305  0.3006 -0.1159 -0.4305
23360SOL    HW171819   3.595   2.239   6.282  1.0847  0.7685 -1.1042
23360SOL    HW271820   3.588   2.388   6.309 -0.7535  0.6485 -0.8100
23361SOL     OW71821   0.885   3.006   6.970  0.1443 -0.2540 -0.0458
23361SOL    HW171822   0.852   2.983   7.057 -1.2411 -1.1493 -0.7785
23361SOL    HW271823   0.936   2.930   6.943  0.4540 -0.0349 -0.0844
23362SOL     OW71824   7.922   6.034   2.168  0.5474  0.2161 -0.1953
23362SOL    HW171825   7.874   6.067   2.092 -2.2942  0.3968  1.5516
23362SOL    HW271826   7.956   6.113   2.211  3.2687  0.0621 -1.7970
23363SOL     OW71827   8.685   1.786   2.733  0.0937 -0.0473 -0.1005
23363SOL    HW171828   8.764   1.740   2.702  0.8362 -1.0042  2.8967
23363SOL    HW271829   8.716   1.875   2.752  0.8044 -0.6690  1.9676
23364SOL     OW71830   4.632   6.976   8.269  0.3097  0.2240  0.2686
23364SOL    HW171831   4.624   6.945   8.179  0.5398  1.1815 -0.0982
23364SOL    HW271832   4.710   7.032   8.267 -0.0766  0.7899  0.9062
23365SOL     OW71833   1.059   2.507   5.606 -0.0809 -0.2607  0.3622
23365SOL    HW171834   1.104   2.423   5.618  0.6037 -0.0002 -0.3053
23365SOL    HW271835   1.127   2.573   5.622 -0.7015  0.1856  1.2425
23366SOL     OW71836   0.749   2.928   9.274 -0.0419 -0.4048 -0.3937
23366SOL    HW171837   0.682   2.886   9.220  0.5856 -0.7443 -0.9145
23366SOL    HW271838   0.822   2.944   9.214  1.1413 -1.8527  0.5858
23367SOL     OW71839   3.174   1.248   7.857 -0.2170  0.1311  0.2228
23367SOL    HW171840   3.137   1.312   7.796 -2.7456  0.9661  2.4317
23367SOL    HW271841   3.248   1.293   7.897  0.0103  0.4501 -0.5435
23368SOL     OW71842   7.949   3.348   3.647  0.1612 -0.1029 -0.2847
23368SOL    HW171843   7.947   3.357   3.552  1.1839  0.0858 -0.2941
23368SOL    HW271844   7.857   3.334   3.671  0.0696 -1.8505 -1.4516
23369SOL     OW71845   8.714   7.857   1.524 -0.2225  0.6256  0.1176
23369SOL    HW171846   8.626   7.893   1.529 -0.7237 -0.6993  2.6751
23369SOL    HW271847   8.709   7.789   1.457 -0.5721  1.8558 -1.1551
23370SOL     OW71848   5.064   4.205   7.633  0.7622 -0.3986  0.0965
23370SOL    HW171849   5.140   4.262   7.617  0.5873 -0.3824 -0.7656
23370SOL    HW271850   5.050   4.161   7.549 -0.3749 -0.1742  0.1595
23371SOL     OW71851   6.330   3.698   4.415  0.3791 -0.4536  0.3404
23371SOL    HW171852   6.287   3.770   4.460 -0.1123  0.3224 -1.2809
23371SOL    HW271853   6.423   3.706   4.439  0.5044  1.3748 -0.5768
23372SOL     OW71854   9.312   4.063   4.533  0.1788 -0.3979  0.3405
23372SOL    HW171855   9.326   4.118   4.609  0.9850 -0.2874  0.1178
23372SOL    HW271856   9.218   4.072   4.514  0.1885  0.4572  0.6422
23373SOL     OW71857   5.184   4.781   6.227  0.8742  0.2085  0.7858
23373SOL    HW171858   5.093   4.756   6.211  1.4621 -1.6602  0.1810
23373SOL    HW271859   5.198   4.856   6.169  1.0121 -2.3234 -2.7746
23374SOL     OW71860   8.723   1.001   2.023 -0.1476 -0.0606 -0.5396
23374SOL    HW171861   8.644   1.029   1.977 -0.3213 -0.5265 -0.5340
23374SOL    HW271862   8.785   0.979   1.953 -0.7869 -1.8505 -0.6151
23375SOL     OW71863   8.657   1.214   6.291 -0.4366  0.2215  0.1079
23375SOL    HW171864   8.656   1.305   6.321 -1.7383  0.6922 -1.2396
23375SOL    HW271865   8.662   1.162   6.371 -1.9776  1.4460  1.0598
23376SOL     OW71866   1.498   3.894   5.737 -0.2659 -0.0399  0.2498
23376SOL    HW171867   1.431   3.854   5.682 -1.5239  2.6588 -0.3962
23376SOL    HW271868   1.523   3.974   5.690  2.7537 -0.4446  0.9522
23377SOL     OW71869   6.951   1.718   6.002  0.1871  0.2081 -0.7385
23377SOL    HW171870   6.918   1.751   5.919  1.1382  0.4691 -1.0237
23377SOL    HW271871   7.021   1.657   5.978  0.9335  0.8038 -0.1203
23378SOL     OW71872   2.131   3.618   9.430  0.1941  0.6897 -0.7431
23378SOL    HW171873   2.191   3.660   9.492  0.0953  0.0082 -0.1689
23378SOL    HW271874   2.065   3.684   9.412 -1.4265  0.0180  2.1393
23379SOL     OW71875   3.831   5.105   9.514  0.3886 -0.0407  0.2244
23379SOL    HW171876   3.910   5.077   9.468 -0.6824 -1.7523 -0.6938
23379SOL    HW271877   3.855   5.106   9.606  1.2702 -1.3538  0.0328
23380SOL     OW71878   7.972   1.109   9.174  0.6100  0.5203 -0.0036
23380SOL    HW171879   8.058   1.067   9.172  0.4662  0.2307 -0.7564
23380SOL    HW271880   7.971   1.164   9.096  0.3120  0.9403  0.2956
23381SOL     OW71881   7.520   3.230   4.470  0.1774  0.3139  0.2450
23381SOL    HW171882   7.564   3.313   4.452  1.6590  0.5520  4.0427
23381SOL    HW271883   7.521   3.223   4.565 -0.9538 -3.5400  0.1321
23382SOL     OW71884   1.759   5.706   3.239 -0.0912 -0.0625 -0.0060
23382SOL    HW171885   1.827   5.764   3.204 -0.5819  0.6952  0.2694
23382SOL    HW271886   1.749   5.638   3.172  0.1645  0.4299 -0.5602
23383SOL     OW71887   0.954   1.835   4.183  0.1219 -0.3442  0.0709
23383SOL    HW171888   1.033   1.853   4.234  0.4281  2.8085 -1.2691
23383SOL    HW271889   0.986   1.791   4.104  0.7133  1.5264 -0.7821
23384SOL     OW71890   5.591   0.579   3.887  0.2851 -0.5609  0.2011
23384SOL    HW171891   5.601   0.643   3.817  1.2188 -0.9415 -0.0277
23384SOL    HW271892   5.671   0.526   3.882  1.2795  0.5316  2.6836
23385SOL     OW71893   9.319   2.638   6.209  1.0035  0.3207  0.4916
23385SOL    HW171894   9.316   2.648   6.114 -1.1972  0.0122  0.4915
23385SOL    HW271895   9.372   2.559   6.223 -1.3482 -1.6054 -0.7150
23386SOL     OW71896   1.992   9.503   2.235 -0.0031 -0.5630  0.6243
23386SOL    HW171897   1.944   9.435   2.187 -0.1731 -0.1688  0.2262
23386SOL    HW271898   1.946   9.510   2.319  0.0108 -0.9310  0.6649
23387SOL     OW71899   4.300   6.308   5.946  0.1884 -0.1847 -0.3973
23387SOL    HW171900   4.226   6.356   5.983  0.4258 -0.5799  0.6527
23387SOL    HW271901   4.291   6.220   5.983  1.4217 -0.1179  0.1109
23388SOL     OW71902   2.116   0.607   3.364 -0.4764 -0.6830  0.1137
23388SOL    HW171903   2.041   0.629   3.421  0.3391  0.0471  0.9504
23388SOL    HW271904   2.162   0.538   3.411  0.5613  0.3627  0.7175
23389SOL     OW71905   9.140   1.924   4.584 -0.4822  0.5104 -0.5765
23389SOL    HW171906   9.078   1.852   4.571  0.0062 -0.4754  1.9059
23389SOL    HW271907   9.219   1.895   4.538 -0.6909  0.0477 -0.6543
23390SOL     OW71908   4.270   0.175   4.513  0.1540 -0.7213  0.1107
23390SOL    HW171909   4.325   0.116   4.462 -0.3201 -0.3750 -0.8158
23390SOL    HW271910   4.228   0.119   4.578  1.8053 -0.9496  1.0304
23391SOL     OW71911   5.245   7.756   4.147  0.3764 -0.2798 -0.2001
23391SOL    HW171912   5.173   7.693   4.150  0.1768 -0.0177  0.9218
23391SOL    HW271913   5.219   7.819   4.079 -0.2664 -0.4116 -0.0826
23392SOL     OW71914   1.663   2.174   7.214  0.0785 -0.7036  0.1238
23392SOL    HW171915   1.744   2.185   7.264 -0.5124 -1.9245  1.4186
23392SOL    HW271916   1.594   2.207   7.271 -0.3522  0.5634 -1.0723
23393SOL     OW71917   4.997   9.015   4.006 -0.1404 -0.3423 -0.0833
23393SOL    HW171918   4.986   9.065   3.925  0.4934 -0.2606 -0.1210
23393SOL    HW271919   4.938   8.940   3.995 -1.6619  0.7673  0.2979
23394SOL     OW71920   8.790   4.705   2.873  0.0504  0.0982 -0.3617
23394SOL    HW171921   8.723   4.769   2.899 -1.6529 -2.0087  0.7994
23394SOL    HW271922   8.863   4.723   2.933  0.6476  2.4606 -1.6699
23395SOL     OW71923   3.149   6.225   9.172 -0.2671  0.9223  0.0857
23395SOL    HW171924   3.106   6.149   9.132  0.7470  0.7356 -0.7011
23395SOL    HW271925   3.238   6.222   9.138  0.2221  1.5927  1.2738
23396SOL     OW71926   6.385   5.684   8.593 -0.7088  0.3282  0.0843
23396SOL    HW171927   6.403   5.765   8.641 -1.5908  0.5628  0.0400
23396SOL    HW271928   6.316   5.708   8.530  0.7010  0.1393 -1.6019
23397SOL     OW71929   7.563   1.568   3.625  0.2404 -0.0863 -0.5175
23397SOL    HW171930   7.577   1.490   3.571 -1.6881 -0.3871 -0.6525
23397SOL    HW271931   7.505   1.624   3.572 -0.9120  0.0449  0.8233
23398SOL     OW71932   3.249   8.679   3.763  0.0443 -0.2536  0.4390
23398SOL    HW171933   3.292   8.761   3.737  2.3562 -0.6937  2.5252
23398SOL    HW271934   3.173   8.706   3.814  0.8320  0.6038  1.1751
23399SOL     OW71935   3.567   1.947   3.557 -0.4918  0.1668 -0.1599
23399SOL    HW171936   3.480   1.965   3.591 -0.5725  1.6548 -1.0538
23399SOL    HW271937   3.560   1.859   3.519 -1.3827 -0.0234  0.4044
23400SOL     OW71938   6.758   2.711   4.713  0.0519 -0.4135  0.2516
23400SOL    HW171939   6.733   2.624   4.684 -0.0612  0.3027 -2.0415
23400SOL    HW271940   6.852   2.706   4.728  0.3803 -0.5161 -1.6639
23401SOL     OW71941   5.228   0.597   9.321 -0.2944  0.6816  0.3523
23401SOL    HW171942   5.241   0.527   9.258 -0.0317  0.0580  1.0802
23401SOL    HW271943   5.140   0.582   9.356 -0.9289  1.7431 -0.7214
23402SOL     OW71944   3.476   0.551   3.853 -0.2374 -0.0092 -0.6188
23402SOL    HW171945   3.553   0.553   3.910 -2.1265  0.2964  2.1114
23402SOL    HW271946   3.478   0.634   3.806  0.1419  0.8003  0.7941
23403SOL     OW71947   7.987   1.715   8.748 -0.0850  0.3220  0.4237
23403SOL    HW171948   7.986   1.730   8.654 -1.4035 -0.8506  0.2159
23403SOL    HW271949   8.064   1.761   8.779  0.1356  1.0792 -1.1691
23404SOL     OW71950   2.586   0.096   8.923 -0.2046  0.1239  0.0682
23404SOL    HW171951   2.571   0.003   8.936 -0.3164  0.2240  0.7187
23404SOL    HW271952   2.502   0.131   8.894 -0.6000  0.2700  1.3176
23405SOL     OW71953   3.225   6.210   0.223 -0.4661 -0.6009 -0.0626
23405SOL    HW171954   3.212   6.225   0.316  1.9741 -2.2262  0.6562
23405SOL    HW271955   3.290   6.275   0.196 -1.3039 -0.0059 -0.7198
23406SOL     OW71956   7.595   5.579   5.766  0.3124  0.4962 -0.4113
23406SOL    HW171957   7.597   5.672   5.789 -2.4919  0.5583 -0.0225
23406SOL    HW271958   7.592   5.578   5.670 -0.2480  0.8686 -0.4034
23407SOL     OW71959   2.036   5.168   7.942  0.2744  0.5456  0.0187
23407SOL    HW171960   2.113   5.218   7.917  0.3774  0.6298  0.4880
23407SOL    HW271961   1.975   5.180   7.869 -1.8562  5.8232  2.1510
23408SOL     OW71962   3.054   6.893   4.739  0.4349  0.2646 -0.1295
23408SOL    HW171963   3.003   6.872   4.660  1.7186  0.0774 -0.9401
23408SOL    HW271964   3.091   6.809   4.767  1.4329  0.6053 -0.3865
23409SOL     OW71965   3.580   8.078   7.442 -0.0350  0.1928  0.3048
23409SOL    HW171966   3.618   8.102   7.358  0.5298  2.0058  1.0234
23409SOL    HW271967   3.504   8.136   7.451  0.2786  0.4663  1.3035
23410SOL     OW71968   2.379   6.975   6.238 -0.1292  0.3043 -0.2475
23410SOL    HW171969   2.384   7.021   6.154  0.3955  0.3664 -0.1866
23410SOL    HW271970   2.324   7.032   6.293 -1.0915 -0.1036 -0.7729
23411SOL     OW71971   6.381   2.861   3.872 -0.0141 -0.2226 -0.2325
23411SOL    HW171972   6.309   2.914   3.907 -0.2971  0.9847 -2.4737
23411SOL    HW271973   6.441   2.925   3.835 -0.6796 -1.3848 -3.6573
23412SOL     OW71974   1.263   6.546   5.896 -0.5591  0.0519  0.0807
23412SOL    HW171975   1.257   6.635   5.862 -2.8188  0.1177  0.5238
23412SOL    HW271976   1.173   6.522   5.919  0.1318 -1.9646  0.9613
23413SOL     OW71977   3.563   4.744   7.080 -0.1220 -0.2877  0.3342
23413SOL    HW171978   3.486   4.800   7.089 -0.2387 -0.4255  0.1896
23413SOL    HW271979   3.636   4.805   7.064 -0.1667 -0.1446  0.6735
23414SOL     OW71980   1.670   2.373   4.092 -0.0030  0.2112 -0.1023
23414SOL    HW171981   1.736   2.412   4.034 -1.1291 -1.7571 -2.9707
23414SOL    HW271982   1.654   2.286   4.054 -0.9380 -1.2145  3.2163
23415SOL     OW71983   0.141   5.727   3.724 -0.2005 -0.4516  0.3646
23415SOL    HW171984   0.180   5.747   3.809  1.0212 -2.9071  0.4585
23415SOL    HW271985   0.055   5.692   3.744 -0.8762  1.1369  0.3968
23416SOL     OW71986   2.342   1.532   0.586 -0.1909  0.4690 -0.4599
23416SOL    HW171987   2.249   1.542   0.608 -0.2298  1.6592 -1.0347
23416SOL    HW271988   2.348   1.447   0.543 -1.3599  1.0985 -1.9818
23417SOL     OW71989   7.454   8.358   3.532 -0.4956  0.3326  0.3225
23417SOL    HW171990   7.361   8.336   3.524 -0.4829  0.6296 -0.8103
23417SOL    HW271991   7.456   8.439   3.583 -0.7614 -0.3623  1.4768
23418SOL     OW71992   6.134   1.639   9.461  0.1965 -0.0422 -0.3203
23418SOL    HW171993   6.075   1.580   9.415  1.0714 -1.5432  0.4048
23418SOL    HW271994   6.207   1.583   9.489  0.5748  1.1699  1.2680
23419SOL     OW71995   2.325   4.588   2.387  0.9715 -0.1473 -0.4085
23419SOL    HW171996   2.404   4.540   2.411  0.6446 -0.4602  0.0610
23419SOL    HW271997   2.332   4.670   2.435  1.6742  0.4270 -1.4384
23420SOL     OW71998   3.073   8.142   1.439  0.1549  0.2482 -0.2460
23420SOL    HW171999   3.092   8.050   1.458  0.8046  0.2173 -0.9550
23420SOL    HW272000   3.084   8.150   1.344 -0.9776  0.8239 -0.3496
23421SOL     OW72001   7.732   9.206   0.706  0.5919  0.3388  0.3266
23421SOL    HW172002   7.691   9.278   0.657  0.9549 -0.3905 -1.1067
23421SOL    HW272003   7.810   9.185   0.655  0.3907 -1.2048  0.6223
23422SOL     OW72004   9.275   4.701   7.189 -0.0334  0.2642  0.0968
23422SOL    HW172005   9.260   4.618   7.143  0.8673 -0.3606  0.8995
23422SOL    HW272006   9.369   4.718   7.178 -0.4713  2.0946 -1.5367
23423SOL     OW72007   4.315   1.597   7.203 -0.1829 -0.6603  0.4666
23423SOL    HW172008   4.290   1.616   7.294  1.2900 -1.2602  1.0382
23423SOL    HW272009   4.286   1.674   7.154  1.0712  0.7799  1.8560
23424SOL     OW72010   7.970   9.134   4.526  0.5528 -0.4193  0.1297
23424SOL    HW172011   7.897   9.108   4.582  0.2400  2.4801  1.2628
23424SOL    HW272012   7.930   9.157   4.443  0.0289  1.4312  0.8342
23425SOL     OW72013   5.720   7.916   1.712 -0.0959 -0.0341  0.2447
23425SOL    HW172014   5.812   7.942   1.715 -0.0427  0.0346 -1.3032
23425SOL    HW272015   5.677   7.972   1.776  0.4596  2.0561 -1.1357
23426SOL     OW72016   7.664   1.903   8.324  0.0462 -0.2678  0.1110
23426SOL    HW172017   7.758   1.914   8.308  0.3152  0.2489  1.7735
23426SOL    HW272018   7.653   1.809   8.337  0.3314 -0.3393 -0.1542
23427SOL     OW72019   5.443   1.223   4.469 -0.7925 -0.2063 -0.0496
23427SOL    HW172020   5.514   1.167   4.501  0.0518  1.4945  1.1960
23427SOL    HW272021   5.417   1.183   4.386  0.8504 -1.5254  0.0189
23428SOL     OW72022   6.155   4.193   4.469  0.6303  0.2038  0.4050
23428SOL    HW172023   6.237   4.169   4.427  0.2971 -0.5730  0.1935
23428SOL    HW272024   6.182   4.231   4.553  1.4109  3.4088 -1.1529
23429SOL     OW72025   8.137   6.376   7.371 -0.1219  0.4866 -0.4859
23429SOL    HW172026   8.049   6.339   7.374  0.7085 -1.5852  0.6656
23429SOL    HW272027   8.123   6.469   7.353 -2.4756  0.0861 -1.1314
23430SOL     OW72028   5.141   7.054   2.211 -0.5892 -0.4797  0.1847
23430SOL    HW172029   5.112   6.970   2.175  1.7122 -1.8094  1.2130
23430SOL    HW272030   5.166   7.035   2.301  1.1015  1.0185  0.1069
23431SOL     OW72031   4.856   4.352   4.237  0.0816 -0.3900 -0.2331
23431SOL    HW172032   4.849   4.334   4.143  0.2051 -0.6336 -0.1980
23431SOL    HW272033   4.947   4.328   4.258  0.9603  2.2985 -0.6133
23432SOL     OW72034   4.829   0.964   0.575 -0.2902 -0.5677 -0.2639
23432SOL    HW172035   4.834   1.052   0.612 -2.1804  0.1347 -1.4787
23432SOL    HW272036   4.893   0.964   0.504  1.2244 -0.9321  1.0518
23433SOL     OW72037   6.425   2.334   4.380  0.1068 -0.1679  0.1263
23433SOL    HW172038   6.398   2.406   4.438  1.5188 -0.1649  0.8211
23433SOL    HW272039   6.511   2.361   4.347 -0.6437 -0.1816 -2.0053
23434SOL     OW72040   1.090   1.201   6.538  0.2497  0.1905 -0.1008
23434SOL    HW172041   1.094   1.275   6.598 -0.3112 -0.6163  0.9552
23434SOL    HW272042   1.149   1.226   6.466 -1.8021  2.7463 -1.0516
23435SOL     OW72043   7.767   1.806   6.377 -0.0674 -0.2044  0.5027
23435SOL    HW172044   7.852   1.777   6.343  0.4987  2.2004 -0.3250
23435SOL    HW272045   7.716   1.726   6.383  2.2610 -1.7690  1.1213
23436SOL     OW72046   8.781   4.830   0.414 -0.0795  0.3043  0.1729
23436SOL    HW172047   8.689   4.836   0.439  0.3400 -0.6926  2.1580
23436SOL    HW272048   8.827   4.883   0.478  0.8213 -0.1329 -0.0945
23437SOL     OW72049   3.635   3.866   1.134  0.0798 -0.2369  0.0791
23437SOL    HW172050   3.610   3.933   1.071  2.6169  1.9451  1.1964
23437SOL    HW272051   3.552   3.825   1.160 -1.2337  0.1477 -3.0732
23438SOL     OW72052   8.115   2.691   2.322 -0.6382 -0.0168  0.2870
23438SOL    HW172053   8.062   2.611   2.320 -2.2505  1.0180  0.0994
23438SOL    HW272054   8.083   2.743   2.248  1.2916  0.2926 -0.4126
23439SOL     OW72055   0.862   8.950   1.306 -0.1005  0.1086 -0.0341
23439SOL    HW172056   0.837   8.975   1.217 -0.0801  0.7612  0.1383
23439SOL    HW272057   0.958   8.948   1.304 -0.0911  0.4133  0.0466
23440SOL     OW72058   8.705   5.163   4.041 -0.2182  0.5660  0.2317
23440SOL    HW172059   8.613   5.136   4.042 -0.0548 -0.0142  0.0055
23440SOL    HW272060   8.705   5.249   3.999 -0.8878  1.4584  1.9404
23441SOL     OW72061   4.776   0.407   9.466 -0.1425 -0.7044 -0.0464
23441SOL    HW172062   4.749   0.372   9.381 -0.1414 -1.2398  0.1696
23441SOL    HW272063   4.872   0.408   9.463 -0.1244  1.8010 -1.0596
23442SOL     OW72064   3.042   0.019   2.298 -0.2979 -0.2661  0.9808
23442SOL    HW172065   2.996   0.094   2.335  1.5380  1.2589  0.3719
23442SOL    HW272066   3.117   0.006   2.356  0.8738  0.1415 -0.3569
23443SOL     OW72067   2.801   6.648   2.126 -0.2703 -0.2241  0.1856
23443SOL    HW172068   2.785   6.656   2.220 -1.7549 -0.2983 -0.0447
23443SOL    HW272069   2.760   6.565   2.101 -0.0230 -0.1325 -0.5531
23444SOL     OW72070   2.623   8.436   9.580 -0.0397  0.2248 -0.1832
23444SOL    HW172071   2.547   8.385   9.551 -0.3392  0.7601 -0.3568
23444SOL    HW272072   2.603   8.526   9.553 -0.1197  0.6730  1.2683
23445SOL     OW72073   7.502   9.123   1.607 -0.5579  0.1825  0.0012
23445SOL    HW172074   7.468   9.034   1.620 -1.1906  0.4002 -0.1380
23445SOL    HW272075   7.594   9.110   1.584 -1.1318 -0.5632 -2.0647
23446SOL     OW72076   1.105   6.942   4.381  0.1304  0.1737 -0.4734
23446SOL    HW172077   1.051   6.874   4.341 -0.2668  0.4684 -0.4368
23446SOL    HW272078   1.162   6.972   4.310  1.6090 -1.4793 -0.0514
23447SOL     OW72079   5.956   5.736   7.194  0.5083  0.1262  0.5421
23447SOL    HW172080   5.904   5.816   7.203  1.8991  1.0307  0.6798
23447SOL    HW272081   5.890   5.666   7.193 -0.7036  1.2100  0.9541
23448SOL     OW72082   8.330   4.747   5.160  0.0437  0.8074  0.1914
23448SOL    HW172083   8.236   4.733   5.156 -0.0930  0.2091  3.2378
23448SOL    HW272084   8.367   4.680   5.102 -1.3095 -1.0309  1.3823
23449SOL     OW72085   0.514   0.053   3.164  0.6647 -0.5971 -0.1617
23449SOL    HW172086   0.472   0.095   3.088 -0.3710 -1.8872 -0.3377
23449SOL    HW272087   0.447  -0.007   3.198  2.0979 -2.1671  0.0111
23450SOL     OW72088   7.495   7.296   0.497  0.3272  0.5549 -0.2253
23450SOL    HW172089   7.561   7.358   0.468  0.7223  1.0141  1.5425
23450SOL    HW272090   7.416   7.349   0.509  0.9181  1.0001  2.2460
23451SOL     OW72091   4.131   7.685   0.112 -0.2367 -0.1241 -0.1368
23451SOL    HW172092   4.122   7.609   0.055 -0.0930  0.6237 -1.1828
23451SOL    HW272093   4.112   7.652   0.200  0.1843 -1.4398 -0.5226
23452SOL     OW72094   5.964   5.149   4.064 -0.1697 -0.4653 -0.6487
23452SOL    HW172095   5.983   5.235   4.102  1.1426 -0.9167 -0.2391
23452SOL    HW272096   5.869   5.146   4.058 -0.2242  1.2576 -1.2413
23453SOL     OW72097   4.937   4.778   5.110  0.0499 -0.5280 -0.6084
23453SOL    HW172098   4.929   4.825   5.027 -0.2403  0.1197 -0.2160
23453SOL    HW272099   4.978   4.841   5.169 -1.8491 -0.1828  0.3945
23454SOL     OW72100   8.611   0.091   0.279 -0.5858  0.4553  0.2736
23454SOL    HW172101   8.630   0.174   0.236 -0.6701 -0.6204 -2.0428
23454SOL    HW272102   8.649   0.099   0.366  0.6350  2.3966 -0.3754
23455SOL     OW72103   5.406   9.018   4.766 -0.1468 -0.2463  0.1597
23455SOL    HW172104   5.463   8.941   4.776 -0.5354 -0.7101 -1.0796
23455SOL    HW272105   5.318   8.985   4.778 -0.5390 -0.5556 -2.8746
23456SOL     OW72106   0.519   0.082   4.533  0.2171  0.0619  0.0531
23456SOL    HW172107   0.563   0.136   4.598  3.5650 -0.1732 -1.7948
23456SOL    HW272108   0.511   0.138   4.456 -1.3648 -0.4495 -0.2062
23457SOL     OW72109   4.617   5.052   4.605 -0.0187  0.2682  0.1152
23457SOL    HW172110   4.541   5.004   4.573 -0.0092  0.2791  0.0768
23457SOL    HW272111   4.653   5.096   4.528  0.8976 -0.9145 -0.1638
23458SOL     OW72112   0.057   7.365   4.494 -0.2688 -0.4632  0.1714
23458SOL    HW172113   0.138   7.409   4.466 -1.1312  0.3166 -1.2504
23458SOL    HW272114   0.087   7.294   4.551  1.3708  0.1989  0.1997
23459SOL     OW72115   7.366   7.454   2.502  0.0190 -0.3349 -0.4245
23459SOL    HW172116   7.441   7.397   2.484  0.2624 -0.2116  0.1954
23459SOL    HW272117   7.373   7.475   2.595  0.8042  1.9294 -0.9282
23460SOL     OW72118   6.679   4.240   1.758 -0.7545  0.0839 -0.6122
23460SOL    HW172119   6.648   4.331   1.755 -0.6079  0.1584 -0.0060
23460SOL    HW272120   6.723   4.227   1.674 -0.1829  0.7871 -0.4280
23461SOL     OW72121   0.008   4.898   2.583  0.5024  0.3381 -0.4889
23461SOL    HW172122  -0.070   4.896   2.528 -0.2690 -0.2818  0.5952
23461SOL    HW272123   0.061   4.824   2.554 -1.2109 -1.7620  1.3992
23462SOL     OW72124   2.322   7.965   4.936 -0.2277 -0.4156  0.4807
23462SOL    HW172125   2.290   7.903   5.001  1.4040 -0.1505  1.5656
23462SOL    HW272126   2.290   8.050   4.966 -0.7579 -0.4584  0.0749
23463SOL     OW72127   2.712   3.667   5.316  0.1028 -0.2796 -0.1129
23463SOL    HW172128   2.679   3.697   5.232  1.3923 -0.5299 -0.7394
23463SOL    HW272129   2.801   3.702   5.321  0.6696 -1.6894  0.3558
23464SOL     OW72130   0.135   4.344   4.173  0.0074  0.4008  0.1269
23464SOL    HW172131   0.224   4.358   4.140  0.1649  1.4809  0.9455
23464SOL    HW272132   0.147   4.327   4.267 -0.7384  2.3279  0.6180
23465SOL     OW72133   6.220   5.774   3.231 -0.1256 -0.1778  0.3213
23465SOL    HW172134   6.170   5.753   3.310 -0.2120 -0.9099  0.0822
23465SOL    HW272135   6.310   5.749   3.253 -0.2102 -0.7151  0.0717
23466SOL     OW72136   1.111   0.434   0.713  0.7161 -0.0959  0.5129
23466SOL    HW172137   1.139   0.390   0.793  0.0988  0.3269  0.9666
23466SOL    HW272138   1.159   0.517   0.713  2.1616 -0.8785 -0.5275
23467SOL     OW72139   5.415   1.444   4.894 -0.0697 -0.5790  0.0706
23467SOL    HW172140   5.352   1.389   4.940 -1.2401  1.8153  1.5047
23467SOL    HW272141   5.372   1.469   4.813 -0.7765  0.5766  0.7803
23468SOL     OW72142   2.163   3.354   8.133  0.5537 -0.0769  0.7408
23468SOL    HW172143   2.121   3.378   8.051  1.4234  0.2584  0.3796
23468SOL    HW272144   2.118   3.406   8.200 -0.3012 -0.5174  0.5160
23469SOL     OW72145   3.931   1.446   1.261 -0.3364 -0.0084  0.5572
23469SOL    HW172146   3.858   1.415   1.207  1.0119 -2.3026 -0.0645
23469SOL    HW272147   3.916   1.407   1.347 -0.6397  0.7943  0.8770
23470SOL     OW72148   7.377   3.723   0.107 -0.3895  0.5238  0.5593
23470SOL    HW172149   7.348   3.633   0.121 -1.5276  0.7079 -0.4520
23470SOL    HW272150   7.444   3.716   0.039 -2.3291  0.6458 -1.4727
23471SOL     OW72151   4.085   1.642   9.544  0.7267  0.3462  0.4216
23471SOL    HW172152   4.060   1.582   9.614  1.5545 -0.2119  0.2446
23471SOL    HW272153   4.147   1.702   9.585  1.6907 -0.3619  0.0277
23472SOL     OW72154   3.862   7.575   1.403 -0.2430 -0.6141  0.0944
23472SOL    HW172155   3.801   7.614   1.341 -0.0230 -1.1008 -0.4326
23472SOL    HW272156   3.807   7.533   1.469 -0.4777 -0.4246  0.0183
23473SOL     OW72157   4.484   7.187   3.658 -0.2515 -0.0578 -0.1821
23473SOL    HW172158   4.478   7.238   3.577 -0.0989 -0.9127 -0.7511
23473SOL    HW272159   4.573   7.150   3.656  0.0909  0.6698  0.8508
23474SOL     OW72160   9.294   0.190   1.713 -0.6548  0.2544 -0.5889
23474SOL    HW172161   9.231   0.122   1.689 -0.7574 -1.0849  2.8577
23474SOL    HW272162   9.241   0.260   1.751 -0.3104  0.7438 -1.0063
23475SOL     OW72163   3.503   5.848   5.575  0.5310 -0.0129 -0.6724
23475SOL    HW172164   3.420   5.822   5.535 -0.2649  0.6067  0.5462
23475SOL    HW272165   3.482   5.863   5.667  2.0676 -0.1568 -0.2758
23476SOL     OW72166   0.765   8.870   9.257  0.5906  0.2261 -0.4286
23476SOL    HW172167   0.817   8.905   9.185  2.1493  1.0627  1.0225
23476SOL    HW272168   0.764   8.775   9.242  0.0307  0.4590 -2.0529
23477SOL     OW72169   5.044   8.513   1.263 -0.3631  0.2723  0.2554
23477SOL    HW172170   5.061   8.440   1.203  0.2054 -0.4552  1.2780
23477SOL    HW272171   4.954   8.497   1.295 -0.4360  0.3130  0.0705
23478SOL     OW72172   0.175   3.941   1.337  0.0808 -0.1633  0.7365
23478SOL    HW172173   0.151   3.983   1.420 -0.1708 -0.0827  0.6251
23478SOL    HW272174   0.153   4.006   1.270 -2.1720 -1.1731  0.3971
23479SOL     OW72175   4.317   6.914   7.269 -0.6619  0.4329 -0.0553
23479SOL    HW172176   4.239   6.958   7.302 -1.6409 -1.1706 -0.1128
23479SOL    HW272177   4.387   6.938   7.330 -1.3251  1.3808  0.3513
23480SOL     OW72178   6.195   6.843   1.768 -0.6120 -0.3530 -0.1298
23480SOL    HW172179   6.255   6.913   1.745 -2.4206  1.4373  0.3164
23480SOL    HW272180   6.236   6.799   1.842  0.4525  0.3959 -0.2582
23481SOL     OW72181   9.474   1.733   5.199  0.0917  0.1089 -0.0937
23481SOL    HW172182   9.506   1.803   5.142 -0.1917  0.4980  0.2157
23481SOL    HW272183   9.545   1.669   5.202 -0.1419 -0.2202 -1.3920
23482SOL     OW72184   3.370   3.375   3.253 -0.0264 -0.0518 -0.3234
23482SOL    HW172185   3.415   3.452   3.287  1.0428 -0.2651 -1.2166
23482SOL    HW272186   3.339   3.400   3.166  0.8249 -0.7766 -0.8613
23483SOL     OW72187   9.047   8.925   0.190  0.0832 -0.6417  0.2360
23483SOL    HW172188   9.049   8.830   0.175 -0.3373 -0.6463  0.2014
23483SOL    HW272189   8.969   8.955   0.143  0.7542 -0.1366 -0.5781
23484SOL     OW72190   5.716   1.469   3.502 -0.1663  0.0830  0.8334
23484SOL    HW172191   5.654   1.506   3.565 -2.1197 -1.2311 -0.1924
23484SOL    HW272192   5.704   1.374   3.509 -0.3368 -0.1167 -1.3449
23485SOL     OW72193   6.619   5.379   8.392  0.2341  0.2742  0.0636
23485SOL    HW172194   6.678   5.350   8.462 -0.3144  0.5924  0.6641
23485SOL    HW272195   6.654   5.337   8.313  1.6477  0.9776  0.2845
23486SOL     OW72196   5.236   2.175   0.799 -0.3860 -0.3461 -0.4170
23486SOL    HW172197   5.202   2.144   0.883 -1.4216 -0.7849 -0.9825
23486SOL    HW272198   5.304   2.112   0.776  1.0637  0.6758  0.8404
23487SOL     OW72199   6.615   3.879   8.913 -0.4658  0.5616 -0.3795
23487SOL    HW172200   6.616   3.974   8.919  1.0530  0.4842  1.6852
23487SOL    HW272201   6.534   3.853   8.958 -0.2840  0.8452  0.1158
23488SOL     OW72202   7.405   0.132   1.209  0.1811 -0.0376  0.0986
23488SOL    HW172203   7.353   0.205   1.241  0.5907  0.4054 -0.2377
23488SOL    HW272204   7.471   0.172   1.152  0.2353 -0.6916 -0.3080
23489SOL     OW72205   6.061   1.308   6.406  0.0880 -0.0433 -0.5608
23489SOL    HW172206   6.100   1.222   6.386  0.2155 -0.1977  0.2966
23489SOL    HW272207   5.967   1.292   6.406  0.1078 -0.1662 -0.5031
23490SOL     OW72208   5.424   1.467   4.136  0.5399 -0.0309  0.2418
23490SOL    HW172209   5.394   1.461   4.227  0.9316 -0.9028  0.3223
23490SOL    HW272210   5.355   1.515   4.091 -1.3952 -2.5722  0.2541
23491SOL     OW72211   2.988   3.465   6.044  0.0247 -0.0868  0.0048
23491SOL    HW172212   2.931   3.491   6.117 -0.2684  2.0492 -0.8938
23491SOL    HW272213   3.026   3.548   6.014  0.4483 -0.9613 -1.9940
23492SOL     OW72214   8.604   7.692   9.382 -0.1488  0.3336 -0.1104
23492SOL    HW172215   8.662   7.742   9.324  1.0689 -1.7303 -0.7615
23492SOL    HW272216   8.645   7.699   9.468  0.2250  0.1699 -0.2698
23493SOL     OW72217   2.219   6.400   6.902  0.2764 -0.3240  0.0925
23493SOL    HW172218   2.149   6.428   6.961  0.9023 -1.6664  1.5572
23493SOL    HW272219   2.280   6.474   6.901 -0.0185 -0.0671  0.6954
23494SOL     OW72220   9.094   0.669   9.351 -0.0202  0.2754 -0.2207
23494SOL    HW172221   9.092   0.637   9.441  1.9211  1.6108  0.3659
23494SOL    HW272222   9.009   0.713   9.339  0.0843  0.9426  1.3120
23495SOL     OW72223   8.829   5.767   8.278 -0.4646 -0.2620 -0.1359
23495SOL    HW172224   8.855   5.832   8.342 -0.8572  0.2999 -0.5371
23495SOL    HW272225   8.909   5.745   8.231 -0.1974 -0.5970  0.4635
23496SOL     OW72226   0.302   4.615   9.519 -0.1055 -0.1567 -0.5374
23496SOL    HW172227   0.343   4.668   9.452  1.0859 -1.5280 -0.9489
23496SOL    HW272228   0.289   4.529   9.478  0.8471 -1.0916  1.0114
23497SOL     OW72229   9.334   2.675   3.407 -0.3960 -0.4361  0.5132
23497SOL    HW172230   9.387   2.645   3.333 -1.0878 -0.6843  0.1067
23497SOL    HW272231   9.293   2.595   3.441 -0.2815 -0.2872  0.9997
23498SOL     OW72232   2.830   0.948   0.691 -0.0715  0.0129  0.0696
23498SOL    HW172233   2.861   0.921   0.605  0.7115 -0.2512  0.4283
23498SOL    HW272234   2.841   1.043   0.692  1.3227 -0.1277  0.4014
23499SOL     OW72235   4.216   3.023   5.723 -0.1020 -0.2159 -0.0904
23499SOL    HW172236   4.289   2.965   5.703  0.3594 -0.0021  0.9252
23499SOL    HW272237   4.138   2.968   5.713  0.2770 -0.7777  0.0270
23500SOL     OW72238   4.915   2.796   8.772  0.1986  0.4988 -0.6945
23500SOL    HW172239   4.844   2.793   8.708  1.0891 -0.9013 -1.6999
23500SOL    HW272240   4.917   2.887   8.802 -3.2217  0.2145  0.8660
23501SOL     OW72241   2.439   5.501   6.140 -0.1960  0.5652  0.1228
23501SOL    HW172242   2.375   5.447   6.187 -1.0090  1.5120  0.1381
23501SOL    HW272243   2.412   5.591   6.157 -0.4118  0.9565 -1.9838
23502SOL     OW72244   5.060   1.308   4.402 -0.2700 -0.0831 -0.4774
23502SOL    HW172245   5.098   1.221   4.402 -1.1799 -0.5357 -2.5401
23502SOL    HW272246   5.097   1.351   4.324 -0.0751  1.2830  0.3272
23503SOL     OW72247   2.884   5.913   2.771 -0.5006 -0.0447  0.0445
23503SOL    HW172248   2.850   5.884   2.856  0.2686 -1.1357  0.0037
23503SOL    HW272249   2.912   5.832   2.728 -1.0415  0.4718 -1.3339
23504SOL     OW72250   4.505   1.838   4.259  0.5960 -0.4937 -0.5835
23504SOL    HW172251   4.474   1.762   4.209  0.0292 -0.7661  0.1719
23504SOL    HW272252   4.458   1.833   4.342  0.5277  0.7078 -0.5376
23505SOL     OW72253   6.892   3.786   4.285  0.2553  0.4197 -0.6132
23505SOL    HW172254   6.884   3.740   4.369  0.7750 -0.1073 -0.8456
23505SOL    HW272255   6.823   3.852   4.287 -1.4147 -1.2419 -0.8442
23506SOL     OW72256   3.581   4.895   3.587  0.0409  0.2383 -0.2049
23506SOL    HW172257   3.534   4.905   3.504  0.3472  0.5446 -0.3450
23506SOL    HW272258   3.561   4.806   3.616  2.2555 -0.9621 -2.0524
23507SOL     OW72259   6.006   0.678   8.857  0.6395  0.0770 -0.1655
23507SOL    HW172260   6.007   0.743   8.787 -1.0995  0.4057  0.0601
23507SOL    HW272261   5.927   0.699   8.907  0.0664 -2.1785 -0.0414
23508SOL     OW72262   3.364   5.223   7.896 -0.5424  0.3491 -0.5525
23508SOL    HW172263   3.345   5.238   7.803 -0.8318  1.9873 -0.2592
23508SOL    HW272264   3.315   5.144   7.918 -0.1768 -0.2760 -1.8707
23509SOL     OW72265   0.665   6.360   1.845 -0.1404  0.2309 -0.4658
23509SOL    HW172266   0.612   6.421   1.898  0.8640  0.7440 -0.0234
23509SOL    HW272267   0.632   6.371   1.756  0.0518  1.4773 -0.4008
23510SOL     OW72268   9.153   4.128   1.285 -0.6565  0.1381 -0.0058
23510SOL    HW172269   9.155   4.040   1.247  1.6278 -0.8687  2.1966
23510SOL    HW272270   9.089   4.122   1.356 -1.0769  0.5041 -0.3476
23511SOL     OW72271   7.667   1.065   4.988  0.1085  0.0110  0.1504
23511SOL    HW172272   7.726   1.136   5.013  0.4764 -0.0209 -0.5993
23511SOL    HW272273   7.580   1.106   4.986  0.3216  0.4489 -0.2961
23512SOL     OW72274   1.298   7.707   2.235  0.0734 -0.3711 -0.5091
23512SOL    HW172275   1.254   7.789   2.255  1.6037  1.0164 -2.4454
23512SOL    HW272276   1.368   7.700   2.299 -0.3899 -0.4648 -0.0070
23513SOL     OW72277   7.144   7.205   8.146 -0.2816 -0.0508  0.0879
23513SOL    HW172278   7.104   7.142   8.206 -0.0621  0.5275  0.8585
23513SOL    HW272279   7.108   7.289   8.172  1.7501  0.5745  1.1464
23514SOL     OW72280   4.225   7.145   6.361  0.0084  0.1793  0.3449
23514SOL    HW172281   4.164   7.149   6.287 -0.3057  0.7197  0.6235
23514SOL    HW272282   4.169   7.123   6.436  0.4375 -1.1159  0.2988
23515SOL     OW72283   0.069   0.046   4.119  0.2306  0.7042  0.0345
23515SOL    HW172284   0.020   0.031   4.038 -1.5265 -2.4030  1.4956
23515SOL    HW272285   0.024   0.119   4.162 -0.0411  1.0743 -0.8575
23516SOL     OW72286   8.724   3.579   6.018  0.1212  0.2352 -0.3166
23516SOL    HW172287   8.699   3.546   5.932 -1.9674 -1.1500  0.7491
23516SOL    HW272288   8.815   3.550   6.029  0.2488 -0.0039 -1.8065
23517SOL     OW72289   8.299   0.175   2.273 -0.3932 -0.6047  0.0143
23517SOL    HW172290   8.213   0.150   2.239 -0.0980 -2.1460  0.3164
23517SOL    HW272291   8.281   0.236   2.343 -1.2820 -1.2390  0.3549
23518SOL     OW72292   4.404   4.593   2.802 -0.0791 -0.2036 -0.4348
23518SOL    HW172293   4.396   4.499   2.782  1.8883 -0.2779 -1.0714
23518SOL    HW272294   4.493   4.603   2.835 -0.5953  1.3067  0.5810
23519SOL     OW72295   3.511   4.277   6.789  0.4776 -0.0880 -0.3928
23519SOL    HW172296   3.607   4.278   6.779  0.4259  0.7853 -0.9615
23519SOL    HW272297   3.479   4.326   6.713 -0.5523 -2.0381 -1.2706
23520SOL     OW72298   0.523   3.793   8.662  0.5106  0.6661 -0.0649
23520SOL    HW172299   0.612   3.826   8.664  0.3604  1.5276 -2.9552
23520SOL    HW272300   0.488   3.823   8.578 -2.0361 -0.8381  0.3446
23521SOL     OW72301   6.852   9.254   8.128 -0.3481  0.4271 -0.3225
23521SOL    HW172302   6.933   9.251   8.077  0.2764  0.6817  0.6093
23521SOL    HW272303   6.792   9.195   8.083  0.5669 -0.2327 -0.7023
23522SOL     OW72304   7.597   9.228   5.864  0.2425  0.4690 -0.3657
23522SOL    HW172305   7.539   9.218   5.939 -0.1629  2.7336 -0.3027
23522SOL    HW272306   7.557   9.174   5.796 -0.1389 -0.5258  0.6025
23523SOL     OW72307   3.757   1.308   3.975 -0.2616 -0.3338 -0.0780
23523SOL    HW172308   3.666   1.326   3.953 -0.8365 -2.3694  0.4499
23523SOL    HW272309   3.771   1.354   4.058 -1.7088 -2.2180  1.2935
23524SOL     OW72310   1.776   0.397   1.739 -0.3505 -0.0267 -0.2966
23524SOL    HW172311   1.858   0.372   1.696 -0.4611  1.1963 -1.3010
23524SOL    HW272312   1.796   0.482   1.779 -1.4382  0.8774 -1.5950
23525SOL     OW72313   0.771   6.501   9.052  0.6234 -0.4708 -0.1007
23525SOL    HW172314   0.698   6.526   9.109  0.2749 -1.0407 -0.2902
23525SOL    HW272315   0.760   6.407   9.038  1.8718 -0.7273  0.5410
23526SOL     OW72316   7.502   8.683   0.266  0.5371 -0.3397  0.1872
23526SOL    HW172317   7.503   8.706   0.359  1.6109  1.3751 -0.2098
23526SOL    HW272318   7.536   8.593   0.264  0.1088 -0.5516  1.4677
23527SOL     OW72319   2.978   7.571   5.278  0.2364  0.2384  0.3902
23527SOL    HW172320   3.074   7.572   5.279  0.3137 -1.7261  0.9652
23527SOL    HW272321   2.955   7.489   5.323 -1.6695 -0.4060 -1.5803
23528SOL     OW72322   0.554   2.371   7.399 -0.2507 -0.1524  0.8357
23528SOL    HW172323   0.471   2.397   7.360 -0.2970 -1.4975 -0.0162
23528SOL    HW272324   0.567   2.432   7.472 -1.5749  0.5836  0.4727
23529SOL     OW72325   8.771   4.030   9.107 -0.3084  0.2164 -0.2544
23529SOL    HW172326   8.789   4.021   9.201 -2.8417  1.2269  0.4349
23529SOL    HW272327   8.744   3.942   9.079  1.0969 -0.2400 -0.2250
23530SOL     OW72328   7.719   3.584   3.325  0.1577  0.1185 -0.1346
23530SOL    HW172329   7.633   3.602   3.363  0.9008 -0.9226  2.1983
23530SOL    HW272330   7.770   3.663   3.342 -0.1324  0.5020 -0.9840
23531SOL     OW72331   0.554   8.093   0.895  0.0738  0.4109 -0.2595
23531SOL    HW172332   0.572   8.135   0.810 -0.9551  2.3019  0.3925
23531SOL    HW272333   0.553   8.166   0.957 -2.9932 -0.3658  0.7730
23532SOL     OW72334   8.675   1.365   3.271  0.3263 -0.2927 -0.7455
23532SOL    HW172335   8.745   1.388   3.332 -1.8958 -0.0623  1.8750
23532SOL    HW272336   8.617   1.441   3.269  0.1915 -0.3599 -3.0935
23533SOL     OW72337   2.207   2.591   1.391 -0.6543  0.6424 -0.5549
23533SOL    HW172338   2.186   2.607   1.299  1.0008 -0.6157 -1.2060
23533SOL    HW272339   2.205   2.496   1.400 -1.8032  0.7663  1.0109
23534SOL     OW72340   2.372   7.781   1.937 -0.0314 -0.0983  0.0706
23534SOL    HW172341   2.331   7.806   1.855 -0.9714  0.6875  0.7539
23534SOL    HW272342   2.303   7.794   2.003  0.7922 -0.4133  1.0133
23535SOL     OW72343   3.822   4.264   6.383  0.2009  0.2051  0.1839
23535SOL    HW172344   3.819   4.182   6.432 -1.5924  1.2804  2.0421
23535SOL    HW272345   3.818   4.238   6.291  1.9958 -1.8321  0.5884
23536SOL     OW72346   0.940   5.176   5.750 -0.4466 -0.4333  0.0956
23536SOL    HW172347   0.956   5.269   5.736 -0.1647 -0.5718 -0.5357
23536SOL    HW272348   0.860   5.173   5.802  0.3780  0.2112  1.4952
23537SOL     OW72349   2.630   0.423   2.415  0.2270 -0.9542  0.3777
23537SOL    HW172350   2.594   0.338   2.439  0.9755 -1.2757  0.3625
23537SOL    HW272351   2.560   0.464   2.363 -0.2522 -1.4306  0.6334
23538SOL     OW72352   3.725   9.530   8.288  0.0356  0.2468 -0.2828
23538SOL    HW172353   3.695   9.545   8.377 -0.5290  0.1179 -0.4444
23538SOL    HW272354   3.699   9.609   8.240  1.1943  0.7409 -0.1336
23539SOL     OW72355   5.526   5.289   9.218  0.1734 -0.9063  0.6656
23539SOL    HW172356   5.608   5.271   9.172 -0.6856 -1.9084 -0.5196
23539SOL    HW272357   5.553   5.334   9.298  1.7126  1.0632 -0.8566
23540SOL     OW72358   0.697   1.864   4.481  0.0265 -0.3800  0.0864
23540SOL    HW172359   0.779   1.901   4.447  1.4028 -1.9859  1.4447
23540SOL    HW272360   0.694   1.776   4.443  0.0585 -1.1035  1.6897
23541SOL     OW72361   5.459   6.663   2.947  0.5244 -0.6726  0.1506
23541SOL    HW172362   5.421   6.631   3.029  0.7783 -0.8761  0.1921
23541SOL    HW272363   5.394   6.724   2.912 -0.8699 -2.6359 -0.8777
23542SOL     OW72364   1.864   7.722   2.950 -0.0748 -0.2969 -0.4720
23542SOL    HW172365   1.848   7.744   2.858  1.3872 -1.0925 -0.9441
23542SOL    HW272366   1.872   7.627   2.951  0.9055 -0.2187  0.3098
23543SOL     OW72367   6.102   4.228   7.672 -0.2316 -0.5219 -0.4015
23543SOL    HW172368   6.016   4.231   7.713 -0.6665 -0.1589 -1.3213
23543SOL    HW272369   6.106   4.306   7.617  0.5617 -0.7025 -0.6142
23544SOL     OW72370   5.320   1.027   3.040  0.3736  1.1356  0.2867
23544SOL    HW172371   5.321   0.932   3.048 -0.4190  1.1222  0.2997
23544SOL    HW272372   5.285   1.058   3.124 -0.4948  1.3700 -0.1481
23545SOL     OW72373   4.466   4.704   1.511 -0.1529  0.5544  0.0180
23545SOL    HW172374   4.385   4.668   1.545 -1.9574  3.1209 -1.2238
23545SOL    HW272375   4.532   4.638   1.531 -1.9986 -0.5054  3.4267
23546SOL     OW72376   4.653   4.812   8.927  0.5443  0.0575  0.3987
23546SOL    HW172377   4.584   4.877   8.939  0.5743 -0.2755  2.6415
23546SOL    HW272378   4.735   4.862   8.934  0.7805  0.8440 -4.2262
23547SOL     OW72379   7.551   1.114   3.626  0.2486  0.1141  0.1891
23547SOL    HW172380   7.540   1.141   3.535  0.4569 -1.1542 -0.2380
23547SOL    HW272381   7.493   1.171   3.676  0.6304  1.2742 -0.6508
23548SOL     OW72382   2.118   6.561   1.267  0.6261 -0.2356 -0.1377
23548SOL    HW172383   2.186   6.509   1.223  2.1038  0.2932  1.4187
23548SOL    HW272384   2.104   6.516   1.350  1.6960  1.6210  1.0987
23549SOL     OW72385   0.498   9.602   5.452  0.4778  0.9290 -0.6118
23549SOL    HW172386   0.491   9.536   5.522  2.8632  1.7242  0.4722
23549SOL    HW272387   0.591   9.604   5.431  0.1040  2.3225 -2.2754
23550SOL     OW72388   5.093   3.453   8.748 -0.3113  0.1361 -0.9739
23550SOL    HW172389   5.172   3.508   8.753  0.3193 -0.8409  2.1421
23550SOL    HW272390   5.127   3.364   8.746 -1.2044 -0.3769  1.9945
23551SOL     OW72391   7.002   6.958   4.400 -0.3997  0.1687  0.1837
23551SOL    HW172392   7.026   7.007   4.479 -0.5768 -0.9895  0.9938
23551SOL    HW272393   6.931   7.008   4.362 -0.5445  0.5770  0.9605
23552SOL     OW72394   6.649   2.560   2.034 -0.5771  0.3713 -0.5193
23552SOL    HW172395   6.583   2.551   1.966 -1.3485 -0.2166  0.2723
23552SOL    HW272396   6.683   2.649   2.024 -0.6074  0.2685 -1.7047
23553SOL     OW72397   4.653   0.851   3.069 -0.4424  0.2118 -0.2214
23553SOL    HW172398   4.691   0.937   3.087  0.9669 -0.2830 -0.7040
23553SOL    HW272399   4.724   0.802   3.027 -0.9681 -1.4488  0.7702
23554SOL     OW72400   6.887   2.778   5.049  0.0957  0.5391  0.2128
23554SOL    HW172401   6.806   2.729   5.035  0.4818  0.1131 -0.5771
23554SOL    HW272402   6.879   2.854   4.991  0.1743  0.6001  0.2808
23555SOL     OW72403   6.822   0.310   5.271 -0.0331  0.4273  0.2089
23555SOL    HW172404   6.809   0.378   5.205 -0.0758  0.8595  0.6543
23555SOL    HW272405   6.894   0.256   5.237 -0.2479  0.4763 -0.3210
23556SOL     OW72406   3.966   6.164   3.509 -0.5168 -0.1247  0.8730
23556SOL    HW172407   3.947   6.254   3.534  2.2391  0.3028  1.7454
23556SOL    HW272408   3.937   6.112   3.584 -0.7368  0.1962  1.0130
23557SOL     OW72409   6.540   5.506   8.729 -0.2846  0.7087 -0.0324
23557SOL    HW172410   6.492   5.474   8.805  0.5180  0.7506  0.5099
23557SOL    HW272411   6.473   5.539   8.670 -1.2616 -2.7982 -1.0703
23558SOL     OW72412   2.757   6.229   6.993  0.0391  0.1998 -0.1588
23558SOL    HW172413   2.787   6.317   7.015 -0.1990  0.1553  0.3708
23558SOL    HW272414   2.667   6.241   6.964 -0.1585  0.0787  0.3901
23559SOL     OW72415   6.971   6.293   0.244 -0.2141 -0.2433  0.8563
23559SOL    HW172416   7.012   6.222   0.294  1.0900  0.8323  1.3520
23559SOL    HW272417   7.026   6.302   0.166 -2.8609 -2.6964 -1.5542
23560SOL     OW72418   8.187   8.921   3.572  0.4654 -0.2040 -0.1230
23560SOL    HW172419   8.254   8.861   3.604  0.7584 -0.1941 -0.7001
23560SOL    HW272420   8.229   8.965   3.497 -0.2791 -0.3999 -0.6613
23561SOL     OW72421   5.444   7.746   2.782 -0.3196 -0.0658 -0.3326
23561SOL    HW172422   5.399   7.801   2.717  1.6721  2.6060  0.3848
23561SOL    HW272423   5.405   7.771   2.866  0.8623  0.5342  0.0461
23562SOL     OW72424   3.216   7.495   0.415  0.0442  0.0623 -0.2937
23562SOL    HW172425   3.187   7.580   0.380  0.8300  1.2573  1.7618
23562SOL    HW272426   3.310   7.495   0.402 -0.0431 -0.8615 -0.9829
23563SOL     OW72427   6.676   5.229   8.170  0.6514 -0.0259  0.5971
23563SOL    HW172428   6.714   5.144   8.149 -0.8650 -0.4673 -0.5002
23563SOL    HW272429   6.628   5.254   8.091  1.3403  2.0350  0.7527
23564SOL     OW72430   3.200   1.425   9.489 -0.0235  0.2063  0.1565
23564SOL    HW172431   3.230   1.498   9.435  2.8035 -0.8254  0.1586
23564SOL    HW272432   3.106   1.420   9.473  0.1641  2.0832 -2.0046
23565SOL     OW72433   5.336   4.467   7.106 -0.0748 -0.3436  0.1296
23565SOL    HW172434   5.308   4.532   7.170  0.7091 -0.8409  1.0156
23565SOL    HW272435   5.259   4.413   7.090 -0.4742  0.2343  0.0914
23566SOL     OW72436   2.641   5.084   7.531  0.4926  0.4360 -0.4619
23566SOL    HW172437   2.577   5.139   7.486  0.9711  0.9861 -0.4886
23566SOL    HW272438   2.725   5.111   7.494  0.7550 -0.1739 -0.3206
23567SOL     OW72439   5.037   4.340   4.849  0.4763 -0.1891 -0.1413
23567SOL    HW172440   4.970   4.406   4.870  1.7776  0.6295  1.8535
23567SOL    HW272441   5.001   4.258   4.882  0.0642  0.0783  0.0852
23568SOL     OW72442   9.155   5.747   1.982  0.8517 -0.0724  0.1063
23568SOL    HW172443   9.248   5.746   2.006  0.5611 -0.1458  1.2861
23568SOL    HW272444   9.151   5.698   1.900  1.5795 -2.0880  1.1804
23569SOL     OW72445   1.343   7.458   1.113  0.5056  0.3740 -0.0969
23569SOL    HW172446   1.426   7.491   1.080  0.7398  0.1207  0.2212
23569SOL    HW272447   1.366   7.413   1.195  0.0310  0.4585  0.0878
23570SOL     OW72448   9.538   5.554   6.000  0.3594  0.1681 -0.1528
23570SOL    HW172449   9.452   5.533   5.965  0.2980 -1.0250  0.6437
23570SOL    HW272450   9.597   5.490   5.960  0.4708 -0.4974  1.0359
23571SOL     OW72451   2.722   4.156   2.273 -0.1791  0.0690  0.6764
23571SOL    HW172452   2.817   4.168   2.269 -0.3613  1.4049  0.0487
23571SOL    HW272453   2.687   4.213   2.205 -1.2837 -2.3763 -0.9959
23572SOL     OW72454   6.146   6.165   4.857  0.3561  0.1348 -0.0122
23572SOL    HW172455   6.147   6.202   4.946 -1.5083 -1.2932  0.6792
23572SOL    HW272456   6.238   6.154   4.835  0.8954  1.7200  1.2139
23573SOL     OW72457   1.947   3.278   2.025 -0.7712 -0.0747  0.4508
23573SOL    HW172458   1.983   3.225   2.097 -1.6026 -0.1531  0.8158
23573SOL    HW272459   2.016   3.277   1.958  0.5670  1.0784  1.7385
23574SOL     OW72460   0.962   5.602   5.743  0.0587  0.4111  0.5042
23574SOL    HW172461   0.996   5.620   5.830 -0.1460  0.0447  0.6602
23574SOL    HW272462   0.994   5.675   5.689  1.2684 -0.0293  0.5946
23575SOL     OW72463   1.464   7.538   2.887 -0.5071  0.4108  0.3110
23575SOL    HW172464   1.391   7.589   2.851 -1.0618 -0.9595 -0.6053
23575SOL    HW272465   1.533   7.545   2.822 -0.7313 -0.3203 -0.0122
23576SOL     OW72466   4.845   3.023   5.970 -0.1091 -0.4348  0.2970
23576SOL    HW172467   4.923   2.993   5.923 -0.5226 -1.3764  0.1918
23576SOL    HW272468   4.854   3.118   5.973  0.0384 -0.3568 -1.4948
23577SOL     OW72469   9.118   4.180   7.848  0.0956 -0.2909  0.1202
23577SOL    HW172470   9.145   4.228   7.770  1.0595 -0.3087  0.4324
23577SOL    HW272471   9.059   4.239   7.894  1.5980  0.7967  0.7217
23578SOL     OW72472   5.692   9.313   9.485  0.6956 -0.2820 -0.1550
23578SOL    HW172473   5.598   9.333   9.488  0.7818  0.2056 -0.6245
23578SOL    HW272474   5.727   9.350   9.566  0.0458 -2.8886  1.4505
23579SOL     OW72475   8.372   9.088   7.688 -0.2746 -0.1150  0.0481
23579SOL    HW172476   8.282   9.080   7.656 -0.0149  0.8119 -0.9786
23579SOL    HW272477   8.410   9.159   7.636  1.5504 -1.5282 -0.6690
23580SOL     OW72478   5.982   1.139   0.401  0.0249  0.2452  0.0816
23580SOL    HW172479   6.072   1.156   0.375 -0.0406 -0.1230 -0.4004
23580SOL    HW272480   5.947   1.083   0.332 -0.7898  0.9538 -0.0839
23581SOL     OW72481   1.541   9.499   3.426  0.1236  0.5920 -0.2599
23581SOL    HW172482   1.604   9.516   3.355  0.0751  1.0652 -0.1918
23581SOL    HW272483   1.457   9.490   3.381  0.3400 -0.8346 -0.4365
23582SOL     OW72484   3.815   0.449   4.857 -0.2441  0.1792  0.1796
23582SOL    HW172485   3.808   0.463   4.952 -0.1330  0.1894  0.1864
23582SOL    HW272486   3.725   0.454   4.825 -0.6604 -2.5274  0.6710
23583SOL     OW72487   8.585   9.310   1.484  0.2888 -0.1157  0.4981
23583SOL    HW172488   8.554   9.222   1.464  0.7210 -0.7045  2.2580
23583SOL    HW272489   8.652   9.328   1.418 -1.5900 -0.0201 -1.4854
23584SOL     OW72490   4.735   5.741   5.666 -0.1161  0.0864  0.1403
23584SOL    HW172491   4.798   5.671   5.685 -0.9627 -0.7806 -0.1488
23584SOL    HW272492   4.664   5.726   5.727 -0.2314  0.8106  0.1885
23585SOL     OW72493   5.732   6.218   9.113 -0.3214  0.0640  0.4460
23585SOL    HW172494   5.646   6.204   9.072 -0.3825 -0.1234  0.6370
23585SOL    HW272495   5.728   6.307   9.148 -0.6749 -0.1774  1.0295
23586SOL     OW72496   4.365   8.192   4.434  0.2133 -0.0572 -0.2057
23586SOL    HW172497   4.326   8.107   4.413  1.4565 -0.4830 -0.9087
23586SOL    HW272498   4.440   8.170   4.491  0.1831  0.6278  0.1042
23587SOL     OW72499   6.158   7.702   0.483  0.0494  0.8338  0.1833
23587SOL    HW172500   6.182   7.721   0.574  1.2312  1.3096 -0.2036
23587SOL    HW272501   6.098   7.773   0.459 -0.2225  0.7362  0.5819
23588SOL     OW72502   0.287   2.126   4.163 -0.0866  0.5375  0.0530
23588SOL    HW172503   0.238   2.160   4.089 -0.0417 -0.8070 -0.6143
23588SOL    HW272504   0.221   2.108   4.230 -0.2953  0.3506 -0.2037
23589SOL     OW72505   2.903   0.791   0.099 -0.3075  0.4656  0.4262
23589SOL    HW172506   2.904   0.727   0.170  0.2088 -1.0037 -0.8652
23589SOL    HW272507   2.995   0.804   0.076 -0.4817  0.6507 -0.1982
23590SOL     OW72508   6.244   0.588   3.657  0.3720  0.6156  0.0375
23590SOL    HW172509   6.158   0.627   3.672  0.3987  0.5081  0.5084
23590SOL    HW272510   6.275   0.628   3.576 -0.8866 -0.6642 -1.1514
23591SOL     OW72511   2.279   1.969   7.960 -0.4340  0.4631  0.6742
23591SOL    HW172512   2.311   2.025   8.031 -0.2695  0.3183  0.7141
23591SOL    HW272513   2.190   1.999   7.944  0.5050  2.5394 -1.1197
23592SOL     OW72514   1.831   0.048   8.620  0.4657  0.0580  0.4292
23592SOL    HW172515   1.889  -0.028   8.620  0.6740  0.1747 -1.5192
23592SOL    HW272516   1.888   0.123   8.638  0.9724  0.1679 -1.4444
23593SOL     OW72517   4.413   7.249   2.895 -0.3340 -0.1996  0.1190
23593SOL    HW172518   4.393   7.159   2.917  2.1045  0.0638  4.3540
23593SOL    HW272519   4.473   7.243   2.821 -0.2260 -2.0437  0.3168
23594SOL     OW72520   0.794   1.056   4.212 -0.1055  0.0856  0.0166
23594SOL    HW172521   0.859   1.125   4.203 -0.5063  0.5995  0.9152
23594SOL    HW272522   0.784   1.020   4.124  0.9162  0.4312 -0.2452
23595SOL     OW72523   5.680   1.372   4.036  0.4432  0.1125 -0.2754
23595SOL    HW172524   5.657   1.338   3.950  1.1598  1.2462 -0.9275
23595SOL    HW272525   5.597   1.403   4.072  0.1670 -0.2351 -0.6053
23596SOL     OW72526   7.278   4.386   7.231 -0.1649  0.2483 -0.2460
23596SOL    HW172527   7.340   4.316   7.251  1.8178  2.1338  0.5456
23596SOL    HW272528   7.223   4.391   7.309  0.0548 -0.0327 -0.0682
23597SOL     OW72529   0.108   8.252   7.405 -0.2743  0.7090 -0.0145
23597SOL    HW172530   0.118   8.254   7.310 -0.4358  0.4224 -0.0390
23597SOL    HW272531   0.105   8.344   7.431  0.6421  0.7938 -0.1912
23598SOL     OW72532   6.540   0.374   6.842  0.2338  0.0444 -0.0776
23598SOL    HW172533   6.478   0.377   6.769  0.3667  0.7449 -0.1641
23598SOL    HW272534   6.615   0.326   6.808  0.3217  0.4246 -0.4205
23599SOL     OW72535   7.155   9.441   9.552 -0.1620 -0.4986  0.4408
23599SOL    HW172536   7.142   9.349   9.527  2.5333 -0.2969 -2.4472
23599SOL    HW272537   7.075   9.485   9.523  0.4233 -1.3040 -2.9094
23600SOL     OW72538   6.825   1.916   2.512 -0.0612 -0.7430 -0.2632
23600SOL    HW172539   6.893   1.981   2.531  2.8002 -3.3375 -0.6481
23600SOL    HW272540   6.874   1.834   2.504 -3.3425 -2.8278 -0.5474
23601SOL     OW72541   9.516   7.597   4.786  0.1889  0.0434  0.2043
23601SOL    HW172542   9.496   7.581   4.694  0.7153 -0.7419  0.2130
23601SOL    HW272543   9.436   7.572   4.832  0.3798 -0.8855  0.0578
23602SOL     OW72544   4.465   2.691   3.598 -0.0323 -0.0871  0.2060
23602SOL    HW172545   4.425   2.673   3.512  2.6561 -1.3580 -0.9128
23602SOL    HW272546   4.427   2.626   3.656 -0.4545 -0.5177 -0.5326
23603SOL     OW72547   3.141   0.410   2.645 -0.2398  0.3508  0.4709
23603SOL    HW172548   3.076   0.476   2.669 -0.0825  0.8569 -0.4770
23603SOL    HW272549   3.098   0.356   2.579  0.0935  0.3025  0.2929
23604SOL     OW72550   0.949   8.349   7.535 -0.0146 -0.1703  0.6158
23604SOL    HW172551   0.980   8.379   7.450 -0.1812 -1.4140  0.0864
23604SOL    HW272552   0.880   8.410   7.560  0.0570  0.2215 -0.1324
23605SOL     OW72553   6.827   3.765   7.657  0.2714  0.4840  0.2636
23605SOL    HW172554   6.765   3.830   7.624  0.7592  0.8240  0.0074
23605SOL    HW272555   6.834   3.700   7.588 -0.9866 -0.3848  0.9303
23606SOL     OW72556   7.770   2.552   2.429  0.8831  0.7495  0.1179
23606SOL    HW172557   7.693   2.607   2.440 -0.1182 -0.7891  1.1485
23606SOL    HW272558   7.779   2.506   2.512  1.5725 -0.7462 -0.7402
23607SOL     OW72559   5.001   1.027   2.945  0.2686 -0.4974 -0.5523
23607SOL    HW172560   4.994   0.932   2.947  1.7569 -0.6799  2.9377
23607SOL    HW272561   5.095   1.045   2.937  0.1056  0.6230 -0.2053
23608SOL     OW72562   1.904   3.092   9.487 -0.3493 -0.2006 -0.2050
23608SOL    HW172563   1.992   3.090   9.523 -0.3461 -1.4159 -0.2484
23608SOL    HW272564   1.880   3.000   9.474 -0.8448  0.1384 -2.0963
23609SOL     OW72565   3.173   6.955   3.903  0.3478  0.1399 -0.5369
23609SOL    HW172566   3.088   6.984   3.934  0.2454  1.0722 -1.6394
23609SOL    HW272567   3.230   7.032   3.911  1.1139 -0.4905  0.2612
23610SOL     OW72568   7.315   4.819   6.891 -0.6991  0.1670 -0.6300
23610SOL    HW172569   7.258   4.871   6.948  0.4748  1.0348 -0.1922
23610SOL    HW272570   7.354   4.754   6.949  1.5837  1.9303 -0.0225
23611SOL     OW72571   5.513   7.550   8.300 -0.3606 -0.2136 -0.2832
23611SOL    HW172572   5.455   7.588   8.234 -1.0701  1.1101  1.0234
23611SOL    HW272573   5.500   7.456   8.293 -1.2410 -0.0364 -1.2873
23612SOL     OW72574   1.478   8.185   6.613  0.4474 -0.5317  0.3093
23612SOL    HW172575   1.569   8.215   6.603  0.6384 -1.4747 -1.0936
23612SOL    HW272576   1.475   8.103   6.564 -0.8902 -1.0939  1.2948
23613SOL     OW72577   0.030   4.537   6.287 -0.1320  0.0234 -1.0490
23613SOL    HW172578   0.086   4.462   6.267  2.3342  1.3910  0.2401
23613SOL    HW272579   0.009   4.527   6.380  0.0192  0.8049 -0.9262
23614SOL     OW72580   9.320   1.171   6.673  0.2286 -0.2956  0.5575
23614SOL    HW172581   9.373   1.213   6.741  2.1326  2.0099 -2.1244
23614SOL    HW272582   9.380   1.111   6.629 -0.4840 -0.5288 -0.1186
23615SOL     OW72583   3.126   7.507   7.825 -0.1755 -0.8787  1.1405
23615SOL    HW172584   3.051   7.526   7.769  0.0207 -4.0439 -0.3717
23615SOL    HW272585   3.106   7.423   7.866  3.4440 -3.3210 -1.4083
23616SOL     OW72586   9.252   3.309   9.168  0.2980  0.1968  0.6288
23616SOL    HW172587   9.171   3.344   9.133  0.9266  1.2256  0.1794
23616SOL    HW272588   9.315   3.316   9.097  1.5560  2.1618  1.8315
23617SOL     OW72589   3.169   6.612   7.968 -0.2172  0.3901 -0.6237
23617SOL    HW172590   3.197   6.654   8.049  1.2946  0.5839 -1.2065
23617SOL    HW272591   3.074   6.611   7.972 -0.3065  3.1161 -0.2068
23618SOL     OW72592   8.881   4.872   4.594  0.1747  0.1307 -0.0896
23618SOL    HW172593   8.847   4.873   4.505  0.0039 -0.1087 -0.0274
23618SOL    HW272594   8.814   4.826   4.645  0.5635 -0.3092  0.0392
23619SOL     OW72595   2.921   4.008   1.233  0.2612 -0.4439 -0.5338
23619SOL    HW172596   2.845   3.949   1.233 -1.0104  1.1304 -0.3322
23619SOL    HW272597   2.980   3.971   1.299 -1.6522 -0.1386  1.4927
23620SOL     OW72598   9.356   2.730   4.083 -0.4128 -0.0168  0.2668
23620SOL    HW172599   9.387   2.804   4.031 -0.4957 -0.5343 -0.5272
23620SOL    HW272600   9.435   2.681   4.105 -0.5163 -0.6760 -0.7454
23621SOL     OW72601   6.962   4.723   2.986 -0.0349 -0.3425  0.3879
23621SOL    HW172602   6.996   4.710   3.074 -0.6146 -0.1048  0.6544
23621SOL    HW272603   6.904   4.648   2.971 -0.0387 -0.3141  0.2600
23622SOL     OW72604   2.238   0.184   8.650 -0.0746  0.1253  0.4402
23622SOL    HW172605   2.293   0.260   8.668  0.2781 -0.5036  2.2303
23622SOL    HW272606   2.287   0.133   8.586 -0.0600  1.1050 -0.3568
23623SOL     OW72607   7.061   1.297   0.282  0.6864  0.2898  0.2352
23623SOL    HW172608   7.061   1.391   0.300 -0.7269  0.2629  0.4781
23623SOL    HW272609   7.060   1.256   0.368 -1.6104  0.1156  0.1877
23624SOL     OW72610   6.882   7.866   3.018  0.3399  0.2634 -0.0254
23624SOL    HW172611   6.906   7.839   3.107 -0.7114  0.1073  0.2246
23624SOL    HW272612   6.857   7.958   3.027 -0.9806 -0.0909  0.0940
23625SOL     OW72613   2.036   7.525   3.196  0.2017  0.1213 -0.1166
23625SOL    HW172614   1.986   7.450   3.163  0.4020 -0.2654  0.4523
23625SOL    HW272615   2.096   7.488   3.260  0.2284  0.7866  0.2506
23626SOL     OW72616   7.066   5.190   7.960 -0.3318  0.0034  0.1820
23626SOL    HW172617   7.134   5.254   7.939 -0.2426 -0.0151  0.4227
23626SOL    HW272618   7.092   5.152   8.043  0.2696 -1.2274 -0.5307
23627SOL     OW72619   3.158   7.044   8.407  0.6432  0.2274 -0.4032
23627SOL    HW172620   3.226   7.003   8.355  0.7043  1.0060 -0.9552
23627SOL    HW272621   3.201   7.069   8.488  0.6635 -0.5569 -0.1646
23628SOL     OW72622   0.108   1.943   8.478  0.2909 -0.2268 -0.9012
23628SOL    HW172623   0.022   1.977   8.452 -0.2690  0.4725  1.5886
23628SOL    HW272624   0.096   1.848   8.478 -0.9236 -0.1195  0.6041
23629SOL     OW72625   6.178   9.398   8.640  0.1624  0.7732 -0.4059
23629SOL    HW172626   6.139   9.435   8.719 -0.4346  1.3924 -0.9785
23629SOL    HW272627   6.113   9.414   8.571  0.9182  0.7462 -1.1421
23630SOL     OW72628   2.106   0.648   4.597  0.0087 -0.2227  0.0679
23630SOL    HW172629   2.155   0.661   4.516 -0.6127 -0.7776 -0.4037
23630SOL    HW272630   2.092   0.737   4.630  0.6390 -0.0173 -0.2063
23631SOL     OW72631   5.774   4.630   4.990 -0.4189  0.2091  0.5968
23631SOL    HW172632   5.831   4.600   5.061 -0.8861 -0.2099  0.8017
23631SOL    HW272633   5.763   4.723   5.005  1.8294  0.7350 -0.5748
23632SOL     OW72634   3.132   5.383   1.254 -0.0702  0.0552  0.0231
23632SOL    HW172635   3.075   5.404   1.328  1.3441  1.6023  0.7458
23632SOL    HW272636   3.166   5.296   1.274 -1.3343 -0.4381  0.1032
23633SOL     OW72637   9.069   8.903   3.078 -0.2715 -0.4332 -0.5369
23633SOL    HW172638   9.138   8.959   3.041 -0.0187  2.4548  3.6101
23633SOL    HW272639   9.101   8.814   3.063  1.7214  0.5756 -3.2843
23634SOL     OW72640   2.510   6.798   4.102  0.3517 -0.1363 -0.0460
23634SOL    HW172641   2.566   6.786   4.025  1.0341  0.7419  0.2913
23634SOL    HW272642   2.470   6.884   4.089 -2.6910 -1.6214 -1.3440
23635SOL     OW72643   9.138   0.835   7.669  0.4924  0.3419  0.2477
23635SOL    HW172644   9.115   0.773   7.739  1.0118 -0.2373 -0.0781
23635SOL    HW272645   9.103   0.794   7.589 -1.6591  1.8248  0.3296
23636SOL     OW72646   0.647   9.439   4.407  0.0184  0.1541  0.2119
23636SOL    HW172647   0.601   9.358   4.384  1.3353 -0.2712 -1.1274
23636SOL    HW272648   0.585   9.509   4.389 -0.8802 -0.5103  0.6590
23637SOL     OW72649   6.387   4.951   8.379 -0.0191 -0.1903  0.2642
23637SOL    HW172650   6.320   4.883   8.372  0.0232 -0.0596 -1.9767
23637SOL    HW272651   6.347   5.018   8.435 -0.5399 -1.4520  1.4672
23638SOL     OW72652   2.858   0.112   5.235 -0.1876 -0.0675  0.0948
23638SOL    HW172653   2.930   0.167   5.264 -1.1314  1.3350 -0.1345
23638SOL    HW272654   2.847   0.132   5.142 -0.0851 -1.1937 -0.1748
23639SOL     OW72655   0.160   3.411   5.500  0.3895  0.0896 -0.5397
23639SOL    HW172656   0.254   3.426   5.501  0.3486  0.5561  1.8546
23639SOL    HW272657   0.133   3.438   5.412  2.5039 -0.3642 -1.3945
23640SOL     OW72658   1.488   7.278   0.015  0.0625 -0.5259  0.0950
23640SOL    HW172659   1.403   7.250  -0.018 -0.4471  1.5034 -0.4535
23640SOL    HW272660   1.472   7.363   0.055  1.8876  0.0540 -0.2886
23641SOL     OW72661   5.485   5.689   7.904 -0.1265 -0.1829  0.4393
23641SOL    HW172662   5.436   5.754   7.854 -1.0795 -0.3161  1.1591
23641SOL    HW272663   5.418   5.643   7.955  0.6263 -1.1813  0.5549
23642SOL     OW72664   9.494   2.888   6.073  0.3399 -1.0802 -0.2052
23642SOL    HW172665   9.578   2.904   6.116  1.3859 -0.4049 -2.3417
23642SOL    HW272666   9.428   2.922   6.134  1.7169 -0.1472  0.8125
23643SOL     OW72667   4.120   3.524   4.980  0.6835 -0.2802  0.4147
23643SOL    HW172668   4.147   3.582   5.051 -1.0920  0.5387  0.4542
23643SOL    HW272669   4.185   3.453   4.981  1.1632  0.1486  2.3004
23644SOL     OW72670   6.576   2.751   0.501 -0.1094 -0.3462 -0.1067
23644SOL    HW172671   6.639   2.752   0.429 -0.3554 -0.4137 -0.3259
23644SOL    HW272672   6.491   2.737   0.459 -0.6926  2.6091 -0.1280
23645SOL     OW72673   1.000   1.212   4.360 -0.0798  0.4500  0.2303
23645SOL    HW172674   0.959   1.182   4.441 -0.1659  0.3686  0.1564
23645SOL    HW272675   1.016   1.305   4.374  0.3237  0.3425  0.5203
23646SOL     OW72676   4.197   7.814   6.227  0.3466 -0.2685  0.2711
23646SOL    HW172677   4.241   7.742   6.273  0.3839  0.5873  1.6544
23646SOL    HW272678   4.268   7.873   6.201  0.1376  1.3649  2.9408
23647SOL     OW72679   4.028   3.560   4.554  0.7256  0.7220  0.1696
23647SOL    HW172680   3.951   3.565   4.611 -0.3931 -1.4234 -1.0540
23647SOL    HW272681   4.038   3.649   4.520 -1.6343  0.9145 -0.1672
23648SOL     OW72682   3.799   8.777   3.781  0.1864 -0.0169 -0.3352
23648SOL    HW172683   3.752   8.822   3.711  0.4937  1.7105  0.5171
23648SOL    HW272684   3.747   8.699   3.799 -2.1383  1.5488  0.2221
23649SOL     OW72685   9.373   6.177   4.367  0.7051 -0.2339 -0.0803
23649SOL    HW172686   9.407   6.148   4.282 -0.0022  0.5151 -0.6435
23649SOL    HW272687   9.309   6.245   4.345 -0.0776 -0.5850  1.0152
23650SOL     OW72688   7.123   7.360   9.344  0.2867 -0.1154  0.0241
23650SOL    HW172689   7.148   7.290   9.284 -0.5858 -0.1440 -0.3249
23650SOL    HW272690   7.168   7.438   9.311  1.2144 -0.4923  0.3801
23651SOL     OW72691   5.605   6.418   7.754 -0.2126 -0.2014 -0.3215
23651SOL    HW172692   5.529   6.370   7.789  0.2139 -0.9806 -0.4376
23651SOL    HW272693   5.589   6.421   7.660 -0.7037  0.7266 -0.2168
23652SOL     OW72694   2.989   6.830   7.790 -0.3000 -0.3085 -0.3952
23652SOL    HW172695   2.956   6.779   7.864  2.2427 -1.9151 -0.2499
23652SOL    HW272696   2.946   6.794   7.713 -0.6885 -0.7068  0.0097
23653SOL     OW72697   7.823   8.736   4.766  0.2077 -0.6235  0.1749
23653SOL    HW172698   7.734   8.700   4.770 -0.1146  0.2416  1.7401
23653SOL    HW272699   7.874   8.670   4.719 -1.0840 -1.5156 -0.0201
23654SOL     OW72700   3.265   2.442   7.089  0.0851 -0.0023 -0.1170
23654SOL    HW172701   3.339   2.394   7.127  0.8483  2.1349  1.3482
23654SOL    HW272702   3.293   2.462   7.000  1.2141  0.5440  0.3321
23655SOL     OW72703   5.680   2.236   1.489  0.4623 -0.0409  0.2914
23655SOL    HW172704   5.587   2.217   1.477  0.8308 -1.6594 -0.2946
23655SOL    HW272705   5.715   2.240   1.400  1.0026  0.2590  0.5139
23656SOL     OW72706   1.141   0.175   2.869  0.4111  0.4092  0.3099
23656SOL    HW172707   1.061   0.216   2.835  0.2541 -1.2524 -1.4794
23656SOL    HW272708   1.120   0.152   2.959 -1.4566 -0.7621 -0.3830
23657SOL     OW72709   5.735   0.874   8.679  0.4313 -0.3416 -0.3521
23657SOL    HW172710   5.681   0.796   8.668  1.2538 -1.1131  0.8713
23657SOL    HW272711   5.811   0.860   8.622 -1.2382  1.4204 -3.2703
23658SOL     OW72712   4.003   0.526   1.797 -0.0971 -0.0939 -0.3188
23658SOL    HW172713   3.996   0.506   1.891  0.2042 -0.0687 -0.2896
23658SOL    HW272714   4.035   0.616   1.794  1.0335 -0.4815 -0.4353
23659SOL     OW72715   7.974   3.923   6.211  0.7025 -0.3738  0.5072
23659SOL    HW172716   8.033   3.998   6.221  0.6915 -0.5844  2.7406
23659SOL    HW272717   7.962   3.914   6.117  1.6386  1.6952  0.1308
23660SOL     OW72718   6.802   1.173   2.291 -0.0438  0.2805  0.3359
23660SOL    HW172719   6.895   1.195   2.281  0.2020 -0.5751  0.6175
23660SOL    HW272720   6.791   1.155   2.384 -0.7040  1.2471  0.4587
23661SOL     OW72721   8.732   7.581   5.647 -0.8721 -0.1182 -0.3681
23661SOL    HW172722   8.821   7.614   5.652 -0.9202  0.0556 -0.6831
23661SOL    HW272723   8.732   7.503   5.704 -0.5786  0.0044 -0.1991
23662SOL     OW72724   7.575   0.635   3.695 -0.0973 -0.0382 -0.6544
23662SOL    HW172725   7.542   0.683   3.770  1.5368 -0.2246  0.2289
23662SOL    HW272726   7.623   0.700   3.643  0.1501 -0.2372 -0.6789
23663SOL     OW72727   6.231   7.004   7.276 -0.1897 -0.0636  0.5224
23663SOL    HW172728   6.300   7.042   7.329 -1.0942  1.0607  0.9289
23663SOL    HW272729   6.152   7.051   7.302 -1.1039 -1.2747  0.0295
23664SOL     OW72730   5.795   9.338   7.205  0.2255 -0.5842  0.2442
23664SOL    HW172731   5.767   9.260   7.157 -0.8933 -0.4981  0.7184
23664SOL    HW272732   5.713   9.380   7.231  0.7082  1.8078 -1.6724
23665SOL     OW72733   2.529   9.537   7.239  0.0343  0.1133 -0.2867
23665SOL    HW172734   2.551   9.630   7.234 -1.4629  0.4510 -1.6716
23665SOL    HW272735   2.509   9.512   7.149 -1.3559 -1.0751  0.3034
23666SOL     OW72736   8.982   3.242   8.666  0.1691 -0.1129 -0.1520
23666SOL    HW172737   8.993   3.337   8.668 -0.8747  0.0873 -1.8563
23666SOL    HW272738   8.980   3.216   8.758 -0.6739  1.6585  0.3788
23667SOL     OW72739   4.616   2.783   1.310  0.0326 -0.2772 -0.6562
23667SOL    HW172740   4.601   2.794   1.217  3.5010 -0.6014 -1.3906
23667SOL    HW272741   4.704   2.745   1.316  1.0698  2.1586  2.7939
23668SOL     OW72742   4.508   4.006   7.028  0.4621  0.2744 -0.2415
23668SOL    HW172743   4.592   4.017   7.073 -1.0706 -1.2029  3.4398
23668SOL    HW272744   4.469   4.093   7.029  2.5226  1.4502 -3.7827
23669SOL     OW72745   2.925   6.858   2.709 -0.5244  0.1398  0.1914
23669SOL    HW172746   2.923   6.849   2.614  0.2541 -2.2188  0.3287
23669SOL    HW272747   2.868   6.932   2.728  0.0115  1.2326 -2.1521
23670SOL     OW72748   5.526   8.232   4.599 -0.0328  1.0223  0.2964
23670SOL    HW172749   5.617   8.242   4.628  0.3592 -3.0246  1.1317
23670SOL    HW272750   5.532   8.228   4.504  0.8271  0.1369  0.3662
23671SOL     OW72751   1.923   3.229   6.823 -0.1923 -0.1935  0.3381
23671SOL    HW172752   1.841   3.196   6.784 -0.5210 -0.4741  1.2501
23671SOL    HW272753   1.973   3.150   6.844  0.0181 -0.0390  0.4168
23672SOL     OW72754   5.849   6.782   0.014  0.3793 -0.0514 -0.4627
23672SOL    HW172755   5.823   6.708   0.069 -1.6339  1.0873  0.2093
23672SOL    HW272756   5.924   6.820   0.060  1.4879 -1.6721 -0.8571
23673SOL     OW72757   3.990   2.035   7.677 -0.1170 -0.0104 -0.0954
23673SOL    HW172758   3.947   2.075   7.602 -1.8244  2.1452  1.9201
23673SOL    HW272759   4.048   2.103   7.711 -0.3084 -0.5012  1.2626
23674SOL     OW72760   0.639   1.055   2.551 -0.4198  0.3669 -0.0407
23674SOL    HW172761   0.726   1.056   2.589 -0.4521 -0.6504  0.1034
23674SOL    HW272762   0.585   1.009   2.616 -0.7436 -0.2785 -0.7447
23675SOL     OW72763   0.471   5.292   4.014  0.1394  0.1356  0.4197
23675SOL    HW172764   0.446   5.341   3.935  0.9463 -1.8878 -1.1829
23675SOL    HW272765   0.447   5.350   4.086  1.0048  2.8739 -1.3210
23676SOL     OW72766   4.349   3.969   3.303  0.0606  0.2859 -0.2511
23676SOL    HW172767   4.323   4.040   3.245  2.0997  0.0154 -1.6271
23676SOL    HW272768   4.440   3.950   3.278 -0.3675 -2.7486  0.0831
23677SOL     OW72769   4.456   3.972   4.470 -0.0806  0.2526  0.7824
23677SOL    HW172770   4.482   4.047   4.416  1.0937  0.0010  0.9846
23677SOL    HW272771   4.423   4.012   4.551  1.0831  0.5559  1.1259
23678SOL     OW72772   1.795   1.981   9.072 -0.1267 -0.2054  0.6807
23678SOL    HW172773   1.833   2.068   9.084 -0.0592 -0.0830 -0.3503
23678SOL    HW272774   1.802   1.940   9.158 -1.5924  1.3740  1.6485
23679SOL     OW72775   0.145   3.360   3.732 -0.3173  0.0153 -0.3034
23679SOL    HW172776   0.119   3.379   3.642  1.3848  0.1754 -0.7922
23679SOL    HW272777   0.072   3.309   3.768 -1.6891  1.1926 -1.2811
23680SOL     OW72778   0.494   4.268   2.391  0.0260 -0.5709 -0.0302
23680SOL    HW172779   0.457   4.224   2.468 -0.5929  1.3667  0.8430
23680SOL    HW272780   0.458   4.220   2.317 -0.2198 -1.8270  0.8587
23681SOL     OW72781   1.130   2.738   6.451  0.0671 -0.8056 -0.3777
23681SOL    HW172782   1.047   2.700   6.421 -0.5143  0.1779 -0.0525
23681SOL    HW272783   1.171   2.771   6.371 -0.9982  0.8732 -0.2685
23682SOL     OW72784   0.681   0.469   4.618  0.4012  0.1764  0.5130
23682SOL    HW172785   0.685   0.374   4.608  1.0721  0.3040 -0.7169
23682SOL    HW272786   0.638   0.500   4.539  0.2534  0.9028  0.8675
23683SOL     OW72787   7.321   7.869   3.478 -0.0877  0.0462 -0.3743
23683SOL    HW172788   7.406   7.824   3.480  0.7437  1.5591 -0.1753
23683SOL    HW272789   7.267   7.816   3.419  0.7805 -1.2965 -0.0133
23684SOL     OW72790   2.761   9.093   0.644  0.1354  0.0462 -0.0132
23684SOL    HW172791   2.796   9.178   0.670 -0.1803  0.3224 -0.4670
23684SOL    HW272792   2.828   9.055   0.587  0.6433 -0.3795  0.8423
23685SOL     OW72793   7.779   4.784   1.892  0.4903 -0.0317 -0.2130
23685SOL    HW172794   7.841   4.711   1.897  0.6932  0.0761 -1.0172
23685SOL    HW272795   7.827   4.852   1.845 -0.7211 -0.4849 -2.2164
23686SOL     OW72796   4.595   3.348   1.567 -0.2764 -0.2025  0.0028
23686SOL    HW172797   4.659   3.418   1.580 -1.5022  0.7155  1.5347
23686SOL    HW272798   4.533   3.385   1.504  0.8610 -1.2556 -1.8245
23687SOL     OW72799   2.005   8.826   8.253 -0.2509  0.1943  0.1705
23687SOL    HW172800   1.969   8.774   8.181 -2.5817  1.7028  0.1679
23687SOL    HW272801   1.932   8.837   8.314  0.8363  1.5224  1.2944
23688SOL     OW72802   1.403   3.764   9.436 -0.2387  0.6083  0.0994
23688SOL    HW172803   1.455   3.722   9.504 -0.3424  1.8575  0.9757
23688SOL    HW272804   1.326   3.708   9.427 -0.2059  0.4050  0.9840
23689SOL     OW72805   5.817   5.868   8.449  0.6764 -0.7311 -0.1980
23689SOL    HW172806   5.805   5.787   8.498  0.9260 -0.1191  0.9196
23689SOL    HW272807   5.753   5.928   8.486  2.4654  0.4835  1.1092
23690SOL     OW72808   4.226   6.024   0.004 -0.1556  0.5932  0.0460
23690SOL    HW172809   4.163   5.976  -0.049  0.5289  0.0337 -0.2811
23690SOL    HW272810   4.212   6.116  -0.019 -0.1003  0.3870 -0.8509
23691SOL     OW72811   9.568   1.615   4.705 -0.3043 -0.4559 -0.2751
23691SOL    HW172812   9.627   1.658   4.643 -0.6973  0.7959  0.1900
23691SOL    HW272813   9.581   1.522   4.689  0.7683 -0.1844 -1.1391
23692SOL     OW72814   6.687   5.574   8.016 -0.1391  0.2925  0.0135
23692SOL    HW172815   6.593   5.555   8.017  0.0183 -0.5648  1.5941
23692SOL    HW272816   6.692   5.665   7.987 -1.5443  0.7190  0.9851
23693SOL     OW72817   8.979   5.982   6.145  0.0423  0.6734  0.1803
23693SOL    HW172818   9.013   5.937   6.068 -1.9746 -1.0912  0.2176
23693SOL    HW272819   8.901   6.028   6.115  0.4981  1.8457  0.7376
23694SOL     OW72820   1.724   9.104   4.339  0.0782 -0.3239  0.3470
23694SOL    HW172821   1.770   9.152   4.270 -0.5684 -0.7521 -0.3926
23694SOL    HW272822   1.637   9.086   4.303  0.3479 -2.1958  0.5096
23695SOL     OW72823   2.954   5.534   4.335 -0.1024 -0.5180  0.0403
23695SOL    HW172824   3.004   5.501   4.260 -1.1980 -0.1409 -0.8957
23695SOL    HW272825   3.013   5.595   4.379  1.0274 -1.7646  0.2762
23696SOL     OW72826   5.587   5.631   1.207  0.3609 -0.3607 -0.3201
23696SOL    HW172827   5.607   5.595   1.294 -0.7085 -0.3507 -0.0535
23696SOL    HW272828   5.588   5.726   1.220 -2.5428 -0.3335  0.4041
23697SOL     OW72829   6.946   2.973   6.575 -0.7904 -0.0594 -0.6426
23697SOL    HW172830   6.919   2.996   6.664  1.9365 -0.3845  0.3571
23697SOL    HW272831   6.935   2.878   6.571 -0.5417 -0.0954 -0.5027
23698SOL     OW72832   1.009   1.684   6.398  0.2475  0.4098 -0.0447
23698SOL    HW172833   0.999   1.734   6.317 -0.5451  1.8497  0.9017
23698SOL    HW272834   0.925   1.693   6.443  1.2204  1.1597  1.7578
23699SOL     OW72835   2.537   1.044   0.546  0.2470  0.5634 -0.1581
23699SOL    HW172836   2.474   0.975   0.525  0.5998 -0.6008  2.2662
23699SOL    HW272837   2.483   1.122   0.562 -0.9693 -0.8404  3.7097
23700SOL     OW72838   1.729   1.344   6.633 -0.4569 -0.1050 -0.0291
23700SOL    HW172839   1.744   1.331   6.539 -0.4673 -1.4179  0.1328
23700SOL    HW272840   1.646   1.300   6.650 -0.1690 -0.3705  0.7105
23701SOL     OW72841   2.875   3.623   1.946  0.1202 -0.4754 -0.1881
23701SOL    HW172842   2.805   3.660   2.000 -0.1511 -0.3286 -0.6366
23701SOL    HW272843   2.952   3.674   1.969 -0.0991 -0.0930 -0.2897
23702SOL     OW72844   0.867   2.567   1.699  0.0822  0.8284 -0.0572
23702SOL    HW172845   0.849   2.609   1.615  0.8405  0.1547 -0.5804
23702SOL    HW272846   0.927   2.495   1.677 -1.1494 -0.5086  0.8047
23703SOL     OW72847   3.621   3.988   6.650  0.2971  0.2005 -0.3574
23703SOL    HW172848   3.691   3.981   6.586  0.9339 -1.5262  0.4501
23703SOL    HW272849   3.658   3.951   6.730 -1.0886  0.5308  0.4768
23704SOL     OW72850   6.527   3.652   5.912 -0.4132  0.6996  0.8247
23704SOL    HW172851   6.620   3.670   5.922  0.2871 -1.7132 -0.6214
23704SOL    HW272852   6.522   3.559   5.892 -3.1502  0.7660  0.7931
23705SOL     OW72853   6.777   1.398   2.085  0.1735  0.0172 -0.0245
23705SOL    HW172854   6.773   1.467   2.151 -1.7887  0.0346 -0.1226
23705SOL    HW272855   6.759   1.318   2.134  0.9385 -0.2565 -0.1766
23706SOL     OW72856   4.513   3.608   6.923 -0.2901 -0.0454 -0.1526
23706SOL    HW172857   4.535   3.680   6.864 -0.4241  0.5444  0.5059
23706SOL    HW272858   4.525   3.644   7.011 -2.4301 -0.1361  0.2344
23707SOL     OW72859   1.877   3.063   3.903 -0.1254  0.0742  0.0371
23707SOL    HW172860   1.907   3.089   3.816 -0.4959  1.1750  0.2261
23707SOL    HW272861   1.786   3.090   3.907 -0.5859 -1.4324  0.2002
23708SOL     OW72862   5.102   2.752   3.602 -0.3294  0.1871 -0.7539
23708SOL    HW172863   5.093   2.675   3.546 -0.2664  0.2644 -0.8696
23708SOL    HW272864   5.049   2.731   3.679  0.6055 -0.4533 -0.2713
23709SOL     OW72865   8.981   3.765   7.239 -0.8096 -0.4011  0.1334
23709SOL    HW172866   8.960   3.855   7.212  0.1248 -0.0355  0.5691
23709SOL    HW272867   8.897   3.719   7.236 -1.0520  0.0380 -1.7636
23710SOL     OW72868   0.048   8.283   4.163  0.0331  0.5788  0.6381
23710SOL    HW172869  -0.006   8.222   4.213 -0.0550 -0.4179 -0.6234
23710SOL    HW272870   0.001   8.366   4.167 -0.6192  0.1972  1.1084
23711SOL     OW72871   6.441   6.054   6.655 -0.1361  0.3019  0.2268
23711SOL    HW172872   6.501   6.038   6.582 -0.6148  2.1188 -0.6260
23711SOL    HW272873   6.490   6.026   6.733  1.7565  1.5000 -0.4497
23712SOL     OW72874   3.974   8.759   9.386  0.2017 -0.0293  0.2535
23712SOL    HW172875   3.944   8.793   9.301 -2.0833  0.3250  1.1371
23712SOL    HW272876   3.904   8.699   9.414  0.3943  0.6515  2.3521
23713SOL     OW72877   9.455   5.983   0.308 -0.3938 -0.7361 -0.2354
23713SOL    HW172878   9.392   5.912   0.321  0.8620 -1.9365 -0.3908
23713SOL    HW272879   9.541   5.940   0.315  0.4037  0.5492 -1.4980
23714SOL     OW72880   6.600   7.121   9.550 -0.0130  0.1574  0.3121
23714SOL    HW172881   6.558   7.148   9.468 -0.2838 -0.4639  0.2326
23714SOL    HW272882   6.692   7.146   9.540 -0.4137  1.8310  0.6208
23715SOL     OW72883   5.518   7.852   3.726 -0.0938 -0.1008 -0.1820
23715SOL    HW172884   5.519   7.940   3.764  0.0702 -0.3566  0.4157
23715SOL    HW272885   5.440   7.851   3.670  1.0450  1.1016 -1.8654
23716SOL     OW72886   5.868   1.063   7.666  0.4231  0.2386 -0.0641
23716SOL    HW172887   5.839   1.114   7.742 -0.4957 -1.0488  0.4749
23716SOL    HW272888   5.833   1.110   7.591  1.2750  1.4890  0.2966
23717SOL     OW72889   7.077   7.484   3.910  0.4655 -0.2778 -0.0101
23717SOL    HW172890   7.074   7.578   3.926 -0.9162 -0.2780 -0.1278
23717SOL    HW272891   7.077   7.476   3.814 -1.3866 -0.3940 -0.0364
23718SOL     OW72892   7.323   1.612   1.832 -0.2434 -0.2245  0.2614
23718SOL    HW172893   7.265   1.548   1.872  1.7048 -1.3274  1.4426
23718SOL    HW272894   7.279   1.696   1.844 -1.6935 -1.0493  0.8659
23719SOL     OW72895   4.453   9.148   4.590 -0.2673 -0.2857  0.2249
23719SOL    HW172896   4.431   9.239   4.568 -0.9112 -0.3722  0.4813
23719SOL    HW272897   4.521   9.155   4.657 -1.6175  0.0502  1.6123
23720SOL     OW72898   9.191   7.678   2.987  0.5942 -0.3034  0.4943
23720SOL    HW172899   9.129   7.606   3.001  0.6925 -0.3015  0.9704
23720SOL    HW272900   9.139   7.757   3.001  0.9366 -0.3060  2.0566
23721SOL     OW72901   1.370   2.546   0.995 -0.4111  0.4887  0.5380
23721SOL    HW172902   1.443   2.605   0.975 -1.6123  1.7491 -0.2889
23721SOL    HW272903   1.366   2.545   1.091  0.1844  1.0455  0.5766
23722SOL     OW72904   8.169   1.919   3.460 -0.2015 -0.3372  0.3156
23722SOL    HW172905   8.137   1.854   3.523 -1.4109  0.1065  0.1858
23722SOL    HW272906   8.101   1.987   3.459 -0.3662 -0.4766 -1.6815
23723SOL     OW72907   0.768   7.960   9.339 -0.0311  0.2176 -0.0266
23723SOL    HW172908   0.788   7.884   9.395 -0.7198 -0.8051 -1.1248
23723SOL    HW272909   0.851   7.978   9.294  0.4131  0.7826  0.9884
23724SOL     OW72910   2.051   4.315   5.524 -0.4369  0.0854  0.0095
23724SOL    HW172911   2.064   4.226   5.557 -0.7877 -0.0246 -0.1508
23724SOL    HW272912   1.961   4.337   5.549 -0.5335  0.1927 -0.4348
23725SOL     OW72913   1.465   5.014   9.291  0.0754 -0.0328  0.0842
23725SOL    HW172914   1.446   5.092   9.344 -0.7481 -0.2825  0.1625
23725SOL    HW272915   1.556   5.026   9.264  0.2208  0.5470  0.7915
23726SOL     OW72916   2.369   1.113   6.781 -0.3085  0.2027 -0.2950
23726SOL    HW172917   2.346   1.024   6.807 -0.6270 -0.2006 -1.8650
23726SOL    HW272918   2.459   1.124   6.811 -0.5218 -0.3625  0.5920
23727SOL     OW72919   6.009   6.250   1.642 -0.0660  0.3664 -0.3943
23727SOL    HW172920   6.096   6.212   1.639 -0.2470 -0.0771 -0.1420
23727SOL    HW272921   6.005   6.308   1.566  0.2126 -0.1285 -0.7930
23728SOL     OW72922   9.609   4.349   7.412  0.7195 -0.4505  0.4952
23728SOL    HW172923   9.600   4.261   7.376  0.1704 -0.8286  1.5084
23728SOL    HW272924   9.608   4.337   7.507  0.5833  0.6537  0.6544
23729SOL     OW72925   8.008   0.458   5.376 -0.7828  0.9238 -0.4239
23729SOL    HW172926   7.954   0.435   5.451 -0.8890  0.5626 -0.6053
23729SOL    HW272927   8.096   0.470   5.412 -0.9904  1.5423 -0.1263
23730SOL     OW72928   4.711   0.124   8.330  1.1806  0.9122 -0.1664
23730SOL    HW172929   4.726   0.047   8.385 -0.1192  0.5467 -0.2870
23730SOL    HW272930   4.797   0.166   8.323  1.6725  0.1146  0.8548
23731SOL     OW72931   3.101   0.942   6.382 -0.0329 -0.3691  0.1016
23731SOL    HW172932   3.015   0.909   6.353 -0.0018 -0.4553  0.1079
23731SOL    HW272933   3.140   0.978   6.303  0.0721 -0.6477  0.0256
23732SOL     OW72934   5.334   3.495   5.677  0.5361  0.3332  0.4536
23732SOL    HW172935   5.318   3.505   5.583 -2.3422 -2.3052  0.4974
23732SOL    HW272936   5.362   3.404   5.687 -1.8729 -0.3333  2.2803
23733SOL     OW72937   8.605   6.076   4.747 -0.0736  0.0361  0.3907
23733SOL    HW172938   8.509   6.075   4.749 -0.0829  0.7169  0.8029
23733SOL    HW272939   8.629   6.126   4.825  0.5572  1.9093 -0.9413
23734SOL     OW72940   5.524   0.525   0.433  0.4023 -0.5011 -0.3606
23734SOL    HW172941   5.617   0.515   0.409  0.3362  0.5282 -1.1328
23734SOL    HW272942   5.526   0.575   0.514  0.5306 -0.9397 -0.0881
23735SOL     OW72943   4.039   4.709   3.345  0.3616  0.2720  0.5714
23735SOL    HW172944   4.102   4.774   3.316  1.2512  0.1088  2.0237
23735SOL    HW272945   3.969   4.759   3.387  1.0835  0.3207  1.7574
23736SOL     OW72946   4.572   8.160   5.204  0.0850 -0.0634 -0.2793
23736SOL    HW172947   4.629   8.226   5.165  0.3085 -0.7677 -1.1598
23736SOL    HW272948   4.522   8.125   5.131 -0.6891 -0.2402  0.3222
23737SOL     OW72949   8.725   5.661   3.935  0.0899  0.4872  0.4275
23737SOL    HW172950   8.650   5.641   3.991  1.0611 -2.5003  0.8337
23737SOL    HW272951   8.796   5.682   3.996  0.3201  0.4397  0.1790
23738SOL     OW72952   3.683   3.253   7.720 -0.5319 -0.1348  0.2336
23738SOL    HW172953   3.627   3.176   7.723  0.4388 -0.8272  1.3525
23738SOL    HW272954   3.653   3.302   7.643 -0.5867 -2.0717 -1.0349
23739SOL     OW72955   3.797   3.368   4.055  0.2374 -0.0985 -0.5335
23739SOL    HW172956   3.738   3.440   4.032  0.2265  0.0760  0.0388
23739SOL    HW272957   3.878   3.411   4.084 -0.0611 -0.2902  0.6208
23740SOL     OW72958   8.736   6.165   9.182 -0.2362 -0.2760  0.0852
23740SOL    HW172959   8.744   6.258   9.205 -0.4250 -0.2715  0.1410
23740SOL    HW272960   8.677   6.164   9.107 -1.1301 -0.4257  0.7674
23741SOL     OW72961   7.886   0.528   8.252 -0.6087  0.2627  0.0131
23741SOL    HW172962   7.947   0.566   8.189 -1.1275  1.0971 -0.0032
23741SOL    HW272963   7.904   0.434   8.250  0.0801  0.4022 -0.6175
23742SOL     OW72964   2.823   5.348   7.039  0.6367 -0.2668 -0.0029
23742SOL    HW172965   2.777   5.383   6.963  0.5575 -0.3816 -0.0086
23742SOL    HW272966   2.807   5.412   7.108  1.0134  0.0196 -0.1823
23743SOL     OW72967   6.488   1.432   1.206 -0.2818  0.2163  0.3148
23743SOL    HW172968   6.444   1.357   1.244  0.7837  0.5218  2.2544
23743SOL    HW272969   6.511   1.488   1.280 -0.3138  2.0891 -0.9878
23744SOL     OW72970   8.311   9.127   0.147  0.1066  0.1899 -0.6233
23744SOL    HW172971   8.334   9.106   0.237 -1.7175  1.3427  0.1580
23744SOL    HW272972   8.386   9.097   0.096  0.9257 -1.0357  1.1936
23745SOL     OW72973   7.279   0.537   2.779 -0.0091 -0.5028 -0.0344
23745SOL    HW172974   7.234   0.585   2.709  1.8004 -0.7301 -1.4189
23745SOL    HW272975   7.261   0.588   2.858 -1.1588  0.3961 -0.8349
23746SOL     OW72976   3.379   3.744   1.612  0.3934 -0.0946  0.0583
23746SOL    HW172977   3.379   3.724   1.706  2.7423 -0.5154  0.0181
23746SOL    HW272978   3.305   3.693   1.577 -1.3997  1.1252  1.8242
23747SOL     OW72979   3.909   1.053   3.005  0.0890  0.4568 -0.0869
23747SOL    HW172980   3.981   1.078   3.064  0.7013  1.3518 -1.1800
23747SOL    HW272981   3.896   1.130   2.950 -0.9596 -0.1130 -0.6457
23748SOL     OW72982   1.581   5.585   8.469  0.4308  0.5531 -0.5247
23748SOL    HW172983   1.619   5.610   8.553  1.6170 -0.5188 -0.7059
23748SOL    HW272984   1.619   5.499   8.450  1.5197  1.4841 -2.9616
23749SOL     OW72985   3.201   2.501   0.746  0.6961 -0.5802  0.2660
23749SOL    HW172986   3.276   2.547   0.783  0.2675 -0.4204  0.9449
23749SOL    HW272987   3.187   2.426   0.804  0.7899 -1.0319 -0.2847
23750SOL     OW72988   4.753   6.249   8.879  0.3297  0.1734 -0.2062
23750SOL    HW172989   4.825   6.242   8.941  0.2129 -0.9846 -0.1889
23750SOL    HW272990   4.675   6.226   8.929 -0.0502  1.2704 -0.2643
23751SOL     OW72991   6.027   7.807   9.124  0.3350  0.2707 -0.2946
23751SOL    HW172992   6.066   7.854   9.198 -1.7340 -0.1622  1.1507
23751SOL    HW272993   5.957   7.865   9.093 -0.5424 -0.6795 -0.1589
23752SOL     OW72994   2.343   5.433   2.924 -0.4129 -0.4401 -0.5848
23752SOL    HW172995   2.338   5.489   2.847  1.4242  1.6401  0.6747
23752SOL    HW272996   2.361   5.494   2.996  0.8034 -2.5872  1.0222
23753SOL     OW72997   2.047   8.868   7.510 -0.5604  0.2184  0.7094
23753SOL    HW172998   2.015   8.798   7.566 -0.3900  0.3010  0.9143
23753SOL    HW272999   1.994   8.944   7.533 -1.5732 -0.1338 -0.3725
23754SOL     OW73000   4.642   7.907   9.453  0.2124 -0.3481  0.0200
23754SOL    HW173001   4.665   7.924   9.544  3.0588 -1.7353 -0.3336
23754SOL    HW273002   4.721   7.932   9.404 -1.1232  0.0364 -2.0439
23755SOL     OW73003   5.992   6.574   6.013  0.0293 -0.3154 -0.6301
23755SOL    HW173004   6.016   6.577   6.106 -0.7787 -0.5503 -0.4141
23755SOL    HW273005   6.042   6.500   5.978  1.1546  0.4140 -0.6296
23756SOL     OW73006   2.739   9.393   0.312  0.2653 -0.1588  0.2840
23756SOL    HW173007   2.666   9.420   0.367  0.7884  2.4243 -0.1354
23756SOL    HW273008   2.817   9.409   0.365  0.6492 -0.1059 -0.2843
23757SOL     OW73009   7.024   1.436   4.307 -0.2397  0.1077 -0.2397
23757SOL    HW173010   7.020   1.369   4.239  0.2957  0.7062 -0.8741
23757SOL    HW273011   6.969   1.507   4.275 -1.9959 -0.5891  1.1002
23758SOL     OW73012   5.488   5.792   7.171 -0.9608 -0.1946 -0.3241
23758SOL    HW173013   5.549   5.718   7.173 -0.2675  0.3574 -0.8247
23758SOL    HW273014   5.426   5.773   7.242  1.5631  0.7354  2.3017
23759SOL     OW73015   3.616   2.360   5.612  0.4468  0.7405 -0.6704
23759SOL    HW173016   3.620   2.357   5.708 -1.3445  1.9525 -0.4907
23759SOL    HW273017   3.629   2.452   5.591 -0.0416  0.6258 -1.5171
23760SOL     OW73018   1.345   4.356   1.461  0.1112 -0.4791  0.5148
23760SOL    HW173019   1.320   4.272   1.423 -0.6676 -0.3079  0.6379
23760SOL    HW273020   1.405   4.333   1.533  0.1861 -0.9043  0.3180
23761SOL     OW73021   3.710   0.625   7.176  0.6514  0.1325 -0.0764
23761SOL    HW173022   3.718   0.530   7.186  0.5156  0.2555  1.5772
23761SOL    HW273023   3.786   0.660   7.223  0.8169  0.8540 -0.8497
23762SOL     OW73024   4.062   2.527   0.352 -0.1985  0.5095  0.1121
23762SOL    HW173025   4.053   2.552   0.444 -2.1101  1.8088 -0.3752
23762SOL    HW273026   4.127   2.588   0.317  1.3597 -0.6869  0.7899
23763SOL     OW73027   3.108   3.276   3.419 -0.1683  0.2518 -0.2400
23763SOL    HW173028   3.022   3.317   3.425  0.6423  1.8763  1.4402
23763SOL    HW273029   3.161   3.340   3.371  0.2926 -0.3991 -0.6118
23764SOL     OW73030   0.975   2.072   8.753 -0.4916  0.1577 -0.6730
23764SOL    HW173031   0.959   2.147   8.811 -1.5704 -0.1374 -0.5785
23764SOL    HW273032   1.070   2.061   8.755 -0.4610  0.4751  0.6456
23765SOL     OW73033   2.809   3.231   6.319  0.0876 -0.3519  0.2571
23765SOL    HW173034   2.863   3.172   6.267 -0.3775 -0.8469  0.3269
23765SOL    HW273035   2.869   3.299   6.349 -0.0497  1.3437 -2.9118
23766SOL     OW73036   2.009   6.145   3.802  0.1204 -0.0656 -0.1815
23766SOL    HW173037   1.947   6.159   3.730 -1.3712  0.4331  1.1218
23766SOL    HW273038   1.982   6.209   3.868  2.1844  0.2755  0.3729
23767SOL     OW73039   0.758   1.738   1.991  0.3343  0.1192  0.8379
23767SOL    HW173040   0.719   1.680   2.057  0.1039  0.1773  0.7550
23767SOL    HW273041   0.782   1.679   1.919  0.0777  0.1267  0.7433
23768SOL     OW73042   6.233   1.854   3.829  0.3345  0.4267 -0.4661
23768SOL    HW173043   6.261   1.853   3.920  0.3050 -1.6440 -0.4227
23768SOL    HW273044   6.167   1.923   3.825 -0.0505  0.2086  1.2061
23769SOL     OW73045   3.263   3.745   7.210  0.4104  0.1586  0.2447
23769SOL    HW173046   3.172   3.755   7.237  0.1708 -1.5052  0.1692
23769SOL    HW273047   3.299   3.833   7.213 -0.8276  0.6557  1.6138
23770SOL     OW73048   2.137   4.350   8.455 -0.2364 -0.4149 -0.6852
23770SOL    HW173049   2.135   4.316   8.545  1.2434 -1.0233 -0.8575
23770SOL    HW273050   2.045   4.368   8.434 -0.5949 -0.0530  1.0220
23771SOL     OW73051   6.423   4.091   1.675  0.0697 -0.0158 -0.1007
23771SOL    HW173052   6.503   4.143   1.688  0.5631 -0.9768  0.8964
23771SOL    HW273053   6.387   4.081   1.763  0.1427 -1.5895 -0.2348
23772SOL     OW73054   2.521   4.139   8.843  0.6527  0.5688 -0.1986
23772SOL    HW173055   2.538   4.233   8.847  2.9629  0.2783 -1.8353
23772SOL    HW273056   2.535   4.109   8.933 -0.9358  1.8470  0.5377
23773SOL     OW73057   8.101   0.627   5.610 -0.0799 -0.1489  0.1029
23773SOL    HW173058   8.013   0.617   5.648 -0.6781  0.0191 -1.1711
23773SOL    HW273059   8.137   0.704   5.654 -0.6419 -0.1080  0.5142
23774SOL     OW73060   8.047   0.332   5.781 -0.0600  0.2856 -0.2317
23774SOL    HW173061   8.045   0.378   5.865 -0.0557 -0.2405  0.0577
23774SOL    HW273062   8.135   0.350   5.747 -0.4020  1.3514 -0.6132
23775SOL     OW73063   4.302   1.591   2.609  0.0146  0.5932 -0.2902
23775SOL    HW173064   4.229   1.534   2.586 -0.4327  1.3525 -0.7716
23775SOL    HW273065   4.342   1.614   2.525  0.3650  0.7610 -0.0796
23776SOL     OW73066   0.305   4.335   7.116  0.3072 -0.1933 -0.0417
23776SOL    HW173067   0.388   4.381   7.103  0.1182 -0.0147 -0.6376
23776SOL    HW273068   0.326   4.263   7.175  0.9088 -0.2228 -0.2915
23777SOL     OW73069   1.286   4.123   7.297  0.5148 -0.2147  0.3343
23777SOL    HW173070   1.218   4.183   7.267 -0.1957 -1.9537 -1.8463
23777SOL    HW273071   1.238   4.057   7.348  0.2662 -1.9838 -2.0069
23778SOL     OW73072   3.345   8.364   3.413 -0.1661  0.0871  0.2471
23778SOL    HW173073   3.400   8.318   3.477  0.6763  0.6738 -0.0296
23778SOL    HW273074   3.284   8.415   3.466 -0.5182 -0.6462  0.5601
23779SOL     OW73075   1.091   2.093   6.726 -0.1211  0.5628  0.4861
23779SOL    HW173076   1.014   2.054   6.684 -0.6672  0.3402  1.6517
23779SOL    HW273077   1.090   2.185   6.697 -0.2642  0.3279 -0.2756
23780SOL     OW73078   6.610   0.787   7.624 -0.0348  0.1932  0.1568
23780SOL    HW173079   6.526   0.833   7.620 -0.5215 -0.7079 -0.1288
23780SOL    HW273080   6.603   0.731   7.702 -0.1213 -0.6918 -0.4813
23781SOL     OW73081   7.941   3.039   6.520  0.0289  0.0331 -0.1452
23781SOL    HW173082   7.847   3.048   6.540  0.1355  0.5545  0.1399
23781SOL    HW273083   7.946   3.047   6.425 -0.2910 -0.6737 -0.2232
23782SOL     OW73084   3.356   4.760   7.452 -0.7510 -0.7429 -0.4129
23782SOL    HW173085   3.435   4.806   7.482 -0.9309 -2.0184  2.3643
23782SOL    HW273086   3.355   4.773   7.357  0.8727  2.2527 -0.1421
23783SOL     OW73087   3.534   8.402   5.912 -0.5678 -0.0041 -0.3778
23783SOL    HW173088   3.522   8.474   5.974  2.7524  2.0440 -1.8511
23783SOL    HW273089   3.563   8.329   5.965 -0.2194  0.9349  0.7665
23784SOL     OW73090   8.722   8.937   9.389  0.0822  0.5020  0.2993
23784SOL    HW173091   8.761   9.001   9.328 -0.9355 -0.3931 -1.3444
23784SOL    HW273092   8.705   8.860   9.336  2.6493 -1.8441  2.5038
23785SOL     OW73093   3.637   4.575   8.259 -0.4903  0.8914  0.6351
23785SOL    HW173094   3.635   4.640   8.329 -1.7817 -0.2029  1.6975
23785SOL    HW273095   3.724   4.537   8.264  0.1345  2.2285  0.2739
23786SOL     OW73096   3.701   3.258   0.778  0.2838  0.0258  0.2676
23786SOL    HW173097   3.644   3.211   0.718  0.0664  1.5412 -0.7703
23786SOL    HW273098   3.750   3.319   0.723  2.4888 -0.7868  1.2103
23787SOL     OW73099   2.312   8.518   8.135 -0.1600 -0.0142 -0.5299
23787SOL    HW173100   2.304   8.604   8.093  0.1156 -0.3085 -1.1925
23787SOL    HW273101   2.406   8.502   8.139 -0.1350  0.3638  0.9537
23788SOL     OW73102   2.608   2.121   4.707  0.1501  0.1568  0.7104
23788SOL    HW173103   2.699   2.107   4.683 -0.3155  0.7081 -1.6358
23788SOL    HW273104   2.558   2.075   4.640 -1.3333 -1.0146  2.5267
23789SOL     OW73105   9.014   7.426   1.506 -0.1170 -0.5323  0.2725
23789SOL    HW173106   8.999   7.438   1.412  1.0523 -1.1917 -0.0249
23789SOL    HW273107   9.075   7.495   1.530  2.0912 -2.1975 -0.1920
23790SOL     OW73108   9.282   8.445   3.413  0.3127 -0.1721 -0.2625
23790SOL    HW173109   9.364   8.492   3.398  0.8958 -0.4488  1.8049
23790SOL    HW273110   9.305   8.373   3.471 -1.4450 -0.1099  0.5754
23791SOL     OW73111   0.591   3.206   3.713  0.3139  0.2289 -0.0832
23791SOL    HW173112   0.586   3.113   3.738 -2.5717 -0.6110 -3.2013
23791SOL    HW273113   0.523   3.248   3.765  0.0420  0.1440 -0.3711
23792SOL     OW73114   3.452   0.170   7.291  0.3613 -0.4187 -0.0647
23792SOL    HW173115   3.367   0.201   7.258 -1.0305 -1.7436  2.0170
23792SOL    HW273116   3.430   0.118   7.368  3.0404 -1.4968  0.0835
23793SOL     OW73117   1.797   4.739   2.765 -0.5596  0.2653  0.5557
23793SOL    HW173118   1.826   4.781   2.846 -0.3971 -0.0987  0.6869
23793SOL    HW273119   1.730   4.798   2.731 -0.7668  0.3225  1.0512
23794SOL     OW73120   3.939   7.240   1.506  0.3151  0.3500 -0.1657
23794SOL    HW173121   3.854   7.199   1.488  1.1332 -1.6943  0.3902
23794SOL    HW273122   3.925   7.288   1.588 -0.5464  0.8515 -0.5925
23795SOL     OW73123   0.302   8.774   3.552  0.1931  0.1044  0.0222
23795SOL    HW173124   0.392   8.794   3.576 -0.0545  2.0403 -0.4891
23795SOL    HW273125   0.249   8.812   3.622 -0.2246 -1.7350  0.7439
23796SOL     OW73126   0.568   6.448   0.166 -0.1850 -0.6246 -0.4394
23796SOL    HW173127   0.585   6.387   0.238 -0.0515  0.1681  0.2190
23796SOL    HW273128   0.583   6.396   0.087  0.4232 -1.3059  0.1025
23797SOL     OW73129   6.998   7.426   9.077  0.1878  0.0484  0.2302
23797SOL    HW173130   6.986   7.355   9.140  0.1005  0.1245  0.3000
23797SOL    HW273131   6.980   7.506   9.126 -0.9725  0.0483 -0.1522
23798SOL     OW73132   1.222   5.083   5.582 -0.1672 -0.1693 -0.5963
23798SOL    HW173133   1.222   5.179   5.582  0.2629 -0.1353  1.0813
23798SOL    HW273134   1.133   5.059   5.559 -1.0040  0.7052  1.5005
23799SOL     OW73135   3.291   3.322   1.415  0.2950  0.3620  0.0673
23799SOL    HW173136   3.343   3.403   1.412 -2.2976  2.1477 -1.1147
23799SOL    HW273137   3.202   3.351   1.392 -1.1636 -2.5471  1.5939
23800SOL     OW73138   7.689   3.156   7.300  0.4549  0.1890 -0.0362
23800SOL    HW173139   7.706   3.186   7.389 -1.1411 -2.9976  1.5274
23800SOL    HW273140   7.595   3.139   7.298  0.8146 -2.2318 -1.3961
23801SOL     OW73141   5.901   0.342   3.245 -0.7212 -0.5079  0.0124
23801SOL    HW173142   5.870   0.323   3.157  0.8461 -0.3740 -0.6048
23801SOL    HW273143   5.889   0.437   3.255 -0.8908 -0.5221 -0.0536
23802SOL     OW73144   9.395   5.771   2.108  0.3208 -0.3065 -0.0118
23802SOL    HW173145   9.463   5.837   2.096  0.5847 -0.6184 -0.2237
23802SOL    HW273146   9.360   5.788   2.196 -1.0279  1.4464 -0.8070
23803SOL     OW73147   0.791   4.176   4.221  0.4619  0.4103 -0.1786
23803SOL    HW173148   0.737   4.103   4.191 -0.6534  1.2126 -0.1680
23803SOL    HW273149   0.789   4.171   4.316 -0.6305  1.1550 -0.1464
23804SOL     OW73150   4.405   6.808   2.220  0.0054 -0.4666  0.0567
23804SOL    HW173151   4.327   6.754   2.204  0.8989 -1.5605 -0.8309
23804SOL    HW273152   4.372   6.897   2.223 -1.3753 -0.9622  0.3893
23805SOL     OW73153   2.401   1.963   2.442  0.6355  0.5437  0.4617
23805SOL    HW173154   2.334   1.895   2.435  1.8045 -0.5693 -0.5677
23805SOL    HW273155   2.467   1.926   2.501  1.3086  0.7505 -0.1464
23806SOL     OW73156   1.405   7.553   8.318  0.1387  1.0985  0.7588
23806SOL    HW173157   1.467   7.504   8.372 -0.8445 -0.3072  0.6708
23806SOL    HW273158   1.394   7.636   8.364 -0.1002  0.2313  2.3431
23807SOL     OW73159   9.556   1.543   3.483 -0.2201  0.1622 -0.1979
23807SOL    HW173160   9.529   1.610   3.546 -0.8856  0.7365 -1.0720
23807SOL    HW273161   9.599   1.591   3.413  1.5487 -0.5848  0.3224
23808SOL     OW73162   3.936   5.188   1.553  0.1364 -0.3946  0.0960
23808SOL    HW173163   3.848   5.189   1.517 -0.5718  0.7111  1.7430
23808SOL    HW273164   3.928   5.141   1.636  1.0158  0.0100  0.4223
23809SOL     OW73165   1.449   7.687   3.167 -0.1081  0.2392  0.2031
23809SOL    HW173166   1.427   7.767   3.214 -0.4060 -0.2276  0.8835
23809SOL    HW273167   1.512   7.714   3.101 -0.5278  1.1046  0.1490
23810SOL     OW73168   6.900   6.284   9.203 -0.2440 -0.0008 -0.2061
23810SOL    HW173169   6.809   6.267   9.178  0.7030 -1.0919 -3.2500
23810SOL    HW273170   6.946   6.202   9.184  1.7998  1.2586 -0.9853
23811SOL     OW73171   5.752   5.265   0.832  0.5169  0.0970  0.4322
23811SOL    HW173172   5.689   5.332   0.860 -1.8808 -1.2133 -1.3953
23811SOL    HW273173   5.766   5.283   0.739  1.0613 -1.0163  0.2859
23812SOL     OW73174   8.312   5.611   4.858  0.4064  0.1192 -0.6551
23812SOL    HW173175   8.385   5.554   4.835  0.4675 -0.8022  1.5286
23812SOL    HW273176   8.352   5.697   4.873  0.9390 -0.1971 -0.2332
23813SOL     OW73177   1.625   8.788   2.632 -0.0307 -0.2637  0.1668
23813SOL    HW173178   1.631   8.882   2.614 -1.2736 -0.0883  0.5587
23813SOL    HW273179   1.701   8.770   2.688  0.4016  0.4303 -0.1799
23814SOL     OW73180   7.747   7.072   9.253 -0.0275  0.9386 -0.2526
23814SOL    HW173181   7.806   6.998   9.236 -0.2693  1.1363 -2.1666
23814SOL    HW273182   7.689   7.041   9.322  1.3843  0.2153  0.6464
23815SOL     OW73183   4.219   1.946   9.143 -0.0804  0.0987  0.3128
23815SOL    HW173184   4.166   1.931   9.065  1.0218  2.0638 -0.8972
23815SOL    HW273185   4.304   1.973   9.110  0.1824  1.7864  2.1808
23816SOL     OW73186   3.939   2.637   0.042 -0.0360  0.0703 -0.0402
23816SOL    HW173187   3.869   2.669   0.099 -1.4306  0.6985 -2.0045
23816SOL    HW273188   4.011   2.698   0.056 -0.9884  1.2632 -0.2339
23817SOL     OW73189   1.010   4.542   1.846  0.0789 -0.1448 -0.0719
23817SOL    HW173190   0.967   4.614   1.800 -2.0949  0.6953  2.9729
23817SOL    HW273191   1.088   4.522   1.793 -1.8880  0.9975 -3.6970
23818SOL     OW73192   6.956   4.652   7.951  0.0829 -0.6450 -0.4958
23818SOL    HW173193   7.032   4.673   7.897 -0.0860  1.9194  0.1370
23818SOL    HW273194   6.894   4.723   7.933 -0.8559 -0.9313  1.3938
23819SOL     OW73195   2.834   8.288   5.389 -0.6183 -0.2035 -0.1427
23819SOL    HW173196   2.757   8.296   5.332 -0.4467 -0.7689 -0.4636
23819SOL    HW273197   2.907   8.321   5.337 -0.5732 -0.0720  0.0028
23820SOL     OW73198   0.226   1.910   1.558  0.5245 -0.5477 -0.0219
23820SOL    HW173199   0.305   1.897   1.611  0.0067  2.5364  1.7077
23820SOL    HW273200   0.252   1.970   1.489 -0.0412 -0.3956 -0.1116
23821SOL     OW73201   0.179   6.799   2.203 -0.4559 -0.2179  0.3284
23821SOL    HW173202   0.089   6.781   2.174 -0.3991  1.4426 -0.9923
23821SOL    HW273203   0.229   6.723   2.173 -0.8018  0.4338 -2.1361
23822SOL     OW73204   7.047   5.375   4.713 -0.0684  0.3789 -0.4303
23822SOL    HW173205   7.067   5.345   4.802 -1.4661  0.1267 -0.1833
23822SOL    HW273206   6.955   5.401   4.716 -0.3906 -0.4622 -2.0300
23823SOL     OW73207   8.427   1.444   0.945  0.2317 -0.3423  0.0147
23823SOL    HW173208   8.409   1.374   1.007 -1.0145 -0.9028 -0.9468
23823SOL    HW273209   8.471   1.512   0.997 -3.5144  0.6162  2.3366
23824SOL     OW73210   3.568   4.776   1.592 -0.6373  0.4058  0.6949
23824SOL    HW173211   3.611   4.691   1.587 -0.8310  0.3799 -1.2183
23824SOL    HW273212   3.593   4.811   1.677  0.3985 -1.0548  1.0200
23825SOL     OW73213   2.115   8.885   8.686  0.0955 -0.1085 -0.4917
23825SOL    HW173214   2.099   8.952   8.619 -0.0432  0.1997 -0.1553
23825SOL    HW273215   2.155   8.934   8.758 -1.6761 -0.0555  0.4904
23826SOL     OW73216   5.703   7.958   0.987 -0.5608  0.0900 -0.0834
23826SOL    HW173217   5.723   7.951   1.081 -1.5013 -2.9201  0.0186
23826SOL    HW273218   5.783   7.993   0.948  0.7490 -0.8433  1.6188
23827SOL     OW73219   6.261   9.345   8.026 -0.1394 -0.0621 -0.7284
23827SOL    HW173220   6.291   9.259   7.997 -1.6694 -0.5875 -0.8566
23827SOL    HW273221   6.326   9.373   8.090  0.0900 -1.5716 -0.2555
23828SOL     OW73222   0.727   4.641   1.583  0.6765  0.2568  0.1057
23828SOL    HW173223   0.805   4.678   1.626 -0.6945  1.9615  1.2454
23828SOL    HW273224   0.734   4.547   1.600  2.5385  0.3369  0.0577
23829SOL     OW73225   8.848   5.444   7.488 -0.1569  0.4155 -0.0084
23829SOL    HW173226   8.865   5.409   7.576  1.7951 -0.8716 -0.8357
23829SOL    HW273227   8.798   5.376   7.444 -0.2397  0.6228 -0.2376
23830SOL     OW73228   7.854   4.719   4.891  0.6127  0.2563 -0.0027
23830SOL    HW173229   7.811   4.648   4.843 -0.4126 -0.4063  1.7855
23830SOL    HW273230   7.808   4.798   4.863 -1.5173 -0.3749  1.4518
23831SOL     OW73231   3.427   4.882   1.104  0.7340  0.6463 -0.5912
23831SOL    HW173232   3.446   4.975   1.118  1.2634  0.5484 -0.6471
23831SOL    HW273233   3.491   4.836   1.157 -1.6592  0.2906  2.2482
23832SOL     OW73234   6.730   2.561   5.032  0.0937  0.3513  0.7031
23832SOL    HW173235   6.795   2.502   4.995 -0.3279 -0.4412  1.1934
23832SOL    HW273236   6.657   2.558   4.970  0.3729  0.9838  0.3246
23833SOL     OW73237   1.857   7.598   8.284 -0.3135 -0.1887  0.3310
23833SOL    HW173238   1.809   7.606   8.201  0.7549 -0.0158 -0.3009
23833SOL    HW273239   1.934   7.654   8.271 -0.0543 -0.2852  1.3945
23834SOL     OW73240   6.939   8.712   1.746 -0.4934 -0.3639  0.0263
23834SOL    HW173241   6.963   8.736   1.656 -2.1969 -0.7892 -0.5772
23834SOL    HW273242   6.859   8.761   1.763 -1.6201 -2.2456  0.3429
23835SOL     OW73243   2.643   2.318   5.571  0.1154 -0.0346 -0.0607
23835SOL    HW173244   2.736   2.322   5.549  0.1892 -0.5039  0.1504
23835SOL    HW273245   2.600   2.303   5.488  0.3484 -1.2419  0.0256
23836SOL     OW73246   4.159   9.131   0.899 -0.4927  0.1126 -0.0483
23836SOL    HW173247   4.237   9.118   0.845 -0.1869  0.3830  0.3180
23836SOL    HW273248   4.140   9.225   0.891 -1.2795 -0.1015 -0.8011
23837SOL     OW73249   8.923   7.830   9.412  0.6349  0.2318  0.1999
23837SOL    HW173250   8.940   7.778   9.334  1.2668 -0.5809  0.8670
23837SOL    HW273251   8.835   7.866   9.398  0.6025 -0.1869 -0.7236
23838SOL     OW73252   4.217   5.336   5.284 -0.4033  0.1013 -0.1972
23838SOL    HW173253   4.141   5.392   5.302  0.0953  1.4010 -1.8851
23838SOL    HW273254   4.180   5.254   5.252 -1.1511  1.2955 -2.6058
23839SOL     OW73255   8.108   6.114   2.927  0.3170  0.2189  0.7455
23839SOL    HW173256   8.157   6.150   3.001 -0.1710  0.0377  1.1616
23839SOL    HW273257   8.051   6.048   2.966  0.6661 -0.4880  0.0977
23840SOL     OW73258   8.165   2.709   1.760  0.3372 -0.3503 -0.1231
23840SOL    HW173259   8.154   2.792   1.714 -0.4592 -0.6848 -0.5688
23840SOL    HW273260   8.252   2.678   1.734  1.8237  1.5750  2.1349
23841SOL     OW73261   0.678   1.894   8.051 -0.4940 -0.0874 -0.7785
23841SOL    HW173262   0.661   1.989   8.051  1.3409  0.2720 -1.1918
23841SOL    HW273263   0.744   1.882   8.119 -0.9619 -1.1502 -0.4915
23842SOL     OW73264   3.629   6.876   2.687  0.7081 -0.3052 -0.9289
23842SOL    HW173265   3.693   6.874   2.616  1.9880  1.2498  0.1041
23842SOL    HW273266   3.679   6.849   2.764  0.7239  2.7373  0.2657
23843SOL     OW73267   7.286   4.930   3.839  0.3479 -0.5623  0.4504
23843SOL    HW173268   7.287   4.835   3.851  0.1106 -0.5382  0.6639
23843SOL    HW273269   7.313   4.943   3.748  2.2999 -0.7481  0.9499
23844SOL     OW73270   7.891   4.360   1.249  0.1920 -0.7005 -0.0556
23844SOL    HW173271   7.835   4.420   1.298  1.2026 -0.3831  0.7306
23844SOL    HW273272   7.894   4.397   1.160 -1.3409 -1.0798 -0.2885
23845SOL     OW73273   5.337   1.722   1.221  0.5181 -0.4650 -0.2785
23845SOL    HW173274   5.392   1.769   1.283  1.7718 -1.5893 -0.5158
23845SOL    HW273275   5.392   1.713   1.143 -0.4224 -0.5908 -0.9403
23846SOL     OW73276   6.866   5.494   9.067  0.2500  0.1656 -0.2998
23846SOL    HW173277   6.866   5.519   8.975  1.2086 -0.0343 -0.3746
23846SOL    HW273278   6.853   5.399   9.066 -1.1845  0.3408 -0.1377
23847SOL     OW73279   3.197   2.693   1.359  0.0457 -0.2253  0.2428
23847SOL    HW173280   3.242   2.708   1.443 -0.4312 -0.3658  0.5301
23847SOL    HW273281   3.227   2.607   1.332 -1.0172 -0.8890  1.0814
23848SOL     OW73282   9.210   2.713   1.596 -0.1935  0.1340  0.0356
23848SOL    HW173283   9.149   2.760   1.653 -0.0197  1.6305 -0.9468
23848SOL    HW273284   9.172   2.626   1.585  0.1063 -0.4386  2.9294
23849SOL     OW73285   3.465   4.526   2.783  0.2342  0.0308  0.3421
23849SOL    HW173286   3.446   4.459   2.849  0.3353  2.3117  2.8448
23849SOL    HW273287   3.560   4.534   2.784  0.2266  0.1575 -0.0163
23850SOL     OW73288   8.520   3.987   6.740 -0.1268  0.2224  0.2023
23850SOL    HW173289   8.608   4.009   6.709 -0.1821 -0.6541 -0.6018
23850SOL    HW273290   8.497   3.907   6.693 -1.8314  1.0835 -0.4965
23851SOL     OW73291   6.577   7.863   3.931  0.3687  0.1720 -0.9026
23851SOL    HW173292   6.608   7.929   3.993  1.2746 -1.9499  1.0470
23851SOL    HW273293   6.483   7.855   3.951  0.1229  1.2150 -1.5465
23852SOL     OW73294   1.665   5.879   3.460 -0.2540  0.5987  0.1105
23852SOL    HW173295   1.638   5.832   3.381  0.0025 -0.4299  0.6131
23852SOL    HW273296   1.584   5.916   3.495 -0.1785  2.2825 -1.3699
23853SOL     OW73297   1.188   5.867   1.574 -0.0954 -0.1669 -0.1598
23853SOL    HW173298   1.256   5.922   1.535 -0.7577  0.8532  0.0827
23853SOL    HW273299   1.108   5.893   1.529 -0.3486 -1.3067 -0.3953
23854SOL     OW73300   9.381   8.268   4.173  0.3860  0.4919 -0.3972
23854SOL    HW173301   9.347   8.182   4.200  1.4895 -0.0153 -0.5831
23854SOL    HW273302   9.312   8.304   4.118  0.7470 -1.2007 -2.0696
23855SOL     OW73303   2.105   2.015   1.943  0.2655 -0.6629  0.1790
23855SOL    HW173304   2.018   1.982   1.923 -0.1326  0.4983 -0.0677
23855SOL    HW273305   2.119   2.086   1.880  0.4189  0.7367  1.7317
23856SOL     OW73306   7.104   8.047   4.531 -0.9554  0.4917 -0.2161
23856SOL    HW173307   7.099   8.141   4.547 -1.6843  0.4411 -0.1324
23856SOL    HW273308   7.080   8.007   4.615 -2.5431  0.2271 -0.7754
23857SOL     OW73309   2.340   8.756   8.576  0.3737 -0.0236 -0.2161
23857SOL    HW173310   2.278   8.799   8.635 -0.9867 -1.7339 -0.3080
23857SOL    HW273311   2.411   8.819   8.566 -0.4648  1.2684  1.3788
23858SOL     OW73312   8.634   3.868   0.714 -0.0318 -0.1779 -0.0279
23858SOL    HW173313   8.606   3.959   0.728 -0.8935 -0.4078 -0.1893
23858SOL    HW273314   8.720   3.863   0.755 -0.4447  0.4261  0.9378
23859SOL     OW73315   7.046   4.827   6.466  0.2068  0.0535 -0.1650
23859SOL    HW173316   7.034   4.816   6.371  0.2640 -0.6622 -0.0898
23859SOL    HW273317   7.120   4.770   6.488  1.7118  1.9354 -0.0680
23860SOL     OW73318   7.784   9.124   1.546 -0.1549 -0.0181 -0.0610
23860SOL    HW173319   7.863   9.107   1.496  0.2041 -0.0727  0.5085
23860SOL    HW273320   7.790   9.064   1.621 -1.5125 -1.1887 -0.8248
23861SOL     OW73321   7.417   9.304   0.906 -0.0060 -0.4016  0.4761
23861SOL    HW173322   7.449   9.359   0.977 -2.3075  0.0091  1.2584
23861SOL    HW273323   7.454   9.343   0.827  1.4164 -0.0023  1.3079
23862SOL     OW73324   8.293   5.996   8.744  0.2467 -0.0406  0.0985
23862SOL    HW173325   8.320   6.042   8.664 -1.6085  2.0562  0.5621
23862SOL    HW273326   8.256   5.914   8.713  0.4504  0.2944 -1.0964
23863SOL     OW73327   3.484   5.571   1.041 -0.1114  0.6483  0.3544
23863SOL    HW173328   3.489   5.485   0.998 -0.4688  0.3161  0.9663
23863SOL    HW273329   3.450   5.552   1.128 -0.1027  1.4072  0.5267
23864SOL     OW73330   2.789   5.898   0.092 -0.2579  0.2133 -0.3926
23864SOL    HW173331   2.822   5.943   0.170 -0.0976 -0.5611  0.0042
23864SOL    HW273332   2.851   5.826   0.078  0.0850  0.7351 -1.6363
23865SOL     OW73333   4.094   4.464   8.820 -0.4902  0.4887  0.2577
23865SOL    HW173334   4.002   4.440   8.826 -0.8809  1.5159 -1.2066
23865SOL    HW273335   4.140   4.382   8.806 -1.2611  0.0529  0.2368
23866SOL     OW73336   2.767   9.390   1.024 -0.6511  0.4138 -0.3228
23866SOL    HW173337   2.775   9.355   1.113 -1.7304  0.6798 -0.1067
23866SOL    HW273338   2.712   9.467   1.034 -1.4543 -0.0101 -1.3328
23867SOL     OW73339   8.637   5.748   8.561 -0.0416  0.2717  0.3031
23867SOL    HW173340   8.613   5.748   8.468  0.2500  1.4800  0.2039
23867SOL    HW273341   8.724   5.709   8.563 -0.5372 -0.8771  0.2338
23868SOL     OW73342   3.395   0.132   8.843  0.1997 -0.6608  0.2566
23868SOL    HW173343   3.466   0.170   8.896  0.0758  0.1945 -0.1831
23868SOL    HW273344   3.439   0.067   8.788  0.5641 -0.4894  0.3424
23869SOL     OW73345   3.022   7.934   2.265  0.8549 -0.2558 -0.1858
23869SOL    HW173346   3.117   7.934   2.262  0.8305 -0.3748 -1.5828
23869SOL    HW273347   2.997   8.026   2.259  0.8676 -0.2469 -0.1042
23870SOL     OW73348   0.027   1.905   0.461 -0.2092 -0.6054 -0.3444
23870SOL    HW173349   0.043   1.998   0.449 -1.3763 -0.3184  0.1920
23870SOL    HW273350   0.057   1.887   0.551 -3.3656  0.1185  0.9901
23871SOL     OW73351   7.728   9.058   7.208  0.3148 -0.4434 -0.5799
23871SOL    HW173352   7.695   9.049   7.118 -1.3692  2.4391 -0.3656
23871SOL    HW273353   7.707   8.975   7.250  1.5202 -2.0372 -2.8968
23872SOL     OW73354   7.206   0.873   1.555  1.0357 -0.1512 -0.3082
23872SOL    HW173355   7.223   0.864   1.461 -2.0523 -0.3072 -0.9557
23872SOL    HW273356   7.191   0.783   1.585  1.7429 -0.0749  0.3108
23873SOL     OW73357   9.559   2.597   6.793  0.1191  0.6008 -0.3839
23873SOL    HW173358   9.534   2.607   6.885 -0.8158  0.3182 -0.5951
23873SOL    HW273359   9.631   2.659   6.781 -0.0042  0.9155  0.4434
23874SOL     OW73360   9.109   4.118   3.239  0.1692  0.0441 -0.0068
23874SOL    HW173361   9.196   4.123   3.281  0.0270 -0.3337  0.3437
23874SOL    HW273362   9.127   4.131   3.146  0.6556 -0.4081  0.0136
23875SOL     OW73363   0.724   8.432   5.150 -0.5129  0.6258  0.0286
23875SOL    HW173364   0.808   8.398   5.179  0.6435  0.7160 -2.8401
23875SOL    HW273365   0.737   8.452   5.057 -4.0739 -0.5805 -0.9105
23876SOL     OW73366   4.434   4.647   8.340 -0.0504  0.2520  0.5238
23876SOL    HW173367   4.466   4.601   8.262  0.1489  1.9491 -0.4504
23876SOL    HW273368   4.492   4.617   8.410 -0.4698 -1.5894  0.1390
23877SOL     OW73369   3.543   7.992   6.836  0.6151 -0.1949 -0.6301
23877SOL    HW173370   3.630   7.953   6.830  0.3537 -0.8039 -0.4932
23877SOL    HW273371   3.487   7.921   6.867  0.4705  0.7520  1.4332
23878SOL     OW73372   5.443   2.366   2.781  0.1527 -0.1634 -0.4311
23878SOL    HW173373   5.479   2.418   2.709 -0.0468 -0.3166 -0.6422
23878SOL    HW273374   5.520   2.340   2.833  0.1320  1.7725  0.6527
23879SOL     OW73375   6.435   7.585   6.914  0.0988  0.2392  0.1916
23879SOL    HW173376   6.346   7.616   6.896 -0.0618 -0.0735  0.4205
23879SOL    HW273377   6.421   7.501   6.959  0.5161 -0.2008 -0.4864
23880SOL     OW73378   2.993   0.095   4.230 -0.1569 -0.0614  0.3936
23880SOL    HW173379   3.003   0.009   4.271 -2.3205  0.3517  1.9547
23880SOL    HW273380   2.899   0.102   4.212  0.3299  0.8763 -2.3547
23881SOL     OW73381   0.095   4.435   7.931 -0.7607  0.2723  0.1990
23881SOL    HW173382   0.057   4.350   7.909 -0.5949  0.2446  0.0117
23881SOL    HW273383   0.066   4.493   7.860 -1.0787  0.4308  0.4592
23882SOL     OW73384   5.134   7.951   1.717 -0.0551  0.5568  0.0494
23882SOL    HW173385   5.134   7.902   1.635 -1.7715 -0.6327  0.7127
23882SOL    HW273386   5.211   7.919   1.764  0.5466  0.7419 -0.7883
23883SOL     OW73387   4.786   3.896   1.747  0.4332 -0.4421 -0.0750
23883SOL    HW173388   4.781   3.968   1.810 -0.6064  0.3281 -1.0216
23883SOL    HW273389   4.833   3.932   1.672 -0.9598 -0.4310 -0.9629
23884SOL     OW73390   5.200   5.313   5.735  0.6578  0.1414 -0.2155
23884SOL    HW173391   5.106   5.314   5.753  0.3233  0.1140 -1.7938
23884SOL    HW273392   5.222   5.404   5.713  0.5308 -0.1789 -1.8536
23885SOL     OW73393   0.471   2.732   3.598 -0.2439  0.2879 -0.1188
23885SOL    HW173394   0.510   2.696   3.678 -2.4057 -1.9611  0.0275
23885SOL    HW273395   0.411   2.664   3.568 -1.5050  2.2001 -2.1835
23886SOL     OW73396   3.404   4.110   4.905  0.2604  0.3737 -0.2784
23886SOL    HW173397   3.455   4.034   4.933  0.5141  0.7018  0.1566
23886SOL    HW273398   3.469   4.170   4.867  0.0078  0.2093 -0.9833
23887SOL     OW73399   1.213   8.619   4.403 -0.5169 -0.1336 -0.1230
23887SOL    HW173400   1.197   8.638   4.495 -0.0082 -0.8122  0.1189
23887SOL    HW273401   1.274   8.545   4.404  1.3460  1.2995 -0.9803
23888SOL     OW73402   3.208   7.724   5.857 -0.0790  0.0913 -0.1700
23888SOL    HW173403   3.248   7.667   5.791 -1.3981 -2.2278  0.9300
23888SOL    HW273404   3.280   7.744   5.918  0.6504  0.5358 -1.1492
23889SOL     OW73405   2.041   8.091   7.715 -0.3529  0.2984 -0.2027
23889SOL    HW173406   1.973   8.035   7.753  1.0954 -2.0723 -0.9434
23889SOL    HW273407   2.010   8.111   7.627  0.0695 -1.2136 -0.7294
23890SOL     OW73408   2.008   6.177   8.831 -0.0134 -0.4746 -0.2060
23890SOL    HW173409   1.936   6.118   8.807 -0.6415 -0.9681  2.5731
23890SOL    HW273410   2.084   6.140   8.787 -0.8381 -1.9598 -0.4697
23891SOL     OW73411   4.419   6.031   7.182  0.7486 -0.0332  0.0303
23891SOL    HW173412   4.401   6.089   7.256  2.5316  0.5754  0.0223
23891SOL    HW273413   4.372   6.071   7.109 -0.9481 -0.5852  0.7563
23892SOL     OW73414   6.999   7.429   0.111 -0.3162 -0.1092  0.0640
23892SOL    HW173415   6.952   7.478   0.043 -1.3958  0.4379  1.1570
23892SOL    HW273416   7.033   7.352   0.067  0.0300  0.8150 -1.3527
23893SOL     OW73417   5.886   0.490   7.592  0.7575  0.1079 -0.5482
23893SOL    HW173418   5.894   0.414   7.534 -1.0977 -0.2833 -0.3799
23893SOL    HW273419   5.952   0.552   7.560  1.9954 -1.3686 -0.9866
23894SOL     OW73420   5.424   9.379   9.535  0.3248  0.4104 -0.0272
23894SOL    HW173421   5.445   9.421   9.618 -1.3969  0.8537  0.2288
23894SOL    HW273422   5.362   9.439   9.493  0.2944 -0.3506 -1.1093
23895SOL     OW73423   5.878   7.447   1.827 -0.4076 -0.8671  0.1360
23895SOL    HW173424   5.920   7.533   1.831  0.3051 -1.1635 -0.5893
23895SOL    HW273425   5.817   7.447   1.900  0.0849 -0.0051  0.5707
23896SOL     OW73426   8.917   1.002   9.012 -0.0448 -0.4793 -0.2315
23896SOL    HW173427   8.901   0.908   9.004  1.4349 -0.7067 -0.7420
23896SOL    HW273428   8.947   1.029   8.926 -1.6664  0.7547 -0.4759
23897SOL     OW73429   3.894   6.560   3.980 -0.2872 -0.4148  0.5173
23897SOL    HW173430   3.939   6.598   4.055 -0.0692 -0.9349  0.6561
23897SOL    HW273431   3.963   6.521   3.927 -0.5971 -1.5490  0.9271
23898SOL     OW73432   5.548   2.528   1.220  0.3937  0.4684 -0.7017
23898SOL    HW173433   5.466   2.504   1.178  0.3593 -0.1475 -0.2971
23898SOL    HW273434   5.534   2.618   1.249  0.1246  0.6150 -1.2682
23899SOL     OW73435   0.479   2.981   8.813 -0.3866  0.1081 -0.0597
23899SOL    HW173436   0.393   2.940   8.812  0.3799 -1.5914  0.0120
23899SOL    HW273437   0.538   2.913   8.847  0.7839  1.6487  1.1622
23900SOL     OW73438   6.651   0.231   3.409  0.5584  0.6504  0.3067
23900SOL    HW173439   6.740   0.199   3.427  0.4061  0.6217  1.0384
23900SOL    HW273440   6.626   0.277   3.489  0.3839  1.7351 -0.3695
23901SOL     OW73441   6.831   4.267   0.658  0.0257  0.6626  0.1755
23901SOL    HW173442   6.760   4.222   0.612 -0.0311 -0.6954  1.5478
23901SOL    HW273443   6.798   4.356   0.671 -1.4865  0.0363  0.8752
23902SOL     OW73444   4.518   9.264   5.003  0.1780 -0.4619 -0.2776
23902SOL    HW173445   4.498   9.326   5.073 -2.7459 -1.2926 -0.2058
23902SOL    HW273446   4.560   9.190   5.046 -0.6376 -0.5117  0.4520
23903SOL     OW73447   6.106   0.246   1.057 -0.6441 -0.0370 -0.2199
23903SOL    HW173448   6.087   0.338   1.040  1.4535  0.4551 -0.1939
23903SOL    HW273449   6.098   0.203   0.972  1.0645  0.7243 -0.8058
23904SOL     OW73450   6.958   3.500   8.458 -0.0575  0.6679  0.2851
23904SOL    HW173451   6.984   3.559   8.387  0.6038  1.1500  0.9028
23904SOL    HW273452   6.863   3.497   8.454  0.0313 -1.2179 -2.1195
23905SOL     OW73453   5.537   0.940   8.917  0.1816  0.2781  0.1493
23905SOL    HW173454   5.553   0.860   8.867  1.2733  1.6851 -1.9226
23905SOL    HW273455   5.624   0.969   8.943 -0.1891  0.8593  0.7643
23906SOL     OW73456   5.425   6.781   1.862 -0.1892 -0.4682 -0.1750
23906SOL    HW173457   5.477   6.750   1.788 -0.9544  0.1608 -0.9805
23906SOL    HW273458   5.403   6.702   1.910  0.6554 -0.8432 -0.3778
23907SOL     OW73459   6.494   1.205   0.255 -0.0211 -0.0802 -0.5798
23907SOL    HW173460   6.512   1.219   0.348 -1.2748  0.4380 -0.3987
23907SOL    HW273461   6.579   1.181   0.218  0.4858 -0.3541  0.7032
23908SOL     OW73462   1.127   3.032   4.059  0.2960  0.3656 -0.1331
23908SOL    HW173463   1.190   2.974   4.103  0.9158  0.7556 -0.4934
23908SOL    HW273464   1.099   3.093   4.126 -0.2630 -0.2567  0.2186
23909SOL     OW73465   4.109   8.889   4.149 -0.1862  0.6471 -0.0174
23909SOL    HW173466   4.156   8.957   4.100  0.8428  0.5537  0.7889
23909SOL    HW273467   4.153   8.808   4.125 -1.7684  0.1548 -1.4044
23910SOL     OW73468   4.572   7.732   6.468  0.0164  0.1614 -0.3130
23910SOL    HW173469   4.517   7.662   6.433 -0.1241 -0.0461  0.3136
23910SOL    HW273470   4.658   7.717   6.428  0.4306 -1.3487  1.0594
23911SOL     OW73471   0.219   2.054   1.014  0.5765  0.3032  0.8168
23911SOL    HW173472   0.242   2.147   1.005  3.1903 -0.2057  1.2657
23911SOL    HW273473   0.197   2.026   0.925  1.6462  0.9334  0.3308
23912SOL     OW73474   4.963   8.011   0.189 -0.0654 -0.3346  0.0531
23912SOL    HW173475   5.031   8.055   0.138 -0.9446  0.9365 -0.0630
23912SOL    HW273476   4.983   8.034   0.280  0.2852 -0.8719  0.1166
23913SOL     OW73477   5.250   1.148   8.101  0.2928 -0.0761  0.2906
23913SOL    HW173478   5.177   1.157   8.163  0.6136  1.4392  0.4749
23913SOL    HW273479   5.215   1.179   8.018  0.6219  0.3069  0.2945
23914SOL     OW73480   0.770   4.199   7.996 -0.6172  0.0307  0.3289
23914SOL    HW173481   0.766   4.238   7.909  1.7331  0.0433  0.1615
23914SOL    HW273482   0.780   4.273   8.056 -3.2638  0.1021  0.7793
23915SOL     OW73483   2.697   8.467   7.006  0.0740  0.3050 -0.3542
23915SOL    HW173484   2.704   8.477   6.911  0.0136  0.5199 -0.3365
23915SOL    HW273485   2.666   8.552   7.037  0.3846  0.3334 -0.1107
23916SOL     OW73486   8.720   6.099   4.335  0.1500  0.0630 -0.8770
23916SOL    HW173487   8.739   6.053   4.418 -1.8081  2.1444  0.8420
23916SOL    HW273488   8.644   6.053   4.300 -0.4848  0.6173 -0.2602
23917SOL     OW73489   3.633   4.889   9.419  0.2608 -0.4087 -0.0408
23917SOL    HW173490   3.685   4.968   9.411  2.6002 -1.8802 -0.3820
23917SOL    HW273491   3.566   4.910   9.484  0.9243  1.7660 -0.0023
23918SOL     OW73492   0.655   5.842   3.892  0.4435 -0.3594  0.1170
23918SOL    HW173493   0.715   5.914   3.874 -1.6824  1.8297  1.2969
23918SOL    HW273494   0.613   5.864   3.975  0.4948 -3.5629  1.1430
23919SOL     OW73495   3.853   1.201   5.499  0.5726 -0.4788 -0.0388
23919SOL    HW173496   3.896   1.186   5.583 -0.6097 -2.3602  0.2858
23919SOL    HW273497   3.926   1.218   5.438  1.5591 -0.6544  1.0576
23920SOL     OW73498   5.000   1.141   2.196  0.0736  0.0930  0.1680
23920SOL    HW173499   4.948   1.078   2.246 -0.4056  1.0651  0.9208
23920SOL    HW273500   5.084   1.145   2.242  0.8881 -1.5173 -1.0789
23921SOL     OW73501   5.514   7.352   0.525  0.4932  0.1647  0.9636
23921SOL    HW173502   5.528   7.317   0.613  0.6881 -0.0955  0.8322
23921SOL    HW273503   5.445   7.297   0.488 -1.3330  1.7833  1.8047
23922SOL     OW73504   8.747   5.089   1.431 -0.2123  0.4322 -0.0203
23922SOL    HW173505   8.791   5.056   1.509 -1.0798  0.4459  0.4869
23922SOL    HW273506   8.801   5.163   1.403 -0.4685  1.1078  1.2010
23923SOL     OW73507   2.627   0.570   7.856  0.1981 -0.7163 -0.1783
23923SOL    HW173508   2.683   0.608   7.924  0.8357 -1.1875 -0.4322
23923SOL    HW273509   2.682   0.569   7.777 -1.8514  4.0881 -2.0512
23924SOL     OW73510   7.915   1.695   5.650 -0.3687 -0.2861 -0.1952
23924SOL    HW173511   7.984   1.711   5.715 -0.3417 -0.4272 -0.1907
23924SOL    HW273512   7.958   1.706   5.565 -1.0227  2.9132 -0.2469
23925SOL     OW73513   8.567   6.727   9.171  0.3429  0.3825 -0.0572
23925SOL    HW173514   8.630   6.656   9.153 -0.4170 -0.3798  0.2063
23925SOL    HW273515   8.544   6.715   9.263  0.5486  1.2698  0.1130
23926SOL     OW73516   5.904   8.137   8.017 -0.3283  0.2091  0.8033
23926SOL    HW173517   5.838   8.097   8.074 -1.1503  1.0026  0.4360
23926SOL    HW273518   5.986   8.096   8.043 -1.0293 -1.2189  0.9041
23927SOL     OW73519   5.868   2.804   7.140  0.3873 -0.2739 -0.2761
23927SOL    HW173520   5.844   2.876   7.198  0.6511 -0.8817  0.5988
23927SOL    HW273521   5.947   2.766   7.179  0.5516 -0.7124 -1.0127
23928SOL     OW73522   2.081   1.367   9.405 -0.2624 -0.1128 -0.0469
23928SOL    HW173523   2.036   1.404   9.481 -0.2555  0.5312 -0.3477
23928SOL    HW273524   2.170   1.402   9.411 -0.5006  0.6741 -0.8265
23929SOL     OW73525   5.049   6.118   2.589  0.4270 -0.1078  0.1015
23929SOL    HW173526   5.044   6.041   2.645 -0.4709  0.9029  1.4789
23929SOL    HW273527   4.994   6.183   2.633  0.4672  1.0440 -1.4692
23930SOL     OW73528   3.171   6.717   2.237  0.2053 -0.5417 -0.1296
23930SOL    HW173529   3.086   6.732   2.279  0.5899 -0.8713  0.7836
23930SOL    HW273530   3.164   6.631   2.197  0.5898 -1.1954  1.1826
23931SOL     OW73531   0.732   6.912   7.139 -0.5000  0.3990 -0.0465
23931SOL    HW173532   0.725   6.889   7.232 -1.2281  1.5274  0.1871
23931SOL    HW273533   0.827   6.921   7.124 -0.3711  0.0946  0.5452
23932SOL     OW73534   8.867   1.749   5.123 -0.3513  0.3276 -0.2268
23932SOL    HW173535   8.901   1.676   5.072 -0.0179  0.0212  0.4137
23932SOL    HW273536   8.798   1.788   5.068  0.0133  0.0272 -0.9037
23933SOL     OW73537   2.950   5.252   0.899  0.0534 -0.1398 -0.0848
23933SOL    HW173538   2.876   5.268   0.840 -0.5599 -0.5733  0.5403
23933SOL    HW273539   2.939   5.316   0.969 -0.9082 -1.4841  1.0538
23934SOL     OW73540   3.302   1.397   2.610  0.0619 -0.3582  0.3956
23934SOL    HW173541   3.226   1.342   2.629 -0.1766 -0.1561  0.0368
23934SOL    HW273542   3.267   1.486   2.609 -0.1460 -0.4034 -1.9008
23935SOL     OW73543   3.209   2.850   3.767 -0.2480 -0.3576  0.3915
23935SOL    HW173544   3.181   2.874   3.678 -3.2144  1.5337  1.6542
23935SOL    HW273545   3.247   2.930   3.802  0.5923 -0.9888  0.9408
23936SOL     OW73546   1.324   2.054   8.137 -0.3651 -0.1055 -0.1285
23936SOL    HW173547   1.399   2.114   8.143 -0.8437  0.6408 -1.2813
23936SOL    HW273548   1.255   2.097   8.187 -0.4979 -0.0308 -0.3754
23937SOL     OW73549   3.886   9.428   8.092 -0.5760 -0.0700 -0.5714
23937SOL    HW173550   3.837   9.346   8.087 -0.9879 -0.1086  2.1530
23937SOL    HW273551   3.846   9.475   8.166  0.8567  1.7494 -0.8814
23938SOL     OW73552   4.040   8.901   3.866  0.6285  0.2758  0.2046
23938SOL    HW173553   3.951   8.876   3.839  1.0767  0.9076 -2.0635
23938SOL    HW273554   4.042   8.883   3.960 -1.4349 -1.0755  0.0584
23939SOL     OW73555   5.470   7.530   8.572 -0.2285  0.4212 -0.0955
23939SOL    HW173556   5.486   7.560   8.482 -1.3325 -0.6206 -0.6717
23939SOL    HW273557   5.495   7.437   8.571  0.2896  0.5371  0.8402
23940SOL     OW73558   0.983   1.344   6.199 -0.1068  0.1730  0.2299
23940SOL    HW173559   1.034   1.424   6.192  0.1220 -0.0694 -0.9863
23940SOL    HW273560   0.913   1.354   6.134  1.5249 -1.7547 -1.9686
23941SOL     OW73561   4.385   1.288   6.423  0.0612 -0.2457  0.8201
23941SOL    HW173562   4.304   1.264   6.377  0.3530  1.5585 -0.7575
23941SOL    HW273563   4.455   1.258   6.365  0.4400  2.0625 -0.0219
23942SOL     OW73564   8.659   7.218   5.482  0.1758 -0.1781 -0.9727
23942SOL    HW173565   8.744   7.205   5.441 -0.3098  1.0467 -2.4526
23942SOL    HW273566   8.595   7.212   5.411 -1.1778 -2.5649  0.3131
23943SOL     OW73567   1.981   4.259   2.987  0.7296  0.0041 -0.5667
23943SOL    HW173568   1.886   4.254   2.980  0.4508  0.7875  1.7686
23943SOL    HW273569   2.008   4.169   3.007  0.4808 -0.2068 -1.1680
23944SOL     OW73570   1.515   8.793   0.294 -0.3715 -0.2305  0.1112
23944SOL    HW173571   1.540   8.749   0.212  0.5697 -0.7972  0.6783
23944SOL    HW273572   1.534   8.886   0.278  3.0857 -0.6882  0.7694
23945SOL     OW73573   2.575   1.194   4.165 -0.0043 -0.1352  0.0690
23945SOL    HW173574   2.528   1.153   4.238  0.2831  1.2110  1.0403
23945SOL    HW273575   2.518   1.181   4.089 -1.0005 -0.2550  0.8205
23946SOL     OW73576   0.437   8.538   1.133 -0.3778 -0.3025 -0.2296
23946SOL    HW173577   0.384   8.591   1.192  2.5196  0.9560  1.4798
23946SOL    HW273578   0.379   8.517   1.059 -3.5188 -0.1364  2.0212
23947SOL     OW73579   1.404   8.148   4.119  0.2852  0.3212 -0.0087
23947SOL    HW173580   1.333   8.189   4.069  1.2787  1.4302 -0.5754
23947SOL    HW273581   1.455   8.101   4.053  0.4611  0.1059  0.2801
23948SOL     OW73582   2.172   7.878   7.400  0.1073  0.3210  0.2741
23948SOL    HW173583   2.254   7.907   7.442  0.3883  1.3574 -0.9229
23948SOL    HW273584   2.111   7.950   7.416 -1.2381 -1.2591  2.8327
23949SOL     OW73585   3.310   3.274   7.963 -0.0206 -0.1908  0.1826
23949SOL    HW173586   3.347   3.199   7.915  1.0101  0.8676 -0.7362
23949SOL    HW273587   3.276   3.331   7.895  1.0199  1.1194  0.7225
23950SOL     OW73588   1.559   2.498   4.831 -0.0254 -0.3355  0.3774
23950SOL    HW173589   1.530   2.449   4.754  0.7144 -1.1028  0.5730
23950SOL    HW273590   1.648   2.527   4.809 -0.5516  1.1819  0.1527
23951SOL     OW73591   5.705   2.488   3.197  0.4736  0.1044  1.0351
23951SOL    HW173592   5.703   2.402   3.155  0.1893  0.2839  0.6716
23951SOL    HW273593   5.783   2.487   3.252  1.2747  0.1354 -0.0788
23952SOL     OW73594   3.957   4.605   3.095  0.3170 -0.2300  0.4979
23952SOL    HW173595   4.033   4.564   3.055 -0.2419 -2.6825  1.7463
23952SOL    HW273596   3.989   4.639   3.179  0.6468  1.4552 -0.2771
23953SOL     OW73597   8.417   6.755   5.656 -0.5980  0.6180 -0.2354
23953SOL    HW173598   8.373   6.702   5.590  0.2214  0.1755 -0.4308
23953SOL    HW273599   8.498   6.784   5.614  0.2048 -0.1303  0.7507
23954SOL     OW73600   5.888   5.921   6.236 -1.1529  0.2120 -0.2052
23954SOL    HW173601   5.951   5.907   6.306 -1.1710  0.6634 -0.0935
23954SOL    HW273602   5.926   5.878   6.159 -0.5183  0.8276 -0.2432
23955SOL     OW73603   6.810   2.739   8.093 -0.4974  0.4582  0.3719
23955SOL    HW173604   6.857   2.757   8.175  0.0826 -1.3041  0.4657
23955SOL    HW273605   6.875   2.750   8.025 -0.9240  1.6975  0.1423
23956SOL     OW73606   2.382   2.205   0.614 -0.0913 -0.1951 -0.3059
23956SOL    HW173607   2.303   2.188   0.665 -0.0597  0.3098 -0.0803
23956SOL    HW273608   2.398   2.124   0.566  0.6842 -1.2465  1.5959
23957SOL     OW73609   7.201   6.070   3.506 -0.0164 -0.0378  0.1053
23957SOL    HW173610   7.173   6.079   3.597  1.5492  0.9886  0.5184
23957SOL    HW273611   7.295   6.088   3.507 -0.0495  0.4948 -1.7828
23958SOL     OW73612   0.160   8.585   9.082 -0.4466 -0.2030  0.1454
23958SOL    HW173613   0.066   8.568   9.081 -0.4448 -0.3294  1.1770
23958SOL    HW273614   0.170   8.669   9.037 -1.2292  0.5954  1.4036
23959SOL     OW73615   1.658   8.839   1.094  0.7976 -0.0662 -0.4841
23959SOL    HW173616   1.752   8.844   1.077  1.2064  0.5471  1.6011
23959SOL    HW273617   1.633   8.751   1.065  1.8856 -0.0415 -1.5575
23960SOL     OW73618   8.405   1.925   6.627 -0.0984 -0.3696  0.1058
23960SOL    HW173619   8.453   1.969   6.557 -0.6018  0.9464  0.5652
23960SOL    HW273620   8.362   1.851   6.584 -1.7703  1.3740 -1.3626
23961SOL     OW73621   8.363   1.672   6.398 -0.1804 -0.5928  0.0421
23961SOL    HW173622   8.430   1.604   6.405  0.5337 -0.1088 -1.7512
23961SOL    HW273623   8.335   1.670   6.307 -1.1155  0.6236  0.2693
23962SOL     OW73624   0.942   3.010   0.476 -0.1565 -0.1310 -0.4441
23962SOL    HW173625   0.927   3.076   0.544 -0.8172 -1.6386  0.9287
23962SOL    HW273626   0.886   2.937   0.500  1.8894 -1.9467 -0.8543
23963SOL     OW73627   5.215   9.291   6.579  0.1350 -0.2811  0.3117
23963SOL    HW173628   5.199   9.301   6.486 -0.8258 -1.4721  0.3283
23963SOL    HW273629   5.296   9.340   6.595 -0.0251  0.4579 -1.0103
23964SOL     OW73630   1.474   1.585   3.732  0.7274  0.1057 -0.0954
23964SOL    HW173631   1.536   1.657   3.736 -0.5354  1.1837  1.1059
23964SOL    HW273632   1.529   1.506   3.737  1.9876  1.0196  1.8936
23965SOL     OW73633   2.577   9.055   6.702 -0.0921  0.0998  0.0511
23965SOL    HW173634   2.506   9.086   6.645 -0.0126 -1.0616 -0.7093
23965SOL    HW273635   2.580   9.120   6.773 -2.2951 -0.0974  0.4127
23966SOL     OW73636   5.712   3.819   1.103 -0.0377 -0.2386 -0.1303
23966SOL    HW173637   5.657   3.864   1.038  0.6137 -0.1591 -0.6301
23966SOL    HW273638   5.798   3.860   1.094  0.3981 -1.1427 -0.1476
23967SOL     OW73639   0.027   4.820   3.241 -0.3144 -0.6131  0.4863
23967SOL    HW173640  -0.016   4.751   3.293 -0.7445 -0.0287  0.9287
23967SOL    HW273641  -0.038   4.890   3.237  0.2240 -0.1208  0.2854
23968SOL     OW73642   0.167   7.051   4.572 -0.6578 -0.1435 -0.1237
23968SOL    HW173643   0.228   6.986   4.536 -0.3621 -0.2348  0.5307
23968SOL    HW273644   0.203   7.073   4.658 -1.0313  0.5162 -0.1308
23969SOL     OW73645   5.537   4.159   6.328 -0.3427 -0.3788  0.0161
23969SOL    HW173646   5.506   4.126   6.412 -0.0365  1.9219  1.0984
23969SOL    HW273647   5.582   4.084   6.289  0.5337 -1.2080  2.4250
23970SOL     OW73648   7.846   5.475   2.150 -0.5573  0.4514 -0.0834
23970SOL    HW173649   7.909   5.405   2.133 -0.9694  0.3761 -1.4132
23970SOL    HW273650   7.776   5.460   2.087 -2.4418 -0.0633  1.9959
23971SOL     OW73651   8.255   8.907   8.974  0.1527  0.0168 -0.3564
23971SOL    HW173652   8.325   8.851   8.942  1.7092  0.5336  1.9074
23971SOL    HW273653   8.175   8.869   8.937  1.4296 -1.7568 -1.4564
23972SOL     OW73654   4.798   7.052   5.252  0.2684  0.3007  0.0177
23972SOL    HW173655   4.834   7.042   5.164  0.0372 -0.6339  0.0183
23972SOL    HW273656   4.745   7.132   5.247  2.0359  1.5129 -0.0719
23973SOL     OW73657   2.172   3.465   2.072  0.2633  0.2455  0.1837
23973SOL    HW173658   2.260   3.434   2.091  1.0528  1.7951 -0.7113
23973SOL    HW273659   2.165   3.461   1.977 -0.9560 -0.6541  0.2952
23974SOL     OW73660   6.872   6.549   2.580  0.2972  0.0668  0.1510
23974SOL    HW173661   6.903   6.477   2.634  1.4528 -0.8710 -1.6777
23974SOL    HW273662   6.894   6.524   2.490 -2.0779  1.2542 -0.8827
23975SOL     OW73663   9.180   1.687   2.206 -0.4318  0.5927  0.2427
23975SOL    HW173664   9.129   1.756   2.248 -0.2185  0.9255 -0.0451
23975SOL    HW273665   9.216   1.728   2.128  0.3104  0.3686  0.4621
23976SOL     OW73666   5.192   1.469   0.526 -0.1565 -0.4751 -0.0265
23976SOL    HW173667   5.172   1.408   0.455  1.3870 -1.6919  0.5167
23976SOL    HW273668   5.259   1.424   0.578 -1.5205  0.1897  2.4602
23977SOL     OW73669   7.168   8.262   8.087  0.6663  0.0832 -0.3476
23977SOL    HW173670   7.190   8.340   8.138  0.7076 -0.7707  1.0006
23977SOL    HW273671   7.073   8.255   8.095  0.3402  1.2667 -2.4362
23978SOL     OW73672   7.482   4.210   7.717 -0.2157  0.0446  0.2582
23978SOL    HW173673   7.497   4.115   7.716 -0.8016 -0.0453 -0.5183
23978SOL    HW273674   7.410   4.222   7.780  0.0793  0.0138  0.6051
23979SOL     OW73675   2.208   1.485   4.516  0.0738  0.2771  0.3418
23979SOL    HW173676   2.278   1.500   4.453  0.5553  2.3421  1.2882
23979SOL    HW273677   2.127   1.506   4.469  0.4373  1.9291  0.3948
23980SOL     OW73678   3.153   8.922   6.669  0.2574 -0.0498  0.0396
23980SOL    HW173679   3.152   8.933   6.574  0.0577 -0.4929 -0.0106
23980SOL    HW273680   3.241   8.891   6.689  1.2925  2.7991  0.3285
23981SOL     OW73681   8.884   7.570   8.449  0.4172  0.3668  0.2029
23981SOL    HW173682   8.829   7.508   8.497  0.4513  0.5380  0.4600
23981SOL    HW273683   8.869   7.547   8.357  0.8906 -0.4201  0.3148
23982SOL     OW73684   9.038   3.512   3.776 -0.5148 -0.2080  0.0845
23982SOL    HW173685   8.982   3.578   3.816  2.0326  2.9245 -1.0412
23982SOL    HW273686   9.013   3.513   3.683 -0.1718 -0.4556 -0.0123
23983SOL     OW73687   5.009   0.876   0.368 -0.2257 -0.5517  0.1999
23983SOL    HW173688   4.959   0.798   0.394 -0.5202 -1.2613 -2.2002
23983SOL    HW273689   5.099   0.845   0.361 -0.0599 -0.2315  0.8491
23984SOL     OW73690   1.759   7.633   8.049  0.3345  0.6261 -0.4924
23984SOL    HW173691   1.667   7.661   8.049 -0.6766 -2.2370  1.8324
23984SOL    HW273692   1.790   7.654   7.961 -2.0389  3.0783 -0.8803
23985SOL     OW73693   9.002   5.963   7.862  0.3091  0.0348  0.0754
23985SOL    HW173694   8.940   5.959   7.936  1.5978  1.6127  1.3132
23985SOL    HW273695   9.088   5.963   7.904  1.1349 -0.7811 -1.5519
23986SOL     OW73696   8.067   4.302   2.874  0.2048  0.0846 -0.1066
23986SOL    HW173697   8.148   4.297   2.926 -0.1257 -1.1994  0.3206
23986SOL    HW273698   8.097   4.295   2.784  0.6345  0.4241  0.0053
23987SOL     OW73699   8.184   0.742   3.159 -0.2125 -0.1071 -0.2297
23987SOL    HW173700   8.142   0.756   3.244  0.8281  0.1717  0.2549
23987SOL    HW273701   8.187   0.647   3.149  0.1946 -0.1608  0.3351
23988SOL     OW73702   9.410   3.003   3.326  0.2067  0.0922 -0.3419
23988SOL    HW173703   9.422   3.019   3.232 -1.0914  1.7160 -0.2893
23988SOL    HW273704   9.487   2.954   3.353  1.7301  1.5464 -1.8176
23989SOL     OW73705   5.036   2.672   6.714  0.3183 -0.0874 -0.3373
23989SOL    HW173706   5.123   2.654   6.750 -0.1171 -0.4546  0.5599
23989SOL    HW273707   5.038   2.765   6.691  0.2354  0.5153  1.8227
23990SOL     OW73708   1.704   5.748   4.269 -0.1321  0.1604  0.2419
23990SOL    HW173709   1.707   5.656   4.240 -0.2896  0.0980  0.4197
23990SOL    HW273710   1.754   5.749   4.350  0.6521  0.4169 -0.2325
23991SOL     OW73711   0.006   2.982   8.574 -0.1716 -0.0266 -0.2148
23991SOL    HW173712   0.079   3.042   8.560 -0.6262  0.5915  0.0244
23991SOL    HW273713  -0.072   3.037   8.565 -0.6253 -0.7742 -0.9623
23992SOL     OW73714   6.441   1.231   5.612 -0.4284 -0.0148 -0.0813
23992SOL    HW173715   6.430   1.277   5.529  2.0310 -2.3204 -1.8632
23992SOL    HW273716   6.523   1.263   5.647 -0.6008 -0.2966  0.6010
23993SOL     OW73717   7.340   9.262   2.990 -0.1402  0.0716 -0.6445
23993SOL    HW173718   7.343   9.279   2.896 -0.7992 -1.2976 -0.9455
23993SOL    HW273719   7.287   9.183   2.998  0.4837 -0.2334  0.8198
23994SOL     OW73720   5.967   4.348   9.433 -0.5173 -0.3282  0.1718
23994SOL    HW173721   5.983   4.254   9.427 -2.0917 -0.7037  1.3282
23994SOL    HW273722   6.013   4.375   9.513  1.1543  0.2202 -0.9061
23995SOL     OW73723   2.276   5.442   9.607  0.4330  0.2899  0.1167
23995SOL    HW173724   2.288   5.371   9.543  3.3261  2.2346 -1.7441
23995SOL    HW273725   2.232   5.401   9.681  0.9518 -3.1662 -1.3155
23996SOL     OW73726   2.313   8.393   7.811  0.0391 -0.1757  0.1390
23996SOL    HW173727   2.358   8.470   7.843 -1.0182 -0.0268  1.4031
23996SOL    HW273728   2.341   8.323   7.870 -2.4877  0.2455  2.0446
23997SOL     OW73729   6.538   8.267   2.560 -0.0116 -0.2352 -0.0523
23997SOL    HW173730   6.508   8.197   2.503  2.4713  0.0408 -1.8487
23997SOL    HW273731   6.575   8.222   2.636  0.2047 -0.8381 -0.5041
23998SOL     OW73732   4.958   1.351   9.397 -0.0499  0.1970  0.8506
23998SOL    HW173733   5.012   1.430   9.390  1.2262 -0.4769  2.3664
23998SOL    HW273734   4.976   1.303   9.316  0.5905  0.6254  0.7270
23999SOL     OW73735   8.955   3.289   8.198 -0.2716  0.2364  0.2021
23999SOL    HW173736   8.926   3.368   8.242 -2.7484 -0.0854 -0.7115
23999SOL    HW273737   8.895   3.278   8.125  1.5463 -1.1588 -1.1958
24000SOL     OW73738   6.777   2.979   4.817  0.4056 -0.4991  0.1527
24000SOL    HW173739   6.751   2.926   4.742  0.4127  1.0156 -0.9538
24000SOL    HW273740   6.732   3.063   4.805  1.5991  0.3048  1.0133
24001SOL     OW73741   1.518   9.201   1.786  0.0494  0.3041 -0.6222
24001SOL    HW173742   1.554   9.120   1.821 -0.8877  0.0978 -0.0998
24001SOL    HW273743   1.464   9.172   1.712 -0.5822  0.4095 -0.2055
24002SOL     OW73744   3.388   2.126   1.158 -0.9978  0.1189  0.2601
24002SOL    HW173745   3.321   2.089   1.101  1.3300 -0.2054 -2.5286
24002SOL    HW273746   3.380   2.220   1.147 -1.4978  0.1195  0.6014
24003SOL     OW73747   6.879   0.158   0.300  0.0079  0.3875 -1.0618
24003SOL    HW173748   6.893   0.065   0.282  1.2300  0.7049 -1.9157
24003SOL    HW273749   6.939   0.177   0.373 -1.3160  0.1984  0.1032
24004SOL     OW73750   6.566   4.479   1.655  0.3881 -0.4104 -0.0000
24004SOL    HW173751   6.636   4.474   1.590  1.3991  0.6593  0.9636
24004SOL    HW273752   6.578   4.564   1.697 -0.9316 -0.6046  0.8143
24005SOL     OW73753   3.407   2.663   6.703 -0.5706 -0.4793  0.0620
24005SOL    HW173754   3.451   2.673   6.619  0.8282 -1.8873  0.5769
24005SOL    HW273755   3.457   2.720   6.762 -1.1741  0.0434  0.0711
24006SOL     OW73756   1.379   2.273   1.735 -0.3372  0.3907  0.2955
24006SOL    HW173757   1.356   2.264   1.643 -1.5524  1.6205  0.4540
24006SOL    HW273758   1.296   2.263   1.782 -0.1531  2.2662  1.0746
24007SOL     OW73759   4.721   5.949   1.345  0.0057  0.2232  0.6483
24007SOL    HW173760   4.627   5.966   1.352 -0.2330 -0.6966 -0.1750
24007SOL    HW273761   4.757   6.030   1.309 -0.5440  0.4033  0.4933
24008SOL     OW73762   4.741   6.279   7.330 -0.5147 -0.2354 -0.0363
24008SOL    HW173763   4.703   6.269   7.243 -2.1871 -2.8653  0.8996
24008SOL    HW273764   4.824   6.232   7.325 -0.4468 -0.0954 -0.2795
24009SOL     OW73765   9.482   0.904   5.123 -0.1742  0.1288 -0.6997
24009SOL    HW173766   9.407   0.960   5.102  0.5960  0.8982 -1.4791
24009SOL    HW273767   9.555   0.965   5.134  0.3770 -0.6190 -0.0941
24010SOL     OW73768   6.729   8.400   3.695  0.8446 -0.6099 -0.2043
24010SOL    HW173769   6.650   8.437   3.656  2.0604 -0.1423 -2.4644
24010SOL    HW273770   6.710   8.307   3.703 -0.3488 -0.3309  0.4759
24011SOL     OW73771   0.269   6.415   0.489 -0.2437  0.2451 -0.1707
24011SOL    HW173772   0.207   6.481   0.520 -0.0024  0.2170  0.4001
24011SOL    HW273773   0.309   6.454   0.411  1.2681  1.6318  1.2066
24012SOL     OW73774   6.187   7.204   2.153 -0.1048 -0.0016 -0.6509
24012SOL    HW173775   6.275   7.231   2.130  0.1979 -1.3899 -1.1870
24012SOL    HW273776   6.149   7.171   2.072 -0.5485 -0.9050 -0.1004
24013SOL     OW73777   2.193   1.978   4.055  0.8054  0.0282 -0.2319
24013SOL    HW173778   2.210   1.887   4.032  0.8124  0.3613 -1.6438
24013SOL    HW273779   2.107   1.977   4.097  0.6490 -0.5884 -0.5552
24014SOL     OW73780   9.161   3.034   0.854 -0.4249 -0.6060 -0.2445
24014SOL    HW173781   9.111   3.115   0.862 -1.5689 -1.4132  1.1206
24014SOL    HW273782   9.175   3.005   0.944  2.4335 -0.5047 -0.5517
24015SOL     OW73783   1.687   2.494   3.702 -0.2067 -0.3715  0.6519
24015SOL    HW173784   1.625   2.566   3.716  0.7655  0.8664 -0.9823
24015SOL    HW273785   1.753   2.505   3.771  0.1372  0.5895  0.1965
24016SOL     OW73786   1.313   4.367   1.003  0.0033  1.1505 -0.3530
24016SOL    HW173787   1.251   4.436   0.979 -0.0404  0.9068 -0.9689
24016SOL    HW273788   1.397   4.412   1.013  0.3203  1.0809 -2.3518
24017SOL     OW73789   6.382   0.778   3.836  0.3334 -0.3725 -0.0096
24017SOL    HW173790   6.309   0.840   3.825 -0.2330 -1.0133  0.0795
24017SOL    HW273791   6.371   0.715   3.765  0.1126 -1.1387  0.6904
24018SOL     OW73792   8.869   6.402   4.026  0.0464 -0.1179 -0.9039
24018SOL    HW173793   8.934   6.452   4.075 -0.6541  2.0156 -2.0307
24018SOL    HW273794   8.808   6.370   4.093  0.0071  1.3479 -0.1940
24019SOL     OW73795   9.152   2.628   4.306  0.3880  0.0520 -0.2666
24019SOL    HW173796   9.068   2.668   4.286  0.5833 -0.4764 -2.4836
24019SOL    HW273797   9.206   2.646   4.229  2.4468  0.6574  1.2248
24020SOL     OW73798   0.026   1.264   4.692 -0.0441  0.9113 -0.0552
24020SOL    HW173799   0.115   1.297   4.704 -0.0792  1.2540 -0.6924
24020SOL    HW273800  -0.001   1.299   4.607  0.1394 -1.1832 -1.0605
24021SOL     OW73801   0.861   7.631   6.008 -0.7574  0.3511 -0.0958
24021SOL    HW173802   0.854   7.692   6.081 -0.0360  1.3579 -0.8410
24021SOL    HW273803   0.852   7.686   5.930 -1.0791 -0.6397 -0.7789
24022SOL     OW73804   0.268   6.846   6.781  0.0550 -0.4190 -0.4947
24022SOL    HW173805   0.344   6.790   6.799 -0.5010 -0.6335  1.3769
24022SOL    HW273806   0.195   6.785   6.771 -0.1844 -0.1256 -0.5464
24023SOL     OW73807   1.095   5.785   8.643 -0.1236 -0.6286  0.8839
24023SOL    HW173808   1.045   5.717   8.687 -0.4015 -0.7512  0.3847
24023SOL    HW273809   1.174   5.741   8.613  0.6597 -0.2707  2.3233
24024SOL     OW73810   3.415   5.603   6.687 -0.2548  0.2007 -0.3114
24024SOL    HW173811   3.338   5.603   6.744 -0.1566 -1.3641 -0.1447
24024SOL    HW273812   3.381   5.578   6.602 -0.1344  0.9011 -0.5729
24025SOL     OW73813   4.180   0.103   2.680 -0.1164 -0.1646  0.3444
24025SOL    HW173814   4.114   0.134   2.617 -2.4135 -2.3639  1.4892
24025SOL    HW273815   4.154   0.143   2.763  0.5382 -0.3621  0.6472
24026SOL     OW73816   3.371   6.402   8.689 -0.0653 -0.2691 -0.3959
24026SOL    HW173817   3.438   6.401   8.620  0.1551 -0.3110 -0.1843
24026SOL    HW273818   3.304   6.342   8.658 -0.1725  0.0441 -0.7762
24027SOL     OW73819   3.182   9.222   3.287  0.3398  0.0066  0.1281
24027SOL    HW173820   3.104   9.185   3.247  0.9582  1.7062 -2.9801
24027SOL    HW273821   3.162   9.315   3.299  0.6967 -0.1675  2.6933
24028SOL     OW73822   2.418   8.295   3.190  0.1123  0.0841 -0.3379
24028SOL    HW173823   2.397   8.240   3.114  0.0577  1.0049 -1.0223
24028SOL    HW273824   2.508   8.324   3.174  0.2574 -0.0834  0.1840
24029SOL     OW73825   1.435   8.190   7.959 -0.0834 -0.5241 -0.0576
24029SOL    HW173826   1.445   8.218   8.050 -0.7207  0.3445 -0.2392
24029SOL    HW273827   1.340   8.195   7.943  0.1279  0.5541 -1.1289
24030SOL     OW73828   2.256   2.894   4.521 -0.3668  0.1212 -0.4694
24030SOL    HW173829   2.267   2.819   4.463  0.6568 -2.2394  2.5076
24030SOL    HW273830   2.334   2.893   4.576 -1.0987  2.4336  0.7286
24031SOL     OW73831   8.506   2.998   5.036 -0.0007  0.2453  0.4291
24031SOL    HW173832   8.563   3.028   4.965  0.9886 -0.1296  1.0485
24031SOL    HW273833   8.560   3.007   5.115 -1.2082  1.0308  1.2023
24032SOL     OW73834   9.358   1.128   4.697 -0.3973  0.0690  0.4903
24032SOL    HW173835   9.450   1.156   4.701 -0.6173  0.8018  0.5714
24032SOL    HW273836   9.308   1.210   4.696 -1.2337 -0.2551  3.9585
24033SOL     OW73837   5.105   2.619   7.128 -0.2293  0.4654 -1.0126
24033SOL    HW173838   5.077   2.711   7.131 -0.5221  0.3695  1.6680
24033SOL    HW273839   5.027   2.572   7.099 -0.5633  0.9272 -0.8856
24034SOL     OW73840   4.251   6.472   2.539 -0.2291 -0.1246  0.1932
24034SOL    HW173841   4.327   6.419   2.512 -0.6222  0.0075 -1.2864
24034SOL    HW273842   4.176   6.415   2.522 -0.5061 -0.0171  1.0393
24035SOL     OW73843   5.411   5.338   6.588  0.7769  0.0018  0.1242
24035SOL    HW173844   5.375   5.381   6.511  0.8848  0.1530  0.1586
24035SOL    HW273845   5.506   5.346   6.578  0.8186 -0.6742 -0.1287
24036SOL     OW73846   4.452   7.860   4.061 -0.5771  0.4775  0.4803
24036SOL    HW173847   4.542   7.831   4.076 -0.5982  0.4526  0.5618
24036SOL    HW273848   4.455   7.908   3.979 -0.6659 -0.3344 -0.0165
24037SOL     OW73849   8.506   0.392   4.407 -0.5833 -0.2590 -0.5075
24037SOL    HW173850   8.435   0.389   4.343 -1.2671  0.7111  0.1778
24037SOL    HW273851   8.467   0.432   4.484 -0.1588 -2.5827  1.0348
24038SOL     OW73852   7.414   4.952   5.879  0.1621  0.1697 -0.0985
24038SOL    HW173853   7.445   4.937   5.969  2.8775  1.6864 -0.6949
24038SOL    HW273854   7.415   5.047   5.869 -0.4332  0.0333 -1.6476
24039SOL     OW73855   9.240   0.876   3.652  0.6067  0.4697 -0.3579
24039SOL    HW173856   9.182   0.841   3.720  1.5985  1.3721  1.0144
24039SOL    HW273857   9.195   0.857   3.570 -0.7521 -0.4594  0.5552
24040SOL     OW73858   0.524   8.152   6.412  0.2134  0.2403 -0.1419
24040SOL    HW173859   0.568   8.233   6.386  0.5933 -0.2839 -1.1945
24040SOL    HW273860   0.431   8.168   6.392  0.4426 -0.0115 -1.5805
24041SOL     OW73861   8.568   4.131   7.704  0.2547 -0.0836  0.2866
24041SOL    HW173862   8.556   4.050   7.655 -2.3980  0.8770 -0.8674
24041SOL    HW273863   8.562   4.105   7.796 -2.8538 -1.0440 -0.0644
24042SOL     OW73864   7.740   5.167   0.404  0.4519 -0.3941 -0.4306
24042SOL    HW173865   7.808   5.234   0.393  0.4016 -0.4816 -1.3229
24042SOL    HW273866   7.785   5.084   0.391  0.2032 -0.4588 -0.8842
24043SOL     OW73867   8.990   4.706   4.991  0.3237 -0.3959 -0.0361
24043SOL    HW173868   9.052   4.671   5.055 -0.0199  0.2953  0.6824
24043SOL    HW273869   8.904   4.690   5.028  0.1477  0.8424  0.1260
24044SOL     OW73870   0.808   6.389   7.091  0.2310 -0.5013 -0.1948
24044SOL    HW173871   0.884   6.378   7.034  0.5714  0.4668  0.0574
24044SOL    HW273872   0.844   6.389   7.180 -0.0641 -0.1186 -0.0707
24045SOL     OW73873   8.579   4.802   7.816 -0.1587  0.7569  0.4477
24045SOL    HW173874   8.545   4.865   7.753 -0.0514  0.3967  0.0246
24045SOL    HW273875   8.668   4.783   7.785 -0.0887  0.6107  0.7331
24046SOL     OW73876   3.457   0.383   5.128 -0.1634 -0.2921 -0.2226
24046SOL    HW173877   3.498   0.390   5.042 -1.7843 -0.3687 -1.0241
24046SOL    HW273878   3.507   0.443   5.183  0.6135  0.1012 -1.3200
24047SOL     OW73879   4.932   2.568   3.167 -0.5079  0.0644  0.0382
24047SOL    HW173880   4.875   2.509   3.119  0.6925 -0.8209 -0.3549
24047SOL    HW273881   4.872   2.625   3.215 -1.7414 -1.8264  0.8879
24048SOL     OW73882   7.018   8.407   3.669 -0.6734 -0.2576 -0.1724
24048SOL    HW173883   6.923   8.409   3.672 -0.8556  0.6465 -3.0796
24048SOL    HW273884   7.045   8.468   3.737 -2.1160 -1.0309  1.1504
24049SOL     OW73885   3.012   7.140   7.694  0.0130  0.2997 -0.6498
24049SOL    HW173886   3.094   7.119   7.738  0.9187  0.6051 -2.1261
24049SOL    HW273887   2.956   7.175   7.763  1.1921  0.2867  0.3479
24050SOL     OW73888   0.662   3.740   7.710 -0.2873 -0.1658 -0.0783
24050SOL    HW173889   0.613   3.770   7.634  0.9714 -0.4411 -1.0324
24050SOL    HW273890   0.721   3.812   7.732 -0.4077 -0.2173  0.4374
24051SOL     OW73891   8.376   5.958   4.693 -0.1628  0.3033  0.0279
24051SOL    HW173892   8.316   5.967   4.619 -1.6984 -0.7960  1.0769
24051SOL    HW273893   8.449   5.906   4.658 -1.0836 -0.5982 -0.6180
24052SOL     OW73894   5.196   5.913   6.994  0.2613 -0.3755  0.2922
24052SOL    HW173895   5.252   5.835   6.990  0.7329 -0.0727  0.8743
24052SOL    HW273896   5.210   5.956   6.909  2.2999  0.6265  1.0792
24053SOL     OW73897   6.924   8.089   0.920  0.1202  0.2454 -1.0144
24053SOL    HW173898   6.968   8.005   0.932  1.8240  0.3913 -4.7811
24053SOL    HW273899   6.881   8.081   0.834 -0.2046  2.9804 -1.1914
24054SOL     OW73900   8.540   3.493   4.498  0.0387 -0.2569 -0.1993
24054SOL    HW173901   8.590   3.535   4.568  0.2928 -0.8692 -0.0071
24054SOL    HW273902   8.557   3.547   4.421  1.6941 -0.9103 -0.3443
24055SOL     OW73903   6.932   0.074   4.016  0.2492  0.1146  0.6239
24055SOL    HW173904   6.928   0.101   4.108  0.6266  0.5146  0.5232
24055SOL    HW273905   6.995   0.002   4.015 -1.2471 -1.2776  1.0031
24056SOL     OW73906   5.634   5.162   2.022  0.1982  0.2774  0.0284
24056SOL    HW173907   5.701   5.116   2.072 -1.2612 -0.8916  0.9850
24056SOL    HW273908   5.567   5.185   2.087 -2.0131 -1.7388 -1.3759
24057SOL     OW73909   8.765   8.129   1.315  0.1786  0.0387 -0.3579
24057SOL    HW173910   8.756   8.073   1.238  0.0024  0.0616 -0.3540
24057SOL    HW273911   8.705   8.092   1.379  0.4835 -0.1107 -0.1535
24058SOL     OW73912   5.823   0.492   0.564  0.0533  0.4249  0.3172
24058SOL    HW173913   5.872   0.450   0.493 -0.5927 -0.0412  0.1413
24058SOL    HW273914   5.890   0.518   0.627  0.4868 -0.7268  0.3544
24059SOL     OW73915   5.116   0.606   1.377 -0.0698  0.1244 -0.8562
24059SOL    HW173916   5.137   0.621   1.469  1.2816  1.8374 -1.3870
24059SOL    HW273917   5.117   0.510   1.367 -0.6698 -0.1032  0.9718
24060SOL     OW73918   1.788   5.740   1.813 -0.0704 -0.1787 -0.2026
24060SOL    HW173919   1.863   5.740   1.752  0.6295 -0.3728  0.6353
24060SOL    HW273920   1.828   5.740   1.900 -1.0538 -1.0518  0.2698
24061SOL     OW73921   9.247   4.740   4.465  0.4097  0.0840  0.6657
24061SOL    HW173922   9.197   4.768   4.542  0.9407  0.0985  1.0171
24061SOL    HW273923   9.334   4.780   4.479  0.9075 -0.9916  0.7188
24062SOL     OW73924   5.144   3.373   1.524  0.1936  0.6516 -0.4343
24062SOL    HW173925   5.239   3.380   1.535  0.0592  0.2826  1.1252
24062SOL    HW273926   5.114   3.463   1.514  0.6185  0.8277 -0.1187
24063SOL     OW73927   6.730   8.090   1.876  0.0555 -0.0012  0.5572
24063SOL    HW173928   6.645   8.129   1.901 -0.0924  0.4064 -0.5431
24063SOL    HW273929   6.755   8.039   1.953 -0.6184  0.8227  1.3658
24064SOL     OW73930   7.323   7.535   6.097 -0.7749 -0.1335 -0.1791
24064SOL    HW173931   7.320   7.473   6.170  0.4885  1.7760  1.6082
24064SOL    HW273932   7.252   7.597   6.115 -1.2111 -0.2941 -1.2440
24065SOL     OW73933   1.371   9.257   3.316 -0.3214  0.6200 -0.0056
24065SOL    HW173934   1.321   9.183   3.283  0.3664 -0.3756  1.0691
24065SOL    HW273935   1.349   9.330   3.258 -1.2100 -0.3616 -0.9386
24066SOL     OW73936   1.430   6.298   7.590 -0.0048 -0.7270 -0.1359
24066SOL    HW173937   1.367   6.331   7.525  0.8690  0.5735 -0.3695
24066SOL    HW273938   1.419   6.357   7.665  1.7123  0.2717 -0.6255
24067SOL     OW73939   4.915   1.528   8.025  0.2473 -0.2405 -0.2758
24067SOL    HW173940   4.940   1.453   8.079  0.5498 -0.3162 -0.5188
24067SOL    HW273941   4.982   1.532   7.957 -0.5066 -0.5648 -1.0513
24068SOL     OW73942   8.915   8.587   3.178 -0.5837  0.0635  0.1473
24068SOL    HW173943   8.958   8.637   3.247 -1.2669  0.1961  0.4830
24068SOL    HW273944   8.826   8.573   3.210 -0.0269 -2.7005  0.7811
24069SOL     OW73945   9.044   0.554   9.034  0.1521 -0.0078  0.1356
24069SOL    HW173946   9.065   0.624   9.096 -1.4630 -0.9976  1.8984
24069SOL    HW273947   9.004   0.599   8.960 -1.0496  0.9793  1.3157
24070SOL     OW73948   3.493   5.791   2.268  0.1978 -0.0836 -0.1269
24070SOL    HW173949   3.583   5.757   2.270  0.5093  0.7303  0.9492
24070SOL    HW273950   3.469   5.789   2.176  0.5470 -2.2463 -0.2225
24071SOL     OW73951   9.292   2.683   1.984 -0.1186 -0.2151  0.2541
24071SOL    HW173952   9.250   2.599   1.966  1.9370 -1.1505 -0.3757
24071SOL    HW273953   9.228   2.748   1.953 -1.9543 -1.4710  1.2131
24072SOL     OW73954   1.481   7.297   6.331 -0.0186 -0.4861  0.3712
24072SOL    HW173955   1.401   7.249   6.353  1.3204 -2.6012  0.8606
24072SOL    HW273956   1.465   7.385   6.365 -2.6423 -0.4285 -0.7325
24073SOL     OW73957   4.369   4.427   1.704 -0.5373  0.0412 -0.7173
24073SOL    HW173958   4.335   4.342   1.674  1.4681 -0.8543 -0.5851
24073SOL    HW273959   4.446   4.443   1.650 -0.7386  1.7001 -0.5783
24074SOL     OW73960   2.385   0.399   2.710  0.5000 -0.3360  0.1028
24074SOL    HW173961   2.352   0.410   2.799  0.7160 -0.1742  0.1639
24074SOL    HW273962   2.310   0.416   2.653  0.3893 -0.3325  0.2503
24075SOL     OW73963   8.993   5.309   0.138 -0.3721  0.5569  0.4405
24075SOL    HW173964   8.947   5.340   0.060  0.7522  0.3533 -0.3182
24075SOL    HW273965   8.969   5.217   0.144  0.3397  0.3169 -0.2622
24076SOL     OW73966   9.532   0.941   8.826 -0.0644  0.3071  0.2390
24076SOL    HW173967   9.616   0.903   8.852  0.4343  1.4485  0.3528
24076SOL    HW273968   9.467   0.888   8.871  0.5843 -0.6903  0.0260
24077SOL     OW73969   3.897   4.994   7.173  0.6410 -0.1138 -0.1192
24077SOL    HW173970   3.815   5.013   7.129  0.0330  2.0993  1.7633
24077SOL    HW273971   3.899   4.899   7.180 -2.6291 -0.2012  1.2354
24078SOL     OW73972   0.926   3.847   8.950 -0.0297 -0.5113 -0.1020
24078SOL    HW173973   0.974   3.840   9.033  0.5613  2.3047 -0.1350
24078SOL    HW273974   0.839   3.878   8.975 -0.0225 -0.1775 -0.4818
24079SOL     OW73975   7.531   8.505   8.666  0.1471 -0.0089 -0.2304
24079SOL    HW173976   7.542   8.507   8.761  1.5271 -0.1674 -0.3595
24079SOL    HW273977   7.490   8.589   8.645  0.5953  0.3873  0.4327
24080SOL     OW73978   0.488   6.052   6.576  0.2609  0.1311  0.1460
24080SOL    HW173979   0.555   6.006   6.627  1.3534  2.4218  0.9477
24080SOL    HW273980   0.408   6.002   6.590  0.6927  0.1663  3.5456
24081SOL     OW73981   6.748   3.556   4.691 -0.1549  0.2403  0.3331
24081SOL    HW173982   6.724   3.626   4.751 -0.2989  0.9367 -0.5153
24081SOL    HW273983   6.746   3.476   4.744 -0.0267  0.8674  1.3028
24082SOL     OW73984   7.919   0.634   8.504 -0.0295  0.0825 -0.0988
24082SOL    HW173985   7.837   0.684   8.507  0.4748  0.9434 -0.2017
24082SOL    HW273986   7.912   0.581   8.425 -0.3512  0.4012 -0.2886
24083SOL     OW73987   5.368   1.771   1.596  0.2302  0.5149 -0.0448
24083SOL    HW173988   5.300   1.762   1.663 -1.4636  2.4475 -1.3903
24083SOL    HW273989   5.449   1.785   1.646 -0.8206  0.9681  1.6040
24084SOL     OW73990   2.941   2.913   5.587  0.7847 -0.2285 -0.3017
24084SOL    HW173991   2.938   2.983   5.523 -0.4734  1.0644  1.1002
24084SOL    HW273992   2.969   2.955   5.668 -0.7873 -1.1259  0.7721
24085SOL     OW73993   1.371   4.863   6.721  0.1000  0.6415  0.4459
24085SOL    HW173994   1.450   4.917   6.721  0.1491  0.5726 -0.1897
24085SOL    HW273995   1.310   4.911   6.777 -0.0672  1.6998 -0.5922
24086SOL     OW73996   8.962   2.929   8.321 -0.3464 -0.1451  0.0006
24086SOL    HW173997   9.004   2.980   8.252  1.0942 -0.0750  0.8844
24086SOL    HW273998   8.895   2.988   8.357 -0.5588  0.1052 -0.7880
24087SOL     OW73999   5.452   7.113   4.568  0.2008  0.3717 -0.1547
24087SOL    HW174000   5.520   7.046   4.578  1.9981  2.2887  1.6732
24087SOL    HW274001   5.416   7.124   4.656 -0.2316  1.6119 -0.4626
24088SOL     OW74002   6.832   1.031   5.891 -0.5108  0.4600  0.3527
24088SOL    HW174003   6.903   1.007   5.951 -0.2344 -0.6458 -0.3891
24088SOL    HW274004   6.856   1.119   5.861 -0.0099  0.5263  0.9215
24089SOL     OW74005   2.349   5.850   9.497  0.1595 -0.1356 -0.3879
24089SOL    HW174006   2.296   5.928   9.514 -0.2256 -0.4347 -0.2035
24089SOL    HW274007   2.323   5.821   9.410  0.5259  0.1154 -0.5843
24090SOL     OW74008   1.891   6.836   1.710  0.3617  0.1422  0.3015
24090SOL    HW174009   1.922   6.749   1.732 -0.6745  0.0062  1.2838
24090SOL    HW274010   1.906   6.888   1.789  3.0948  1.5037 -0.9609
24091SOL     OW74011   1.255   6.852   5.596 -0.0368  0.5455  0.3102
24091SOL    HW174012   1.223   6.863   5.686 -0.4560  0.6315  0.1563
24091SOL    HW274013   1.340   6.811   5.606 -0.1910  0.3160  0.7418
24092SOL     OW74014   5.123   0.065   1.146 -0.3134  0.2016  0.0788
24092SOL    HW174015   5.106   0.151   1.185 -0.9784 -0.0508  0.3518
24092SOL    HW274016   5.160   0.014   1.218 -0.0252  0.2251 -0.0533
24093SOL     OW74017   5.119   7.877   3.431 -0.0566 -0.4958 -0.1364
24093SOL    HW174018   5.092   7.968   3.414 -0.9244 -0.5684  0.7721
24093SOL    HW274019   5.204   7.869   3.388  1.7963  1.8435  2.7364
24094SOL     OW74020   8.495   7.680   3.608 -0.2242  0.7206 -0.0414
24094SOL    HW174021   8.433   7.651   3.541  1.2638  0.4115 -1.3418
24094SOL    HW274022   8.542   7.753   3.568  0.2452  0.9665  0.9242
24095SOL     OW74023   3.882   4.532   4.764 -0.5123  0.0793  0.5986
24095SOL    HW174024   3.896   4.587   4.687 -0.8380  1.2779  1.3559
24095SOL    HW274025   3.970   4.501   4.787 -0.3397  0.1574  0.0687
24096SOL     OW74026   4.238   7.130   4.252  0.4513  0.3842  0.7271
24096SOL    HW174027   4.312   7.122   4.313  1.6242 -0.5302 -0.7426
24096SOL    HW274028   4.183   7.053   4.272  1.7072 -0.8739 -0.4263
24097SOL     OW74029   0.808   5.601   4.489  0.1699 -0.0051 -0.4227
24097SOL    HW174030   0.762   5.573   4.410 -1.3544  1.2495 -0.0157
24097SOL    HW274031   0.846   5.686   4.466 -1.5866  1.1086  0.6217
24098SOL     OW74032   5.932   7.509   2.961  0.2348  0.0798  0.4013
24098SOL    HW174033   5.845   7.521   2.925  0.0774  1.3128  1.1263
24098SOL    HW274034   5.941   7.415   2.972 -0.7714 -0.1014 -0.2266
24099SOL     OW74035   4.227   9.197   7.360  0.0044 -0.3352  0.0293
24099SOL    HW174036   4.308   9.237   7.392  0.3340 -0.2271 -0.9125
24099SOL    HW274037   4.254   9.114   7.321 -0.2579 -0.0721 -0.7421
24100SOL     OW74038   2.629   3.109   1.458  0.6438 -0.2419 -0.4967
24100SOL    HW174039   2.598   3.191   1.420  2.3835  0.5650 -0.2670
24100SOL    HW274040   2.551   3.053   1.462 -1.0983  2.1508  1.3861
24101SOL     OW74041   8.709   4.007   3.092  0.0243 -0.0090 -0.0048
24101SOL    HW174042   8.748   4.049   3.168  1.4156 -0.6625 -0.3342
24101SOL    HW274043   8.688   3.918   3.121 -3.4128  0.9104  0.8573
24102SOL     OW74044   6.641   0.490   3.944  0.3842 -0.7621  0.4136
24102SOL    HW174045   6.561   0.521   3.902  1.8162 -0.9075 -2.7252
24102SOL    HW274046   6.623   0.400   3.969 -1.3683  0.1271  2.7007
24103SOL     OW74047   2.717   6.177   9.460  0.8072  0.6197  0.4725
24103SOL    HW174048   2.794   6.128   9.431  0.6301  1.3021 -1.3220
24103SOL    HW274049   2.735   6.267   9.432 -0.6333  0.7810 -0.0186
24104SOL     OW74050   2.257   7.419   9.052  0.3254  0.2204 -0.1370
24104SOL    HW174051   2.284   7.435   9.142  0.1754  2.5929 -0.4699
24104SOL    HW274052   2.309   7.479   8.999  0.3404 -1.0563 -1.6512
24105SOL     OW74053   5.701   2.939   2.382 -0.0110  0.6934  0.1579
24105SOL    HW174054   5.750   2.879   2.438  0.3409  1.5654  0.8102
24105SOL    HW274055   5.767   3.002   2.352 -0.4687  1.0400 -0.1233
24106SOL     OW74056   4.373   7.052   0.666 -0.1583 -0.5947  0.3190
24106SOL    HW174057   4.348   7.139   0.695  0.0503 -0.6410  0.6418
24106SOL    HW274058   4.358   6.996   0.742  0.7941 -0.6455  0.4725
24107SOL     OW74059   7.716   5.657   5.128  0.1020  0.2793 -0.3140
24107SOL    HW174060   7.629   5.618   5.125  0.3136 -0.4298  1.7081
24107SOL    HW274061   7.703   5.747   5.097 -0.8656 -0.5259 -2.4332
24108SOL     OW74062   8.096   3.015   4.936  1.1089  0.1413 -0.2099
24108SOL    HW174063   8.039   3.088   4.914 -0.2198 -1.2185 -1.4512
24108SOL    HW274064   8.132   2.985   4.852 -0.5066 -2.2914 -0.1466
24109SOL     OW74065   8.675   7.259   7.311 -0.2859  0.7008 -0.6752
24109SOL    HW174066   8.636   7.223   7.391  0.7663  0.6299 -0.1707
24109SOL    HW274067   8.612   7.240   7.243 -1.3617  1.0420  0.1875
24110SOL     OW74068   3.524   8.292   0.017  0.0857  0.0141  0.0057
24110SOL    HW174069   3.607   8.337  -0.000 -0.8211  1.3901 -1.0059
24110SOL    HW274070   3.525   8.275   0.111  0.5013  2.1650  0.4375
24111SOL     OW74071   9.588   8.516   4.770  0.1012 -0.2519  0.3122
24111SOL    HW174072   9.529   8.473   4.708 -0.3463  0.7495  0.0298
24111SOL    HW274073   9.556   8.488   4.856 -0.0337 -0.6752  0.1290
24112SOL     OW74074   2.525   8.636   3.882  0.1925  0.4897  0.4175
24112SOL    HW174075   2.523   8.550   3.841  2.3337  0.5778  0.0297
24112SOL    HW274076   2.485   8.695   3.818 -0.1217 -0.0157  0.1485
24113SOL     OW74077   6.903   5.001   3.363  0.1767  0.3205 -0.1239
24113SOL    HW174078   6.902   4.905   3.367 -1.3068  0.3571  0.7865
24113SOL    HW274079   6.927   5.020   3.273  0.3912 -0.9054 -0.3511
24114SOL     OW74080   4.715   0.873   8.906 -0.3011 -0.2009  0.1254
24114SOL    HW174081   4.669   0.853   8.987 -4.4461 -0.5401 -2.0312
24114SOL    HW274082   4.755   0.958   8.921 -2.4836  0.5975  2.0147
24115SOL     OW74083   2.737   5.060   0.416  0.0814 -0.5037 -0.2143
24115SOL    HW174084   2.768   4.982   0.369  0.0164 -0.0039 -1.1038
24115SOL    HW274085   2.725   5.126   0.348 -0.7517  0.0073  0.4111
24116SOL     OW74086   7.208   8.244   3.538  0.0435 -0.3750  0.2154
24116SOL    HW174087   7.136   8.297   3.571 -0.9812 -0.3084 -1.9699
24116SOL    HW274088   7.215   8.171   3.599 -0.7885  0.4769  1.3536
24117SOL     OW74089   6.965   8.817   8.849  0.3528 -0.1318 -0.2462
24117SOL    HW174090   7.018   8.897   8.853  0.1865  0.3325 -3.9530
24117SOL    HW274091   6.891   8.841   8.794 -0.3519 -2.5495 -0.4519
24118SOL     OW74092   4.106   1.219   3.662  0.3854  0.7623 -0.4082
24118SOL    HW174093   4.050   1.187   3.733 -1.0089  1.3153 -1.2225
24118SOL    HW274094   4.182   1.255   3.706  0.8869 -1.4267  0.6651
24119SOL     OW74095   5.298   0.592   5.170  0.1502 -0.5717  0.0589
24119SOL    HW174096   5.234   0.638   5.224 -1.5014 -2.8934  0.2302
24119SOL    HW274097   5.348   0.539   5.232  0.8291 -0.3613 -0.3039
24120SOL     OW74098   7.026   6.116   1.853  0.1861  0.1612  0.1402
24120SOL    HW174099   7.031   6.101   1.759 -0.2098 -0.2945  0.1864
24120SOL    HW274100   7.109   6.084   1.888 -0.3690 -1.3422  0.1553
24121SOL     OW74101   6.412   2.233   1.763  0.1567  0.6658  0.2456
24121SOL    HW174102   6.406   2.141   1.738  0.5993  0.6489  0.1844
24121SOL    HW274103   6.431   2.231   1.857  0.3805  0.6848  0.2031
24122SOL     OW74104   8.352   9.303   3.604  0.4042 -0.4180 -0.2602
24122SOL    HW174105   8.356   9.252   3.523 -0.6250 -0.8307 -0.0630
24122SOL    HW274106   8.303   9.248   3.665  0.7987  0.0694  0.5196
24123SOL     OW74107   8.276   5.796   0.531 -0.2945  0.2341  0.1603
24123SOL    HW174108   8.260   5.863   0.465 -0.5981 -0.5855 -0.6265
24123SOL    HW274109   8.333   5.732   0.487 -1.0273 -0.6573  0.4589
24124SOL     OW74110   7.659   0.938   8.246 -0.1366 -1.2192 -0.0434
24124SOL    HW174111   7.693   0.931   8.157 -1.2602  0.5846 -0.6661
24124SOL    HW274112   7.728   0.981   8.296 -0.5895  0.4219 -0.7721
24125SOL     OW74113   4.518   4.365   3.539  0.2500  0.3674  0.6366
24125SOL    HW174114   4.487   4.331   3.455  1.4496 -1.7302  0.9564
24125SOL    HW274115   4.439   4.390   3.586 -0.4996  0.7393 -0.7714
24126SOL     OW74116   6.970   6.785   2.921  0.2761  0.1626  0.8831
24126SOL    HW174117   6.913   6.715   2.952  1.7647 -1.0999  0.9198
24126SOL    HW274118   6.922   6.866   2.939 -1.7559 -0.8601  0.2945
24127SOL     OW74119   6.764   3.156   6.447  0.7652  0.1433  0.1390
24127SOL    HW174120   6.832   3.126   6.508  0.4640  2.0355  1.4850
24127SOL    HW274121   6.712   3.077   6.430  2.1114 -0.9044  0.6444
24128SOL     OW74122   5.047   5.076   7.127 -0.2511  0.2456 -0.1331
24128SOL    HW174123   5.003   5.132   7.191 -1.4599  0.3272 -1.0013
24128SOL    HW274124   4.978   5.017   7.095  1.0396 -2.0699  1.0268
24129SOL     OW74125   2.889   1.326   7.355  0.1085  0.5797  0.0675
24129SOL    HW174126   2.799   1.348   7.330  0.4457  1.2702 -0.5289
24129SOL    HW274127   2.881   1.298   7.447 -0.6288  1.1788  0.1946
24130SOL     OW74128   7.723   6.309   7.953 -0.6858  0.2061  0.2264
24130SOL    HW174129   7.736   6.214   7.958 -0.2233  0.2293 -0.3878
24130SOL    HW274130   7.631   6.319   7.928 -0.9880 -0.0495  1.1904
24131SOL     OW74131   3.810   1.462   1.517 -0.0128  0.1580  0.2363
24131SOL    HW174132   3.860   1.544   1.518 -0.4093  0.5607 -2.9107
24131SOL    HW274133   3.722   1.486   1.546 -0.2240  0.9938 -1.0155
24132SOL     OW74134   1.810   5.819   7.809  0.1950 -0.1033 -0.2792
24132SOL    HW174135   1.746   5.824   7.881  2.0110 -1.9935  1.6128
24132SOL    HW274136   1.830   5.911   7.789 -1.8483  0.4991  0.2078
24133SOL     OW74137   5.791   2.806   0.567 -0.1158 -0.2804 -0.3613
24133SOL    HW174138   5.756   2.885   0.609  0.5053 -0.4551  0.5060
24133SOL    HW274139   5.871   2.835   0.525  1.0914 -0.7758  1.4810
24134SOL     OW74140   6.315   3.291   0.869 -0.1306  0.0883  0.4803
24134SOL    HW174141   6.234   3.241   0.874 -1.3936  1.8170 -1.0701
24134SOL    HW274142   6.318   3.342   0.950 -0.4368 -0.1984  0.6695
24135SOL     OW74143   4.775   5.800   6.202  0.0061  0.6651  0.1900
24135SOL    HW174144   4.863   5.794   6.165 -0.6434 -1.2139 -1.1854
24135SOL    HW274145   4.776   5.736   6.274 -0.0930  0.9919  0.4800
24136SOL     OW74146   7.844   2.786   0.729  0.2189  0.0393 -0.3328
24136SOL    HW174147   7.876   2.782   0.638 -0.2272 -0.6212 -0.4669
24136SOL    HW274148   7.799   2.870   0.735 -1.2687 -0.6423 -1.2570
24137SOL     OW74149   8.757   2.748   0.748  0.1781 -0.0352  0.2698
24137SOL    HW174150   8.717   2.716   0.828  0.4607 -1.1914 -0.0315
24137SOL    HW274151   8.836   2.795   0.777 -0.1223  0.2059  0.7059
24138SOL     OW74152   7.402   9.558   8.069 -0.1119 -0.0326 -0.1110
24138SOL    HW174153   7.377   9.592   7.984 -1.0215  1.9250  0.8705
24138SOL    HW274154   7.325   9.509   8.099 -0.7734  1.3421  0.5626
24139SOL     OW74155   0.364   7.475   5.341  0.9339  0.4636 -0.0848
24139SOL    HW174156   0.341   7.488   5.433 -0.7114 -1.2093 -0.1985
24139SOL    HW274157   0.453   7.441   5.342  1.8435  2.6783  0.6923
24140SOL     OW74158   5.800   0.886   2.812  0.1282 -0.2322  0.3111
24140SOL    HW174159   5.733   0.955   2.814  0.9013  0.6165 -1.1018
24140SOL    HW274160   5.752   0.806   2.794 -0.7494 -0.0341  1.6127
24141SOL     OW74161   8.699   3.127   7.809 -0.1350  0.3899  0.1093
24141SOL    HW174162   8.662   3.129   7.897 -0.6735 -0.5401 -0.0792
24141SOL    HW274163   8.630   3.163   7.753 -0.1588  0.0946 -0.0515
24142SOL     OW74164   6.793   5.485   5.548 -0.1244  0.2719  0.0192
24142SOL    HW174165   6.886   5.464   5.544 -0.2790 -0.5706  0.5320
24142SOL    HW274166   6.766   5.495   5.457  0.5750  1.0570 -0.1115
24143SOL     OW74167   3.671   7.431   0.535  0.6970  0.0854 -0.0243
24143SOL    HW174168   3.720   7.415   0.616  1.7708  2.1645 -0.1758
24143SOL    HW274169   3.738   7.458   0.472 -0.3847  0.6672 -0.9485
24144SOL     OW74170   6.171   4.940   3.757  0.0874 -0.6191  0.3340
24144SOL    HW174171   6.099   4.944   3.693  0.0774 -0.6435  0.3434
24144SOL    HW274172   6.132   4.970   3.839  0.3987  0.5433  0.0727
24145SOL     OW74173   4.434   4.680   5.602  0.0597 -0.5804  0.9410
24145SOL    HW174174   4.400   4.621   5.669  1.2134 -1.4584  0.7704
24145SOL    HW274175   4.528   4.684   5.618  0.2555 -0.2297 -0.1891
24146SOL     OW74176   1.797   9.014   2.872 -0.0472  0.6020  0.1321
24146SOL    HW174177   1.718   9.047   2.829 -0.0849  0.3963  0.0431
24146SOL    HW274178   1.824   8.939   2.820 -1.2707 -0.9481  1.6037
24147SOL     OW74179   4.289   1.437   1.492 -0.0278 -0.4014  0.0750
24147SOL    HW174180   4.317   1.446   1.401  4.1080  2.0665  1.3100
24147SOL    HW274181   4.239   1.516   1.510 -1.0618 -1.0077 -0.0359
24148SOL     OW74182   4.730   8.234   6.935 -0.1251  0.3483 -0.2643
24148SOL    HW174183   4.813   8.233   6.984 -1.0863  1.4395  1.4938
24148SOL    HW274184   4.707   8.327   6.929 -3.1892 -0.0172  2.9199
24149SOL     OW74185   0.053   6.796   5.388 -0.3349 -0.0503  0.5698
24149SOL    HW174186  -0.019   6.845   5.427 -0.7212  0.1643 -0.3804
24149SOL    HW274187   0.101   6.760   5.463 -1.7885 -0.7331  1.2287
24150SOL     OW74188   5.775   4.647   2.979  0.5028  0.3252  0.1618
24150SOL    HW174189   5.850   4.660   2.921  1.8493 -1.2223  1.4657
24150SOL    HW274190   5.721   4.582   2.933  0.9448 -0.0008  0.1027
24151SOL     OW74191   5.601   1.508   8.993  0.5505  0.2819 -0.0765
24151SOL    HW174192   5.587   1.530   9.085 -1.2372 -0.2681 -0.1853
24151SOL    HW274193   5.558   1.424   8.981  1.3014  0.0355 -1.2869
24152SOL     OW74194   6.947   7.163   7.864  0.2425  0.2598 -0.1011
24152SOL    HW174195   6.962   7.218   7.787 -1.9574  0.5468 -0.3921
24152SOL    HW274196   6.917   7.224   7.931 -1.5317 -0.4367 -0.2121
24153SOL     OW74197   3.226   3.376   8.986 -0.0266  0.0610 -0.2838
24153SOL    HW174198   3.228   3.376   9.082  1.2258 -0.9169 -0.2763
24153SOL    HW274199   3.314   3.349   8.961 -0.7217 -1.0344 -1.6850
24154SOL     OW74200   2.456   3.859   6.611 -0.2878 -0.3805 -1.1202
24154SOL    HW174201   2.415   3.921   6.671  1.0186 -0.4420 -0.1008
24154SOL    HW274202   2.391   3.842   6.544 -1.3474  0.6454 -0.3717
24155SOL     OW74203   2.044   6.522   3.271  0.1808 -0.3723  0.6582
24155SOL    HW174204   1.956   6.499   3.302  0.6567 -1.3344  1.3583
24155SOL    HW274205   2.041   6.616   3.256 -0.8338 -0.3223  1.1061
24156SOL     OW74206   3.601   9.311   7.788 -0.2140  1.0297  0.3112
24156SOL    HW174207   3.598   9.355   7.703 -0.1554 -2.7570 -1.9061
24156SOL    HW274208   3.510   9.312   7.819 -0.8170  0.0303 -1.2920
24157SOL     OW74209   4.555   6.998   8.912  0.0517 -0.0285 -0.1417
24157SOL    HW174210   4.466   6.963   8.908  0.1098 -0.4139  1.2884
24157SOL    HW274211   4.610   6.920   8.922  0.2355  0.3434  2.4543
24158SOL     OW74212   6.087   3.496   4.064 -0.3867  0.1417  0.2945
24158SOL    HW174213   6.062   3.404   4.071 -0.7617  0.2385  0.2602
24158SOL    HW274214   6.003   3.543   4.055 -0.1695  0.4258 -0.3244
24159SOL     OW74215   3.759   3.387   6.049  0.5545  0.8333 -0.2076
24159SOL    HW174216   3.715   3.472   6.055 -1.7339 -0.3411  0.8824
24159SOL    HW274217   3.798   3.386   5.962 -0.1826  2.6151 -0.5973
24160SOL     OW74218   5.742   5.881   4.633 -0.0685  0.3644 -0.6425
24160SOL    HW174219   5.822   5.927   4.656  0.4006 -0.9387  0.4771
24160SOL    HW274220   5.771   5.810   4.574 -0.6208  0.8043 -1.4640
24161SOL     OW74221   5.813   5.859   0.822 -0.3773  0.1106  0.0371
24161SOL    HW174222   5.816   5.775   0.776  1.6021 -0.3625  0.8955
24161SOL    HW274223   5.828   5.925   0.755  2.6329 -0.5712 -0.1223
24162SOL     OW74224   7.916   8.487   6.651 -0.6219  0.3026 -0.1511
24162SOL    HW174225   8.008   8.506   6.636 -0.8151  1.7215  0.3735
24162SOL    HW274226   7.912   8.456   6.742 -0.4515 -1.3986 -0.6894
24163SOL     OW74227   7.336   7.729   6.828  0.0450 -0.7392  0.0962
24163SOL    HW174228   7.407   7.666   6.818  1.9424  1.1481  0.6994
24163SOL    HW274229   7.299   7.711   6.915  1.0949 -0.5521  0.5971
24164SOL     OW74230   8.150   8.498   3.609  0.2465  0.4523 -0.3616
24164SOL    HW174231   8.162   8.462   3.696  1.2340 -0.3280 -0.8106
24164SOL    HW274232   8.226   8.555   3.596 -1.1882  2.6429  0.2711
24165SOL     OW74233   8.988   2.637   6.497 -0.0706 -0.2340  0.5863
24165SOL    HW174234   9.053   2.706   6.510  1.7979 -1.8777  0.4358
24165SOL    HW274235   9.038   2.563   6.463 -1.7713 -2.0859  1.8998
24166SOL     OW74236   8.532   7.774   5.601  0.0954  0.2116  0.3110
24166SOL    HW174237   8.470   7.756   5.529 -0.1011  0.3090  0.4537
24166SOL    HW274238   8.579   7.692   5.612 -1.4420 -0.5576  1.5860
24167SOL     OW74239   5.741   2.304   1.208  0.0257 -0.4852 -0.3773
24167SOL    HW174240   5.683   2.380   1.201  1.4019  0.6137 -0.3286
24167SOL    HW274241   5.778   2.294   1.121  0.3686 -0.6739 -0.2115
24168SOL     OW74242   6.167   5.669   8.409  0.4530 -0.2488 -0.6341
24168SOL    HW174243   6.114   5.691   8.332  0.0744 -0.0380 -0.3198
24168SOL    HW274244   6.228   5.603   8.378 -0.6719 -1.2619 -0.7704
24169SOL     OW74245   6.184   4.199   3.243  0.1580  0.3154  0.3943
24169SOL    HW174246   6.123   4.254   3.193  1.0416  0.9570 -0.0173
24169SOL    HW274247   6.264   4.198   3.189  1.2637  1.3176  1.9432
24170SOL     OW74248   2.463   9.429   6.011 -0.2419  0.0339 -0.6099
24170SOL    HW174249   2.554   9.445   5.987 -0.4276 -0.0749 -1.4296
24170SOL    HW274250   2.432   9.514   6.043 -0.0481  0.2483 -0.9852
24171SOL     OW74251   7.398   6.870   7.142  0.4465  0.0021  0.1631
24171SOL    HW174252   7.315   6.857   7.097 -0.1798 -0.9274  1.5508
24171SOL    HW274253   7.416   6.964   7.132 -0.7580  0.2101 -0.1525
24172SOL     OW74254   3.263   1.624   4.272 -0.3091 -0.2220  0.5100
24172SOL    HW174255   3.178   1.631   4.315  0.3803 -1.1120  2.1242
24172SOL    HW274256   3.303   1.545   4.310  1.4163  0.4297  0.1575
24173SOL     OW74257   7.096   9.100   4.650 -0.2880  0.0484  0.1300
24173SOL    HW174258   7.147   9.179   4.665 -1.1034  0.5606  0.2645
24173SOL    HW274259   7.006   9.126   4.666 -0.4177 -1.3368  1.9258
24174SOL     OW74260   9.402   3.135   4.486  0.3088  0.1456 -0.3603
24174SOL    HW174261   9.390   3.044   4.510  0.1480 -0.0125 -1.0063
24174SOL    HW274262   9.327   3.181   4.524  1.8948  0.5562  2.5583
24175SOL     OW74263   0.470   2.045   1.935  0.5966 -0.0563 -0.3431
24175SOL    HW174264   0.449   2.136   1.912  0.0874 -0.2047 -0.4805
24175SOL    HW274265   0.565   2.042   1.936  0.6342  0.2013 -1.4704
24176SOL     OW74266   5.330   2.106   5.710  0.0552 -0.1090 -0.1496
24176SOL    HW174267   5.399   2.054   5.752  1.7750  2.1821  0.0954
24176SOL    HW274268   5.277   2.138   5.783 -1.7308 -2.3410 -0.3756
24177SOL     OW74269   6.424   7.271   5.638  0.2799 -0.2923 -0.4669
24177SOL    HW174270   6.438   7.212   5.563  2.3061 -1.9185  1.0838
24177SOL    HW274271   6.477   7.348   5.618 -0.3972 -0.0404 -1.3643
24178SOL     OW74272   2.787   5.289   6.680  0.0267 -0.0176 -0.7329
24178SOL    HW174273   2.748   5.278   6.594 -0.2534  1.6033 -0.8362
24178SOL    HW274274   2.714   5.312   6.737  0.3705 -0.0682 -0.2670
24179SOL     OW74275   5.308   3.136   9.212 -0.0298 -0.5900 -0.4573
24179SOL    HW174276   5.267   3.052   9.230 -0.0827 -0.2700  1.1194
24179SOL    HW274277   5.321   3.175   9.299  2.8457 -0.3086 -0.9302
24180SOL     OW74278   7.870   0.742   3.080  0.0674 -0.4971 -0.0741
24180SOL    HW174279   7.927   0.665   3.082  0.5935 -0.1115  0.0858
24180SOL    HW274280   7.920   0.808   3.031  0.2136  0.1959  0.9685
24181SOL     OW74281   1.516   6.306   2.496  0.3357  0.4171  0.0541
24181SOL    HW174282   1.441   6.349   2.537  0.1436 -0.1855  0.3549
24181SOL    HW274283   1.511   6.215   2.527  0.0709 -0.1132 -1.4248
24182SOL     OW74284   4.181   7.790   4.652  0.4208 -0.0820 -0.0178
24182SOL    HW174285   4.149   7.711   4.696 -2.1469 -0.7036 -2.7177
24182SOL    HW274286   4.263   7.763   4.611  1.4065 -0.2459  1.9137
24183SOL     OW74287   2.477   1.607   8.439 -0.0998 -0.0248 -0.1196
24183SOL    HW174288   2.536   1.553   8.492 -2.2568 -1.5734  0.8655
24183SOL    HW274289   2.457   1.553   8.363 -0.2275  0.5054 -0.4666
24184SOL     OW74290   7.326   1.486   4.972  0.6539  0.0627  0.2537
24184SOL    HW174291   7.388   1.432   4.921  0.0086 -0.0241 -0.4657
24184SOL    HW274292   7.333   1.573   4.933  1.2188  0.3558  0.9898
24185SOL     OW74293   7.812   5.886   1.673  0.4016 -0.1393  0.2230
24185SOL    HW174294   7.782   5.919   1.588  1.2070  0.6508  0.2378
24185SOL    HW274295   7.742   5.908   1.734  0.4850  0.6331  0.0407
24186SOL     OW74296   0.277   2.344   1.432  0.5846  0.2441 -0.3271
24186SOL    HW174297   0.264   2.280   1.362  0.9083  0.9508 -1.0452
24186SOL    HW274298   0.203   2.404   1.424  0.2814 -0.0229  0.3460
24187SOL     OW74299   2.541   4.381   2.337 -0.0723 -0.1019  1.0987
24187SOL    HW174300   2.546   4.434   2.258  1.7652 -1.3699  0.2836
24187SOL    HW274301   2.466   4.323   2.323  1.2493 -1.5007 -0.5653
24188SOL     OW74302   5.811   7.891   7.669 -0.2053  0.5507 -0.4794
24188SOL    HW174303   5.864   7.971   7.675 -0.6929  1.0698 -2.5831
24188SOL    HW274304   5.839   7.849   7.588 -1.9225  0.0579 -0.8618
24189SOL     OW74305   2.211   8.985   8.260 -0.3099  0.6997  0.5391
24189SOL    HW174306   2.132   8.933   8.254  0.6426 -0.9261  1.4234
24189SOL    HW274307   2.278   8.933   8.215  0.4394  1.6723  0.4886
24190SOL     OW74308   1.075   5.756   5.119 -0.0620  0.1928 -0.0158
24190SOL    HW174309   1.034   5.692   5.178  0.1612  0.5658  0.5492
24190SOL    HW274310   1.034   5.739   5.034 -2.1877  1.2348  0.7334
24191SOL     OW74311   7.702   3.484   1.354  0.3437  0.2582 -0.2398
24191SOL    HW174312   7.742   3.516   1.273 -0.4807  0.3903 -0.6068
24191SOL    HW274313   7.774   3.443   1.402  0.9820  0.7966 -0.7222
24192SOL     OW74314   8.329   1.395   0.489  0.4859 -0.4592  0.1873
24192SOL    HW174315   8.285   1.409   0.405 -1.8585  1.3839  1.5834
24192SOL    HW274316   8.259   1.369   0.549  2.0011 -1.2341  1.7080
24193SOL     OW74317   9.557   1.477   9.438  1.2222 -0.2639  0.1329
24193SOL    HW174318   9.535   1.406   9.377 -0.6156  0.1585  0.2639
24193SOL    HW274319   9.615   1.534   9.388 -0.7696  0.4381 -1.5116
24194SOL     OW74320   6.651   6.670   2.661 -0.5192 -0.5713  0.5941
24194SOL    HW174321   6.720   6.620   2.618 -0.8416  0.6755 -1.5175
24194SOL    HW274322   6.570   6.628   2.632 -0.7176 -1.2440  2.0401
24195SOL     OW74323   5.395   6.914   7.249  0.0608 -0.0130  0.1025
24195SOL    HW174324   5.423   6.836   7.297 -0.2483 -0.2417 -0.0866
24195SOL    HW274325   5.330   6.955   7.307  0.5936  0.3853  0.4313
24196SOL     OW74326   3.700   4.019   5.515 -0.0922 -0.1593  0.1504
24196SOL    HW174327   3.735   4.035   5.427  0.3331 -1.3997  0.0643
24196SOL    HW274328   3.777   3.995   5.566 -0.5712 -1.2135  0.4009
24197SOL     OW74329   8.529   6.653   7.926 -0.0193 -0.2434  0.3578
24197SOL    HW174330   8.572   6.736   7.910 -0.8854  0.0768 -0.3910
24197SOL    HW274331   8.578   6.614   7.998  2.5252 -0.6321 -1.4392
24198SOL     OW74332   4.248   4.837   7.524  0.7282 -0.2164 -0.0381
24198SOL    HW174333   4.250   4.775   7.596 -2.1642 -0.1852  0.1874
24198SOL    HW274334   4.222   4.784   7.448 -0.0345  0.4010 -0.2163
24199SOL     OW74335   3.505   6.660   1.486  0.4090 -0.0155 -0.3780
24199SOL    HW174336   3.417   6.624   1.497  0.8898 -0.9974  0.3427
24199SOL    HW274337   3.495   6.725   1.417 -0.7516 -0.5846 -0.7742
24200SOL     OW74338   0.656   7.163   8.144 -0.2036  0.5297 -0.8125
24200SOL    HW174339   0.580   7.131   8.097  0.5697 -1.3703 -0.8821
24200SOL    HW274340   0.701   7.083   8.174  0.7582  1.6218  0.8143
24201SOL     OW74341   4.777   5.350   6.178 -0.0211  0.3856  0.1813
24201SOL    HW174342   4.790   5.259   6.203  1.9407  0.8142  0.8846
24201SOL    HW274343   4.682   5.359   6.167 -0.1711 -2.0095 -1.0657
24202SOL     OW74344   8.624   0.905   7.134 -0.0699  0.5484  0.5314
24202SOL    HW174345   8.628   0.811   7.121  2.6768  0.6366  0.1436
24202SOL    HW274346   8.638   0.917   7.228  1.2913  0.5886  0.3413
24203SOL     OW74347   0.906   2.931   1.386 -0.3215  0.4699  0.4496
24203SOL    HW174348   0.981   2.917   1.328 -1.0397 -1.4812 -0.0915
24203SOL    HW274349   0.840   2.972   1.330  0.0066  1.3914  0.7093
24204SOL     OW74350   0.332   1.488   2.743  0.5110  0.3581  0.2842
24204SOL    HW174351   0.243   1.517   2.762  0.0438  0.0687 -1.2927
24204SOL    HW274352   0.323   1.397   2.715  1.2210  0.4782 -0.3972
24205SOL     OW74353   7.162   6.582   7.393  0.2328 -0.3865 -0.0113
24205SOL    HW174354   7.234   6.598   7.454  0.6864  0.0456 -0.6478
24205SOL    HW274355   7.169   6.489   7.370  2.8106  0.3138 -2.7659
24206SOL     OW74356   3.382   4.780   5.406 -0.3706 -0.1216 -0.2647
24206SOL    HW174357   3.323   4.843   5.365 -1.2103 -0.8784 -0.2438
24206SOL    HW274358   3.459   4.831   5.430 -1.9627  1.4202  1.9459
24207SOL     OW74359   7.175   4.150   1.948  0.1821  0.3381  0.3887
24207SOL    HW174360   7.192   4.142   1.854 -1.1409  0.0571  0.1512
24207SOL    HW274361   7.104   4.214   1.955 -0.2322 -0.1795  1.1358
24208SOL     OW74362   3.283   2.021   6.817 -0.5670 -0.2267 -0.4674
24208SOL    HW174363   3.298   1.927   6.809 -1.4289 -0.5571  1.2651
24208SOL    HW274364   3.198   2.028   6.861 -0.8832  1.3826 -1.2628
24209SOL     OW74365   6.586   2.400   1.222  0.2873 -0.1110 -0.4268
24209SOL    HW174366   6.620   2.473   1.273 -0.3059 -0.2581  0.1944
24209SOL    HW274367   6.651   2.330   1.233 -0.0357 -0.2797  0.4749
24210SOL     OW74368   3.182   8.165   5.524  0.9292  0.4370 -0.2440
24210SOL    HW174369   3.172   8.224   5.599 -1.1699 -0.5243  0.3081
24210SOL    HW274370   3.277   8.154   5.514  1.2702  1.0695  1.8689
24211SOL     OW74371   1.715   2.695   9.108  0.5406  0.1729 -0.3654
24211SOL    HW174372   1.712   2.616   9.163  0.4291  0.2539 -0.2545
24211SOL    HW274373   1.807   2.721   9.108  0.6432 -0.1893 -0.7292
24212SOL     OW74374   1.638   5.144   4.587 -0.0896  0.7341  0.3148
24212SOL    HW174375   1.556   5.135   4.539  0.1104  0.0873  0.0789
24212SOL    HW274376   1.677   5.225   4.555 -0.5216  0.9165  0.2531
24213SOL     OW74377   2.589   8.026   6.642  0.0675 -0.3780 -0.0264
24213SOL    HW174378   2.574   7.934   6.622 -1.5536 -0.0749 -0.2978
24213SOL    HW274379   2.617   8.064   6.559 -0.2987 -0.4210 -0.1706
24214SOL     OW74380   4.183   7.223   0.885 -0.7819  0.7467  0.4247
24214SOL    HW174381   4.227   7.284   0.945 -0.8058  1.5610 -0.3457
24214SOL    HW274382   4.182   7.140   0.931  1.0841  0.8329  0.7175
24215SOL     OW74383   6.361   9.563   6.696  0.0902  0.3490 -0.1394
24215SOL    HW174384   6.373   9.573   6.790  0.4992  2.6506 -0.3649
24215SOL    HW274385   6.444   9.593   6.658  0.5174 -1.9886 -1.2438
24216SOL     OW74386   3.352   2.713   0.007 -0.1278 -0.2003  0.1796
24216SOL    HW174387   3.436   2.668   0.008  0.1183  0.0890  3.2556
24216SOL    HW274388   3.370   2.797  -0.036  0.9041 -0.5944 -0.1701
24217SOL     OW74389   8.328   7.930   0.154 -0.1585 -0.2078  0.2499
24217SOL    HW174390   8.308   7.991   0.224  0.6532  0.2272  0.1207
24217SOL    HW274391   8.337   7.984   0.076 -1.0056 -0.6826 -0.1828
24218SOL     OW74392   8.164   1.442   9.598 -0.4762  0.2240  0.2186
24218SOL    HW174393   8.243   1.423   9.548 -0.4755  1.3268 -0.2215
24218SOL    HW274394   8.115   1.503   9.543 -0.9884  0.6181  1.0964
24219SOL     OW74395   5.748   2.901   3.879  0.4253  0.5774  0.2164
24219SOL    HW174396   5.735   2.831   3.943 -0.8750  0.6385  0.0390
24219SOL    HW274397   5.669   2.900   3.825  1.2256  0.9442 -0.9957
24220SOL     OW74398   2.525   7.265   4.315  0.4241 -0.5318  0.2542
24220SOL    HW174399   2.523   7.180   4.359 -1.4479  0.4496  2.1971
24220SOL    HW274400   2.512   7.329   4.384  0.4191  1.2916 -1.3471
24221SOL     OW74401   4.432   5.169   4.333 -0.8165 -0.0221  0.9608
24221SOL    HW174402   4.425   5.097   4.394 -1.9580  0.6752  1.6930
24221SOL    HW274403   4.486   5.234   4.378  0.4363 -0.4867  0.1979
24222SOL     OW74404   7.811   3.559   3.912  0.3709 -0.5876 -0.1251
24222SOL    HW174405   7.884   3.497   3.915  0.5492 -0.6065 -2.5093
24222SOL    HW274406   7.770   3.543   3.826 -2.0489 -0.1273  0.8605
24223SOL     OW74407   7.612   2.428   5.246  0.4708  0.3361  0.0641
24223SOL    HW174408   7.571   2.496   5.193 -0.6491  1.6657  2.4346
24223SOL    HW274409   7.694   2.467   5.275 -0.4285  1.0449  1.8913
24224SOL     OW74410   1.840   4.359   7.253  0.1879  0.1486  0.0434
24224SOL    HW174411   1.794   4.277   7.238  0.3226 -0.0401  0.6377
24224SOL    HW274412   1.928   4.345   7.220 -0.6695  1.1728 -3.0129
24225SOL     OW74413   6.173   4.731   0.250 -0.3695 -0.3292 -0.1681
24225SOL    HW174414   6.147   4.821   0.229  0.3593 -0.0420  0.1383
24225SOL    HW274415   6.225   4.703   0.175 -1.9657 -1.1020 -1.0410
24226SOL     OW74416   6.269   9.306   1.855 -0.3255  0.8808  0.5287
24226SOL    HW174417   6.191   9.314   1.910 -1.9334 -0.7857 -1.3366
24226SOL    HW274418   6.273   9.213   1.832  0.3437  1.4384 -1.9542
24227SOL     OW74419   2.202   2.676   1.656 -0.1547  0.4372 -0.1413
24227SOL    HW174420   2.290   2.639   1.656  0.0264  0.7915 -1.6457
24227SOL    HW274421   2.168   2.656   1.569 -0.6772  2.3054 -0.4174
24228SOL     OW74422   8.606   4.348   4.402 -0.4180  0.1982  0.2457
24228SOL    HW174423   8.625   4.266   4.356  1.2886  0.9682 -0.5177
24228SOL    HW274424   8.519   4.335   4.439 -0.8244 -1.3941 -1.1314
24229SOL     OW74425   6.553   3.576   2.372  0.2969 -0.2215  0.4332
24229SOL    HW174426   6.616   3.504   2.381  0.8407  0.3360  1.1528
24229SOL    HW274427   6.584   3.625   2.295  0.3192 -0.3607  0.3523
24230SOL     OW74428   0.700   5.085   1.831  0.2747  0.6122  0.1779
24230SOL    HW174429   0.645   5.036   1.769 -0.0572  0.7411  0.3656
24230SOL    HW274430   0.751   5.144   1.776  0.9736 -0.2193 -0.0897
24231SOL     OW74431   0.162   6.624   6.354  0.3772 -0.6336 -0.2117
24231SOL    HW174432   0.227   6.692   6.372  0.0171 -0.2736 -0.2537
24231SOL    HW274433   0.180   6.597   6.264 -0.8481  0.9565 -0.9860
24232SOL     OW74434   0.412   3.299   6.049 -0.3171 -0.3120  0.2202
24232SOL    HW174435   0.461   3.317   6.129 -0.4712 -2.0261  0.7560
24232SOL    HW274436   0.474   3.253   5.993 -0.4765  0.0766 -0.2725
24233SOL     OW74437   8.397   1.602   1.342 -0.4994  0.5847  0.0534
24233SOL    HW174438   8.381   1.518   1.385 -0.5798  0.4777 -0.1881
24233SOL    HW274439   8.462   1.582   1.274  0.6566  1.0014  0.9994
24234SOL     OW74440   6.581   1.530   6.122 -0.6480 -0.1032 -0.2226
24234SOL    HW174441   6.517   1.575   6.179 -0.5787  1.1538 -1.1032
24234SOL    HW274442   6.666   1.556   6.157 -0.5937 -1.1724  0.4833
24235SOL     OW74443   0.754   2.000   4.197  0.2902 -0.6991 -0.1260
24235SOL    HW174444   0.831   1.950   4.172 -1.3882 -2.2198 -2.6745
24235SOL    HW274445   0.738   2.058   4.123 -1.7524 -1.3897 -0.2853
24236SOL     OW74446   6.282   4.733   8.743 -0.6491  0.3290  0.0381
24236SOL    HW174447   6.336   4.705   8.669 -0.7823 -1.3203  0.5186
24236SOL    HW274448   6.335   4.713   8.820 -0.8166  1.3200  0.4215
24237SOL     OW74449   3.979   1.665   4.211  0.0700  0.1421 -0.2216
24237SOL    HW174450   4.003   1.669   4.118 -2.4708 -0.1084 -0.9753
24237SOL    HW274451   3.968   1.572   4.228  1.1242  0.1401  0.5498
24238SOL     OW74452   4.651   5.049   8.216 -0.6317 -0.3018 -0.1674
24238SOL    HW174453   4.719   5.074   8.153  0.4570  1.1305  1.4997
24238SOL    HW274454   4.669   4.957   8.236  0.9694  0.1088  0.3989
24239SOL     OW74455   0.404   2.291   2.558  0.1839  0.4774 -0.4295
24239SOL    HW174456   0.316   2.265   2.529 -0.7553  2.2695  0.6719
24239SOL    HW274457   0.392   2.378   2.596  2.4650  0.7818 -0.2996
24240SOL     OW74458   4.662   1.602   0.767  0.0362  0.5105 -0.3303
24240SOL    HW174459   4.725   1.587   0.696 -0.1251 -0.2729 -0.3100
24240SOL    HW274460   4.675   1.529   0.827 -2.9768 -1.4625 -1.8371
24241SOL     OW74461   1.118   8.311   8.526 -0.0240  0.8917  0.2673
24241SOL    HW174462   1.197   8.297   8.473  0.1494  1.0306  0.4924
24241SOL    HW274463   1.108   8.406   8.530 -0.3584  0.8659  0.0059
24242SOL     OW74464   6.684   6.173   5.426  0.7475 -0.7042 -0.4272
24242SOL    HW174465   6.698   6.125   5.345  0.6148 -2.2349  0.4115
24242SOL    HW274466   6.711   6.112   5.495  1.5608  0.8039  0.6734
24243SOL     OW74467   0.844   6.819   1.368  0.0975 -0.5326  0.6920
24243SOL    HW174468   0.866   6.768   1.291  1.5907  1.6250 -0.4234
24243SOL    HW274469   0.916   6.804   1.429  0.4533  0.0255  0.4282
24244SOL     OW74470   6.959   9.497   0.983 -0.5270  0.3770 -0.1564
24244SOL    HW174471   6.873   9.522   0.948 -0.8238  0.2986  0.5148
24244SOL    HW274472   6.971   9.554   1.059 -0.2577 -0.0397  0.1148
24245SOL     OW74473   4.006   4.731   6.694  0.4489 -0.1704 -0.5679
24245SOL    HW174474   4.043   4.669   6.631 -0.5633 -0.5675 -0.7879
24245SOL    HW274475   3.933   4.771   6.647 -1.7657 -2.0798  1.0188
24246SOL     OW74476   3.759   7.731   7.139 -0.2473 -0.1191 -0.0292
24246SOL    HW174477   3.679   7.714   7.189  0.3544 -0.5639  0.8009
24246SOL    HW274478   3.782   7.646   7.100 -0.2912  0.0569 -0.4487
24247SOL     OW74479   4.846   7.726   0.504 -0.0807  0.3002  0.3369
24247SOL    HW174480   4.914   7.659   0.498  0.9078  1.3933 -1.4634
24247SOL    HW274481   4.890   7.803   0.539 -0.6287  0.7230  0.1227
24248SOL     OW74482   8.052   3.785   6.676  0.2983  0.2863  0.0523
24248SOL    HW174483   8.079   3.813   6.589 -0.9559  0.4145 -0.3122
24248SOL    HW274484   7.961   3.814   6.684  0.0865 -0.5706  1.0297
24249SOL     OW74485   3.715   2.119   1.912  0.6317  0.0434 -0.7214
24249SOL    HW174486   3.794   2.067   1.925  1.2089  1.2432  0.9160
24249SOL    HW274487   3.644   2.066   1.949  1.1258  0.1506  0.4069
24250SOL     OW74488   4.626   7.324   8.037 -0.0986  0.3234  0.0692
24250SOL    HW174489   4.555   7.319   8.101 -0.1715  1.9638  0.1533
24250SOL    HW274490   4.687   7.388   8.074  1.1109 -0.5570 -0.3275
24251SOL     OW74491   8.579   0.808   0.445  0.2118  0.7596  0.4262
24251SOL    HW174492   8.576   0.902   0.430  0.8494  0.8789  1.0079
24251SOL    HW274493   8.645   0.797   0.514  1.7422 -0.3052 -1.1445
24252SOL     OW74494   1.586   0.713   3.179  0.1743 -0.0950  0.3932
24252SOL    HW174495   1.558   0.800   3.208 -1.1846  0.0289 -1.1458
24252SOL    HW274496   1.574   0.715   3.084 -0.1493 -2.0655  0.3605
24253SOL     OW74497   0.367   3.690   6.543  0.3878  0.3586 -0.1125
24253SOL    HW174498   0.371   3.597   6.521 -1.0372  0.2336  0.1163
24253SOL    HW274499   0.376   3.693   6.638  0.2879  0.4394 -0.1050
24254SOL     OW74500   4.616   0.605   9.577 -0.2296 -0.6477  0.0027
24254SOL    HW174501   4.605   0.676   9.514 -1.3168 -0.2309  0.6315
24254SOL    HW274502   4.658   0.535   9.527 -1.1631 -0.3645 -1.2221
24255SOL     OW74503   8.215   3.926   1.542  0.0737  0.2279 -0.2196
24255SOL    HW174504   8.309   3.933   1.524 -0.2457  1.8779 -1.5272
24255SOL    HW274505   8.192   4.011   1.578 -0.3182 -1.3015  3.6208
24256SOL     OW74506   4.610   8.627   5.860 -0.2537 -0.6399 -0.1540
24256SOL    HW174507   4.640   8.566   5.792  0.3794  0.4502 -0.8782
24256SOL    HW274508   4.531   8.585   5.895 -0.7363 -1.1484 -1.7164
24257SOL     OW74509   9.316   7.539   4.992 -0.0233 -0.2713 -0.3079
24257SOL    HW174510   9.372   7.478   5.040  1.5345  1.5803  0.3299
24257SOL    HW274511   9.261   7.578   5.060 -0.0152  0.0637 -0.4949
24258SOL     OW74512   7.558   5.964   4.457  0.0065  0.2375 -0.2661
24258SOL    HW174513   7.512   6.022   4.396 -0.2303  0.6199  0.2766
24258SOL    HW274514   7.494   5.895   4.477  0.5723 -0.7334 -1.5970
24259SOL     OW74515   6.957   5.775   8.631 -0.0691  0.0245  0.6909
24259SOL    HW174516   7.044   5.781   8.670  1.6749 -1.1379 -2.6092
24259SOL    HW274517   6.973   5.780   8.537 -3.4633 -1.3567 -0.0989
24260SOL     OW74518   5.179   8.702   4.694  0.3328  0.1571 -0.1871
24260SOL    HW174519   5.148   8.792   4.705  1.2726  0.3694  0.8321
24260SOL    HW274520   5.260   8.698   4.744  1.2365 -0.7846 -1.6570
24261SOL     OW74521   5.772   5.242   6.817  0.3199 -0.2178  0.1683
24261SOL    HW174522   5.865   5.219   6.826  0.5077  0.3313 -0.3245
24261SOL    HW274523   5.726   5.159   6.828  0.9392 -0.6916 -0.6789
24262SOL     OW74524   4.169   1.663   1.511 -0.3392 -0.7854  0.2837
24262SOL    HW174525   4.238   1.726   1.489  0.2232 -1.6259 -0.4699
24262SOL    HW274526   4.112   1.710   1.571  0.7582  0.0266  0.7411
24263SOL     OW74527   2.307   1.336   6.303 -0.6508  0.2766 -0.1580
24263SOL    HW174528   2.371   1.355   6.371  0.0892 -2.5612  0.0363
24263SOL    HW274529   2.346   1.373   6.223 -0.5649  1.8029  0.5546
24264SOL     OW74530   2.088   4.587   7.558  0.6678 -0.3615  0.0100
24264SOL    HW174531   2.134   4.664   7.592  0.2349 -0.2948  0.4499
24264SOL    HW274532   2.128   4.571   7.472 -0.1525  1.1471 -0.6840
24265SOL     OW74533   2.651   4.792   8.277  0.4410 -0.1939  0.2506
24265SOL    HW174534   2.643   4.738   8.198  1.6687 -2.3736  1.5192
24265SOL    HW274535   2.734   4.837   8.267  0.1614  0.2485 -0.1016
24266SOL     OW74536   2.596   4.242   2.618 -0.0923  0.6564  0.3031
24266SOL    HW174537   2.535   4.172   2.595 -1.3509  2.0411 -0.7605
24266SOL    HW274538   2.558   4.281   2.697 -0.6150  1.5142 -0.3557
24267SOL     OW74539   3.978   1.849   6.115 -0.1808 -0.0937  0.4610
24267SOL    HW174540   4.067   1.820   6.095 -0.2013  0.8925 -1.2569
24267SOL    HW274541   3.922   1.781   6.078 -0.1660 -0.3260  0.8571
24268SOL     OW74542   6.620   8.711   1.564  0.1406  0.6839  1.1128
24268SOL    HW174543   6.645   8.782   1.623  2.2334  1.8314 -0.9887
24268SOL    HW274544   6.532   8.735   1.534  0.3912  1.8551  1.2481
24269SOL     OW74545   7.823   3.653   0.455 -0.1617 -0.2558 -0.3440
24269SOL    HW174546   7.883   3.578   0.459 -0.1039 -0.2398 -0.8656
24269SOL    HW274547   7.837   3.690   0.368 -0.1248  0.4148 -0.0589
24270SOL     OW74548   3.420   5.968   5.031 -0.4188  0.8181  0.4406
24270SOL    HW174549   3.434   5.905   4.961 -1.0124  0.1827  0.8790
24270SOL    HW274550   3.491   6.032   5.021  0.9982 -0.6364  0.7819
24271SOL     OW74551   9.538   5.738   8.357  0.1266 -0.4528  0.1631
24271SOL    HW174552   9.482   5.757   8.433  0.6703  0.8253  0.2648
24271SOL    HW274553   9.478   5.736   8.283 -0.3615 -1.3765  0.5588
24272SOL     OW74554   9.369   2.214   4.451 -0.1321 -0.5890 -0.8625
24272SOL    HW174555   9.290   2.162   4.468  0.5472 -1.4291 -0.2283
24272SOL    HW274556   9.441   2.161   4.485  0.6626  0.4012 -0.9583
24273SOL     OW74557   6.651   8.126   9.280  0.2301 -0.3650  0.2377
24273SOL    HW174558   6.633   8.192   9.213 -0.7124 -1.3014 -0.4604
24273SOL    HW274559   6.578   8.131   9.341 -0.1061 -1.0765 -0.0885
24274SOL     OW74560   2.637   6.888   4.895  0.1079  0.3970  0.2170
24274SOL    HW174561   2.683   6.807   4.916 -0.2605  0.3663  0.9208
24274SOL    HW274562   2.613   6.925   4.980  1.0630  1.7106 -0.0380
24275SOL     OW74563   5.440   0.561   8.072  0.3900  0.1901 -0.6855
24275SOL    HW174564   5.428   0.470   8.046  1.7658 -0.5921  1.1910
24275SOL    HW274565   5.535   0.571   8.078  0.3369  2.1823 -2.1380
24276SOL     OW74566   8.854   1.702   8.363 -0.2772  0.3160  0.4215
24276SOL    HW174567   8.864   1.607   8.367  0.0252  0.3448  0.3291
24276SOL    HW274568   8.826   1.727   8.451 -0.4666  0.1315  0.4161
24277SOL     OW74569   8.725   8.394   6.919  0.2821 -0.1476  0.5873
24277SOL    HW174570   8.725   8.447   6.998  1.7123  1.6443 -0.5189
24277SOL    HW274571   8.726   8.457   6.847 -0.0049 -1.6918 -0.8571
24278SOL     OW74572   8.904   8.210   0.090 -0.4537 -0.0944  0.3879
24278SOL    HW174573   8.941   8.123   0.081 -0.6957 -0.1303 -0.3012
24278SOL    HW274574   8.941   8.260   0.017 -0.7160  0.2356  0.4765
24279SOL     OW74575   5.782   4.745   1.785  0.1349  0.3228  0.0738
24279SOL    HW174576   5.733   4.825   1.770  1.3371  1.4759  1.9303
24279SOL    HW274577   5.853   4.770   1.845  0.7833 -2.0373  0.4183
24280SOL     OW74578   7.489   2.178   6.254  0.7051 -0.3725  0.2550
24280SOL    HW174579   7.524   2.103   6.207 -1.0801 -1.0582 -0.0335
24280SOL    HW274580   7.492   2.250   6.191  2.8917  0.0097  0.6849
24281SOL     OW74581   4.144   1.112   2.283  0.0327  0.2270 -0.5440
24281SOL    HW174582   4.186   1.190   2.319  0.0694  0.6390 -1.4519
24281SOL    HW274583   4.194   1.092   2.205 -1.0199  0.3261 -1.2708
24282SOL     OW74584   6.586   2.725   1.562 -0.4121 -0.6457  0.3241
24282SOL    HW174585   6.560   2.635   1.585  0.9754 -0.6768  1.9691
24282SOL    HW274586   6.604   2.767   1.646  0.0967  0.8321 -0.4874
24283SOL     OW74587   3.879   7.714   2.157 -0.3089  0.3726 -1.3404
24283SOL    HW174588   3.888   7.809   2.163  0.0227  0.3167 -0.9503
24283SOL    HW274589   3.907   7.682   2.242 -2.8217  0.0761 -0.5455
24284SOL     OW74590   7.533   7.367   1.190 -0.4298 -0.0756 -0.2713
24284SOL    HW174591   7.456   7.422   1.202 -1.5508 -1.6995  0.3703
24284SOL    HW274592   7.532   7.308   1.265  1.2187 -0.4073 -0.4792
24285SOL     OW74593   5.989   3.828   7.265 -0.5211  0.0407 -0.1388
24285SOL    HW174594   6.018   3.878   7.342 -1.5168 -0.5966  0.6760
24285SOL    HW274595   5.894   3.830   7.269 -0.5844 -1.0484 -0.6486
24286SOL     OW74596   8.424   2.439   3.529 -0.2226 -0.4380  0.2982
24286SOL    HW174597   8.367   2.453   3.604 -0.5948 -1.2510  0.1774
24286SOL    HW274598   8.367   2.401   3.462 -0.2063  1.4929 -0.8939
24287SOL     OW74599   6.298   8.597   9.107 -0.6333 -0.3084 -0.0883
24287SOL    HW174600   6.331   8.650   9.035 -1.6928  0.2211 -0.2174
24287SOL    HW274601   6.204   8.617   9.109 -0.3350  1.4847  2.8345
24288SOL     OW74602   5.897   3.723   0.390 -0.3041 -0.2613 -0.4634
24288SOL    HW174603   5.924   3.687   0.475 -0.7033  0.1889 -0.1393
24288SOL    HW274604   5.894   3.818   0.404  2.9822  0.1754 -1.9302
24289SOL     OW74605   1.964   2.238   8.444 -0.3422 -0.0017  0.7194
24289SOL    HW174606   1.920   2.232   8.529 -0.6580 -0.0634  0.5534
24289SOL    HW274607   1.985   2.148   8.422 -3.1156 -0.3781 -0.7485
24290SOL     OW74608   9.219   8.053   5.254  0.1994  0.4751  0.0375
24290SOL    HW174609   9.299   8.012   5.287 -0.7211 -2.5894 -1.1443
24290SOL    HW274610   9.153   8.036   5.321  0.1252  1.4431  0.2228
24291SOL     OW74611   5.124   1.692   5.009  0.1619  0.0706  0.0671
24291SOL    HW174612   5.177   1.731   5.078  1.2727  0.2597 -0.8749
24291SOL    HW274613   5.182   1.631   4.965  0.7207  2.5889 -3.0509
24292SOL     OW74614   1.284   6.092   1.424  0.3610  0.4313 -0.3667
24292SOL    HW174615   1.226   6.145   1.479  1.0430  0.5176  0.2823
24292SOL    HW274616   1.370   6.131   1.434  0.6038  0.0789 -1.0318
24293SOL     OW74617   0.395   0.847   6.569 -0.1087  0.0503  0.2430
24293SOL    HW174618   0.454   0.774   6.587 -1.4672 -1.0297  0.4599
24293SOL    HW274619   0.348   0.861   6.651  0.4348  1.4946  0.3448
24294SOL     OW74620   4.230   3.475   0.967  0.6485 -0.1622  0.5442
24294SOL    HW174621   4.187   3.396   1.001  1.0530 -1.5163 -1.8507
24294SOL    HW274622   4.323   3.452   0.964  0.8720  0.7116  0.5771
24295SOL     OW74623   2.275   7.950   2.882  0.2426  0.3478  0.3935
24295SOL    HW174624   2.247   7.940   2.791  0.5114 -1.0082  0.4492
24295SOL    HW274625   2.193   7.962   2.931 -0.0963 -1.1496  0.2402
24296SOL     OW74626   6.873   2.637   3.745 -0.7646 -0.6016 -0.2646
24296SOL    HW174627   6.823   2.716   3.768  1.2803  0.8521 -0.5873
24296SOL    HW274628   6.929   2.622   3.821 -2.1797 -2.7075  0.4454
24297SOL     OW74629   5.728   8.016   8.195  0.0163  0.7938 -0.4006
24297SOL    HW174630   5.700   8.042   8.283  1.0259 -0.0124  0.1732
24297SOL    HW274631   5.670   7.944   8.172  2.8955 -2.5366  1.7766
24298SOL     OW74632   8.838   8.677   0.417 -0.4030 -0.1243 -0.3028
24298SOL    HW174633   8.762   8.674   0.475  0.6901 -0.2825  1.1791
24298SOL    HW274634   8.831   8.597   0.365 -1.3732 -0.0095 -0.3719
24299SOL     OW74635   8.250   5.868   9.596 -0.3409 -0.8379  0.8190
24299SOL    HW174636   8.232   5.944   9.540  0.7783 -0.0400  1.5079
24299SOL    HW274637   8.203   5.797   9.554  1.0700 -0.4554 -1.6381
24300SOL     OW74638   6.713   1.968   5.171  0.2886  0.5662  0.1933
24300SOL    HW174639   6.747   2.027   5.238  0.5804 -0.0192  0.5715
24300SOL    HW274640   6.721   2.017   5.090  2.1872  0.4233  0.2320
24301SOL     OW74641   4.461   0.994   2.521 -0.0382 -0.3137 -0.5087
24301SOL    HW174642   4.456   0.976   2.615 -1.8709  0.4819 -0.3945
24301SOL    HW274643   4.553   1.014   2.505  0.5184 -1.5384  0.8882
24302SOL     OW74644   9.392   3.946   6.272 -0.9158  0.2121 -0.1627
24302SOL    HW174645   9.441   3.968   6.351  1.7075 -0.9124 -1.3396
24302SOL    HW274646   9.408   3.852   6.259  0.1609  0.6811 -2.8657
24303SOL     OW74647   3.381   5.824   7.644  0.1205 -0.6068  0.0860
24303SOL    HW174648   3.430   5.818   7.562 -0.5143 -3.5919 -0.1910
24303SOL    HW274649   3.411   5.749   7.695 -1.9788 -0.7860  1.1427
24304SOL     OW74650   1.478   1.859   4.636 -0.4222 -0.0842  0.4204
24304SOL    HW174651   1.523   1.926   4.584 -0.0183 -0.2997  0.4918
24304SOL    HW274652   1.385   1.877   4.622 -0.3187  0.4267  0.3526
24305SOL     OW74653   3.106   4.974   4.537  0.3535 -0.3054 -0.2233
24305SOL    HW174654   3.151   4.938   4.614  2.4460  0.5050 -0.9899
24305SOL    HW274655   3.153   4.937   4.463  0.1596  1.0592 -1.0595
24306SOL     OW74656   5.632   8.024   4.088 -0.4228 -0.5226  0.4141
24306SOL    HW174657   5.579   7.948   4.065 -2.3095  0.7547  0.2949
24306SOL    HW274658   5.575   8.077   4.144  1.0433  0.5411  0.9674
24307SOL     OW74659   2.389   5.562   7.539  0.4133 -0.2186  0.2657
24307SOL    HW174660   2.397   5.555   7.634 -0.4142  0.0451  0.3649
24307SOL    HW274661   2.478   5.579   7.508  0.6010  0.2707  1.0508
24308SOL     OW74662   1.351   1.450   1.951  0.2809  0.2630 -0.3768
24308SOL    HW174663   1.345   1.546   1.947  0.5736  0.3209  0.4714
24308SOL    HW274664   1.262   1.420   1.934 -0.0245  0.7204  0.3771
24309SOL     OW74665   3.879   2.245   3.536 -0.7383  0.5542 -0.2318
24309SOL    HW174666   3.857   2.152   3.533  0.7039  0.2065 -0.5385
24309SOL    HW274667   3.829   2.284   3.464  0.2739 -0.3582 -1.4759
24310SOL     OW74668   4.265   6.585   8.806 -0.2022  0.2058 -0.0923
24310SOL    HW174669   4.208   6.572   8.731 -0.0086 -0.6767 -0.1000
24310SOL    HW274670   4.222   6.538   8.878  0.3425 -0.1782 -0.0141
24311SOL     OW74671   2.980   5.834   3.562  0.7025  0.1762 -0.1470
24311SOL    HW174672   3.030   5.897   3.614  1.0802 -0.7067  0.5721
24311SOL    HW274673   2.991   5.751   3.607 -1.2724 -0.0940 -0.0461
24312SOL     OW74674   8.104   8.179   9.187  0.1619  0.1874 -0.2763
24312SOL    HW174675   8.097   8.241   9.114  1.0660 -0.9770 -1.3961
24312SOL    HW274676   8.197   8.158   9.191 -0.0354 -0.5774  0.5464
24313SOL     OW74677   3.002   6.086   3.164  0.4668 -0.0403  0.5792
24313SOL    HW174678   3.087   6.121   3.136  0.0514 -1.2842 -2.6555
24313SOL    HW274679   3.024   6.005   3.210  1.0502  0.1592  0.6643
24314SOL     OW74680   1.090   1.862   0.107 -0.2179 -0.0925  0.5659
24314SOL    HW174681   1.161   1.925   0.120  0.6483 -0.9345  0.0465
24314SOL    HW274682   1.093   1.806   0.184 -1.4332  0.8912  1.3604
24315SOL     OW74683   0.863   2.202   7.244 -0.4591 -0.4388  0.1383
24315SOL    HW174684   0.791   2.251   7.206 -1.3992 -1.9591 -0.1290
24315SOL    HW274685   0.830   2.113   7.252  0.6980 -0.7575  1.9031
24316SOL     OW74686   7.924   2.734   5.865 -0.2750  0.2691  0.6111
24316SOL    HW174687   7.949   2.760   5.953 -2.3162  0.4864  1.1840
24316SOL    HW274688   7.916   2.817   5.817 -0.7918  0.2768  0.7050
24317SOL     OW74689   5.475   4.897   2.481  0.2369  0.2387  0.2344
24317SOL    HW174690   5.462   4.905   2.386  1.5035 -0.1373  0.0070
24317SOL    HW274691   5.532   4.970   2.504 -0.1734  0.4051  0.7324
24318SOL     OW74692   1.866   6.056   1.175 -0.4247 -0.0683 -0.8140
24318SOL    HW174693   1.849   6.149   1.192 -0.0746  0.1748 -1.7628
24318SOL    HW274694   1.792   6.028   1.122  1.0875  0.5415 -3.4166
24319SOL     OW74695   0.464   9.120   4.622  0.2597  0.0804 -1.1596
24319SOL    HW174696   0.522   9.084   4.555  1.7140 -0.1642  0.1691
24319SOL    HW274697   0.509   9.102   4.705 -1.1064  1.0540 -0.1613
24320SOL     OW74698   8.144   1.878   7.752 -0.7231  0.4316 -0.5683
24320SOL    HW174699   8.065   1.924   7.780 -1.6111 -1.3248 -0.0569
24320SOL    HW274700   8.160   1.911   7.664 -1.8825  1.0057 -0.5933
24321SOL     OW74701   8.427   5.895   8.273  0.1870 -0.3269 -0.3379
24321SOL    HW174702   8.491   5.824   8.271 -0.4201 -1.0075  2.0699
24321SOL    HW274703   8.344   5.854   8.247 -0.0929 -0.4462  0.7025
24322SOL     OW74704   1.743   9.042   3.371  0.3023 -0.4022 -0.5695
24322SOL    HW174705   1.661   9.083   3.400  0.8437  1.1788 -1.1691
24322SOL    HW274706   1.804   9.059   3.443  0.1719 -1.4224 -0.2040
24323SOL     OW74707   7.512   5.450   0.053 -0.1342  0.0208  0.2056
24323SOL    HW174708   7.568   5.375   0.032 -0.0122  0.3508 -0.7169
24323SOL    HW274709   7.513   5.455   0.149  2.6114  0.9010  0.2118
24324SOL     OW74710   2.078   2.250   4.953  0.2806 -0.1776  0.1873
24324SOL    HW174711   2.160   2.242   4.903  0.5721 -2.2208  0.9227
24324SOL    HW274712   2.080   2.340   4.987  1.2944  0.4232 -1.3390
24325SOL     OW74713   6.361   9.238   5.841  0.5597 -0.0789 -0.4227
24325SOL    HW174714   6.376   9.144   5.840  0.4763 -0.0912 -1.0580
24325SOL    HW274715   6.409   9.269   5.918  0.1553 -0.7036  0.0829
24326SOL     OW74716   6.017   7.057   0.932 -0.0572  0.5797 -0.2053
24326SOL    HW174717   6.010   7.015   1.018  0.1435  0.0938 -0.4214
24326SOL    HW274718   6.111   7.067   0.918 -0.1090  1.2262 -0.0997
24327SOL     OW74719   0.128   1.182   4.314  0.1575 -0.3737 -0.1648
24327SOL    HW174720   0.189   1.215   4.380 -1.2599  2.2484 -0.0485
24327SOL    HW274721   0.068   1.255   4.298 -2.0311 -2.3085 -1.3761
24328SOL     OW74722   1.674   6.235   0.252  0.3930 -0.1430  0.7203
24328SOL    HW174723   1.648   6.158   0.202 -3.9581  1.2242  0.4576
24328SOL    HW274724   1.650   6.309   0.197 -2.4046  1.3890  3.6731
24329SOL     OW74725   2.994   3.251   7.254  0.1388 -0.0374  0.2056
24329SOL    HW174726   2.950   3.172   7.284 -1.3368  0.6140 -0.1524
24329SOL    HW274727   3.019   3.231   7.163  2.4500 -1.1312  1.0181
24330SOL     OW74728   8.077   2.691   3.647  0.0068 -0.2857  0.1497
24330SOL    HW174729   8.098   2.708   3.739  0.0612  2.4913 -0.2928
24330SOL    HW274730   8.162   2.679   3.604  0.0293 -0.6827  0.3033
24331SOL     OW74731   6.360   7.123   7.982 -0.0409 -0.0538 -0.5501
24331SOL    HW174732   6.319   7.164   8.058 -0.6810 -0.3400 -0.7356
24331SOL    HW274733   6.365   7.030   8.005 -0.0261 -0.1064 -0.7590
24332SOL     OW74734   2.711   4.421   0.318  0.7861 -0.1781 -0.1346
24332SOL    HW174735   2.755   4.336   0.323  2.2413  0.6172  1.2264
24332SOL    HW274736   2.631   4.409   0.370  0.7755 -0.8113 -0.2838
24333SOL     OW74737   1.722   7.724   4.553  0.0487  1.1220 -0.2388
24333SOL    HW174738   1.672   7.664   4.609 -0.4355  1.1413 -0.6483
24333SOL    HW274739   1.770   7.779   4.615  0.2965  0.4890  0.1452
24334SOL     OW74740   5.170   5.071   6.489  0.2602 -0.0005 -0.8305
24334SOL    HW174741   5.192   5.154   6.447  0.2301  0.5822  0.2794
24334SOL    HW274742   5.075   5.062   6.477  0.0592  0.7470  0.1285
24335SOL     OW74743   7.814   0.771   7.611 -0.4139  0.1911  0.1686
24335SOL    HW174744   7.739   0.712   7.614 -0.8246  0.7016  0.0461
24335SOL    HW274745   7.781   0.849   7.568 -0.2737  1.0946  1.6429
24336SOL     OW74746   6.425   9.610   5.347 -0.2501 -0.0436 -0.3198
24336SOL    HW174747   6.494   9.580   5.287 -0.0342  1.0200 -0.6388
24336SOL    HW274748   6.344   9.581   5.306 -0.0018 -1.4390  0.1342
24337SOL     OW74749   9.081   1.287   3.732 -0.0010  0.5149  0.2197
24337SOL    HW174750   9.175   1.297   3.749 -0.0688 -1.2290  1.9262
24337SOL    HW274751   9.076   1.224   3.660  0.1280  0.3653  0.3425
24338SOL     OW74752   3.061   2.756   8.214 -0.2755  0.5372 -0.0868
24338SOL    HW174753   3.137   2.802   8.249  0.0449  0.9199 -1.2717
24338SOL    HW274754   3.083   2.736   8.124 -1.4005  0.2478 -0.3189
24339SOL     OW74755   5.185   5.063   0.438 -0.6664 -0.2134 -0.1982
24339SOL    HW174756   5.236   5.143   0.435 -1.1535  0.0887 -0.6222
24339SOL    HW274757   5.144   5.057   0.352 -0.3511 -1.1123 -0.2997
24340SOL     OW74758   1.430   1.812   4.154 -0.0687 -0.4531  0.1882
24340SOL    HW174759   1.444   1.726   4.194 -0.2614  0.3534  2.0666
24340SOL    HW274760   1.516   1.853   4.155 -0.1360 -0.3079  0.0560
24341SOL     OW74761   2.954   5.344   0.566 -0.0170 -0.1423 -0.0380
24341SOL    HW174762   2.929   5.431   0.534  0.0059 -0.7013 -1.6261
24341SOL    HW274763   2.895   5.328   0.640  0.3085  1.4155  0.6010
24342SOL     OW74764   0.837   6.328   1.039 -0.3391  0.3194  0.4019
24342SOL    HW174765   0.922   6.358   1.072 -0.7109  1.6454  0.2099
24342SOL    HW274766   0.805   6.269   1.107 -0.2945  1.6151  1.5884
24343SOL     OW74767   0.192   7.731   6.951  0.0583 -0.0905 -0.1990
24343SOL    HW174768   0.237   7.717   7.034  0.5130  0.3419 -0.3673
24343SOL    HW274769   0.141   7.651   6.938 -1.1914  0.4314  1.2020
24344SOL     OW74770   6.411   1.628   8.286  0.1282  0.2530 -0.0949
24344SOL    HW174771   6.439   1.547   8.244 -0.6128 -0.1589  0.2083
24344SOL    HW274772   6.348   1.601   8.352  1.4056  0.8707  1.4399
24345SOL     OW74773   5.348   2.126   8.908  0.0213 -0.0331 -0.2465
24345SOL    HW174774   5.334   2.150   9.000 -0.7939  4.3412 -1.2524
24345SOL    HW274775   5.283   2.059   8.890 -0.3512 -0.4135  2.1396
24346SOL     OW74776   0.232   6.803   8.569  0.3457 -0.2066  0.0233
24346SOL    HW174777   0.147   6.762   8.588 -0.1601  1.3170  1.3025
24346SOL    HW274778   0.249   6.858   8.646  2.8476 -0.9928  0.1021
24347SOL     OW74779   4.624   6.897   1.939 -0.5502  0.1852 -0.3768
24347SOL    HW174780   4.636   6.838   1.864 -0.1767  0.3044 -0.4152
24347SOL    HW274781   4.531   6.889   1.961 -0.2473 -1.4492  0.4721
24348SOL     OW74782   8.166   4.679   7.524  0.0778 -0.4182  0.0884
24348SOL    HW174783   8.132   4.710   7.440 -0.1493 -0.0680  0.3031
24348SOL    HW274784   8.251   4.641   7.503  0.3914  0.4025 -0.1890
24349SOL     OW74785   1.689   3.392   5.353 -0.2666  0.3245 -0.0333
24349SOL    HW174786   1.784   3.391   5.366 -0.1797  0.9017 -0.5707
24349SOL    HW274787   1.658   3.467   5.403 -0.4225  0.2250  0.0214
24350SOL     OW74788   4.827   0.494   7.601 -0.4667  0.3014 -0.1610
24350SOL    HW174789   4.881   0.561   7.558  0.7693 -0.7747 -0.3611
24350SOL    HW274790   4.743   0.537   7.616 -0.0318  1.5858 -1.1616
24351SOL     OW74791   7.264   2.517   2.696  0.0516 -0.2832 -0.6798
24351SOL    HW174792   7.268   2.572   2.774 -0.2807 -0.9645 -0.1575
24351SOL    HW274793   7.355   2.497   2.675  0.1131 -1.7215  0.7532
24352SOL     OW74794   8.900   6.814   6.225 -0.2976 -0.0048  0.3877
24352SOL    HW174795   8.921   6.727   6.191 -1.2197 -0.6755  1.4427
24352SOL    HW274796   8.907   6.872   6.149  2.8128 -0.5429  0.1581
24353SOL     OW74797   2.673   9.464   4.935  0.8353  0.1258 -0.5406
24353SOL    HW174798   2.676   9.476   5.029  2.2045  0.4966 -0.6090
24353SOL    HW274799   2.708   9.376   4.921  0.3182 -0.0584 -0.6800
24354SOL     OW74800   4.887   6.480   5.155  0.3762  0.0866 -0.2109
24354SOL    HW174801   4.831   6.465   5.231  1.2115 -0.9694  0.2217
24354SOL    HW274802   4.959   6.533   5.188  1.3836 -1.3897  0.0618
24355SOL     OW74803   2.411   1.213   7.188 -0.4401  0.4635 -0.6213
24355SOL    HW174804   2.343   1.153   7.219 -0.1372 -0.0065 -0.8445
24355SOL    HW274805   2.481   1.155   7.157 -0.1604  0.9363 -0.8828
24356SOL     OW74806   0.204   7.475   3.724  0.2701  0.3683  0.6682
24356SOL    HW174807   0.226   7.450   3.634  1.2586  0.4533  0.8714
24356SOL    HW274808   0.114   7.444   3.737 -0.3406  1.4346 -0.7468
24357SOL     OW74809   3.568   0.950   5.481 -0.2082  0.3839  0.1420
24357SOL    HW174810   3.524   0.992   5.555 -0.7551 -0.6376  0.4151
24357SOL    HW274811   3.497   0.920   5.425  0.0863 -1.6289  0.7772
24358SOL     OW74812   0.620   4.193   2.991  0.1990 -0.3110  0.4342
24358SOL    HW174813   0.656   4.142   3.063  1.1851 -0.8720 -0.4185
24358SOL    HW274814   0.687   4.260   2.973  0.2248 -0.5270 -0.3059
24359SOL     OW74815   9.456   2.284   3.234 -0.1387 -0.1060  0.4263
24359SOL    HW174816   9.383   2.224   3.223 -0.3020  0.2752 -0.7490
24359SOL    HW274817   9.418   2.364   3.270 -0.1317 -0.2475  0.7515
24360SOL     OW74818   1.645   7.232   3.046 -0.0163  0.6525 -0.2155
24360SOL    HW174819   1.576   7.254   2.984 -0.3797  0.6049  0.1652
24360SOL    HW274820   1.637   7.299   3.115  0.8745  1.1653 -0.5975
24361SOL     OW74821   4.333   0.247   0.634 -0.0172 -0.1953 -0.6487
24361SOL    HW174822   4.283   0.187   0.690 -1.3865  1.2052 -0.3013
24361SOL    HW274823   4.382   0.190   0.576  0.4690 -1.6924  1.1221
24362SOL     OW74824   2.372   2.750   7.576  0.3640 -0.1580  0.2066
24362SOL    HW174825   2.358   2.839   7.544 -1.3102  0.0546  1.3908
24362SOL    HW274826   2.283   2.715   7.589  0.9942 -1.8280  0.2331
24363SOL     OW74827   6.399   7.831   0.343  0.0321 -0.6208  0.4652
24363SOL    HW174828   6.325   7.857   0.288  0.1310 -0.3537  0.4566
24363SOL    HW274829   6.380   7.741   0.368 -0.3802 -0.4978  0.6018
24364SOL     OW74830   8.591   4.682   2.280 -0.1758  0.3592  0.1250
24364SOL    HW174831   8.576   4.596   2.319 -1.5701  1.3724  1.9977
24364SOL    HW274832   8.677   4.675   2.238  1.2486 -1.0117  3.0132
24365SOL     OW74833   2.156   0.012   3.840 -0.2979 -0.4099  0.3143
24365SOL    HW174834   2.139   0.056   3.757 -1.5701  1.5584  1.5311
24365SOL    HW274835   2.247   0.035   3.862 -0.6655  0.9614  0.5031
24366SOL     OW74836   0.100   3.864   7.608 -0.3284 -0.0753  0.3720
24366SOL    HW174837   0.127   3.954   7.626  1.1746 -0.5046  0.4103
24366SOL    HW274838   0.148   3.812   7.671 -1.6090 -0.8902  0.7196
24367SOL     OW74839   8.832   4.985   1.959 -0.5447  0.6411 -0.5140
24367SOL    HW174840   8.807   5.072   1.990 -1.5282  1.0030 -2.1811
24367SOL    HW274841   8.808   4.926   2.030  0.0428  1.7038  0.5984
24368SOL     OW74842   5.547   9.204   8.260 -0.3569 -0.0019  0.2040
24368SOL    HW174843   5.551   9.191   8.165  0.9836  1.2991  0.0510
24368SOL    HW274844   5.591   9.288   8.275  0.7392 -0.8506  2.1173
24369SOL     OW74845   0.009   4.253   6.395 -0.3030  0.6827 -0.1172
24369SOL    HW174846   0.059   4.188   6.443  0.9566  2.7014  1.4943
24369SOL    HW274847   0.043   4.249   6.306  0.5384 -0.0965  0.2228
24370SOL     OW74848   3.294   9.438   8.516 -0.3245  0.1290  0.0195
24370SOL    HW174849   3.339   9.383   8.452 -2.2761 -2.2555  0.5314
24370SOL    HW274850   3.205   9.446   8.481 -0.1242  3.1535 -0.0608
24371SOL     OW74851   2.848   4.424   3.673  0.2966  0.0472  0.1533
24371SOL    HW174852   2.894   4.478   3.608 -0.3888  0.2895 -0.1476
24371SOL    HW274853   2.791   4.486   3.719 -0.1330 -0.3348  0.1440
24372SOL     OW74854   6.266   3.375   5.525  0.6298 -0.3627 -0.0028
24372SOL    HW174855   6.211   3.372   5.447  1.0026  0.4966 -0.3144
24372SOL    HW274856   6.339   3.316   5.505  0.1355 -1.0535  0.1813
24373SOL     OW74857   3.859   9.313   8.493 -0.2924 -0.2719 -0.3795
24373SOL    HW174858   3.778   9.270   8.521 -0.1046 -0.1969  0.2944
24373SOL    HW274859   3.832   9.371   8.422 -0.6424 -1.0760 -0.9290
24374SOL     OW74860   1.639   1.485   4.459 -0.2148 -0.5207 -0.3467
24374SOL    HW174861   1.626   1.509   4.551  1.1219 -0.4796 -0.1450
24374SOL    HW274862   1.693   1.406   4.463  1.0542  0.2906 -1.1119
24375SOL     OW74863   9.065   4.381   7.286  0.0894  0.1827 -0.6787
24375SOL    HW174864   9.065   4.293   7.324  0.3547  0.3146 -0.3634
24375SOL    HW274865   9.045   4.438   7.360 -0.9595  0.3227 -1.0496
24376SOL     OW74866   4.943   1.725   7.612  0.0480  0.1400  0.1532
24376SOL    HW174867   4.891   1.662   7.562 -0.3456 -0.2785  1.0515
24376SOL    HW274868   4.953   1.800   7.554 -0.5258 -0.2634 -0.4846
24377SOL     OW74869   2.425   5.799   5.231 -0.3753  0.0098  0.0869
24377SOL    HW174870   2.422   5.794   5.135 -0.2772  0.0722  0.0805
24377SOL    HW274871   2.508   5.843   5.250 -1.5174  2.3117  0.1033
24378SOL     OW74872   6.510   1.461   6.849 -0.4966  0.6215 -0.1005
24378SOL    HW174873   6.556   1.443   6.932 -1.9397 -0.5068  0.4990
24378SOL    HW274874   6.461   1.541   6.867 -1.1297  0.1564  0.3011
24379SOL     OW74875   2.414   5.012   6.260 -0.2994 -0.1417 -0.6122
24379SOL    HW174876   2.423   5.066   6.181 -1.7914 -0.0147 -0.7217
24379SOL    HW274877   2.504   4.993   6.286  0.3268  2.6231 -0.4268
24380SOL     OW74878   0.070   4.033   3.557  0.7733 -0.4723  0.6260
24380SOL    HW174879  -0.010   4.011   3.510  0.6261  1.8466 -0.3792
24380SOL    HW274880   0.041   4.054   3.646  0.6165 -1.8336  0.9163
24381SOL     OW74881   4.169   2.889   4.825 -0.3258  0.4036  0.7043
24381SOL    HW174882   4.152   2.854   4.737  1.1531  1.0146  0.1509
24381SOL    HW274883   4.146   2.982   4.818 -0.7483  0.3365  1.1395
24382SOL     OW74884   8.334   5.314   9.158 -0.5196 -0.3377 -0.6717
24382SOL    HW174885   8.286   5.341   9.236  1.7154 -0.1655  0.7433
24382SOL    HW274886   8.322   5.386   9.096  0.0611  0.9375  0.6398
24383SOL     OW74887   3.446   7.937   7.182 -0.0917 -0.1873 -0.4024
24383SOL    HW174888   3.444   7.861   7.241 -0.9006  1.6674  2.1319
24383SOL    HW274889   3.530   7.978   7.198  0.1973 -0.3231 -1.5013
24384SOL     OW74890   2.690   8.047   6.380  0.4702 -0.6044 -0.3330
24384SOL    HW174891   2.604   8.082   6.356  1.0767  0.6610 -0.7919
24384SOL    HW274892   2.731   8.026   6.296  0.7946 -0.7484 -0.1404
24385SOL     OW74893   4.063   4.532   6.470 -0.1812 -0.0829  0.2253
24385SOL    HW174894   4.083   4.602   6.408 -0.4479 -0.6529 -0.5292
24385SOL    HW274895   3.974   4.550   6.499  0.2049  0.5877  1.0033
24386SOL     OW74896   9.575   4.105   8.326 -0.5947 -0.0990  0.2814
24386SOL    HW174897   9.517   4.040   8.287  0.1692 -1.1761  0.8740
24386SOL    HW274898   9.642   4.053   8.371  2.1088  0.9851 -2.1327
24387SOL     OW74899   0.348   1.514   0.418 -0.6707  0.0205  0.5821
24387SOL    HW174900   0.294   1.479   0.347 -0.2244 -2.3181  1.3141
24387SOL    HW274901   0.285   1.531   0.489 -0.8595  0.4070  0.3214
24388SOL     OW74902   2.928   8.934   0.488  0.1310  0.0737 -0.5837
24388SOL    HW174903   3.013   8.891   0.498 -0.1590  0.0364  2.7647
24388SOL    HW274904   2.868   8.862   0.469  0.0935 -0.7512  2.2448
24389SOL     OW74905   1.265   1.592   2.736 -0.3292  0.4085 -0.0043
24389SOL    HW174906   1.326   1.533   2.692  1.6405  2.7982 -0.7469
24389SOL    HW274907   1.300   1.601   2.824  0.3211  1.5894 -0.3567
24390SOL     OW74908   0.050   1.136   5.149 -0.2780 -0.3245  0.0702
24390SOL    HW174909   0.134   1.159   5.188 -1.4392  1.2374  1.8116
24390SOL    HW274910   0.068   1.130   5.055  1.9407 -1.0062  0.4800
24391SOL     OW74911   5.254   8.513   0.944 -0.0304 -0.0177 -0.3891
24391SOL    HW174912   5.212   8.592   0.978 -0.4572 -0.4342  0.0769
24391SOL    HW274913   5.346   8.521   0.970 -0.1078  0.2405 -0.1920
24392SOL     OW74914   5.147   0.926   6.955  0.7959 -0.0451 -0.1924
24392SOL    HW174915   5.205   0.980   7.010 -0.5088 -0.2802  1.4771
24392SOL    HW274916   5.113   0.859   7.015  1.4851 -2.0948 -1.9456
24393SOL     OW74917   3.408   8.069   3.598 -0.0840 -0.6226 -0.8066
24393SOL    HW174918   3.333   8.076   3.656  1.0373  0.6553  0.5458
24393SOL    HW274919   3.438   7.979   3.608 -0.2634 -0.5817  0.1523
24394SOL     OW74920   3.402   0.882   3.785  0.2040  0.2552 -0.1984
24394SOL    HW174921   3.438   0.852   3.869 -0.3568 -0.4002 -0.1834
24394SOL    HW274922   3.332   0.942   3.810 -0.5240 -0.5861 -0.1680
24395SOL     OW74923   1.670   7.116   8.991 -0.4932  0.1612 -0.5741
24395SOL    HW174924   1.753   7.117   8.943 -0.1278 -1.8975 -0.0646
24395SOL    HW274925   1.638   7.206   8.985  1.7095  0.9821 -0.8860
24396SOL     OW74926   4.446   5.385   0.198  0.1781 -0.2147  0.1008
24396SOL    HW174927   4.523   5.409   0.249  0.0540  1.0104 -0.2761
24396SOL    HW274928   4.392   5.463   0.197 -0.2385 -0.4972 -1.1495
24397SOL     OW74929   2.430   5.964   5.779 -0.2093  0.1493 -0.0293
24397SOL    HW174930   2.386   6.047   5.797 -1.9560 -0.1544 -2.4129
24397SOL    HW274931   2.474   5.978   5.695  0.7718 -0.8936  0.2772
24398SOL     OW74932   1.481   0.765   0.362 -0.6160 -0.6394 -0.5964
24398SOL    HW174933   1.577   0.767   0.352 -0.7347  1.9693 -1.7702
24398SOL    HW274934   1.465   0.808   0.446 -0.7783 -0.7897 -0.5499
24399SOL     OW74935   5.041   6.716   1.503 -0.1410 -0.2766  0.0216
24399SOL    HW174936   5.062   6.626   1.525  0.3299  0.2595  1.9053
24399SOL    HW274937   5.112   6.743   1.444  1.6441 -0.1617  2.0733
24400SOL     OW74938   5.721   2.680   4.011 -0.6298  0.6999  0.1614
24400SOL    HW174939   5.668   2.606   4.041 -0.8451  1.2667  1.2396
24400SOL    HW274940   5.808   2.643   3.998 -1.3001 -0.3101 -1.9110
24401SOL     OW74941   7.783   6.788   3.965 -0.4586  0.3802  0.1666
24401SOL    HW174942   7.837   6.843   4.021 -0.6078  1.3010 -0.5695
24401SOL    HW274943   7.704   6.840   3.949 -1.0460 -0.4541  0.2531
24402SOL     OW74944   6.071   6.767   2.132  0.7134  0.2048 -0.2823
24402SOL    HW174945   6.032   6.785   2.047  1.4370  0.3087 -0.5997
24402SOL    HW274946   6.011   6.807   2.195  2.0749  3.5617 -0.9348
24403SOL     OW74947   5.085   5.463   2.786 -0.2736 -0.6745  0.4253
24403SOL    HW174948   5.102   5.484   2.878  0.5961 -1.4847  0.4644
24403SOL    HW274949   5.129   5.532   2.737 -0.2680 -0.5447  0.6135
24404SOL     OW74950   0.732   4.268   6.657  0.1533  0.4489  0.2386
24404SOL    HW174951   0.708   4.254   6.566 -3.5307 -3.1540  1.4807
24404SOL    HW274952   0.675   4.339   6.687  0.1975  0.5193  0.1563
24405SOL     OW74953   2.696   2.966   2.284  0.5745 -0.4885  0.2166
24405SOL    HW174954   2.723   2.875   2.267 -0.6092 -1.2747  2.1684
24405SOL    HW274955   2.656   2.963   2.371 -1.4262  1.4938 -0.5449
24406SOL     OW74956   2.522   7.366   4.569 -0.6455  0.1652  0.3558
24406SOL    HW174957   2.501   7.454   4.600 -0.4275 -0.0294  1.0740
24406SOL    HW274958   2.576   7.328   4.639 -0.4601 -0.4173 -0.0986
24407SOL     OW74959   4.284   7.361   6.529  0.2798  0.0806  0.3130
24407SOL    HW174960   4.200   7.360   6.576  0.0080  1.7149 -0.0717
24407SOL    HW274961   4.275   7.293   6.462 -0.4447 -0.2571  0.7350
24408SOL     OW74962   8.429   2.335   4.747  0.1785 -0.3216 -0.8479
24408SOL    HW174963   8.451   2.420   4.710  1.6027  0.5060  1.6383
24408SOL    HW274964   8.341   2.347   4.784  0.1434 -0.1002 -1.0032
24409SOL     OW74965   0.463   8.564   7.200  0.6347  0.8482 -0.2653
24409SOL    HW174966   0.435   8.512   7.125 -0.0559  2.1218 -0.9185
24409SOL    HW274967   0.557   8.547   7.207  0.4532 -0.3802 -0.5250
24410SOL     OW74968   8.867   6.693   5.193 -0.3994  0.3066  0.1261
24410SOL    HW174969   8.917   6.670   5.114  0.3660 -0.1301  0.7298
24410SOL    HW274970   8.784   6.647   5.182  0.5859 -1.7084  0.6522
24411SOL     OW74971   8.746   2.241   4.544  0.1921 -0.1536  0.0582
24411SOL    HW174972   8.675   2.178   4.533  0.4516 -0.2535 -1.2591
24411SOL    HW274973   8.826   2.190   4.527  0.4632  0.3085 -0.0649
24412SOL     OW74974   6.029   2.306   9.502  0.0701  0.1409  0.0104
24412SOL    HW174975   5.973   2.235   9.535  2.3593 -1.8120 -0.0344
24412SOL    HW274976   5.994   2.385   9.543 -1.6881 -1.1841  1.2433
24413SOL     OW74977   7.980   3.597   7.773  0.8075  0.3242 -0.6187
24413SOL    HW174978   8.014   3.680   7.741  0.6412  0.4088 -0.5726
24413SOL    HW274979   7.921   3.620   7.845  2.5217  0.0575  0.9659
24414SOL     OW74980   8.896   9.613   2.172  0.2421  0.2178  0.3043
24414SOL    HW174981   8.946   9.632   2.092  0.8175  1.0395  0.8398
24414SOL    HW274982   8.894   9.517   2.177 -1.2727  0.0882 -1.5862
24415SOL     OW74983   9.247   3.903   7.144 -0.2741 -0.1520 -0.3986
24415SOL    HW174984   9.168   3.856   7.172 -0.0174 -1.4810 -1.7909
24415SOL    HW274985   9.214   3.972   7.086 -0.4994  0.0026 -0.0863
24416SOL     OW74986   3.414   5.626   2.610  0.0126 -0.6666 -0.0818
24416SOL    HW174987   3.335   5.579   2.581  0.5834 -0.5669 -1.9776
24416SOL    HW274988   3.404   5.714   2.573  1.5371 -1.0123 -1.4171
24417SOL     OW74989   7.725   3.147   3.033  0.0960 -0.6644  0.7788
24417SOL    HW174990   7.817   3.127   3.017  0.2425 -0.7443  1.6604
24417SOL    HW274991   7.690   3.067   3.072  0.4186  0.3182  3.3075
24418SOL     OW74992   9.095   0.490   8.476 -0.0141 -0.5962 -0.3843
24418SOL    HW174993   9.095   0.477   8.381 -1.2628  1.4088 -0.7053
24418SOL    HW274994   9.003   0.495   8.500  0.2995 -0.3931  0.8436
24419SOL     OW74995   8.581   9.218   3.809 -0.3263  0.0509  0.3090
24419SOL    HW174996   8.530   9.273   3.868  0.0294 -2.7324  3.5425
24419SOL    HW274997   8.672   9.232   3.836 -0.0695 -0.5923 -0.1985
24420SOL     OW74998   9.126   4.636   7.429 -0.2189  0.1682 -0.3793
24420SOL    HW174999   9.213   4.647   7.469 -0.3650  0.3642 -0.1128
24420SOL    HW275000   9.124   4.699   7.357 -0.3134  0.4920 -0.0952
24421SOL     OW75001   1.674   2.665   4.124 -0.5103  0.0581  0.2201
24421SOL    HW175002   1.741   2.610   4.164 -0.7516 -1.3409 -1.2086
24421SOL    HW275003   1.609   2.603   4.090 -0.5120  1.1657 -1.9551
24422SOL     OW75004   5.639   0.183   8.224  0.2508  0.1614 -0.0329
24422SOL    HW175005   5.585   0.256   8.254  0.3192 -0.0872  0.7172
24422SOL    HW275006   5.677   0.146   8.304  1.0979 -0.0081 -0.4989
24423SOL     OW75007   7.500   9.594   3.396 -0.2402 -0.5139 -0.0932
24423SOL    HW175008   7.482   9.597   3.302  0.1313 -0.7716 -0.1755
24423SOL    HW275009   7.425   9.546   3.433 -1.0663  0.7325 -0.0712
24424SOL     OW75010   1.613   0.754   6.354  0.1715 -0.5383 -0.2442
24424SOL    HW175011   1.686   0.812   6.334  0.0214 -0.0757  0.5326
24424SOL    HW275012   1.655   0.672   6.382  0.3800 -0.8116 -1.2895
24425SOL     OW75013   0.528   1.548   3.811 -0.3477 -0.0466 -0.3389
24425SOL    HW175014   0.471   1.476   3.785  0.6253 -1.1172  0.3916
24425SOL    HW275015   0.519   1.554   3.906 -1.1599  1.4806 -0.4720
24426SOL     OW75016   9.158   7.112   6.147  0.2162 -0.6518 -0.1229
24426SOL    HW175017   9.096   7.092   6.217 -0.2589 -0.9274 -0.6141
24426SOL    HW275018   9.236   7.144   6.192  0.8573 -3.1810  0.7026
24427SOL     OW75019   7.487   2.574   5.031  0.0099 -0.5480  0.8807
24427SOL    HW175020   7.526   2.558   4.945  0.0431  2.1738  0.2924
24427SOL    HW275021   7.398   2.604   5.012 -0.0488 -0.1151  1.7947
24428SOL     OW75022   8.888   1.003   2.760  0.2006 -0.4517  0.0685
24428SOL    HW175023   8.953   0.970   2.699  0.1537  0.3775 -0.4498
24428SOL    HW275024   8.804   0.974   2.725  0.2210 -0.5654  0.1161
24429SOL     OW75025   1.725   0.628   7.246  0.4748 -0.0114 -0.4209
24429SOL    HW175026   1.644   0.672   7.275  0.6789 -0.3844  0.7880
24429SOL    HW275027   1.774   0.697   7.201 -0.1443  0.4443 -0.4263
24430SOL     OW75028   4.246   0.102   1.736 -0.4730  0.0078  0.2602
24430SOL    HW175029   4.221   0.011   1.755 -0.7284  0.1815  0.7737
24430SOL    HW275030   4.172   0.137   1.687 -0.6533  0.1299  0.6219
24431SOL     OW75031   0.257   3.843   2.284  0.0581 -0.6491  0.1448
24431SOL    HW175032   0.217   3.902   2.219 -1.5240 -1.2267  0.5450
24431SOL    HW275033   0.256   3.757   2.242 -0.1214 -0.8626  0.5788
24432SOL     OW75034   4.731   0.991   1.193 -0.0764  0.1013  0.0135
24432SOL    HW175035   4.796   1.015   1.127  0.8912 -0.1462  0.8562
24432SOL    HW275036   4.650   0.979   1.143  0.5921  0.0934 -1.1044
24433SOL     OW75037   4.726   9.444   7.129 -0.1030  0.4863 -0.0276
24433SOL    HW175038   4.724   9.522   7.184  2.0746  0.7964 -0.2838
24433SOL    HW275039   4.681   9.377   7.180 -1.2485  1.6663  0.5682
24434SOL     OW75040   2.881   3.940   0.972 -0.3375  0.2831  0.0461
24434SOL    HW175041   2.905   4.033   0.975 -0.2681  0.3587 -1.6658
24434SOL    HW275042   2.920   3.903   1.051  1.0242  1.4037 -0.0516
24435SOL     OW75043   9.556   1.797   6.494  0.1033  0.3919 -0.2687
24435SOL    HW175044   9.500   1.780   6.569 -1.2829  0.3758 -1.2644
24435SOL    HW275045   9.631   1.845   6.530  0.5007 -1.3863  1.4174
24436SOL     OW75046   3.613   3.183   6.158  0.5539 -0.0759 -0.0043
24436SOL    HW175047   3.528   3.226   6.166  0.2900 -0.6123  0.1388
24436SOL    HW275048   3.675   3.254   6.143  0.6747  0.7995  3.6958
24437SOL     OW75049   8.742   0.251   3.416 -0.0717  0.2331 -0.2826
24437SOL    HW175050   8.799   0.285   3.347 -1.8630  2.2688 -0.8747
24437SOL    HW275051   8.664   0.219   3.369 -1.0194  1.0091  0.7162
24438SOL     OW75052   3.185   0.600   7.238  0.4016  0.4483  0.3033
24438SOL    HW175053   3.156   0.512   7.259  0.0565  0.3601 -0.5168
24438SOL    HW275054   3.267   0.588   7.191  0.7271  0.6080  0.8131
24439SOL     OW75055   6.716   7.014   4.108  0.0267  0.3460  0.2332
24439SOL    HW175056   6.634   6.985   4.069 -0.0731 -0.2642  0.8660
24439SOL    HW275057   6.697   7.100   4.145 -0.3023  0.2404  0.3067
24440SOL     OW75058   2.717   2.882   7.522 -0.3634 -0.1402  0.3031
24440SOL    HW175059   2.623   2.896   7.506 -0.6501 -1.9898  0.1881
24440SOL    HW275060   2.720   2.806   7.579  1.0310  1.0255  1.8688
24441SOL     OW75061   0.152   7.419   0.816  0.2780 -0.4967 -1.1832
24441SOL    HW175062   0.138   7.488   0.752 -0.5100  0.5720  0.0877
24441SOL    HW275063   0.072   7.366   0.813  0.0808 -0.2236 -0.8356
24442SOL     OW75064   1.573   0.006   5.052 -0.1780  0.1556 -0.1465
24442SOL    HW175065   1.536   0.032   5.136  0.4454  0.1249  0.1473
24442SOL    HW275066   1.509  -0.055   5.015 -0.3190 -0.0714  0.4486
24443SOL     OW75067   8.077   2.601   0.275 -0.2162 -0.0002 -0.0449
24443SOL    HW175068   8.145   2.541   0.306 -0.2159  1.2090  2.6412
24443SOL    HW275069   7.995   2.557   0.296 -0.2273  0.1881  0.3094
24444SOL     OW75070   0.239   8.467   4.006  0.2719  0.7386  0.3734
24444SOL    HW175071   0.246   8.399   3.940 -0.2799  1.4580 -0.4559
24444SOL    HW275072   0.256   8.423   4.089  0.0064 -0.3853 -0.1578
24445SOL     OW75073   2.046   4.988   8.478  0.3549  0.1321 -0.2324
24445SOL    HW175074   1.996   5.045   8.535  0.8410  0.4789 -0.1519
24445SOL    HW275075   2.003   4.995   8.393 -0.8998 -1.0450  0.2688
24446SOL     OW75076   3.807   5.636   5.926  0.2197 -0.2849 -0.7977
24446SOL    HW175077   3.836   5.603   6.011 -1.7749  0.1765  0.1179
24446SOL    HW275078   3.857   5.585   5.862  0.0844 -2.2932  0.6194
24447SOL     OW75079   5.221   4.884   1.086 -0.0563  0.2529  0.2872
24447SOL    HW175080   5.287   4.818   1.066  0.3967  0.8964 -0.3919
24447SOL    HW275081   5.174   4.849   1.162  1.4653  0.0710  1.1797
24448SOL     OW75082   0.102   7.201   2.797 -0.3691 -0.2160  0.0993
24448SOL    HW175083   0.108   7.201   2.701 -1.0475  1.2148  0.0308
24448SOL    HW275084   0.184   7.161   2.826 -0.5363 -1.5189 -1.0709
24449SOL     OW75085   2.154   0.852   7.967  0.9001 -0.3228 -0.2577
24449SOL    HW175086   2.096   0.926   7.984 -0.2372 -1.1253 -0.5590
24449SOL    HW275087   2.209   0.880   7.894  1.1475  0.5712  0.2552
24450SOL     OW75088   4.499   0.264   7.508  0.4153 -0.5460 -0.4096
24450SOL    HW175089   4.466   0.181   7.542  0.1873 -0.2635  0.0600
24450SOL    HW275090   4.421   0.310   7.477  0.7326 -1.3428 -2.5619
24451SOL     OW75091   5.205   3.430   2.001 -0.2771  0.2669 -0.0151
24451SOL    HW175092   5.292   3.458   1.971  0.1939 -0.6264  0.4727
24451SOL    HW275093   5.159   3.512   2.021  0.4714  0.7474 -0.2118
24452SOL     OW75094   8.067   1.609   9.001 -0.2528 -0.1852  0.8451
24452SOL    HW175095   7.974   1.599   8.979 -0.0348  0.3119 -0.3742
24452SOL    HW275096   8.114   1.578   8.924  0.5765  0.3611  1.1144
24453SOL     OW75097   4.812   2.502   6.189  0.3037 -0.3947 -0.5297
24453SOL    HW175098   4.799   2.573   6.127  1.0526 -0.3471 -0.6484
24453SOL    HW275099   4.838   2.545   6.270  1.2861 -0.5429 -0.7490
24454SOL     OW75100   6.056   4.597   3.468  0.3065 -0.1211 -0.0587
24454SOL    HW175101   6.148   4.622   3.459  0.7633 -1.6796 -0.1548
24454SOL    HW275102   6.059   4.502   3.480 -1.2939 -0.1838  0.0255
24455SOL     OW75103   5.862   0.679   9.107  0.5991 -0.2816 -0.1092
24455SOL    HW175104   5.944   0.722   9.131  1.5356 -2.0151 -0.0755
24455SOL    HW275105   5.864   0.595   9.152 -0.8960 -0.6382 -0.6372
24456SOL     OW75106   6.907   8.524   3.409 -0.1050  0.2703  0.3291
24456SOL    HW175107   6.927   8.501   3.500  1.2095 -0.6704 -0.1636
24456SOL    HW275108   6.816   8.554   3.411 -0.5573 -1.0933  1.7118
24457SOL     OW75109   2.418   5.940   6.969 -0.2154  0.6032 -0.3509
24457SOL    HW175110   2.418   5.966   7.062 -0.2979 -0.3712 -0.0702
24457SOL    HW275111   2.365   6.008   6.926  2.5272  2.9856 -0.2726
24458SOL     OW75112   0.612   3.150   0.676 -0.2128 -0.3559 -0.1257
24458SOL    HW175113   0.596   3.240   0.705  1.7926 -0.4879  1.6709
24458SOL    HW275114   0.610   3.099   0.757  0.4627 -1.6190 -0.8849
24459SOL     OW75115   0.167   5.578   5.474  0.3982  0.0160  0.3458
24459SOL    HW175116   0.098   5.613   5.418 -0.7202 -0.9663  1.0415
24459SOL    HW275117   0.156   5.483   5.469  3.0665 -0.3042 -1.1509
24460SOL     OW75118   5.582   6.067   8.767 -0.2631 -0.0162 -0.5118
24460SOL    HW175119   5.539   5.984   8.747  0.9241 -0.4304 -1.4846
24460SOL    HW275120   5.533   6.102   8.842 -1.7997 -0.7955 -1.1111
24461SOL     OW75121   2.247   7.653   0.011  0.0516  0.0095 -0.1523
24461SOL    HW175122   2.201   7.580   0.052 -2.3661  1.6943  0.3153
24461SOL    HW275123   2.337   7.644   0.040 -0.5226 -1.8472  1.2274
24462SOL     OW75124   7.483   5.835   7.913  0.0141  0.0921  0.1315
24462SOL    HW175125   7.410   5.882   7.953 -0.7418 -1.0376  0.1460
24462SOL    HW275126   7.514   5.775   7.981 -0.2213 -0.6959 -0.4322
24463SOL     OW75127   8.272   0.808   0.674  0.3570 -0.0526  0.3407
24463SOL    HW175128   8.302   0.812   0.583  0.6634  0.7604  0.4732
24463SOL    HW275129   8.210   0.880   0.682  0.6226  0.1216  0.8785
24464SOL     OW75130   3.470   4.033   0.936  0.9335 -0.6532 -0.0018
24464SOL    HW175131   3.467   4.085   0.855  1.1422  0.6642  0.8034
24464SOL    HW275132   3.463   4.098   1.006 -0.1304 -1.8269  1.0425
24465SOL     OW75133   7.537   9.278   6.654 -0.0433 -0.4377  0.5333
24465SOL    HW175134   7.582   9.208   6.606  0.4149  0.0991  0.1668
24465SOL    HW275135   7.542   9.251   6.746 -1.7523 -1.9502  0.2321
24466SOL     OW75136   7.181   1.316   4.757 -0.1419  0.1915 -0.5798
24466SOL    HW175137   7.228   1.323   4.674 -1.5344  1.3956 -1.3196
24466SOL    HW275138   7.207   1.394   4.806 -0.7098  0.4304 -0.6506
24467SOL     OW75139   9.106   0.966   1.591 -0.7533 -0.0815  0.6577
24467SOL    HW175140   9.079   0.962   1.500  0.1203 -0.3392  0.3996
24467SOL    HW275141   9.165   0.891   1.602 -0.7801 -0.0032  1.4103
24468SOL     OW75142   2.065   7.893   4.177 -0.1723 -0.6845 -0.0336
24468SOL    HW175143   2.118   7.916   4.253  1.8360 -3.2944 -0.5049
24468SOL    HW275144   1.981   7.866   4.214 -0.3316  0.9981  0.9515
24469SOL     OW75145   1.183   9.395   6.443 -0.3556 -0.0392  0.2377
24469SOL    HW175146   1.098   9.355   6.425  0.0425 -2.5849  3.1344
24469SOL    HW275147   1.162   9.482   6.478 -1.7747 -0.7240  1.1465
24470SOL     OW75148   2.249   1.224   4.611 -0.1537  0.1472  0.6520
24470SOL    HW175149   2.197   1.303   4.596  1.5813  1.3417  0.6172
24470SOL    HW275150   2.340   1.255   4.615  0.6123 -1.8876  0.3701
24471SOL     OW75151   5.177   2.233   5.906  0.1711 -0.2923  0.0885
24471SOL    HW175152   5.157   2.247   5.999 -1.0155 -0.9607 -0.0499
24471SOL    HW275153   5.099   2.263   5.860  0.4633 -0.6397 -0.6512
24472SOL     OW75154   0.350   7.909   8.057 -0.5319  0.0461  0.0876
24472SOL    HW175155   0.257   7.930   8.042 -1.2416 -1.9650  1.2747
24472SOL    HW275156   0.366   7.936   8.148  0.1253  0.6050 -0.1890
24473SOL     OW75157   7.260   8.976   5.795  0.1772  0.2927  0.3523
24473SOL    HW175158   7.315   8.995   5.719 -1.0442 -0.1013 -0.6725
24473SOL    HW275159   7.314   8.998   5.871  1.1061  1.5981 -0.6489
24474SOL     OW75160   4.168   0.896   6.831  0.2590 -0.8080  0.6875
24474SOL    HW175161   4.185   0.829   6.896 -0.6652 -0.0662  1.7314
24474SOL    HW275162   4.211   0.974   6.866  0.8248 -0.6993 -0.2201
24475SOL     OW75163   9.074   5.948   2.399 -0.2663 -0.1940  0.3595
24475SOL    HW175164   9.132   6.015   2.364 -1.7719  0.5135 -0.8703
24475SOL    HW275165   9.092   5.870   2.346 -0.2907 -0.0329  0.1130
24476SOL     OW75166   5.331   1.719   3.683  0.2241 -0.2687 -0.3471
24476SOL    HW175167   5.256   1.762   3.725  0.4161  0.4424 -0.7208
24476SOL    HW275168   5.407   1.748   3.733  0.5884  1.4847 -1.8154
24477SOL     OW75169   1.690   3.638   1.859 -0.3429 -0.2746 -0.5263
24477SOL    HW175170   1.687   3.559   1.914 -1.0956 -0.9427 -1.4690
24477SOL    HW275171   1.631   3.700   1.903 -1.3388 -0.9829 -0.8171
24478SOL     OW75172   4.682   6.248   1.957 -0.3539  0.0011 -0.4572
24478SOL    HW175173   4.640   6.305   2.021 -0.2688 -0.8865  0.4062
24478SOL    HW275174   4.714   6.174   2.008 -0.8104 -1.0231 -1.6161
24479SOL     OW75175   9.200   8.471   6.347 -0.0291 -0.3134  0.1656
24479SOL    HW175176   9.131   8.466   6.414 -2.5591 -2.4824 -2.3345
24479SOL    HW275177   9.277   8.435   6.390 -0.9006  0.4920  2.5702
24480SOL     OW75178   8.669   1.001   4.643  0.1757  0.3777 -0.0485
24480SOL    HW175179   8.660   0.908   4.666 -0.3086  0.5275  0.3822
24480SOL    HW275180   8.719   1.001   4.561  0.1424 -0.2634 -0.0713
24481SOL     OW75181   1.666   5.090   0.116  0.1196 -0.7535  0.7008
24481SOL    HW175182   1.752   5.096   0.074  0.1427 -2.0120  0.5181
24481SOL    HW275183   1.605   5.126   0.053  0.4478 -0.3676  0.6030
24482SOL     OW75184   7.042   5.445   4.427  0.4738 -0.1567 -0.5555
24482SOL    HW175185   7.094   5.393   4.366  0.4124  0.1217 -0.8468
24482SOL    HW275186   7.027   5.387   4.501 -0.6107 -0.9778 -1.3821
24483SOL     OW75187   6.959   5.857   5.563 -0.0690 -0.4988  0.4258
24483SOL    HW175188   6.941   5.767   5.536 -0.6352 -0.6985  1.4213
24483SOL    HW275189   7.006   5.849   5.646  0.9172  0.1153 -0.0568
24484SOL     OW75190   2.575   3.194   6.451  0.0581  0.2943 -0.0702
24484SOL    HW175191   2.565   3.102   6.426  0.5569 -0.3573  1.8884
24484SOL    HW275192   2.651   3.224   6.401  0.6501 -0.7439  0.1645
24485SOL     OW75193   3.746   6.784   4.181  0.0899  0.5026  0.2716
24485SOL    HW175194   3.726   6.772   4.088  0.2529  0.4041  0.2485
24485SOL    HW275195   3.740   6.697   4.218  3.1200 -0.0251 -0.2598
24486SOL     OW75196   4.609   2.922   6.611  0.1527  0.3790  0.1600
24486SOL    HW175197   4.540   2.884   6.556  0.0526  0.7662  0.0136
24486SOL    HW275198   4.569   3.002   6.647  0.4182  0.4359  0.3275
24487SOL     OW75199   7.793   2.347   5.681 -0.0217  0.1464  0.1368
24487SOL    HW175200   7.780   2.270   5.737 -0.4555  0.4056  0.3994
24487SOL    HW275201   7.852   2.403   5.732 -0.6434  0.5102  0.4672
24488SOL     OW75202   4.517   7.730   6.082  0.2017  0.1795  0.2289
24488SOL    HW175203   4.518   7.663   6.014 -0.9621  0.4814 -0.1143
24488SOL    HW275204   4.607   7.735   6.112 -0.0899 -3.4648  2.2133
24489SOL     OW75205   2.893   7.432   9.550 -0.5070 -0.4161  0.1962
24489SOL    HW175206   2.966   7.371   9.540 -0.2823 -0.1998  0.4735
24489SOL    HW275207   2.849   7.404   9.630  0.0969  0.2855  0.7902
24490SOL     OW75208   9.537   0.589   5.901 -0.8661 -0.0658  0.0243
24490SOL    HW175209   9.555   0.641   5.979  0.7349  0.0679 -0.3817
24490SOL    HW275210   9.608   0.524   5.899 -1.7722 -1.0621 -0.4784
24491SOL     OW75211   2.707   3.671   2.847 -0.0167 -0.0339  0.0514
24491SOL    HW175212   2.695   3.758   2.886  0.4213  0.7202 -1.4406
24491SOL    HW275213   2.697   3.685   2.753 -0.2773 -1.6733 -0.1850
24492SOL     OW75214   8.570   5.531   4.760  0.6656  0.4060 -0.0491
24492SOL    HW175215   8.563   5.607   4.703  2.4561  0.8981  0.3601
24492SOL    HW275216   8.655   5.538   4.801  0.0190 -0.7257  1.5974
24493SOL     OW75217   9.290   5.216   5.753 -0.8095  0.4154  0.1288
24493SOL    HW175218   9.290   5.261   5.837 -2.0188  1.6252 -0.4719
24493SOL    HW275219   9.202   5.177   5.746 -1.1788  1.3943 -1.0860
24494SOL     OW75220   4.649   6.380   1.452 -0.1417  0.3882 -0.2344
24494SOL    HW175221   4.671   6.332   1.532 -0.7333  0.9116  0.2521
24494SOL    HW275222   4.684   6.468   1.466  1.5688 -0.0483 -1.4144
24495SOL     OW75223   6.146   3.686   2.587  0.1943  0.4384 -0.4268
24495SOL    HW175224   6.095   3.623   2.638  1.0120 -0.8112 -1.0986
24495SOL    HW275225   6.213   3.717   2.648  0.1687  0.1833 -0.2655
24496SOL     OW75226   1.139   8.389   5.914  0.7417 -0.4835 -0.4383
24496SOL    HW175227   1.067   8.341   5.955 -0.9447  0.5691 -1.9784
24496SOL    HW275228   1.191   8.323   5.870 -1.9813 -0.9912 -3.2163
24497SOL     OW75229   1.055   1.570   8.235 -0.1044 -0.2527 -0.5322
24497SOL    HW175230   0.968   1.573   8.195 -0.6378 -0.9314  0.5368
24497SOL    HW275231   1.062   1.652   8.283  0.4939  0.5151 -1.8723
24498SOL     OW75232   8.025   0.863   5.952  0.4473 -0.1079  0.0220
24498SOL    HW175233   8.114   0.874   5.918  0.1315 -1.7010 -1.4179
24498SOL    HW275234   7.968   0.898   5.883 -0.1771 -2.9671 -1.0466
24499SOL     OW75235   7.176   3.857   6.410 -0.4082 -0.6663 -0.6240
24499SOL    HW175236   7.254   3.892   6.454  0.1276 -0.2198 -1.8882
24499SOL    HW275237   7.103   3.885   6.466  0.1876  0.5812 -0.4349
24500SOL     OW75238   8.615   1.467   1.964 -0.8047  0.1250 -0.4389
24500SOL    HW175239   8.526   1.440   1.984  0.1155 -1.6831  1.6253
24500SOL    HW275240   8.630   1.436   1.874 -2.1800  0.3735 -0.7803
24501SOL     OW75241   4.415   2.636   7.752 -0.3677 -0.5999 -0.4172
24501SOL    HW175242   4.412   2.578   7.828 -0.4600  1.7742  1.4797
24501SOL    HW275243   4.324   2.649   7.727 -0.4454 -0.0583  0.1368
24502SOL     OW75244   1.591   3.025   6.754 -0.3542 -0.2618 -0.4719
24502SOL    HW175245   1.625   3.092   6.694 -0.4663  0.6839  0.4750
24502SOL    HW275246   1.496   3.027   6.743 -0.2396 -3.2586 -3.4860
24503SOL     OW75247   7.396   5.516   2.816  0.4369  0.2711 -0.1033
24503SOL    HW175248   7.374   5.425   2.797  1.5534  0.0539 -0.4383
24503SOL    HW275249   7.320   5.550   2.864  0.6859 -1.3249  1.5419
24504SOL     OW75250   7.567   5.257   6.170  0.1002 -0.0034  0.4570
24504SOL    HW175251   7.641   5.295   6.123  1.4245 -3.0315 -0.1231
24504SOL    HW275252   7.595   5.256   6.262 -0.3798  1.2598  0.6402
24505SOL     OW75253   8.154   1.500   4.853 -0.1914  0.2686  0.0097
24505SOL    HW175254   8.099   1.577   4.866  0.5844  0.7866  0.2785
24505SOL    HW275255   8.111   1.431   4.903 -1.1246  0.4077 -0.5821
24506SOL     OW75256   7.014   4.899   8.746 -0.3055 -0.0105 -0.5506
24506SOL    HW175257   6.991   4.811   8.714 -0.8993 -1.0185  2.3322
24506SOL    HW275258   7.108   4.894   8.764 -0.6303 -0.6871  1.1811
24507SOL     OW75259   6.280   6.925   3.757  0.2309 -0.1749  0.1883
24507SOL    HW175260   6.227   6.950   3.681 -0.0347 -1.2457  0.0090
24507SOL    HW275261   6.287   7.006   3.809 -0.2248  0.3743 -0.5892
24508SOL     OW75262   1.225   5.161   4.022 -0.1218  0.1946 -0.0103
24508SOL    HW175263   1.167   5.125   4.089 -0.5647  0.3248 -0.3202
24508SOL    HW275264   1.311   5.126   4.043 -0.2841  0.1280  0.5500
24509SOL     OW75265   5.277   5.568   8.111  0.0270  0.1788  0.2123
24509SOL    HW175266   5.314   5.495   8.061  0.2852 -0.8524  1.8346
24509SOL    HW275267   5.189   5.538   8.136 -0.7217  1.3339 -0.9451
24510SOL     OW75268   1.251   2.387   0.247  0.3294 -0.4471 -0.2997
24510SOL    HW175269   1.262   2.351   0.335  0.2077 -1.8495 -0.8342
24510SOL    HW275270   1.239   2.481   0.261 -0.0002 -0.6860  1.1977
24511SOL     OW75271   5.237   0.090   1.514 -0.8908  0.7387 -0.0620
24511SOL    HW175272   5.247   0.061   1.423  1.0023  1.9801 -0.2940
24511SOL    HW275273   5.303   0.040   1.562 -0.6316  1.4299  0.3048
24512SOL     OW75274   5.607   2.737   6.509 -0.0461 -0.4617 -0.2463
24512SOL    HW175275   5.629   2.762   6.419  2.5495  1.2820  0.7360
24512SOL    HW275276   5.590   2.643   6.504  0.4151 -0.4982 -2.4804
24513SOL     OW75277   5.387   4.126   5.042 -0.1244  0.1321 -0.3324
24513SOL    HW175278   5.398   4.104   4.950  0.6886 -1.2238  0.0688
24513SOL    HW275279   5.444   4.065   5.089 -1.9249 -0.4762  1.1872
24514SOL     OW75280   0.385   1.335   3.736 -0.3260 -0.0057  0.4055
24514SOL    HW175281   0.367   1.248   3.701  1.9671  0.7115 -2.9996
24514SOL    HW275282   0.310   1.388   3.708 -0.5907 -0.3863  0.3903
24515SOL     OW75283   3.886   3.397   3.437  0.5644 -0.3458 -0.7074
24515SOL    HW175284   3.932   3.479   3.423  0.0088 -0.1673 -1.5737
24515SOL    HW275285   3.915   3.367   3.523  0.1835  1.1490 -0.0345
24516SOL     OW75286   6.205   4.379   8.258  0.5643  0.4961  0.6007
24516SOL    HW175287   6.171   4.290   8.264  0.2511  0.5363 -0.4930
24516SOL    HW275288   6.127   4.434   8.257  0.5935  0.5884 -1.9755
24517SOL     OW75289   8.211   8.685   4.685  0.1942 -0.0776  0.1351
24517SOL    HW175290   8.300   8.651   4.675 -0.1694 -0.7497 -1.0093
24517SOL    HW275291   8.219   8.752   4.753  1.6607  0.1898 -0.2498
24518SOL     OW75292   1.259   3.521   8.960 -0.1260  0.5644  0.0860
24518SOL    HW175293   1.167   3.510   8.980 -0.7165  1.3265 -1.9768
24518SOL    HW275294   1.304   3.497   9.041 -1.9415 -2.4410  0.3618
24519SOL     OW75295   2.662   9.130   2.794 -0.1314 -0.1521 -0.0391
24519SOL    HW175296   2.571   9.102   2.801 -0.5895  1.4534  0.8945
24519SOL    HW275297   2.661   9.199   2.727  0.5461 -0.6886 -0.6138
24520SOL     OW75298   7.667   6.018   2.271  0.0994 -0.4993 -0.1159
24520SOL    HW175299   7.642   5.926   2.263  0.6948 -0.5562 -1.6729
24520SOL    HW275300   7.585   6.066   2.270 -0.2839 -1.0464  1.7592
24521SOL     OW75301   1.365   9.275   7.519 -0.2850  0.0072  0.1100
24521SOL    HW175302   1.402   9.324   7.446 -0.1168 -1.0608 -0.5503
24521SOL    HW275303   1.287   9.233   7.483 -0.3195 -0.3588  0.5939
24522SOL     OW75304   5.889   7.011   2.925 -0.1256  0.2321 -0.3590
24522SOL    HW175305   5.816   6.949   2.923  0.6205 -0.8541  2.2158
24522SOL    HW275306   5.950   6.979   2.858 -0.2333 -1.2011  0.1989
24523SOL     OW75307   6.301   4.386   3.681 -0.7145  0.4101  0.2425
24523SOL    HW175308   6.340   4.315   3.733 -0.0590 -0.2965 -1.1485
24523SOL    HW275309   6.217   4.351   3.651 -0.8907  0.6417  0.4668
24524SOL     OW75310   7.164   0.255   4.333  0.5212  0.0242  0.2851
24524SOL    HW175311   7.132   0.166   4.348  0.9266 -0.2782 -0.6062
24524SOL    HW275312   7.093   0.298   4.285  1.8042 -1.0037 -2.7836
24525SOL     OW75313   0.522   4.022   1.388  0.0904 -0.1374 -0.2504
24525SOL    HW175314   0.594   4.019   1.452 -0.6910  0.4962  0.6885
24525SOL    HW275315   0.561   4.061   1.310  0.4980  1.2933  0.6386
24526SOL     OW75316   2.843   5.905   5.664  0.5393  0.7093  0.0385
24526SOL    HW175317   2.825   5.812   5.670 -1.4670  0.9569 -1.1968
24526SOL    HW275318   2.800   5.933   5.583  1.5305  2.6226  0.1014
24527SOL     OW75319   3.739   2.104   6.328 -0.7302  0.4343 -0.0992
24527SOL    HW175320   3.735   2.008   6.327  0.9137  0.3405 -0.2770
24527SOL    HW275321   3.750   2.127   6.420 -2.3532  0.5417  0.0876
24528SOL     OW75322   7.879   9.172   4.007  0.0976  0.1267  0.1102
24528SOL    HW175323   7.897   9.233   3.936 -1.1665  0.7432  0.2897
24528SOL    HW275324   7.924   9.209   4.083  0.1132  0.3391 -0.0018
24529SOL     OW75325   2.546   3.586   4.113 -0.6806 -0.3732  0.5923
24529SOL    HW175326   2.481   3.639   4.068  0.1859  1.0621  0.9529
24529SOL    HW275327   2.590   3.537   4.043 -0.5001  0.5359  0.0473
24530SOL     OW75328   3.455   6.661   2.189  0.6974 -0.5978 -0.1657
24530SOL    HW175329   3.360   6.671   2.187  0.7821  1.2276  1.7898
24530SOL    HW275330   3.471   6.596   2.257  0.8852 -0.6725 -0.2794
24531SOL     OW75331   8.653   1.022   0.847 -0.2098 -0.5973  0.5782
24531SOL    HW175332   8.729   0.981   0.888 -1.1337 -2.3066  0.6568
24531SOL    HW275333   8.684   1.109   0.822  1.9584 -1.4333  0.0613
24532SOL     OW75334   1.005   4.543   3.604 -0.6124 -0.3923  0.4183
24532SOL    HW175335   1.053   4.551   3.686 -0.2933  0.7280  0.1446
24532SOL    HW275336   1.042   4.466   3.561 -0.3331 -0.5994  1.0265
24533SOL     OW75337   6.418   8.742   0.332  0.2101 -0.3942  0.1288
24533SOL    HW175338   6.454   8.705   0.251 -0.1083  0.7738 -0.5587
24533SOL    HW275339   6.492   8.788   0.372  0.0131  0.2036 -0.1994
24534SOL     OW75340   5.005   8.997   7.566  0.0955 -0.4477 -0.2216
24534SOL    HW175341   5.004   8.934   7.638 -0.6807 -0.0167  0.1530
24534SOL    HW275342   4.959   9.073   7.599  2.3778  0.9873 -0.1133
24535SOL     OW75343   1.371   8.857   9.446 -0.6445  0.0053  0.2644
24535SOL    HW175344   1.455   8.840   9.403 -0.9663 -0.4308 -0.2107
24535SOL    HW275345   1.317   8.897   9.377 -0.4548  1.3899  0.8894
24536SOL     OW75346   7.243   1.445   3.344  0.5444 -0.7920  0.1883
24536SOL    HW175347   7.207   1.381   3.282 -1.2082  0.6326 -0.3657
24536SOL    HW275348   7.314   1.488   3.295 -1.9918  1.6080 -1.7113
24537SOL     OW75349   3.885   7.330   5.358  0.2759  0.0979 -0.1391
24537SOL    HW175350   3.860   7.252   5.408 -1.1158 -1.0795 -2.4824
24537SOL    HW275351   3.920   7.390   5.423  0.2063 -1.9829  1.9620
24538SOL     OW75352   6.913   1.620   0.779  0.0623  0.6860  0.1620
24538SOL    HW175353   6.902   1.715   0.779  0.0782  0.6963 -0.5268
24538SOL    HW275354   6.847   1.589   0.717  0.6941  0.3344 -0.3515
24539SOL     OW75355   2.605   1.906   9.537  0.8314  0.2379  0.1598
24539SOL    HW175356   2.643   1.992   9.553 -0.0077  0.6095  0.2216
24539SOL    HW275357   2.537   1.898   9.604  2.1743 -1.3007  1.4255
24540SOL     OW75358   5.111   7.817   1.475 -0.2523  0.1220 -0.2315
24540SOL    HW175359   5.059   7.737   1.477 -1.3796  0.8394  0.5980
24540SOL    HW275360   5.061   7.877   1.420  0.1248  0.5490 -0.1199
24541SOL     OW75361   8.210   7.066   2.361  0.1254  0.1571 -0.1224
24541SOL    HW175362   8.184   7.034   2.274  2.3730 -0.7694 -0.5193
24541SOL    HW275363   8.247   7.152   2.345  0.1292  0.1760 -0.0118
24542SOL     OW75364   1.944   5.228   8.610 -0.3882  0.1642 -0.3611
24542SOL    HW175365   1.909   5.293   8.671  2.8452  1.2749  0.4699
24542SOL    HW275366   1.937   5.270   8.524 -0.0878  0.8115 -0.0742
24543SOL     OW75367   5.607   6.234   4.508  0.2530  0.2923 -0.8309
24543SOL    HW175368   5.590   6.319   4.467  1.4962  1.0997  0.2498
24543SOL    HW275369   5.693   6.208   4.476  0.4148  0.0318 -0.2000
24544SOL     OW75370   4.969   1.423   5.163  0.8163  0.0669 -0.3737
24544SOL    HW175371   4.884   1.440   5.123  0.5198 -1.3562 -0.4217
24544SOL    HW275372   4.989   1.502   5.213  0.3670  1.1775 -1.8933
24545SOL     OW75373   0.869   2.453   1.250  0.3904 -0.8089  0.0957
24545SOL    HW175374   0.820   2.476   1.171  2.9857  2.1441 -0.8432
24545SOL    HW275375   0.867   2.358   1.252 -0.2820 -0.9962 -3.2217
24546SOL     OW75376   8.667   1.163   8.325  0.1948  0.2281  0.1890
24546SOL    HW175377   8.620   1.110   8.389  2.1290 -0.4773  1.1054
24546SOL    HW275378   8.671   1.250   8.364  1.1489 -0.1396  0.9511
24547SOL     OW75379   6.429   6.172   4.893  0.8195  0.5758  0.8664
24547SOL    HW175380   6.413   6.266   4.884  1.3388  0.8307  2.3926
24547SOL    HW275381   6.447   6.159   4.986  0.8299 -1.0320  0.6693
24548SOL     OW75382   3.978   6.272   1.896 -0.2183  0.4675  0.0260
24548SOL    HW175383   3.929   6.190   1.905 -1.2668  0.9034 -1.4248
24548SOL    HW275384   4.047   6.252   1.834 -0.8835  0.8322 -0.8536
24549SOL     OW75385   3.083   7.361   5.438  0.4472  0.2046  0.0913
24549SOL    HW175386   3.139   7.296   5.481  1.1959  1.8738  1.8428
24549SOL    HW275387   2.997   7.320   5.435  1.2114 -1.4754 -0.3873
24550SOL     OW75388   4.345   5.768   1.599 -0.1296 -0.1520 -0.6776
24550SOL    HW175389   4.257   5.805   1.604  0.0972  0.2855  0.2419
24550SOL    HW275390   4.376   5.792   1.512 -1.0014 -0.5143 -1.1028
24551SOL     OW75391   0.529   3.832   7.500  0.5611 -1.2810  0.3372
24551SOL    HW175392   0.553   3.924   7.485 -0.2491 -0.7606  2.0050
24551SOL    HW275393   0.500   3.801   7.415  1.2573 -0.1244 -0.3558
24552SOL     OW75394   8.970   1.899   1.074  0.2064 -0.4250 -0.2062
24552SOL    HW175395   9.060   1.923   1.095  0.9755 -1.9786 -1.5545
24552SOL    HW275396   8.927   1.888   1.160  1.6806 -1.0367  0.4800
24553SOL     OW75397   8.005   5.012   4.651 -0.7844  0.5346 -0.0912
24553SOL    HW175398   8.022   4.964   4.732 -1.2747  1.2150  0.4318
24553SOL    HW275399   7.973   5.098   4.680 -2.5296  0.2361 -0.9883
24554SOL     OW75400   8.902   0.798   6.477  0.3068  0.0726  0.7333
24554SOL    HW175401   8.870   0.807   6.387 -0.2541 -0.8782  0.8247
24554SOL    HW275402   8.963   0.871   6.488  2.0781 -1.0057 -1.1381
24555SOL     OW75403   6.970   3.400   5.082 -0.0057 -0.1841  0.0832
24555SOL    HW175404   7.059   3.396   5.116  0.7892  1.8162 -1.5424
24555SOL    HW275405   6.932   3.478   5.122 -1.2367 -1.2726  1.1231
24556SOL     OW75406   6.688   1.546   0.686  0.4560 -0.1734 -0.1226
24556SOL    HW175407   6.622   1.586   0.630  1.8135  0.4350 -1.3577
24556SOL    HW275408   6.656   1.561   0.775 -1.1059 -0.0015 -0.6803
24557SOL     OW75409   3.327   9.074   0.330 -0.0382 -0.3971  0.4415
24557SOL    HW175410   3.350   9.014   0.401  0.8667  0.4598  0.9052
24557SOL    HW275411   3.385   9.050   0.258  0.9346  0.4488  0.9190
24558SOL     OW75412   4.640   5.686   6.911  0.6865  0.1003 -0.2065
24558SOL    HW175413   4.714   5.741   6.935  2.3588 -2.2476  0.3544
24558SOL    HW275414   4.608   5.650   6.994  1.3794 -1.8392 -0.7294
24559SOL     OW75415   5.094   5.723   9.139  0.0555  0.3877 -0.0961
24559SOL    HW175416   5.014   5.717   9.192  1.1816 -0.9792  1.5607
24559SOL    HW275417   5.165   5.728   9.203  1.4826 -1.1224 -1.4512
24560SOL     OW75418   5.277   2.720   0.809 -0.2694 -0.4357  0.0865
24560SOL    HW175419   5.343   2.665   0.767 -1.4057 -0.7832 -1.3249
24560SOL    HW275420   5.249   2.670   0.885  0.2028 -0.8465 -0.0043
24561SOL     OW75421   3.045   5.370   9.038 -0.5782  0.0890  0.2407
24561SOL    HW175422   3.117   5.338   8.983  0.9821 -0.2415  2.3408
24561SOL    HW275423   2.986   5.413   8.977  1.3761  0.3547 -1.6096
24562SOL     OW75424   8.946   4.742   7.148 -0.1240 -0.2268 -0.2043
24562SOL    HW175425   8.945   4.829   7.107 -0.0001 -0.2707 -0.2993
24562SOL    HW275426   9.025   4.700   7.115 -0.6234 -0.6998 -0.8176
24563SOL     OW75427   6.502   6.616   0.326 -0.0627  0.3523 -0.0293
24563SOL    HW175428   6.472   6.676   0.394 -1.8880  0.2680 -0.7091
24563SOL    HW275429   6.441   6.629   0.253  0.7424 -0.8589 -0.9650
24564SOL     OW75430   1.584   4.340   4.406 -0.0192 -0.1333  0.1396
24564SOL    HW175431   1.573   4.329   4.500  0.1842  1.1332  0.3202
24564SOL    HW275432   1.671   4.303   4.388 -0.2098 -0.7147  0.3727
24565SOL     OW75433   8.168   9.062   4.358 -0.8149 -0.3941 -0.6707
24565SOL    HW175434   8.221   8.982   4.356  0.3524  0.1616  2.3135
24565SOL    HW275435   8.105   9.047   4.429 -1.0235  1.0698 -0.5154
24566SOL     OW75436   3.683   9.156   0.154 -0.4361  0.5281  0.1394
24566SOL    HW175437   3.776   9.156   0.174 -0.4928 -0.1393  0.4282
24566SOL    HW275438   3.644   9.212   0.221 -0.4466 -0.5441  1.0551
24567SOL     OW75439   6.702   5.835   8.568 -0.4111 -0.2776  0.0707
24567SOL    HW175440   6.790   5.799   8.578 -0.6081 -0.9138 -0.4184
24567SOL    HW275441   6.645   5.758   8.571 -1.0004  0.1720  0.8969
24568SOL     OW75442   8.921   8.726   1.616 -0.0430  0.1428 -0.3373
24568SOL    HW175443   8.982   8.728   1.690 -1.9528 -0.5636  1.3736
24568SOL    HW275444   8.834   8.722   1.657 -1.1615 -1.4246 -2.6361
24569SOL     OW75445   5.000   7.307   7.665  0.3564 -0.0159  0.1757
24569SOL    HW175446   4.911   7.274   7.662  0.2696  0.2230  0.0623
24569SOL    HW275447   5.052   7.241   7.620  0.3796 -0.6001  1.0439
24570SOL     OW75448   0.154   0.178   1.400  0.3299 -0.1982 -0.1335
24570SOL    HW175449   0.086   0.204   1.462  0.0511 -0.3915 -0.3534
24570SOL    HW275450   0.149   0.243   1.330 -0.7328 -1.1124 -0.9507
24571SOL     OW75451   7.416   9.519   1.898  0.4659 -0.3494  0.6816
24571SOL    HW175452   7.472   9.445   1.922  1.5834  0.2577  0.0381
24571SOL    HW275453   7.356   9.484   1.832  0.2369 -0.9418  1.1923
24572SOL     OW75454   2.593   1.238   1.427  0.4817  0.1612  0.0159
24572SOL    HW175455   2.518   1.180   1.438  0.3540 -0.1707 -2.2500
24572SOL    HW275456   2.669   1.182   1.446  0.2941 -0.3560 -0.7457
24573SOL     OW75457   2.273   4.354   8.725  0.8233  0.3198  0.5498
24573SOL    HW175458   2.221   4.406   8.787  0.1380  0.0825  0.1910
24573SOL    HW275459   2.346   4.411   8.702  0.3993  0.9063  0.6129
24574SOL     OW75460   6.309   1.999   5.601  0.8588  0.2099  0.3926
24574SOL    HW175461   6.313   1.920   5.654 -1.1261  1.2550  2.2777
24574SOL    HW275462   6.320   2.071   5.664  0.2271  1.4794 -0.8776
24575SOL     OW75463   5.428   0.278   7.701 -0.1875 -0.3822  0.5016
24575SOL    HW175464   5.472   0.236   7.626  0.7681  1.3375  0.0534
24575SOL    HW275465   5.337   0.287   7.673  0.3123  0.9428 -0.8176
24576SOL     OW75466   1.234   5.496   5.991 -0.2444 -0.3514 -0.4028
24576SOL    HW175467   1.253   5.447   5.911  1.9742  1.2070 -0.9560
24576SOL    HW275468   1.244   5.433   6.062 -1.8514 -1.6654 -1.2943
24577SOL     OW75469   7.674   2.383   3.909  0.3421  0.4203  0.7541
24577SOL    HW175470   7.758   2.353   3.874 -0.0685 -0.1124  0.1913
24577SOL    HW275471   7.676   2.359   4.001  0.2825 -0.8047  0.4566
24578SOL     OW75472   2.533   9.491   2.574 -0.2571  0.4456 -0.5897
24578SOL    HW175473   2.513   9.397   2.570 -1.2581  0.6942 -2.4279
24578SOL    HW275474   2.559   9.514   2.485  1.9170  1.5427  0.2692
24579SOL     OW75475   2.425   2.661   2.124 -0.2267  0.2176  0.0327
24579SOL    HW175476   2.472   2.628   2.047 -0.3457  0.7341 -0.2692
24579SOL    HW275477   2.362   2.592   2.146 -1.3898  0.7543 -1.3927
24580SOL     OW75478   3.812   6.051   4.891 -0.1177 -0.2871 -0.3008
24580SOL    HW175479   3.894   6.063   4.845  0.8088 -2.1765  0.7444
24580SOL    HW275480   3.795   5.957   4.887 -0.1172 -0.5497  2.8390
24581SOL     OW75481   2.879   2.165   5.354  0.2811  0.7666 -0.2108
24581SOL    HW175482   2.833   2.084   5.380 -1.4591  1.5218 -0.7513
24581SOL    HW275483   2.888   2.214   5.435 -2.3430  1.7561 -0.4153
24582SOL     OW75484   7.819   5.829   9.077 -0.7544 -0.4303  0.7433
24582SOL    HW175485   7.801   5.917   9.046  0.0467 -1.0390 -1.6768
24582SOL    HW275486   7.900   5.838   9.128  0.0698  0.0603 -0.6031
24583SOL     OW75487   3.596   5.416   7.594  0.0080 -0.2986 -0.3480
24583SOL    HW175488   3.645   5.371   7.525  0.5675 -1.0352  0.5149
24583SOL    HW275489   3.625   5.507   7.588  1.1593 -0.6328 -0.1387
24584SOL     OW75490   5.746   4.355   1.671 -0.1227  0.1213  0.0888
24584SOL    HW175491   5.743   4.274   1.621  0.4915  0.4141 -0.4347
24584SOL    HW275492   5.839   4.376   1.677 -0.1562 -0.0246  1.5535
24585SOL     OW75493   0.962   5.664   3.734  0.3490 -0.0518  0.1811
24585SOL    HW175494   0.923   5.598   3.791  2.0053 -0.6749  0.6550
24585SOL    HW275495   0.989   5.615   3.656  0.3885  0.3088 -0.0344
24586SOL     OW75496   1.445   4.721   0.890  0.0460  0.4779 -0.4436
24586SOL    HW175497   1.388   4.777   0.943 -0.8158  0.8598 -1.7287
24586SOL    HW275498   1.394   4.641   0.876  0.6035  0.0379 -0.0176
24587SOL     OW75499   5.589   8.788   7.066  0.2341 -0.6161 -0.1513
24587SOL    HW175500   5.528   8.755   6.999  0.0113  0.8725 -0.7232
24587SOL    HW275501   5.674   8.757   7.037 -0.1542 -2.1981  0.3179
24588SOL     OW75502   3.697   7.175   3.797  0.2756  0.0079  0.2942
24588SOL    HW175503   3.726   7.121   3.723  0.6751  1.5383 -0.7115
24588SOL    HW275504   3.662   7.254   3.757 -2.7068 -0.5184  1.6108
24589SOL     OW75505   8.405   4.238   1.216  0.2840 -0.5391  1.0001
24589SOL    HW175506   8.401   4.324   1.257  1.9006 -0.4672  1.1022
24589SOL    HW275507   8.314   4.215   1.197 -0.0933  2.3352 -1.4594
24590SOL     OW75508   0.669   4.069   7.628 -0.1865 -0.4948  0.3026
24590SOL    HW175509   0.726   4.039   7.699 -0.2484 -1.2393  0.0460
24590SOL    HW275510   0.728   4.112   7.567  0.6582 -3.6658 -1.3547
24591SOL     OW75511   6.562   1.105   5.931 -0.2626 -0.3630 -0.0106
24591SOL    HW175512   6.523   1.019   5.921  0.5868 -1.1916  2.8267
24591SOL    HW275513   6.656   1.088   5.941 -0.0316  0.9154  0.1870
24592SOL     OW75514   5.630   1.472   3.238 -0.4324  0.3721 -0.4083
24592SOL    HW175515   5.605   1.381   3.255  3.4123 -0.9769 -0.8111
24592SOL    HW275516   5.661   1.504   3.322  0.3211  0.4766 -0.7145
24593SOL     OW75517   4.408   4.580   5.850 -0.1175 -0.6658  0.5266
24593SOL    HW175518   4.370   4.544   5.931 -2.6709 -1.2756 -0.8392
24593SOL    HW275519   4.382   4.673   5.852  1.9847 -0.0451  1.5419
24594SOL     OW75520   3.818   1.021   5.272  0.8499 -0.0017 -0.0359
24594SOL    HW175521   3.824   0.973   5.355 -0.4602  0.1479  0.1734
24594SOL    HW275522   3.788   1.108   5.298 -2.8297 -0.8698 -0.8509
24595SOL     OW75523   3.380   6.062   9.118 -0.4463  0.5550 -0.3660
24595SOL    HW175524   3.475   6.055   9.105 -0.1864  1.4937  0.8407
24595SOL    HW275525   3.364   6.023   9.203 -0.7406  2.6347  0.6030
24596SOL     OW75526   7.137   4.507   3.142  0.1326 -0.0862 -0.3148
24596SOL    HW175527   7.099   4.419   3.146  0.6836 -0.3218 -0.1626
24596SOL    HW275528   7.215   4.497   3.088  0.4392  0.2196  0.0665
24597SOL     OW75529   1.988   6.190   0.857 -0.3041  0.3823  0.2414
24597SOL    HW175530   2.051   6.172   0.927  1.2835  1.4159 -0.8773
24597SOL    HW275531   1.990   6.285   0.847  1.0565  0.1406 -2.5545
24598SOL     OW75532   7.191   7.222   3.045  0.6052 -0.3508  0.4315
24598SOL    HW175533   7.207   7.294   2.984 -2.0584 -0.7101 -0.7989
24598SOL    HW275534   7.153   7.264   3.123  1.1815 -0.2151  0.6456
24599SOL     OW75535   7.523   5.123   9.508 -0.4090  0.4155 -0.6523
24599SOL    HW175536   7.468   5.149   9.434 -0.4284  0.7292 -0.5288
24599SOL    HW275537   7.603   5.175   9.498  0.0362 -0.3252 -1.0558
24600SOL     OW75538   7.805   5.837   6.198  0.4077 -0.0976  0.1836
24600SOL    HW175539   7.728   5.788   6.227  0.2840 -0.4004 -0.6512
24600SOL    HW275540   7.847   5.781   6.133 -1.1550  1.8745 -2.7710
24601SOL     OW75541   4.246   4.923   7.176 -0.2909 -0.6515  0.0208
24601SOL    HW175542   4.315   4.971   7.131  0.0070 -1.0424  0.0458
24601SOL    HW275543   4.197   4.879   7.106 -0.2743 -0.6809  0.0272
24602SOL     OW75544   7.675   4.328   1.857  0.3661  0.3072  0.2275
24602SOL    HW175545   7.757   4.331   1.808  0.6373  0.6382  0.6943
24602SOL    HW275546   7.659   4.418   1.884  0.4257  0.0831  1.0698
24603SOL     OW75547   6.693   3.518   3.396  0.2152  0.2644 -0.4062
24603SOL    HW175548   6.694   3.540   3.303 -0.9092  1.2784 -0.2052
24603SOL    HW275549   6.694   3.602   3.441  1.6613 -0.2226  0.5471
24604SOL     OW75550   3.158   1.859   8.625  0.0685 -0.1595 -0.4877
24604SOL    HW175551   3.212   1.888   8.698  0.6146 -2.1546 -0.0645
24604SOL    HW275552   3.068   1.879   8.653  0.4342  2.8823 -1.0702
24605SOL     OW75553   6.023   4.452   7.262  0.5068  0.5836 -0.1291
24605SOL    HW175554   6.060   4.374   7.221  0.3893  0.8328 -0.7121
24605SOL    HW275555   5.929   4.447   7.243  0.6295  1.3374 -0.9534
24606SOL     OW75556   1.352   0.977   6.366 -0.3922 -0.4238  0.0070
24606SOL    HW175557   1.286   1.045   6.353  2.0220  1.8050 -1.6731
24606SOL    HW275558   1.422   1.000   6.304  0.6853 -4.3551 -0.4750
24607SOL     OW75559   1.692   7.992   6.544 -0.3036 -0.5217 -0.5763
24607SOL    HW175560   1.718   7.932   6.614 -0.1271  0.0814 -0.1162
24607SOL    HW275561   1.712   7.944   6.463  1.2957 -0.4956 -0.2342
24608SOL     OW75562   0.785   8.102   1.480 -0.6896  0.0213  0.3293
24608SOL    HW175563   0.742   8.031   1.528  1.0475 -0.2056  1.6465
24608SOL    HW275564   0.801   8.169   1.547  2.0408 -0.4127  0.2127
24609SOL     OW75565   8.360   7.403   8.197 -0.2080  0.3523  0.1037
24609SOL    HW175566   8.325   7.341   8.132 -1.0568  1.3361 -0.4055
24609SOL    HW275567   8.431   7.355   8.239 -1.3483 -1.2650  0.2908
24610SOL     OW75568   3.937   2.872   0.939  0.5655  0.2051  0.5160
24610SOL    HW175569   3.950   2.779   0.924  0.7093  0.0679  1.4179
24610SOL    HW275570   3.951   2.883   1.033  0.1746  1.0707  0.4832
24611SOL     OW75571   0.079   7.985   7.445  0.1317 -0.3612 -0.0583
24611SOL    HW175572   0.087   8.077   7.419  0.4486 -0.3852 -0.0426
24611SOL    HW275573   0.041   7.942   7.369 -0.5423 -0.1198  0.1259
24612SOL     OW75574   6.422   0.809   3.509  0.6482 -0.1593 -0.6602
24612SOL    HW175575   6.402   0.902   3.511 -0.1683 -0.3397 -0.0847
24612SOL    HW275576   6.400   0.782   3.419 -0.4843 -0.0770 -0.4256
24613SOL     OW75577   8.836   0.146   3.667  0.6718  0.5055  0.2287
24613SOL    HW175578   8.788   0.165   3.586  0.8926 -3.7570 -1.1465
24613SOL    HW275579   8.927   0.167   3.646  0.4274  1.6520  0.2512
24614SOL     OW75580   8.122   0.011   9.280  0.0462 -0.2778 -0.0364
24614SOL    HW175581   8.082   0.049   9.202 -2.5320 -0.0108  1.3064
24614SOL    HW275582   8.111   0.077   9.348  0.4990 -1.2460  1.0296
24615SOL     OW75583   2.750   9.590   3.910  0.1116  0.5085 -0.3336
24615SOL    HW175584   2.811   9.566   3.840  1.0491 -0.7500  0.8543
24615SOL    HW275585   2.710   9.507   3.936 -0.4887  1.0121  0.3749
24616SOL     OW75586   6.757   6.605   3.675  0.2962  0.1329  0.3260
24616SOL    HW175587   6.694   6.567   3.614  0.2355  0.7955 -0.0382
24616SOL    HW275588   6.831   6.545   3.675  1.2193  1.1377 -2.0259
24617SOL     OW75589   8.746   2.070   0.307  0.2011 -0.6634 -0.0286
24617SOL    HW175590   8.770   2.080   0.399 -1.0525 -2.3086  0.5115
24617SOL    HW275591   8.714   2.157   0.281  0.1852 -0.2881  1.2055
24618SOL     OW75592   4.909   9.195   0.773 -0.1111 -0.0072 -0.3715
24618SOL    HW175593   4.831   9.188   0.718  0.3938 -3.0299 -0.9122
24618SOL    HW275594   4.980   9.214   0.711 -0.0568  0.1657 -0.2545
24619SOL     OW75595   3.577   0.463   4.583  0.0490 -0.1838  0.0016
24619SOL    HW175596   3.612   0.534   4.529 -0.5511  0.8842  0.9631
24619SOL    HW275597   3.486   0.455   4.554 -0.5507  1.0179  1.4038
24620SOL     OW75598   7.855   1.052   8.410 -0.2572  0.4824  0.0163
24620SOL    HW175599   7.921   1.119   8.388 -1.0017  0.4952 -2.5224
24620SOL    HW275600   7.815   1.084   8.490 -1.4673  3.8819 -1.7218
24621SOL     OW75601   7.246   1.666   6.542  0.0049 -0.4071  0.1705
24621SOL    HW175602   7.186   1.611   6.492  0.0822 -0.7451  0.4523
24621SOL    HW275603   7.225   1.755   6.513 -0.5740 -0.5279  0.1995
24622SOL     OW75604   3.623   8.628   7.588  0.1146 -0.5538 -0.0291
24622SOL    HW175605   3.667   8.713   7.578 -2.2468  0.6886 -0.4934
24622SOL    HW275606   3.586   8.630   7.676 -1.1300 -0.4822 -0.5383
24623SOL     OW75607   2.419   5.297   0.669 -0.5047  0.3455  0.0038
24623SOL    HW175608   2.411   5.392   0.666 -0.4717  0.3629  0.4370
24623SOL    HW275609   2.480   5.281   0.741  0.2420  0.0412 -0.6808
24624SOL     OW75610   4.633   7.157   2.742 -0.4143  0.0972 -0.6807
24624SOL    HW175611   4.671   7.129   2.659 -0.9454 -0.3460 -0.7773
24624SOL    HW275612   4.628   7.077   2.795 -0.6310  0.2662 -0.4428
24625SOL     OW75613   7.578   1.263   8.273 -0.2141  0.0790 -0.3051
24625SOL    HW175614   7.595   1.169   8.280 -1.4613 -0.0648  1.1975
24625SOL    HW275615   7.567   1.278   8.179  1.8535 -0.9006 -0.7851
24626SOL     OW75616   4.736   5.207   8.922  0.5361  0.6064 -0.1444
24626SOL    HW175617   4.691   5.262   8.986 -0.9280  0.7492 -1.2435
24626SOL    HW275618   4.820   5.186   8.963 -0.2492  0.8892  1.7100
24627SOL     OW75619   5.250   1.087   2.366  0.1273  0.2343  0.6420
24627SOL    HW175620   5.284   0.998   2.378  0.6569  0.4856  1.0479
24627SOL    HW275621   5.315   1.130   2.310 -0.8522 -0.0481 -0.7732
24628SOL     OW75622   7.292   2.296   7.901 -0.0855  0.5906  0.2383
24628SOL    HW175623   7.374   2.255   7.927 -0.3760  0.8640  1.6738
24628SOL    HW275624   7.228   2.267   7.967 -0.7179  1.8141  0.1951
24629SOL     OW75625   2.776   9.564   5.801  0.7176 -1.0881 -0.4243
24629SOL    HW175626   2.716   9.620   5.752 -1.1574 -1.1693  1.5828
24629SOL    HW275627   2.840   9.624   5.838  0.1901 -0.5863 -0.3039
24630SOL     OW75628   4.824   2.802   3.317 -0.5355 -0.2644  0.2199
24630SOL    HW175629   4.743   2.835   3.356 -0.0527 -0.1156  1.1033
24630SOL    HW275630   4.893   2.824   3.380  0.4208  0.8933 -1.1422
24631SOL     OW75631   6.206   5.755   3.762  0.3223  0.1584  0.8825
24631SOL    HW175632   6.192   5.661   3.758 -0.4256  0.2629  0.8103
24631SOL    HW275633   6.283   5.771   3.706 -1.5584 -0.0492 -1.9825
24632SOL     OW75634   1.147   1.805   8.954  0.1501  0.1853 -0.5242
24632SOL    HW175635   1.182   1.755   9.029 -0.5347  0.8737  0.2798
24632SOL    HW275636   1.225   1.839   8.910  0.6156 -1.2567 -0.8723
24633SOL     OW75637   2.044   0.557   5.063  0.6108 -0.2831  0.1044
24633SOL    HW175638   2.092   0.589   5.140 -0.0249 -1.7179  1.1486
24633SOL    HW275639   1.966   0.613   5.059  0.4222 -0.4879  0.7836
24634SOL     OW75640   5.409   5.935   0.949  0.3928 -0.0550 -0.1337
24634SOL    HW175641   5.379   5.844   0.959  0.1035  0.1287  0.7574
24634SOL    HW275642   5.330   5.987   0.961  0.6563  0.3350 -0.0806
24635SOL     OW75643   1.737   8.243   0.528  0.2330 -0.3658 -0.7294
24635SOL    HW175644   1.654   8.203   0.555 -0.3710 -0.8097 -3.0446
24635SOL    HW275645   1.799   8.170   0.525  0.6466 -0.1045  0.5690
24636SOL     OW75646   5.656   7.443   5.723 -0.0671 -0.0567  0.5375
24636SOL    HW175647   5.571   7.432   5.680  0.6332 -0.7503 -0.7327
24636SOL    HW275648   5.719   7.448   5.651  1.3391 -2.7555  1.4237
24637SOL     OW75649   3.543   2.134   0.735 -0.2923 -0.4255  0.0667
24637SOL    HW175650   3.471   2.183   0.695 -1.1753 -0.3571  1.6605
24637SOL    HW275651   3.599   2.110   0.661 -1.1409  0.8256 -1.0466
24638SOL     OW75652   4.738   4.286   8.789  0.1044  0.1398 -0.4130
24638SOL    HW175653   4.747   4.381   8.801 -2.5991  0.3671  0.3762
24638SOL    HW275654   4.757   4.249   8.875  0.5442 -0.0127 -0.5704
24639SOL     OW75655   9.494   5.387   6.954  0.4749 -0.1978  0.0651
24639SOL    HW175656   9.413   5.367   7.000  0.6557  0.5995  0.7615
24639SOL    HW275657   9.550   5.310   6.969  0.0220 -0.5390 -0.0037
24640SOL     OW75658   9.337   6.997   2.925 -0.0933  0.1670  0.0055
24640SOL    HW175659   9.392   7.022   3.000 -0.1773 -1.0531  0.4870
24640SOL    HW275660   9.261   6.954   2.964  0.2483 -1.2155 -0.8006
24641SOL     OW75661   9.104   2.250   6.519 -0.1206  0.0315 -0.2528
24641SOL    HW175662   9.140   2.314   6.457 -1.2501  0.1279 -0.8497
24641SOL    HW275663   9.122   2.165   6.479 -1.4188  0.1132 -1.0853
24642SOL     OW75664   7.438   1.564   9.501  0.3513 -0.2225  0.3190
24642SOL    HW175665   7.446   1.471   9.482  1.8450 -0.1200  0.3011
24642SOL    HW275666   7.505   1.605   9.447 -0.8187  0.9617 -0.2793
24643SOL     OW75667   0.067   3.133   1.791 -0.4169  0.1461  0.5083
24643SOL    HW175668  -0.000   3.104   1.852 -0.2668 -1.3316 -0.0048
24643SOL    HW275669   0.030   3.212   1.750 -0.8356  0.6955  1.9069
24644SOL     OW75670   7.282   3.610   0.932 -0.3913 -0.3470  0.3709
24644SOL    HW175671   7.222   3.684   0.942  0.0225 -0.2127  2.4042
24644SOL    HW275672   7.362   3.639   0.976  0.0685 -1.6843  0.4354
24645SOL     OW75673   7.968   1.270   8.311 -0.1672  0.0081  0.0850
24645SOL    HW175674   8.016   1.243   8.233 -2.4591 -2.2206 -0.6802
24645SOL    HW275675   7.910   1.340   8.281  0.1342  0.2969  0.1785
24646SOL     OW75676   0.184   9.041   7.465 -0.1633 -0.1282  0.1759
24646SOL    HW175677   0.104   9.084   7.497 -0.9622 -0.5896 -1.0998
24646SOL    HW275678   0.193   8.963   7.519 -1.8382 -1.2276 -1.0301
24647SOL     OW75679   1.286   8.967   0.771  0.4057  0.1863  0.0758
24647SOL    HW175680   1.297   8.968   0.866  1.7448 -1.0242 -0.0332
24647SOL    HW275681   1.297   8.876   0.747  2.4313  0.7490 -1.4624
24648SOL     OW75682   6.603   3.867   4.203  0.1688  0.3088 -0.1446
24648SOL    HW175683   6.642   3.953   4.193  0.0707  0.4882  0.8581
24648SOL    HW275684   6.510   3.885   4.221  0.4250  0.0913  1.5681
24649SOL     OW75685   2.612   2.023   8.668  0.5907 -0.0258 -0.3448
24649SOL    HW175686   2.595   2.110   8.705  0.9676  0.1666 -0.6083
24649SOL    HW275687   2.600   1.963   8.741  0.0134  0.2164 -0.2354
24650SOL     OW75688   0.617   8.507   1.556  0.0024  0.0305 -0.3638
24650SOL    HW175689   0.545   8.545   1.505 -0.3831 -1.8030 -1.2583
24650SOL    HW275690   0.589   8.516   1.647 -0.5414  0.9278 -0.6113
24651SOL     OW75691   5.796   4.380   3.947 -0.8807 -0.0322  0.4176
24651SOL    HW175692   5.804   4.449   3.881 -1.3182 -0.0295  0.3676
24651SOL    HW275693   5.768   4.425   4.027  0.4056  0.0824  0.8304
24652SOL     OW75694   6.833   6.165   8.014 -0.1988 -0.6244 -0.1117
24652SOL    HW175695   6.749   6.180   8.058 -0.3405 -1.5924 -0.0234
24652SOL    HW275696   6.837   6.070   8.002  0.0464 -0.4219 -1.8002
24653SOL     OW75697   9.046   2.148   0.035  0.0718 -0.1825 -0.0954
24653SOL    HW175698   8.976   2.209   0.010  0.8815  0.1423 -1.6781
24653SOL    HW275699   9.003   2.083   0.091 -0.8022  1.8844  1.7954
24654SOL     OW75700   5.470   1.279   8.894 -0.3533  0.4211 -0.2012
24654SOL    HW175701   5.540   1.215   8.890 -0.7296 -0.0414  0.4279
24654SOL    HW275702   5.390   1.226   8.899 -0.8121  0.9268 -1.7164
24655SOL     OW75703   8.348   5.484   6.802  0.4329  0.6311  0.5289
24655SOL    HW175704   8.319   5.575   6.810 -0.3977  0.2504  2.5269
24655SOL    HW275705   8.442   5.486   6.819  0.2423  1.0154  1.5880
24656SOL     OW75706   4.504   1.124   5.265  0.8647  0.4768 -0.6092
24656SOL    HW175707   4.547   1.060   5.208  1.4580 -0.8772  1.2784
24656SOL    HW275708   4.412   1.096   5.267  1.2667 -0.8295  0.8170
24657SOL     OW75709   8.347   1.827   9.490 -0.2661 -0.5314  0.3501
24657SOL    HW175710   8.418   1.784   9.443  0.0619  0.7921 -0.4238
24657SOL    HW275711   8.273   1.825   9.429 -0.0452  0.5676  0.0143
24658SOL     OW75712   2.647   9.213   6.495  0.0129 -0.1961 -0.0809
24658SOL    HW175713   2.582   9.176   6.435  0.4224 -0.8694 -0.1250
24658SOL    HW275714   2.639   9.160   6.575 -0.4705  0.6398  0.4338
24659SOL     OW75715   0.972   9.038   3.720 -0.0621 -0.4406  0.2183
24659SOL    HW175716   0.968   9.083   3.636 -2.1336 -0.0064  0.4990
24659SOL    HW275717   0.881   9.022   3.744  0.4845 -1.0445  2.1279
24660SOL     OW75718   0.778   4.940   3.502  0.5058  0.2488  0.0439
24660SOL    HW175719   0.785   4.850   3.535  1.3280  0.4353  0.4076
24660SOL    HW275720   0.756   4.992   3.580  0.9820  0.4896  0.0207
24661SOL     OW75721   8.514   5.135   2.025 -0.0223  0.0109 -0.2447
24661SOL    HW175722   8.535   5.170   1.938 -1.2182 -1.5798 -1.2324
24661SOL    HW275723   8.575   5.063   2.037 -1.5929 -1.5288 -1.0229
24662SOL     OW75724   2.381   1.174   4.348 -0.1394  0.3578 -0.1806
24662SOL    HW175725   2.368   1.170   4.442 -1.8285  1.0819 -0.3503
24662SOL    HW275726   2.307   1.125   4.311  0.3317  0.3350 -1.1346
24663SOL     OW75727   4.917   7.401   3.822 -0.1794  0.1652  0.2421
24663SOL    HW175728   4.845   7.409   3.759 -0.6636 -1.4155  0.5493
24663SOL    HW275729   4.978   7.471   3.797 -1.2155  0.7440 -0.8155
24664SOL     OW75730   2.612   1.949   6.203  0.2911  0.2336 -0.7846
24664SOL    HW175731   2.675   1.965   6.133  0.1620 -0.9580 -1.1817
24664SOL    HW275732   2.552   1.884   6.168 -0.7033  0.7649 -0.1203
24665SOL     OW75733   1.938   9.007   5.146 -0.1984 -0.3791  0.2344
24665SOL    HW175734   2.024   9.048   5.131  0.0635 -0.6196  1.0089
24665SOL    HW275735   1.877   9.063   5.099  0.4606 -0.5829 -0.8866
24666SOL     OW75736   4.169   1.723   5.090  0.1681  0.2505  0.3431
24666SOL    HW175737   4.219   1.642   5.106 -0.6487 -0.2720  0.3109
24666SOL    HW275738   4.215   1.765   5.017  0.6536 -0.1384  0.4152
24667SOL     OW75739   7.693   7.034   5.435  0.1374  0.4539 -0.1002
24667SOL    HW175740   7.625   7.062   5.497  0.9995 -0.8486  1.4887
24667SOL    HW275741   7.768   7.012   5.490  1.5097  0.8352 -1.7456
24668SOL     OW75742   7.204   1.902   3.194  0.2254  0.3184 -0.6334
24668SOL    HW175743   7.288   1.909   3.238 -0.2212 -1.4586  0.5784
24668SOL    HW275744   7.185   1.991   3.164  2.3347  0.8193 -0.6116
24669SOL     OW75745   1.161   8.343   4.612  0.1856 -0.3906  0.1348
24669SOL    HW175746   1.138   8.257   4.578 -0.0672 -0.6238  0.8587
24669SOL    HW275747   1.211   8.385   4.542 -1.5473 -0.2683 -1.0929
24670SOL     OW75748   3.094   9.546   3.007  0.5973  0.3211  0.7885
24670SOL    HW175749   3.002   9.518   3.008  0.7236 -0.0955  0.8722
24670SOL    HW275750   3.093   9.627   2.956  0.2451  0.0992  0.4315
24671SOL     OW75751   6.243   5.121   4.055  0.3794 -0.1376  0.3593
24671SOL    HW175752   6.148   5.109   4.059  0.4003 -0.6477  4.7260
24671SOL    HW275753   6.255   5.214   4.041 -0.8021  0.0980  0.7996
24672SOL     OW75754   5.027   1.480   2.702 -0.3499  0.9086 -0.2441
24672SOL    HW175755   4.985   1.421   2.764 -0.4050  0.7031 -0.4748
24672SOL    HW275756   5.120   1.460   2.710 -0.3660  0.8044 -0.3055
24673SOL     OW75757   4.489   1.766   4.757 -0.2475 -0.5471  0.3616
24673SOL    HW175758   4.418   1.828   4.772  0.5064  0.5197 -0.2784
24673SOL    HW275759   4.458   1.683   4.793 -1.5751  0.0324  0.5861
24674SOL     OW75760   8.809   3.711   6.896 -0.0615 -0.6394  0.2540
24674SOL    HW175761   8.732   3.764   6.876  1.1358  1.3312  0.6071
24674SOL    HW275762   8.868   3.725   6.822  0.3811 -1.3048  0.4696
24675SOL     OW75763   6.327   0.670   4.091  0.0675  0.3116 -0.0385
24675SOL    HW175764   6.420   0.682   4.110 -0.1787  0.2621  1.2559
24675SOL    HW275765   6.325   0.642   3.999  1.3446 -0.0402  0.0239
24676SOL     OW75766   7.476   0.886   2.808  0.0883  0.0364  0.0144
24676SOL    HW175767   7.508   0.861   2.895 -1.1906  0.7292  0.7131
24676SOL    HW275768   7.430   0.969   2.823 -1.3323 -0.5277 -1.0745
24677SOL     OW75769   3.295   1.019   0.821  0.0539 -0.4640 -0.1712
24677SOL    HW175770   3.372   0.966   0.797  1.3297  1.0009  0.5508
24677SOL    HW275771   3.265   1.056   0.738  0.9260 -0.0079 -0.2892
24678SOL     OW75772   2.193   2.306   1.407  0.1176 -0.1056 -0.1156
24678SOL    HW175773   2.155   2.232   1.359 -1.6095 -1.1733  2.6245
24678SOL    HW275774   2.263   2.267   1.459 -1.5930 -0.1959  2.2767
24679SOL     OW75775   3.301   2.394   1.138 -0.4111  0.1585  0.2699
24679SOL    HW175776   3.233   2.391   1.071  0.2538 -0.3002 -0.4025
24679SOL    HW275777   3.261   2.351   1.214 -1.1462  0.6087  0.1474
24680SOL     OW75778   6.529   3.470   5.353  0.0055  0.5754 -0.0727
24680SOL    HW175779   6.595   3.432   5.296 -1.6613 -0.7367 -1.2550
24680SOL    HW275780   6.564   3.459   5.441  0.4477 -2.1067 -0.4889
24681SOL     OW75781   3.520   4.787   8.133 -0.4208  0.0394  0.0570
24681SOL    HW175782   3.472   4.809   8.213 -0.9947 -0.0660 -0.2573
24681SOL    HW275783   3.595   4.736   8.164  0.4557  1.6474  0.7235
24682SOL     OW75784   4.714   4.654   1.278 -0.0629 -0.0060 -0.0844
24682SOL    HW175785   4.675   4.734   1.242 -0.9690  1.1576  3.1393
24682SOL    HW275786   4.705   4.589   1.208 -2.7308  1.7171 -1.5170
24683SOL     OW75787   8.404   5.981   3.019 -0.3869  0.2275 -0.1797
24683SOL    HW175788   8.410   5.982   2.923  0.1457  0.1258 -0.1475
24683SOL    HW275789   8.465   5.913   3.046 -0.5634  0.2331  0.2334
24684SOL     OW75790   0.890   6.494   3.956 -0.3790  0.6027  0.3927
24684SOL    HW175791   0.970   6.543   3.976 -1.0533  1.8242  0.2010
24684SOL    HW275792   0.832   6.510   4.030  0.1344 -1.6801  1.3598
24685SOL     OW75793   8.401   2.978   7.066  0.4944 -0.4231 -0.1345
24685SOL    HW175794   8.492   3.004   7.051  0.1061  0.8530 -0.3919
24685SOL    HW275795   8.387   2.904   7.007  1.0618  0.0365 -0.8665
24686SOL     OW75796   6.854   9.110   6.574  0.5355  0.3011 -0.3823
24686SOL    HW175797   6.792   9.100   6.646  1.8057  1.1090  0.8660
24686SOL    HW275798   6.833   9.195   6.535  0.6770  0.4553 -0.1262
24687SOL     OW75799   6.889   0.189   2.322 -0.1002  0.0660 -0.2849
24687SOL    HW175800   6.876   0.101   2.359 -0.0355  0.4221  0.6063
24687SOL    HW275801   6.801   0.227   2.321  0.2123  0.9922  1.9504
24688SOL     OW75802   0.070   8.386   0.772 -0.7789  0.0228 -0.2079
24688SOL    HW175803   0.158   8.348   0.779 -1.3061 -2.1471 -3.0754
24688SOL    HW275804   0.084   8.476   0.744  0.4810  0.9154  2.8824
24689SOL     OW75805   9.207   7.337   3.347 -0.1668  0.0191 -0.0351
24689SOL    HW175806   9.116   7.309   3.339 -1.0918  2.3983  1.1387
24689SOL    HW275807   9.202   7.433   3.349  2.2962  0.1900  0.7405
24690SOL     OW75808   8.673   1.633   2.384  0.1253  0.0802 -0.2054
24690SOL    HW175809   8.584   1.598   2.386  0.8586 -1.8726  0.2570
24690SOL    HW275810   8.714   1.599   2.463  0.8705  2.2119  0.3858
24691SOL     OW75811   2.249   3.057   1.928  0.0669 -0.7369  0.0024
24691SOL    HW175812   2.209   2.972   1.948  0.4776 -0.7999  0.5530
24691SOL    HW275813   2.333   3.056   1.973  0.6824 -0.5791 -1.0936
24692SOL     OW75814   9.009   3.143   4.305  0.2476  0.5710 -0.4064
24692SOL    HW175815   9.046   3.143   4.393  1.4877 -1.4647 -0.8642
24692SOL    HW275816   9.046   3.221   4.264  1.2179  0.4947  0.2783
24693SOL     OW75817   3.046   9.200   6.072  0.3818  0.2073 -0.4261
24693SOL    HW175818   3.018   9.290   6.058  0.8632  0.3195 -0.6665
24693SOL    HW275819   3.137   9.207   6.100  0.6001 -0.2361 -1.0113
24694SOL     OW75820   2.916   0.470   5.575  0.3105 -0.4400 -0.1767
24694SOL    HW175821   2.935   0.506   5.488  1.9184 -0.5162  0.1107
24694SOL    HW275822   2.829   0.431   5.566 -1.6751  3.5274 -0.5000
24695SOL     OW75823   6.048   7.875   7.855 -0.1854  0.2016  0.1811
24695SOL    HW175824   5.956   7.855   7.836 -0.2513  0.1643  0.5339
24695SOL    HW275825   6.091   7.872   7.770 -0.9812  2.8521 -0.3922
24696SOL     OW75826   7.268   0.474   0.729 -0.2325 -0.2431  0.1430
24696SOL    HW175827   7.345   0.418   0.734  0.1115  0.1940 -0.1689
24696SOL    HW275828   7.292   0.544   0.669 -0.1337  1.0152  1.5630
24697SOL     OW75829   2.444   4.897   0.653 -0.0365 -0.1134  0.3594
24697SOL    HW175830   2.468   4.892   0.745  0.0787 -0.1520  0.3277
24697SOL    HW275831   2.348   4.897   0.653 -0.0364 -0.0566  0.4813
24698SOL     OW75832   8.972   4.221   5.307  0.1999 -0.6637  1.1291
24698SOL    HW175833   9.051   4.166   5.309  1.9581  1.4954 -1.5233
24698SOL    HW275834   8.994   4.296   5.363  1.1437  1.0977 -1.4159
24699SOL     OW75835   5.303   2.395   0.576  0.5473 -0.4232  0.1415
24699SOL    HW175836   5.343   2.335   0.514  1.0041 -0.7922  0.7887
24699SOL    HW275837   5.375   2.447   0.610  0.0408  1.1787 -1.1232
24700SOL     OW75838   0.939   4.118   6.025 -0.6912 -0.8222  0.1536
24700SOL    HW175839   0.893   4.089   6.103  0.4804 -2.1753  0.3822
24700SOL    HW275840   0.959   4.210   6.041 -1.5674 -0.7483  0.8760
24701SOL     OW75841   8.644   8.632   1.793  0.2783 -0.1357  0.4697
24701SOL    HW175842   8.558   8.627   1.834  0.5838  0.6508  1.2418
24701SOL    HW275843   8.684   8.547   1.810  0.6344  0.3630  2.4000
24702SOL     OW75844   2.773   1.814   6.589 -0.0049  0.6801 -0.0456
24702SOL    HW175845   2.792   1.721   6.585 -2.1619  0.1887 -0.4026
24702SOL    HW275846   2.736   1.828   6.676  1.5027  1.4937  0.4918
24703SOL     OW75847   6.762   5.858   7.180 -0.0959 -0.4664  0.2831
24703SOL    HW175848   6.753   5.767   7.209  0.4583  0.0005  2.0772
24703SOL    HW275849   6.828   5.895   7.238 -0.7664  1.2579  0.0136
24704SOL     OW75850   7.051   9.235   3.800  0.0930 -0.5071 -0.0417
24704SOL    HW175851   7.147   9.238   3.804  0.1169  0.9073 -1.0140
24704SOL    HW275852   7.025   9.203   3.886  1.4042 -0.0214  0.5663
24705SOL     OW75853   7.475   8.006   1.412  0.0286  0.5256 -0.6505
24705SOL    HW175854   7.380   8.011   1.398 -0.0639  0.7376  0.0166
24705SOL    HW275855   7.494   8.078   1.473  0.1902 -1.2067  1.4327
24706SOL     OW75856   3.028   2.718   8.661 -0.4439  0.3947  0.1404
24706SOL    HW175857   3.029   2.808   8.629  0.8463  0.4717  0.3643
24706SOL    HW275858   3.044   2.664   8.584  0.7421  0.4800  0.3045
24707SOL     OW75859   8.611   5.324   8.756  0.3977 -0.6082  0.8165
24707SOL    HW175860   8.646   5.247   8.802  0.0033 -0.8535  0.7136
24707SOL    HW275861   8.605   5.392   8.824  0.2811 -0.8197  1.0198
24708SOL     OW75862   4.957   9.529   1.006  0.7841  0.2394 -0.2535
24708SOL    HW175863   5.006   9.451   0.979  2.9724  1.2480  0.5302
24708SOL    HW275864   5.013   9.570   1.072 -1.8916  0.6514  1.9655
24709SOL     OW75865   0.744   5.840   7.617  0.0546 -0.1092 -0.1545
24709SOL    HW175866   0.821   5.852   7.562  0.3780  1.0356  0.5072
24709SOL    HW275867   0.759   5.757   7.662  0.1941 -0.6159 -1.1211
24710SOL     OW75868   5.600   8.000   4.769  0.3349 -0.1027 -0.2143
24710SOL    HW175869   5.561   8.076   4.726 -1.9791 -0.5190  0.9841
24710SOL    HW275870   5.649   8.036   4.842  2.3214  0.4358 -1.7291
24711SOL     OW75871   4.765   0.459   4.444  0.4118 -0.5545  0.0495
24711SOL    HW175872   4.853   0.463   4.407  0.5342  1.1817  0.4747
24711SOL    HW275873   4.779   0.456   4.539  0.1387  4.7964  0.5583
24712SOL     OW75874   4.103   2.183   3.193 -0.0037  0.4448 -0.0973
24712SOL    HW175875   4.119   2.243   3.266 -1.5512  0.8819 -0.0875
24712SOL    HW275876   4.191   2.152   3.168  0.8424  2.5894 -0.0218
24713SOL     OW75877   9.204   5.099   0.589 -0.0957  0.2846 -0.3367
24713SOL    HW175878   9.260   5.021   0.587 -0.6337 -0.1464 -3.2756
24713SOL    HW275879   9.168   5.100   0.678  0.7800 -2.1793  0.1465
24714SOL     OW75880   8.293   3.969   8.645  0.1541 -0.0058 -0.0390
24714SOL    HW175881   8.280   4.059   8.673  1.0424  0.2878 -0.5372
24714SOL    HW275882   8.355   3.932   8.709  2.1814  0.6646 -1.5163
24715SOL     OW75883   3.919   4.858   0.391  0.5078 -0.3379  0.0163
24715SOL    HW175884   4.009   4.841   0.419  0.2012 -0.3987  1.0038
24715SOL    HW275885   3.867   4.845   0.469 -0.1331  1.8594  0.0341
24716SOL     OW75886   5.401   5.220   8.895  0.1902  0.1363  0.5401
24716SOL    HW175887   5.311   5.213   8.927  0.2480 -2.1644  0.3704
24716SOL    HW275888   5.402   5.302   8.845 -1.3547  1.0204  1.8510
24717SOL     OW75889   4.157   6.917   5.754  0.3612 -0.3786  0.0253
24717SOL    HW175890   4.233   6.938   5.809 -0.2131  0.8724  0.3924
24717SOL    HW275891   4.124   7.002   5.725 -0.2180 -0.9549 -1.0837
24718SOL     OW75892   3.628   8.006   8.692 -0.0560  0.0239  0.2726
24718SOL    HW175893   3.562   8.060   8.648 -0.4249 -0.7142 -0.0981
24718SOL    HW275894   3.712   8.045   8.667 -0.2166 -0.7217 -1.5924
24719SOL     OW75895   1.745   9.600   1.703  0.1258  0.2326 -0.4987
24719SOL    HW175896   1.705   9.676   1.745 -1.7240 -1.4451  0.9986
24719SOL    HW275897   1.676   9.533   1.705  1.7810 -1.5904 -1.4446
24720SOL     OW75898   0.703   2.155   4.668  0.0374  0.0600  0.5474
24720SOL    HW175899   0.707   2.063   4.644  1.1199  0.7155 -2.1717
24720SOL    HW275900   0.699   2.202   4.585  2.2539  2.5730  1.6715
24721SOL     OW75901   0.771   2.448   5.446 -0.2502  0.2262 -0.1607
24721SOL    HW175902   0.793   2.539   5.467  1.2019  0.3502 -2.0345
24721SOL    HW275903   0.676   2.449   5.434 -0.1829  1.6555 -0.7767
24722SOL     OW75904   5.033   6.512   2.582  0.4480 -0.2598 -0.1664
24722SOL    HW175905   5.033   6.522   2.486  0.0535  2.1112  0.0114
24722SOL    HW275906   4.947   6.475   2.602 -0.7472  2.0806 -0.5880
24723SOL     OW75907   9.101   5.472   2.140 -0.6129  0.1366 -0.6871
24723SOL    HW175908   9.073   5.465   2.049 -0.5780  1.4264 -0.8272
24723SOL    HW275909   9.160   5.548   2.141 -1.1211  0.5530  0.5213
24724SOL     OW75910   7.280   1.005   7.697 -0.0832  0.1102 -0.0054
24724SOL    HW175911   7.232   1.057   7.632 -1.1274  0.4414  1.0038
24724SOL    HW275912   7.276   1.057   7.777 -0.0997 -0.9695  0.7092
24725SOL     OW75913   5.561   6.496   4.860 -0.1063 -0.5357  0.1208
24725SOL    HW175914   5.556   6.401   4.853 -1.5321 -0.4684 -0.1916
24725SOL    HW275915   5.501   6.528   4.792 -0.1898  0.5687  0.6939
24726SOL     OW75916   6.413   1.788   3.060  0.1803  0.1898 -0.4273
24726SOL    HW175917   6.480   1.730   3.024  0.1025  0.0863 -0.4078
24726SOL    HW275918   6.378   1.739   3.135  0.5903  0.5554  0.0086
24727SOL     OW75919   9.152   7.043   8.447 -0.1183 -0.0843  0.0589
24727SOL    HW175920   9.061   7.018   8.467  0.1650  0.0482  1.6662
24727SOL    HW275921   9.162   7.024   8.354 -1.2440 -1.7816  0.2429
24728SOL     OW75922   3.485   6.247   6.755  0.3279  0.3347 -0.3994
24728SOL    HW175923   3.577   6.228   6.734  0.8789  3.4752 -1.3034
24728SOL    HW275924   3.471   6.336   6.723 -2.5866  0.5705  1.2113
24729SOL     OW75925   7.960   7.440   0.670  0.6728  0.5708  0.2898
24729SOL    HW175926   7.941   7.436   0.764  1.6842  0.4373  0.5017
24729SOL    HW275927   8.040   7.492   0.664  1.3017 -0.4582 -0.3960
24730SOL     OW75928   2.935   1.216   5.703 -0.0085  0.3846 -0.0180
24730SOL    HW175929   3.030   1.202   5.700  0.0870  1.1273 -1.0651
24730SOL    HW275930   2.923   1.291   5.761  0.0623  0.4425 -0.0782
24731SOL     OW75931   9.328   8.042   8.797  0.6987  0.7345 -0.5680
24731SOL    HW175932   9.241   8.033   8.835  0.7785  1.8576 -0.0833
24731SOL    HW275933   9.364   8.122   8.836  2.5241 -0.4649  0.3347
24732SOL     OW75934   5.202   1.396   5.986  0.1392  0.0183 -0.1219
24732SOL    HW175935   5.195   1.460   6.057 -0.1055 -0.5086  0.3358
24732SOL    HW275936   5.120   1.346   5.991  1.2877 -1.8653  1.0280
24733SOL     OW75937   6.612   0.541   1.887  0.1017  0.7597 -0.0172
24733SOL    HW175938   6.633   0.631   1.862  0.4284  0.3329 -1.3914
24733SOL    HW275939   6.589   0.546   1.979  0.8837  2.1255  0.1269
24734SOL     OW75940   7.922   6.841   9.235 -0.4615 -0.0191  0.3324
24734SOL    HW175941   8.016   6.855   9.231 -0.3951 -0.1261  1.3535
24734SOL    HW275942   7.912   6.746   9.224 -0.5384  0.1176 -0.9172
24735SOL     OW75943   7.911   7.452   5.998  0.0397  0.4094  0.1569
24735SOL    HW175944   7.847   7.506   6.045 -3.1719 -1.4334 -1.7354
24735SOL    HW275945   7.936   7.384   6.061 -0.0994  0.9853  0.8392
24736SOL     OW75946   6.845   2.022   6.733 -0.1524 -0.1409 -0.3881
24736SOL    HW175947   6.850   2.072   6.652  1.0713 -1.5722 -1.2636
24736SOL    HW275948   6.936   1.999   6.753 -0.4986 -0.4195  1.0112
24737SOL     OW75949   0.961   3.037   3.783  0.0005 -0.3665 -0.0446
24737SOL    HW175950   0.922   3.075   3.704 -1.0641 -2.7181 -0.7087
24737SOL    HW275951   0.887   3.004   3.833  0.8662 -1.7131  0.3984
24738SOL     OW75952   6.914   6.708   6.957 -0.3704 -0.1840  0.3792
24738SOL    HW175953   6.889   6.776   6.895  0.6722 -1.8892 -2.0870
24738SOL    HW275954   6.855   6.635   6.937  2.1772 -1.9874 -1.1408
24739SOL     OW75955   0.796   5.589   1.720  0.0695  0.4976  0.1676
24739SOL    HW175956   0.796   5.549   1.633 -0.4424 -0.8607  0.7677
24739SOL    HW275957   0.852   5.532   1.772  0.1030  1.1156  0.8199
24740SOL     OW75958   9.024   4.135   4.512  0.2727 -0.9029 -0.1345
24740SOL    HW175959   8.964   4.105   4.444 -0.6780 -1.6107  0.9809
24740SOL    HW275960   9.066   4.213   4.474  0.7898 -2.0437 -2.0446
24741SOL     OW75961   9.442   0.545   6.976  0.3543 -0.1281  0.6233
24741SOL    HW175962   9.380   0.612   7.006  0.6455  0.2148  0.4633
24741SOL    HW275963   9.448   0.484   7.050  0.5999  0.3834  1.0349
24742SOL     OW75964   6.896   8.577   7.471  0.3739  0.9032 -0.1023
24742SOL    HW175965   6.833   8.589   7.400 -0.4463  0.1714  0.4754
24742SOL    HW275966   6.842   8.552   7.547  1.4074 -0.6331  0.1826
24743SOL     OW75967   8.293   3.752   0.196  0.5712 -0.1514  0.8937
24743SOL    HW175968   8.333   3.816   0.255 -0.1223 -0.1190  1.3397
24743SOL    HW275969   8.278   3.799   0.115 -1.7640  0.8791  1.8259
24744SOL     OW75970   5.058   6.342   8.197  0.4785 -0.4441 -0.4747
24744SOL    HW175971   4.982   6.380   8.243 -0.2469 -1.1586 -1.0586
24744SOL    HW275972   5.020   6.282   8.133  1.5988 -2.0913  0.3553
24745SOL     OW75973   1.775   3.451   2.243  0.4207  1.0535  0.2039
24745SOL    HW175974   1.746   3.512   2.312  0.3408  0.7610  0.4301
24745SOL    HW275975   1.861   3.484   2.216  0.0888  1.6553 -0.1420
24746SOL     OW75976   1.471   8.407   3.261 -0.2202  0.4866  0.3292
24746SOL    HW175977   1.555   8.428   3.302 -0.1480  1.3401 -0.2340
24746SOL    HW275978   1.487   8.418   3.168 -0.4627 -1.1532  0.0727
24747SOL     OW75979   7.877   3.673   8.012 -0.7075 -0.2652  0.2610
24747SOL    HW175980   7.810   3.687   8.079 -1.8230 -0.5721 -0.7638
24747SOL    HW275981   7.934   3.750   8.019 -2.4368  1.1421 -0.2960
24748SOL     OW75982   3.393   3.749   4.189 -0.8114 -0.4228  0.1317
24748SOL    HW175983   3.340   3.826   4.168  1.1107  0.4662 -1.7891
24748SOL    HW275984   3.460   3.782   4.249 -0.5429 -0.8254  0.0502
24749SOL     OW75985   5.051   1.430   7.347  0.5281 -0.0369  0.6476
24749SOL    HW175986   5.001   1.376   7.286  0.6342  1.0608 -0.4695
24749SOL    HW275987   5.115   1.371   7.386  1.4013 -0.5278 -1.3882
24750SOL     OW75988   9.194   4.660   6.373 -0.1597 -0.3062  0.6750
24750SOL    HW175989   9.235   4.701   6.297 -0.3662 -0.6268  0.3849
24750SOL    HW275990   9.231   4.572   6.377  1.6346  0.4407  2.3586
24751SOL     OW75991   6.179   5.987   1.959  0.4635 -0.0853 -0.7463
24751SOL    HW175992   6.090   5.984   1.923  0.3250  2.4123 -0.8303
24751SOL    HW275993   6.229   6.038   1.895  1.9910 -1.4514 -0.6942
24752SOL     OW75994   6.660   1.806   5.462 -0.1752 -0.0498 -0.1159
24752SOL    HW175995   6.577   1.786   5.505  0.3594 -0.7496  0.6203
24752SOL    HW275996   6.639   1.876   5.400 -1.2784 -0.1194  0.1644
24753SOL     OW75997   7.867   5.876   2.466 -0.3876 -0.0837  0.2021
24753SOL    HW175998   7.832   5.794   2.431 -1.5655  0.3198  0.3799
24753SOL    HW275999   7.870   5.934   2.390 -1.7049  0.3853  0.4715
24754SOL     OW76000   2.916   3.484   7.993 -0.4786 -0.1155  0.4312
24754SOL    HW176001   2.975   3.556   8.013  1.9809 -2.5633  2.8780
24754SOL    HW276002   2.829   3.519   8.011  0.4600  2.6098  0.1448
24755SOL     OW76003   6.282   2.163   4.819  0.3880  0.0005 -0.1197
24755SOL    HW176004   6.257   2.110   4.895  2.2341  0.7780  1.1267
24755SOL    HW276005   6.241   2.120   4.745 -2.7779  0.0497  1.4415
24756SOL     OW76006   9.313   5.284   6.018 -0.2104  0.1619 -0.3885
24756SOL    HW176007   9.243   5.338   6.055  0.5584  0.9259 -0.0061
24756SOL    HW276008   9.387   5.299   6.076 -0.0633 -1.5812 -0.0910
24757SOL     OW76009   0.515   5.825   4.487 -0.4684  0.2113 -0.2671
24757SOL    HW176010   0.465   5.870   4.556 -2.3268 -0.1797 -1.2931
24757SOL    HW276011   0.597   5.873   4.482 -0.2384  0.2375  2.2298
24758SOL     OW76012   6.511   8.197   7.275  0.0166  0.3784  0.4225
24758SOL    HW176013   6.600   8.188   7.241 -0.0847  2.7984 -0.7364
24758SOL    HW276014   6.514   8.155   7.361  0.7521 -4.5197 -1.6385
24759SOL     OW76015   6.164   8.036   2.714  0.3830 -0.1499  0.0223
24759SOL    HW176016   6.124   7.949   2.710 -1.5101  0.6559  0.1623
24759SOL    HW276017   6.176   8.061   2.622 -1.0518  0.2623 -0.0774
24760SOL     OW76018   6.130   1.075   4.587 -0.0370 -0.3433 -0.6335
24760SOL    HW176019   6.186   0.998   4.586 -0.5769 -0.7370 -0.4813
24760SOL    HW276020   6.086   1.075   4.502 -0.2975 -0.3914 -0.4982
24761SOL     OW76021   7.414   5.946   7.178 -0.3316 -0.4054 -0.0085
24761SOL    HW176022   7.427   5.895   7.098  0.7393 -0.3390  0.1146
24761SOL    HW276023   7.469   5.904   7.244  1.1015  1.2530 -0.0647
24762SOL     OW76024   9.475   2.601   3.187  0.1052  0.0690  0.2550
24762SOL    HW176025   9.518   2.561   3.112  0.9438  0.4575  0.5174
24762SOL    HW276026   9.534   2.671   3.215  0.2857 -0.6775  1.8685
24763SOL     OW76027   8.837   7.621   6.049  0.2813  0.0019 -0.0261
24763SOL    HW176028   8.785   7.547   6.017 -1.4310  0.8210  0.7557
24763SOL    HW276029   8.779   7.667   6.109  2.2614  0.4185  1.6850
24764SOL     OW76030   6.383   7.765   0.039  0.0555  0.5900 -0.5334
24764SOL    HW176031   6.326   7.833   0.076 -2.0990 -0.3044 -2.0152
24764SOL    HW276032   6.372   7.690   0.097 -0.1492  0.4713 -0.7254
24765SOL     OW76033   0.140   3.709   2.977  0.4231  0.4447  0.0979
24765SOL    HW176034   0.207   3.696   3.045  1.9380  3.0052 -0.7600
24765SOL    HW276035   0.062   3.736   3.025  0.4182 -1.0691  1.0084
24766SOL     OW76036   7.320   8.172   9.494 -0.7800 -0.0606  0.1965
24766SOL    HW176037   7.299   8.264   9.510  0.3078  0.1253  0.5879
24766SOL    HW276038   7.374   8.173   9.415  0.6240 -0.1864  1.1316
24767SOL     OW76039   3.208   4.418   4.355 -0.0228  0.0842 -0.2185
24767SOL    HW176040   3.204   4.343   4.296 -0.3937 -0.1978  0.1545
24767SOL    HW276041   3.120   4.456   4.352  0.4538  1.1727 -1.2394
24768SOL     OW76042   9.427   1.203   5.945 -0.5407  0.1216  0.0778
24768SOL    HW176043   9.493   1.259   5.984 -0.2828  0.3091 -0.6173
24768SOL    HW276044   9.347   1.223   5.993 -0.5781  1.4921 -0.5317
24769SOL     OW76045   1.865   1.627   2.220 -0.4182  0.3332  0.2193
24769SOL    HW176046   1.799   1.557   2.223 -0.6066  0.5369  1.2805
24769SOL    HW276047   1.938   1.593   2.272  1.2414 -0.7450 -2.5927
24770SOL     OW76048   4.547   4.363   9.024  0.3766 -0.2890 -0.4667
24770SOL    HW176049   4.490   4.439   9.036 -0.8300 -0.1885 -4.9764
24770SOL    HW276050   4.513   4.297   9.084 -0.6674  1.6014  1.1455
24771SOL     OW76051   8.804   3.889   4.160  0.0494 -0.7075  0.4532
24771SOL    HW176052   8.858   3.859   4.088  0.7581 -2.9420  1.8210
24771SOL    HW276053   8.863   3.941   4.214  0.1155 -0.8722  0.5408
24772SOL     OW76054   4.969   4.509   4.499  0.0374  0.4014  0.1514
24772SOL    HW176055   4.879   4.506   4.467  0.2968 -0.2182 -0.5542
24772SOL    HW276056   4.960   4.524   4.593 -0.9314 -2.3993  0.6022
24773SOL     OW76057   4.793   5.139   3.954  0.4644  0.1018 -0.3584
24773SOL    HW176058   4.814   5.050   3.982  0.2906  0.3721  0.7012
24773SOL    HW276059   4.871   5.190   3.975  0.6685  0.1566 -1.2202
24774SOL     OW76060   2.059   7.846   6.322  0.1418  0.4041 -0.5245
24774SOL    HW176061   2.024   7.759   6.300 -1.3173  1.0325 -0.8657
24774SOL    HW276062   2.120   7.865   6.251 -0.3464  0.0936 -1.0479
24775SOL     OW76063   8.438   7.161   3.800 -0.2850  0.1601  0.4517
24775SOL    HW176064   8.506   7.126   3.744 -0.5509  0.6812 -0.2160
24775SOL    HW276065   8.364   7.101   3.789 -0.1814  0.0109  0.5889
24776SOL     OW76066   9.223   1.633   3.295  0.1523  0.6541 -0.0393
24776SOL    HW176067   9.263   1.716   3.320 -0.4441  1.1521 -0.7209
24776SOL    HW276068   9.258   1.614   3.208  1.1382 -0.3743  0.5475
24777SOL     OW76069   1.669   5.060   1.243 -0.1723  0.3845 -0.3776
24777SOL    HW176070   1.711   5.064   1.329 -0.5298  0.3401 -0.1974
24777SOL    HW276071   1.584   5.020   1.260  0.0834 -0.3946 -0.8796
24778SOL     OW76072   7.049   4.244   3.038  0.0782 -0.5304  0.0635
24778SOL    HW176073   6.962   4.259   3.074  0.9719  0.1906  2.1240
24778SOL    HW276074   7.037   4.174   2.974 -2.0806 -0.0624 -0.1223
24779SOL     OW76075   8.578   3.449   9.003 -0.1219  0.5318  0.2384
24779SOL    HW176076   8.504   3.508   8.985 -1.1057 -0.8410 -0.4067
24779SOL    HW276077   8.648   3.507   9.032 -0.5064  2.2284 -1.8976
24780SOL     OW76078   7.603   5.460   1.302 -0.6786  0.1187  0.0344
24780SOL    HW176079   7.644   5.449   1.216 -2.5364 -0.0148 -0.8872
24780SOL    HW276080   7.644   5.539   1.338  1.0609 -0.5555 -0.3817
24781SOL     OW76081   2.083   8.225   4.714 -0.0004  0.4468  0.4222
24781SOL    HW176082   2.145   8.271   4.770  1.2039 -1.2723  0.5929
24781SOL    HW276083   2.003   8.219   4.765  1.1131 -1.2039  2.0918
24782SOL     OW76084   3.283   4.146   5.460 -0.4757 -0.8167  0.4992
24782SOL    HW176085   3.254   4.198   5.385  0.2570  0.2330  0.9203
24782SOL    HW276086   3.214   4.080   5.472 -0.8818 -0.6376 -0.7267
24783SOL     OW76087   8.800   1.415   8.442 -0.4717 -0.3271  0.6895
24783SOL    HW176088   8.728   1.447   8.497 -0.4998  0.6931  0.0814
24783SOL    HW276089   8.859   1.373   8.503 -1.1697 -0.4214  1.3172
24784SOL     OW76090   1.618   6.920   3.278 -0.6995 -0.7351  0.5247
24784SOL    HW176091   1.531   6.925   3.239 -0.6023  0.1297  0.4150
24784SOL    HW276092   1.677   6.915   3.203 -0.5003  1.1081  0.5201
24785SOL     OW76093   0.449   1.733   5.340 -0.0259  0.0417 -0.5334
24785SOL    HW176094   0.393   1.811   5.336 -0.6001 -0.3921 -1.0898
24785SOL    HW276095   0.485   1.734   5.429 -0.9483  0.3139 -0.1557
24786SOL     OW76096   3.466   4.085   1.816 -0.1797  0.0811  0.3864
24786SOL    HW176097   3.561   4.085   1.816 -0.1508 -1.1356  1.3710
24786SOL    HW276098   3.441   4.073   1.724  0.5710  1.6284 -0.0497
24787SOL     OW76099   1.192   3.709   7.415  0.2499 -0.6437 -0.3556
24787SOL    HW176100   1.137   3.683   7.489  1.3216 -1.1302  0.2899
24787SOL    HW276101   1.260   3.764   7.454  0.7902 -0.8579 -0.9787
24788SOL     OW76102   6.759   3.910   6.649  0.0282 -0.0905  0.7988
24788SOL    HW176103   6.754   3.984   6.589 -0.0628 -0.1126  0.7800
24788SOL    HW276104   6.852   3.885   6.648 -0.2055 -1.0362 -0.4925
24789SOL     OW76105   1.249   0.070   3.632 -0.0539 -0.3512 -0.1057
24789SOL    HW176106   1.307   0.125   3.579  1.1884  0.0679  1.5944
24789SOL    HW276107   1.213   0.129   3.698 -3.1316 -0.4385 -1.5771
24790SOL     OW76108   6.390   2.896   9.265 -0.1776 -0.8747  0.4826
24790SOL    HW176109   6.305   2.852   9.275 -0.6889 -0.0399 -0.0145
24790SOL    HW276110   6.438   2.875   9.345 -0.6721 -1.7391  0.5681
24791SOL     OW76111   5.902   7.193   3.652 -0.0200  0.3434  0.0187
24791SOL    HW176112   5.953   7.122   3.690 -2.4451 -2.0942 -0.9360
24791SOL    HW276113   5.839   7.217   3.720 -0.7847 -0.1777 -0.4842
24792SOL     OW76114   1.428   2.966   4.218  0.0319 -0.1600 -0.2767
24792SOL    HW176115   1.372   2.892   4.195 -0.1234 -0.0590 -0.2199
24792SOL    HW276116   1.396   2.995   4.303  0.8667 -0.8039  0.2809
24793SOL     OW76117   6.416   4.858   2.573  0.0155  0.6558 -0.0750
24793SOL    HW176118   6.463   4.905   2.642 -0.2056  1.5251 -0.5021
24793SOL    HW276119   6.343   4.915   2.551 -0.8041 -0.3324  0.0379
24794SOL     OW76120   8.989   8.299   5.463  0.1864 -0.0665 -0.1830
24794SOL    HW176121   9.030   8.375   5.420  0.9481 -0.3598  0.0054
24794SOL    HW276122   9.060   8.235   5.469 -0.0302 -0.1912  1.1368
24795SOL     OW76123   1.099   4.598   1.308 -0.1398  0.2516 -0.3188
24795SOL    HW176124   1.101   4.580   1.214  0.0681 -1.8825  0.0421
24795SOL    HW276125   1.019   4.555   1.339  0.3983 -0.0926  0.6585
24796SOL     OW76126   4.017   1.053   9.287 -0.0159 -0.2959 -0.7865
24796SOL    HW176127   4.015   0.968   9.243 -0.9643 -0.5660 -0.2622
24796SOL    HW276128   3.925   1.070   9.309  0.3575  0.0838  0.5893
24797SOL     OW76129   0.105   8.964   6.201  0.1530 -0.0774  0.5333
24797SOL    HW176130   0.140   8.878   6.177 -0.3628 -0.4549  1.1181
24797SOL    HW276131   0.011   8.951   6.207  0.1602  0.3025  1.5520
24798SOL     OW76132   2.254   0.537   6.848 -0.7297 -0.0471 -0.2362
24798SOL    HW176133   2.162   0.540   6.876 -1.2321  1.0506 -1.8196
24798SOL    HW276134   2.249   0.522   6.753  0.6064  2.0726 -0.7278
24799SOL     OW76135   2.909   7.799   7.981  0.2355  0.1319  0.2045
24799SOL    HW176136   2.981   7.770   8.037  0.3606 -1.4782 -0.7417
24799SOL    HW276137   2.949   7.813   7.895 -0.2785  0.8380  0.0691
24800SOL     OW76138   6.780   8.108   1.465 -0.3263 -0.0245  0.0327
24800SOL    HW176139   6.774   8.181   1.404  1.3447  0.9734  0.9844
24800SOL    HW276140   6.825   8.144   1.542  2.3350 -2.4543 -0.2221
24801SOL     OW76141   4.567   3.044   0.418 -0.5170 -0.2023 -0.5593
24801SOL    HW176142   4.528   3.056   0.331 -1.3453 -0.8233 -0.2896
24801SOL    HW276143   4.507   3.090   0.477 -0.3226 -0.3523 -0.2433
24802SOL     OW76144   1.437   4.444   2.573 -0.1560  0.4453 -0.8650
24802SOL    HW176145   1.529   4.421   2.588 -0.6370 -1.3693 -0.3485
24802SOL    HW276146   1.438   4.536   2.549  1.5511  1.2918  2.0049
24803SOL     OW76147   4.825   1.636   6.414 -0.3090  0.3137  0.5988
24803SOL    HW176148   4.900   1.620   6.356 -1.0700  0.6972 -0.5352
24803SOL    HW276149   4.838   1.576   6.487  0.8082 -0.0293  0.1514
24804SOL     OW76150   2.790   1.953   4.522  0.1138 -0.5869  0.2841
24804SOL    HW176151   2.694   1.952   4.533  0.0351  1.7907  0.2760
24804SOL    HW276152   2.823   1.967   4.611  0.3498  0.5695  0.0182
24805SOL     OW76153   7.380   8.315   8.484 -0.4930 -0.3545  0.1550
24805SOL    HW176154   7.431   8.374   8.540  1.6691 -1.9179 -0.0826
24805SOL    HW276155   7.332   8.374   8.426 -0.8876  1.2463  1.9629
24806SOL     OW76156   0.548   7.181   3.098  0.2558  0.4325  0.6649
24806SOL    HW176157   0.582   7.106   3.049 -0.0758  1.0397 -0.5338
24806SOL    HW276158   0.490   7.225   3.036  2.0019  2.8367  0.6082
24807SOL     OW76159   1.874   6.808   5.055 -0.2375 -0.0259 -0.1773
24807SOL    HW176160   1.896   6.783   4.965 -1.4239  1.1419 -0.8161
24807SOL    HW276161   1.786   6.774   5.069  0.0928 -0.5640  0.7128
24808SOL     OW76162   7.691   1.835   3.419  0.3010  0.2574 -0.2660
24808SOL    HW176163   7.748   1.860   3.492 -0.5429  0.8037  0.2287
24808SOL    HW276164   7.746   1.781   3.363  1.4238  1.0709  0.0023
24809SOL     OW76165   4.391   0.181   3.774 -0.0747  0.6145 -0.3328
24809SOL    HW176166   4.434   0.265   3.788 -0.3834  0.3967  2.4428
24809SOL    HW276167   4.335   0.194   3.697  3.1688  1.5449 -2.7350
24810SOL     OW76168   6.839   7.302   8.561  0.2235  0.1076  0.3481
24810SOL    HW176169   6.761   7.357   8.557 -0.0880 -0.1420  2.1564
24810SOL    HW276170   6.906   7.357   8.600  0.5303 -0.1555  0.2033
24811SOL     OW76171   8.461   4.106   3.474  0.3942 -0.0998 -0.0305
24811SOL    HW176172   8.383   4.150   3.441 -0.0056 -0.4688  0.4108
24811SOL    HW276173   8.467   4.026   3.422  1.1322  0.4622 -0.8454
24812SOL     OW76174   6.318   7.742   7.251  0.2166  0.1293 -0.4113
24812SOL    HW176175   6.316   7.648   7.235  2.7799  0.3833 -3.0416
24812SOL    HW276176   6.227   7.770   7.242 -0.9783 -2.2964  2.6886
24813SOL     OW76177   1.855   0.495   0.634  0.1599 -0.3429 -0.3977
24813SOL    HW176178   1.828   0.580   0.667  1.1429  0.0829 -0.6423
24813SOL    HW276179   1.877   0.444   0.712 -1.5414 -0.7893 -0.1816
24814SOL     OW76180   1.224   7.047   4.148 -0.3028  0.0615 -0.1734
24814SOL    HW176181   1.210   7.129   4.100  0.2036  0.8586  0.9816
24814SOL    HW276182   1.298   7.066   4.205  0.6587 -1.6386 -0.8127
24815SOL     OW76183   7.775   1.744   2.905  0.0692  0.5090  0.0313
24815SOL    HW176184   7.772   1.773   2.996  3.5939  1.4309 -0.0001
24815SOL    HW276185   7.838   1.671   2.905  0.3571  0.7089 -1.6796
24816SOL     OW76186   6.182   4.105   0.155 -0.0630 -0.1467 -0.3086
24816SOL    HW176187   6.178   4.183   0.211  0.5750 -0.6436  0.4537
24816SOL    HW276188   6.276   4.089   0.145 -0.1820 -1.5514  0.5952
24817SOL     OW76189   6.904   7.769   7.619 -0.1718 -0.2383 -0.5424
24817SOL    HW176190   6.856   7.695   7.584 -0.4696 -1.5020  2.2488
24817SOL    HW276191   6.962   7.731   7.685 -0.0690  1.9561  0.7336
24818SOL     OW76192   8.241   8.611   5.049 -0.0463 -0.0500  0.5975
24818SOL    HW176193   8.295   8.535   5.027 -2.3480 -1.2911 -1.0653
24818SOL    HW276194   8.209   8.592   5.137 -2.1177 -2.0334 -0.4945
24819SOL     OW76195   9.593   5.009   8.733 -0.0450  0.7454  0.5580
24819SOL    HW176196   9.669   4.974   8.686 -0.9575  1.7571 -1.8311
24819SOL    HW276197   9.619   5.096   8.761 -0.7735  1.8358 -1.8375
24820SOL     OW76198   1.602   4.856   8.908 -0.3009 -0.5025  0.7494
24820SOL    HW176199   1.609   4.870   8.814  1.6347  0.6599  1.0151
24820SOL    HW276200   1.540   4.784   8.917 -1.6076  0.2794 -1.3286
24821SOL     OW76201   1.967   0.164   6.919 -0.3709  0.3221  0.3490
24821SOL    HW176202   2.056   0.195   6.936 -0.2801  0.2673 -0.0175
24821SOL    HW276203   1.965   0.148   6.824 -0.6006 -0.2128  0.4427
24822SOL     OW76204   1.840   0.711   5.003  0.0139  0.2332 -0.0057
24822SOL    HW176205   1.866   0.760   4.925  1.5710 -1.7895 -0.8556
24822SOL    HW276206   1.781   0.644   4.970  2.1022 -1.7961  0.1556
24823SOL     OW76207   6.121   1.248   1.275  0.2285  0.5052 -0.0714
24823SOL    HW176208   6.204   1.245   1.323 -0.0036  0.0513  0.3182
24823SOL    HW276209   6.067   1.180   1.317  0.0336  0.0688 -1.0085
24824SOL     OW76210   5.183   1.910   4.120  0.0889  0.1276 -0.1012
24824SOL    HW176211   5.230   1.993   4.119  2.3281 -1.0714  0.2253
24824SOL    HW276212   5.243   1.848   4.160 -2.2274 -1.2871  1.4506
24825SOL     OW76213   5.807   4.125   3.966 -0.1088 -0.0124  0.5125
24825SOL    HW176214   5.785   4.116   4.058 -1.2365 -0.1842  0.2407
24825SOL    HW276215   5.790   4.217   3.946  0.9766  0.2398  0.6705
24826SOL     OW76216   6.147   0.534   1.338 -0.3815 -0.0389 -0.1590
24826SOL    HW176217   6.160   0.514   1.245 -0.6699  0.4549 -0.3137
24826SOL    HW276218   6.217   0.597   1.358  0.9956 -1.7080  0.5180
24827SOL     OW76219   0.051   6.520   8.657  0.0409  0.7567  0.0972
24827SOL    HW176220  -0.043   6.523   8.676 -0.5795 -2.7363 -1.6678
24827SOL    HW276221   0.057   6.484   8.569  3.0758  2.3069 -0.4567
24828SOL     OW76222   3.867   3.713   9.226 -0.4206  0.0715 -0.0933
24828SOL    HW176223   3.793   3.701   9.285 -1.4390  0.6259 -1.2107
24828SOL    HW276224   3.921   3.635   9.238 -0.5457  0.2202  1.6182
24829SOL     OW76225   9.462   3.924   3.432 -0.1687  0.2432 -0.2439
24829SOL    HW176226   9.408   3.913   3.510 -0.3225  1.9368 -0.0806
24829SOL    HW276227   9.420   3.994   3.383  0.8689  0.3522 -1.0156
24830SOL     OW76228   7.214   9.387   4.609 -0.2801  0.7549  0.3442
24830SOL    HW176229   7.299   9.346   4.627 -0.5222 -0.4767 -1.1323
24830SOL    HW276230   7.222   9.475   4.647  0.3952 -0.4371  3.2848
24831SOL     OW76231   3.405   0.327   8.409  0.2828 -0.1324  0.2135
24831SOL    HW176232   3.359   0.370   8.482 -0.6284 -0.5288 -0.1209
24831SOL    HW276233   3.348   0.339   8.334 -0.2325 -2.2987  0.1862
24832SOL     OW76234   7.494   0.768   3.919 -0.1304  0.2202  0.0568
24832SOL    HW176235   7.482   0.717   3.999 -0.8044  0.3752  0.0600
24832SOL    HW276236   7.447   0.849   3.934  1.3256  1.0733  0.2354
24833SOL     OW76237   3.871   1.654   4.756 -0.4066 -0.2445 -0.0713
24833SOL    HW176238   3.885   1.703   4.837 -0.4480  0.9256 -0.7561
24833SOL    HW276239   3.787   1.610   4.769 -1.0164  0.9123  0.0690
24834SOL     OW76240   8.283   3.374   8.480 -0.3846 -0.1185  0.2263
24834SOL    HW176241   8.362   3.340   8.522 -0.5741 -1.7330 -0.6404
24834SOL    HW276242   8.234   3.295   8.454 -0.4040  0.7882 -2.7480
24835SOL     OW76243   8.048   3.519   8.532 -0.2733  0.0299  0.5631
24835SOL    HW176244   8.001   3.543   8.452  0.9404  1.4606  0.2364
24835SOL    HW276245   8.128   3.478   8.501 -0.0246  0.1391  1.0520
24836SOL     OW76246   9.324   0.206   4.020 -0.0313  0.8152  0.2493
24836SOL    HW176247   9.302   0.222   4.112  0.4169  2.0414  0.1698
24836SOL    HW276248   9.331   0.111   4.013 -0.6046  0.6654  1.3538
24837SOL     OW76249   0.775   4.276   5.327 -0.5450  0.5192 -0.2929
24837SOL    HW176250   0.798   4.231   5.246  0.3879  0.6334 -0.0982
24837SOL    HW276251   0.684   4.250   5.343  0.3810 -2.6040  0.6623
24838SOL     OW76252   8.207   0.454   7.251  0.1989  0.2827  0.1099
24838SOL    HW176253   8.262   0.509   7.196 -0.3861  1.2364  0.4522
24838SOL    HW276254   8.130   0.508   7.269 -0.5184 -0.7657  0.2171
24839SOL     OW76255   5.717   1.976   1.907 -0.0062 -0.6552  0.3723
24839SOL    HW176256   5.640   2.007   1.956 -0.4489  0.7881 -1.1400
24839SOL    HW276257   5.792   2.001   1.961 -0.4734  1.1600  0.2454
24840SOL     OW76258   6.680   7.815   4.404 -0.1711 -0.3456 -0.5528
24840SOL    HW176259   6.677   7.902   4.364 -1.7160 -0.4120 -0.6363
24840SOL    HW276260   6.599   7.774   4.377 -0.7106 -0.8474  1.6419
24841SOL     OW76261   2.586   4.472   6.655 -1.0088 -0.5430  0.8539
24841SOL    HW176262   2.503   4.460   6.701 -1.8730  3.2719  0.6373
24841SOL    HW276263   2.636   4.532   6.710  0.9961 -1.5737  0.2406
24842SOL     OW76264   4.118   7.388   3.770  0.5413  0.0069  0.1879
24842SOL    HW176265   4.191   7.423   3.822 -0.1540  0.5594  0.8075
24842SOL    HW276266   4.040   7.411   3.820  0.0680 -3.6725  1.4488
24843SOL     OW76267   6.359   9.169   8.664 -0.4573 -0.7611 -0.3853
24843SOL    HW176268   6.376   9.165   8.570 -1.3226 -1.8554 -0.5242
24843SOL    HW276269   6.336   9.260   8.681 -0.8378 -0.6654 -1.3449
24844SOL     OW76270   0.023   5.938   3.934 -0.1411  0.3714  0.0004
24844SOL    HW176271  -0.040   5.979   3.993  0.2042  0.3931  0.3558
24844SOL    HW276272   0.009   5.844   3.946 -0.7076  0.3750 -0.5729
24845SOL     OW76273   8.743   1.258   7.061 -0.2087 -0.1634  0.0425
24845SOL    HW176274   8.808   1.325   7.037  0.6694 -0.8332  0.4860
24845SOL    HW276275   8.792   1.195   7.113 -1.1269 -0.9280  0.0088
24846SOL     OW76276   2.848   0.021   8.056  0.0124 -0.2414  0.1726
24846SOL    HW176277   2.880   0.055   7.972  2.1000 -2.1112  0.1245
24846SOL    HW276278   2.923   0.030   8.115 -0.6596 -1.1484  1.1919
24847SOL     OW76279   1.026   4.857   9.147 -0.6719  0.4403  0.3136
24847SOL    HW176280   1.108   4.905   9.142 -0.7143  0.4679 -0.0927
24847SOL    HW276281   1.040   4.793   9.217 -0.5758  0.9632  0.7872
24848SOL     OW76282   5.977   2.724   4.834 -0.1377 -0.0229  0.7185
24848SOL    HW176283   5.940   2.806   4.801 -0.4191 -0.7963 -1.0009
24848SOL    HW276284   6.064   2.748   4.866  0.2032  0.7781 -0.7355
24849SOL     OW76285   7.992   4.274   0.051 -0.1237 -0.0372 -0.6579
24849SOL    HW176286   8.032   4.227  -0.022 -0.0303 -0.7128 -0.1825
24849SOL    HW276287   7.950   4.206   0.103 -0.0290  0.4086  0.0169
24850SOL     OW76288   7.670   5.438   2.754 -0.2719 -0.2487  0.3411
24850SOL    HW176289   7.577   5.455   2.745 -0.3620 -1.3574 -1.1225
24850SOL    HW276290   7.689   5.372   2.688  1.6086  0.1302  0.4499
24851SOL     OW76291   8.175   8.987   0.662 -0.2396 -0.1147 -0.0844
24851SOL    HW176292   8.186   8.961   0.753 -0.3512 -1.4851 -0.4516
24851SOL    HW276293   8.121   8.919   0.623  0.6130 -0.0769 -1.4129
24852SOL     OW76294   3.091   4.760   0.762 -0.0298 -0.9496  0.0293
24852SOL    HW176295   3.183   4.765   0.787 -0.1417  0.7466  0.2067
24852SOL    HW276296   3.050   4.833   0.806 -1.1011 -0.5390 -1.5550
24853SOL     OW76297   0.640   0.622   3.467 -0.0578 -0.0899 -0.5870
24853SOL    HW176298   0.642   0.706   3.512  0.7818 -0.8142  0.7885
24853SOL    HW276299   0.723   0.579   3.491 -1.1052 -1.9260 -0.0362
24854SOL     OW76300   0.624   1.161   8.425  0.2599 -0.1029  0.3898
24854SOL    HW176301   0.542   1.115   8.442  1.0819 -1.7356  0.1626
24854SOL    HW276302   0.681   1.094   8.385  1.2736  1.3159 -0.6296
24855SOL     OW76303   1.556   4.296   4.657  0.8574  0.1761 -0.2727
24855SOL    HW176304   1.632   4.337   4.700 -0.1140  1.6576  0.1140
24855SOL    HW276305   1.489   4.292   4.726  0.2792 -0.2278 -0.8496
24856SOL     OW76306   0.556   3.273   7.975 -0.1287  0.9717  0.1940
24856SOL    HW176307   0.513   3.244   8.056  0.7603  0.7528  0.6018
24856SOL    HW276308   0.546   3.199   7.915  3.4265 -0.9968  1.7029
24857SOL     OW76309   7.504   2.051   3.037  0.6526  0.3477  0.1176
24857SOL    HW176310   7.587   2.098   3.036 -0.2103  1.9673  0.8366
24857SOL    HW276311   7.489   2.031   3.130  0.5897 -0.6090 -0.0873
24858SOL     OW76312   3.559   8.888   4.341 -0.6651  0.0262  0.1480
24858SOL    HW176313   3.635   8.867   4.287 -0.2898  0.2957  0.5657
24858SOL    HW276314   3.585   8.967   4.389 -1.3031  0.2651  0.1076
24859SOL     OW76315   5.864   7.890   4.656  0.0525 -0.3663 -0.2689
24859SOL    HW176316   5.890   7.851   4.739 -1.5066 -0.3273  0.2833
24859SOL    HW276317   5.796   7.953   4.680  2.0919  2.3658 -1.1909
24860SOL     OW76318   2.295   9.155   0.509  0.4295  0.2091  0.0874
24860SOL    HW176319   2.377   9.116   0.479  0.2401 -1.6574  1.7250
24860SOL    HW276320   2.318   9.244   0.533  2.1654 -0.4527  1.0793
24861SOL     OW76321   4.072   1.508   3.549  0.2931  0.3677  0.9317
24861SOL    HW176322   4.068   1.483   3.457  0.5301  0.2414  0.9540
24861SOL    HW276323   4.098   1.428   3.595  0.1290  0.4174  1.1140
24862SOL     OW76324   0.099   0.920   0.661  0.4654 -0.0176 -0.1819
24862SOL    HW176325   0.082   0.947   0.571  0.2052  2.0768  0.4446
24862SOL    HW276326   0.014   0.888   0.693  0.1243  0.8515 -0.1808
24863SOL     OW76327   5.028   4.252   8.475 -0.5983 -0.0210 -0.3807
24863SOL    HW176328   5.076   4.303   8.409  0.7068 -0.5499  0.1175
24863SOL    HW276329   5.049   4.294   8.558  2.0205 -2.2992  0.2854
24864SOL     OW76330   8.248   4.183   1.913  0.3214  0.0049 -0.3214
24864SOL    HW176331   8.177   4.202   1.852  0.2136 -0.3771 -0.3188
24864SOL    HW276332   8.324   4.167   1.857  0.8502  2.1330 -0.2793
24865SOL     OW76333   7.137   1.961   1.487 -0.0573 -0.0267  0.3571
24865SOL    HW176334   7.206   1.894   1.485 -0.5697 -0.5606 -1.7807
24865SOL    HW276335   7.173   2.034   1.437  0.0377  0.8684  1.6852
24866SOL     OW76336   7.333   5.403   4.736  0.5780 -0.4741  0.0972
24866SOL    HW176337   7.250   5.371   4.700  0.2258 -1.2377  1.5128
24866SOL    HW276338   7.358   5.337   4.801  1.1942  0.8108  1.2153
24867SOL     OW76339   8.783   3.113   9.232  0.0205  0.3907 -0.1351
24867SOL    HW176340   8.824   3.058   9.165  0.1233 -1.6131  1.4814
24867SOL    HW276341   8.691   3.120   9.204 -0.4501 -2.1972  0.4981
24868SOL     OW76342   4.716   4.296   3.332 -0.5462 -0.1178  0.5199
24868SOL    HW176343   4.773   4.372   3.330 -0.6382 -0.0665 -1.5106
24868SOL    HW276344   4.670   4.303   3.416  2.3651 -0.1707  2.2709
24869SOL     OW76345   9.025   5.563   1.303 -0.1061 -0.1469 -0.1588
24869SOL    HW176346   9.105   5.596   1.262  0.7226  0.3522  1.7720
24869SOL    HW276347   8.955   5.590   1.243  1.0312  0.6224 -1.1924
24870SOL     OW76348   3.017   2.025   6.335 -0.1121 -0.0378  0.1618
24870SOL    HW176349   2.944   2.045   6.394 -2.5377 -2.0555 -1.8713
24870SOL    HW276350   3.084   1.986   6.391 -1.8396 -0.8642  1.7404
24871SOL     OW76351   8.099   3.009   8.062  0.4383 -0.2391 -0.4533
24871SOL    HW176352   8.026   3.062   8.094  1.5591  0.6206  0.7402
24871SOL    HW276353   8.173   3.069   8.059  1.7292 -1.6854  0.8587
24872SOL     OW76354   2.780   3.145   5.835  0.0910  0.2833 -0.2765
24872SOL    HW176355   2.733   3.115   5.757 -0.0577 -0.7230  0.1876
24872SOL    HW276356   2.720   3.208   5.875 -1.3099 -1.5921  0.7614
24873SOL     OW76357   7.503   7.219   1.424  0.3161 -0.2212  0.3631
24873SOL    HW176358   7.580   7.264   1.457 -0.5507  0.6770  1.2229
24873SOL    HW276359   7.435   7.236   1.489 -0.6745 -0.7914 -0.4849
24874SOL     OW76360   3.403   3.865   2.571 -0.1253 -0.1201  0.3881
24874SOL    HW176361   3.350   3.790   2.596  0.6665 -0.2734  1.6629
24874SOL    HW276362   3.493   3.833   2.571  0.0384  0.1606 -1.6553
24875SOL     OW76363   1.781   5.628   2.704 -0.7661 -0.0482  0.1196
24875SOL    HW176364   1.808   5.542   2.734  0.4010  0.4808  0.6656
24875SOL    HW276365   1.861   5.681   2.708 -0.9121  0.4840 -2.4071
24876SOL     OW76366   5.953   5.833   0.048  0.0876  0.1463 -0.3515
24876SOL    HW176367   6.030   5.887   0.066  1.2411 -1.5212 -0.0598
24876SOL    HW276368   5.979   5.779  -0.027 -1.4012  0.6626 -1.2792
24877SOL     OW76369   9.387   8.290   7.814  0.2960 -0.2918 -0.9664
24877SOL    HW176370   9.324   8.219   7.831  1.2858 -0.8092  0.7761
24877SOL    HW276371   9.393   8.294   7.719 -2.1301 -0.4189 -1.1938
24878SOL     OW76372   5.968   8.702   8.334 -0.2199  0.4920  0.2127
24878SOL    HW176373   5.905   8.638   8.301  0.5619 -0.9696  1.4203
24878SOL    HW276374   6.024   8.720   8.259 -1.4403  1.0541 -0.6035
24879SOL     OW76375   7.031   9.323   8.661 -0.2888  0.4722 -0.1858
24879SOL    HW176376   6.994   9.244   8.702  1.9076 -0.5193  0.0428
24879SOL    HW276377   7.027   9.390   8.729  0.8574 -0.4189  0.8098
24880SOL     OW76378   4.095   8.064   0.260  0.0349 -0.3963 -0.0544
24880SOL    HW176379   4.018   8.099   0.305  0.4578  0.1942  0.2239
24880SOL    HW276380   4.074   8.071   0.167 -0.2601 -0.2616  0.0214
24881SOL     OW76381   6.427   9.467   1.445  0.5441  0.2251  0.2515
24881SOL    HW176382   6.455   9.552   1.477  0.9408 -0.1932  1.0568
24881SOL    HW276383   6.496   9.407   1.474 -0.2063 -0.5144  0.5514
24882SOL     OW76384   2.013   5.017   2.048 -0.3115 -0.0241 -0.4133
24882SOL    HW176385   2.106   5.035   2.059 -0.4074  0.3183 -0.1390
24882SOL    HW276386   1.979   5.093   2.000 -0.3241 -0.4636 -1.1146
24883SOL     OW76387   5.740   4.230   3.145 -0.0102 -0.7454 -0.4527
24883SOL    HW176388   5.678   4.275   3.088 -0.7340  0.5918  1.2805
24883SOL    HW276389   5.687   4.166   3.192  0.4455 -1.3594 -0.7603
24884SOL     OW76390   8.297   4.134   5.591 -0.1507  0.8505 -0.4388
24884SOL    HW176391   8.207   4.112   5.566  0.6661 -0.5610 -2.3799
24884SOL    HW276392   8.294   4.143   5.686 -2.1401 -0.1936 -0.3491
24885SOL     OW76393   7.937   6.651   8.697 -0.3035 -0.1931 -0.5006
24885SOL    HW176394   7.989   6.663   8.776 -1.2289 -0.5944  0.1846
24885SOL    HW276395   7.962   6.565   8.664 -1.9501 -1.2993  0.9563
24886SOL     OW76396   6.739   3.699   1.829 -0.3623 -0.2759 -0.3403
24886SOL    HW176397   6.693   3.708   1.912  1.3472  0.1399  0.6072
24886SOL    HW276398   6.747   3.605   1.816 -1.3146 -0.3518 -0.4454
24887SOL     OW76399   2.559   2.250   5.848  0.1191 -0.5262  0.1325
24887SOL    HW176400   2.501   2.321   5.874  0.2722 -0.8058  1.2946
24887SOL    HW276401   2.585   2.271   5.758 -1.1015  0.0410 -0.1040
24888SOL     OW76402   6.594   5.408   5.016 -0.5480  0.2594 -0.2828
24888SOL    HW176403   6.675   5.457   5.003 -0.3983  0.5179  1.4016
24888SOL    HW276404   6.524   5.466   4.985 -0.1578  0.2836 -1.1454
24889SOL     OW76405   6.707   0.778   3.673  0.1609 -0.3762  0.3681
24889SOL    HW176406   6.630   0.827   3.644 -1.3470 -1.8217  1.7406
24889SOL    HW276407   6.723   0.715   3.602 -0.9067 -1.0991  0.7462
24890SOL     OW76408   8.175   6.664   7.722 -0.0349 -0.3313  0.5020
24890SOL    HW176409   8.085   6.648   7.750 -0.0269  0.3896  0.9706
24890SOL    HW276410   8.189   6.757   7.740  0.8500 -0.4729  0.5682
24891SOL     OW76411   5.633   3.706   1.909 -0.2814  0.0121 -0.0729
24891SOL    HW176412   5.585   3.778   1.951 -1.1284 -0.7389  0.2836
24891SOL    HW276413   5.716   3.702   1.957 -1.1082 -0.6365  1.3957
24892SOL     OW76414   8.439   7.526   6.200  0.3163 -0.3876  0.1114
24892SOL    HW176415   8.385   7.588   6.150 -2.1732 -1.9181  0.6938
24892SOL    HW276416   8.509   7.501   6.139 -0.4659  0.5946 -1.2491
24893SOL     OW76417   1.537   8.183   6.915  0.2055 -0.6678 -0.4740
24893SOL    HW176418   1.506   8.252   6.974  2.5017 -1.0128  1.2906
24893SOL    HW276419   1.489   8.198   6.834 -2.8099  0.1216  1.2718
24894SOL     OW76420   9.591   4.778   1.230  0.1796  0.2209  0.2306
24894SOL    HW176421   9.570   4.871   1.226  1.1023  0.5003  1.3086
24894SOL    HW276422   9.654   4.764   1.159  0.1567  0.4451  0.1676
24895SOL     OW76423   1.995   1.005   5.368 -0.5332 -0.3734 -0.4687
24895SOL    HW176424   1.957   1.086   5.335 -0.8093 -0.8936 -1.4903
24895SOL    HW276425   1.938   0.936   5.334 -0.5918 -0.9754  0.7916
24896SOL     OW76426   2.029   1.274   1.674 -0.1329 -0.3824 -0.0160
24896SOL    HW176427   1.986   1.193   1.647 -0.0249 -0.0975 -1.0811
24896SOL    HW276428   2.114   1.273   1.630 -0.4807  0.7077 -0.7602
24897SOL     OW76429   2.315   8.231   6.326  0.3882  0.5915  0.1635
24897SOL    HW176430   2.365   8.202   6.249  0.7826  0.2868  0.5326
24897SOL    HW276431   2.224   8.208   6.306  0.6944 -1.0812  0.5114
24898SOL     OW76432   2.056   7.333   9.353 -0.0496 -0.2248  0.3613
24898SOL    HW176433   2.062   7.427   9.368  0.7085 -0.3645  0.9931
24898SOL    HW276434   2.110   7.294   9.421  0.7276 -1.0562 -0.6846
24899SOL     OW76435   7.622   2.225   6.740  0.5773  0.5316  0.1197
24899SOL    HW176436   7.540   2.273   6.753  0.6194  0.7389 -0.3799
24899SOL    HW276437   7.601   2.159   6.674  0.8256  0.6150 -0.0430
24900SOL     OW76438   7.294   7.820   8.198  0.4346 -0.3268 -0.1124
24900SOL    HW176439   7.254   7.852   8.118  0.4968 -0.7248 -0.3073
24900SOL    HW276440   7.309   7.898   8.251 -1.0507 -0.1975  0.1724
24901SOL     OW76441   9.028   1.777   1.779  0.8575  0.3322  0.0738
24901SOL    HW176442   9.034   1.683   1.798 -0.0990  0.3854  0.6948
24901SOL    HW276443   8.986   1.814   1.857 -0.8422  0.9394 -1.0774
24902SOL     OW76444   7.885   8.020   3.078 -0.2933 -0.2358 -0.3661
24902SOL    HW176445   7.920   7.931   3.075  0.1979 -0.1994  1.9466
24902SOL    HW276446   7.961   8.076   3.094 -0.6449  0.5633 -1.4024
24903SOL     OW76447   1.912   6.150   3.268  0.1636 -0.4129 -0.0875
24903SOL    HW176448   1.929   6.087   3.198 -1.0784 -0.5129 -0.3219
24903SOL    HW276449   1.859   6.102   3.332  0.3857 -0.0133  0.4046
24904SOL     OW76450   5.945   4.197   8.625  0.3251  0.0374  0.3251
24904SOL    HW176451   5.989   4.280   8.603 -1.0263  1.5456  2.8224
24904SOL    HW276452   5.970   4.181   8.716  0.4317 -2.2845 -0.0657
24905SOL     OW76453   0.262   3.081   6.168  0.0783  0.2581 -0.7304
24905SOL    HW176454   0.348   3.063   6.130 -0.1408 -1.0457 -0.6757
24905SOL    HW276455   0.261   3.175   6.182  1.0171  0.4746 -1.8975
24906SOL     OW76456   8.604   4.753   1.907  0.3689  0.4458 -0.3694
24906SOL    HW176457   8.668   4.682   1.911 -0.3559 -0.2037  0.1379
24906SOL    HW276458   8.616   4.792   1.821  0.8832 -0.2033 -0.5988
24907SOL     OW76459   9.231   1.603   0.242 -0.9005 -0.1844 -0.3595
24907SOL    HW176460   9.303   1.666   0.253 -0.5111 -0.6544 -0.1664
24907SOL    HW276461   9.199   1.589   0.331 -0.8471 -0.4219 -0.3791
24908SOL     OW76462   5.974   5.826   7.910 -0.1265 -0.5042 -0.1028
24908SOL    HW176463   5.884   5.819   7.943 -0.6554  0.3138 -1.3035
24908SOL    HW276464   5.988   5.745   7.861  0.3487 -1.3186  1.3155
24909SOL     OW76465   3.170   5.717   9.094  0.4743  0.2593 -0.4792
24909SOL    HW176466   3.261   5.703   9.123  0.8649 -0.7845 -2.1099
24909SOL    HW276467   3.160   5.661   9.017 -2.3740 -1.7080  1.1358
24910SOL     OW76468   5.948   0.239   5.218  0.3195 -0.2608 -0.0249
24910SOL    HW176469   5.984   0.315   5.262 -0.0608 -0.2669  0.3016
24910SOL    HW276470   5.919   0.181   5.289 -0.2646 -0.2835 -0.2763
24911SOL     OW76471   4.557   6.078   5.348 -0.0226 -0.0100 -0.5194
24911SOL    HW176472   4.463   6.070   5.333 -0.0107  0.5524 -0.9182
24911SOL    HW276473   4.586   5.989   5.368 -0.8036 -0.0483  0.5805
24912SOL     OW76474   4.988   6.559   6.031  0.0706  0.2735  0.2566
24912SOL    HW176475   5.054   6.496   6.001  1.2628  0.5450  2.0940
24912SOL    HW276476   4.904   6.514   6.020  0.9558 -2.2774  2.7171
24913SOL     OW76477   3.969   1.885   5.277 -0.2270 -0.1427  0.4159
24913SOL    HW176478   4.023   1.880   5.198 -0.8686 -2.5187  0.0496
24913SOL    HW276479   3.960   1.979   5.294  1.7045  0.3789 -1.0755
24914SOL     OW76480   1.855   4.873   6.815  0.1320 -0.0421 -0.0059
24914SOL    HW176481   1.928   4.919   6.774  0.5595  0.1044  0.9133
24914SOL    HW276482   1.871   4.780   6.796  0.3162  0.0248 -0.1794
24915SOL     OW76483   6.761   0.490   9.297  0.3914  0.2808  0.4202
24915SOL    HW176484   6.688   0.476   9.236  0.5856  2.4425 -0.3852
24915SOL    HW276485   6.729   0.455   9.380 -1.1290  0.1461 -0.1742
24916SOL     OW76486   9.401   3.865   1.743 -0.0504  0.3737  0.0204
24916SOL    HW176487   9.433   3.938   1.796 -0.7359  0.9594 -0.3613
24916SOL    HW276488   9.477   3.836   1.693  0.1181  1.1364 -0.1735
24917SOL     OW76489   2.238   3.533   4.279  0.4245  0.5395 -0.0065
24917SOL    HW176490   2.195   3.449   4.260 -0.6868  0.9995  0.3878
24917SOL    HW276491   2.315   3.509   4.331  0.5889 -0.2981 -0.6084
24918SOL     OW76492   3.996   1.188   4.122 -0.3042  0.3707 -0.0768
24918SOL    HW176493   3.996   1.172   4.216  0.5405  0.8231  0.0080
24918SOL    HW276494   3.965   1.106   4.083  0.5258 -0.2409  0.5304
24919SOL     OW76495   6.893   3.839   5.615  0.0385 -0.5875 -0.4741
24919SOL    HW176496   6.942   3.772   5.662 -0.1676 -0.1477  0.3928
24919SOL    HW276497   6.951   3.867   5.545  0.3898 -1.2013 -0.4319
24920SOL     OW76498   6.032   8.336   6.529 -0.1468 -0.4027  0.8272
24920SOL    HW176499   6.082   8.279   6.471  1.7929  2.2467 -0.3118
24920SOL    HW276500   5.970   8.380   6.471  0.4055  0.7574  1.0856
24921SOL     OW76501   4.026   4.671   0.035  0.2246  0.1173 -0.1649
24921SOL    HW176502   4.024   4.626  -0.049 -0.5353 -1.5136  0.6769
24921SOL    HW276503   4.060   4.606   0.096  1.3398  1.4620  0.6992
24922SOL     OW76504   3.384   0.745   7.638  0.1795 -0.5959  0.4935
24922SOL    HW176505   3.407   0.804   7.566  1.3568 -1.0324  0.4845
24922SOL    HW276506   3.313   0.691   7.603 -0.1386  0.0551  0.1107
24923SOL     OW76507   7.038   6.927   8.361  0.3072  0.4264  0.1995
24923SOL    HW176508   6.967   6.949   8.421  0.9970  2.0734  0.4696
24923SOL    HW276509   6.997   6.923   8.275 -0.4472 -0.6206  0.5849
24924SOL     OW76510   3.548   7.581   5.578  0.2688 -0.1968  0.6441
24924SOL    HW176511   3.566   7.493   5.612  0.5971 -0.9096 -1.2540
24924SOL    HW276512   3.482   7.568   5.511 -1.2767  1.3382  1.7910
24925SOL     OW76513   2.189   4.028   6.221  0.3793  0.1113  0.6709
24925SOL    HW176514   2.203   4.120   6.240  1.0319  0.8068 -2.5551
24925SOL    HW276515   2.100   4.010   6.250  0.1110  1.8385  1.0180
24926SOL     OW76516   4.042   7.771   3.085  0.0893 -0.5064  0.4396
24926SOL    HW176517   4.132   7.797   3.107  0.9484 -2.2810 -0.7579
24926SOL    HW276518   4.037   7.678   3.111 -0.7607 -0.9695 -1.2718
24927SOL     OW76519   9.168   2.067   3.492 -0.9029  0.3179 -0.4223
24927SOL    HW176520   9.151   2.159   3.472  1.2227  1.4887  2.4107
24927SOL    HW276521   9.109   2.047   3.565 -1.6734 -0.7680 -1.3045
24928SOL     OW76522   0.920   6.456   2.884  0.0393  0.4078  0.3142
24928SOL    HW176523   0.854   6.520   2.910 -1.6763 -1.5354  1.0413
24928SOL    HW276524   0.928   6.398   2.960 -0.0671 -1.4659 -1.0260
24929SOL     OW76525   1.161   4.511   3.838  1.0552 -0.4079  0.0718
24929SOL    HW176526   1.159   4.588   3.896  0.1897 -0.6346  0.3658
24929SOL    HW276527   1.179   4.438   3.897  0.0707 -0.6547  0.0993
24930SOL     OW76528   6.288   3.983   2.716  0.5445  0.5066  0.1182
24930SOL    HW176529   6.333   3.946   2.640 -2.4639  1.6839 -2.4936
24930SOL    HW276530   6.273   4.075   2.692  0.2003  1.1323  2.5335
24931SOL     OW76531   2.348   4.023   8.144 -0.1877 -0.1842  0.3157
24931SOL    HW176532   2.393   3.955   8.196  0.8041  0.5814  0.4960
24931SOL    HW276533   2.277   4.053   8.200  1.4792  1.3455  1.7145
24932SOL     OW76534   2.809   1.952   7.432  0.0318 -0.3588  0.5705
24932SOL    HW176535   2.832   2.025   7.489  2.3903  0.9787 -1.8331
24932SOL    HW276536   2.760   1.991   7.360  0.4929 -1.2613 -0.2719
24933SOL     OW76537   5.876   5.299   7.602 -0.1146 -0.4749  0.1778
24933SOL    HW176538   5.963   5.282   7.567  0.5708 -0.4642  1.7932
24933SOL    HW276539   5.883   5.280   7.696 -0.4951  3.9671  1.3656
24934SOL     OW76540   6.473   7.027   4.354 -0.4445  0.1814 -0.2241
24934SOL    HW176541   6.541   7.092   4.371  0.1087 -0.4813  0.1598
24934SOL    HW276542   6.400   7.054   4.410 -0.2915  0.5755 -0.2069
24935SOL     OW76543   6.110   2.742   3.087 -0.0255 -0.4715  0.5065
24935SOL    HW176544   6.052   2.716   3.158 -0.2191 -1.5096 -0.0148
24935SOL    HW276545   6.140   2.659   3.048  1.9176  0.0106  0.8448
24936SOL     OW76546   3.346   6.269   3.914  0.0519  0.1918  0.2498
24936SOL    HW176547   3.384   6.185   3.941  0.6795  0.2706 -0.3558
24936SOL    HW276548   3.421   6.327   3.906 -0.0032  0.0198 -2.2265
24937SOL     OW76549   3.717   7.818   1.788 -0.1619 -0.4046 -0.2094
24937SOL    HW176550   3.810   7.831   1.806 -0.3208 -0.4231  0.6717
24937SOL    HW276551   3.679   7.906   1.794 -0.5149 -0.6204  1.4447
24938SOL     OW76552   2.397   6.715   8.491 -0.7008 -0.1227 -0.0624
24938SOL    HW176553   2.368   6.738   8.402  0.3761  0.8301 -0.1932
24938SOL    HW276554   2.385   6.796   8.541 -0.1875 -0.3085  0.3658
24939SOL     OW76555   9.245   0.238   1.218 -0.2018  0.0287  0.6446
24939SOL    HW176556   9.213   0.297   1.287 -0.2740  0.0626  0.5820
24939SOL    HW276557   9.179   0.244   1.149 -0.3545 -0.3441  0.7588
24940SOL     OW76558   2.172   6.162   6.114  0.6782  0.7942  0.0581
24940SOL    HW176559   2.094   6.110   6.132 -1.0006  2.4210 -1.8187
24940SOL    HW276560   2.159   6.243   6.164 -0.3702  2.2481 -2.3596
24941SOL     OW76561   7.647   3.413   7.720 -0.5209 -0.0736  0.0765
24941SOL    HW176562   7.565   3.387   7.762 -0.4806 -0.6122 -0.1692
24941SOL    HW276563   7.637   3.506   7.703 -0.4991  0.1735  1.3570
24942SOL     OW76564   6.170   3.038   0.832  0.2652 -0.1426  0.0687
24942SOL    HW176565   6.183   3.043   0.927 -1.7808  1.3655  0.3427
24942SOL    HW276566   6.123   2.955   0.819 -2.2002  1.0415  0.8352
24943SOL     OW76567   1.425   8.449   2.052 -0.4951  0.1307 -0.1981
24943SOL    HW176568   1.494   8.383   2.048  0.4535  1.1378 -2.5182
24943SOL    HW276569   1.343   8.400   2.040  0.1328 -0.7090 -1.1903
24944SOL     OW76570   7.181   8.353   4.576  0.0457 -0.2863 -0.1671
24944SOL    HW176571   7.259   8.318   4.618 -0.6508 -2.6623 -0.7140
24944SOL    HW276572   7.131   8.393   4.648  0.3239 -1.5047  0.7238
24945SOL     OW76573   5.526   1.127   6.060 -0.2245  0.1012  0.0154
24945SOL    HW176574   5.529   1.102   6.152  0.9686  1.0831  0.2629
24945SOL    HW276575   5.484   1.052   6.016  1.0429 -1.2866  1.0657
24946SOL     OW76576   3.463   7.383   3.221  0.3201  0.5452  0.5974
24946SOL    HW176577   3.524   7.326   3.267  1.2203  0.3917 -0.7237
24946SOL    HW276578   3.403   7.414   3.289 -0.4207 -2.1953  1.3096
24947SOL     OW76579   5.644   7.297   1.295 -0.0576  0.1239  0.0421
24947SOL    HW176580   5.662   7.205   1.316  0.8153  0.1207 -0.6714
24947SOL    HW276581   5.566   7.318   1.346 -0.8705 -1.3074 -0.5378
24948SOL     OW76582   7.441   5.328   3.586 -0.5983 -0.2488 -0.6696
24948SOL    HW176583   7.400   5.305   3.669  1.2041 -2.3213 -0.2716
24948SOL    HW276584   7.417   5.257   3.526  0.1734 -0.1023 -1.1814
24949SOL     OW76585   4.640   3.167   8.978  0.2635  0.0767  0.2972
24949SOL    HW176586   4.603   3.186   9.065  1.2283  1.4317  0.4461
24949SOL    HW276587   4.611   3.240   8.923  1.4207  0.3449  0.0293
24950SOL     OW76588   7.421   9.519   9.598 -0.0634 -0.6470 -0.1573
24950SOL    HW176589   7.335   9.484   9.574 -0.3454  0.1877 -0.3868
24950SOL    HW276590   7.408   9.614   9.604  0.4086 -0.6566  1.5948
24951SOL     OW76591   7.865   7.431   7.445  0.2872  0.3367 -0.2443
24951SOL    HW176592   7.787   7.398   7.490 -0.7041  1.7317 -0.8925
24951SOL    HW276593   7.878   7.370   7.372  1.3875 -1.4241  1.3254
24952SOL     OW76594   6.421   1.254   4.641  0.2013 -0.2414 -0.0455
24952SOL    HW176595   6.400   1.341   4.675 -2.3583 -1.3496  1.5369
24952SOL    HW276596   6.397   1.258   4.548 -3.6698 -0.1975  0.7774
24953SOL     OW76597   1.477   5.642   7.835  0.9424  0.3486 -0.0296
24953SOL    HW176598   1.423   5.563   7.827 -0.1986  0.9990  0.8845
24953SOL    HW276599   1.491   5.670   7.745 -3.3295  2.1120 -0.4061
24954SOL     OW76600   0.619   7.344   5.347  0.0243  1.0637  0.4750
24954SOL    HW176601   0.587   7.271   5.399  0.5591  0.6270  0.1970
24954SOL    HW276602   0.714   7.338   5.351  0.0833  1.0421 -0.5095
24955SOL     OW76603   7.312   2.847   3.294  0.4666  0.3177  0.1366
24955SOL    HW176604   7.264   2.916   3.340  0.4527  0.7976 -0.5742
24955SOL    HW276605   7.249   2.810   3.232  0.6745  0.1536  0.0201
24956SOL     OW76606   4.572   9.300   4.047 -0.5426  0.2000  0.0487
24956SOL    HW176607   4.531   9.330   4.128  0.3073  0.6409  0.3289
24956SOL    HW276608   4.576   9.378   3.991 -0.3194  0.1078 -0.0682
24957SOL     OW76609   5.249   1.902   0.248 -0.3188 -0.0679  0.1856
24957SOL    HW176610   5.188   1.843   0.289 -0.8240  0.2487 -0.0999
24957SOL    HW276611   5.305   1.933   0.319  0.4406 -1.4526  0.2201
24958SOL     OW76612   0.544   7.823   6.379 -0.0645  0.7565  0.1535
24958SOL    HW176613   0.594   7.744   6.360 -1.6021  0.1277 -1.6345
24958SOL    HW276614   0.550   7.833   6.474  2.5498  0.1767  0.1054
24959SOL     OW76615   4.369   6.632   9.360 -0.2254 -0.4355 -0.0115
24959SOL    HW176616   4.312   6.708   9.367  0.2213 -0.0049 -0.9139
24959SOL    HW276617   4.452   6.660   9.398  0.6022  0.2554 -2.1539
24960SOL     OW76618   5.956   5.136   5.076  0.4057  0.7802 -0.0483
24960SOL    HW176619   6.043   5.138   5.035 -0.1399  0.2546 -1.3075
24960SOL    HW276620   5.900   5.181   5.012 -0.5873 -0.5770 -0.1611
24961SOL     OW76621   9.366   3.872   2.868  0.0995  0.1841 -0.3478
24961SOL    HW176622   9.384   3.853   2.960 -0.2287 -0.3933 -0.3949
24961SOL    HW276623   9.425   3.813   2.820  1.0933  1.2833 -0.5237
24962SOL     OW76624   7.252   6.409   8.604  0.4215  0.8013  0.1853
24962SOL    HW176625   7.215   6.326   8.634  0.2956  0.9740  0.5215
24962SOL    HW276626   7.296   6.444   8.682  0.7034  0.9200 -0.0271
24963SOL     OW76627   1.531   7.730   0.908 -0.1294  0.0787  0.2402
24963SOL    HW176628   1.525   7.743   0.814 -1.0397  0.0202  0.2805
24963SOL    HW276629   1.454   7.775   0.943 -0.4009 -0.8433  0.8515
24964SOL     OW76630   1.435   3.990   4.322 -0.0305  1.2307  0.5857
24964SOL    HW176631   1.362   3.952   4.274  0.8636  0.5022 -0.2279
24964SOL    HW276632   1.395   4.028   4.401 -1.3732  1.5478 -0.2252
24965SOL     OW76633   6.417   2.762   2.508  0.3105  0.4919 -0.7109
24965SOL    HW176634   6.327   2.795   2.508  0.0579 -0.1599 -1.8899
24965SOL    HW276635   6.420   2.699   2.436  0.6510 -2.4227  1.6667
24966SOL     OW76636   8.529   3.712   8.765  0.4283 -0.0460 -0.2195
24966SOL    HW176637   8.542   3.738   8.674 -1.5188  2.9689  0.2134
24966SOL    HW276638   8.442   3.672   8.767 -0.1043  1.0917  0.4767
24967SOL     OW76639   1.286   6.994   2.696  0.2028 -0.1058  0.2040
24967SOL    HW176640   1.276   6.999   2.601  2.3086  1.0040 -0.0149
24967SOL    HW276641   1.246   7.074   2.729 -1.3795 -0.9291  0.3922
24968SOL     OW76642   2.454   6.332   7.512  0.2834 -0.7616 -0.4831
24968SOL    HW176643   2.515   6.286   7.570 -0.0746 -1.7981 -0.8901
24968SOL    HW276644   2.489   6.317   7.424 -0.9252 -2.0020 -0.7867
24969SOL     OW76645   3.531   7.916   3.897 -0.5166 -0.3890  0.3709
24969SOL    HW176646   3.613   7.953   3.931  1.0538 -1.6286 -1.8019
24969SOL    HW276647   3.527   7.946   3.806 -2.5608 -0.3026  0.4300
24970SOL     OW76648   3.223   6.776   0.966  0.8945 -0.1880 -0.2901
24970SOL    HW176649   3.213   6.784   0.872 -0.4470  1.2576 -0.0753
24970SOL    HW276650   3.184   6.691   0.987  1.0918 -0.4639 -1.0172
24971SOL     OW76651   5.030   3.487   5.746 -0.4171 -0.4202 -0.6297
24971SOL    HW176652   4.934   3.492   5.743 -0.4069  0.0213 -0.3596
24971SOL    HW276653   5.055   3.446   5.663 -0.7680  0.6469 -1.2814
24972SOL     OW76654   7.044   7.061   2.294  0.2591 -0.1684  0.1554
24972SOL    HW176655   7.114   7.125   2.282  1.2362 -1.4385 -1.3089
24972SOL    HW276656   6.977   7.088   2.231  0.5231 -0.3626 -0.2155
24973SOL     OW76657   1.239   2.065   8.803 -0.7912  0.2177 -0.3521
24973SOL    HW176658   1.326   2.025   8.802 -0.6365  0.5539 -0.5048
24973SOL    HW276659   1.246   2.137   8.866 -0.9969  0.1661 -0.2681
24974SOL     OW76660   2.713   1.380   3.033  0.1205 -0.5598  0.1460
24974SOL    HW176661   2.737   1.297   2.993 -0.4829 -0.4828 -0.3781
24974SOL    HW276662   2.619   1.374   3.047 -0.2639  0.7618 -1.6364
24975SOL     OW76663   3.576   6.787   0.714 -0.0365 -0.0892 -0.2848
24975SOL    HW176664   3.596   6.824   0.800 -0.4887 -1.3262  0.3835
24975SOL    HW276665   3.549   6.862   0.661 -0.8155  0.5621  0.9822
24976SOL     OW76666   4.172   9.467   3.465 -0.6397 -0.7580 -0.4922
24976SOL    HW176667   4.232   9.423   3.526 -0.8983 -2.0207 -1.1082
24976SOL    HW276668   4.144   9.397   3.405  0.5104  0.6198 -2.8020
24977SOL     OW76669   4.119   6.882   3.236 -0.7611 -0.4292  0.1647
24977SOL    HW176670   4.047   6.828   3.269 -0.1774 -2.5098 -1.7416
24977SOL    HW276671   4.076   6.960   3.202 -2.1065 -1.4402 -0.5692
24978SOL     OW76672   5.541   9.578   2.147  0.3330 -0.5937 -0.0189
24978SOL    HW176673   5.504   9.626   2.073  1.1419  0.4887  0.2460
24978SOL    HW276674   5.632   9.562   2.122  0.0399 -2.2124 -0.1789
24979SOL     OW76675   2.302   5.164   2.974 -0.1833  0.5689 -0.1591
24979SOL    HW176676   2.292   5.259   2.967  1.5049  0.6364 -2.6147
24979SOL    HW276677   2.394   5.147   2.954 -0.4835 -1.6161  0.0505
24980SOL     OW76678   3.622   8.899   5.269 -0.2171  0.6804 -0.0500
24980SOL    HW176679   3.546   8.920   5.323  0.0130 -1.3685  1.1594
24980SOL    HW276680   3.644   8.809   5.291  1.8856  0.8305 -1.2127
24981SOL     OW76681   0.130   2.956   2.063  0.1418  0.2687 -0.9447
24981SOL    HW176682   0.146   3.050   2.060 -1.0341  0.5407  0.1318
24981SOL    HW276683   0.107   2.939   2.155  0.5767 -1.1159 -1.0644
24982SOL     OW76684   3.582   8.879   7.860 -0.5697 -0.4624 -0.5433
24982SOL    HW176685   3.513   8.942   7.839  1.7973  3.0958  1.2984
24982SOL    HW276686   3.623   8.859   7.777 -1.1358  0.7938 -1.1522
24983SOL     OW76687   7.685   9.046   8.542 -0.0220 -0.3467 -0.0061
24983SOL    HW176688   7.661   8.961   8.579  1.1023 -0.4343  0.5700
24983SOL    HW276689   7.664   9.109   8.610  1.6429 -0.4635  0.6667
24984SOL     OW76690   3.268   7.546   8.599 -0.0584  0.2386 -0.0037
24984SOL    HW176691   3.307   7.459   8.612 -1.6788 -0.5560 -0.1312
24984SOL    HW276692   3.195   7.530   8.539 -1.2485  1.4536  1.0712
24985SOL     OW76693   5.687   3.078   6.162  0.1951 -0.0169 -0.2470
24985SOL    HW176694   5.745   3.125   6.102  0.6319 -0.2435 -0.0063
24985SOL    HW276695   5.737   3.071   6.243 -0.2516 -0.0321  0.0338
24986SOL     OW76696   1.356   8.081   9.589  0.3009 -0.2668 -0.5145
24986SOL    HW176697   1.357   8.058   9.496  2.1238  1.2415 -0.9233
24986SOL    HW276698   1.403   8.009   9.632 -2.9686 -2.4479 -0.2616
24987SOL     OW76699   1.990   4.082   8.617  0.3609 -0.3303  0.2671
24987SOL    HW176700   2.025   4.137   8.547  0.9506 -0.5038  0.4194
24987SOL    HW276701   2.040   4.001   8.610 -0.3528 -0.7699  0.1804
24988SOL     OW76702   0.816   7.468   8.343  0.3772 -0.1822  0.1061
24988SOL    HW176703   0.856   7.515   8.270 -2.3885 -0.8917 -2.0549
24988SOL    HW276704   0.790   7.384   8.306 -0.0111 -1.0839  2.2815
24989SOL     OW76705   4.897   8.025   3.750  0.1799 -0.2233 -0.0860
24989SOL    HW176706   4.837   8.028   3.824 -0.1854 -0.2217 -0.3823
24989SOL    HW276707   4.941   8.110   3.752  0.2805 -0.2825  0.2198
24990SOL     OW76708   7.734   3.572   7.129  0.1684 -0.0739  0.0035
24990SOL    HW176709   7.730   3.580   7.225  2.0183  1.0377  0.0236
24990SOL    HW276710   7.812   3.622   7.104 -0.3163 -0.3071 -2.1025
24991SOL     OW76711   5.909   9.514   2.805 -0.2790 -0.1038 -0.0903
24991SOL    HW176712   5.951   9.571   2.741 -1.7107  0.8338 -0.2450
24991SOL    HW276713   5.861   9.450   2.752 -0.6278  0.0388  0.0491
24992SOL     OW76714   5.586   1.735   3.131 -0.5992  0.2834 -0.3310
24992SOL    HW176715   5.620   1.668   3.190  1.1584  0.5884 -0.9633
24992SOL    HW276716   5.554   1.687   3.055 -0.6476  0.0617 -0.1700
24993SOL     OW76717   6.754   8.845   0.651  0.0186  0.1867  0.2059
24993SOL    HW176718   6.833   8.839   0.597  0.2376 -0.6874  0.6076
24993SOL    HW276719   6.786   8.877   0.736 -0.4020  2.1288 -0.3078
24994SOL     OW76720   4.980   4.006   3.330 -0.3376  0.1565 -0.2124
24994SOL    HW176721   5.006   4.041   3.415  1.7528  0.2478 -0.8295
24994SOL    HW276722   4.945   4.082   3.282  0.2423  0.5092 -0.0819
24995SOL     OW76723   1.553   1.290   8.655 -0.0783  0.2163  0.5316
24995SOL    HW176724   1.541   1.209   8.604  0.6991 -0.6043  1.5972
24995SOL    HW276725   1.591   1.260   8.738  0.3765  1.7010  0.8815
24996SOL     OW76726   2.978   7.010   7.173  0.2898 -0.2890  0.2704
24996SOL    HW176727   3.060   6.967   7.149 -1.0099 -2.0717 -1.2380
24996SOL    HW276728   2.980   7.012   7.269  1.8591 -0.7047  0.2767
24997SOL     OW76729   7.042   3.282   1.851  0.3861 -0.4387  0.7407
24997SOL    HW176730   7.085   3.198   1.871 -0.2636 -0.8710  0.3719
24997SOL    HW276731   7.069   3.300   1.761 -0.1109 -0.6572  0.5455
24998SOL     OW76732   6.542   1.989   1.210 -0.0128 -0.4729 -0.1477
24998SOL    HW176733   6.556   2.024   1.122  1.8889 -1.0308 -0.1207
24998SOL    HW276734   6.611   1.923   1.221  0.4258  0.2578  2.0947
24999SOL     OW76735   8.208   8.142   4.714  0.5339 -0.5491  0.0595
24999SOL    HW176736   8.115   8.126   4.730  0.5389 -0.1844  0.4561
24999SOL    HW276737   8.210   8.212   4.648  0.5233 -1.5304 -1.0073
25000SOL     OW76738   2.721   0.255   6.742 -0.0804 -0.1227 -0.0542
25000SOL    HW176739   2.728   0.214   6.828  1.1783 -0.7145 -0.4002
25000SOL    HW276740   2.728   0.349   6.759  0.1338 -0.2334  0.4919
25001SOL     OW76741   2.918   1.498   9.059 -0.0443 -0.3141 -0.4003
25001SOL    HW176742   2.842   1.466   9.107 -0.4716  2.0368  0.6378
25001SOL    HW276743   2.887   1.510   8.970 -0.0641 -1.9943 -0.6448
25002SOL     OW76744   6.179   3.983   7.088  0.3194  0.2585 -0.6963
25002SOL    HW176745   6.116   3.948   7.151 -0.9026  0.5229 -1.7305
25002SOL    HW276746   6.141   3.963   7.002  1.5579  0.5949 -1.3431
25003SOL     OW76747   1.125   1.754   4.858 -0.3661  0.1548 -0.9872
25003SOL    HW176748   1.042   1.788   4.893 -1.0112 -0.9732 -1.3636
25003SOL    HW276749   1.134   1.667   4.899  0.2490 -0.0390 -1.5295
25004SOL     OW76750   2.539   4.936   3.556  0.0795  0.0084  0.2756
25004SOL    HW176751   2.507   4.991   3.627  3.0028  1.0466  0.9269
25004SOL    HW276752   2.609   4.883   3.595  2.7453  1.5886 -1.9453
25005SOL     OW76753   4.547   9.196   6.652 -0.5064 -0.2116  0.6135
25005SOL    HW176754   4.642   9.207   6.653 -0.3177 -1.4192 -0.5963
25005SOL    HW276755   4.531   9.116   6.702 -0.8163 -0.3445  0.3100
25006SOL     OW76756   4.861   2.338   5.489 -0.4022  0.3077  0.6643
25006SOL    HW176757   4.768   2.359   5.483 -0.6541 -0.9454 -0.3108
25006SOL    HW276758   4.890   2.334   5.398  0.4104 -0.1400  0.9391
25007SOL     OW76759   2.905   3.047   7.783 -0.9815 -0.1214  0.0703
25007SOL    HW176760   2.844   2.976   7.805 -0.0014 -0.6034  1.3424
25007SOL    HW276761   2.991   3.004   7.777 -0.4749  0.8432  0.1998
25008SOL     OW76762   0.106   3.325   6.252  0.2327 -0.5711 -0.1156
25008SOL    HW176763   0.052   3.351   6.178  0.3180  1.2189  0.4129
25008SOL    HW276764   0.074   3.377   6.325  1.8899 -0.3170  0.4805
25009SOL     OW76765   4.752   7.337   6.206 -0.1264  0.0115 -0.2192
25009SOL    HW176766   4.729   7.279   6.133 -1.7163  0.9859 -0.5496
25009SOL    HW276767   4.757   7.424   6.167  2.0444  0.1793  0.3095
25010SOL     OW76768   9.163   6.313   8.669  0.4003 -0.3525 -0.0812
25010SOL    HW176769   9.142   6.254   8.596 -0.0155 -0.5003  0.1527
25010SOL    HW276770   9.080   6.356   8.690  1.0150  1.5121 -1.2758
25011SOL     OW76771   0.348   4.886   1.337  0.2456 -0.8104  0.7036
25011SOL    HW176772   0.364   4.960   1.278 -0.5939  0.0054  1.4643
25011SOL    HW276773   0.431   4.838   1.338  0.4712 -0.4849 -0.6298
25012SOL     OW76774   7.605   8.120   5.798 -0.0783 -0.3640 -0.1011
25012SOL    HW176775   7.618   8.095   5.889 -0.7116 -0.6126 -0.0735
25012SOL    HW276776   7.669   8.189   5.782 -2.1097  2.0913  1.5036
25013SOL     OW76777   3.597   3.525   6.538  0.1152 -0.4148  0.1608
25013SOL    HW176778   3.576   3.533   6.631  0.2557 -0.8704  0.2377
25013SOL    HW276779   3.605   3.430   6.523  0.7301 -0.3215 -0.1653
25014SOL     OW76780   7.299   2.859   5.308 -0.0922  0.5091  0.0259
25014SOL    HW176781   7.375   2.823   5.354  0.9118  1.6758 -0.6459
25014SOL    HW276782   7.336   2.926   5.250 -1.6411  1.0859 -0.3464
25015SOL     OW76783   1.756   6.330   1.267 -0.0042 -0.2325  0.1365
25015SOL    HW176784   1.793   6.376   1.192  0.4524 -1.3849 -0.3650
25015SOL    HW276785   1.788   6.379   1.343 -0.3704  0.8761 -0.3910
25016SOL     OW76786   6.003   7.768   8.123 -0.2740  0.1639  0.3080
25016SOL    HW176787   6.031   7.841   8.067  0.4358 -0.2541  0.1034
25016SOL    HW276788   5.936   7.723   8.071 -0.1910  0.2458  0.1279
25017SOL     OW76789   5.549   8.316   2.418 -0.1977 -0.0035  0.3244
25017SOL    HW176790   5.493   8.390   2.441  0.9164  1.4200 -1.3587
25017SOL    HW276791   5.637   8.352   2.412  0.5187 -1.6469  0.2827
25018SOL     OW76792   3.146   2.085   3.190 -0.0275  0.9190  0.2323
25018SOL    HW176793   3.134   2.122   3.278  0.6843  0.2031  0.6432
25018SOL    HW276794   3.239   2.097   3.172  0.1465 -0.3194  0.2192
25019SOL     OW76795   0.436   5.260   3.238  0.1460  0.0958  0.5691
25019SOL    HW176796   0.354   5.210   3.245  0.3246 -0.1903  0.6333
25019SOL    HW276797   0.450   5.271   3.144  0.8836 -1.2785  0.4926
25020SOL     OW76798   3.103   9.295   0.586 -0.5146  0.0102 -0.1618
25020SOL    HW176799   3.179   9.348   0.612 -0.5703 -0.0285  0.0732
25020SOL    HW276800   3.135   9.205   0.586 -0.0267  0.1427 -1.8926
25021SOL     OW76801   7.173   4.663   2.530 -0.4000  0.2917 -0.1446
25021SOL    HW176802   7.246   4.706   2.486 -0.2549 -1.9444 -2.3413
25021SOL    HW276803   7.209   4.634   2.614  0.7376  0.6774 -0.4763
25022SOL     OW76804   2.506   0.800   7.617 -0.2087  0.3304  0.2486
25022SOL    HW176805   2.506   0.893   7.641  1.5620  0.6800 -0.9083
25022SOL    HW276806   2.597   0.773   7.630 -0.9316 -1.6019  1.7678
25023SOL     OW76807   1.241   3.945   5.257  0.5002 -0.2118  0.0568
25023SOL    HW176808   1.274   4.032   5.237  0.7897 -0.9169 -2.9012
25023SOL    HW276809   1.154   3.961   5.293  0.6198  1.3105 -0.2570
25024SOL     OW76810   3.152   0.094   7.065 -0.4152  0.4368  0.4878
25024SOL    HW176811   3.077   0.080   7.008  0.2458  0.4456 -0.4148
25024SOL    HW276812   3.119   0.148   7.136 -1.1209  0.9605 -0.2232
25025SOL     OW76813   7.165   3.831   6.128  0.1405 -0.7594  0.1846
25025SOL    HW176814   7.173   3.832   6.224 -1.0719  0.7166  0.3177
25025SOL    HW276815   7.111   3.907   6.108  1.6537 -0.1183 -1.8225
25026SOL     OW76816   7.277   4.837   8.808  0.4289  0.4812  0.1801
25026SOL    HW176817   7.316   4.793   8.732 -1.2553  0.5200 -0.7628
25026SOL    HW276818   7.335   4.815   8.881  0.9722 -1.2928 -0.7246
25027SOL     OW76819   2.288   4.954   3.405  0.1589  0.0951 -0.2417
25027SOL    HW176820   2.374   4.930   3.372 -0.4285  0.2705 -1.9782
25027SOL    HW276821   2.283   4.911   3.491  1.3583 -1.2260 -0.7874
25028SOL     OW76822   8.539   7.618   8.476 -0.4435  0.2410  0.2553
25028SOL    HW176823   8.574   7.534   8.505  1.2547  1.1675  1.0422
25028SOL    HW276824   8.606   7.682   8.501 -1.9756  1.9219  0.2669
25029SOL     OW76825   5.782   6.432   2.482  0.1246 -0.0362 -0.6710
25029SOL    HW176826   5.727   6.387   2.546  0.2340 -0.4085 -0.8342
25029SOL    HW276827   5.862   6.379   2.477 -0.4927 -0.8816 -2.2348
25030SOL     OW76828   1.460   2.509   4.203  0.2136 -0.0885 -0.3001
25030SOL    HW176829   1.532   2.463   4.160  1.4225  1.3389  0.1009
25030SOL    HW276830   1.492   2.527   4.291  0.6178  3.0566 -0.9506
25031SOL     OW76831   1.881   5.124   5.884  0.8368  0.1546  0.4629
25031SOL    HW176832   1.851   5.208   5.850 -0.1857  0.1128  1.2287
25031SOL    HW276833   1.872   5.063   5.811 -1.5774  0.0040  0.8117
25032SOL     OW76834   0.440   0.297   5.173  0.5230  0.0272  0.1865
25032SOL    HW176835   0.503   0.347   5.225 -0.2452 -0.3871  1.5556
25032SOL    HW276836   0.455   0.326   5.083  1.9436  0.6990  0.6091
25033SOL     OW76837   3.532   1.897   5.496  0.2110 -0.0569 -0.4373
25033SOL    HW176838   3.608   1.942   5.533  0.1618  0.4854 -0.9648
25033SOL    HW276839   3.474   1.882   5.570 -0.1653  1.5547 -0.3712
25034SOL     OW76840   2.977   0.687   4.410 -0.1077  0.0087 -0.1420
25034SOL    HW176841   2.983   0.648   4.323  1.5181 -0.9956  0.3558
25034SOL    HW276842   2.907   0.639   4.454  1.0984 -1.6641  0.0710
25035SOL     OW76843   6.995   9.053   5.831  0.0920 -0.0875 -0.1776
25035SOL    HW176844   7.085   9.033   5.807  0.8218  0.8428  1.5500
25035SOL    HW276845   6.963   8.973   5.872  0.1211 -0.4275 -0.8118
25036SOL     OW76846   8.311   7.219   3.356 -0.7941  0.5792 -0.2089
25036SOL    HW176847   8.324   7.293   3.296 -1.3882  1.3232  0.5537
25036SOL    HW276848   8.400   7.196   3.384 -0.5990  1.0095 -0.4566
25037SOL     OW76849   1.002   5.380   4.255  0.0585  0.2080  0.1206
25037SOL    HW176850   0.909   5.397   4.242 -0.1202  0.1691  1.2624
25037SOL    HW276851   1.043   5.466   4.255  0.4123  0.1354 -2.8662
25038SOL     OW76852   2.275   5.361   9.208  0.4428  0.2725  0.6082
25038SOL    HW176853   2.209   5.407   9.157  1.0760  2.8221  1.9118
25038SOL    HW276854   2.355   5.366   9.154  0.6347  1.2203  0.9617
25039SOL     OW76855   6.252   2.761   6.094 -0.6885 -0.6812  0.5368
25039SOL    HW176856   6.312   2.803   6.032 -0.2203 -1.7105  0.2815
25039SOL    HW276857   6.302   2.753   6.175 -0.5300 -1.3636  0.3801
25040SOL     OW76858   2.690   5.477   7.237  0.5226  0.2964  0.2650
25040SOL    HW176859   2.624   5.410   7.253  0.5127  0.6519  1.8431
25040SOL    HW276860   2.640   5.556   7.218  0.5152  0.2594  0.1300
25041SOL     OW76861   3.226   7.593   3.082 -0.1609 -0.3280  0.6592
25041SOL    HW176862   3.164   7.552   3.142  1.2642 -2.2100  0.9206
25041SOL    HW276863   3.311   7.585   3.125  0.5914  0.2319 -0.6582
25042SOL     OW76864   0.142   7.509   2.269 -0.3170  0.4114 -0.0826
25042SOL    HW176865   0.141   7.475   2.359  1.9256  0.8425  0.1735
25042SOL    HW276866   0.065   7.566   2.264 -0.8053 -0.0696  1.3742
25043SOL     OW76867   6.406   4.341   5.314 -0.0456 -0.3326  0.3170
25043SOL    HW176868   6.464   4.283   5.364  1.1872  0.9983  0.4945
25043SOL    HW276869   6.376   4.405   5.378 -0.4665 -0.0897 -0.1208
25044SOL     OW76870   2.523   1.843   8.880 -0.1640 -0.3149  0.0202
25044SOL    HW176871   2.550   1.816   8.968  1.1963  0.1462 -0.2304
25044SOL    HW276872   2.450   1.903   8.895  0.5748  0.3910  0.8901
25045SOL     OW76873   2.533   5.292   2.277 -0.7796  0.0509 -0.3786
25045SOL    HW176874   2.456   5.347   2.265  0.6760  2.1676 -0.4510
25045SOL    HW276875   2.548   5.290   2.371 -0.3571  0.4581 -0.4364
25046SOL     OW76876   8.715   6.233   7.737 -0.1031 -0.3804 -0.8772
25046SOL    HW176877   8.632   6.242   7.690 -0.9183 -0.9617  0.4030
25046SOL    HW276878   8.690   6.214   7.827  1.3899  2.0727  0.1398
25047SOL     OW76879   2.080   6.003   5.611 -1.3252 -0.0519  0.3280
25047SOL    HW176880   2.058   5.982   5.701  0.5118 -0.3330  0.7464
25047SOL    HW276881   2.106   6.095   5.613 -1.1475 -0.0960  0.1123
25048SOL     OW76882   4.129   8.024   3.417 -0.1958  0.7078 -0.2186
25048SOL    HW176883   4.177   8.096   3.376 -1.0465  0.8056 -1.0828
25048SOL    HW276884   4.038   8.054   3.419 -0.4611 -0.0825  0.0100
25049SOL     OW76885   1.475   7.247   8.420 -0.0522 -0.3383  0.1763
25049SOL    HW176886   1.525   7.328   8.424 -0.2913  0.1831 -3.4606
25049SOL    HW276887   1.426   7.244   8.502  2.7468  1.2242  2.0460
25050SOL     OW76888   0.013   5.435   7.653 -0.0053  0.2036  0.3448
25050SOL    HW176889   0.018   5.447   7.559 -1.5878 -0.1858  0.1940
25050SOL    HW276890   0.098   5.467   7.686 -0.0432  1.8277 -1.0356
25051SOL     OW76891   4.548   1.809   0.887 -0.2053 -0.5281  0.1315
25051SOL    HW176892   4.578   1.755   0.814  0.2366  0.8895 -0.7840
25051SOL    HW276893   4.610   1.882   0.889 -1.7470  0.8387  0.2114
25052SOL     OW76894   4.012   6.091   3.782 -0.1148  0.8235  0.0898
25052SOL    HW176895   3.958   6.075   3.860 -1.3381  0.0520 -0.8890
25052SOL    HW276896   4.083   6.148   3.814 -0.9829  1.1156  1.6069
25053SOL     OW76897   8.882   3.241   9.434 -0.0624 -0.1243  0.2205
25053SOL    HW176898   8.820   3.217   9.365  1.3255  1.5299 -1.7153
25053SOL    HW276899   8.900   3.159   9.480 -2.8708 -0.8266  0.2498
25054SOL     OW76900   6.834   8.067   2.185  0.1636 -0.5370 -0.2534
25054SOL    HW176901   6.918   8.033   2.214  0.2670  0.2008  0.3279
25054SOL    HW276902   6.772   7.995   2.200 -0.0423  0.1870  3.0197
25055SOL     OW76903   0.785   3.926   8.717 -0.3094  0.4826  0.3960
25055SOL    HW176904   0.836   3.870   8.658  0.0021  0.6719  0.4838
25055SOL    HW276905   0.825   3.913   8.803  0.8224  2.0611  0.1548
25056SOL     OW76906   9.383   4.120   5.538 -0.0302  0.4654  0.1233
25056SOL    HW176907   9.356   4.032   5.564  0.8603 -0.1517 -0.9394
25056SOL    HW276908   9.406   4.112   5.446  1.9195  1.3587  0.4817
25057SOL     OW76909   6.964   2.965   0.808 -0.6871  0.4724  0.4315
25057SOL    HW176910   6.894   3.025   0.832 -0.8136 -0.1150  1.5907
25057SOL    HW276911   6.982   2.915   0.888 -0.9171 -1.3535 -0.5848
25058SOL     OW76912   6.158   2.850   7.995 -1.0894  0.0546 -0.5127
25058SOL    HW176913   6.065   2.829   8.002 -0.8506 -0.6116  1.1805
25058SOL    HW276914   6.164   2.940   8.028 -1.4410  1.1385 -3.1459
25059SOL     OW76915   0.115   5.149   9.114 -0.5807  0.1703  0.0237
25059SOL    HW176916   0.021   5.142   9.096 -0.5827 -0.4614  0.2572
25059SOL    HW276917   0.120   5.187   9.202 -0.6373 -0.4383  0.2982
25060SOL     OW76918   1.170   2.122   7.881 -0.6041  0.7033  0.0690
25060SOL    HW176919   1.081   2.087   7.877 -0.6035  0.7577 -0.6273
25060SOL    HW276920   1.215   2.067   7.945 -0.3075 -1.3115 -1.7632
25061SOL     OW76921   5.298   3.509   9.226 -0.4723  0.3038 -0.5083
25061SOL    HW176922   5.356   3.487   9.299 -1.6193 -1.5435 -0.0793
25061SOL    HW276923   5.314   3.602   9.209  1.0040  0.3677  1.0096
25062SOL     OW76924   3.223   0.668   2.793 -0.5082 -0.2401 -0.0337
25062SOL    HW176925   3.161   0.691   2.863 -0.4922 -2.2716  0.6956
25062SOL    HW276926   3.295   0.624   2.838  0.5536  0.3182 -1.1150
25063SOL     OW76927   2.692   6.247   6.494 -0.0804  0.2152 -0.1417
25063SOL    HW176928   2.620   6.230   6.432 -1.0870  0.0335  1.0379
25063SOL    HW276929   2.768   6.207   6.453  0.1166  3.0049 -2.9199
25064SOL     OW76930   1.514   7.661   2.441 -0.2587  0.0543 -0.3999
25064SOL    HW176931   1.585   7.722   2.459  0.1274 -1.4495  4.3701
25064SOL    HW276932   1.557   7.578   2.420 -0.8068  0.4396 -3.7062
25065SOL     OW76933   2.474   1.049   0.940 -0.4866 -0.1805  0.2137
25065SOL    HW176934   2.514   1.094   1.014 -0.4759  1.6920 -0.8688
25065SOL    HW276935   2.547   1.033   0.880 -0.9079  0.8579 -0.5996
25066SOL     OW76936   4.399   9.475   7.302  0.0199  0.1757 -0.7338
25066SOL    HW176937   4.442   9.559   7.320 -0.6283  0.6507 -1.3982
25066SOL    HW276938   4.319   9.498   7.256 -0.4299 -0.7815 -0.4411
25067SOL     OW76939   7.923   7.866   3.629  0.7230  0.2893 -0.3269
25067SOL    HW176940   8.003   7.835   3.672  0.7393  1.4480  0.5121
25067SOL    HW276941   7.953   7.924   3.560  0.6349 -0.2818 -0.8561
25068SOL     OW76942   5.655   1.850   2.770  0.3308 -0.8188 -0.2068
25068SOL    HW176943   5.698   1.805   2.697  0.6584 -0.4453 -0.2482
25068SOL    HW276944   5.726   1.868   2.832  0.1089 -0.8452  0.0565
25069SOL     OW76945   3.445   7.078   6.711  0.5397 -0.0982  0.4168
25069SOL    HW176946   3.404   7.093   6.626  0.8450  0.7508  0.4059
25069SOL    HW276947   3.514   7.144   6.716  0.2859  0.1112  1.4775
25070SOL     OW76948   1.818   5.986   9.425 -0.4019  0.4449 -0.5200
25070SOL    HW176949   1.757   5.970   9.497  0.8271 -2.3781  0.0323
25070SOL    HW276950   1.884   6.046   9.461 -1.4041  1.4450 -0.3112
25071SOL     OW76951   0.597   1.856   7.798 -0.1955 -0.2356  0.6877
25071SOL    HW176952   0.638   1.856   7.885  0.4287  1.4117  0.4258
25071SOL    HW276953   0.533   1.927   7.802  1.2324  1.2057 -0.8002
25072SOL     OW76954   2.878   5.151   7.238  0.2916 -0.7642 -0.1758
25072SOL    HW176955   2.848   5.219   7.178 -0.8856 -1.1020 -0.0002
25072SOL    HW276956   2.840   5.070   7.203  0.3152 -1.0851  0.5282
25073SOL     OW76957   3.132   3.055   4.947  0.0497 -0.1873 -0.2013
25073SOL    HW176958   3.120   3.146   4.921 -0.8361 -0.4335 -0.6934
25073SOL    HW276959   3.212   3.056   5.001  1.3417  0.5018 -2.0369
25074SOL     OW76960   2.135   6.691   6.277  0.3330 -0.0943 -0.5447
25074SOL    HW176961   2.057   6.642   6.303  0.1023 -0.3054 -1.6058
25074SOL    HW276962   2.197   6.677   6.349 -0.9113  0.8531  0.7822
25075SOL     OW76963   1.811   4.363   1.282 -0.3788  0.4356 -0.2942
25075SOL    HW176964   1.822   4.452   1.316  0.7175  0.2649 -0.1785
25075SOL    HW276965   1.895   4.341   1.242  0.1351 -1.3493  1.5968
25076SOL     OW76966   7.379   1.931   6.475  0.0045 -0.6077  0.0693
25076SOL    HW176967   7.444   1.996   6.450  0.8593 -1.3075  0.4308
25076SOL    HW276968   7.420   1.881   6.545 -1.9552  0.6952  2.3174
25077SOL     OW76969   6.315   5.483   4.654  0.7731  0.1205  0.5169
25077SOL    HW176970   6.362   5.406   4.624 -1.0645 -1.5317  1.6705
25077SOL    HW276971   6.229   5.476   4.614 -0.2051  0.2724  2.4810
25078SOL     OW76972   1.645   2.959   1.224 -0.3632  0.1404  0.2663
25078SOL    HW176973   1.557   2.993   1.209 -1.0130 -1.4114  0.4439
25078SOL    HW276974   1.637   2.904   1.301  0.4087 -1.2660 -0.6289
25079SOL     OW76975   4.465   5.593   8.079  0.1187 -0.1800 -0.2073
25079SOL    HW176976   4.507   5.674   8.107  0.1034  0.3099 -1.5318
25079SOL    HW276977   4.515   5.524   8.122  0.6183  0.4995  0.3316
25080SOL     OW76978   1.091   5.429   7.828  0.2049 -0.0230  0.2246
25080SOL    HW176979   1.011   5.468   7.794  0.0661 -1.3452 -1.0543
25080SOL    HW276980   1.077   5.425   7.923 -0.2200  1.9312  0.2893
25081SOL     OW76981   2.903   2.749   2.334  0.1871 -0.2117  0.0882
25081SOL    HW176982   2.825   2.702   2.308  2.1163 -2.9684 -1.2384
25081SOL    HW276983   2.936   2.702   2.411  1.4160 -0.1968 -0.3958
25082SOL     OW76984   0.007   6.242   3.257  0.6417  0.1828  0.7975
25082SOL    HW176985  -0.088   6.250   3.271  0.4260  1.5294 -1.0197
25082SOL    HW276986   0.026   6.151   3.278 -0.9697 -0.0043  1.6460
25083SOL     OW76987   3.369   2.005   0.486 -0.1616  0.2796  0.5054
25083SOL    HW176988   3.414   1.975   0.407  1.5697  1.1475  1.1055
25083SOL    HW276989   3.311   1.933   0.509  1.6183 -1.3498  0.1874
25084SOL     OW76990   2.620   9.271   6.857 -0.0652 -0.0841  0.3092
25084SOL    HW176991   2.585   9.357   6.882  0.3439  0.4684 -0.9707
25084SOL    HW276992   2.690   9.254   6.920  0.4051  0.9038  0.0629
25085SOL     OW76993   8.136   3.132   0.390  0.1442 -0.2632 -0.2358
25085SOL    HW176994   8.157   3.061   0.329 -0.7870 -0.3535 -0.4613
25085SOL    HW276995   8.146   3.093   0.477  1.3233 -0.1781 -0.3103
25086SOL     OW76996   2.370   3.642   3.728  0.1686 -0.4746  0.9121
25086SOL    HW176997   2.387   3.687   3.811  0.2292 -0.9086  1.1351
25086SOL    HW276998   2.380   3.549   3.748 -1.2250 -0.6863  0.7615
25087SOL     OW76999   7.178   0.061   0.167 -0.2748 -0.4555  0.1757
25087SOL    HW177000   7.146   0.148   0.143  2.8090  0.8915  0.4123
25087SOL    HW277001   7.194   0.018   0.083 -0.5607 -0.2564  0.0173
25088SOL     OW77002   5.908   1.953   6.931 -0.0087  0.5992 -0.6515
25088SOL    HW177003   5.841   2.011   6.967  0.2678  0.1779  0.5814
25088SOL    HW277004   5.963   1.929   7.006  1.2259  0.5328 -1.5421
25089SOL     OW77005   4.228   8.955   8.453  0.8126 -0.0827  0.4553
25089SOL    HW177006   4.238   8.918   8.365  0.1031 -1.1447  0.8074
25089SOL    HW277007   4.155   9.016   8.445  0.0302 -0.9900  0.5422
25090SOL     OW77008   0.200   6.906   6.162  0.1802 -0.2244 -0.3612
25090SOL    HW177009   0.149   6.952   6.229  1.6480 -0.2488  0.8066
25090SOL    HW277010   0.133   6.860   6.111 -0.9386 -2.3111  2.6479
25091SOL     OW77011   7.838   0.890   8.030  0.7996 -0.1602  0.2719
25091SOL    HW177012   7.841   0.879   7.935 -1.0538  0.8511  0.0548
25091SOL    HW277013   7.929   0.882   8.058  1.5697  0.9024 -1.7426
25092SOL     OW77014   0.475   9.386   1.845 -0.4136  0.1832  0.1861
25092SOL    HW177015   0.480   9.475   1.879 -0.2275 -0.6549  2.4904
25092SOL    HW277016   0.566   9.363   1.825 -0.4121  0.3397  0.0034
25093SOL     OW77017   6.611   7.911   2.668  0.2888  0.4644  0.3054
25093SOL    HW177018   6.618   7.849   2.741  1.5787  1.4753  1.0908
25093SOL    HW277019   6.626   7.857   2.590  3.3330  0.0050  1.0829
25094SOL     OW77020   4.051   5.739   2.703  0.1913 -0.1805  0.1877
25094SOL    HW177021   4.129   5.693   2.733 -1.0296 -1.5672  1.3475
25094SOL    HW277022   4.005   5.764   2.783 -1.6179 -1.2901 -0.4464
25095SOL     OW77023   6.032   0.198   8.467  0.2405 -0.3513 -0.4724
25095SOL    HW177024   5.962   0.149   8.425 -0.8085 -0.5046  1.3670
25095SOL    HW277025   6.051   0.269   8.405 -2.5631  0.5628 -0.4254
25096SOL     OW77026   2.015   1.382   1.359 -0.1141  0.3127 -0.1442
25096SOL    HW177027   2.027   1.321   1.286  0.5351 -0.9342  0.9495
25096SOL    HW277028   1.976   1.328   1.428  2.1550  0.6121  1.4852
25097SOL     OW77029   1.675   9.455   0.262 -0.1353  0.5941  0.1660
25097SOL    HW177030   1.674   9.363   0.288  0.2627  1.1477  2.2804
25097SOL    HW277031   1.727   9.456   0.181  0.8068 -0.8917  0.7005
25098SOL     OW77032   2.092   9.095   8.518  0.2309  0.0734  0.1157
25098SOL    HW177033   2.003   9.106   8.485  0.1136 -1.2490 -0.0973
25098SOL    HW277034   2.145   9.082   8.439  0.7290  1.4704  0.2012
25099SOL     OW77035   2.290   6.097   8.109 -0.2804  0.2221 -0.4671
25099SOL    HW177036   2.206   6.057   8.086 -0.3915 -0.6066  1.2486
25099SOL    HW277037   2.268   6.185   8.138 -0.4639  0.2657 -0.7373
25100SOL     OW77038   0.011   7.206   6.606 -0.5323 -0.1222  0.1973
25100SOL    HW177039  -0.041   7.154   6.667 -1.3492 -1.1828 -1.3430
25100SOL    HW277040   0.099   7.171   6.614 -1.2343 -2.5267 -1.5098
25101SOL     OW77041   8.558   6.580   3.187  0.0913  0.5090  0.5973
25101SOL    HW177042   8.627   6.646   3.191  0.6722  0.0318 -0.9503
25101SOL    HW277043   8.595   6.509   3.134 -1.5594  0.2269 -0.2451
25102SOL     OW77044   4.890   4.264   0.483  0.4627  0.1807  0.0374
25102SOL    HW177045   4.957   4.197   0.477 -0.9277 -1.1895 -1.1266
25102SOL    HW277046   4.899   4.300   0.571  2.1395 -0.5457  0.1916
25103SOL     OW77047   2.872   9.431   8.248 -0.3864  0.0426 -0.1814
25103SOL    HW177048   2.781   9.404   8.259 -0.5552  0.6454 -0.0675
25103SOL    HW277049   2.870   9.489   8.171 -0.3767  1.3317  0.7618
25104SOL     OW77050   9.519   0.451   6.217 -0.1360  0.5094 -0.2217
25104SOL    HW177051   9.488   0.461   6.126 -1.5772 -2.1839 -0.1569
25104SOL    HW277052   9.610   0.479   6.214  0.1512 -0.3317 -2.7790
25105SOL     OW77053   7.564   6.955   7.547 -0.4316 -0.0793  0.3562
25105SOL    HW177054   7.619   6.893   7.499  0.9566 -0.1903  1.9786
25105SOL    HW277055   7.518   7.004   7.479 -1.1083 -2.4213 -0.9876
25106SOL     OW77056   5.974   4.561   5.542 -0.0574  0.0829  0.6556
25106SOL    HW177057   5.950   4.613   5.465  1.6081  1.6961  1.1617
25106SOL    HW277058   6.021   4.486   5.506 -0.4615  0.1128  0.0367
25107SOL     OW77059   5.917   5.259   5.353 -0.2403  0.5778  0.3461
25107SOL    HW177060   6.001   5.296   5.383 -1.5741  5.1210 -0.6610
25107SOL    HW277061   5.932   5.239   5.260 -0.4386  2.3758 -0.1120
25108SOL     OW77062   1.248   3.622   6.928 -0.1057 -0.2738 -0.3754
25108SOL    HW177063   1.314   3.618   6.998  1.4332  2.5191 -1.5166
25108SOL    HW277064   1.295   3.655   6.852 -2.8864  2.5403 -1.0908
25109SOL     OW77065   9.311   2.829   8.550 -0.2856 -0.2795  0.3751
25109SOL    HW177066   9.216   2.813   8.554 -1.0039  2.5157 -1.7303
25109SOL    HW277067   9.329   2.841   8.457  1.9360  0.3622  0.8312
25110SOL     OW77068   3.658   8.160   3.726 -0.1284  0.4835  0.2819
25110SOL    HW177069   3.593   8.169   3.797 -0.8556 -0.6759 -0.2096
25110SOL    HW277070   3.614   8.107   3.660  1.1777  0.0471 -0.2662
25111SOL     OW77071   0.837   7.989   2.427 -0.1745 -0.0584 -0.5550
25111SOL    HW177072   0.931   8.003   2.435  0.0655 -1.5632 -0.5218
25111SOL    HW277073   0.812   8.034   2.346  0.2099  1.9069  0.3549
25112SOL     OW77074   6.016   7.133   6.477 -0.4742  0.1381  0.0645
25112SOL    HW177075   6.047   7.064   6.537 -1.8424 -0.1408  0.4793
25112SOL    HW277076   6.016   7.091   6.391 -4.3059 -1.5574  0.6833
25113SOL     OW77077   0.321   3.489   9.552 -0.0529  0.8163  0.4638
25113SOL    HW177078   0.405   3.515   9.591  0.7431  0.3808 -0.8828
25113SOL    HW277079   0.331   3.396   9.534  0.6427  1.4203 -3.0209
25114SOL     OW77080   3.287   1.765   1.024  0.1696  0.7168  0.0640
25114SOL    HW177081   3.382   1.773   1.011  0.1119 -0.0701 -1.0147
25114SOL    HW277082   3.262   1.692   0.968 -1.1945  1.3750 -0.2181
25115SOL     OW77083   3.549   9.338   3.645  0.4369 -0.1271 -0.0429
25115SOL    HW177084   3.490   9.362   3.717 -0.2707  0.8790 -0.9211
25115SOL    HW277085   3.498   9.356   3.566  1.1072 -1.4772 -0.8003
25116SOL     OW77086   2.626   7.193   6.897  0.1822 -0.3880 -0.2896
25116SOL    HW177087   2.645   7.244   6.819  0.4562  0.8854  0.5813
25116SOL    HW277088   2.699   7.211   6.957 -0.8286 -0.0226  0.8829
25117SOL     OW77089   3.086   7.018   2.169 -0.2761  0.1535 -0.2467
25117SOL    HW177090   3.102   7.024   2.263 -0.8234  1.2192 -0.2005
25117SOL    HW277091   3.029   6.942   2.159 -0.8688  0.4981  0.3968
25118SOL     OW77092   0.932   7.264   1.294 -0.3391 -0.1812  0.0673
25118SOL    HW177093   1.025   7.270   1.318  0.0033 -2.0649 -0.6235
25118SOL    HW277094   0.907   7.354   1.272  1.1794  0.4361  0.7429
25119SOL     OW77095   7.040   1.388   7.660  0.0435  0.3550  0.1964
25119SOL    HW177096   7.103   1.460   7.662 -1.6662  2.1455 -3.1554
25119SOL    HW277097   6.963   1.422   7.706  0.5932 -1.0196  2.3105
25120SOL     OW77098   8.508   4.283   9.031 -0.2952 -0.0929  0.4922
25120SOL    HW177099   8.477   4.354   8.976  2.9891  0.1304 -1.3210
25120SOL    HW277100   8.589   4.316   9.070 -0.4901 -1.6513  2.3804
25121SOL     OW77101   8.986   1.853   2.961 -0.1119  0.6197 -0.2551
25121SOL    HW177102   9.038   1.851   2.881 -0.7345  0.0288 -0.6482
25121SOL    HW277103   9.051   1.862   3.031  0.7745 -2.4766 -0.5329
25122SOL     OW77104   3.921   8.554   0.627  0.2401  0.5721  0.2874
25122SOL    HW177105   3.979   8.609   0.574 -0.6592  0.8987 -0.3687
25122SOL    HW277106   3.970   8.540   0.708  1.7051 -0.0558 -0.6591
25123SOL     OW77107   7.695   4.240   0.526  0.4828  0.6468  0.3133
25123SOL    HW177108   7.733   4.284   0.450  0.5784  0.3619  0.1919
25123SOL    HW277109   7.626   4.184   0.489  0.3789  0.6772  0.4607
25124SOL     OW77110   0.354   8.437   6.990 -0.2113 -0.7633 -0.8010
25124SOL    HW177111   0.431   8.473   6.946  0.4538 -0.4782  0.5101
25124SOL    HW277112   0.334   8.356   6.943  2.0282 -1.8075 -0.0965
25125SOL     OW77113   5.381   2.857   6.558 -0.3144 -0.1568 -0.3176
25125SOL    HW177114   5.321   2.789   6.588  1.4790 -0.0140  4.4014
25125SOL    HW277115   5.461   2.810   6.534  0.5091  0.0476  1.7915
25126SOL     OW77116   0.538   1.834   4.888  0.4308  0.5341 -0.1350
25126SOL    HW177117   0.592   1.850   4.965 -0.5642  2.1609  0.2591
25126SOL    HW277118   0.482   1.911   4.881 -0.7887 -0.4182 -1.4181
25127SOL     OW77119   7.138   3.434   8.058  0.3264 -0.1375 -0.6394
25127SOL    HW177120   7.141   3.486   7.977  0.7283  0.1956 -0.4139
25127SOL    HW277121   7.055   3.387   8.053  1.0088 -1.2759 -1.9465
25128SOL     OW77122   8.968   6.096   9.334  0.3566 -0.4822 -0.0407
25128SOL    HW177123   8.885   6.110   9.289  0.5829 -0.9291 -0.6116
25128SOL    HW277124   8.946   6.097   9.427 -0.1514  0.2332 -0.1585
25129SOL     OW77125   7.681   0.158   1.037  0.3470 -0.8291 -0.3056
25129SOL    HW177126   7.743   0.118   1.097 -0.8343 -2.0055  0.1707
25129SOL    HW277127   7.707   0.125   0.950  1.7510  0.4895 -0.4312
25130SOL     OW77128   7.573   3.932   1.411  0.6073  0.2102 -0.2408
25130SOL    HW177129   7.506   3.943   1.478 -0.0828 -0.2353 -0.8449
25130SOL    HW277130   7.556   3.846   1.373  3.0920 -1.1034  1.3258
25131SOL     OW77131   6.388   9.093   5.464 -0.2631  0.1987 -0.2737
25131SOL    HW177132   6.350   9.039   5.394 -0.7721 -2.0182  1.5866
25131SOL    HW277133   6.313   9.140   5.501 -0.3630 -0.2374  0.0922
25132SOL     OW77134   1.060   6.919   3.833 -0.4739 -0.3239  0.4204
25132SOL    HW177135   1.031   6.889   3.919 -2.4539  0.7978  0.2104
25132SOL    HW277136   1.122   6.990   3.852 -0.1235 -0.7533  0.9043
25133SOL     OW77137   5.828   3.378   7.047 -0.3429 -0.0832  0.0354
25133SOL    HW177138   5.862   3.289   7.063 -0.4294  0.1485  1.7230
25133SOL    HW277139   5.842   3.423   7.130 -0.2746  1.5077 -0.8160
25134SOL     OW77140   1.370   7.999   7.283  0.2978  0.0948  0.4950
25134SOL    HW177141   1.326   8.061   7.225 -0.0244 -2.0597 -1.7316
25134SOL    HW277142   1.334   7.914   7.259  1.5974 -1.1350  2.5731
25135SOL     OW77143   1.167   1.512   0.988  0.2988 -0.1069 -0.1519
25135SOL    HW177144   1.101   1.443   0.978  0.2448 -0.0731 -0.0281
25135SOL    HW277145   1.247   1.465   1.012  0.9778 -0.4177 -2.7491
25136SOL     OW77146   4.315   1.159   9.264 -0.0120  0.1945  0.4453
25136SOL    HW177147   4.248   1.099   9.297 -1.3210  0.9781 -0.6475
25136SOL    HW277148   4.344   1.119   9.182 -1.7720  1.5399 -0.9302
25137SOL     OW77149   6.431   6.368   6.701  0.1427  0.4142 -0.2099
25137SOL    HW177150   6.412   6.276   6.685 -2.0090  1.0241 -1.5746
25137SOL    HW277151   6.377   6.391   6.776 -0.1019  0.7778 -0.4908
25138SOL     OW77152   9.554   3.279   0.324 -0.1202  0.3561 -0.0912
25138SOL    HW177153   9.524   3.240   0.242  0.2172  0.4751 -0.2741
25138SOL    HW277154   9.566   3.205   0.383 -1.2413  0.3446  0.1464
25139SOL     OW77155   6.687   9.297   1.484 -0.1340 -0.1494 -0.2141
25139SOL    HW177156   6.732   9.300   1.569 -0.2754 -0.9724 -0.0993
25139SOL    HW277157   6.718   9.374   1.438 -0.6648  0.7676  0.8924
25140SOL     OW77158   6.312   9.053   1.712  0.0754  0.4803 -0.0758
25140SOL    HW177159   6.387   9.083   1.661  1.1075 -1.0437  0.4877
25140SOL    HW277160   6.348   8.988   1.772 -1.6486 -0.0281  0.4659
25141SOL     OW77161   8.130   8.858   4.158 -0.4836  0.3871  0.1301
25141SOL    HW177162   8.126   8.834   4.251  0.2455  1.1241  0.3625
25141SOL    HW277163   8.039   8.855   4.129 -0.6594 -0.3911  0.7221
25142SOL     OW77164   1.103   3.118   3.457 -0.1245 -0.0924 -0.5242
25142SOL    HW177165   1.096   3.059   3.382 -0.8409  0.6010 -1.0176
25142SOL    HW277166   1.014   3.124   3.491  0.1304 -0.1040  0.1508
25143SOL     OW77167   6.424   5.308   0.824  0.0344  0.2567  0.0840
25143SOL    HW177168   6.361   5.372   0.793 -1.4562 -0.7457  0.9473
25143SOL    HW277169   6.398   5.289   0.914  1.0037 -0.8760  0.1589
25144SOL     OW77170   1.700   2.871   5.015  0.1152  0.2912  0.0812
25144SOL    HW177171   1.681   2.824   5.096  0.3429  2.0300  1.2177
25144SOL    HW277172   1.777   2.924   5.036 -2.5287  4.5153  0.4950
25145SOL     OW77173   1.003   8.091   7.593 -0.0802  0.3370 -0.0798
25145SOL    HW177174   0.980   8.184   7.580  2.0684  0.7831 -1.2166
25145SOL    HW277175   1.045   8.089   7.678 -2.9697 -0.2727  1.4656
25146SOL     OW77176   2.159   1.822   1.113  0.4644 -0.1236 -0.3498
25146SOL    HW177177   2.127   1.906   1.145  1.8134  0.0648  0.5730
25146SOL    HW277178   2.242   1.809   1.159  0.1675 -2.0696 -0.3035
25147SOL     OW77179   1.952   9.565   7.697  0.4542 -0.1342 -0.5344
25147SOL    HW177180   1.880   9.547   7.637 -1.5503  0.5217  1.5096
25147SOL    HW277181   1.953   9.491   7.757  0.6279  0.4552  0.2134
25148SOL     OW77182   2.448   7.671   7.694  0.3912  0.1600 -0.1681
25148SOL    HW177183   2.459   7.756   7.651  0.0683 -0.3057 -1.2066
25148SOL    HW277184   2.530   7.625   7.677 -0.5663 -0.8979 -2.3659
25149SOL     OW77185   9.381   0.683   5.424  0.2266 -0.2040  0.0736
25149SOL    HW177186   9.336   0.600   5.443 -0.0472  0.1811  1.1672
25149SOL    HW277187   9.472   0.667   5.447  0.1295 -0.1292  0.5096
25150SOL     OW77188   1.578   0.905   9.014  0.4783 -0.6769 -0.3198
25150SOL    HW177189   1.615   0.991   8.991  0.3493 -0.6999 -0.6147
25150SOL    HW277190   1.654   0.849   9.025  0.5573 -0.5607 -0.2604
25151SOL     OW77191   5.351   8.028   5.227  0.3802  0.7098  0.4284
25151SOL    HW177192   5.341   8.090   5.155 -0.5461 -0.6276 -0.6455
25151SOL    HW277193   5.295   8.063   5.297 -0.7272  0.6862 -0.4356
25152SOL     OW77194   7.936   3.805   2.967 -0.2817  0.1366  0.2076
25152SOL    HW177195   7.843   3.819   2.986 -1.2793 -0.5283 -3.4052
25152SOL    HW277196   7.948   3.711   2.976 -0.6245 -0.1069 -1.5693
25153SOL     OW77197   4.112   9.118   3.727 -0.4079  0.5483  0.3826
25153SOL    HW177198   4.070   9.187   3.778  1.1729 -0.0097  2.5785
25153SOL    HW277199   4.079   9.036   3.765  0.4868  0.1107  0.2357
25154SOL     OW77200   2.335   8.548   4.687  0.2856 -0.1271 -0.0793
25154SOL    HW177201   2.266   8.521   4.626 -0.7391  4.3347 -1.2529
25154SOL    HW277202   2.416   8.517   4.646 -0.6277 -0.3143 -1.8609
25155SOL     OW77203   3.687   1.955   4.881 -0.1171 -0.3895  0.0443
25155SOL    HW177204   3.681   2.001   4.964  0.5990 -0.8190  0.3439
25155SOL    HW277205   3.742   1.878   4.899 -0.0087 -0.5312 -0.8012
25156SOL     OW77206   6.411   4.247   3.091  0.1794  0.4551  0.4294
25156SOL    HW177207   6.470   4.204   3.153 -2.1082  1.1080  3.2982
25156SOL    HW277208   6.463   4.259   3.012  3.2488 -0.6066  2.1338
25157SOL     OW77209   3.597   1.066   7.294 -0.4298  0.3290 -0.3303
25157SOL    HW177210   3.634   1.014   7.223  0.8035  0.3172  0.3011
25157SOL    HW277211   3.648   1.042   7.371 -1.1557  1.0037  0.3863
25158SOL     OW77212   5.977   5.843   4.400  0.3162 -0.0346  0.2820
25158SOL    HW177213   5.940   5.857   4.312 -1.3235 -0.2595  0.8905
25158SOL    HW277214   6.008   5.930   4.427 -0.0367  0.2329 -0.1541
25159SOL     OW77215   4.406   2.105   4.678 -0.0339  0.4790 -0.5083
25159SOL    HW177216   4.428   2.109   4.585 -0.1805 -2.1534 -0.7231
25159SOL    HW277217   4.318   2.068   4.681  0.7091 -1.3573  0.6652
25160SOL     OW77218   1.595   7.083   5.704 -0.2929 -0.4867 -0.0559
25160SOL    HW177219   1.651   7.053   5.632 -1.0303 -1.7160 -0.1356
25160SOL    HW277220   1.560   7.167   5.673  1.8380  0.5551  0.1834
25161SOL     OW77221   4.827   7.627   8.884 -0.4822 -0.2316 -0.5303
25161SOL    HW177222   4.760   7.661   8.942 -0.5285  2.5081 -2.0126
25161SOL    HW277223   4.905   7.680   8.904  0.4138 -1.4150 -0.7880
25162SOL     OW77224   6.469   6.514   8.975 -0.1735 -0.1530 -0.0717
25162SOL    HW177225   6.503   6.534   9.062  0.6623  2.1267 -0.8427
25162SOL    HW277226   6.449   6.421   8.977 -1.0290 -0.0026  2.8339
25163SOL     OW77227   6.301   8.317   1.364 -0.1608  0.0532  0.2174
25163SOL    HW177228   6.235   8.375   1.402 -0.3499 -0.0757  0.0861
25163SOL    HW277229   6.369   8.376   1.332 -0.0616  0.1710  0.6346
25164SOL     OW77230   2.247   4.008   5.749  0.1368  0.1115  0.2781
25164SOL    HW177231   2.263   3.928   5.701 -0.2044  1.3620 -2.0389
25164SOL    HW277232   2.159   3.998   5.785  0.0508 -0.4899 -0.1055
25165SOL     OW77233   2.616   1.005   7.167 -0.4304 -0.0056 -0.2863
25165SOL    HW177234   2.571   0.957   7.237 -0.7954 -0.5283 -0.8744
25165SOL    HW277235   2.704   1.021   7.202 -1.2527  1.6786  1.1848
25166SOL     OW77236   9.290   6.638   3.940 -0.4510 -0.2002  0.0652
25166SOL    HW177237   9.257   6.550   3.958 -0.3367 -0.6721 -1.8269
25166SOL    HW277238   9.385   6.628   3.934 -0.5024 -0.1296 -1.0106
25167SOL     OW77239   7.150   1.806   5.533  0.0854 -0.0382  0.1682
25167SOL    HW177240   7.185   1.739   5.592  1.0148 -1.3149 -1.7223
25167SOL    HW277241   7.175   1.889   5.573  0.6689 -0.8555  1.5547
25168SOL     OW77242   5.455   7.926   8.935 -0.5031 -0.6171 -0.7534
25168SOL    HW177243   5.419   7.845   8.898 -0.3873 -1.2860  0.5389
25168SOL    HW277244   5.449   7.990   8.864 -2.2143 -1.2966 -1.2639
25169SOL     OW77245   2.048   3.234   0.212 -0.0295  0.3053  0.0116
25169SOL    HW177246   1.988   3.177   0.260 -0.3668  0.7237  0.1077
25169SOL    HW277247   2.101   3.176   0.158  0.9354 -0.2430  1.5146
25170SOL     OW77248   2.939   8.578   1.789 -0.2423  0.6044  0.1764
25170SOL    HW177249   2.866   8.538   1.836  0.7573  0.6267  1.8211
25170SOL    HW277250   2.999   8.506   1.772 -0.3375  0.6972 -0.5961
25171SOL     OW77251   7.722   6.743   0.335 -0.1837 -0.5410 -0.3126
25171SOL    HW177252   7.656   6.804   0.301  0.1398 -0.6175 -1.1016
25171SOL    HW277253   7.804   6.772   0.296  0.0794 -1.0975 -0.1889
25172SOL     OW77254   5.495   1.455   3.667  0.0580  0.0435 -0.2855
25172SOL    HW177255   5.441   1.481   3.592 -1.1813 -1.2580  0.1291
25172SOL    HW277256   5.466   1.512   3.738 -1.2952 -1.0870  0.1122
25173SOL     OW77257   2.181   4.936   5.082  1.1462  0.2304  0.0609
25173SOL    HW177258   2.207   5.011   5.028  0.0974  0.9914  0.5822
25173SOL    HW277259   2.193   4.860   5.025 -0.0511  1.0250 -1.3116
25174SOL     OW77260   3.551   9.267   9.532 -0.9950  0.2310 -0.2487
25174SOL    HW177261   3.483   9.267   9.598  0.2573  0.1133  1.0868
25174SOL    HW277262   3.623   9.216   9.571  0.7456  2.2280 -0.6506
25175SOL     OW77263   7.613   0.326   0.567 -0.0618  0.0218  0.1769
25175SOL    HW177264   7.614   0.233   0.546 -0.7831 -0.0917  0.6170
25175SOL    HW277265   7.698   0.359   0.535  0.7021 -1.0096  1.0545
25176SOL     OW77266   0.169   0.872   7.229  0.3353 -0.2564  0.6173
25176SOL    HW177267   0.080   0.837   7.236  0.9702 -2.4936 -1.3946
25176SOL    HW277268   0.225   0.803   7.265  1.4993 -0.7057 -1.8415
25177SOL     OW77269   2.289   0.014   6.097 -0.2364  0.4654  0.3738
25177SOL    HW177270   2.254   0.096   6.062 -0.2540 -0.1766 -1.1900
25177SOL    HW277271   2.323   0.037   6.183  0.1568  2.2190 -0.2083
25178SOL     OW77272   4.884   4.010   6.295  0.0178 -0.5650  0.0939
25178SOL    HW177273   4.892   3.915   6.282  0.7314 -0.3282 -1.3078
25178SOL    HW277274   4.949   4.030   6.362  1.0320 -0.8381 -0.7887
25179SOL     OW77275   9.000   4.775   6.714 -0.0963  0.6123 -0.0349
25179SOL    HW177276   9.071   4.712   6.728  1.7890  2.7837  0.7760
25179SOL    HW277277   8.971   4.798   6.803  0.2323  1.9206 -0.2565
25180SOL     OW77278   0.565   5.434   1.119  0.0341  0.1380  0.3068
25180SOL    HW177279   0.544   5.504   1.058 -2.4141 -0.4960  0.3261
25180SOL    HW277280   0.612   5.370   1.066  1.0590  1.1470 -0.0334
25181SOL     OW77281   3.750   8.361   5.116  0.4939 -0.1064  0.2131
25181SOL    HW177282   3.782   8.409   5.192 -0.7471 -1.2591  1.5194
25181SOL    HW277283   3.699   8.289   5.153 -0.9841 -0.1296 -1.7218
25182SOL     OW77284   8.684   3.378   6.401 -0.8253 -0.3590  0.2973
25182SOL    HW177285   8.686   3.298   6.454 -1.7133 -1.7952 -1.7304
25182SOL    HW277286   8.619   3.360   6.333 -0.3346  1.7356 -0.7894
25183SOL     OW77287   9.391   2.361   1.424 -0.4442  0.6692  0.0629
25183SOL    HW177288   9.388   2.455   1.407 -1.1976  0.6229 -0.1108
25183SOL    HW277289   9.301   2.338   1.446 -0.4648 -0.1791 -0.8476
25184SOL     OW77290   1.632   7.932   6.970 -0.0553 -0.6573 -0.1473
25184SOL    HW177291   1.725   7.945   6.987  0.0044 -0.6713 -0.4563
25184SOL    HW277292   1.598   8.019   6.951  0.3258 -0.8936 -2.1228
25185SOL     OW77293   4.003   5.722   7.552 -0.0253 -0.5972 -0.1923
25185SOL    HW177294   3.962   5.756   7.473 -1.0671 -1.2847  0.0310
25185SOL    HW277295   4.056   5.794   7.585 -0.9039  0.2534 -0.6023
25186SOL     OW77296   8.705   9.447   5.872 -0.0201  0.4553  0.2645
25186SOL    HW177297   8.690   9.404   5.788 -0.0864  0.9513  0.0172
25186SOL    HW277298   8.618   9.476   5.899  0.1578  1.3563 -0.0849
25187SOL     OW77299   5.538   7.466   4.092 -0.0912 -0.0313  0.0977
25187SOL    HW177300   5.511   7.520   4.166 -0.5038  0.1469 -0.1814
25187SOL    HW277301   5.459   7.417   4.068 -0.0476  0.1565 -0.4340
25188SOL     OW77302   1.319   3.389   2.429 -0.2600  0.2926 -0.4003
25188SOL    HW177303   1.349   3.307   2.390  0.5831  0.9653 -1.2166
25188SOL    HW277304   1.257   3.362   2.497 -0.0204 -1.0112 -0.6701
25189SOL     OW77305   6.890   5.021   3.651  0.0626 -0.3957 -0.1845
25189SOL    HW177306   6.936   5.101   3.678 -0.2393 -0.7625  1.5655
25189SOL    HW277307   6.884   5.027   3.556 -0.7940  2.1359 -0.0355
25190SOL     OW77308   7.531   3.998   8.613  0.0890 -0.5109  0.2950
25190SOL    HW177309   7.600   3.932   8.605 -1.8035 -2.5811  0.0745
25190SOL    HW277310   7.459   3.963   8.560 -1.3180  1.2917  0.9408
25191SOL     OW77311   6.646   4.171   8.051  0.4616  0.4691  0.5127
25191SOL    HW177312   6.647   4.097   7.990 -1.6082  0.7499  0.0492
25191SOL    HW277313   6.670   4.247   7.997 -3.8637  1.1779 -0.8370
25192SOL     OW77314   1.386   9.610   9.271  0.6417 -0.2844 -0.4373
25192SOL    HW177315   1.374   9.538   9.209 -0.6505 -0.9852  0.5933
25192SOL    HW277316   1.376   9.689   9.217 -0.9970 -0.8737 -1.0447
25193SOL     OW77317   6.106   6.300   6.663 -0.3824 -0.0995 -0.7594
25193SOL    HW177318   6.056   6.313   6.744  0.0732 -1.6404 -0.1897
25193SOL    HW277319   6.124   6.389   6.631 -1.2822  0.5168  0.3878
25194SOL     OW77320   1.562   8.624   6.151 -0.4801 -0.8352  0.0419
25194SOL    HW177321   1.470   8.600   6.141 -0.5177 -1.0866  0.9184
25194SOL    HW277322   1.608   8.541   6.164 -0.2707 -0.6412  0.5906
25195SOL     OW77323   2.851   7.315   4.707  0.3580  0.3217  0.2053
25195SOL    HW177324   2.915   7.278   4.767  0.1076  0.4137  0.5367
25195SOL    HW277325   2.780   7.250   4.705 -0.2120  0.8939  1.0096
25196SOL     OW77326   8.096   5.673   8.902  0.2990 -0.1423 -0.0163
25196SOL    HW177327   8.109   5.655   8.809  0.1758  0.6772 -0.1956
25196SOL    HW277328   8.017   5.624   8.925  1.7058 -2.4491  0.2882
25197SOL     OW77329   0.435   3.737   3.295  0.4278 -0.1779  0.9208
25197SOL    HW177330   0.510   3.777   3.253 -0.0310  0.1999  0.4436
25197SOL    HW277331   0.413   3.663   3.238  0.2753 -0.1284  0.9154
25198SOL     OW77332   2.622   6.917   6.659 -0.0765  0.8022 -0.0336
25198SOL    HW177333   2.627   6.995   6.603 -1.5099 -0.5838 -2.2413
25198SOL    HW277334   2.712   6.903   6.688  1.7760 -0.6607 -5.4353
25199SOL     OW77335   5.864   5.886   2.108 -0.5093 -0.1826  0.1520
25199SOL    HW177336   5.907   5.855   2.187 -0.5719  1.5181  0.8965
25199SOL    HW277337   5.806   5.815   2.082  0.1175 -1.0790  1.1612
25200SOL     OW77338   4.473   0.267   3.157  0.6846  0.2347 -0.3287
25200SOL    HW177339   4.471   0.291   3.065 -0.6121  1.1610 -0.0802
25200SOL    HW277340   4.382   0.270   3.185  0.8728 -1.5477  0.6205
25201SOL     OW77341   0.639   2.329   6.396  0.1106 -0.1648 -0.2106
25201SOL    HW177342   0.727   2.312   6.361  0.9914 -0.3466  1.9730
25201SOL    HW277343   0.649   2.408   6.449 -1.0046 -0.3059  0.2279
25202SOL     OW77344   8.099   2.817   8.944 -0.3155  0.3970 -0.4160
25202SOL    HW177345   8.058   2.801   9.029  0.3690  2.6268  0.4051
25202SOL    HW277346   8.193   2.822   8.963 -0.0865  0.2492 -1.4394
25203SOL     OW77347   0.350   8.476   2.203  0.3659  0.0599  0.8003
25203SOL    HW177348   0.361   8.491   2.297 -1.6740  0.6536  0.9819
25203SOL    HW277349   0.339   8.563   2.165 -3.4576 -0.3106  0.7214
25204SOL     OW77350   8.397   5.255   0.611 -0.1116 -0.3805  0.3427
25204SOL    HW177351   8.348   5.242   0.692 -0.5551 -1.1486 -0.0370
25204SOL    HW277352   8.446   5.335   0.625 -0.6059 -0.2135  1.1642
25205SOL     OW77353   5.000   8.409   7.654 -0.2197 -0.1640 -0.4877
25205SOL    HW177354   4.936   8.478   7.674 -0.8221 -0.2106 -2.0664
25205SOL    HW277355   5.025   8.426   7.563 -0.2992 -1.9428 -0.8758
25206SOL     OW77356   1.387   6.291   7.169 -0.3753  0.2971 -0.3830
25206SOL    HW177357   1.421   6.243   7.245 -0.0937  1.6922  0.4108
25206SOL    HW277358   1.329   6.229   7.125  0.5456 -1.0117  0.1715
25207SOL     OW77359   4.101   0.439   5.751 -0.5137 -0.1027  0.4099
25207SOL    HW177360   4.138   0.525   5.773  0.7619 -1.0441  2.1900
25207SOL    HW277361   4.170   0.376   5.773 -0.7876 -1.5556 -2.3852
25208SOL     OW77362   7.983   0.406   1.706 -0.0843 -0.2501 -0.5210
25208SOL    HW177363   7.914   0.431   1.767  0.3941  0.7156 -0.3530
25208SOL    HW277364   7.950   0.326   1.664 -0.1190 -1.3623  1.4929
25209SOL     OW77365   6.917   2.121   4.499 -0.0621  0.2346  0.0336
25209SOL    HW177366   6.860   2.080   4.434 -0.1379  1.7888 -0.9466
25209SOL    HW277367   6.931   2.210   4.466  1.7241  0.3685  1.0284
25210SOL     OW77368   3.390   6.859   4.226  0.1228  0.8234  0.0402
25210SOL    HW177369   3.368   6.861   4.133  1.2273  0.7303 -0.2283
25210SOL    HW277370   3.371   6.769   4.253 -0.7233  0.9945  0.0490
25211SOL     OW77371   4.653   2.786   7.965  0.6945  0.3587 -0.4848
25211SOL    HW177372   4.632   2.801   7.873  1.1599 -0.2430 -0.6891
25211SOL    HW277373   4.748   2.781   7.968  0.8224  2.2562  0.3175
25212SOL     OW77374   5.887   3.539   5.706 -0.1650  0.4352 -0.9576
25212SOL    HW177375   5.861   3.584   5.626  0.0902  1.5339 -0.4378
25212SOL    HW277376   5.982   3.552   5.711 -0.5641  3.6228  1.3807
25213SOL     OW77377   1.403   4.919   5.450 -0.3780 -0.0680  0.1805
25213SOL    HW177378   1.336   4.974   5.492  1.5938  1.6636  1.2550
25213SOL    HW277379   1.405   4.948   5.359 -0.0057  1.0125  0.5239
25214SOL     OW77380   2.736   5.752   8.169 -0.4304 -0.0890  0.2837
25214SOL    HW177381   2.786   5.741   8.088 -1.4558  0.6171 -0.4721
25214SOL    HW277382   2.785   5.819   8.218 -0.7893  0.8527 -0.6033
25215SOL     OW77383   3.784   9.375   6.911  0.0959  0.2025 -0.4632
25215SOL    HW177384   3.789   9.284   6.881 -1.3811  0.1607 -0.6586
25215SOL    HW277385   3.834   9.424   6.846 -0.3570 -0.2994 -1.2130
25216SOL     OW77386   5.121   6.783   2.685 -0.3279  0.1324  0.1003
25216SOL    HW177387   5.120   6.692   2.657 -3.4589  0.2619 -0.5072
25216SOL    HW277388   5.109   6.779   2.780  2.1455 -0.0736  0.4710
25217SOL     OW77389   4.532   0.949   0.295  0.2310  0.2655 -0.0251
25217SOL    HW177390   4.447   0.919   0.266 -0.6884  0.0694  2.6020
25217SOL    HW277391   4.554   1.021   0.235 -2.5449  1.4206  0.1887
25218SOL     OW77392   9.570   7.836   7.650 -0.2699  0.1221  0.1070
25218SOL    HW177393   9.633   7.767   7.671 -1.9881 -1.5775  0.0278
25218SOL    HW277394   9.623   7.907   7.614  1.7374 -0.5454  1.5476
25219SOL     OW77395   4.601   0.628   4.300  0.3023  0.1631 -0.1049
25219SOL    HW177396   4.633   0.555   4.354  0.3241  0.3237  0.0991
25219SOL    HW277397   4.669   0.694   4.306 -0.1601  0.5903  0.4990
25220SOL     OW77398   6.135   6.919   2.791 -0.3665  0.2725 -0.4074
25220SOL    HW177399   6.118   6.832   2.826 -0.8614  1.0879  1.5508
25220SOL    HW277400   6.081   6.925   2.712 -2.3806 -0.3204  0.8491
25221SOL     OW77401   9.388   3.619   8.903 -0.3027  0.4842 -0.1276
25221SOL    HW177402   9.469   3.618   8.851 -0.2497  1.1836 -0.0690
25221SOL    HW277403   9.341   3.539   8.876 -0.1858  0.7305 -1.1087
25222SOL     OW77404   9.600   5.304   0.167 -0.3958 -0.3662  0.1449
25222SOL    HW177405   9.625   5.250   0.093 -1.1912 -0.8670  0.2269
25222SOL    HW277406   9.534   5.364   0.131 -1.9687 -1.6461  0.7453
25223SOL     OW77407   4.442   8.209   8.032 -0.1927 -0.0953  0.5067
25223SOL    HW177408   4.375   8.260   8.078 -2.6486 -1.0370 -1.7764
25223SOL    HW277409   4.499   8.275   7.994 -1.4009  0.8703  0.2908
25224SOL     OW77410   7.869   1.996   4.865 -0.4510 -0.0782  0.0456
25224SOL    HW177411   7.927   2.021   4.937  0.4617 -1.1881 -0.2820
25224SOL    HW277412   7.851   1.903   4.880 -2.3469  0.2763  0.2509
25225SOL     OW77413   2.911   4.276   9.220 -0.4382  0.1202 -0.2344
25225SOL    HW177414   2.837   4.322   9.180 -0.7894  0.3905  0.6783
25225SOL    HW277415   2.872   4.194   9.251 -0.5015  0.4948  0.7259
25226SOL     OW77416   6.249   4.855   9.171  0.0780 -0.2243 -0.2595
25226SOL    HW177417   6.326   4.832   9.222  1.2455  0.6767 -1.5601
25226SOL    HW277418   6.219   4.773   9.133 -1.0189 -0.9895  2.0307
25227SOL     OW77419   0.027   0.470   2.257 -0.0403  0.0704  0.0314
25227SOL    HW177420  -0.013   0.490   2.341  0.9424 -1.3059  0.8703
25227SOL    HW277421   0.038   0.375   2.258  2.5968  0.3005 -0.4092
25228SOL     OW77422   2.195   0.668   6.607 -0.3820  0.2554 -0.5348
25228SOL    HW177423   2.169   0.592   6.554  0.9185  0.9306 -2.2665
25228SOL    HW277424   2.258   0.715   6.552 -0.9594  2.4829  0.5781
25229SOL     OW77425   5.910   8.627   0.164  0.1436  0.0245  0.1421
25229SOL    HW177426   5.947   8.656   0.248  0.9462  1.1413 -0.5729
25229SOL    HW277427   5.941   8.691   0.101 -1.8486  0.1921 -0.7501
25230SOL     OW77428   4.487   8.584   8.591 -0.1216 -0.4562 -0.1479
25230SOL    HW177429   4.579   8.589   8.565 -0.3870  0.2183 -1.0142
25230SOL    HW277430   4.489   8.547   8.679  1.1726  1.9203  0.9135
25231SOL     OW77431   6.751   7.630   5.676 -0.1250  0.6307  0.0815
25231SOL    HW177432   6.803   7.612   5.598  1.3897 -1.4309  1.4605
25231SOL    HW277433   6.762   7.724   5.691  2.7118  0.4242 -0.0998
25232SOL     OW77434   0.787   0.384   3.457  0.0123  0.1924 -0.5159
25232SOL    HW177435   0.825   0.315   3.512 -0.1695  1.2317  0.9709
25232SOL    HW277436   0.862   0.421   3.409  0.4600  0.4275  0.3530
25233SOL     OW77437   8.335   2.443   1.827  0.4953  0.3106 -0.0742
25233SOL    HW177438   8.244   2.467   1.842  1.2201  3.7428 -0.3669
25233SOL    HW277439   8.330   2.362   1.776 -2.3015 -0.4025  1.1383
25234SOL     OW77440   9.550   0.534   2.515 -0.5211  0.4964  0.3164
25234SOL    HW177441   9.485   0.498   2.576 -0.4225 -0.4843 -0.1451
25234SOL    HW277442   9.635   0.513   2.555 -0.4688  1.1753  0.5777
25235SOL     OW77443   1.501   4.294   6.185  0.1739 -0.5509 -0.0044
25235SOL    HW177444   1.540   4.318   6.101 -0.4983  0.9249  0.0740
25235SOL    HW277445   1.435   4.361   6.201 -3.0986 -3.3518 -0.5466
25236SOL     OW77446   9.465   3.310   2.193 -0.7169  0.0692  0.3934
25236SOL    HW177447   9.381   3.299   2.238  0.0224 -0.7604  1.6429
25236SOL    HW277448   9.488   3.221   2.165 -0.8165  0.4716 -1.0204
25237SOL     OW77449   1.532   0.395   1.523  0.0540  0.2329  0.1075
25237SOL    HW177450   1.475   0.327   1.558  0.7241 -0.6596 -0.4954
25237SOL    HW277451   1.605   0.400   1.585  1.2682 -1.3857 -1.0994
25238SOL     OW77452   5.272   0.008   8.065 -0.0377  0.0701 -0.1935
25238SOL    HW177453   5.348  -0.012   8.011  0.2755 -0.6195  0.4906
25238SOL    HW277454   5.280  -0.050   8.141 -2.7039 -2.0530 -1.3758
25239SOL     OW77455   8.488   0.080   0.747  0.5172 -0.6324  0.6613
25239SOL    HW177456   8.393   0.075   0.751  0.4223  0.9100  1.1207
25239SOL    HW277457   8.515   0.094   0.838  1.0483  0.4688  0.3541
25240SOL     OW77458   8.404   0.006   6.668 -0.1261  0.6012 -0.0086
25240SOL    HW177459   8.336   0.027   6.604 -0.9282 -0.5342  0.4331
25240SOL    HW277460   8.366   0.034   6.752 -0.6439 -1.2243  0.4117
25241SOL     OW77461   3.201   7.482   2.817  0.1923  0.2630 -0.1823
25241SOL    HW177462   3.153   7.491   2.899 -0.9633 -0.6292 -0.7404
25241SOL    HW277463   3.261   7.557   2.817 -0.5882  0.9282  0.9335
25242SOL     OW77464   7.649   5.827   9.420 -1.4236 -0.2515 -0.6202
25242SOL    HW177465   7.704   5.778   9.359  1.2114 -0.9036  2.0044
25242SOL    HW277466   7.617   5.761   9.482 -0.9201  0.8010  0.8272
25243SOL     OW77467   8.747   1.662   2.103  0.4038  0.1428  0.5796
25243SOL    HW177468   8.735   1.668   2.198  0.0065 -3.0828  0.8217
25243SOL    HW277469   8.689   1.591   2.076  0.9179  0.6309 -2.0382
25244SOL     OW77470   6.835   8.542   0.663 -0.7210 -0.0570 -0.0919
25244SOL    HW177471   6.870   8.605   0.600 -1.2554  0.3778  0.0418
25244SOL    HW277472   6.866   8.457   0.632 -1.2974  0.1080 -1.1586
25245SOL     OW77473   5.687   1.734   5.754 -0.5613  0.8573  0.1092
25245SOL    HW177474   5.645   1.658   5.794 -0.4561  0.4654 -0.5111
25245SOL    HW277475   5.665   1.727   5.661  2.1704 -0.2551 -0.5295
25246SOL     OW77476   8.443   8.212   2.276 -0.2773  0.0206 -0.0012
25246SOL    HW177477   8.437   8.199   2.181  1.0715 -0.9889  0.0093
25246SOL    HW277478   8.384   8.147   2.313 -0.1438 -0.1823 -0.1417
25247SOL     OW77479   0.252   7.274   6.894 -0.3324 -0.2265  0.2313
25247SOL    HW177480   0.181   7.230   6.940  0.5610 -0.1065  1.7853
25247SOL    HW277481   0.217   7.361   6.873 -1.5321 -1.0627 -1.3985
25248SOL     OW77482   6.123   8.692   6.841  0.7637 -0.2065 -0.0777
25248SOL    HW177483   6.100   8.783   6.822  1.9997 -0.0651 -0.9909
25248SOL    HW277484   6.098   8.644   6.762 -0.0187 -0.6874  0.4595
25249SOL     OW77485   9.202   6.198   2.330  0.2012 -0.2947  0.5070
25249SOL    HW177486   9.230   6.182   2.240 -1.0197 -1.8064  0.3454
25249SOL    HW277487   9.196   6.293   2.336  2.4615 -0.0434 -0.2894
25250SOL     OW77488   4.036   7.496   3.123  0.4349 -0.4346  0.3154
25250SOL    HW177489   4.119   7.509   3.077 -0.2272  1.3059 -0.4882
25250SOL    HW277490   4.055   7.430   3.189  2.0224 -1.2931 -0.9302
25251SOL     OW77491   0.471   7.338   1.235 -0.3382  0.1676  0.1516
25251SOL    HW177492   0.403   7.280   1.199 -0.1731  1.5053 -2.6352
25251SOL    HW277493   0.544   7.279   1.256 -0.7970 -0.8491 -0.9403
25252SOL     OW77494   3.318   2.061   5.014  0.9006  0.4797  0.0310
25252SOL    HW177495   3.248   2.079   5.076  1.4637  1.3417  0.4285
25252SOL    HW277496   3.394   2.109   5.048  1.3126  0.6816 -1.1296
25253SOL     OW77497   8.116   4.302   0.809 -0.1388  0.6772  0.4534
25253SOL    HW177498   8.188   4.341   0.860 -0.2676 -0.6049  1.6700
25253SOL    HW277499   8.159   4.264   0.733  0.4568  0.1393  1.0471
25254SOL     OW77500   5.504   3.673   9.043  0.4865 -0.3401 -0.4529
25254SOL    HW177501   5.563   3.598   9.049  0.9976  0.1711  1.5408
25254SOL    HW277502   5.540   3.725   8.970  1.9268 -0.5467  0.0680
25255SOL     OW77503   8.279   5.851   1.027 -0.1552  0.3820 -0.4495
25255SOL    HW177504   8.232   5.848   1.110 -0.9943 -0.8646 -0.9373
25255SOL    HW277505   8.309   5.941   1.019 -2.5156  1.2707 -0.1188
25256SOL     OW77506   6.178   0.303   7.060  0.7587  0.3265  0.2980
25256SOL    HW177507   6.174   0.238   7.129 -2.5027 -0.1662 -0.1942
25256SOL    HW277508   6.183   0.252   6.979 -0.8283  0.6563 -0.0410
25257SOL     OW77509   2.916   1.551   6.589 -0.1606 -0.5972 -0.0880
25257SOL    HW177510   2.891   1.461   6.613 -0.2354 -0.5513  0.0092
25257SOL    HW277511   2.930   1.548   6.495  0.3364 -0.8264 -0.0070
25258SOL     OW77512   1.998   3.583   2.222  0.3711  0.7645 -0.0201
25258SOL    HW177513   2.036   3.604   2.307 -0.2700 -1.3558  0.8661
25258SOL    HW277514   2.063   3.526   2.180 -0.2178  0.0816 -0.0317
25259SOL     OW77515   4.004   0.322   6.523 -0.2572 -0.1189 -0.2392
25259SOL    HW177516   3.977   0.413   6.535  0.3403  0.2597 -1.5611
25259SOL    HW277517   4.094   0.319   6.556  0.0482  0.0127 -1.0278
25260SOL     OW77518   5.580   8.069   2.949  0.0506 -0.9864 -0.0494
25260SOL    HW177519   5.636   8.083   2.872 -0.0889  0.7864  0.1263
25260SOL    HW277520   5.639   8.038   3.017  0.4119 -1.2355 -0.4709
25261SOL     OW77521   5.273   8.342   3.503 -0.1923 -0.7883  0.7640
25261SOL    HW177522   5.225   8.317   3.581 -1.7424 -0.5001 -0.0716
25261SOL    HW277523   5.297   8.434   3.518 -1.3906 -0.4136  0.4817
25262SOL     OW77524   7.204   7.415   7.336  0.0202 -0.5158  0.1961
25262SOL    HW177525   7.240   7.499   7.306 -2.6306 -0.0575 -2.0332
25262SOL    HW277526   7.275   7.353   7.321  0.5484  0.5791 -2.5147
25263SOL     OW77527   6.052   4.636   0.900  1.1522  0.2352  0.0113
25263SOL    HW177528   6.090   4.609   0.817  0.3653  1.1071 -0.6665
25263SOL    HW277529   5.967   4.673   0.875 -0.2051 -1.7151  1.4547
25264SOL     OW77530   7.831   1.684   4.567  0.3026 -0.2448 -0.1163
25264SOL    HW177531   7.772   1.615   4.538  1.7753 -0.6312 -2.4167
25264SOL    HW277532   7.785   1.765   4.548 -0.3942 -0.5366  0.2613
25265SOL     OW77533   8.571   2.006   5.663  0.1713 -0.6055 -0.0036
25265SOL    HW177534   8.496   2.036   5.611 -0.8177 -0.7519  1.2977
25265SOL    HW277535   8.619   1.948   5.603  1.3521  2.3009 -2.1032
25266SOL     OW77536   0.690   7.587   0.178  0.0361  0.3824 -0.0373
25266SOL    HW177537   0.607   7.580   0.225 -0.4319  0.2435 -0.8581
25266SOL    HW277538   0.696   7.506   0.128  1.0154  0.0756  0.5530
25267SOL     OW77539   1.038   2.462   8.165 -0.4249  0.0221 -0.1569
25267SOL    HW177540   1.033   2.555   8.187 -1.8147 -0.4841  1.9091
25267SOL    HW277541   1.083   2.422   8.240 -0.6461 -1.1036 -0.6043
25268SOL     OW77542   9.470   3.789   9.097  0.0114  0.2527 -0.3646
25268SOL    HW177543   9.444   3.715   9.043  0.7644  0.6810 -1.3571
25268SOL    HW277544   9.560   3.806   9.072  0.0794  1.0480  0.3782
25269SOL     OW77545   0.058   1.822   2.496  0.0025  0.0390  0.0739
25269SOL    HW177546   0.152   1.836   2.498 -0.0268  0.1948  1.5195
25269SOL    HW277547   0.021   1.910   2.486  0.0020 -0.1509 -2.0803
25270SOL     OW77548   6.090   2.176   2.935  0.0995 -0.0677  0.3665
25270SOL    HW177549   6.072   2.192   2.842  0.5140 -1.8414 -0.0454
25270SOL    HW277550   6.147   2.099   2.936  4.5039  2.7772  1.7760
25271SOL     OW77551   8.613   7.614   1.435  0.4497 -0.3568 -0.2307
25271SOL    HW177552   8.520   7.617   1.412  0.4995  0.4774 -0.3610
25271SOL    HW277553   8.629   7.523   1.459 -0.7422 -0.2459  1.1654
25272SOL     OW77554   1.320   0.036   2.713 -0.2466 -0.4960 -0.0078
25272SOL    HW177555   1.259   0.090   2.764  0.1384  1.0414 -1.1189
25272SOL    HW277556   1.383   0.004   2.777  0.8901  2.3095  0.4180
25273SOL     OW77557   8.961   7.788   8.313 -0.0098  0.0729 -0.0116
25273SOL    HW177558   8.952   7.718   8.378 -0.6252  0.8274  0.7474
25273SOL    HW277559   9.011   7.748   8.242  0.7329 -0.7734  0.9388
25274SOL     OW77560   0.331   7.743   0.798 -0.4971 -0.6155  0.5288
25274SOL    HW177561   0.399   7.711   0.739 -0.2637 -0.2171  0.5807
25274SOL    HW277562   0.261   7.772   0.741 -1.5757 -3.0317  0.4884
25275SOL     OW77563   8.912   2.400   2.014 -0.2919 -0.5111  0.2899
25275SOL    HW177564   8.914   2.373   2.106  0.7124 -0.2039  0.3773
25275SOL    HW277565   8.823   2.381   1.985 -0.3684 -1.4316  1.0761
25276SOL     OW77566   3.481   2.700   8.556 -0.6091  0.0082  0.3144
25276SOL    HW177567   3.512   2.720   8.644 -0.8781  1.4251  0.1024
25276SOL    HW277568   3.553   2.724   8.499 -0.6681 -0.3322  0.0927
25277SOL     OW77569   2.059   7.510   7.775 -0.2940 -0.6026 -0.1482
25277SOL    HW177570   2.018   7.574   7.717 -1.5610 -1.2426 -0.0052
25277SOL    HW277571   2.026   7.532   7.862  0.6191 -0.4055  0.1561
25278SOL     OW77572   7.387   2.823   3.642  0.0088 -0.6776  0.1323
25278SOL    HW177573   7.295   2.797   3.639 -0.3445  0.5092  0.1197
25278SOL    HW277574   7.422   2.798   3.557 -0.9708  1.1601 -0.8600
25279SOL     OW77575   8.689   2.573   0.238 -0.0464 -0.1597 -0.2601
25279SOL    HW177576   8.746   2.627   0.294  0.5666 -1.9144  0.8821
25279SOL    HW277577   8.715   2.596   0.149  3.5181 -1.8293  0.1663
25280SOL     OW77578   7.911   5.674   6.630  0.3188 -0.2115 -0.0458
25280SOL    HW177579   7.886   5.764   6.612  2.5712  0.2963 -0.9546
25280SOL    HW277580   7.889   5.626   6.551  1.1876  0.0242 -0.4416
25281SOL     OW77581   5.912   8.059   4.164  0.0732  0.2909  0.4925
25281SOL    HW177582   5.900   8.146   4.202 -0.0746  0.6832 -0.4167
25281SOL    HW277583   5.828   8.040   4.122  0.1123 -0.2819  0.6662
25282SOL     OW77584   5.047   4.307   9.218  0.1710  0.1700  0.3669
25282SOL    HW177585   4.954   4.301   9.198  0.1741 -2.2467  0.7042
25282SOL    HW277586   5.051   4.305   9.313  0.5650 -1.5925  0.3588
25283SOL     OW77587   1.858   7.335   2.573  0.3572  0.2083  0.5165
25283SOL    HW177588   1.833   7.251   2.614  2.1756 -0.1421  0.9685
25283SOL    HW277589   1.952   7.329   2.561  0.3551  1.7642 -0.4946
25284SOL     OW77590   8.826   4.578   1.912  0.3856 -0.0836  0.7911
25284SOL    HW177591   8.913   4.548   1.886  0.2786 -0.7112  1.1357
25284SOL    HW277592   8.814   4.543   2.000 -0.0218  0.4137  0.9387
25285SOL     OW77593   8.907   9.430   6.326 -0.5138  0.0237  0.4616
25285SOL    HW177594   8.974   9.486   6.365 -0.8180  0.4110  0.4318
25285SOL    HW277595   8.926   9.432   6.232  0.4536 -1.2149  0.6127
25286SOL     OW77596   7.863   8.558   0.933  0.1845 -0.4801 -0.7125
25286SOL    HW177597   7.773   8.588   0.949 -0.1950 -0.5234 -2.5541
25286SOL    HW277598   7.854   8.463   0.919  0.5282 -0.5022 -0.7834
25287SOL     OW77599   7.647   7.452   8.881 -0.3051  0.0039 -0.2566
25287SOL    HW177600   7.741   7.440   8.893  0.0172  1.3409 -1.2249
25287SOL    HW277601   7.623   7.518   8.946 -1.0176 -1.7628  1.3834
25288SOL     OW77602   9.453   1.122   8.599 -0.2507 -0.2303 -0.2802
25288SOL    HW177603   9.443   1.216   8.614 -0.3547 -0.2087 -0.4789
25288SOL    HW277604   9.484   1.088   8.683 -1.0565 -0.1524  0.0610
25289SOL     OW77605   6.972   0.839   2.813 -0.0652  0.3984  0.3162
25289SOL    HW177606   7.009   0.751   2.820 -1.0095  0.0322  1.0408
25289SOL    HW277607   6.880   0.828   2.837 -0.4533  1.4105 -0.6438
25290SOL     OW77608   1.501   8.911   2.322 -0.0270  0.1983 -0.7657
25290SOL    HW177609   1.452   8.829   2.329  0.6180 -0.0905  0.8546
25290SOL    HW277610   1.434   8.979   2.334 -0.1580 -0.1791  0.8876
25291SOL     OW77611   0.117   3.648   6.992 -0.0775 -0.6903  0.3033
25291SOL    HW177612   0.065   3.569   6.973  0.4189 -0.6863 -1.1997
25291SOL    HW277613   0.183   3.650   6.923 -0.4420  1.3718 -0.0434
25292SOL     OW77614   8.973   4.390   7.972  0.0814  0.5210  0.5487
25292SOL    HW177615   8.888   4.381   7.929  0.2906  0.0460  0.2212
25292SOL    HW277616   8.953   4.394   8.065 -0.2637 -0.2652  0.5190
25293SOL     OW77617   6.356   0.490   7.132 -0.1770  0.1132 -0.0531
25293SOL    HW177618   6.423   0.423   7.119  0.9158  1.2723 -0.5769
25293SOL    HW277619   6.273   0.445   7.116  0.5784 -0.9197 -1.1685
25294SOL     OW77620   3.586   6.393   6.495  0.1685 -0.1727  0.3201
25294SOL    HW177621   3.652   6.357   6.436  0.8868 -0.7898  1.4478
25294SOL    HW277622   3.525   6.440   6.438  1.7561  0.6943 -0.7204
25295SOL     OW77623   4.276   3.458   0.136 -0.6008  0.3687 -0.1850
25295SOL    HW177624   4.265   3.451   0.231 -1.4065  1.4162 -0.1807
25295SOL    HW277625   4.193   3.427   0.100 -0.6361  0.8187 -0.5021
25296SOL     OW77626   0.805   8.228   4.909  0.1261  0.7248  0.5289
25296SOL    HW177627   0.842   8.156   4.961  1.1599 -0.8178 -2.1431
25296SOL    HW277628   0.711   8.220   4.922  0.2521 -0.6903  0.8456
25297SOL     OW77629   0.628   3.886   2.770  0.0747  0.4481  0.8856
25297SOL    HW177630   0.623   3.942   2.692  1.5184  0.6095  0.8816
25297SOL    HW277631   0.550   3.830   2.765  0.8455 -0.5127 -1.4163
25298SOL     OW77632   3.111   8.876   5.762  0.0494  0.2766  0.4646
25298SOL    HW177633   3.152   8.812   5.704  0.1740  2.1595 -1.6442
25298SOL    HW277634   3.024   8.840   5.779 -0.1639 -0.1144 -1.2795
25299SOL     OW77635   4.750   4.733   2.729  0.2500 -0.2557  0.3448
25299SOL    HW177636   4.839   4.697   2.722 -0.0867 -0.8601 -1.3337
25299SOL    HW277637   4.707   4.679   2.795  0.6436 -1.0742 -0.0493
25300SOL     OW77638   3.067   4.009   1.650 -0.5299  0.0409  0.3000
25300SOL    HW177639   3.088   4.000   1.743  1.9534  2.1439  0.0646
25300SOL    HW277640   3.031   4.098   1.642  0.9752  0.5741 -0.9518
25301SOL     OW77641   1.200   1.937   4.275 -0.3262 -0.1750 -0.3880
25301SOL    HW177642   1.256   1.893   4.212 -0.0969 -1.0283  0.3956
25301SOL    HW277643   1.256   2.003   4.316  0.4001 -1.5740  0.9865
25302SOL     OW77644   8.983   5.502   5.278 -0.0582  0.3000 -0.0330
25302SOL    HW177645   9.029   5.561   5.219  1.1158 -1.0268 -0.5202
25302SOL    HW277646   9.052   5.466   5.334 -1.0684  1.0934  1.8032
25303SOL     OW77647   8.707   0.967   5.442  0.3676  0.1383  0.1496
25303SOL    HW177648   8.788   0.941   5.398 -1.6833 -1.0102 -3.3129
25303SOL    HW277649   8.665   1.028   5.381 -1.4697  0.6052  1.7808
25304SOL     OW77650   5.602   3.984   7.020 -0.1373  0.2434 -0.3634
25304SOL    HW177651   5.594   4.021   6.932 -0.8550 -0.5656 -0.6527
25304SOL    HW277652   5.576   3.892   7.009  0.4355 -0.0348  0.5644
25305SOL     OW77653   0.846   3.793   5.621 -0.0728 -0.0770 -0.1487
25305SOL    HW177654   0.862   3.887   5.624 -1.0595  0.2419 -2.5917
25305SOL    HW277655   0.752   3.785   5.641 -0.1355 -0.4785 -0.6145
25306SOL     OW77656   3.263   7.525   5.656  0.2829  0.3285  0.1587
25306SOL    HW177657   3.246   7.474   5.736  0.6676  0.2157  0.1704
25306SOL    HW277658   3.256   7.462   5.585  0.4664  0.3195  0.1483
25307SOL     OW77659   0.094   9.163   6.381  0.2685 -0.0587  0.5995
25307SOL    HW177660   0.003   9.189   6.389  0.3650 -0.0644  2.0449
25307SOL    HW277661   0.096   9.105   6.305 -0.5446  1.4909 -0.6427
25308SOL     OW77662   6.932   7.364   6.613 -0.3063  0.5808  0.4093
25308SOL    HW177663   6.846   7.369   6.571  0.6730 -1.1845 -2.0296
25308SOL    HW277664   6.933   7.278   6.654  1.2894 -0.7116 -2.1529
25309SOL     OW77665   5.034   7.586   4.106  0.4368 -0.0104  0.1342
25309SOL    HW177666   5.095   7.531   4.057 -0.5216 -0.0696 -1.0204
25309SOL    HW277667   4.967   7.526   4.137 -0.4443  0.4382 -0.8625
25310SOL     OW77668   4.178   4.207   1.362 -0.1930  0.7130  0.3149
25310SOL    HW177669   4.123   4.131   1.343 -1.5261  1.5115  0.8376
25310SOL    HW277670   4.148   4.238   1.448 -0.3705  2.4122 -0.3241
25311SOL     OW77671   2.839   3.776   8.495 -0.0660 -0.1426  0.1709
25311SOL    HW177672   2.748   3.798   8.518 -0.1653 -0.4596  0.0929
25311SOL    HW277673   2.842   3.784   8.399 -0.8968 -3.2097 -0.2275
25312SOL     OW77674   3.811   1.098   2.620 -0.2774 -0.6181  0.2797
25312SOL    HW177675   3.824   1.072   2.528 -1.0323 -1.0675  0.2952
25312SOL    HW277676   3.886   1.061   2.666  1.1757  1.2330 -0.4334
25313SOL     OW77677   7.125   2.841   3.705  1.0097  0.4091 -0.1330
25313SOL    HW177678   7.046   2.818   3.657  0.7798  0.6536  0.1199
25313SOL    HW277679   7.106   2.816   3.795  2.0555 -1.5609 -0.4170
25314SOL     OW77680   0.764   7.408   1.472 -0.4367  0.1734 -0.6525
25314SOL    HW177681   0.833   7.342   1.482 -0.6053 -0.0804 -1.1156
25314SOL    HW277682   0.784   7.452   1.389 -2.0553 -1.4052 -1.9671
25315SOL     OW77683   1.093   8.649   7.082  0.7763 -0.1249  0.8806
25315SOL    HW177684   1.075   8.629   6.990  1.1714 -1.4051  1.0507
25315SOL    HW277685   1.075   8.567   7.128  1.8400  0.1043  1.7544
25316SOL     OW77686   3.031   5.025   1.608 -0.7748  0.3444 -0.1374
25316SOL    HW177687   3.053   4.966   1.536  0.3455  1.4518 -0.7388
25316SOL    HW277688   2.948   5.065   1.582 -0.9828 -0.1479 -0.2390
25317SOL     OW77689   6.968   3.615   5.749  0.3350  0.1034  0.4669
25317SOL    HW177690   6.938   3.547   5.808  0.6379 -0.4099  0.0375
25317SOL    HW277691   7.053   3.584   5.718 -0.2678 -0.1434 -1.0340
25318SOL     OW77692   7.328   6.004   2.026  0.2460  0.3388  0.2972
25318SOL    HW177693   7.350   6.067   1.958  0.8381 -0.3578 -0.1696
25318SOL    HW277694   7.351   6.048   2.108 -1.0334  1.4194  0.1084
25319SOL     OW77695   4.754   6.326   0.587  0.4676 -0.2779 -0.1590
25319SOL    HW177696   4.753   6.402   0.529  0.3426 -1.1901 -1.3939
25319SOL    HW277697   4.662   6.309   0.606  0.3908 -1.0147 -1.1227
25320SOL     OW77698   1.488   6.001   6.572 -0.2574  0.0669  0.4701
25320SOL    HW177699   1.526   5.917   6.598 -0.2914  0.0206  0.3690
25320SOL    HW277700   1.505   6.059   6.646 -0.9569 -0.2512  0.8941
25321SOL     OW77701   7.760   4.552   3.940 -0.2419 -0.0219  0.1126
25321SOL    HW177702   7.745   4.543   4.034 -1.2155 -3.1006 -0.2414
25321SOL    HW277703   7.837   4.498   3.922 -0.3974  0.0822 -0.9500
25322SOL     OW77704   1.850   4.658   7.736 -0.1025 -0.1829  0.1882
25322SOL    HW177705   1.942   4.677   7.718 -0.3919  1.2602  0.1221
25322SOL    HW277706   1.802   4.703   7.666 -0.9834  1.2684  1.6639
25323SOL     OW77707   9.124   3.744   5.203  1.0304 -0.0792  0.0220
25323SOL    HW177708   9.136   3.654   5.173  2.1501  0.2065 -0.4180
25323SOL    HW277709   9.029   3.757   5.200  0.9251 -0.9105 -0.9252
25324SOL     OW77710   8.379   1.790   2.825  0.0027  1.0255  0.8107
25324SOL    HW177711   8.413   1.818   2.740  1.1234  0.0610  0.9185
25324SOL    HW277712   8.347   1.870   2.866 -0.8491  1.4584 -0.6445
25325SOL     OW77713   8.863   2.492   2.828  0.0462 -0.0726 -0.2629
25325SOL    HW177714   8.950   2.528   2.844  0.4143 -1.1185  0.1493
25325SOL    HW277715   8.802   2.561   2.857  0.7259  0.0180  0.9824
25326SOL     OW77716   6.021   3.242   8.594  0.1492  0.4769  0.5656
25326SOL    HW177717   5.973   3.324   8.580 -0.9767 -0.3681 -0.7910
25326SOL    HW277718   5.952   3.176   8.599  1.1552 -0.7483 -1.1443
25327SOL     OW77719   5.073   1.656   1.592 -0.0539  0.1618 -0.3470
25327SOL    HW177720   5.038   1.625   1.509 -0.2207 -0.2110 -0.1356
25327SOL    HW277721   5.085   1.750   1.579 -0.0753  0.1032 -0.7940
25328SOL     OW77722   2.849   9.209   2.307 -0.1603  0.0664 -0.2369
25328SOL    HW177723   2.907   9.208   2.231 -1.4062  1.5494 -1.2666
25328SOL    HW277724   2.863   9.295   2.347 -1.3415  0.2939 -0.2743
25329SOL     OW77725   4.164   2.048   7.094 -0.1954  0.2149 -0.1420
25329SOL    HW177726   4.210   2.094   7.024 -0.4982  0.0160 -0.4769
25329SOL    HW277727   4.203   2.082   7.175  1.4141 -0.8560 -0.4266
25330SOL     OW77728   0.870   4.705   2.801  0.5027  0.2002  0.6670
25330SOL    HW177729   0.849   4.625   2.849  0.4550  0.6527  1.4322
25330SOL    HW277730   0.965   4.707   2.796  0.4674 -0.4858 -0.3868
25331SOL     OW77731   1.894   1.812   8.221  0.1497 -0.4423  0.8633
25331SOL    HW177732   1.893   1.824   8.316 -1.9451  1.8963  0.6629
25331SOL    HW277733   1.814   1.763   8.202  1.3387 -2.2689  0.3816
25332SOL     OW77734   3.701   8.438   0.819  0.5368 -0.1325  0.4412
25332SOL    HW177735   3.724   8.521   0.776  0.6641 -0.5591 -0.3370
25332SOL    HW277736   3.610   8.423   0.794  0.4088 -0.0653  0.8589
25333SOL     OW77737   4.243   9.306   5.838 -0.0242 -0.6913  0.1952
25333SOL    HW177738   4.268   9.240   5.903  2.9669 -0.9707 -1.0352
25333SOL    HW277739   4.314   9.302   5.773 -0.2341  3.0412 -0.4632
25334SOL     OW77740   4.586   9.375   0.864 -0.4490 -0.5823 -0.2253
25334SOL    HW177741   4.578   9.339   0.953 -0.1630 -3.0754 -1.1368
25334SOL    HW277742   4.538   9.458   0.868  0.9447  0.2638  2.6682
25335SOL     OW77743   4.860   6.448   7.854 -0.2941  0.2691  0.5027
25335SOL    HW177744   4.946   6.478   7.825 -0.0877 -1.7053 -1.1411
25335SOL    HW277745   4.873   6.355   7.876 -1.9459 -0.0087  0.4444
25336SOL     OW77746   4.340   5.271   3.155 -0.3542  0.1218  0.1381
25336SOL    HW177747   4.277   5.296   3.223  0.8053 -1.8634  2.0778
25336SOL    HW277748   4.383   5.353   3.132 -1.0859  0.9327  1.4929
25337SOL     OW77749   3.342   0.197   6.898  0.2066 -0.2103  0.1764
25337SOL    HW177750   3.293   0.155   6.968  2.0091 -1.5534  0.7225
25337SOL    HW277751   3.393   0.127   6.858  1.4428  1.0157 -0.5215
25338SOL     OW77752   7.313   0.229   5.508  0.0304 -0.0901  0.1681
25338SOL    HW177753   7.334   0.180   5.428 -0.4472 -0.1900  0.0991
25338SOL    HW277754   7.302   0.319   5.478  1.6227  0.2158  0.4048
25339SOL     OW77755   7.383   1.128   2.889 -0.2877  0.0688  0.3030
25339SOL    HW177756   7.397   1.211   2.842 -1.8274  0.5204  0.5775
25339SOL    HW277757   7.447   1.130   2.961  1.3204 -0.1094 -1.0661
25340SOL     OW77758   5.776   9.301   8.980 -0.0822 -0.1994  0.0856
25340SOL    HW177759   5.736   9.376   8.937  0.2540 -0.7328 -1.2120
25340SOL    HW277760   5.728   9.225   8.945 -0.3448 -0.6165  1.2822
25341SOL     OW77761   4.744   7.298   6.712  0.2034  0.2428 -0.4851
25341SOL    HW177762   4.748   7.275   6.619 -2.3854 -0.3780 -0.5065
25341SOL    HW277763   4.769   7.217   6.758  0.7309  0.3309 -0.6020
25342SOL     OW77764   6.781   4.432   6.615 -0.7552 -0.0719 -0.0931
25342SOL    HW177765   6.696   4.475   6.631 -0.6530  0.1032 -0.0118
25342SOL    HW277766   6.805   4.460   6.527 -0.9658 -0.4341 -0.2648
25343SOL     OW77767   8.570   1.683   9.352 -0.2581  0.1949 -0.1481
25343SOL    HW177768   8.594   1.608   9.298  2.1039  0.2196  0.7706
25343SOL    HW277769   8.612   1.666   9.436 -0.4434  2.1183  0.3656
25344SOL     OW77770   0.188   1.938   6.295  0.5872  0.1063 -0.0909
25344SOL    HW177771   0.133   1.871   6.254  0.8173 -0.0075 -0.2128
25344SOL    HW277772   0.277   1.914   6.272  0.5937  1.4995 -1.7534
25345SOL     OW77773   7.237   0.228   3.338 -0.1646 -0.2001  0.0731
25345SOL    HW177774   7.217   0.222   3.432 -0.7953  1.2108  0.0387
25345SOL    HW277775   7.186   0.158   3.298 -0.5597 -0.2652  0.6804
25346SOL     OW77776   3.678   9.552   0.028  0.2416  0.1879 -0.2303
25346SOL    HW177777   3.616   9.481   0.043  0.9482 -0.3278  0.3552
25346SOL    HW277778   3.658   9.584  -0.060 -3.1940  2.4376  1.1969
25347SOL     OW77779   6.417   4.106   0.317  0.1927  0.0025  0.0607
25347SOL    HW177780   6.427   4.147   0.403 -2.3006 -0.5656  0.6996
25347SOL    HW277781   6.433   4.013   0.333  0.0342 -0.0599 -0.1366
25348SOL     OW77782   2.361   5.586   4.503 -0.1590 -0.4607 -0.1269
25348SOL    HW177783   2.343   5.662   4.448 -0.6073 -0.6593 -0.2535
25348SOL    HW277784   2.442   5.609   4.550  0.7797 -0.6750 -1.5678
25349SOL     OW77785   6.700   8.750   3.533  0.0635 -0.1598  0.5097
25349SOL    HW177786   6.674   8.728   3.444 -0.5925  0.6909  0.4700
25349SOL    HW277787   6.656   8.686   3.588 -1.0227  0.4063  0.3356
25350SOL     OW77788   0.074   1.343   6.938 -0.6714  0.0127  0.1008
25350SOL    HW177789   0.158   1.323   6.898  0.4657  3.1718  0.6248
25350SOL    HW277790   0.074   1.294   7.021  0.5731 -0.1876 -0.0010
25351SOL     OW77791   2.577   8.330   5.019 -0.0153 -0.7983 -0.0493
25351SOL    HW177792   2.665   8.368   5.014 -0.7702  0.9868 -1.1380
25351SOL    HW277793   2.556   8.306   4.928 -0.6774 -1.1228  0.1816
25352SOL     OW77794   9.481   0.226   7.648  0.4905 -0.1495  0.0888
25352SOL    HW177795   9.515   0.173   7.577 -0.1612 -0.4583  0.0080
25352SOL    HW277796   9.559   0.250   7.699  0.9104 -0.2571 -0.4960
25353SOL     OW77797   8.848   1.692   7.869 -0.7904 -0.4462 -0.2515
25353SOL    HW177798   8.843   1.784   7.894 -1.5169  0.1147 -2.2920
25353SOL    HW277799   8.934   1.663   7.901  0.7123  1.7353 -2.0508
25354SOL     OW77800   2.225   4.865   0.927 -0.5269 -0.2135  0.1402
25354SOL    HW177801   2.138   4.904   0.926 -1.4990 -1.4459  5.8202
25354SOL    HW277802   2.211   4.774   0.901 -1.0019 -0.4157  1.0741
25355SOL     OW77803   3.649   8.856   2.641 -0.3936  0.7291 -0.1616
25355SOL    HW177804   3.742   8.859   2.665  0.1838  2.0182 -2.3415
25355SOL    HW277805   3.629   8.763   2.637  0.2294  0.4119  2.1990
25356SOL     OW77806   2.632   8.955   8.174  0.3123 -0.6178  0.1772
25356SOL    HW177807   2.645   9.048   8.189 -2.2427  0.0367 -1.0397
25356SOL    HW277808   2.665   8.913   8.253 -1.2862  1.5907  2.1677
25357SOL     OW77809   1.126   0.644   7.574 -0.1536  0.2136  0.8877
25357SOL    HW177810   1.103   0.660   7.666  0.9624  1.0043  1.0585
25357SOL    HW277811   1.052   0.595   7.539 -1.4519  1.4949  1.7095
25358SOL     OW77812   2.614   8.660   3.052 -0.5399 -0.2510 -0.1744
25358SOL    HW177813   2.696   8.705   3.068 -0.9133  0.3728  0.0188
25358SOL    HW277814   2.553   8.696   3.117 -0.8234 -1.0907  0.0365
25359SOL     OW77815   8.695   1.783   3.690  0.8934 -0.5469  0.4509
25359SOL    HW177816   8.710   1.877   3.683 -1.4558 -0.2076 -1.0550
25359SOL    HW277817   8.764   1.744   3.636  1.2672  0.3735  0.2313
25360SOL     OW77818   7.453   5.983   9.585 -0.2023 -0.1464  0.0381
25360SOL    HW177819   7.396   5.940   9.649  0.8865 -2.5211 -0.4387
25360SOL    HW277820   7.518   5.915   9.563  0.1124  0.9568 -2.7411
25361SOL     OW77821   3.098   0.376   3.544 -0.1777 -0.1352  0.0017
25361SOL    HW177822   3.067   0.285   3.535 -2.1913  0.3218  1.5704
25361SOL    HW277823   3.160   0.373   3.617 -1.3046 -0.0695  0.9972
25362SOL     OW77824   7.507   0.564   0.532 -0.3956  0.2936 -0.3282
25362SOL    HW177825   7.548   0.478   0.534  0.6151  0.7027  2.6982
25362SOL    HW277826   7.425   0.552   0.484  0.8684 -1.7409 -2.0859
25363SOL     OW77827   4.411   6.206   9.359  0.0850 -0.6810 -0.8714
25363SOL    HW177828   4.425   6.116   9.330 -0.4343 -0.9641 -0.2542
25363SOL    HW277829   4.320   6.209   9.388  0.0426  0.0912 -1.0506
25364SOL     OW77830   0.385   8.005   5.417  0.1907 -0.1622  0.0263
25364SOL    HW177831   0.438   8.063   5.473 -0.1578  1.4105 -1.1945
25364SOL    HW277832   0.341   8.065   5.357  0.1594 -1.7603 -1.6073
25365SOL     OW77833   3.390   8.936   3.673 -0.2027  0.4462  0.1407
25365SOL    HW177834   3.477   8.911   3.640 -0.1696  2.0863 -1.1900
25365SOL    HW277835   3.402   8.945   3.767  0.3402 -2.0342  0.3641
25366SOL     OW77836   0.608   2.078   9.440 -0.5452  0.4647  0.0232
25366SOL    HW177837   0.692   2.081   9.396 -0.7350  0.0318 -0.3767
25366SOL    HW277838   0.567   2.163   9.422 -1.3264 -0.2893 -2.0552
25367SOL     OW77839   5.303   6.734   9.421  0.1338  0.4431  0.0114
25367SOL    HW177840   5.339   6.820   9.397  0.3200  1.3617  3.1368
25367SOL    HW277841   5.208   6.745   9.414  0.1781  0.6394 -0.3186
25368SOL     OW77842   3.462   7.022   9.487 -0.5069  0.2105 -0.2276
25368SOL    HW177843   3.489   7.113   9.482 -1.3151  0.4617 -0.1105
25368SOL    HW277844   3.512   6.978   9.418 -0.4045  0.8142 -0.5403
25369SOL     OW77845   6.616   2.451   1.613 -0.0321 -0.0112  0.4386
25369SOL    HW177846   6.534   2.408   1.639  0.7056 -1.5103  0.3983
25369SOL    HW277847   6.682   2.382   1.620  0.8130  0.4695 -1.9221
25370SOL     OW77848   7.383   0.620   1.621 -0.0226  0.5201 -0.1346
25370SOL    HW177849   7.440   0.586   1.551 -0.3582 -0.7913  0.2151
25370SOL    HW277850   7.418   0.582   1.701 -1.5485 -0.5309  0.0544
25371SOL     OW77851   5.478   2.843   3.693 -0.1474  0.3262 -0.1216
25371SOL    HW177852   5.397   2.885   3.723 -1.0591  1.4440 -3.6904
25371SOL    HW277853   5.456   2.750   3.685 -0.4850  0.3347  0.6489
25372SOL     OW77854   7.584   1.132   1.781  0.1256  0.1600 -0.1819
25372SOL    HW177855   7.636   1.201   1.822  0.5776  0.2184 -0.8427
25372SOL    HW277856   7.558   1.168   1.697  0.4251 -0.4982 -0.5651
25373SOL     OW77857   2.516   8.058   0.393  0.2949  0.5656 -0.1588
25373SOL    HW177858   2.557   8.073   0.308  2.7925  0.5480  0.9499
25373SOL    HW277859   2.582   8.012   0.444 -1.2056  0.3745  1.7490
25374SOL     OW77860   5.656   5.129   7.361 -0.1174  0.0333 -0.2583
25374SOL    HW177861   5.628   5.051   7.312  0.2596  0.5715 -1.3616
25374SOL    HW277862   5.714   5.095   7.429  1.3265 -0.5200 -1.7123
25375SOL     OW77863   0.415   6.690   3.333  0.1807 -0.3125 -0.2937
25375SOL    HW177864   0.348   6.672   3.399  1.6227 -1.2529  0.9826
25375SOL    HW277865   0.392   6.776   3.299 -1.4215 -0.4161  0.4006
25376SOL     OW77866   1.758   7.189   3.815 -0.0158  0.3152  0.0964
25376SOL    HW177867   1.847   7.221   3.807 -0.1571  0.4466 -1.1744
25376SOL    HW277868   1.730   7.173   3.725 -0.8796 -0.8049  0.5363
25377SOL     OW77869   7.472   0.103   2.112  0.4291 -0.0972  0.8138
25377SOL    HW177870   7.458   0.027   2.055 -1.1847  0.6284  0.1723
25377SOL    HW277871   7.555   0.141   2.082  0.0874 -0.2942 -0.4372
25378SOL     OW77872   8.546   6.365   7.987 -0.2904 -0.5153  0.2658
25378SOL    HW177873   8.553   6.439   7.926  1.1823 -0.6955  0.1812
25378SOL    HW277874   8.452   6.348   7.992 -0.6460  1.1448  0.0303
25379SOL     OW77875   8.535   7.105   2.140 -0.1456 -0.2117 -0.0627
25379SOL    HW177876   8.498   7.045   2.075 -0.9822  1.5693 -1.3280
25379SOL    HW277877   8.458   7.148   2.179  0.1943 -2.2090  3.2626
25380SOL     OW77878   4.185   8.301   4.624  0.1268 -0.5034 -0.0322
25380SOL    HW177879   4.191   8.207   4.606  1.2471 -0.6043  0.7099
25380SOL    HW277880   4.224   8.310   4.711  0.4428  0.6978 -0.2864
25381SOL     OW77881   9.248   0.033   9.535 -0.0368  0.3268 -0.4745
25381SOL    HW177882   9.197  -0.039   9.498  0.4721  0.2840 -1.1119
25381SOL    HW277883   9.207   0.051   9.619 -1.3156  0.5237 -1.1212
25382SOL     OW77884   5.855   8.678   6.067 -0.0897  0.2727  0.4101
25382SOL    HW177885   5.803   8.716   5.995 -1.5472 -2.6058 -0.2368
25382SOL    HW277886   5.945   8.679   6.035 -0.6437 -0.4803 -1.3219
25383SOL     OW77887   4.002   0.714   9.341 -0.1159  0.0164 -0.4917
25383SOL    HW177888   3.922   0.664   9.360 -1.2245  2.2358  1.1325
25383SOL    HW277889   3.984   0.756   9.256  1.3188 -3.0764 -2.5136
25384SOL     OW77890   7.849   5.456   6.464  0.5782  0.6323 -0.2566
25384SOL    HW177891   7.770   5.411   6.433  1.4477 -0.5219 -0.8994
25384SOL    HW277892   7.919   5.392   6.452  1.4258  1.1680  1.4890
25385SOL     OW77893   9.241   8.938   2.443 -0.3870  0.2185  0.1527
25385SOL    HW177894   9.312   8.988   2.402 -1.0952  1.4544  0.3915
25385SOL    HW277895   9.285   8.884   2.508  0.7948 -1.8447 -2.1624
25386SOL     OW77896   3.308   8.958   4.234 -0.3460  0.3874 -0.4220
25386SOL    HW177897   3.367   8.903   4.286 -0.5768  0.3500 -0.1944
25386SOL    HW277898   3.223   8.913   4.239 -0.7286  1.1521  0.4119
25387SOL     OW77899   6.311   5.497   0.540 -0.0945  0.3780 -0.6733
25387SOL    HW177900   6.257   5.573   0.521  1.4657  2.2785  1.9092
25387SOL    HW277901   6.392   5.512   0.492  0.4760  0.7472  0.3688
25388SOL     OW77902   9.294   1.624   4.808 -0.0111  0.1396  0.3573
25388SOL    HW177903   9.266   1.537   4.781 -0.3921  0.7081 -1.1971
25388SOL    HW277904   9.386   1.630   4.780  0.3795 -0.1769  1.5401
25389SOL     OW77905   7.847   8.133   3.795 -0.2586 -0.0269  0.2686
25389SOL    HW177906   7.939   8.146   3.816  0.0776  0.1660 -1.1984
25389SOL    HW277907   7.841   8.041   3.771 -0.3855  0.0255  0.0969
25390SOL     OW77908   4.184   2.242   2.731 -0.2159 -0.1653 -0.0611
25390SOL    HW177909   4.212   2.220   2.642  0.0529  2.1492 -0.6190
25390SOL    HW277910   4.240   2.189   2.787  1.6784  0.4944 -1.2463
25391SOL     OW77911   1.245   3.557   4.594  0.4452  0.1757  0.0668
25391SOL    HW177912   1.188   3.483   4.570  0.2194  0.7277 -1.1910
25391SOL    HW277913   1.228   3.623   4.526  2.4974  0.4048 -0.2744
25392SOL     OW77914   8.093   7.231   1.914  0.7519 -0.4905  0.0529
25392SOL    HW177915   8.139   7.313   1.931 -1.0690  0.6377 -0.1895
25392SOL    HW277916   8.142   7.190   1.842  1.8543  0.2253  0.3776
25393SOL     OW77917   1.461   3.023   0.132  0.0138  0.5622 -0.0673
25393SOL    HW177918   1.536   2.987   0.180 -0.8461 -0.7109  0.3838
25393SOL    HW277919   1.492   3.107   0.098  3.3282 -1.9227 -4.0877
25394SOL     OW77920   5.427   2.151   9.355 -0.2504 -0.3201  0.1533
25394SOL    HW177921   5.466   2.216   9.414  0.9763  0.0469 -1.0070
25394SOL    HW277922   5.501   2.119   9.303 -0.9483 -2.1891  0.2489
25395SOL     OW77923   0.089   6.240   6.970  0.0789  0.2921  0.1603
25395SOL    HW177924   0.101   6.146   6.985  0.1114  0.4672  1.3170
25395SOL    HW277925   0.018   6.245   6.906  0.0778 -0.5207  0.0834
25396SOL     OW77926   8.984   0.429   3.697  0.4865  0.3326  0.3749
25396SOL    HW177927   8.892   0.449   3.716  0.0834 -2.2600  1.7031
25396SOL    HW277928   8.982   0.341   3.659  2.3262  0.9130 -1.2256
25397SOL     OW77929   5.086   3.178   5.725 -0.5528 -0.5039  0.0651
25397SOL    HW177930   5.019   3.133   5.674 -0.3995  0.0161 -0.6016
25397SOL    HW277931   5.042   3.254   5.763 -0.8569 -1.2880  1.3391
25398SOL     OW77932   9.216   6.055   6.526  0.2190  0.0426  0.0429
25398SOL    HW177933   9.276   6.108   6.473 -0.3346 -0.0896 -0.7318
25398SOL    HW277934   9.172   5.998   6.463  1.6815 -2.2433  0.9981
25399SOL     OW77935   7.210   7.138   4.299 -0.4669 -0.8536 -0.4252
25399SOL    HW177936   7.139   7.200   4.285 -0.1146 -0.1146  0.9515
25399SOL    HW277937   7.166   7.056   4.323 -0.8635 -0.5290 -0.0382
25400SOL     OW77938   3.398   8.481   2.918 -0.2609 -0.0458  0.0746
25400SOL    HW177939   3.337   8.548   2.949  1.3518  2.2360 -1.3494
25400SOL    HW277940   3.447   8.456   2.996 -0.3286  1.0652  0.4901
25401SOL     OW77941   1.676   0.168   3.432  0.2062 -0.1303  0.1035
25401SOL    HW177942   1.673   0.079   3.399  2.1950 -0.8388  1.6471
25401SOL    HW277943   1.760   0.203   3.402 -0.0879  0.8774  0.3928
25402SOL     OW77944   8.642   3.871   5.281 -0.0235  0.1645  0.2219
25402SOL    HW177945   8.688   3.951   5.305 -2.9059  2.2046 -0.4294
25402SOL    HW277946   8.575   3.861   5.349 -0.3531 -1.1406 -0.2693
25403SOL     OW77947   1.931   1.002   6.724  0.8038 -0.1730 -0.2197
25403SOL    HW177948   1.943   1.069   6.657 -0.8823  0.0548 -0.3514
25403SOL    HW277949   1.840   1.015   6.754  0.8457 -1.6201  0.6112
25404SOL     OW77950   5.673   2.039   5.500 -0.7217  0.2514 -0.0746
25404SOL    HW177951   5.645   2.127   5.474  0.6693  0.2755 -1.5979
25404SOL    HW277952   5.766   2.036   5.480 -0.1743 -0.7710  2.2633
25405SOL     OW77953   2.794   5.160   1.169 -0.1071  0.3452 -0.7553
25405SOL    HW177954   2.810   5.253   1.155  1.6477  0.6185  2.0961
25405SOL    HW277955   2.843   5.116   1.100  2.0853  1.5485 -0.0863
25406SOL     OW77956   7.638   4.223   3.422  0.3359  0.3447 -0.0551
25406SOL    HW177957   7.663   4.175   3.344 -0.1226  0.2356 -0.1418
25406SOL    HW277958   7.717   4.269   3.449  1.0838 -1.2918  0.6458
25407SOL     OW77959   4.557   0.091   0.799  0.1764 -0.2218 -0.2687
25407SOL    HW177960   4.511   0.167   0.762  0.5998 -0.5029 -1.4048
25407SOL    HW277961   4.516   0.078   0.885 -0.2409  0.9808 -0.2622
25408SOL     OW77962   8.037   5.687   7.962  0.2315  0.1539  0.3537
25408SOL    HW177963   8.097   5.747   7.918 -0.1572  0.3008  0.0254
25408SOL    HW277964   7.994   5.639   7.892 -1.1518  1.1219  0.5118
25409SOL     OW77965   8.005   4.400   4.310  0.0332  0.0768 -0.2855
25409SOL    HW177966   8.073   4.432   4.250  0.0551  0.6468  0.0409
25409SOL    HW277967   7.929   4.454   4.290  0.4359  1.2294  1.1385
25410SOL     OW77968   0.474   8.834   2.482  0.8553  0.1125 -0.2152
25410SOL    HW177969   0.546   8.824   2.544 -1.3166 -0.4300  2.4371
25410SOL    HW277970   0.448   8.925   2.491  1.9112  0.6488 -2.1028
25411SOL     OW77971   8.467   3.115   7.321  0.2376  0.3540 -0.3939
25411SOL    HW177972   8.378   3.093   7.292  0.2913 -0.5498  0.1024
25411SOL    HW277973   8.463   3.108   7.417  1.2678 -1.4528 -0.4313
25412SOL     OW77974   2.110   2.482   2.660  0.2487 -0.4530  0.0725
25412SOL    HW177975   2.123   2.457   2.752 -0.4514 -1.6983 -0.1475
25412SOL    HW277976   2.196   2.472   2.620  0.3942 -0.6335  0.4258
25413SOL     OW77977   1.702   2.590   0.961  0.1712  0.0536 -0.0098
25413SOL    HW177978   1.742   2.677   0.954 -0.9236  0.5903  0.1760
25413SOL    HW277979   1.667   2.573   0.874  0.4804 -0.2598 -0.0757
25414SOL     OW77980   4.771   1.259   1.308 -0.1615 -0.2235  0.0359
25414SOL    HW177981   4.693   1.226   1.263  0.1975  0.1949 -0.9156
25414SOL    HW277982   4.808   1.183   1.352  0.4296 -1.0490 -1.7921
25415SOL     OW77983   7.010   8.270   6.097  0.0477 -0.5262  0.1713
25415SOL    HW177984   6.936   8.235   6.147 -0.2312 -0.5180 -0.2297
25415SOL    HW277985   7.002   8.229   6.011  0.5980 -0.6369  0.1709
25416SOL     OW77986   3.765   5.976   2.919  0.4896 -0.3115  0.4956
25416SOL    HW177987   3.710   5.930   2.855 -1.1688 -0.5365  2.0019
25416SOL    HW277988   3.812   6.041   2.867 -1.1023 -0.1974 -0.9038
25417SOL     OW77989   5.064   3.708   4.112 -0.3249  0.6718 -0.3534
25417SOL    HW177990   5.050   3.618   4.083  0.2906  0.2251  0.6655
25417SOL    HW277991   5.002   3.759   4.061 -1.0551 -0.4029 -0.5924
25418SOL     OW77992   5.747   8.042   6.613 -0.2011 -0.2113 -0.1116
25418SOL    HW177993   5.806   7.969   6.594 -0.8079 -0.4374 -1.2691
25418SOL    HW277994   5.669   8.024   6.560 -0.2692  1.3998 -0.6143
25419SOL     OW77995   3.556   8.603   3.365 -0.0429 -0.4634 -0.0401
25419SOL    HW177996   3.562   8.554   3.447  1.7066  0.6119  0.5304
25419SOL    HW277997   3.646   8.627   3.345 -0.6516  0.9405 -1.2583
25420SOL     OW77998   5.107   4.561   2.567 -0.7654 -0.1145 -0.0752
25420SOL    HW177999   5.170   4.491   2.552 -1.8915 -1.2341  0.1470
25420SOL    HW278000   5.113   4.617   2.490 -0.0001 -0.5808 -0.3617
25421SOL     OW78001   6.986   1.603   8.485  0.3697 -0.1337  0.4408
25421SOL    HW178002   6.896   1.630   8.469  0.0868 -0.6801  1.0453
25421SOL    HW278003   6.980   1.510   8.506  1.2718 -0.5842 -1.1709
25422SOL     OW78004   2.403   6.048   3.477 -0.1077 -0.1820  0.7933
25422SOL    HW178005   2.489   6.090   3.487  0.4326 -1.0630  0.0533
25422SOL    HW278006   2.352   6.109   3.425  0.7557 -0.5150 -0.5040
25423SOL     OW78007   1.945   4.469   4.249 -0.8005  0.4440  0.2684
25423SOL    HW178008   1.878   4.492   4.185  0.1545 -0.8500 -1.2514
25423SOL    HW278009   2.008   4.541   4.245 -0.5892  0.2271 -0.5038
25424SOL     OW78010   4.104   0.143   8.433  0.6186 -0.2802  0.0900
25424SOL    HW178011   4.070   0.132   8.345  0.1929 -0.0287  0.2198
25424SOL    HW278012   4.026   0.150   8.489  0.8745 -1.2563  0.5951
25425SOL     OW78013   8.862   5.030   7.485 -0.5439 -0.1271  0.4950
25425SOL    HW178014   8.878   5.025   7.579  0.4717  1.5851  0.4571
25425SOL    HW278015   8.832   4.942   7.461  0.6123 -1.0272  2.1438
25426SOL     OW78016   2.933   7.331   8.859 -0.0653  0.0427  0.1095
25426SOL    HW178017   2.938   7.367   8.948 -0.9003 -0.3483  0.3215
25426SOL    HW278018   3.019   7.292   8.845 -0.1064 -0.3911  0.9670
25427SOL     OW78019   2.522   0.212   2.556  0.5901  0.0555  0.2982
25427SOL    HW178020   2.481   0.135   2.596  0.3794 -0.8023 -1.4920
25427SOL    HW278021   2.490   0.285   2.609 -0.7184 -0.9022  0.8936
25428SOL     OW78022   3.209   8.341   5.731  0.4443  0.1258 -0.2623
25428SOL    HW178023   3.224   8.432   5.756  1.5963 -0.1030 -0.0274
25428SOL    HW278024   3.247   8.290   5.803  0.6713 -0.5390 -0.8423
25429SOL     OW78025   7.821   6.406   2.418  0.6707 -0.3161 -0.0159
25429SOL    HW178026   7.903   6.360   2.399  1.1411  0.9474 -1.2374
25429SOL    HW278027   7.847   6.481   2.471  0.4721  0.5891 -1.1523
25430SOL     OW78028   5.797   7.065   1.324  0.0047 -0.4729 -0.0249
25430SOL    HW178029   5.799   7.037   1.233 -3.7220  1.6661 -0.9826
25430SOL    HW278030   5.871   7.125   1.332  0.9697 -1.4301 -1.3101
25431SOL     OW78031   9.481   2.008   8.341 -0.1296 -0.1462 -0.5929
25431SOL    HW178032   9.490   2.005   8.246 -0.3063 -1.1651 -0.5855
25431SOL    HW278033   9.396   1.967   8.359 -1.0108  1.7586 -0.1090
25432SOL     OW78034   2.742   4.269   3.482  0.1880 -0.2960  0.2443
25432SOL    HW178035   2.784   4.330   3.542  1.1111  1.2205 -1.8420
25432SOL    HW278036   2.649   4.288   3.488  0.5622  2.6421 -1.6161
25433SOL     OW78037   1.817   7.046   7.206  0.2840 -0.3468 -0.5337
25433SOL    HW178038   1.751   6.982   7.233  0.0618 -0.5941 -1.5930
25433SOL    HW278039   1.769   7.107   7.149  0.4794  0.8214  0.5259
25434SOL     OW78040   9.140   8.550   7.826 -0.1454  0.7321 -0.1510
25434SOL    HW178041   9.052   8.568   7.861 -0.1416 -0.6709  0.6096
25434SOL    HW278042   9.157   8.625   7.769 -0.9105  2.1821  1.4082
25435SOL     OW78043   3.067   8.988   2.727  0.0035  0.1951 -0.0648
25435SOL    HW178044   3.125   8.983   2.803 -0.7307 -1.2404  0.4466
25435SOL    HW278045   2.981   8.962   2.761 -0.2823 -0.7305 -1.4231
25436SOL     OW78046   1.090   1.367   3.209  0.4538  0.1893  0.1434
25436SOL    HW178047   1.095   1.414   3.126  1.1871  0.7001  0.4631
25436SOL    HW278048   1.165   1.307   3.207  0.4023  0.1138  0.3733
25437SOL     OW78049   2.513   6.608   2.353  0.2375 -0.3833  0.1136
25437SOL    HW178050   2.528   6.562   2.270 -0.1708  0.0464 -0.2088
25437SOL    HW278051   2.426   6.578   2.380 -0.1656  0.4252 -0.2601
25438SOL     OW78052   6.979   2.637   2.384 -0.0529 -0.1629  0.6236
25438SOL    HW178053   7.031   2.608   2.310 -0.4864 -0.0667  0.2792
25438SOL    HW278054   6.988   2.567   2.449 -1.1564 -1.1463 -0.2282
25439SOL     OW78055   7.728   3.220   2.005  0.0620 -0.5102 -0.0300
25439SOL    HW178056   7.682   3.289   1.958 -0.0546  0.3828  1.3402
25439SOL    HW278057   7.809   3.207   1.956  0.7985  1.6830  0.5327
25440SOL     OW78058   7.115   2.658   0.218  0.4656 -0.2517  0.4287
25440SOL    HW178059   7.164   2.716   0.160  0.0723 -1.0401 -0.7129
25440SOL    HW278060   7.126   2.571   0.180 -0.8820 -0.6017  0.7864
25441SOL     OW78061   2.269   1.506   5.024  0.2276  0.0070 -0.0491
25441SOL    HW178062   2.206   1.572   4.996  0.8487  0.5473 -0.1897
25441SOL    HW278063   2.223   1.456   5.091 -0.5358  0.0516 -0.5219
25442SOL     OW78064   5.098   8.569   4.480  0.3500  0.0801 -0.4189
25442SOL    HW178065   5.163   8.624   4.524  0.3323  0.9297 -1.4111
25442SOL    HW278066   5.014   8.597   4.515  0.5179 -1.5611  1.4536
25443SOL     OW78067   6.293   0.051   5.964  0.4549  0.0120  0.2387
25443SOL    HW178068   6.254   0.081   6.046 -1.6272 -0.2802 -0.5798
25443SOL    HW278069   6.253   0.106   5.897  2.4449  0.5464 -0.5995
25444SOL     OW78070   6.938   1.735   3.804 -0.3157 -0.0578 -0.0631
25444SOL    HW178071   6.970   1.681   3.876 -1.0784  0.3488  0.6015
25444SOL    HW278072   6.887   1.675   3.750  0.6727 -0.4777 -0.5599
25445SOL     OW78073   4.524   5.533   5.241  0.5405  0.2423  0.0879
25445SOL    HW178074   4.504   5.572   5.156 -0.6590  3.0798  1.5527
25445SOL    HW278075   4.510   5.439   5.228 -2.1279  0.8207 -2.1790
25446SOL     OW78076   0.742   1.905   6.190  0.3838 -0.1552  0.8710
25446SOL    HW178077   0.707   1.837   6.247 -0.1799  0.2372  0.9985
25446SOL    HW278078   0.777   1.971   6.250  0.1261  0.0836  0.7590
25447SOL     OW78079   2.323   0.562   3.181 -0.4836 -0.8898 -0.2501
25447SOL    HW178080   2.271   0.551   3.101  0.7106 -0.4406 -1.1215
25447SOL    HW278081   2.258   0.577   3.249 -1.5121 -0.4228 -1.2831
25448SOL     OW78082   0.693   2.115   2.535  0.2312 -0.4556  0.0486
25448SOL    HW178083   0.691   2.080   2.446 -0.5181 -0.4792  0.0667
25448SOL    HW278084   0.738   2.047   2.586  1.4982 -0.0364 -0.4681
25449SOL     OW78085   1.849   7.863   8.618 -0.1337  0.2238 -0.4331
25449SOL    HW178086   1.788   7.935   8.631  1.1955  1.0729  1.5263
25449SOL    HW278087   1.806   7.787   8.658 -0.3108  0.6019  0.0992
25450SOL     OW78088   1.494   4.592   8.673 -0.0057  0.2717  0.1054
25450SOL    HW178089   1.452   4.676   8.651 -1.1382  0.0425  1.2686
25450SOL    HW278090   1.433   4.526   8.638  0.8458 -0.0876 -0.7404
25451SOL     OW78091   6.341   1.944   6.975 -0.6486 -0.3573  0.1168
25451SOL    HW178092   6.323   1.987   7.058 -1.4613  0.8447 -0.6422
25451SOL    HW278093   6.387   2.010   6.923 -0.5868 -0.9176 -0.5605
25452SOL     OW78094   4.414   2.324   5.596  0.2021 -0.6395  0.3528
25452SOL    HW178095   4.456   2.341   5.511 -1.3737 -0.8156 -0.4873
25452SOL    HW278096   4.325   2.298   5.574 -0.4307 -0.0717  2.1056
25453SOL     OW78097   7.638   2.623   0.787  0.0898  0.2250 -0.4247
25453SOL    HW178098   7.725   2.661   0.771  1.4894 -2.0717  1.1808
25453SOL    HW278099   7.593   2.688   0.842  1.1862  0.9930 -0.4054
25454SOL     OW78100   4.397   2.903   8.443  0.1155  0.7171  0.7281
25454SOL    HW178101   4.430   2.868   8.360 -1.0864 -0.1998  0.6054
25454SOL    HW278102   4.417   2.996   8.439  2.3143  0.2918  0.5187
25455SOL     OW78103   4.708   8.124   0.359  0.0758 -0.0410 -0.4621
25455SOL    HW178104   4.800   8.096   0.354 -0.1510 -0.8558 -0.2528
25455SOL    HW278105   4.705   8.180   0.436  0.4362  0.1216 -0.5651
25456SOL     OW78106   4.564   9.270   7.254 -0.2715  0.5584 -0.6468
25456SOL    HW178107   4.507   9.342   7.284 -0.6042  0.4972 -1.1185
25456SOL    HW278108   4.605   9.238   7.334  1.3694  2.5144 -0.6269
25457SOL     OW78109   6.834   4.768   5.968  0.1735  0.2427  0.1217
25457SOL    HW178110   6.809   4.680   5.939 -1.0534  1.3347 -2.3779
25457SOL    HW278111   6.751   4.814   5.981  0.7864  0.9553  1.8472
25458SOL     OW78112   1.803   7.275   7.588 -0.0844 -0.9552  0.1449
25458SOL    HW178113   1.799   7.362   7.549 -0.8419 -0.8294  0.4839
25458SOL    HW278114   1.729   7.272   7.648 -0.4368 -2.0539 -0.3186
25459SOL     OW78115   0.926   3.231   7.639 -0.3560 -0.3863  0.2775
25459SOL    HW178116   0.905   3.294   7.708 -1.3683 -1.2028  0.7385
25459SOL    HW278117   0.950   3.285   7.563 -0.7505  0.5385  0.7979
25460SOL     OW78118   6.332   6.029   3.023 -0.2482  0.4621  0.7706
25460SOL    HW178119   6.380   6.099   2.980 -0.1553  0.1454  0.3432
25460SOL    HW278120   6.399   5.981   3.073 -0.2130  0.3572  0.6253
25461SOL     OW78121   4.102   2.685   2.078 -0.2673 -0.1432 -0.1654
25461SOL    HW178122   4.034   2.622   2.056 -0.9660  0.3596  0.4866
25461SOL    HW278123   4.063   2.770   2.058 -0.1600  0.1987  0.9813
25462SOL     OW78124   9.122   0.332   2.644  0.2232  0.8125 -0.0591
25462SOL    HW178125   9.064   0.383   2.588  1.1617  1.4170 -0.5080
25462SOL    HW278126   9.075   0.250   2.659 -1.1778  1.6598  0.4043
25463SOL     OW78127   3.571   4.493   5.455  0.2538 -0.5651 -0.5926
25463SOL    HW178128   3.575   4.578   5.498  1.7906  0.0498 -1.8432
25463SOL    HW278129   3.564   4.430   5.527 -0.3522  0.5690  0.3775
25464SOL     OW78130   1.173   5.468   9.416 -0.2953 -0.4605 -0.2723
25464SOL    HW178131   1.191   5.561   9.421 -0.5706 -0.4341  0.3541
25464SOL    HW278132   1.183   5.446   9.323  1.1723 -0.1067 -0.2168
25465SOL     OW78133   0.211   6.271   0.096  0.4499 -0.2071  0.1178
25465SOL    HW178134   0.122   6.292   0.071  0.8419 -0.0950 -1.2829
25465SOL    HW278135   0.265   6.334   0.048  1.2835 -0.3836  0.8021
25466SOL     OW78136   2.898   6.370   8.709  0.0560 -0.3796  0.4032
25466SOL    HW178137   2.839   6.423   8.762  0.7727  0.9056 -0.0340
25466SOL    HW278138   2.985   6.388   8.745  0.3676 -0.8179 -0.1240
25467SOL     OW78139   4.192   3.803   3.699  0.4709 -0.1462  0.2690
25467SOL    HW178140   4.098   3.802   3.714  0.4674 -0.4126  0.2304
25467SOL    HW278141   4.202   3.776   3.608  0.5778 -0.0244  0.2450
25468SOL     OW78142   4.165   2.304   2.345  0.0440  0.3950 -0.4307
25468SOL    HW178143   4.117   2.223   2.325 -0.0957  0.5280 -0.6408
25468SOL    HW278144   4.103   2.356   2.396 -0.1350  0.6767 -0.9240
25469SOL     OW78145   5.454   8.508   1.224  0.0575  0.9512  0.1190
25469SOL    HW178146   5.461   8.412   1.223 -2.2363  0.7240  0.0441
25469SOL    HW278147   5.497   8.536   1.144 -2.6886 -0.4052 -2.0206
25470SOL     OW78148   4.163   9.535   7.453  0.0592  0.5734  0.1283
25470SOL    HW178149   4.100   9.486   7.505  0.7678 -0.0019  0.4620
25470SOL    HW278150   4.155   9.498   7.365 -2.0823  2.4321 -0.5633
25471SOL     OW78151   1.112   6.506   0.156  0.2262  0.4860 -0.3788
25471SOL    HW178152   1.158   6.433   0.197 -1.8596 -1.0464 -0.6227
25471SOL    HW278153   1.141   6.506   0.065  0.7731  0.4483 -0.2073
25472SOL     OW78154   7.235   4.150   4.834  0.4506  0.0179 -0.1853
25472SOL    HW178155   7.243   4.189   4.747 -2.0062  0.9281 -0.0651
25472SOL    HW278156   7.268   4.217   4.894  2.0172 -0.5592 -0.3380
25473SOL     OW78157   1.385   2.849   8.420 -0.3354  0.6615  0.0404
25473SOL    HW178158   1.431   2.769   8.396 -0.7691  0.4623 -0.1356
25473SOL    HW278159   1.361   2.836   8.512  1.9505  1.7202  0.8674
25474SOL     OW78160   4.276   5.781   6.838  0.1255 -0.5684 -0.5669
25474SOL    HW178161   4.238   5.778   6.926 -0.6593 -0.2766 -0.8928
25474SOL    HW278162   4.343   5.712   6.839  1.7198  0.8791  0.9772
25475SOL     OW78163   5.132   6.797   2.073  0.6758  0.2701  0.2567
25475SOL    HW178164   5.057   6.763   2.121  2.4066  0.0939  3.0606
25475SOL    HW278165   5.173   6.720   2.032 -0.1355  0.2478 -0.5332
25476SOL     OW78166   1.982   8.853   5.885 -0.5285  0.0473  0.2094
25476SOL    HW178167   1.915   8.787   5.896 -1.6243  0.5962 -2.3517
25476SOL    HW278168   2.061   8.815   5.924 -1.6891 -1.7279  0.9157
25477SOL     OW78169   6.315   0.687   6.745  0.3307  0.1265 -0.1974
25477SOL    HW178170   6.355   0.602   6.765 -1.8419 -1.0469 -0.5005
25477SOL    HW278171   6.278   0.716   6.829 -0.1844  0.0504 -0.3940
25478SOL     OW78172   3.359   5.729   4.599 -0.1116 -0.6132  0.2694
25478SOL    HW178173   3.444   5.692   4.579 -0.1528 -0.8909  0.5944
25478SOL    HW278174   3.338   5.785   4.524 -0.2381 -1.5713 -0.4340
25479SOL     OW78175   3.216   3.192   8.303 -0.4048 -0.1329  0.2041
25479SOL    HW178176   3.243   3.102   8.287 -0.7947 -0.3113  0.5290
25479SOL    HW278177   3.139   3.204   8.246  1.4434  0.9994 -2.2535
25480SOL     OW78178   1.868   1.187   3.701  0.4858 -0.1631 -0.2195
25480SOL    HW178179   1.959   1.164   3.719  1.3066  1.0765 -2.3182
25480SOL    HW278180   1.836   1.116   3.646  1.2589  0.8468 -2.0891
25481SOL     OW78181   2.028   6.127   9.568 -0.4216 -0.5249 -0.5134
25481SOL    HW178182   1.978   6.201   9.604  0.9565  1.8274 -3.0360
25481SOL    HW278183   2.119   6.148   9.588 -0.0108 -1.7219 -1.0326
25482SOL     OW78184   1.547   7.394   9.062  0.1156  0.2743  0.0702
25482SOL    HW178185   1.640   7.415   9.052 -0.3917  2.2073 -1.2017
25482SOL    HW278186   1.511   7.469   9.110 -1.1052  0.4712 -1.1032
25483SOL     OW78187   3.307   9.460   0.680  0.0771 -0.2795 -0.3462
25483SOL    HW178188   3.327   9.457   0.774 -2.8809 -0.3758  0.3998
25483SOL    HW278189   3.277   9.549   0.665 -2.5670 -1.0712 -0.3520
25484SOL     OW78190   3.944   0.164   2.508  0.1949 -0.0646 -0.0054
25484SOL    HW178191   3.943   0.257   2.486  0.2144  0.1859  1.0236
25484SOL    HW278192   3.863   0.150   2.557 -0.5524 -0.9228 -1.4420
25485SOL     OW78193   8.943   1.085   3.010  0.2514  0.1517 -0.8038
25485SOL    HW178194   8.925   1.066   2.918  0.6256  0.0152 -0.8480
25485SOL    HW278195   8.916   1.176   3.021  1.9215  0.7640 -1.5103
25486SOL     OW78196   0.986   4.687   7.132  0.1692 -0.6819 -0.5861
25486SOL    HW178197   0.989   4.778   7.159 -0.5727 -0.8012 -0.0908
25486SOL    HW278198   0.962   4.690   7.039  0.1071 -0.3787 -0.5599
25487SOL     OW78199   4.710   7.646   2.441 -0.9082 -0.3234  0.1352
25487SOL    HW178200   4.670   7.561   2.424 -0.2556 -0.6707  0.2979
25487SOL    HW278201   4.790   7.626   2.490  0.1247  0.2615 -1.2664
25488SOL     OW78202   7.819   4.333   4.567 -0.6377 -0.1612 -0.3585
25488SOL    HW178203   7.862   4.380   4.495 -0.5323  0.3188  0.0123
25488SOL    HW278204   7.880   4.263   4.590  0.3007  0.9487  0.6434
25489SOL     OW78205   5.773   4.122   1.536 -0.4156 -0.5209 -0.1247
25489SOL    HW178206   5.714   4.067   1.485  0.3699  0.8252 -2.6838
25489SOL    HW278207   5.826   4.061   1.587 -0.5078 -2.0887 -1.7927
25490SOL     OW78208   6.055   2.422   3.281  0.4950 -0.7180 -0.2209
25490SOL    HW178209   6.064   2.503   3.331 -1.0392  0.0656 -1.1791
25490SOL    HW278210   6.043   2.354   3.348 -0.2552  0.1341  0.5251
25491SOL     OW78211   6.763   8.267   6.232 -0.6687  0.1866 -0.4458
25491SOL    HW178212   6.769   8.266   6.328  0.0813  0.7153 -0.4755
25491SOL    HW278213   6.691   8.328   6.214  0.5662  1.7671 -0.2410
25492SOL     OW78214   5.456   0.551   2.092  0.2271  0.4346 -0.2605
25492SOL    HW178215   5.476   0.497   2.015 -0.4930 -1.5940  0.8841
25492SOL    HW278216   5.383   0.607   2.063 -0.1175 -0.3809 -1.0294
25493SOL     OW78217   4.628   3.207   8.096  0.2996 -0.1622 -0.1875
25493SOL    HW178218   4.665   3.199   8.008 -0.4963 -1.6085 -0.4291
25493SOL    HW278219   4.533   3.208   8.083  0.1624 -0.5581  0.6437
25494SOL     OW78220   0.790   9.427   1.772 -0.2042 -0.3019 -0.1173
25494SOL    HW178221   0.829   9.511   1.794 -1.2555  0.1284  0.1532
25494SOL    HW278222   0.821   9.367   1.841  1.0337 -0.3098 -0.6450
25495SOL     OW78223   9.428   0.962   2.397 -0.2339  0.3325  0.1959
25495SOL    HW178224   9.406   1.016   2.473  2.1687  1.7350  0.0127
25495SOL    HW278225   9.468   1.024   2.335 -1.7371 -0.8315 -2.0836
25496SOL     OW78226   7.029   4.593   8.534 -0.5451 -0.2378  0.6157
25496SOL    HW178227   6.985   4.589   8.618 -1.8723 -0.2396 -0.0643
25496SOL    HW278228   7.011   4.509   8.493 -0.3867 -0.0193  0.0910
25497SOL     OW78229   6.581   1.494   0.949 -0.1287 -0.2907 -0.0594
25497SOL    HW178230   6.556   1.462   1.035 -0.4579 -0.0663 -0.0711
25497SOL    HW278231   6.519   1.453   0.889  0.6131 -1.1049 -0.2909
25498SOL     OW78232   8.291   7.124   9.258  0.0584  0.0475  0.2242
25498SOL    HW178233   8.279   7.031   9.277 -0.1420 -0.0451 -0.3193
25498SOL    HW278234   8.384   7.132   9.235 -0.2212 -0.2889 -1.1123
25499SOL     OW78235   4.974   4.821   2.139  0.4669  0.5668 -0.5752
25499SOL    HW178236   4.956   4.911   2.166 -0.3724  1.0273 -2.5063
25499SOL    HW278237   4.896   4.772   2.166  1.3673  0.1422  1.4373
25500SOL     OW78238   5.420   1.595   7.841 -0.6153 -0.4806 -0.0947
25500SOL    HW178239   5.463   1.570   7.759 -0.5826 -0.1453 -0.1805
25500SOL    HW278240   5.392   1.685   7.827  1.8706  0.6029  1.2526
25501SOL     OW78241   1.293   8.622   6.592  0.3274  0.3658 -0.8234
25501SOL    HW178242   1.358   8.680   6.632 -0.5270  1.1707 -0.5775
25501SOL    HW278243   1.216   8.677   6.580 -0.7776 -0.9224  0.1212
25502SOL     OW78244   7.691   3.836   3.904  0.2181  0.3265  0.1141
25502SOL    HW178245   7.659   3.922   3.877  0.2196  0.5925  0.9246
25502SOL    HW278246   7.685   3.782   3.825  0.9411  1.2701 -0.6137
25503SOL     OW78247   7.023   6.396   5.301  0.0390 -0.0954 -0.5198
25503SOL    HW178248   7.056   6.479   5.269  0.8652 -0.6643 -1.1969
25503SOL    HW278249   7.100   6.339   5.304 -0.7567 -1.2776 -1.5642
25504SOL     OW78250   3.572   2.424   0.428  0.7925 -0.0165 -0.0418
25504SOL    HW178251   3.614   2.498   0.472  0.9972 -0.1209 -0.0619
25504SOL    HW278252   3.494   2.406   0.480  1.8812 -1.2127  1.2565
25505SOL     OW78253   6.614   0.412   6.151  0.7716 -0.4085 -0.2244
25505SOL    HW178254   6.594   0.416   6.058 -0.7833 -0.1492  0.1016
25505SOL    HW278255   6.553   0.347   6.186 -0.0645  0.9327  0.9333
25506SOL     OW78256   0.447   2.412   4.002  0.0681  0.5214  0.2370
25506SOL    HW178257   0.472   2.329   3.961  0.8578  1.0263 -0.3380
25506SOL    HW278258   0.433   2.390   4.094 -1.0464 -0.4988 -0.1420
25507SOL     OW78259   1.673   2.196   4.892 -0.5697 -0.0597  0.8151
25507SOL    HW178260   1.615   2.250   4.948  0.7131  0.3787  1.7721
25507SOL    HW278261   1.722   2.143   4.954 -1.8234 -2.4454 -0.1114
25508SOL     OW78262   0.019   5.387   8.583  0.4895 -0.4730  0.0248
25508SOL    HW178263   0.066   5.306   8.563  0.3550 -0.3937 -0.6179
25508SOL    HW278264  -0.068   5.359   8.611 -0.0865 -0.5005 -1.7023
25509SOL     OW78265   3.230   6.233   1.842 -0.2566 -0.2410  0.9651
25509SOL    HW178266   3.322   6.209   1.825  0.2796  3.1219 -2.2396
25509SOL    HW278267   3.235   6.308   1.901 -0.8574  0.3497  0.2825
25510SOL     OW78268   0.054   4.155   1.199  0.3883  0.2993 -0.5491
25510SOL    HW178269  -0.034   4.121   1.187  0.2805 -0.1597  1.2738
25510SOL    HW278270   0.043   4.230   1.257  1.1703  0.3844 -0.4996
25511SOL     OW78271   8.392   0.058   3.979  0.2146  0.6033  0.0260
25511SOL    HW178272   8.341   0.063   3.898 -1.5571 -1.3141  0.9309
25511SOL    HW278273   8.421  -0.033   3.983 -1.5080  0.0782  2.4984
25512SOL     OW78274   2.027   5.860   0.063  0.0338 -0.0870  0.3678
25512SOL    HW178275   2.060   5.781   0.021 -0.8975 -1.1139  1.5146
25512SOL    HW278276   2.033   5.927  -0.006  1.5321 -0.9431 -0.3925
25513SOL     OW78277   6.325   2.633   7.977 -0.2697  0.4317  0.6666
25513SOL    HW178278   6.266   2.705   7.955  1.3067  1.2639 -1.2235
25513SOL    HW278279   6.279   2.554   7.945 -0.8799  0.9136  0.3224
25514SOL     OW78280   3.010   8.480   6.091  0.0924  0.3361 -0.5222
25514SOL    HW178281   3.088   8.471   6.145 -1.9630 -1.1030  2.4716
25514SOL    HW278282   2.985   8.390   6.069 -0.8714  0.7464 -1.2012
25515SOL     OW78283   2.765   4.181   1.831  0.1840 -0.1833  0.4322
25515SOL    HW178284   2.698   4.184   1.763  0.5753  0.1226  0.0623
25515SOL    HW278285   2.734   4.244   1.897 -0.3916 -0.7604  0.7337
25516SOL     OW78286   3.238   7.602   4.505  0.7532  0.0674 -0.2882
25516SOL    HW178287   3.278   7.633   4.587 -1.7179  0.8170  0.7414
25516SOL    HW278288   3.200   7.681   4.466 -3.1137 -0.9641  0.8900
25517SOL     OW78289   3.977   6.252   7.599  0.0658 -0.4992  0.2467
25517SOL    HW178290   3.914   6.320   7.623 -1.2683 -1.3709 -0.6767
25517SOL    HW278291   4.019   6.284   7.520 -0.2040 -0.5240  0.0932
25518SOL     OW78292   5.409   9.482   6.657 -0.5348  0.0827 -0.2779
25518SOL    HW178293   5.429   9.446   6.743 -2.2462  0.7052  0.4201
25518SOL    HW278294   5.434   9.574   6.663 -0.2122  0.0240 -0.6317
25519SOL     OW78295   3.523   6.738   3.138  0.1085 -0.0491  0.2877
25519SOL    HW178296   3.489   6.816   3.182  2.2961  0.9363  0.3774
25519SOL    HW278297   3.493   6.665   3.193  1.3304  1.0341  2.5156
25520SOL     OW78298   5.309   4.328   6.800  0.0920 -0.2956 -0.7220
25520SOL    HW178299   5.285   4.328   6.892 -0.9617  1.0828 -0.9518
25520SOL    HW278300   5.343   4.416   6.784 -0.1153 -0.3781 -1.7256
25521SOL     OW78301   3.510   9.576   1.225 -0.5325  0.3250  0.2235
25521SOL    HW178302   3.486   9.487   1.251  0.1821  0.1739  0.4040
25521SOL    HW278303   3.597   9.567   1.186 -0.6306  0.8844 -0.1398
25522SOL     OW78304   6.541   1.872   5.772 -0.2204 -0.5596  0.0755
25522SOL    HW178305   6.502   1.894   5.857 -0.5234 -0.8124  0.0043
25522SOL    HW278306   6.513   1.782   5.755 -0.9482 -0.1965 -0.7281
25523SOL     OW78307   9.551   2.871   0.323  0.3722 -0.7041 -0.3226
25523SOL    HW178308   9.611   2.944   0.304  0.5305 -0.4389  1.1142
25523SOL    HW278309   9.498   2.863   0.244  0.3822  0.9439 -0.5308
25524SOL     OW78310   2.388   9.408   3.634  0.2911  0.3619 -0.1732
25524SOL    HW178311   2.314   9.373   3.584 -2.3253  1.8300  2.3393
25524SOL    HW278312   2.413   9.488   3.588 -0.4273  0.4088 -0.4900
25525SOL     OW78313   0.662   3.828   4.856 -0.0199 -0.5700  0.0339
25525SOL    HW178314   0.736   3.820   4.916  0.1356  0.3195 -0.0391
25525SOL    HW278315   0.586   3.803   4.909  0.2107 -0.5336  0.3839
25526SOL     OW78316   8.437   5.673   7.819 -0.3386 -0.0191 -0.2230
25526SOL    HW178317   8.372   5.687   7.750  0.5654  0.5213 -0.9899
25526SOL    HW278318   8.469   5.761   7.841 -0.2513 -0.2295  0.5316
25527SOL     OW78319   6.932   1.597   4.644 -0.0473  0.4166  0.0314
25527SOL    HW178320   6.921   1.651   4.722  1.0759  1.1244 -0.2757
25527SOL    HW278321   6.960   1.659   4.576  0.3668 -0.4064 -0.5612
25528SOL     OW78322   6.402   5.793   6.446 -0.4261 -0.2742 -0.0206
25528SOL    HW178323   6.350   5.784   6.526  1.9192 -0.2913  1.5938
25528SOL    HW278324   6.416   5.703   6.416  1.1480 -0.4902  1.2695
25529SOL     OW78325   3.181   0.207   4.701  0.6590 -0.0225  0.6910
25529SOL    HW178326   3.137   0.134   4.745  0.1487  0.7043  1.4232
25529SOL    HW278327   3.136   0.216   4.618  0.0099  0.1261  1.0504
25530SOL     OW78328   2.243   8.261   0.719  0.3906 -0.0919  0.0326
25530SOL    HW178329   2.163   8.218   0.748 -0.3275  0.2715 -1.3259
25530SOL    HW278330   2.304   8.188   0.701 -0.5362 -0.5521 -1.4421
25531SOL     OW78331   3.669   3.228   6.831 -0.6621  0.6124 -0.6342
25531SOL    HW178332   3.673   3.136   6.805 -2.1263 -0.2058  1.7209
25531SOL    HW278333   3.760   3.255   6.839 -0.1662 -1.1707  0.2389
25532SOL     OW78334   8.785   8.309   0.506 -0.2500 -0.0003 -0.6326
25532SOL    HW178335   8.877   8.301   0.481 -0.2751 -0.1207 -0.6894
25532SOL    HW278336   8.750   8.376   0.447 -0.3863 -0.5094 -1.1440
25533SOL     OW78337   7.136   5.869   6.335  0.3990  0.5407 -0.2103
25533SOL    HW178338   7.203   5.837   6.395  0.6432  1.1548 -0.1501
25533SOL    HW278339   7.085   5.791   6.312  0.0384  0.3756  1.1175
25534SOL     OW78340   2.689   6.902   7.704 -0.3608  0.3054  0.3876
25534SOL    HW178341   2.748   6.959   7.753 -0.2776 -0.0055  0.6518
25534SOL    HW278342   2.617   6.884   7.764 -1.7761  2.2829 -0.5805
25535SOL     OW78343   1.593   3.550   7.543 -0.0746 -0.5560 -0.3344
25535SOL    HW178344   1.655   3.580   7.609 -1.8329  0.2753  1.0433
25535SOL    HW278345   1.591   3.620   7.477  2.9138 -2.1086 -2.3106
25536SOL     OW78346   0.003   8.148   4.488  0.1862  0.9266 -0.0660
25536SOL    HW178347   0.078   8.106   4.528 -0.1934  0.3658  0.0680
25536SOL    HW278348   0.001   8.236   4.526 -0.8005  0.0622  2.0125
25537SOL     OW78349   1.965   4.091   0.343 -0.2827  0.1743 -0.2893
25537SOL    HW178350   1.968   4.065   0.435 -0.7397 -1.1627 -0.6384
25537SOL    HW278351   1.955   4.186   0.345 -0.6932  0.1142  1.0397
25538SOL     OW78352   6.082   1.049   7.355 -0.1249 -0.2713  0.5153
25538SOL    HW178353   6.010   1.112   7.356  0.2104  0.4693 -3.4591
25538SOL    HW278354   6.040   0.963   7.361 -1.0568  0.1995  0.9172
25539SOL     OW78355   2.285   7.361   8.293  0.3751  0.0184 -0.0698
25539SOL    HW178356   2.326   7.403   8.217  1.4008 -0.3377  0.2740
25539SOL    HW278357   2.333   7.279   8.305 -0.5331 -0.4839  0.2685
25540SOL     OW78358   3.514   9.286   0.644  0.0282 -0.4975  0.5134
25540SOL    HW178359   3.439   9.342   0.624  0.7391  0.8325  1.4919
25540SOL    HW278360   3.549   9.262   0.558 -0.8926 -0.2855  0.0645
25541SOL     OW78361   6.929   6.404   7.026 -0.0870 -0.3477 -0.2591
25541SOL    HW178362   6.921   6.320   6.979  0.1184  0.4732 -1.8478
25541SOL    HW278363   6.842   6.443   7.021 -0.7473 -1.2816  2.2541
25542SOL     OW78364   9.110   1.474   2.459 -0.2452 -0.4363 -0.0181
25542SOL    HW178365   9.130   1.534   2.387 -0.5148 -1.4193 -0.9329
25542SOL    HW278366   9.132   1.387   2.425 -0.4691 -0.9324  1.0588
25543SOL     OW78367   6.284   0.774   8.995  0.1183 -0.7471 -0.5453
25543SOL    HW178368   6.217   0.766   8.927  1.5624 -1.1221 -1.9995
25543SOL    HW278369   6.335   0.851   8.969 -1.3883  1.3448  2.1213
25544SOL     OW78370   1.635   3.518   3.459  0.0984  0.0059 -0.2027
25544SOL    HW178371   1.620   3.427   3.485  0.5675 -0.1190 -0.3419
25544SOL    HW278372   1.580   3.570   3.517  0.3178 -0.3340  0.3150
25545SOL     OW78373   7.812   1.157   3.757 -0.7385 -0.1238 -0.0047
25545SOL    HW178374   7.893   1.187   3.715 -1.7200  0.7398 -1.3740
25545SOL    HW278375   7.761   1.117   3.686 -0.9450 -1.9612  1.1087
25546SOL     OW78376   7.266   1.584   4.341 -0.2684 -0.3714  0.0844
25546SOL    HW178377   7.180   1.543   4.351  0.1389 -1.0705  0.8449
25546SOL    HW278378   7.251   1.656   4.280 -1.5500 -0.0227  0.7683
25547SOL     OW78379   4.153   4.862   4.347  0.5275  0.1809 -0.2001
25547SOL    HW178380   4.062   4.831   4.350  0.6542 -0.4186  4.0202
25547SOL    HW278381   4.181   4.846   4.257 -3.3384 -0.1372 -1.5218
25548SOL     OW78382   2.447   6.784   1.052  0.3442 -0.5356 -0.6182
25548SOL    HW178383   2.432   6.760   0.960 -1.1261 -0.2628 -0.4743
25548SOL    HW278384   2.468   6.701   1.095  0.0772 -0.8172 -1.0254
25549SOL     OW78385   6.593   2.508   8.636  0.1478 -0.0705 -0.0156
25549SOL    HW178386   6.630   2.558   8.709 -2.0403  1.2498  0.2661
25549SOL    HW278387   6.649   2.530   8.561  1.0062  0.4161  0.7543
25550SOL     OW78388   0.524   4.681   4.627 -0.9616  0.1306  0.3586
25550SOL    HW178389   0.484   4.647   4.547 -2.7908  0.4240  1.1054
25550SOL    HW278390   0.606   4.632   4.635 -1.1444 -0.5031 -1.2333
25551SOL     OW78391   4.724   3.945   1.468 -0.2571 -0.7266  0.0643
25551SOL    HW178392   4.635   3.913   1.481 -0.1042 -0.7658  1.0978
25551SOL    HW278393   4.774   3.868   1.441 -0.8021 -0.4326 -1.9886
25552SOL     OW78394   2.036   2.016   1.662 -0.2512 -0.0336  0.0633
25552SOL    HW178395   2.036   1.993   1.569  1.5174  2.3243 -0.6211
25552SOL    HW278396   2.000   2.104   1.666 -1.1776 -0.4390  1.7675
25553SOL     OW78397   9.297   5.798   0.403  0.4294 -0.3654 -0.4535
25553SOL    HW178398   9.259   5.717   0.369 -0.1664 -0.3818  0.2114
25553SOL    HW278399   9.305   5.782   0.497  2.1278 -0.3632 -0.5734
25554SOL     OW78400   6.741   0.634   3.448  0.1160 -0.4071 -0.3763
25554SOL    HW178401   6.683   0.609   3.377 -1.2554  0.1388  0.4987
25554SOL    HW278402   6.829   0.636   3.409 -0.3466 -1.9422 -1.5601
25555SOL     OW78403   0.217   1.208   6.020  0.1577  0.4917  0.4550
25555SOL    HW178404   0.266   1.245   5.946 -0.0046 -0.6666 -0.2689
25555SOL    HW278405   0.146   1.270   6.035 -0.8160 -0.0566 -1.5091
25556SOL     OW78406   4.214   3.779   4.825  0.6113 -0.0109  0.1969
25556SOL    HW178407   4.265   3.789   4.905  1.1300 -0.4535 -0.0746
25556SOL    HW278408   4.279   3.776   4.755  0.2846 -1.5021 -0.0734
25557SOL     OW78409   0.548   9.013   8.869  0.0067  0.0585 -0.0949
25557SOL    HW178410   0.635   9.023   8.830  0.6891  0.1498  1.4005
25557SOL    HW278411   0.541   8.920   8.889  0.5358  0.3430  1.4975
25558SOL     OW78412   8.264   2.927   3.976 -0.4709  0.1192 -0.5079
25558SOL    HW178413   8.321   2.934   3.899 -1.5650  2.3635 -1.2029
25558SOL    HW278414   8.183   2.889   3.942  0.0704 -1.7993  0.2109
25559SOL     OW78415   3.232   1.725   7.827 -0.2460  0.1724  0.3370
25559SOL    HW178416   3.144   1.687   7.833  0.0482 -0.6173 -0.2432
25559SOL    HW278417   3.244   1.769   7.911 -1.2463  0.4026  0.3739
25560SOL     OW78418   5.245   6.551   1.972 -0.6507 -0.0340 -0.2959
25560SOL    HW178419   5.165   6.529   1.924 -1.5558  0.8790  0.7208
25560SOL    HW278420   5.243   6.492   2.048 -1.1780  1.0022  0.5242
25561SOL     OW78421   4.348   4.379   2.246  0.3303 -0.3470  0.0442
25561SOL    HW178422   4.294   4.308   2.210  2.1472 -0.6009 -2.5175
25561SOL    HW278423   4.372   4.431   2.169  0.8145  1.8216  1.5904
25562SOL     OW78424   9.008   6.685   2.540 -0.2448 -0.1323 -0.6223
25562SOL    HW178425   8.932   6.720   2.587 -0.4601 -1.1024 -0.2132
25562SOL    HW278426   9.079   6.747   2.558 -0.1967 -0.7027  1.4220
25563SOL     OW78427   4.179   7.893   4.094 -0.2301 -0.3369 -0.1702
25563SOL    HW178428   4.132   7.890   4.010  0.9507 -1.3875 -0.8319
25563SOL    HW278429   4.271   7.900   4.069  0.0470  0.9342  1.0903
25564SOL     OW78430   8.466   1.428   9.039  0.4016  0.0985  0.3342
25564SOL    HW178431   8.524   1.392   8.971  0.4924  0.9220 -0.0445
25564SOL    HW278432   8.524   1.450   9.111  0.1705 -1.7656  1.1294
25565SOL     OW78433   9.185   4.273   7.605  0.2921  0.2875 -0.2439
25565SOL    HW178434   9.212   4.319   7.526  0.9372  1.0915  0.4273
25565SOL    HW278435   9.203   4.181   7.586 -0.2519  0.3814 -1.2986
25566SOL     OW78436   8.056   6.217   5.648 -0.1655  0.1976  0.4202
25566SOL    HW178437   8.010   6.145   5.605  0.4129  0.4065 -0.5697
25566SOL    HW278438   8.046   6.291   5.589 -0.0121  0.6969  1.0122
25567SOL     OW78439   2.321   8.774   9.527 -0.2670  0.0036  0.3433
25567SOL    HW178440   2.294   8.740   9.441  0.8651 -0.0623 -0.0052
25567SOL    HW278441   2.320   8.698   9.584  0.0397 -0.1700  0.1202
25568SOL     OW78442   4.507   7.845   2.473  0.3802 -0.6697  0.3670
25568SOL    HW178443   4.431   7.787   2.469 -0.0275 -0.3783  2.7347
25568SOL    HW278444   4.582   7.786   2.468 -0.0019 -1.1472  0.1389
25569SOL     OW78445   6.412   8.194   2.315  0.3739 -0.1444  0.1959
25569SOL    HW178446   6.364   8.260   2.265  0.3356 -0.5735 -0.3403
25569SOL    HW278447   6.504   8.217   2.302  0.3953  2.0051  2.9773
25570SOL     OW78448   6.867   9.467   3.100  0.0883 -0.4799 -0.3154
25570SOL    HW178449   6.954   9.496   3.125  0.5612 -2.3608  0.3859
25570SOL    HW278450   6.875   9.443   3.008  0.0146  0.3202 -0.5419
25571SOL     OW78451   8.024   8.801   0.536  0.0992  0.5146 -0.0846
25571SOL    HW178452   8.088   8.731   0.520  0.1659  0.5825 -0.1111
25571SOL    HW278453   7.951   8.757   0.579 -0.0060  0.3610 -0.4143
25572SOL     OW78454   7.945   7.632   6.274  0.0751  0.3628  0.9501
25572SOL    HW178455   7.957   7.650   6.181 -0.6824  2.2960  1.1883
25572SOL    HW278456   8.013   7.684   6.318  0.8940 -1.0862  1.4805
25573SOL     OW78457   9.607   3.630   0.786  0.6785 -0.0705 -0.2232
25573SOL    HW178458   9.612   3.718   0.823  0.7156 -1.0283  2.2299
25573SOL    HW278459   9.681   3.626   0.725  0.5072  1.6656 -0.5904
25574SOL     OW78460   3.188   4.027   0.037  0.0969 -0.7469  0.2566
25574SOL    HW178461   3.222   4.099  -0.015  0.5897 -0.1329  1.4041
25574SOL    HW278462   3.235   3.950   0.005  0.9948 -0.2460  0.3387
25575SOL     OW78463   3.234   6.448   2.789 -0.4152 -0.6061 -0.0252
25575SOL    HW178464   3.258   6.355   2.786 -1.6916 -0.9224 -1.3983
25575SOL    HW278465   3.175   6.454   2.865  0.2942 -0.7330  0.5527
25576SOL     OW78466   3.253   3.942   7.950  0.1010 -0.3777  0.3321
25576SOL    HW178467   3.303   3.922   7.871  0.4992  0.1560  0.4503
25576SOL    HW278468   3.193   4.012   7.923  1.6529  1.3014  1.0025
25577SOL     OW78469   0.026   5.484   4.516 -0.5464 -0.1692  0.0731
25577SOL    HW178470  -0.011   5.435   4.590  0.1895  0.8092  1.1288
25577SOL    HW278471   0.099   5.533   4.555 -0.0087  0.2034 -1.3607
25578SOL     OW78472   4.620   8.147   8.555  0.6319  0.5621 -0.2012
25578SOL    HW178473   4.625   8.162   8.461 -0.1422 -1.1423 -0.5531
25578SOL    HW278474   4.674   8.069   8.569  0.2173  0.4199  0.6647
25579SOL     OW78475   5.046   3.630   7.002  0.0919 -0.3109  0.0146
25579SOL    HW178476   5.087   3.716   6.995 -0.2893 -0.1581 -0.3540
25579SOL    HW278477   4.989   3.637   7.079 -0.5185  0.0106 -0.4614
25580SOL     OW78478   6.230   8.243   6.023 -0.0855 -0.3913 -0.3680
25580SOL    HW178479   6.307   8.188   6.010  0.7468 -0.4703  3.7192
25580SOL    HW278480   6.157   8.189   5.989  1.1163 -2.4889  0.1900
25581SOL     OW78481   4.532   8.268   3.027 -0.4286 -0.4312  0.0059
25581SOL    HW178482   4.550   8.362   3.023  0.0924 -0.5479 -0.6303
25581SOL    HW278483   4.597   8.234   3.088 -0.0373 -0.4938 -0.4310
25582SOL     OW78484   1.300   8.303   3.510  0.1042  0.3849  1.1067
25582SOL    HW178485   1.312   8.384   3.561  2.2206 -0.1440  1.5457
25582SOL    HW278486   1.389   8.277   3.486 -0.5811 -1.5277  0.4965
25583SOL     OW78487   5.187   9.389   3.351  0.4438  0.8521 -0.0172
25583SOL    HW178488   5.091   9.392   3.358  0.5641  3.1663  1.7439
25583SOL    HW278489   5.216   9.474   3.384  3.1711 -0.1543  0.4107
25584SOL     OW78490   0.450   4.862   6.227 -0.1073 -0.8279  0.1907
25584SOL    HW178491   0.433   4.931   6.164  0.0216 -0.8865  0.0931
25584SOL    HW278492   0.410   4.894   6.308 -1.6292 -1.4137 -0.2861
25585SOL     OW78493   8.648   3.221   0.269  0.0070  0.0940 -0.6258
25585SOL    HW178494   8.593   3.171   0.330  1.4278 -1.3305 -0.4234
25585SOL    HW278495   8.660   3.306   0.310  0.7416 -0.7631  1.0292
25586SOL     OW78496   6.001   4.356   1.697  0.4852  0.1171  0.0957
25586SOL    HW178497   6.049   4.274   1.686  0.9376  0.5834 -1.6846
25586SOL    HW278498   6.064   4.415   1.738  0.1732 -0.3585  1.3380
25587SOL     OW78499   6.149   9.064   6.490  0.7103 -0.0780  0.0071
25587SOL    HW178500   6.130   9.158   6.482 -0.5742 -0.0728  2.1933
25587SOL    HW278501   6.100   9.037   6.568  2.0681 -2.3070  0.1623
25588SOL     OW78502   7.316   4.947   6.327 -0.1786 -0.1603  0.3268
25588SOL    HW178503   7.242   5.007   6.313  1.2738  1.6413 -0.0424
25588SOL    HW278504   7.309   4.922   6.419  0.3721  2.3595  1.1270
25589SOL     OW78505   5.452   8.215   6.379  0.5273 -0.0638 -0.5220
25589SOL    HW178506   5.369   8.262   6.372  0.5085 -0.2560 -1.8413
25589SOL    HW278507   5.427   8.124   6.397  0.5367  0.2384  1.1426
25590SOL     OW78508   6.255   4.661   6.438 -0.0445  0.0957 -0.4936
25590SOL    HW178509   6.342   4.656   6.477  1.4240  0.3914 -3.4391
25590SOL    HW278510   6.213   4.735   6.482  0.4010 -1.1519  2.2507
25591SOL     OW78511   3.287   6.780   7.096 -0.2617  0.5488 -0.0053
25591SOL    HW178512   3.268   6.731   7.176 -0.0087 -1.6992 -1.2408
25591SOL    HW278513   3.382   6.772   7.086 -0.1957  1.4397 -0.1867
25592SOL     OW78514   7.036   2.782   5.268  0.0395 -0.2948 -0.4469
25592SOL    HW178515   7.095   2.856   5.252 -0.9485  0.7503  0.6127
25592SOL    HW278516   6.969   2.790   5.200  0.1801 -0.4905 -0.6097
25593SOL     OW78517   8.555   4.350   6.290  0.1359 -0.4708 -0.2397
25593SOL    HW178518   8.534   4.263   6.324 -0.8101  0.0504  0.5629
25593SOL    HW278519   8.546   4.408   6.366  0.1103  0.4197 -0.9106
25594SOL     OW78520   5.191   8.303   6.443 -0.3344  0.3482  0.4059
25594SOL    HW178521   5.106   8.274   6.410  0.6664 -1.0456 -1.1178
25594SOL    HW278522   5.190   8.278   6.536 -0.5242 -2.3337 -0.2391
25595SOL     OW78523   7.607   9.112   9.062  0.4548 -0.5670 -0.2845
25595SOL    HW178524   7.663   9.077   8.993 -0.2344 -1.8333 -0.2188
25595SOL    HW278525   7.526   9.062   9.056 -0.2783  0.4968  0.3281
25596SOL     OW78526   3.703   1.286   5.870  0.2447  0.2535 -0.4489
25596SOL    HW178527   3.646   1.216   5.900 -0.5666 -0.3683 -3.1781
25596SOL    HW278528   3.673   1.364   5.917 -1.4831 -0.4829 -0.2829
25597SOL     OW78529   7.561   7.768   8.040 -0.5011  0.4757  0.2290
25597SOL    HW178530   7.622   7.695   8.054  0.6353  1.4181  0.3638
25597SOL    HW278531   7.491   7.753   8.103 -0.8461 -1.0734 -0.4793
25598SOL     OW78532   3.030   8.625   7.998  0.4379  0.0861  0.9007
25598SOL    HW178533   3.098   8.687   7.973  0.8573  0.2715  2.3863
25598SOL    HW278534   2.970   8.676   8.052 -0.7281 -0.1525 -0.1292
25599SOL     OW78535   6.631   0.321   7.650  0.0391  0.1284 -0.2203
25599SOL    HW178536   6.642   0.242   7.597 -1.2427  0.2329 -0.6617
25599SOL    HW278537   6.537   0.333   7.657  0.2094  1.1072  0.6195
25600SOL     OW78538   7.974   6.087   3.293  0.2312 -0.4165 -0.6364
25600SOL    HW178539   7.942   6.040   3.216  0.1185  1.3014 -1.6848
25600SOL    HW278540   7.923   6.167   3.296 -0.7680 -1.0340  2.0864
25601SOL     OW78541   3.654   3.543   8.276  0.0957 -0.2082  0.1995
25601SOL    HW178542   3.586   3.493   8.231 -0.0304  1.7009 -1.9455
25601SOL    HW278543   3.726   3.481   8.287 -1.2851 -1.7746  0.8485
25602SOL     OW78544   9.453   7.692   3.035  0.7572  0.4081 -0.5284
25602SOL    HW178545   9.363   7.663   3.016  0.8496  0.5950 -1.2921
25602SOL    HW278546   9.445   7.746   3.114  0.2643  0.0583 -0.3335
25603SOL     OW78547   9.506   7.182   7.029  0.4768 -0.1982 -0.0011
25603SOL    HW178548   9.520   7.117   7.097 -0.0912 -1.0226 -0.6375
25603SOL    HW278549   9.485   7.263   7.076 -0.9727 -1.0006  0.8061
25604SOL     OW78550   3.451   0.053   6.622 -0.2959  0.3227  0.1256
25604SOL    HW178551   3.428  -0.027   6.669 -0.5101 -2.0323 -3.5221
25604SOL    HW278552   3.368   0.099   6.611 -1.3004 -1.7452 -2.1366
25605SOL     OW78553   3.633   7.743   7.409 -0.1287  0.1353  0.4131
25605SOL    HW178554   3.596   7.776   7.491 -2.7512 -1.6665  0.1090
25605SOL    HW278555   3.720   7.781   7.404 -1.0437  2.8180  2.4705
25606SOL     OW78556   6.520   3.060   0.274 -0.0648 -0.4609 -0.0691
25606SOL    HW178557   6.486   2.983   0.227 -1.1623  0.3077 -0.5694
25606SOL    HW278558   6.613   3.040   0.289 -0.5597 -2.3707  0.8132
25607SOL     OW78559   6.341   8.813   1.538  0.0815  0.3531  0.1635
25607SOL    HW178560   6.302   8.867   1.607 -0.9806  1.6713 -1.4270
25607SOL    HW278561   6.319   8.857   1.456  1.9684 -0.7556 -1.0200
25608SOL     OW78562   7.035   6.629   1.541 -0.0538 -0.3138  0.3413
25608SOL    HW178563   7.038   6.540   1.507  1.3839 -0.9386  1.9228
25608SOL    HW278564   7.093   6.679   1.484 -0.1667 -0.5918 -0.0182
25609SOL     OW78565   8.179   1.739   3.238  0.2313  0.2342  0.5852
25609SOL    HW178566   8.170   1.788   3.320 -0.2279 -0.8598  1.2120
25609SOL    HW278567   8.152   1.801   3.170 -0.1021  0.9277  1.3308
25610SOL     OW78568   9.436   6.740   7.498 -0.4316 -0.5386  0.6463
25610SOL    HW178569   9.354   6.743   7.546  0.5787 -1.0516  2.5124
25610SOL    HW278570   9.483   6.666   7.535  1.4528  0.5891  0.6576
25611SOL     OW78571   7.911   2.956   4.197 -0.3543  0.0975  0.0497
25611SOL    HW178572   7.823   2.919   4.205 -0.7342  0.8859 -0.3816
25611SOL    HW278573   7.933   2.946   4.104 -0.1164  0.1927  0.0945
25612SOL     OW78574   2.918   0.868   9.439  0.4225  0.4146 -0.3824
25612SOL    HW178575   2.866   0.888   9.516  0.1452 -1.3875 -0.0585
25612SOL    HW278576   3.003   0.909   9.455  0.6984 -0.7556  1.3485
25613SOL     OW78577   8.071   5.142   2.479  0.1012  0.6952  0.1570
25613SOL    HW178578   8.165   5.160   2.482  0.0166  1.0899  0.6064
25613SOL    HW278579   8.037   5.201   2.412 -0.0342  1.5821  0.9837
25614SOL     OW78580   3.107   9.290   6.593  0.7265 -0.4503 -1.1896
25614SOL    HW178581   3.025   9.258   6.555  0.2322  2.3600 -2.7532
25614SOL    HW278582   3.174   9.229   6.560 -0.5778 -2.4854 -0.2993
25615SOL     OW78583   6.594   2.209   6.139 -0.5810  0.5094 -0.3744
25615SOL    HW178584   6.626   2.250   6.058 -0.7489 -0.1302 -0.7698
25615SOL    HW278585   6.503   2.186   6.120 -0.6153  0.3341 -0.0121
25616SOL     OW78586   4.216   7.794   8.626  0.2405 -0.0927 -0.6818
25616SOL    HW178587   4.292   7.795   8.567  0.0813 -0.4978 -0.8959
25616SOL    HW278588   4.189   7.702   8.629 -0.6288  0.1443 -1.1036
25617SOL     OW78589   8.554   7.212   3.474  0.7427 -0.1735  0.0585
25617SOL    HW178590   8.606   7.153   3.529  1.2332 -0.4622 -0.7050
25617SOL    HW278591   8.564   7.298   3.515  0.6490 -0.4780  0.7381
25618SOL     OW78592   7.188   5.740   7.478  0.2837  0.4184  0.0496
25618SOL    HW178593   7.207   5.698   7.394 -0.1444  0.0740  0.1240
25618SOL    HW278594   7.271   5.738   7.525  0.1216 -0.9757  0.3282
25619SOL     OW78595   2.621   0.648   7.120 -0.2251  0.0713 -0.1476
25619SOL    HW178596   2.711   0.648   7.087 -0.4914 -1.3458 -0.9638
25619SOL    HW278597   2.606   0.738   7.148  0.5224  1.0726 -2.6272
25620SOL     OW78598   0.541   2.717   2.929  0.2577  0.0749  0.4006
25620SOL    HW178599   0.584   2.685   3.008  0.7970 -1.6160 -0.5333
25620SOL    HW278600   0.528   2.639   2.874  2.7719  1.5085 -2.5490
25621SOL     OW78601   7.441   7.294   6.953 -0.3097  0.0647  0.6194
25621SOL    HW178602   7.469   7.301   7.045 -2.0941  3.2945  1.0460
25621SOL    HW278603   7.356   7.251   6.957  0.2051 -1.0152  0.2972
25622SOL     OW78604   6.207   8.426   6.213  0.4150 -0.4307  0.4248
25622SOL    HW178605   6.112   8.428   6.204  0.3025  0.6062  1.5410
25622SOL    HW278606   6.237   8.365   6.145 -0.7548  1.7725 -2.2673
25623SOL     OW78607   6.521   0.085   7.185  0.2471 -0.0809  0.0230
25623SOL    HW178608   6.515   0.181   7.191 -0.1190 -0.1514  0.9246
25623SOL    HW278609   6.522   0.055   7.275  4.5527 -0.7237 -0.0559
25624SOL     OW78610   7.159   7.710   6.252 -0.1072  0.0047  0.1807
25624SOL    HW178611   7.225   7.708   6.322  0.9791 -0.6585 -0.8295
25624SOL    HW278612   7.082   7.667   6.290  0.4043 -0.1892  1.0230
25625SOL     OW78613   8.870   5.743   4.809  0.3187 -0.1767  0.7384
25625SOL    HW178614   8.800   5.730   4.874 -0.9255  0.2764 -0.4611
25625SOL    HW278615   8.889   5.655   4.776 -0.9826 -0.1433 -0.1925
25626SOL     OW78616   1.477   1.240   3.285  0.0592 -0.1109  0.7408
25626SOL    HW178617   1.509   1.230   3.374 -0.4882 -2.2613  0.7749
25626SOL    HW278618   1.537   1.187   3.232 -1.2611 -1.2458  0.3039
25627SOL     OW78619   5.496   6.632   8.459  0.4197 -0.3874  0.3264
25627SOL    HW178620   5.544   6.552   8.438  1.0486 -0.3237  1.4466
25627SOL    HW278621   5.556   6.702   8.433 -0.0445 -0.2647 -0.4568
25628SOL     OW78622   4.482   4.805   5.347 -0.5297 -0.2465  0.0939
25628SOL    HW178623   4.427   4.860   5.291 -0.8072 -0.3517  0.2579
25628SOL    HW278624   4.422   4.773   5.415 -0.2262 -0.2258  0.3752
25629SOL     OW78625   6.529   0.262   3.128  0.5460  0.2120  0.5320
25629SOL    HW178626   6.525   0.270   3.224  0.9067  1.1635  0.4824
25629SOL    HW278627   6.619   0.236   3.110  0.8782  1.3897  0.3908
25630SOL     OW78628   1.006   6.095   8.435  0.0695  0.1723 -0.0381
25630SOL    HW178629   1.086   6.103   8.488  1.0360  0.4097 -1.4709
25630SOL    HW278630   0.952   6.170   8.460 -0.3404 -0.7186  1.9234
25631SOL     OW78631   2.529   6.017   2.557  0.2744  0.1319  0.3432
25631SOL    HW178632   2.536   5.975   2.643 -0.5595  0.9135  0.8154
25631SOL    HW278633   2.486   6.100   2.575 -1.8348 -0.5533 -1.0691
25632SOL     OW78634   5.650   1.443   2.469  0.7144  0.3065 -0.2101
25632SOL    HW178635   5.727   1.390   2.489  0.0772 -0.1564  1.0631
25632SOL    HW278636   5.576   1.383   2.474  0.3490  0.4224 -2.8182
25633SOL     OW78637   2.372   7.831   9.309 -0.5727  0.8372  0.4317
25633SOL    HW178638   2.358   7.883   9.388 -0.9638 -1.3897  1.9236
25633SOL    HW278639   2.467   7.829   9.298 -0.5570  1.8902  0.3026
25634SOL     OW78640   1.618   6.040   6.839 -0.4611 -0.1829 -0.1572
25634SOL    HW178641   1.699   6.091   6.844 -0.6822  0.1499  0.0043
25634SOL    HW278642   1.643   5.952   6.869  0.3240 -0.6566 -2.0197
25635SOL     OW78643   2.427   1.253   3.805 -0.0153 -0.1270 -0.3045
25635SOL    HW178644   2.503   1.259   3.864  0.1954 -0.9179 -0.4841
25635SOL    HW278645   2.454   1.299   3.726 -0.4720  1.3672  0.3634
25636SOL     OW78646   9.210   5.664   4.786  0.3940 -0.0892  0.3282
25636SOL    HW178647   9.269   5.736   4.763 -1.8312  1.7869  0.1090
25636SOL    HW278648   9.161   5.696   4.862 -0.7302 -1.3335  0.1682
25637SOL     OW78649   9.265   3.637   5.461 -0.1793  0.0444  0.2916
25637SOL    HW178650   9.237   3.692   5.534  0.0222  0.3471  0.1413
25637SOL    HW278651   9.208   3.661   5.388 -0.9272 -0.8352  0.5663
25638SOL     OW78652   4.150   6.077   0.843  0.3856  0.3611  0.2291
25638SOL    HW178653   4.213   6.037   0.783  1.0069  2.0570 -0.2920
25638SOL    HW278654   4.069   6.081   0.793  0.4061  0.0704  0.1704
25639SOL     OW78655   8.193   3.867   5.345 -0.8206  0.7115  0.1243
25639SOL    HW178656   8.180   3.953   5.305 -2.5471  0.4706  0.1058
25639SOL    HW278657   8.155   3.876   5.432 -1.6632 -0.2220 -0.1307
25640SOL     OW78658   4.989   3.918   8.973  0.3795  0.3801 -0.4500
25640SOL    HW178659   4.916   3.877   9.020 -1.3886  1.7448 -1.8827
25640SOL    HW278660   4.997   3.867   8.892 -0.4391  1.5205 -1.2746
25641SOL     OW78661   6.627   5.563   0.737  0.4913 -0.9154 -0.1384
25641SOL    HW178662   6.552   5.622   0.738  0.3633 -1.0515 -1.2174
25641SOL    HW278663   6.703   5.622   0.727  0.4332 -0.8744 -0.3320
25642SOL     OW78664   1.804   7.719   7.760  0.1779  0.3435 -0.2493
25642SOL    HW178665   1.713   7.746   7.749  0.5970  1.4425 -1.3717
25642SOL    HW278666   1.850   7.763   7.688  1.4122 -1.0846 -0.3826
25643SOL     OW78667   6.133   6.586   6.577 -0.1002  0.0146 -0.2595
25643SOL    HW178668   6.144   6.678   6.603 -3.7552  0.9269 -1.3722
25643SOL    HW278669   6.165   6.582   6.487  0.9964 -0.1074  0.1175
25644SOL     OW78670   1.486   8.770   1.871  1.0433  0.6578  0.7171
25644SOL    HW178671   1.461   8.739   1.784  3.0349 -2.2159  1.0276
25644SOL    HW278672   1.407   8.760   1.924 -0.2137  2.5204 -0.7124
25645SOL     OW78673   7.373   2.615   1.844  0.4929 -0.6638 -0.4876
25645SOL    HW178674   7.388   2.521   1.836 -0.0895 -0.8435  0.4392
25645SOL    HW278675   7.287   2.623   1.886  0.4748  0.2880 -0.6681
25646SOL     OW78676   1.440   4.925   0.097 -0.3234 -0.1719  0.4946
25646SOL    HW178677   1.532   4.947   0.108 -0.7772  2.3358 -0.0625
25646SOL    HW278678   1.400   4.945   0.182 -0.5941  0.3861  0.2476
25647SOL     OW78679   2.536   7.820   2.835 -0.2732  0.8004  0.2028
25647SOL    HW178680   2.461   7.862   2.877  1.3035  0.7137  3.4185
25647SOL    HW278681   2.594   7.892   2.811  0.1294  0.7371  0.9504
25648SOL     OW78682   6.397   8.143   0.766 -0.4463  0.2003  0.9148
25648SOL    HW178683   6.335   8.087   0.813  1.0756 -0.8155  1.7739
25648SOL    HW278684   6.483   8.117   0.799  0.5197  0.9951 -0.8451
25649SOL     OW78685   7.615   0.531   8.526 -0.1211 -0.3005  0.9240
25649SOL    HW178686   7.559   0.593   8.572 -1.3032 -0.1196 -0.6833
25649SOL    HW278687   7.637   0.574   8.444  0.4667 -1.3166  0.5288
25650SOL     OW78688   5.224   6.261   2.431  0.2984  0.0561 -0.0568
25650SOL    HW178689   5.161   6.241   2.500  1.7615 -0.7745  1.1054
25650SOL    HW278690   5.272   6.179   2.419  1.5199  0.8203 -0.5181
25651SOL     OW78691   1.319   8.273   5.577  0.9960  0.5317 -0.2641
25651SOL    HW178692   1.293   8.326   5.501  0.3584 -0.0568 -0.4602
25651SOL    HW278693   1.237   8.243   5.615  1.3471 -1.2433 -0.8177
25652SOL     OW78694   2.816   3.387   6.681  0.0609 -0.1071 -0.2416
25652SOL    HW178695   2.743   3.365   6.623  1.6268  0.3798 -2.5459
25652SOL    HW278696   2.889   3.332   6.650  1.2247  0.8577  0.6776
25653SOL     OW78697   3.544   5.192   7.318 -0.7235 -0.4761  0.3488
25653SOL    HW178698   3.525   5.241   7.239  1.7451  2.0665  1.1552
25653SOL    HW278699   3.461   5.187   7.365 -1.8239 -0.4393 -1.5343
25654SOL     OW78700   1.148   0.284   2.566  0.1658  0.2092  0.2900
25654SOL    HW178701   1.176   0.234   2.489  0.5295  1.9092 -0.7337
25654SOL    HW278702   1.230   0.312   2.607  0.0166  1.5796 -0.2807
25655SOL     OW78703   5.136   8.853   1.996 -0.0687 -0.1126  0.2750
25655SOL    HW178704   5.169   8.813   2.077 -1.3537 -0.9343  0.4246
25655SOL    HW278705   5.050   8.813   1.983  0.2985 -0.3601 -1.7751
25656SOL     OW78706   1.535   1.428   4.944  0.1361 -0.6255  0.2007
25656SOL    HW178707   1.526   1.509   4.995 -1.8450 -0.5341 -0.2156
25656SOL    HW278708   1.630   1.413   4.940  0.4481  0.2755  2.4335
25657SOL     OW78709   7.179   7.309   6.241  0.2552  0.0712 -0.3502
25657SOL    HW178710   7.133   7.337   6.162  0.8706 -0.1721 -0.8052
25657SOL    HW278711   7.118   7.249   6.284 -0.7994  1.5337  0.2879
25658SOL     OW78712   5.181   7.355   8.427 -0.1644  0.0765  0.3792
25658SOL    HW178713   5.233   7.347   8.347 -2.4565  1.3767 -1.3649
25658SOL    HW278714   5.145   7.268   8.441 -1.1616  0.2248 -1.0860
25659SOL     OW78715   5.263   1.233   6.981  0.1024 -0.1759  0.0611
25659SOL    HW178716   5.321   1.223   6.905 -0.0517 -1.3962  0.0871
25659SOL    HW278717   5.295   1.168   7.044 -0.8129 -0.3266  0.3827
25660SOL     OW78718   7.481   0.778   2.528 -0.3481 -0.4351 -0.1725
25660SOL    HW178719   7.393   0.808   2.502 -1.0452 -2.2273  0.0238
25660SOL    HW278720   7.482   0.788   2.623 -0.0858  0.1788 -0.2318
25661SOL     OW78721   8.508   2.013   1.992 -0.5650  0.6149 -0.2050
25661SOL    HW178722   8.453   2.049   2.062  0.1631 -0.9235  1.2240
25661SOL    HW278723   8.478   1.923   1.981  1.0386  0.0222 -0.0282
25662SOL     OW78724   1.990   4.551   0.386 -0.0787  0.2054 -0.5708
25662SOL    HW178725   1.978   4.545   0.481  0.6439 -2.4494 -0.5670
25662SOL    HW278726   1.946   4.473   0.352 -0.7437  1.3659 -2.4921
25663SOL     OW78727   2.962   0.049   7.400  0.4080 -0.2972  0.8147
25663SOL    HW178728   3.022   0.123   7.394 -0.3800  0.2957 -0.0915
25663SOL    HW278729   2.893   0.078   7.459 -0.8979  0.4557 -0.9993
25664SOL     OW78730   0.428   1.103   4.753 -0.2353  0.3344 -0.5296
25664SOL    HW178731   0.438   1.112   4.847 -0.5336 -1.9819 -0.2008
25664SOL    HW278732   0.515   1.124   4.717  0.7703 -1.6160  0.5804
25665SOL     OW78733   5.099   6.458   1.557 -0.3680  0.3421 -0.7986
25665SOL    HW178734   5.074   6.413   1.638  0.4377 -1.1851 -1.3501
25665SOL    HW278735   5.191   6.480   1.570 -0.7119  1.7552 -0.5998
25666SOL     OW78736   6.867   7.532   9.503 -0.9579  0.4228 -0.8079
25666SOL    HW178737   6.877   7.627   9.505 -0.6904  0.4134 -1.3574
25666SOL    HW278738   6.921   7.504   9.429 -0.3467 -0.2470 -0.1229
25667SOL     OW78739   6.290   3.382   2.553 -0.4729  0.5068  0.5545
25667SOL    HW178740   6.211   3.414   2.509 -0.6156 -0.5285  0.0314
25667SOL    HW278741   6.360   3.392   2.489 -0.7940 -1.5832 -0.1930
25668SOL     OW78742   5.522   2.352   2.385 -0.1992 -0.5036  0.2351
25668SOL    HW178743   5.551   2.413   2.453  0.6525 -1.8088  1.0872
25668SOL    HW278744   5.455   2.298   2.427 -0.7872 -0.3228 -0.4428
25669SOL     OW78745   1.524   2.711   3.800  0.5312 -0.2722 -0.5284
25669SOL    HW178746   1.447   2.683   3.850  1.2234 -0.5082  0.4281
25669SOL    HW278747   1.495   2.790   3.754 -0.0012  0.2015  0.5884
25670SOL     OW78748   2.141   9.211   2.877 -0.3094 -1.0214 -0.7681
25670SOL    HW178749   2.075   9.183   2.815 -0.5770  0.3936 -1.1592
25670SOL    HW278750   2.137   9.307   2.875  1.1721 -0.9151 -0.1862
25671SOL     OW78751   7.433   8.441   4.988 -0.5118  0.0782  0.3686
25671SOL    HW178752   7.376   8.508   4.951 -1.7828 -1.5688 -0.7629
25671SOL    HW278753   7.376   8.366   5.005  0.6979 -0.4578  2.4563
25672SOL     OW78754   3.855   8.149   8.636  0.6119  0.6298 -0.0436
25672SOL    HW178755   3.945   8.125   8.659  0.8045 -0.3435 -1.6638
25672SOL    HW278756   3.862   8.188   8.549 -0.5755  0.1742 -0.3613
25673SOL     OW78757   0.811   2.750   3.890 -0.4723 -0.3969 -0.6341
25673SOL    HW178758   0.798   2.844   3.901  0.8732 -0.0939 -1.3474
25673SOL    HW278759   0.904   2.736   3.909 -0.6810 -1.6024 -0.4102
25674SOL     OW78760   1.385   5.689   5.858 -0.5992 -0.3218 -0.7653
25674SOL    HW178761   1.414   5.633   5.786 -2.5351 -1.1048 -0.9870
25674SOL    HW278762   1.351   5.629   5.924 -0.1783  0.4625  0.1962
25675SOL     OW78763   3.706   3.836   3.608 -0.2179  0.0093  0.1074
25675SOL    HW178764   3.735   3.754   3.568  2.0255 -1.4214  4.0963
25675SOL    HW278765   3.640   3.809   3.672 -0.3171  1.4666  0.6418
25676SOL     OW78766   0.806   8.612   0.232  0.7759 -0.1608  0.1469
25676SOL    HW178767   0.733   8.563   0.195  0.1954  2.5788 -2.8268
25676SOL    HW278768   0.884   8.564   0.205  0.2073 -2.0279  1.6261
25677SOL     OW78769   1.758   5.405   5.771 -0.0712  0.4658  0.5523
25677SOL    HW178770   1.757   5.346   5.696 -1.9333  0.4868  0.5159
25677SOL    HW278771   1.818   5.476   5.745  0.7364 -0.4514 -0.1449
25678SOL     OW78772   4.262   6.202   3.632 -0.0683  0.0109 -0.3451
25678SOL    HW178773   4.194   6.140   3.607  0.5231 -0.3649 -1.0737
25678SOL    HW278774   4.323   6.150   3.685  0.2917  0.0222 -0.7377
25679SOL     OW78775   8.510   3.269   4.694 -0.1425  0.1653 -0.1947
25679SOL    HW178776   8.477   3.188   4.656 -1.6102  0.2983  0.7266
25679SOL    HW278777   8.496   3.335   4.625  2.2324 -0.4956 -1.4561
25680SOL     OW78778   8.117   5.508   0.899 -0.4804 -0.5834  0.2006
25680SOL    HW178779   8.207   5.523   0.928  0.2229 -2.1547 -1.0105
25680SOL    HW278780   8.102   5.574   0.832  0.2192 -1.0563 -0.4400
25681SOL     OW78781   7.742   6.597   9.486 -0.2468  0.8624 -0.0050
25681SOL    HW178782   7.796   6.527   9.451  1.1868  3.3721 -3.3031
25681SOL    HW278783   7.802   6.670   9.502 -2.1840  2.8540 -1.1286
25682SOL     OW78784   2.192   1.075   0.578 -0.2164  0.1358 -0.0659
25682SOL    HW178785   2.098   1.078   0.599 -0.4843  1.0965 -1.3020
25682SOL    HW278786   2.233   1.129   0.646 -0.7115  0.7072 -0.2088
25683SOL     OW78787   6.250   5.021   6.977 -0.1623  0.5548 -0.3246
25683SOL    HW178788   6.291   5.018   6.891 -0.4617  1.2755 -0.5008
25683SOL    HW278789   6.227   5.113   6.989  1.3077  0.7860  1.1868
25684SOL     OW78790   5.878   0.675   9.520  0.2005 -0.0010 -0.2737
25684SOL    HW178791   5.972   0.656   9.513  0.3427  0.8980 -0.9823
25684SOL    HW278792   5.836   0.612   9.462  0.2611 -1.0245  0.7440
25685SOL     OW78793   2.135   1.856   4.420 -0.3398  0.1363 -0.0274
25685SOL    HW178794   2.220   1.836   4.382 -0.6793  1.1710 -1.4386
25685SOL    HW278795   2.079   1.782   4.394 -0.1141 -0.0542  0.0330
25686SOL     OW78796   5.172   6.502   0.010  0.0922  0.7001 -0.3124
25686SOL    HW178797   5.180   6.530  -0.081  2.1821  2.1512  0.2481
25686SOL    HW278798   5.234   6.557   0.058  0.2337 -1.1193  1.7553
25687SOL     OW78799   7.209   3.230   2.667 -0.2727 -0.1715 -0.5367
25687SOL    HW178800   7.230   3.141   2.695  3.2504  0.3217 -1.2339
25687SOL    HW278801   7.133   3.220   2.610  0.5151 -2.8553 -1.2397
25688SOL     OW78802   8.781   7.666   0.108 -0.2300 -0.2736 -0.1406
25688SOL    HW178803   8.826   7.625   0.034 -0.1614 -0.0667 -0.2136
25688SOL    HW278804   8.690   7.675   0.078 -0.5648 -1.6587  0.3977
25689SOL     OW78805   3.835   6.897   4.819  0.2519  0.2374 -0.4524
25689SOL    HW178806   3.792   6.896   4.905  1.2134  1.2930  0.0738
25689SOL    HW278807   3.775   6.850   4.761 -0.2506 -0.8206  0.8693
25690SOL     OW78808   6.887   2.262   8.269 -0.5355 -0.4698 -0.6564
25690SOL    HW178809   6.890   2.206   8.346 -0.9115  1.0313  0.4961
25690SOL    HW278810   6.794   2.263   8.244 -0.4378 -0.8318 -1.0386
25691SOL     OW78811   7.684   6.239   6.026 -0.6356  0.2912 -0.1788
25691SOL    HW178812   7.725   6.154   6.044  1.0472  0.9658 -0.6782
25691SOL    HW278813   7.752   6.291   5.984 -1.4659  2.0813  0.5715
25692SOL     OW78814   8.173   2.965   6.658  0.5453  0.1435  0.5070
25692SOL    HW178815   8.232   3.028   6.617 -0.5011  2.1332  1.8753
25692SOL    HW278816   8.087   2.986   6.621  0.5438 -2.5701 -1.3019
25693SOL     OW78817   8.212   8.563   2.945  0.2234  0.2341  0.0040
25693SOL    HW178818   8.288   8.620   2.960  0.2331 -0.2386  2.1265
25693SOL    HW278819   8.140   8.605   2.992 -0.0167 -0.9177  0.7272
25694SOL     OW78820   0.537   2.016   1.441 -0.3018 -0.1852 -0.8172
25694SOL    HW178821   0.506   1.944   1.385 -2.0857 -0.6852  0.7054
25694SOL    HW278822   0.606   1.976   1.495 -1.1593 -0.7338 -0.1057
25695SOL     OW78823   9.469   2.468   8.971 -0.4407  0.4383  0.3318
25695SOL    HW178824   9.450   2.374   8.966 -0.7127  0.4249  1.4628
25695SOL    HW278825   9.484   2.494   8.880  0.4222 -0.8579  0.0782
25696SOL     OW78826   5.646   1.922   7.432 -0.1918 -0.8488  0.1231
25696SOL    HW178827   5.710   1.974   7.481 -0.4197 -1.1862  0.8069
25696SOL    HW278828   5.586   1.889   7.500 -0.8777 -0.8314 -0.4637
25697SOL     OW78829   5.119   5.444   0.031 -0.3889  0.0326 -0.4126
25697SOL    HW178830   5.188   5.400   0.081 -0.5417 -0.6296 -0.7703
25697SOL    HW278831   5.114   5.394  -0.051  0.2384  1.4336 -1.3384
25698SOL     OW78832   0.485   2.618   1.828  0.3554 -0.4122 -0.7328
25698SOL    HW178833   0.419   2.686   1.843 -0.9864 -1.9964  0.9238
25698SOL    HW278834   0.483   2.605   1.733  0.3547  1.5294 -1.0576
25699SOL     OW78835   8.590   1.575   0.543  0.1338 -0.2353 -0.5690
25699SOL    HW178836   8.528   1.506   0.518  0.6933 -0.5851 -1.0384
25699SOL    HW278837   8.673   1.547   0.504  0.6990 -0.0179  0.4430
25700SOL     OW78838   1.411   9.211   4.905 -0.4006  0.8622 -0.5850
25700SOL    HW178839   1.454   9.201   4.820  1.6262  0.0844  0.4660
25700SOL    HW278840   1.371   9.125   4.921  0.6621  0.4499 -0.0401
25701SOL     OW78841   1.697   5.337   0.712  0.0042  0.2889  0.1266
25701SOL    HW178842   1.672   5.413   0.763  1.1146  1.5713 -1.1424
25701SOL    HW278843   1.790   5.351   0.692  0.3728 -1.6627  0.2889
25702SOL     OW78844   4.727   8.796   7.717 -0.6973  0.1159 -0.2738
25702SOL    HW178845   4.687   8.820   7.633 -1.5684 -1.4223 -0.3329
25702SOL    HW278846   4.821   8.802   7.702 -0.8473  1.1356 -0.9484
25703SOL     OW78847   1.739   4.781   7.530 -0.8289  0.6761 -0.1510
25703SOL    HW178848   1.772   4.721   7.463 -0.7043  1.1874 -0.5590
25703SOL    HW278849   1.649   4.801   7.502 -0.8298  0.7675 -0.0828
25704SOL     OW78850   4.677   3.290   5.521 -0.0866 -0.3005  0.1347
25704SOL    HW178851   4.741   3.223   5.545  0.8845  0.4064 -0.4251
25704SOL    HW278852   4.594   3.242   5.513  0.7837 -1.6430 -1.3506
25705SOL     OW78853   1.788   1.689   8.609 -0.4300  0.0426 -0.2365
25705SOL    HW178854   1.788   1.711   8.702 -1.1262  0.4345 -0.3190
25705SOL    HW278855   1.808   1.596   8.606  1.1043  0.3272  0.2067
25706SOL     OW78856   3.955   3.582   6.302 -0.0558  0.5351 -0.0827
25706SOL    HW178857   3.957   3.653   6.365 -0.1876  0.0186  0.5074
25706SOL    HW278858   3.949   3.503   6.355  2.1438 -0.0624 -0.6255
25707SOL     OW78859   4.352   0.998   3.318  0.6100 -0.2959  0.5463
25707SOL    HW178860   4.344   0.958   3.404  1.1222 -2.1965 -0.2290
25707SOL    HW278861   4.427   1.058   3.325 -1.3420  2.1219  2.2585
25708SOL     OW78862   4.489   2.951   8.149 -0.6919 -0.2235 -0.8668
25708SOL    HW178863   4.552   2.935   8.078  0.1898  1.9424 -0.6586
25708SOL    HW278864   4.440   3.028   8.120 -3.1132 -1.6759 -0.8689
25709SOL     OW78865   3.735   7.574   1.961 -0.1121 -0.0746  0.5848
25709SOL    HW178866   3.714   7.639   1.894  2.4158 -0.2760 -0.5137
25709SOL    HW278867   3.745   7.625   2.042  2.5558  1.1737 -0.3948
25710SOL     OW78868   4.382   8.709   8.060 -0.4073 -0.3077 -0.5446
25710SOL    HW178869   4.438   8.664   7.997 -1.7546 -0.1867 -1.9033
25710SOL    HW278870   4.416   8.683   8.145  1.3896 -0.6161 -1.2978
25711SOL     OW78871   8.176   4.990   6.152 -0.0009  0.6897 -0.0183
25711SOL    HW178872   8.201   5.045   6.226  0.0270 -0.1945  0.6507
25711SOL    HW278873   8.109   4.931   6.187  0.8413 -0.5148 -0.3640
25712SOL     OW78874   6.140   6.475   8.101  0.2550 -0.4560 -0.1628
25712SOL    HW178875   6.123   6.382   8.088  1.3212 -0.5742 -0.7807
25712SOL    HW278876   6.055   6.511   8.128 -0.3837 -1.4317 -0.8035
25713SOL     OW78877   8.806   1.032   6.847 -0.1597  0.0871 -0.0102
25713SOL    HW178878   8.806   0.954   6.903 -0.7372  0.3170  0.3151
25713SOL    HW278879   8.888   1.077   6.868  0.5703 -0.8431 -0.7845
25714SOL     OW78880   4.971   7.153   4.687 -0.7903 -0.1816  0.0451
25714SOL    HW178881   4.921   7.192   4.616 -0.0976 -0.8946 -0.8641
25714SOL    HW278882   5.012   7.227   4.732 -1.2215  0.2742 -0.3070
25715SOL     OW78883   8.943   6.143   8.841  0.2556  0.8348  0.0374
25715SOL    HW178884   8.981   6.110   8.923  0.4440  0.2045 -0.3025
25715SOL    HW278885   9.016   6.181   8.794  0.2098  0.8910  0.0108
25716SOL     OW78886   5.195   2.838   5.650 -0.3116  0.6871 -0.5467
25716SOL    HW178887   5.248   2.891   5.590  1.5460 -1.2170 -0.7249
25716SOL    HW278888   5.247   2.758   5.663 -3.4432 -1.6606 -1.2589
25717SOL     OW78889   6.441   1.388   8.165  0.0161  0.2942  0.2804
25717SOL    HW178890   6.381   1.345   8.104  1.4451 -0.8554 -0.3788
25717SOL    HW278891   6.469   1.318   8.225  2.9130  0.0052 -1.2173
25718SOL     OW78892   2.909   2.371   5.882 -0.0531  0.6016  0.5263
25718SOL    HW178893   2.838   2.330   5.931 -0.0345  0.0941  0.1417
25718SOL    HW278894   2.979   2.382   5.946 -0.1843  0.3427  0.7172
25719SOL     OW78895   6.494   0.818   6.563  0.7796  0.1485 -0.3033
25719SOL    HW178896   6.447   0.812   6.480  0.0242  1.1177  0.0474
25719SOL    HW278897   6.435   0.777   6.627  1.4855 -0.8695 -0.2726
25720SOL     OW78898   1.656   1.973   3.946  0.2046 -0.1919  0.0564
25720SOL    HW178899   1.645   2.060   3.908 -0.0247  0.4377  1.5231
25720SOL    HW278900   1.635   1.913   3.873 -0.9019  0.9704 -0.6297
25721SOL     OW78901   6.499   3.392   4.327  0.2431  0.2929  0.2782
25721SOL    HW178902   6.587   3.356   4.338  0.2982 -0.3617 -1.9682
25721SOL    HW278903   6.503   3.440   4.244 -1.3711  0.7215  0.4224
25722SOL     OW78904   7.140   3.603   6.378  0.6587  0.1842  0.3090
25722SOL    HW178905   7.183   3.685   6.402  3.0822 -1.1485  0.8001
25722SOL    HW278906   7.047   3.621   6.391  1.2512  2.1163  2.8404
25723SOL     OW78907   1.639   1.368   3.722  0.4074 -0.1929  0.2713
25723SOL    HW178908   1.574   1.300   3.709 -0.7320  0.6899  1.1307
25723SOL    HW278909   1.723   1.326   3.704 -0.2907 -1.7321  0.5195
25724SOL     OW78910   7.722   6.161   2.520  0.2786 -0.3637  0.1153
25724SOL    HW178911   7.711   6.132   2.430  2.2115 -0.7469 -0.0392
25724SOL    HW278912   7.748   6.253   2.513 -0.1737 -0.2183  0.3151
25725SOL     OW78913   7.168   3.497   5.281  0.5548 -0.1939 -0.1779
25725SOL    HW178914   7.252   3.529   5.247  1.2131 -2.3639 -0.7526
25725SOL    HW278915   7.191   3.419   5.332 -0.9480  0.2684  1.2765
25726SOL     OW78916   0.110   5.222   0.401  0.0559 -0.0077 -0.3469
25726SOL    HW178917   0.027   5.216   0.446 -0.5864  1.5993 -1.2294
25726SOL    HW278918   0.087   5.233   0.309  1.2299  0.4497 -0.6110
25727SOL     OW78919   1.164   6.854   3.508 -0.2804  0.2106 -0.3409
25727SOL    HW178920   1.232   6.806   3.556 -0.7997 -1.6029 -1.3567
25727SOL    HW278921   1.082   6.827   3.549 -0.4918  1.8162  0.3838
25728SOL     OW78922   3.716   6.084   6.952  0.4717 -0.2041  0.5109
25728SOL    HW178923   3.764   6.165   6.970 -0.3701  0.2398  0.8286
25728SOL    HW278924   3.726   6.071   6.858  0.2557  0.5081  0.3821
25729SOL     OW78925   6.147   1.780   4.275 -0.3250 -0.2041  0.0605
25729SOL    HW178926   6.181   1.742   4.356 -0.5086 -3.4165 -1.1832
25729SOL    HW278927   6.212   1.755   4.209  0.1848  2.9169 -0.7792
25730SOL     OW78928   1.844   6.651   6.243 -0.3869 -0.3086  0.4787
25730SOL    HW178929   1.792   6.601   6.181 -0.5578 -0.8176  1.0252
25730SOL    HW278930   1.780   6.705   6.290  0.0206  2.4939 -1.9032
25731SOL     OW78931   3.018   4.310   3.957  0.4125  0.2012  0.1134
25731SOL    HW178932   3.027   4.250   3.883  1.0627 -1.6746  1.6211
25731SOL    HW278933   3.023   4.254   4.034  1.5800  2.2680  1.6555
25732SOL     OW78934   7.668   5.790   2.958 -0.4804  0.3091 -0.2977
25732SOL    HW178935   7.713   5.709   2.931 -1.3944 -0.2152 -0.3039
25732SOL    HW278936   7.612   5.763   3.030 -0.4746  1.0433 -0.0115
25733SOL     OW78937   5.799   7.169   8.649  0.3591 -0.3307 -0.5331
25733SOL    HW178938   5.840   7.194   8.732  0.3603 -1.0389 -0.3107
25733SOL    HW278939   5.858   7.203   8.581  1.2641 -1.2315 -0.2200
25734SOL     OW78940   3.294   2.945   5.560  0.2997 -0.4134  0.2381
25734SOL    HW178941   3.250   2.899   5.631 -1.2718 -2.2808 -1.7983
25734SOL    HW278942   3.387   2.940   5.582 -0.0968 -1.5621  1.8035
25735SOL     OW78943   7.027   9.255   1.102 -0.1457  0.0072  0.5083
25735SOL    HW178944   6.953   9.213   1.146  0.1126 -1.9937 -0.8098
25735SOL    HW278945   6.988   9.309   1.033 -0.4140 -0.1636  0.5278
25736SOL     OW78946   3.953   1.349   7.565 -0.1814  0.4119  0.1361
25736SOL    HW178947   4.008   1.321   7.493 -0.6053 -1.4617  0.5017
25736SOL    HW278948   3.949   1.274   7.625 -2.4782  0.7167  0.4947
25737SOL     OW78949   8.699   6.883   7.878 -0.2382  0.0197  0.4805
25737SOL    HW178950   8.674   6.871   7.787  3.0386 -0.6665 -0.4681
25737SOL    HW278951   8.746   6.966   7.880  0.0873 -0.1701  1.4407
25738SOL     OW78952   8.177   7.728   6.444 -0.4458  0.2773  0.5474
25738SOL    HW178953   8.200   7.642   6.409 -1.5575 -0.3505  1.2997
25738SOL    HW278954   8.247   7.748   6.506  0.3598  0.3930 -0.3730
25739SOL     OW78955   3.904   8.969   9.568 -0.0362 -0.3687 -0.7679
25739SOL    HW178956   3.917   8.888   9.519 -0.0335 -1.3432  0.7625
25739SOL    HW278957   3.953   8.955   9.650  1.3933  1.8709 -1.1523
25740SOL     OW78958   8.004   4.336   5.318 -0.1277 -0.3557  0.2911
25740SOL    HW178959   7.994   4.423   5.356 -0.4204 -0.3658  0.2374
25740SOL    HW278960   8.099   4.322   5.316 -0.1066 -0.3258  0.9413
25741SOL     OW78961   7.269   9.000   3.005  0.1865  0.1210  0.1843
25741SOL    HW178962   7.315   8.918   3.020 -0.8902 -0.4173  0.6334
25741SOL    HW278963   7.209   9.008   3.080 -0.6570  0.6524 -0.5309
25742SOL     OW78964   5.210   1.837   7.299  0.3889  0.1261  0.1687
25742SOL    HW178965   5.144   1.784   7.256 -1.5678  0.3968  2.6240
25742SOL    HW278966   5.280   1.775   7.320  1.0156 -0.1735 -2.4270
25743SOL     OW78967   1.385   8.829   6.753  0.7757 -0.0300  0.2310
25743SOL    HW178968   1.361   8.807   6.842 -0.6243  0.9373  0.1306
25743SOL    HW278969   1.479   8.845   6.756  1.1084 -1.9302  1.0938
25744SOL     OW78970   3.010   5.501   0.271 -0.4340 -0.3863 -0.0331
25744SOL    HW178971   2.923   5.538   0.286 -1.4313 -2.9078  0.8011
25744SOL    HW278972   3.048   5.557   0.204 -2.9568  0.4023 -0.9152
25745SOL     OW78973   5.059   1.848   2.765  0.1561 -0.2797 -0.6992
25745SOL    HW178974   5.137   1.797   2.740 -0.6874 -1.2507 -1.4891
25745SOL    HW278975   5.036   1.814   2.851 -0.1489 -0.9625 -1.0356
25746SOL     OW78976   3.917   8.216   0.818  0.3014 -0.0788  0.2203
25746SOL    HW178977   3.851   8.273   0.858  0.6757  0.2295  0.4044
25746SOL    HW278978   3.871   8.133   0.806 -0.1816  0.1858  0.1672
25747SOL     OW78979   0.503   1.669   0.851  0.3188  0.0349 -0.4955
25747SOL    HW178980   0.576   1.671   0.913 -0.8308 -0.3296  0.9408
25747SOL    HW278981   0.435   1.721   0.893 -1.0348 -1.4602 -0.7173
25748SOL     OW78982   6.956   7.472   6.049 -0.3510  0.4019 -0.7582
25748SOL    HW178983   6.905   7.435   6.121 -1.9269  2.5392 -0.6607
25748SOL    HW278984   6.920   7.432   5.970 -0.5373  0.1083 -0.5247
25749SOL     OW78985   1.343   2.061   2.940  0.3235  0.8369  0.5063
25749SOL    HW178986   1.398   2.100   3.008  3.5865  0.3789 -1.6260
25749SOL    HW278987   1.399   1.996   2.899 -2.2428 -0.4253 -1.2539
25750SOL     OW78988   4.169   8.525   7.855 -0.2423 -0.3179  0.2596
25750SOL    HW178989   4.209   8.477   7.928 -0.4048 -0.5492  0.1965
25750SOL    HW278990   4.122   8.459   7.805 -1.5103  0.0986  0.8696
25751SOL     OW78991   6.084   0.723   0.323 -0.0727  0.0882  0.0875
25751SOL    HW178992   6.025   0.650   0.304  0.3394  0.3115 -2.3206
25751SOL    HW278993   6.059   0.791   0.261  1.7552  0.7133 -0.0177
25752SOL     OW78994   5.598   7.113   5.339  0.1063 -0.7548  0.1169
25752SOL    HW178995   5.550   7.173   5.282  0.6075 -1.8274 -1.5001
25752SOL    HW278996   5.651   7.061   5.279  0.9718 -1.6538  1.6193
25753SOL     OW78997   5.035   8.897   7.281  0.3939 -0.3046  0.0536
25753SOL    HW178998   5.046   8.971   7.341 -1.6862  1.1026 -1.1309
25753SOL    HW278999   5.037   8.820   7.337 -0.8500  0.8922  1.8929
25754SOL     OW79000   0.215   0.926   1.547 -0.3550  0.2055 -0.5671
25754SOL    HW179001   0.122   0.906   1.551 -0.1968 -0.5436 -0.5138
25754SOL    HW279002   0.251   0.863   1.485  0.2330  0.0080 -0.0383
25755SOL     OW79003   8.632   4.411   1.430 -0.0869 -0.0458 -0.7670
25755SOL    HW179004   8.679   4.375   1.354 -1.1905  0.7120 -1.8365
25755SOL    HW279005   8.570   4.474   1.392 -0.6633  0.3421  0.7731
25756SOL     OW79006   4.871   4.535   0.451 -0.0202 -0.0287 -0.0464
25756SOL    HW179007   4.798   4.554   0.511 -2.6628 -1.2431 -2.6557
25756SOL    HW279008   4.876   4.440   0.450  0.4964  0.0040 -1.1511
25757SOL     OW79009   1.063   5.782   5.539 -0.4486  0.1325 -0.1862
25757SOL    HW179010   0.984   5.835   5.524 -0.2864  0.8206  1.2307
25757SOL    HW279011   1.132   5.846   5.554  0.7101 -0.4317 -2.6677
25758SOL     OW79012   4.449   0.634   2.755  0.5648  0.1385 -0.2327
25758SOL    HW179013   4.521   0.682   2.797  0.7131  0.8844 -1.3235
25758SOL    HW279014   4.392   0.610   2.828  1.3574  0.4786  0.5299
25759SOL     OW79015   5.372   9.259   5.561 -0.6178  0.0433  0.1787
25759SOL    HW179016   5.405   9.335   5.514 -0.2586  0.5966  1.2794
25759SOL    HW279017   5.452   9.212   5.588 -0.7421  0.6343  1.6515
25760SOL     OW79018   8.892   8.029   1.628 -0.2680 -0.0431  0.3660
25760SOL    HW179019   8.936   7.958   1.674 -0.4050 -0.7758 -0.5984
25760SOL    HW279020   8.816   7.989   1.587  0.1384  0.4376 -0.9387
25761SOL     OW79021   3.685   9.160   1.064 -0.1624  0.2237  0.0478
25761SOL    HW179022   3.727   9.081   1.032  0.6068 -0.1881  1.9795
25761SOL    HW279023   3.613   9.175   1.002 -1.7356 -3.2236  0.8136
25762SOL     OW79024   6.925   3.752   0.260 -0.7373  0.5952 -0.2184
25762SOL    HW179025   6.831   3.753   0.244 -0.8506 -1.4561 -0.0079
25762SOL    HW279026   6.940   3.824   0.322 -2.4116  0.0614  0.8670
25763SOL     OW79027   0.157   1.558   0.608 -0.1107  0.4577 -0.7873
25763SOL    HW179028   0.067   1.524   0.609 -1.5041  3.7531 -1.7215
25763SOL    HW279029   0.172   1.590   0.696 -0.0638  0.3999 -0.7744
25764SOL     OW79030   1.184   5.866   0.551 -0.2938 -0.0458 -0.0090
25764SOL    HW179031   1.254   5.801   0.550 -0.8176 -0.6103 -0.1187
25764SOL    HW279032   1.145   5.859   0.638 -0.5649 -0.1146 -0.1343
25765SOL     OW79033   5.416   9.217   0.464 -0.6121  0.2298 -0.0342
25765SOL    HW179034   5.346   9.240   0.403 -0.3259  0.3746 -0.3138
25765SOL    HW279035   5.460   9.300   0.482 -0.0911  0.0413 -0.3948
25766SOL     OW79036   5.540   1.689   1.988  0.2980 -0.5048  0.3241
25766SOL    HW179037   5.618   1.743   1.999 -1.1283  1.9932 -1.0145
25766SOL    HW279038   5.469   1.751   1.976 -1.9203 -2.6806  1.2482
25767SOL     OW79039   1.530   6.437   0.122  0.6717 -0.0247  0.5363
25767SOL    HW179040   1.557   6.503   0.186 -2.2391  1.6945  0.1839
25767SOL    HW279041   1.436   6.427   0.136  0.4141 -1.5625 -1.7159
25768SOL     OW79042   7.170   2.398   0.662 -0.2774  0.3219 -0.1401
25768SOL    HW179043   7.259   2.422   0.688 -0.3925  0.9033 -0.2589
25768SOL    HW279044   7.163   2.426   0.570  0.1239 -1.6936 -0.8333
25769SOL     OW79045   4.312   0.741   0.467 -0.4051 -0.0183  0.0535
25769SOL    HW179046   4.345   0.658   0.503  0.0661 -0.1533 -0.6606
25769SOL    HW279047   4.255   0.776   0.535  0.3800 -0.3111  0.8853
25770SOL     OW79048   4.709   6.192   2.508  0.3708  0.0882 -0.2334
25770SOL    HW179049   4.682   6.146   2.588  0.4072  2.9067  1.5106
25770SOL    HW279050   4.628   6.228   2.472  0.6705  0.9118 -0.0865
25771SOL     OW79051   0.532   5.888   2.922  0.1119  0.0764  0.5400
25771SOL    HW179052   0.438   5.893   2.944 -0.1225  1.2912 -0.6408
25771SOL    HW279053   0.567   5.826   2.986 -1.8048 -1.7454 -0.0495
25772SOL     OW79054   4.279   5.638   0.663  0.6573 -0.4821  0.3377
25772SOL    HW179055   4.276   5.676   0.750  1.7130 -1.0884  0.6663
25772SOL    HW279056   4.219   5.564   0.667 -0.0044  0.0432  0.2561
25773SOL     OW79057   8.936   6.297   5.007 -0.2094  0.6958 -0.0152
25773SOL    HW179058   8.851   6.270   5.041  0.0961 -2.5329 -1.4622
25773SOL    HW279059   8.999   6.261   5.070  0.1517  1.4218  0.0483
25774SOL     OW79060   2.570   4.618   7.030 -0.6869  0.1893 -0.7872
25774SOL    HW179061   2.555   4.570   7.112  0.2913 -0.6164 -1.0627
25774SOL    HW279062   2.577   4.709   7.057  0.9176 -0.1980  0.2301
25775SOL     OW79063   2.458   1.776   1.159  0.0353 -0.1700 -0.3428
25775SOL    HW179064   2.419   1.703   1.111 -3.7983  0.6924  1.0877
25775SOL    HW279065   2.494   1.737   1.238 -0.5620 -0.7245 -0.3364
25776SOL     OW79066   6.607   7.141   2.323  0.6535  0.2001 -0.4203
25776SOL    HW179067   6.671   7.130   2.253  1.2812 -2.0524  0.4297
25776SOL    HW279068   6.660   7.158   2.401  0.0242  1.4292 -0.2386
25777SOL     OW79069   6.098   5.791   7.407 -0.3505  0.2118 -0.1544
25777SOL    HW179070   6.034   5.773   7.476 -2.5771  3.7998 -0.9989
25777SOL    HW279071   6.053   5.765   7.326  1.0449 -1.1327 -0.5566
25778SOL     OW79072   9.170   2.825   7.971  0.5217 -0.5839  0.4399
25778SOL    HW179073   9.096   2.776   8.006 -0.6229  0.0962 -0.9493
25778SOL    HW279074   9.151   2.917   7.991  0.3458 -0.2846 -1.0238
25779SOL     OW79075   8.121   7.963   8.821  0.6379 -0.4343 -0.0659
25779SOL    HW179076   8.178   7.887   8.814 -0.5304 -1.4423  0.9796
25779SOL    HW279077   8.181   8.036   8.840  1.7973 -1.0069 -1.3364
25780SOL     OW79078   4.459   8.744   0.072  0.4967 -0.2069  0.3514
25780SOL    HW179079   4.418   8.784  -0.005  1.3477 -2.4330 -1.3799
25780SOL    HW279080   4.543   8.789   0.081 -0.2617  1.1433  1.0176
25781SOL     OW79081   0.756   1.379   4.241  0.4748 -0.1278 -0.8625
25781SOL    HW179082   0.827   1.359   4.179  0.2147  0.8953 -1.5020
25781SOL    HW279083   0.677   1.380   4.187 -0.0245 -1.1289 -0.1743
25782SOL     OW79084   2.440   5.389   3.717 -0.0277 -0.0628  0.0430
25782SOL    HW179085   2.392   5.411   3.797  1.3409  0.3743  0.7696
25782SOL    HW279086   2.379   5.410   3.647 -0.9597  0.3389  0.9384
25783SOL     OW79087   7.071   7.858   2.051 -0.1355 -0.3978 -0.2085
25783SOL    HW179088   7.164   7.833   2.056 -0.3898 -1.3619 -0.1304
25783SOL    HW279089   7.048   7.883   2.141  0.2601  0.6870 -0.3890
25784SOL     OW79090   8.111   3.796   8.074 -0.5709 -0.1039 -0.2163
25784SOL    HW179091   8.108   3.858   8.147  1.9298  2.2822 -1.9419
25784SOL    HW279092   8.187   3.741   8.092  0.9012  1.4001 -1.5938
25785SOL     OW79093   1.019   2.995   8.784  0.4018 -0.1060 -0.2494
25785SOL    HW179094   1.053   2.972   8.697 -0.1199  1.3310 -0.8624
25785SOL    HW279095   1.018   3.091   8.784 -1.7333 -0.0883  0.4937
25786SOL     OW79096   1.588   2.615   8.409 -0.2257  0.2472  0.2269
25786SOL    HW179097   1.668   2.608   8.462  0.1866  0.9952 -0.2820
25786SOL    HW279098   1.521   2.573   8.462  0.6388 -1.0221  0.3649
25787SOL     OW79099   7.816   8.766   5.871  0.0377  0.3911  0.0003
25787SOL    HW179100   7.853   8.678   5.876  4.0831  1.8491 -0.5206
25787SOL    HW279101   7.788   8.775   5.780 -1.5875 -0.6900  0.3536
25788SOL     OW79102   8.437   3.461   4.882  0.1511 -0.4670  0.1622
25788SOL    HW179103   8.446   3.368   4.864 -0.6696 -0.3073 -1.2384
25788SOL    HW279104   8.399   3.465   4.970  0.7004 -1.4281  0.4506
25789SOL     OW79105   2.897   1.775   2.323 -0.5292  0.5053 -0.4013
25789SOL    HW179106   2.956   1.739   2.389 -1.8757 -0.4196  0.3271
25789SOL    HW279107   2.883   1.703   2.261 -0.4177  0.9193 -0.9189
25790SOL     OW79108   8.225   1.509   3.357 -0.0776  0.0807  0.3073
25790SOL    HW179109   8.155   1.521   3.421 -0.2100 -0.9668  0.3869
25790SOL    HW279110   8.231   1.592   3.311 -0.8156  0.4473  0.8597
25791SOL     OW79111   3.921   4.763   5.911 -0.1798  0.5589  0.0456
25791SOL    HW179112   3.832   4.796   5.899 -0.6700 -1.0285 -1.0963
25791SOL    HW279113   3.910   4.683   5.962  0.6766  0.7353  0.5239
25792SOL     OW79114   3.372   1.589   3.270  0.2829 -0.0553  0.6362
25792SOL    HW179115   3.421   1.616   3.348  0.4725 -1.3244  0.9779
25792SOL    HW279116   3.433   1.603   3.198  0.3185  0.5609  0.7809
25793SOL     OW79117   4.168   6.878   0.420  0.5261 -0.1747  0.7630
25793SOL    HW179118   4.246   6.841   0.462  0.9009 -0.3247 -0.0529
25793SOL    HW279119   4.113   6.803   0.401  0.0976 -0.0548  1.4809
25794SOL     OW79120   4.484   2.018   9.145  0.0769  0.6598  0.2654
25794SOL    HW179121   4.563   1.966   9.136  1.1417  2.2645 -0.1134
25794SOL    HW279122   4.495   2.090   9.082 -0.6339  2.1563  1.7759
25795SOL     OW79123   7.815   3.998   1.213 -0.5913 -0.0628 -0.9979
25795SOL    HW179124   7.871   3.926   1.187 -0.0082  0.2279 -0.5740
25795SOL    HW279125   7.809   4.053   1.135  0.2670  0.2493 -0.8552
25796SOL     OW79126   0.549   0.117   9.523 -0.1277  0.2028 -0.2832
25796SOL    HW179127   0.496   0.052   9.477  0.4087 -0.7865  0.4391
25796SOL    HW279128   0.566   0.077   9.609  0.1213  1.3550  0.2271
25797SOL     OW79129   3.581   2.715   7.528  0.5308 -0.5209 -0.1590
25797SOL    HW179130   3.545   2.800   7.503 -1.5833 -1.7353 -1.5770
25797SOL    HW279131   3.670   2.734   7.557 -0.8779  2.6212  2.8101
25798SOL     OW79132   7.271   2.051   0.535 -0.1240 -0.3813 -0.4835
25798SOL    HW179133   7.254   1.974   0.590 -0.1568  0.2362  0.3869
25798SOL    HW279134   7.186   2.092   0.523 -1.0854 -2.9741 -4.9374
25799SOL     OW79135   0.100   2.504   0.469  0.3850 -0.2494  0.2994
25799SOL    HW179136   0.077   2.411   0.466 -1.1929  0.1019  0.7195
25799SOL    HW279137   0.193   2.504   0.488  0.8100 -1.7635 -1.4179
25800SOL     OW79138   6.865   6.593   8.173  0.2643 -0.0755  0.2088
25800SOL    HW179139   6.771   6.610   8.169  0.1799 -0.1667  1.2826
25800SOL    HW279140   6.887   6.553   8.089 -0.6589 -0.0501 -0.0500
25801SOL     OW79141   1.907   2.699   2.649  0.8856  0.2406 -0.0762
25801SOL    HW179142   1.958   2.621   2.669  3.0109  1.5722  0.0887
25801SOL    HW279143   1.924   2.715   2.556 -0.8828 -0.3803 -0.5383
25802SOL     OW79144   5.624   7.906   1.992  0.2335 -0.6052  0.4402
25802SOL    HW179145   5.716   7.883   2.000  0.1588 -1.2816 -0.4211
25802SOL    HW279146   5.623   7.989   1.945  0.4109 -0.5410  0.5529
25803SOL     OW79147   8.754   5.495   0.905 -0.1755  0.4211  0.0961
25803SOL    HW179148   8.816   5.422   0.903 -0.0805  0.5124 -1.0961
25803SOL    HW279149   8.786   5.552   0.974 -1.4401 -1.6683  2.5717
25804SOL     OW79150   4.818   0.401   4.704  0.7671  0.1477 -0.3679
25804SOL    HW179151   4.785   0.358   4.783  1.9835  1.4652  0.9211
25804SOL    HW279152   4.908   0.425   4.726  0.5760  2.0964 -1.4920
25805SOL     OW79153   3.111   2.767   1.779  0.4976 -0.1423 -0.5346
25805SOL    HW179154   3.064   2.790   1.699 -0.6984 -1.1932 -0.1659
25805SOL    HW279155   3.069   2.819   1.847  0.5298 -0.3577 -0.3504
25806SOL     OW79156   2.163   2.421   5.571 -0.2203 -0.2499  0.0358
25806SOL    HW179157   2.204   2.398   5.488 -0.2934  2.6580 -0.9226
25806SOL    HW279158   2.120   2.505   5.554 -2.7092 -0.9188  2.2552
25807SOL     OW79159   7.468   7.027   4.228  0.7243 -0.1362  0.1428
25807SOL    HW179160   7.517   7.079   4.292  1.4736 -1.2823  0.5291
25807SOL    HW279161   7.391   7.081   4.207  0.7300  0.4889  1.6063
25808SOL     OW79162   7.425   5.101   4.336 -0.2812 -0.6278 -0.0831
25808SOL    HW179163   7.497   5.090   4.399 -0.1286 -0.0162 -0.1457
25808SOL    HW279164   7.383   5.015   4.333 -0.1651 -0.7226  0.7044
25809SOL     OW79165   7.344   8.389   9.304  0.0478  0.2186 -0.4436
25809SOL    HW179166   7.440   8.388   9.305  0.0587 -0.7082  0.8139
25809SOL    HW279167   7.321   8.440   9.382 -0.5023  1.0568 -1.1359
25810SOL     OW79168   5.251   5.617   4.560  0.1652  0.0287  0.2817
25810SOL    HW179169   5.321   5.609   4.495 -1.5208 -1.0285 -1.5089
25810SOL    HW279170   5.176   5.650   4.511 -1.2365 -1.0085  1.6100
25811SOL     OW79171   8.391   4.547   3.697 -0.2849 -0.6505  0.4158
25811SOL    HW179172   8.455   4.505   3.639  0.7181 -1.8201  2.2767
25811SOL    HW279173   8.400   4.501   3.781 -3.4878 -0.7700  0.8263
25812SOL     OW79174   6.672   1.176   6.242 -0.3502  0.4254  0.4104
25812SOL    HW179175   6.755   1.129   6.242 -1.7782 -2.2911  0.8648
25812SOL    HW279176   6.683   1.244   6.175  2.3783  0.4967  0.8497
25813SOL     OW79177   2.923   1.645   3.472 -0.0369  0.2861  0.2935
25813SOL    HW179178   2.883   1.573   3.423  0.2562  0.0770  0.3617
25813SOL    HW279179   3.004   1.609   3.507  0.0068  0.5856  0.5103
25814SOL     OW79180   8.139   9.485   1.822  0.2734  0.5936 -0.0890
25814SOL    HW179181   8.102   9.496   1.734  0.0227  1.1899  0.0908
25814SOL    HW279182   8.217   9.540   1.823  0.2048  0.6896  0.1015
25815SOL     OW79183   3.676   1.850   6.265  0.2150 -0.1960 -0.6938
25815SOL    HW179184   3.623   1.830   6.342  1.6292 -0.6891  0.1997
25815SOL    HW279185   3.632   1.804   6.193  0.7420 -2.6827  0.4678
25816SOL     OW79186   5.652   2.445   5.141  0.0716 -0.8986 -0.1362
25816SOL    HW179187   5.729   2.442   5.198  0.6125  0.9484 -0.6796
25816SOL    HW279188   5.636   2.539   5.128 -2.5762 -1.2097  0.3114
25817SOL     OW79189   3.031   4.014   2.503  0.1225  0.6885  0.6110
25817SOL    HW179190   3.111   4.046   2.462  0.1396 -1.2514 -1.0282
25817SOL    HW279191   2.983   4.093   2.527  1.1873  1.9239 -1.1090
25818SOL     OW79192   7.342   6.827   5.706  0.3304  0.1763  0.3078
25818SOL    HW179193   7.300   6.765   5.766  1.2671  1.3090  2.2539
25818SOL    HW279194   7.276   6.893   5.689 -0.3264 -0.7563 -0.9272
25819SOL     OW79195   9.403   8.619   7.917  0.0687  0.2753  0.5398
25819SOL    HW179196   9.341   8.616   7.989  0.3981  1.6106  0.9074
25819SOL    HW279197   9.370   8.555   7.854 -0.7918 -0.1618  1.4184
25820SOL     OW79198   7.771   3.948   1.658 -0.8958  0.1803 -0.2584
25820SOL    HW179199   7.690   3.968   1.704 -0.7840  1.7952 -0.7110
25820SOL    HW279200   7.815   3.883   1.713 -1.7154  0.5303  0.8398
25821SOL     OW79201   5.266   2.412   8.881 -0.0772  0.5333  0.2937
25821SOL    HW179202   5.294   2.321   8.879  0.3788  0.6384 -2.5650
25821SOL    HW279203   5.266   2.436   8.974  1.4543 -1.8415  0.9781
25822SOL     OW79204   0.757   7.961   3.664  0.4970  0.0576  0.3143
25822SOL    HW179205   0.778   7.912   3.585  1.3936  1.3153 -0.2620
25822SOL    HW279206   0.729   8.047   3.632 -2.2295 -0.3861  1.2304
25823SOL     OW79207   1.106   3.198   9.041  0.2880 -0.0495 -0.0106
25823SOL    HW179208   1.177   3.216   8.979  0.9531 -1.4862  0.2893
25823SOL    HW279209   1.131   3.244   9.121  1.5419 -1.5228  0.4912
25824SOL     OW79210   7.154   5.788   1.974  0.4439  0.2726  0.6212
25824SOL    HW179211   7.195   5.871   1.950 -1.2947  0.7290 -0.9771
25824SOL    HW279212   7.155   5.788   2.070  0.6978  2.0287  0.6534
25825SOL     OW79213   6.602   6.457   0.956 -0.3185  0.3550 -0.1547
25825SOL    HW179214   6.659   6.516   1.005  0.5317 -0.5946  0.0456
25825SOL    HW279215   6.618   6.371   0.995 -1.0892 -0.1056 -0.8239
25826SOL     OW79216   3.645   9.154   8.664  0.2922  0.5740  0.4069
25826SOL    HW179217   3.649   9.084   8.598  4.4612  0.1758  0.8046
25826SOL    HW279218   3.696   9.120   8.737 -2.9182  1.6265  3.4031
25827SOL     OW79219   5.675   5.594   1.516 -0.1022 -0.1375 -0.0922
25827SOL    HW179220   5.638   5.654   1.581 -0.8179 -1.1263  0.4369
25827SOL    HW279221   5.766   5.583   1.544 -0.6183 -1.2221  1.2864
25828SOL     OW79222   7.328   6.626   8.794 -0.0066  0.4980  0.1094
25828SOL    HW179223   7.385   6.641   8.719  2.3674 -1.2181  1.4444
25828SOL    HW279224   7.320   6.711   8.836  0.6256  0.9982 -0.7530
25829SOL     OW79225   9.496   9.353   9.442 -0.2142  0.0356 -0.0413
25829SOL    HW179226   9.452   9.301   9.376 -0.7844  1.3662 -0.7598
25829SOL    HW279227   9.476   9.310   9.525  1.1677 -2.1282 -0.7460
25830SOL     OW79228   5.308   5.698   0.869 -0.0059 -0.3150 -0.1192
25830SOL    HW179229   5.226   5.671   0.827 -0.1068 -1.3321  0.6963
25830SOL    HW279230   5.364   5.725   0.796 -1.1944  0.8211 -0.6594
25831SOL     OW79231   7.245   6.438   3.289  0.2838  0.0736 -0.1007
25831SOL    HW179232   7.278   6.459   3.377  0.7002 -1.3511  0.1072
25831SOL    HW279233   7.323   6.415   3.239 -0.0223  0.2520 -0.6624
25832SOL     OW79234   9.269   0.757   1.630 -0.3727 -0.3244  0.2118
25832SOL    HW179235   9.202   0.730   1.692 -1.0707 -1.0581 -0.8186
25832SOL    HW279236   9.344   0.702   1.650 -0.3630 -0.0911  0.8298
25833SOL     OW79237   5.409   7.607   9.148 -0.5121  0.6088 -0.1415
25833SOL    HW179238   5.490   7.634   9.107 -0.5154 -0.2179 -0.7080
25833SOL    HW279239   5.389   7.677   9.211  0.0587  1.3442 -0.7684
25834SOL     OW79240   7.904   4.700   9.368  0.7795  0.1482  0.4499
25834SOL    HW179241   7.972   4.674   9.305  0.4810  2.1553 -0.7930
25834SOL    HW279242   7.894   4.624   9.425  1.6868 -1.4302 -1.3865
25835SOL     OW79243   6.484   3.407   1.399 -0.1006  0.5298  0.1863
25835SOL    HW179244   6.461   3.499   1.384 -3.2121 -0.3034 -0.8412
25835SOL    HW279245   6.461   3.391   1.491 -1.0526  0.3918 -0.0743
25836SOL     OW79246   6.140   7.608   7.551  0.3163  0.1472  0.5044
25836SOL    HW179247   6.091   7.597   7.633 -1.0410  1.4200 -0.0884
25836SOL    HW279248   6.171   7.698   7.554 -0.5878  0.5191 -0.8046
25837SOL     OW79249   5.971   6.167   7.549  0.1387  0.5432 -0.5169
25837SOL    HW179250   6.057   6.126   7.553  0.4336  1.1206 -0.7594
25837SOL    HW279251   5.937   6.160   7.638  0.7432  0.9459 -0.2498
25838SOL     OW79252   6.260   5.993   6.071 -0.0730  0.0339  0.9040
25838SOL    HW179253   6.338   5.995   6.127  2.9847  2.4451 -2.9905
25838SOL    HW279254   6.292   6.013   5.983 -5.1107  0.9005 -1.0755
25839SOL     OW79255   2.245   1.343   0.250  0.0192  0.4768  0.0095
25839SOL    HW179256   2.213   1.418   0.199 -2.3092  1.3434  2.5130
25839SOL    HW279257   2.167   1.307   0.292  1.6232 -0.7623  2.1613
25840SOL     OW79258   5.258   6.953   1.184 -0.1214  0.1747  0.1297
25840SOL    HW179259   5.219   6.980   1.101  1.1962  1.1425 -0.2066
25840SOL    HW279260   5.183   6.935   1.241 -1.0898 -1.5459 -1.5393
25841SOL     OW79261   2.637   2.939   6.346 -0.0815  0.3047 -0.8583
25841SOL    HW179262   2.679   2.926   6.431 -0.3241 -0.9538 -0.9146
25841SOL    HW279263   2.680   3.017   6.310  2.3593 -0.9855 -0.9811
25842SOL     OW79264   5.095   5.148   9.397 -0.5934  0.7147 -0.1950
25842SOL    HW179265   5.025   5.092   9.431  0.2598  0.6901  1.6586
25842SOL    HW279266   5.166   5.087   9.376 -0.3420  0.9227  0.0409
25843SOL     OW79267   0.499   6.699   1.130  1.0842  0.2169 -0.4513
25843SOL    HW179268   0.547   6.618   1.117  2.2187  0.8440 -0.2945
25843SOL    HW279269   0.550   6.765   1.084  0.2844  0.8778 -0.4126
25844SOL     OW79270   2.653   1.810   3.863 -0.1857  0.2765 -0.2508
25844SOL    HW179271   2.568   1.799   3.819  0.5916 -2.7925 -1.2449
25844SOL    HW279272   2.716   1.820   3.792  0.5461  0.1911  0.3736
25845SOL     OW79273   5.558   2.851   4.192 -0.1397 -0.0831 -0.6624
25845SOL    HW179274   5.640   2.803   4.195 -0.3965 -0.5010  0.0549
25845SOL    HW279275   5.515   2.821   4.112  1.1526  1.4441 -1.9975
25846SOL     OW79276   7.080   5.001   9.153 -0.4100  0.6583  0.1680
25846SOL    HW179277   7.135   5.077   9.172 -0.3921  0.5624  0.5015
25846SOL    HW279278   7.129   4.926   9.189 -0.1399  0.4096 -0.6875
25847SOL     OW79279   7.097   3.941   9.578  0.0777  0.2587  0.0755
25847SOL    HW179280   7.137   3.960   9.663  0.7198  1.6017 -0.4852
25847SOL    HW279281   7.091   3.846   9.575  0.4079  0.1698  1.4545
25848SOL     OW79282   9.493   2.815   1.645 -0.4491 -0.1981 -0.3507
25848SOL    HW179283   9.424   2.764   1.687 -2.6832  1.6677 -1.5247
25848SOL    HW279284   9.574   2.768   1.667 -2.1714 -3.5367 -0.3845
25849SOL     OW79285   9.358   4.779   6.139 -0.2188 -0.2326 -0.2057
25849SOL    HW179286   9.428   4.761   6.076  1.3008  1.8121  0.7808
25849SOL    HW279287   9.378   4.866   6.173 -1.6524 -0.7505  2.2201
25850SOL     OW79288   7.686   7.297   5.869 -0.1876  0.0605 -0.0412
25850SOL    HW179289   7.695   7.386   5.904  1.7075  0.8951 -2.3578
25850SOL    HW279290   7.762   7.250   5.904 -0.2257 -0.1420 -0.2272
25851SOL     OW79291   7.267   8.171   3.899  1.1727  0.5730  0.1310
25851SOL    HW179292   7.182   8.164   3.855  0.7350 -0.2580  1.0868
25851SOL    HW279293   7.324   8.112   3.850  1.0548  0.7169 -0.1816
25852SOL     OW79294   0.232   3.916   2.529  0.3493  0.3808  0.0717
25852SOL    HW179295   0.143   3.894   2.559  0.5648 -0.0534  0.3917
25852SOL    HW279296   0.230   3.897   2.435 -0.1444  1.1658 -0.0880
25853SOL     OW79297   5.074   6.802   8.688  0.1499  0.5000  0.0327
25853SOL    HW179298   5.011   6.787   8.618 -0.1282  0.3367  0.3143
25853SOL    HW279299   5.070   6.896   8.704 -3.1858  0.0784  2.9197
25854SOL     OW79300   4.725   1.807   4.584  0.5565 -0.3875 -0.1749
25854SOL    HW179301   4.639   1.831   4.620  0.4231 -2.1269  0.8225
25854SOL    HW279302   4.743   1.872   4.517 -0.0754  1.9298  1.7670
25855SOL     OW79303   0.677   5.040   0.102 -0.1756  0.3308  0.0642
25855SOL    HW179304   0.706   5.017   0.190 -0.8558 -0.1536  0.1750
25855SOL    HW279305   0.640   5.128   0.110 -0.6975  0.0909  0.3813
25856SOL     OW79306   0.056   1.103   8.467 -0.7139 -0.0253 -0.4645
25856SOL    HW179307  -0.036   1.090   8.488 -0.9131  2.8981  0.9791
25856SOL    HW279308   0.094   1.139   8.547  1.7737 -1.3349 -0.9467
25857SOL     OW79309   5.891   1.753   7.670 -0.2227  0.1249  0.0957
25857SOL    HW179310   5.959   1.804   7.625  0.7184 -1.2512 -0.1177
25857SOL    HW279311   5.875   1.678   7.612 -1.2885 -0.0417  0.5787
25858SOL     OW79312   0.822   5.625   6.795 -0.1094  0.4267  0.4495
25858SOL    HW179313   0.864   5.595   6.876  0.2248 -1.6800 -0.4302
25858SOL    HW279314   0.889   5.676   6.750 -0.2890  1.5902  1.4562
25859SOL     OW79315   0.082   4.004   5.750  0.1815  0.8524  0.3308
25859SOL    HW179316  -0.001   3.965   5.723  1.2446 -0.2573 -1.5777
25859SOL    HW279317   0.087   4.086   5.701  1.4140 -0.4277 -1.8364
25860SOL     OW79318   0.537   9.370   3.790  0.2178 -0.2523 -0.0452
25860SOL    HW179319   0.527   9.407   3.877  0.0988  0.5166 -0.3783
25860SOL    HW279320   0.543   9.446   3.732  2.5006 -0.7025 -0.4777
25861SOL     OW79321   0.100   2.801   6.899 -0.1573 -0.1826  0.2595
25861SOL    HW179322   0.179   2.792   6.953 -0.7165 -0.4321  1.0503
25861SOL    HW279323   0.030   2.821   6.961 -0.6500  0.4357 -0.4785
25862SOL     OW79324   4.643   1.646   7.233  0.7525  0.2823 -0.1397
25862SOL    HW179325   4.704   1.620   7.163 -0.1991 -0.5387 -0.6792
25862SOL    HW279326   4.631   1.566   7.285 -2.6785 -0.7040 -2.1688
25863SOL     OW79327   1.703   7.179   6.504 -0.2718 -0.6837 -0.1125
25863SOL    HW179328   1.764   7.247   6.533 -0.9906 -0.6995  1.5549
25863SOL    HW279329   1.630   7.226   6.465 -0.5379 -0.5062  0.5855
25864SOL     OW79330   0.370   8.604   6.717 -1.1163  0.0771 -0.5687
25864SOL    HW179331   0.298   8.611   6.780 -0.7694  0.3268 -0.2009
25864SOL    HW279332   0.446   8.640   6.762 -1.3109  2.3025 -1.8661
25865SOL     OW79333   2.665   5.152   2.080 -0.3767  0.2884 -0.4024
25865SOL    HW179334   2.623   5.187   2.159 -0.0790 -0.8785  0.3016
25865SOL    HW279335   2.712   5.227   2.043 -0.7878  0.9364  0.3444
25866SOL     OW79336   0.102   0.218   7.800 -0.0153 -0.3349  0.6585
25866SOL    HW179337   0.160   0.292   7.816  0.7954 -0.9496  0.6453
25866SOL    HW279338   0.091   0.177   7.886  0.6788 -1.0048  0.4383
25867SOL     OW79339   8.712   7.230   2.371 -0.4025 -0.1340  0.4595
25867SOL    HW179340   8.675   7.202   2.455  0.7643  0.7077  1.2883
25867SOL    HW279341   8.795   7.272   2.395 -0.3886  0.7448 -1.0619
25868SOL     OW79342   2.719   4.854   9.349  0.0730  0.2601 -0.1594
25868SOL    HW179343   2.723   4.865   9.444 -1.6152 -0.3452  0.0089
25868SOL    HW279344   2.656   4.783   9.336 -0.5148  1.0393 -1.7746
25869SOL     OW79345   2.431   1.681   1.585  0.4715 -0.6069 -0.2763
25869SOL    HW179346   2.363   1.738   1.621  2.2769  0.8924  0.9454
25869SOL    HW279347   2.468   1.732   1.513 -0.5782 -2.0087 -1.8771
25870SOL     OW79348   6.094   2.756   0.750 -0.0780  0.1759  0.0995
25870SOL    HW179349   6.131   2.779   0.665 -0.2459 -0.0311 -0.0307
25870SOL    HW279350   6.169   2.721   0.799 -0.4253 -2.0632 -0.8224
25871SOL     OW79351   5.154   4.634   1.985 -0.1043 -0.2871  0.0608
25871SOL    HW179352   5.190   4.701   1.926 -0.5926 -0.1129 -0.0416
25871SOL    HW279353   5.092   4.681   2.040 -1.7608 -0.9298 -1.1539
25872SOL     OW79354   7.810   3.967   9.350  0.2357 -0.0953 -0.2212
25872SOL    HW179355   7.761   3.938   9.273  1.3457 -0.8476 -0.6738
25872SOL    HW279356   7.900   3.976   9.319  0.8738 -1.2498  1.1814
25873SOL     OW79357   6.390   0.983   0.771  0.4450 -0.1826 -0.0751
25873SOL    HW179358   6.482   0.963   0.785  0.3126 -1.2557 -0.6813
25873SOL    HW279359   6.371   0.950   0.683  0.0065  1.9335 -0.8495
25874SOL     OW79360   8.166   9.561   3.083 -0.0418  0.0632  0.3821
25874SOL    HW179361   8.084   9.514   3.065 -0.1749  0.2086  0.6112
25874SOL    HW279362   8.212   9.561   2.999 -0.0791 -0.4069  0.3589
25875SOL     OW79363   2.687   1.373   1.871  0.8862 -0.0017  0.2651
25875SOL    HW179364   2.645   1.408   1.793  1.2888  0.6533  0.3345
25875SOL    HW279365   2.693   1.447   1.931 -0.0001 -0.6514  1.1778
25876SOL     OW79366   5.280   5.172   8.615  0.2701 -0.5505  0.1642
25876SOL    HW179367   5.283   5.254   8.664  0.0201 -1.5701  1.9862
25876SOL    HW279368   5.358   5.175   8.559  0.4251  0.7953  0.4246
25877SOL     OW79369   9.518   4.445   9.529 -0.3506  0.6591  0.1029
25877SOL    HW179370   9.508   4.539   9.514 -0.6473  0.3634 -1.9128
25877SOL    HW279371   9.543   4.410   9.443 -1.6254 -1.2723  0.4451
25878SOL     OW79372   1.509   2.833   6.926  0.0481 -0.2654  0.0784
25878SOL    HW179373   1.562   2.907   6.895 -1.3297  0.2063 -1.3061
25878SOL    HW279374   1.472   2.864   7.009  1.9686 -0.6533  1.1338
25879SOL     OW79375   4.491   3.342   3.908 -0.2475 -0.3829 -0.3500
25879SOL    HW179376   4.413   3.380   3.867 -0.7158 -0.2134  0.6578
25879SOL    HW279377   4.456   3.279   3.971  0.4875 -1.5919 -1.1179
25880SOL     OW79378   8.275   9.034   7.158 -0.2074  0.2895 -0.4039
25880SOL    HW179379   8.367   9.028   7.132  0.1541 -0.6180  0.9355
25880SOL    HW279380   8.274   9.103   7.225 -0.5960  0.6168 -0.7400
25881SOL     OW79381   3.492   1.381   2.113 -0.6994 -0.1049 -0.3864
25881SOL    HW179382   3.427   1.422   2.055 -0.8954  3.1881  1.8798
25881SOL    HW279383   3.445   1.370   2.196  0.9286 -0.0036  0.5763
25882SOL     OW79384   5.546   6.647   6.286 -0.2769  0.3073 -0.2063
25882SOL    HW179385   5.599   6.579   6.330 -1.2276  0.9295  2.0320
25882SOL    HW279386   5.570   6.728   6.329 -2.1182  0.7914 -0.0035
25883SOL     OW79387   6.748   2.625   4.230  0.0759 -0.0311  0.2063
25883SOL    HW179388   6.721   2.537   4.255  3.2121 -0.9190  0.9974
25883SOL    HW279389   6.734   2.679   4.308 -2.5286  0.4453 -0.5029
25884SOL     OW79390   0.152   8.242   9.290 -0.3450 -0.1155 -0.0565
25884SOL    HW179391   0.190   8.165   9.333  0.3341  0.4705  0.4174
25884SOL    HW279392   0.225   8.304   9.283 -0.6757  0.1675 -1.2034
25885SOL     OW79393   1.325   2.805   0.026 -0.7404  0.1361 -0.7678
25885SOL    HW179394   1.253   2.843  -0.025  0.7666  1.7610 -1.8057
25885SOL    HW279395   1.377   2.881   0.055  0.1020 -0.9355  0.6858
25886SOL     OW79396   6.870   6.827   0.751 -0.2624  0.4581  0.1712
25886SOL    HW179397   6.929   6.837   0.677 -1.9085  0.7397 -1.1579
25886SOL    HW279398   6.928   6.820   0.827  1.4465  0.9586 -1.0300
25887SOL     OW79399   2.384   3.528   1.104  0.1960  0.0122 -0.4812
25887SOL    HW179400   2.416   3.446   1.067  0.7900 -0.4982  1.0914
25887SOL    HW279401   2.460   3.566   1.149 -0.1727  1.2301 -0.8453
25888SOL     OW79402   3.910   6.432   4.264  0.4726  0.7937 -0.9182
25888SOL    HW179403   3.966   6.507   4.244  0.1033  1.2736 -0.1851
25888SOL    HW279404   3.899   6.435   4.359  0.4389 -0.1849 -0.8839
25889SOL     OW79405   7.748   4.692   2.865  0.4993 -0.1966  0.5981
25889SOL    HW179406   7.673   4.641   2.834  0.4267 -0.5943  1.4121
25889SOL    HW279407   7.824   4.635   2.852  0.4306 -0.4909  1.4162
25890SOL     OW79408   8.180   1.568   9.272 -0.0828 -0.0046 -0.1009
25890SOL    HW179409   8.176   1.613   9.187  3.0421  0.2708 -0.2024
25890SOL    HW279410   8.153   1.478   9.253  0.0629  0.1873 -1.2969
25891SOL     OW79411   1.092   5.953   2.053 -0.0791  0.8831  0.1112
25891SOL    HW179412   1.045   5.919   1.977  0.4670  0.7465 -0.1750
25891SOL    HW279413   1.032   6.016   2.093 -0.8193  0.1044  0.2329
25892SOL     OW79414   8.782   0.394   0.642 -0.5690 -0.3479  0.0626
25892SOL    HW179415   8.823   0.393   0.729 -0.0020 -0.0490 -0.1934
25892SOL    HW279416   8.694   0.426   0.657 -0.5721 -0.5856  0.5719
25893SOL     OW79417   6.650   1.579   0.150  0.1424  0.0200 -0.1854
25893SOL    HW179418   6.664   1.544   0.062 -0.9157 -2.2486  0.4739
25893SOL    HW279419   6.556   1.574   0.163  0.1041  1.8828  0.5191
25894SOL     OW79420   0.982   3.571   5.667 -0.4711  0.3271 -0.1797
25894SOL    HW179421   0.912   3.637   5.664 -2.4887 -1.6230  1.0881
25894SOL    HW279422   0.997   3.556   5.760 -0.5040 -1.4356 -0.4371
25895SOL     OW79423   6.728   3.296   8.250  0.6347  0.6021 -0.5971
25895SOL    HW179424   6.821   3.280   8.264  0.2973 -0.6769  0.3925
25895SOL    HW279425   6.698   3.335   8.332 -0.4079 -2.4857  0.6446
25896SOL     OW79426   7.094   0.907   6.061 -0.1147  0.1119 -0.6167
25896SOL    HW179427   7.166   0.951   6.016 -0.2661  1.5817  0.4931
25896SOL    HW279428   7.130   0.823   6.088  0.6773  0.1722 -1.4442
25897SOL     OW79429   6.616   4.703   0.814  0.0628  0.5692 -0.1045
25897SOL    HW179430   6.604   4.701   0.720 -1.6937 -0.1587  0.1016
25897SOL    HW279431   6.659   4.787   0.832  1.2080  0.3376 -1.6000
25898SOL     OW79432   1.612   9.306   4.001  0.2820 -0.7840 -0.0828
25898SOL    HW179433   1.561   9.263   3.932  1.2486 -2.7423  0.3352
25898SOL    HW279434   1.550   9.363   4.046 -0.4268  0.3713 -2.3886
25899SOL     OW79435   7.887   8.851   8.789  0.5474 -0.1320 -0.1693
25899SOL    HW179436   7.847   8.770   8.819  0.4698 -0.4375 -1.0764
25899SOL    HW279437   7.879   8.911   8.864  1.3786 -1.2058  0.8143
25900SOL     OW79438   5.789   0.747   4.836  0.2333 -0.3930  0.1774
25900SOL    HW179439   5.723   0.687   4.872  0.2129 -0.3901  0.1444
25900SOL    HW279440   5.782   0.736   4.741  1.2347 -1.4158  0.2069
25901SOL     OW79441   1.188   2.890   3.826 -0.1241 -0.4110  0.2731
25901SOL    HW179442   1.190   2.931   3.913 -0.1948 -0.2604  0.2043
25901SOL    HW279443   1.145   2.955   3.770 -0.1366 -0.5344  0.1393
25902SOL     OW79444   3.643   7.900   3.612  0.5278  0.4083 -0.2796
25902SOL    HW179445   3.738   7.901   3.622  0.6650 -1.0909 -1.0388
25902SOL    HW279446   3.627   7.838   3.540 -1.0405  0.3506  0.0698
25903SOL     OW79447   7.531   0.766   6.777  0.3567  0.0406 -0.0322
25903SOL    HW179448   7.538   0.822   6.700  0.3807  0.8736  0.5620
25903SOL    HW279449   7.441   0.733   6.775  1.0096 -1.8638 -1.6846
25904SOL     OW79450   3.202   7.300   8.816 -0.2391 -0.0149  0.1383
25904SOL    HW179451   3.274   7.276   8.757 -0.0307 -0.0653  0.4113
25904SOL    HW279452   3.244   7.350   8.885 -0.6089  0.7841 -0.2039
25905SOL     OW79453   5.283   1.024   5.315 -0.0633  0.4140  0.3251
25905SOL    HW179454   5.199   1.070   5.316  0.0954  0.7206 -0.1626
25905SOL    HW279455   5.347   1.092   5.291  0.2891  0.1287  0.4501
25906SOL     OW79456   4.442   4.481   2.512 -0.3326  0.4423 -0.0291
25906SOL    HW179457   4.404   4.444   2.432  0.4514 -0.6845  0.0906
25906SOL    HW279458   4.508   4.543   2.482  0.8864 -0.9342 -0.3153
25907SOL     OW79459   7.693   3.111   8.514 -0.0473 -0.5964  0.3410
25907SOL    HW179460   7.640   3.031   8.517  0.0209 -0.7316 -1.1753
25907SOL    HW279461   7.657   3.166   8.584 -0.2080 -1.8679  1.3071
25908SOL     OW79462   7.329   5.492   5.759 -0.2125 -0.3428 -0.1322
25908SOL    HW179463   7.425   5.496   5.762 -0.2554  1.6573  0.2048
25908SOL    HW279464   7.308   5.508   5.667 -0.2353  0.0094 -0.0665
25909SOL     OW79465   3.107   2.610   3.037 -0.6642  0.1428  1.1348
25909SOL    HW179466   3.093   2.532   2.983  0.9373 -0.3189  1.3099
25909SOL    HW279467   3.019   2.641   3.058 -1.3349 -1.0367  0.2262
25910SOL     OW79468   5.801   1.102   2.193 -0.2542  0.3323  0.2222
25910SOL    HW179469   5.840   1.054   2.120  0.6429  0.3029  0.7126
25910SOL    HW279470   5.743   1.166   2.151 -0.7804 -0.5721 -0.4628
25911SOL     OW79471   4.812   0.800   2.244  0.0878  0.2188  0.5371
25911SOL    HW179472   4.771   0.771   2.163 -0.6174  0.4023  0.8252
25911SOL    HW279473   4.877   0.732   2.263 -0.1769 -0.1493  0.1557
25912SOL     OW79474   3.553   6.011   8.554  0.9932 -0.3548 -0.1662
25912SOL    HW179475   3.648   6.025   8.557  0.8203  0.8134  0.3957
25912SOL    HW279476   3.528   6.034   8.464  1.0999  0.3483 -0.0165
25913SOL     OW79477   7.524   6.775   8.249  0.1648  0.6971  0.2777
25913SOL    HW179478   7.447   6.780   8.306 -0.8730 -2.3677 -0.6457
25913SOL    HW279479   7.585   6.718   8.296  1.0480  1.4493  0.0782
25914SOL     OW79480   5.080   0.417   4.760 -0.1976  0.4250 -0.4969
25914SOL    HW179481   5.164   0.415   4.714 -0.5863 -1.4752 -1.2231
25914SOL    HW279482   5.079   0.337   4.812 -1.1185  0.9737  0.3675
25915SOL     OW79483   6.711   4.451   0.944 -0.4801  0.2842  0.4526
25915SOL    HW179484   6.784   4.444   1.005 -0.4408  0.3029  0.4085
25915SOL    HW279485   6.700   4.545   0.930 -2.2905  0.4678  2.5757
25916SOL     OW79486   3.046   4.381   8.656  0.3880 -0.0524 -0.0375
25916SOL    HW179487   3.124   4.366   8.603 -0.1943 -1.1968 -0.5974
25916SOL    HW279488   3.019   4.294   8.685  1.0911  0.5764  2.7743
25917SOL     OW79489   6.378   3.640   1.295  0.1473  0.4629  0.3715
25917SOL    HW179490   6.379   3.659   1.202  0.3324  1.0364  0.4888
25917SOL    HW279491   6.313   3.701   1.331  0.5676  0.7099  0.7150
25918SOL     OW79492   0.571   7.005   0.243  0.0397  0.3137  0.0281
25918SOL    HW179493   0.528   7.004   0.158  0.0765 -2.8259 -0.0813
25918SOL    HW279494   0.595   6.913   0.259  1.5069  1.0431  2.6914
25919SOL     OW79495   8.829   7.799   5.111 -0.7678  0.1056 -0.5737
25919SOL    HW179496   8.820   7.871   5.048 -2.2148 -0.4975 -1.1051
25919SOL    HW279497   8.870   7.839   5.187 -0.7932  1.3122 -1.1658
25920SOL     OW79498   5.677   8.268   7.879  0.0634  0.0233  0.0338
25920SOL    HW179499   5.759   8.231   7.912  1.8200  1.7332 -2.0997
25920SOL    HW279500   5.645   8.323   7.950  0.6883 -0.7455  0.9337
25921SOL     OW79501   5.006   1.414   8.839 -0.0838  0.2253  0.2066
25921SOL    HW179502   5.056   1.424   8.758  0.5486 -1.8664  0.2824
25921SOL    HW279503   4.922   1.456   8.821  0.6225  1.1985 -0.9599
25922SOL     OW79504   2.309   7.098   5.785  0.4397 -0.6044 -0.2107
25922SOL    HW179505   2.301   7.003   5.790  0.5563 -0.5783  0.7801
25922SOL    HW279506   2.293   7.128   5.875 -1.3668  0.4565 -0.8245
25923SOL     OW79507   9.181   4.737   1.580  0.2248 -0.3993 -0.4464
25923SOL    HW179508   9.256   4.689   1.545  0.5439  0.9690 -1.7607
25923SOL    HW279509   9.122   4.748   1.505 -1.1199 -1.0835  0.4667
25924SOL     OW79510   5.102   5.774   9.614 -0.1467 -0.5463  0.1710
25924SOL    HW179511   5.024   5.812   9.573  1.2760 -0.3859 -2.6452
25924SOL    HW279512   5.090   5.679   9.602 -0.8563 -0.6824  1.7056
25925SOL     OW79513   1.757   3.074   5.355 -0.3415  0.7647  0.7333
25925SOL    HW179514   1.751   2.984   5.385 -0.0060  0.7813  0.8566
25925SOL    HW279515   1.726   3.126   5.429  1.8305  0.8901  1.6290
25926SOL     OW79516   7.549   2.764   3.443  0.5080 -0.4135  1.0077
25926SOL    HW179517   7.509   2.779   3.357 -1.0871 -2.1622  1.3914
25926SOL    HW279518   7.640   2.739   3.423 -0.1527 -1.9248 -0.2779
25927SOL     OW79519   9.567   9.579   4.737  0.1287 -0.1114  0.1918
25927SOL    HW179520   9.547   9.581   4.643  1.0078  0.8646  0.0136
25927SOL    HW279521   9.547   9.667   4.768  0.1760 -0.3295  0.8599
25928SOL     OW79522   7.584   6.962   6.701  0.2490 -0.0904 -0.0664
25928SOL    HW179523   7.573   6.870   6.727  1.0812 -0.1239  0.1974
25928SOL    HW279524   7.642   6.958   6.625 -1.6464  0.0537 -1.5935
25929SOL     OW79525   5.005   1.515   0.692 -0.2277  0.4604  0.3461
25929SOL    HW179526   5.088   1.508   0.645 -0.1305 -2.3686  0.7706
25929SOL    HW279527   5.024   1.574   0.765  1.4733 -0.2505  0.5243
25930SOL     OW79528   3.211   1.462   7.023  0.0858 -0.3009 -0.0015
25930SOL    HW179529   3.266   1.396   7.065  0.0096  0.3907  1.2322
25930SOL    HW279530   3.121   1.432   7.039  0.0618 -0.7663 -0.9208
25931SOL     OW79531   0.178   3.248   1.059  0.5568  0.0154  0.4683
25931SOL    HW179532   0.171   3.225   0.966  2.5577  0.3844  0.1780
25931SOL    HW279533   0.198   3.342   1.058 -0.1395  0.1802  1.3153
25932SOL     OW79534   6.682   3.951   7.875 -0.5760 -0.5504  0.3842
25932SOL    HW179535   6.680   3.866   7.832 -1.0930 -0.6801  0.6585
25932SOL    HW279536   6.729   4.008   7.814 -0.3420 -1.0020  0.1456
25933SOL     OW79537   0.336   7.061   2.833  0.0529  0.0992  0.2245
25933SOL    HW179538   0.398   7.133   2.845 -1.2597  1.5542 -1.2331
25933SOL    HW279539   0.371   7.011   2.759  0.6213 -0.3939  0.8181
25934SOL     OW79540   4.883   4.872   0.392  0.5019  0.3421 -0.0326
25934SOL    HW179541   4.901   4.820   0.470  0.2997  0.5580  0.1576
25934SOL    HW279542   4.871   4.808   0.322  1.2786  0.1638 -0.0130
25935SOL     OW79543   4.972   0.036   0.009 -0.3636  0.6930  0.3212
25935SOL    HW179544   4.987   0.031  -0.086 -0.4837  1.0925  0.2815
25935SOL    HW279545   5.057   0.061   0.045 -0.3296  0.5865  0.3167
25936SOL     OW79546   7.352   8.830   1.664  0.3149  0.0207  0.5238
25936SOL    HW179547   7.396   8.774   1.599  0.4928  0.0012  0.6624
25936SOL    HW279548   7.264   8.792   1.672 -0.4146  1.1832 -1.1869
25937SOL     OW79549   8.114   4.617   2.542 -0.0670  0.0644  0.6052
25937SOL    HW179550   8.162   4.645   2.463 -0.0161 -2.2960 -0.2740
25937SOL    HW279551   8.024   4.605   2.512 -0.8015  2.3018  1.7328
25938SOL     OW79552   5.705   7.201   2.450 -0.2281  0.1991 -0.1973
25938SOL    HW179553   5.732   7.171   2.363  0.2744  1.4063 -0.4736
25938SOL    HW279554   5.775   7.261   2.477  1.3459 -2.5747  2.4543
25939SOL     OW79555   6.584   0.459   9.047  0.7574  0.8146  0.4208
25939SOL    HW179556   6.500   0.491   9.081  1.3721  0.7182  2.0865
25939SOL    HW279557   6.586   0.491   8.957 -1.0892  0.7737  0.3146
25940SOL     OW79558   9.333   6.497   6.293  0.2390  0.0960  0.0227
25940SOL    HW179559   9.332   6.515   6.199  0.2489  0.5215  0.1034
25940SOL    HW279560   9.419   6.529   6.322 -0.1599  0.8858  0.3545
25941SOL     OW79561   2.529   7.732   5.556  0.2244 -0.3873 -0.2678
25941SOL    HW179562   2.566   7.820   5.550  3.4009 -1.6503 -0.8533
25941SOL    HW279563   2.498   7.713   5.467 -2.3242  0.7546  0.2716
25942SOL     OW79564   8.414   3.540   5.538 -0.4433  0.1011 -0.0486
25942SOL    HW179565   8.443   3.631   5.545  0.5442 -0.2532  0.6906
25942SOL    HW279566   8.494   3.488   5.547 -0.9934 -0.8491 -0.4361
25943SOL     OW79567   0.230   5.961   6.299  0.0782 -0.4652  0.5033
25943SOL    HW179568   0.159   6.016   6.331  0.4752  0.4288 -0.1318
25943SOL    HW279569   0.191   5.874   6.289 -1.2253  0.2537 -0.9105
25944SOL     OW79570   9.324   0.865   1.011 -0.1215  0.2440 -0.5811
25944SOL    HW179571   9.278   0.905   1.084 -0.4875  1.5741 -1.5082
25944SOL    HW279572   9.255   0.820   0.961 -0.3895  1.8150 -1.6936
25945SOL     OW79573   4.297   6.436   7.607  0.2160  0.5488  0.1278
25945SOL    HW179574   4.230   6.431   7.539 -0.3773  3.3526  0.3633
25945SOL    HW279575   4.285   6.523   7.644  1.9311 -0.1017  2.3811
25946SOL     OW79576   1.738   5.796   6.596 -0.2570 -0.1141  0.6813
25946SOL    HW179577   1.757   5.791   6.689  0.8077 -1.9943  0.3984
25946SOL    HW279578   1.818   5.830   6.557 -0.3307 -0.3262  0.3440
25947SOL     OW79579   4.032   6.813   6.566 -0.5312  0.4132  0.2920
25947SOL    HW179580   4.076   6.896   6.547 -0.9282  0.3880 -0.7860
25947SOL    HW279581   3.956   6.838   6.619 -0.3087  0.6647  0.4939
25948SOL     OW79582   9.414   1.667   4.128 -0.5338 -0.3184 -0.6318
25948SOL    HW179583   9.376   1.732   4.187 -1.5634 -0.3384 -1.2417
25948SOL    HW279584   9.509   1.680   4.136 -0.6855  0.3624  0.2392
25949SOL     OW79585   2.264   0.248   0.958 -0.0432 -0.0709 -0.1432
25949SOL    HW179586   2.187   0.255   1.015  0.1685 -0.2622  0.1714
25949SOL    HW279587   2.338   0.252   1.018  0.4429  4.3793 -0.6837
25950SOL     OW79588   6.470   9.047   0.198  0.2494 -0.1646  0.4595
25950SOL    HW179589   6.528   9.002   0.260 -0.2944  0.8490  1.7276
25950SOL    HW279590   6.530   9.092   0.138  0.8009 -2.1340 -0.5639
25951SOL     OW79591   9.042   1.047   6.445 -0.3527  0.5545  0.0543
25951SOL    HW179592   9.023   1.102   6.368 -1.1385  1.0207  0.5692
25951SOL    HW279593   9.130   1.073   6.471  0.0646  0.1389 -0.8973
25952SOL     OW79594   6.584   4.125   6.423  0.5435 -0.7697 -0.3531
25952SOL    HW179595   6.677   4.109   6.435  0.4781 -1.6487 -0.9144
25952SOL    HW279596   6.561   4.077   6.343 -0.3930 -0.5817 -0.2160
25953SOL     OW79597   4.019   0.851   0.295 -0.3828 -0.1338  0.9039
25953SOL    HW179598   4.023   0.944   0.315  1.3058 -0.2388  1.2413
25953SOL    HW279599   3.979   0.847   0.208 -0.2189  0.9364  0.7641
25954SOL     OW79600   3.760   2.692   9.421 -0.0255  0.2561  0.1264
25954SOL    HW179601   3.817   2.712   9.495  0.5739  0.1235 -0.2944
25954SOL    HW279602   3.816   2.701   9.344 -0.7880  1.0207 -0.3705
25955SOL     OW79603   5.447   7.294   5.534 -0.2589  0.1722  0.0338
25955SOL    HW179604   5.372   7.348   5.509 -2.5560 -3.1032 -0.7174
25955SOL    HW279605   5.496   7.281   5.453  0.5739  1.3597  0.3063
25956SOL     OW79606   2.033   9.393   4.270  0.2750  0.1701 -0.2537
25956SOL    HW179607   2.110   9.336   4.281 -0.3968 -0.6967  0.0175
25956SOL    HW279608   1.969   9.338   4.226 -0.2072  0.8839 -0.4514
25957SOL     OW79609   7.189   3.485   2.549 -0.5017 -0.0680 -0.0986
25957SOL    HW179610   7.098   3.466   2.529  0.0163 -0.9826 -1.7675
25957SOL    HW279611   7.225   3.402   2.581 -0.3090  0.3687  0.8676
25958SOL     OW79612   2.861   1.704   2.993 -0.1165 -0.1148 -0.1792
25958SOL    HW179613   2.767   1.691   2.980 -0.0690 -1.9130  0.8210
25958SOL    HW279614   2.867   1.760   3.071 -0.3393  1.2489 -1.1193
25959SOL     OW79615   9.444   7.718   4.302  0.1378  0.0078  0.1861
25959SOL    HW179616   9.404   7.711   4.215  1.4273  1.9600 -0.6298
25959SOL    HW279617   9.406   7.798   4.339 -0.3754 -0.7872  1.4493
25960SOL     OW79618   5.403   4.887   8.726 -0.4079 -0.5633  0.4687
25960SOL    HW179619   5.356   4.971   8.723 -0.1143 -0.3928 -2.1596
25960SOL    HW279620   5.495   4.911   8.732 -0.3354 -0.6814 -0.1008
25961SOL     OW79621   4.202   0.062   9.096 -0.1718 -0.2904  0.1484
25961SOL    HW179622   4.190  -0.022   9.052 -0.7842 -0.1663  0.0531
25961SOL    HW279623   4.230   0.040   9.184  1.6701 -0.5302 -0.4636
25962SOL     OW79624   7.867   5.592   5.748 -0.2290  0.2193 -0.1201
25962SOL    HW179625   7.862   5.545   5.665 -0.4042 -1.1482  0.6359
25962SOL    HW279626   7.776   5.599   5.777 -0.0020 -1.9622  1.3495
25963SOL     OW79627   2.966   8.195   2.221  0.1336  0.3255 -0.7149
25963SOL    HW179628   2.960   8.281   2.262 -1.7846 -0.4834  0.8342
25963SOL    HW279629   2.909   8.202   2.144  2.2511  1.2518 -2.3111
25964SOL     OW79630   4.896   7.755   3.932 -0.1817 -0.2321  0.3049
25964SOL    HW179631   4.948   7.679   3.959 -0.8583 -1.0185 -0.5635
25964SOL    HW279632   4.942   7.789   3.856 -0.2900 -0.2298  0.2399
25965SOL     OW79633   2.728   4.641   4.905  0.5016  0.6023 -0.1477
25965SOL    HW179634   2.742   4.577   4.835  0.6595  1.4114 -0.8792
25965SOL    HW279635   2.760   4.723   4.868 -4.7887  2.4469 -1.4753
25966SOL     OW79636   7.291   7.699   3.174  0.3995 -0.0787 -0.2235
25966SOL    HW179637   7.314   7.778   3.126 -0.7049  0.4901  0.1636
25966SOL    HW279638   7.376   7.662   3.200  1.0296 -0.2774 -2.3541
25967SOL     OW79639   5.306   0.811   2.269  0.3678  0.1204 -0.1311
25967SOL    HW179640   5.392   0.811   2.228  0.2927 -2.4236 -0.4641
25967SOL    HW279641   5.249   0.765   2.207 -0.8863  0.4329  0.7307
25968SOL     OW79642   0.750   0.104   0.556 -0.3697 -0.2925 -0.3421
25968SOL    HW179643   0.803   0.028   0.580  1.8170  0.1285 -3.3348
25968SOL    HW279644   0.802   0.179   0.586 -0.2557  0.0730 -1.4136
25969SOL     OW79645   2.189   4.093   0.906  0.1063  0.1823 -0.3114
25969SOL    HW179646   2.209   4.187   0.907 -0.5397  0.3410  0.8127
25969SOL    HW279647   2.101   4.088   0.868 -0.1384  0.1206  0.2410
25970SOL     OW79648   8.213   9.123   8.844  0.1442  0.0075  0.0853
25970SOL    HW179649   8.221   9.029   8.862  2.7754 -0.2376 -1.7553
25970SOL    HW279650   8.260   9.165   8.915 -0.9332 -0.0405  0.8463
25971SOL     OW79651   5.778   8.556   0.571 -0.2741  0.3584  0.7581
25971SOL    HW179652   5.707   8.519   0.623 -1.6302 -0.0439 -1.2340
25971SOL    HW279653   5.774   8.508   0.488  2.6384  0.0442  0.7069
25972SOL     OW79654   6.022   1.558   0.595 -0.5871  0.3941  0.0566
25972SOL    HW179655   6.008   1.484   0.655  0.3600  0.0261 -0.1559
25972SOL    HW279656   6.033   1.516   0.509  1.9586  0.5845  0.2181
25973SOL     OW79657   1.113   4.485   8.921  0.1382  0.0927  0.0959
25973SOL    HW179658   1.048   4.501   8.989  1.8566  0.5557  1.7230
25973SOL    HW279659   1.157   4.569   8.909  0.9469 -0.3908 -0.4208
25974SOL     OW79660   0.510   0.690   5.779  0.6666  0.4466  0.4370
25974SOL    HW179661   0.452   0.672   5.853  0.1005  0.2504 -0.0440
25974SOL    HW279662   0.508   0.610   5.727  0.0904  0.9982 -0.4198
25975SOL     OW79663   6.729   9.201   4.634  0.7882  0.0295 -0.0437
25975SOL    HW179664   6.660   9.269   4.632  1.4133  0.7167  0.9213
25975SOL    HW279665   6.810   9.250   4.623  1.4158 -0.2764  2.7182
25976SOL     OW79666   0.762   1.981   1.178 -0.4929  0.0476 -0.0847
25976SOL    HW179667   0.745   1.886   1.182 -1.7833  0.1860 -1.3968
25976SOL    HW279668   0.802   2.001   1.262 -1.4210 -1.4530  0.7689
25977SOL     OW79669   3.060   3.354   3.695  0.4544  0.3714 -0.2286
25977SOL    HW179670   2.974   3.320   3.723  0.9111  0.4227  1.3632
25977SOL    HW279671   3.087   3.296   3.625 -0.7272  0.1316 -0.5115
25978SOL     OW79672   6.501   8.536   3.648 -0.2022 -0.1954  0.2331
25978SOL    HW179673   6.469   8.541   3.738  1.6195  1.1609  0.8729
25978SOL    HW279674   6.450   8.601   3.601  0.0489  0.3758  0.7285
25979SOL     OW79675   0.987   3.918   2.130  0.5087  0.6567  0.1908
25979SOL    HW179676   1.020   3.945   2.044 -1.0079  0.0798 -0.6210
25979SOL    HW279677   0.936   3.993   2.160 -0.9170  0.0073 -0.5247
25980SOL     OW79678   4.599   5.840   8.116  0.0916 -0.2326  0.2477
25980SOL    HW179679   4.594   5.859   8.022 -0.9961 -0.9065  0.1482
25980SOL    HW279680   4.588   5.925   8.159 -0.7334 -0.0833 -0.2299
25981SOL     OW79681   1.825   7.894   6.008  0.3645 -0.2001  0.1924
25981SOL    HW179682   1.747   7.944   5.985 -0.5479 -1.5349  0.2235
25981SOL    HW279683   1.807   7.806   5.975  2.5846 -0.1786 -1.2823
25982SOL     OW79684   5.537   0.295   4.702 -0.3260  0.3023  0.2851
25982SOL    HW179685   5.608   0.263   4.756  0.6312  0.4394 -0.8528
25982SOL    HW279686   5.488   0.217   4.677 -1.3977  0.3213  2.1177
25983SOL     OW79687   0.419   9.454   3.342 -0.1878  0.3079  0.3187
25983SOL    HW179688   0.387   9.527   3.395  1.5412  0.8379  0.6862
25983SOL    HW279689   0.505   9.433   3.379 -0.5737 -1.8513  0.1454
25984SOL     OW79690   1.609   5.905   7.969  0.1074  0.1983 -0.4007
25984SOL    HW179691   1.570   5.910   8.056 -0.2950  0.3357 -0.5902
25984SOL    HW279692   1.630   5.996   7.947 -1.0729  0.3293 -1.0323
25985SOL     OW79693   5.699   8.228   7.416 -0.0768 -0.3092  0.1739
25985SOL    HW179694   5.634   8.173   7.459 -2.0224  0.7882 -1.2232
25985SOL    HW279695   5.780   8.177   7.421 -0.9761 -1.6624  2.0929
25986SOL     OW79696   1.482   9.044   4.221  0.1635  0.2048 -0.4104
25986SOL    HW179697   1.466   9.006   4.135 -1.1610  1.6417 -0.8529
25986SOL    HW279698   1.407   9.016   4.274 -0.2512  1.2344 -0.4241
25987SOL     OW79699   0.624   4.533   5.578  0.5602 -0.6896 -0.3418
25987SOL    HW179700   0.597   4.540   5.486  0.1634 -1.4528 -0.2913
25987SOL    HW279701   0.609   4.441   5.600  1.7544 -0.7861  0.1492
25988SOL     OW79702   4.480   9.166   1.777 -0.0722  0.3859 -0.1495
25988SOL    HW179703   4.551   9.113   1.741 -1.5863 -1.2924 -0.7745
25988SOL    HW279704   4.506   9.256   1.759 -0.0445 -0.2543 -4.2574
25989SOL     OW79705   4.231   2.444   5.203  0.4117 -0.1426 -0.8222
25989SOL    HW179706   4.238   2.481   5.115 -0.9687 -0.9429 -1.3145
25989SOL    HW279707   4.309   2.391   5.214  0.2444 -0.6260 -1.8744
25990SOL     OW79708   3.516   5.256   2.628  0.0972 -0.4213 -0.0735
25990SOL    HW179709   3.592   5.220   2.674  0.0576 -1.1181 -0.5458
25990SOL    HW279710   3.479   5.320   2.690 -0.9233 -2.5022  1.6307
25991SOL     OW79711   9.153   9.255   6.052  0.1742 -0.2458 -0.6671
25991SOL    HW179712   9.066   9.291   6.038  0.6675  0.7424 -1.2861
25991SOL    HW279713   9.196   9.318   6.109  0.6831 -0.4173 -0.8549
25992SOL     OW79714   6.033   0.146   0.812  0.4051  0.1145  0.2764
25992SOL    HW179715   5.991   0.061   0.820  0.7395 -0.0349  0.4627
25992SOL    HW279716   5.963   0.209   0.832  0.1545 -0.1117  0.1227
25993SOL     OW79717   8.834   8.816   3.944  0.0278  0.3603 -0.3451
25993SOL    HW179718   8.902   8.840   3.882  0.1143  0.1763 -0.3219
25993SOL    HW279719   8.845   8.721   3.957 -1.7754 -0.1687 -2.2198
25994SOL     OW79720   7.798   1.576   3.167 -0.5433  0.2978 -0.0770
25994SOL    HW179721   7.794   1.671   3.172 -1.6946  0.3135 -0.9513
25994SOL    HW279722   7.863   1.558   3.099  0.3811  0.4254  0.7544
25995SOL     OW79723   3.145   1.325   1.693  0.1769  0.5502  0.2068
25995SOL    HW179724   3.063   1.282   1.720 -0.2442 -0.6110 -2.6235
25995SOL    HW279725   3.117   1.402   1.643  0.7274 -0.3427 -1.5544
25996SOL     OW79726   2.232   7.173   5.521 -0.1961  0.1613  0.5752
25996SOL    HW179727   2.243   7.176   5.616 -1.2654 -1.0704  0.7634
25996SOL    HW279728   2.279   7.094   5.494 -0.2083  0.3027  0.1274
25997SOL     OW79729   4.978   2.614   9.371 -0.1281  0.9831  0.6929
25997SOL    HW179730   5.069   2.619   9.343 -0.3400 -1.9544 -0.8956
25997SOL    HW279731   4.982   2.607   9.466  1.2519  1.4693  0.6957
25998SOL     OW79732   1.570   4.852   1.976  0.3850 -0.3294  0.7294
25998SOL    HW179733   1.478   4.877   1.981  0.5203 -0.0429  3.6940
25998SOL    HW279734   1.615   4.930   1.943 -0.0535  0.9089  2.8954
25999SOL     OW79735   1.917   9.128   0.154 -0.2340 -0.2516  0.1795
25999SOL    HW179736   2.004   9.128   0.195  1.1300  2.3383 -2.3489
25999SOL    HW279737   1.858   9.162   0.222  1.2336  0.4821  1.1429
26000SOL     OW79738   4.394   1.808   7.567  0.0611 -0.7751 -0.1935
26000SOL    HW179739   4.319   1.806   7.627  0.0813 -1.8153 -0.1996
26000SOL    HW279740   4.405   1.718   7.538  2.1512 -0.9269  0.8282
26001SOL     OW79741   7.803   4.146   2.517 -0.4455 -0.3124 -0.2804
26001SOL    HW179742   7.795   4.147   2.422 -2.2959  1.1754 -0.1850
26001SOL    HW279743   7.728   4.093   2.547 -0.0052 -0.5877  0.3495
26002SOL     OW79744   5.716   5.334   1.812  0.4272 -0.0289 -0.4610
26002SOL    HW179745   5.683   5.283   1.886  0.9975 -0.8508 -0.7689
26002SOL    HW279746   5.672   5.419   1.821  0.3370 -0.1801  0.7050
26003SOL     OW79747   4.491   7.774   5.597 -0.0880  0.2809 -0.4895
26003SOL    HW179748   4.435   7.829   5.652 -0.0651 -0.6772  0.5170
26003SOL    HW279749   4.573   7.823   5.589 -0.0640  0.3920  0.4068
26004SOL     OW79750   1.122   5.999   3.108 -0.6298 -0.2853 -0.2497
26004SOL    HW179751   1.045   6.016   3.163 -0.6982  2.0989 -0.9717
26004SOL    HW279752   1.092   6.016   3.019  0.8278  1.2052 -0.4968
26005SOL     OW79753   0.871   8.968   7.310  0.4963  0.1621  0.0181
26005SOL    HW179754   0.958   8.946   7.277  0.2270  0.2893 -0.8041
26005SOL    HW279755   0.815   8.967   7.232  0.4930  3.9247 -0.2215
26006SOL     OW79756   7.701   4.151   0.778 -0.0769 -0.1088 -0.1857
26006SOL    HW179757   7.708   4.079   0.716 -0.6178 -1.2508  1.0406
26006SOL    HW279758   7.779   4.144   0.832 -0.3948 -0.1056  0.2781
26007SOL     OW79759   0.907   3.323   6.572 -0.1153 -0.4698  0.2764
26007SOL    HW179760   0.914   3.385   6.644  0.4063  0.3404 -0.4544
26007SOL    HW279761   0.831   3.269   6.593 -1.6931  1.5484  0.0552
26008SOL     OW79762   3.089   8.801   8.414 -1.1594  0.7540  0.5115
26008SOL    HW179763   3.163   8.754   8.375 -0.4476  1.0186  1.5156
26008SOL    HW279764   3.019   8.736   8.418 -1.6006  0.9480 -2.0522
26009SOL     OW79765   3.534   4.798   4.619  0.4191  0.3790  0.8266
26009SOL    HW179766   3.492   4.741   4.554 -0.8246  1.5162  0.6029
26009SOL    HW279767   3.603   4.843   4.570 -0.5278  1.2476  0.2551
26010SOL     OW79768   2.034   4.731   5.531 -0.1679 -0.4164  0.4218
26010SOL    HW179769   2.012   4.703   5.442 -0.4033 -1.6428  0.8397
26010SOL    HW279770   2.127   4.713   5.540  0.1048  0.7266  0.0851
26011SOL     OW79771   9.580   5.319   3.764  0.3725 -0.4425  0.3773
26011SOL    HW179772   9.518   5.330   3.836 -1.2070 -0.6443 -0.8774
26011SOL    HW279773   9.587   5.224   3.753  2.2095 -0.4945  1.5187
26012SOL     OW79774   3.054   7.121   2.958 -0.5542  0.2427 -0.1548
26012SOL    HW179775   3.087   7.039   2.997 -2.6035 -0.3130  0.5525
26012SOL    HW279776   3.128   7.181   2.963  0.0735 -0.5903  2.3570
26013SOL     OW79777   3.814   4.716   5.349  0.7327 -0.4624 -0.0770
26013SOL    HW179778   3.721   4.718   5.326  0.3003  0.4387  1.6121
26013SOL    HW279779   3.858   4.749   5.270 -0.7515  3.3646  0.4662
26014SOL     OW79780   7.655   5.022   8.768 -0.1236  0.4035 -0.1044
26014SOL    HW179781   7.628   5.039   8.678  1.4879  0.0732 -0.6771
26014SOL    HW279782   7.654   4.927   8.776  1.9886  0.3084 -0.5382
26015SOL     OW79783   4.431   6.062   1.328 -0.7885  0.3708 -0.4069
26015SOL    HW179784   4.397   6.041   1.241  0.7876  1.4521 -1.3228
26015SOL    HW279785   4.414   6.155   1.338  0.5236  0.5992 -0.2516
26016SOL     OW79786   5.779   3.626   3.830  0.1930  0.1740  0.3069
26016SOL    HW179787   5.849   3.578   3.785  0.7637 -1.4656  2.7311
26016SOL    HW279788   5.700   3.577   3.808  0.0561  0.9105 -0.9211
26017SOL     OW79789   2.965   7.647   5.989 -0.2381  0.0120  0.1111
26017SOL    HW179790   2.938   7.625   5.900  2.4382 -2.0504 -0.3419
26017SOL    HW279791   3.049   7.692   5.978 -1.4956  2.9599  1.5380
26018SOL     OW79792   5.470   6.970   1.540  0.2218 -0.1647 -0.1981
26018SOL    HW179793   5.507   6.932   1.460  1.5215 -0.1744  0.3783
26018SOL    HW279794   5.389   7.012   1.512 -1.7149 -3.8621 -0.8269
26019SOL     OW79795   8.282   6.874   1.383  0.4593 -0.7969  0.1487
26019SOL    HW179796   8.356   6.815   1.397  1.3391  0.4641  1.1644
26019SOL    HW279797   8.320   6.948   1.336 -0.3695 -0.5522 -0.1466
26020SOL     OW79798   0.746   9.267   4.620  0.5785 -0.6764  0.4862
26020SOL    HW179799   0.731   9.322   4.543 -2.7342 -2.8161 -0.6065
26020SOL    HW279800   0.699   9.311   4.691  2.2865  0.4556  0.9816
26021SOL     OW79801   5.249   7.115   0.773 -0.3064  0.2713  0.3073
26021SOL    HW179802   5.260   7.121   0.679 -0.8710 -0.7042  0.1692
26021SOL    HW279803   5.261   7.022   0.793  0.1783  0.5213  1.2453
26022SOL     OW79804   3.052   5.018   3.229  0.0012 -0.0675 -0.4298
26022SOL    HW179805   2.987   5.053   3.290  0.3423 -1.1238  0.5543
26022SOL    HW279806   3.013   5.034   3.142 -0.2182  2.0052 -0.0139
26023SOL     OW79807   7.615   8.989   4.374 -0.1704  0.0359  0.0946
26023SOL    HW179808   7.521   8.982   4.360 -0.3050  0.0427  0.9327
26023SOL    HW279809   7.654   8.975   4.288 -0.9842  1.2182 -0.4807
26024SOL     OW79810   7.986   0.571   7.512  0.1611 -0.6367  0.3145
26024SOL    HW179811   7.964   0.623   7.589  0.2589 -1.9346  1.2512
26024SOL    HW279812   7.932   0.608   7.442  1.2977  1.6420  0.5721
26025SOL     OW79813   3.561   7.290   9.534 -0.0169 -0.3942 -0.0709
26025SOL    HW179814   3.642   7.338   9.544 -0.0760 -0.6355  1.8957
26025SOL    HW279815   3.492   7.355   9.545 -0.1054 -0.4326 -0.3715
26026SOL     OW79816   5.495   9.316   3.099 -0.3020  0.6544 -0.1733
26026SOL    HW179817   5.537   9.235   3.073 -1.5192  0.5947 -2.1150
26026SOL    HW279818   5.564   9.382   3.095  0.3876 -0.0408  0.1569
26027SOL     OW79819   2.785   3.086   4.810 -0.2721  0.1730  0.0026
26027SOL    HW179820   2.875   3.062   4.791 -0.2296 -0.6404  1.1113
26027SOL    HW279821   2.759   3.026   4.881 -2.3655 -1.0463 -1.6738
26028SOL     OW79822   6.808   8.784   6.778 -0.0053  0.2439  0.2763
26028SOL    HW179823   6.850   8.870   6.783  0.3129  0.1528 -0.6769
26028SOL    HW279824   6.790   8.760   6.869  0.1057  1.2179  0.5574
26029SOL     OW79825   5.383   4.082   0.679 -0.3910 -0.3787 -0.8312
26029SOL    HW179826   5.414   4.005   0.725  0.9448  0.4775 -0.2386
26029SOL    HW279827   5.384   4.057   0.586 -1.0829 -1.4292 -0.5702
26030SOL     OW79828   7.202   4.483   0.811  0.0913  0.3151 -0.2461
26030SOL    HW179829   7.199   4.491   0.907  0.7224  0.9598 -0.2804
26030SOL    HW279830   7.115   4.510   0.782 -1.0557 -2.4243  0.3068
26031SOL     OW79831   1.754   0.415   2.424  0.4595  0.1170 -0.2264
26031SOL    HW179832   1.846   0.423   2.395  0.8076  0.0918  0.8480
26031SOL    HW279833   1.706   0.472   2.364  1.0909 -0.3045 -1.1702
26032SOL     OW79834   8.538   1.515   6.783  0.0533 -0.2712  0.4050
26032SOL    HW179835   8.511   1.489   6.694  2.4286  0.2362 -0.5379
26032SOL    HW279836   8.602   1.448   6.808 -1.3243 -0.9870  2.2135
26033SOL     OW79837   5.961   2.573   5.687 -0.6499 -0.1472  0.5387
26033SOL    HW179838   5.934   2.506   5.748 -0.8753 -0.0889  0.5032
26033SOL    HW279839   5.880   2.605   5.648 -0.4431 -0.9985 -0.6512
26034SOL     OW79840   8.649   3.464   5.306  0.4474  0.0149 -0.2644
26034SOL    HW179841   8.721   3.525   5.288 -0.1750  1.2464  1.1719
26034SOL    HW279842   8.574   3.500   5.258 -0.1316  0.8899  1.2495
26035SOL     OW79843   1.991   8.693   0.050  0.1059  0.8448 -0.1673
26035SOL    HW179844   1.912   8.663   0.097  0.8126 -0.0944  0.4648
26035SOL    HW279845   2.035   8.750   0.113  1.5983 -1.2454  0.7973
26036SOL     OW79846   1.128   3.960   9.477 -0.4369  0.8936 -0.8869
26036SOL    HW179847   1.205   4.015   9.491  1.2634 -1.3263 -1.0568
26036SOL    HW279848   1.066   4.018   9.432  0.1318  3.4396  1.3059
26037SOL     OW79849   0.211   4.402   2.055  0.2733  0.0852  0.2678
26037SOL    HW179850   0.181   4.480   2.007 -1.0345 -0.0056  0.9056
26037SOL    HW279851   0.304   4.420   2.073  0.1402  1.2371 -0.0910
26038SOL     OW79852   6.244   9.156   6.127 -0.3388 -0.4595  0.2199
26038SOL    HW179853   6.289   9.189   6.205 -0.7449 -2.7582  1.5085
26038SOL    HW279854   6.264   9.221   6.059  0.4369  1.3623  2.0823
26039SOL     OW79855   9.025   2.107   6.892  0.0232 -0.2598 -0.0047
26039SOL    HW179856   8.940   2.133   6.856 -0.5190 -1.2969  0.4833
26039SOL    HW279857   9.005   2.076   6.981  0.7227 -1.6418 -0.3045
26040SOL     OW79858   1.002   6.483   4.798  0.1621  0.2091  0.5058
26040SOL    HW179859   0.942   6.410   4.813  1.5374 -2.0387 -3.3917
26040SOL    HW279860   0.949   6.549   4.753 -0.3868  0.2054  1.1430
26041SOL     OW79861   8.074   5.939   8.481  0.1376 -0.4324 -0.2202
26041SOL    HW179862   8.129   5.872   8.522 -0.2681 -0.0308  1.0473
26041SOL    HW279863   8.125   5.970   8.407  1.3176 -0.5702  0.5033
26042SOL     OW79864   9.022   4.369   9.287  0.2837 -0.0057 -0.0361
26042SOL    HW179865   9.034   4.290   9.339 -1.7090  0.7638  1.7676
26042SOL    HW279866   9.059   4.439   9.341 -2.5261  0.9153  0.9023
26043SOL     OW79867   0.077   5.168   9.576 -0.0822 -0.1383  0.0188
26043SOL    HW179868   0.046   5.144   9.489  1.4694  1.7069 -1.1120
26043SOL    HW279869   0.148   5.107   9.594 -2.5622 -2.8446  1.6289
26044SOL     OW79870   5.849   0.268   7.789  0.2416 -0.4170 -0.0736
26044SOL    HW179871   5.845   0.354   7.746  0.4171 -0.4282 -0.1151
26044SOL    HW279872   5.831   0.287   7.881 -1.1266 -0.5258 -0.2976
26045SOL     OW79873   5.428   6.916   3.564 -0.4775 -0.2671 -0.1229
26045SOL    HW179874   5.410   6.950   3.477  2.2402  0.6610 -0.4187
26045SOL    HW279875   5.342   6.892   3.599 -1.7357  0.2027 -2.6676
26046SOL     OW79876   9.604   8.639   7.061 -0.9776 -0.0477 -0.1740
26046SOL    HW179877   9.689   8.641   7.105 -0.6093 -1.2774 -0.7989
26046SOL    HW279878   9.542   8.669   7.128 -0.2522 -0.6328  0.7880
26047SOL     OW79879   7.010   5.834   8.923 -0.0922 -0.9285  0.2820
26047SOL    HW179880   7.033   5.742   8.918  0.6088 -0.7277 -0.4856
26047SOL    HW279881   6.918   5.837   8.899  0.2175 -1.2977 -1.0012
26048SOL     OW79882   8.351   9.438   2.282  0.1740  0.1441 -0.3916
26048SOL    HW179883   8.445   9.454   2.290  0.2014  0.1687 -0.7459
26048SOL    HW279884   8.345   9.359   2.229 -0.0233  0.5101 -0.9139
26049SOL     OW79885   1.156   1.405   0.666 -0.3862 -0.2613  0.2365
26049SOL    HW179886   1.232   1.361   0.629 -0.1008 -1.3611  1.9936
26049SOL    HW279887   1.150   1.488   0.618  0.5488 -1.1271 -1.4591
26050SOL     OW79888   6.226   3.833   1.409  0.0727 -0.1105 -0.6993
26050SOL    HW179889   6.151   3.868   1.456  0.4932  0.7584 -0.6588
26050SOL    HW279890   6.249   3.901   1.346  1.6340  0.2302  0.1764
26051SOL     OW79891   3.835   2.382   0.010  0.5174  1.0540 -0.2776
26051SOL    HW179892   3.905   2.340   0.060  0.2416 -0.0105 -0.7586
26051SOL    HW279893   3.871   2.468  -0.012  0.7291  1.4760  1.5371
26052SOL     OW79894   7.455   3.748   6.891  0.4354  0.0835 -0.3529
26052SOL    HW179895   7.547   3.765   6.870  1.0526 -0.8731  1.3585
26052SOL    HW279896   7.418   3.834   6.912  1.0489  0.4201 -0.6350
26053SOL     OW79897   8.353   0.262   9.193 -0.5601 -0.0449 -0.3098
26053SOL    HW179898   8.438   0.228   9.166 -0.0095  0.2104  1.0221
26053SOL    HW279899   8.299   0.259   9.114  1.3132  1.7963 -1.7703
26054SOL     OW79900   3.072   8.290   9.606 -0.2132  0.3468  0.0727
26054SOL    HW179901   2.986   8.272   9.566 -0.3108 -0.2134  0.5210
26054SOL    HW279902   3.128   8.311   9.532 -0.5437 -0.0837 -0.3115
26055SOL     OW79903   2.728   3.180   5.331 -0.3333  0.4665 -0.8862
26055SOL    HW179904   2.748   3.262   5.287  1.9833  0.8866  0.7285
26055SOL    HW279905   2.814   3.145   5.356 -1.4073 -0.6331  1.5970
26056SOL     OW79906   2.932   5.728   4.991  0.2795  0.4461 -0.2321
26056SOL    HW179907   3.003   5.789   5.009 -0.4781  0.8154  1.7459
26056SOL    HW279908   2.855   5.784   4.981  0.0812 -0.0113 -1.3641
26057SOL     OW79909   4.653   2.965   4.237 -0.7128 -0.2206  0.0391
26057SOL    HW179910   4.699   3.026   4.295  2.1122 -1.9797 -0.1376
26057SOL    HW279911   4.572   2.945   4.282 -0.7180  1.9364  1.1279
26058SOL     OW79912   6.666   5.316   3.627 -0.0610 -0.1813  0.1946
26058SOL    HW179913   6.611   5.308   3.704 -0.0783 -1.1682  0.0904
26058SOL    HW279914   6.646   5.238   3.575  0.4792  0.1078 -0.4594
26059SOL     OW79915   5.327   4.734   3.632 -0.0400 -0.2701  0.1968
26059SOL    HW179916   5.235   4.759   3.622 -0.1625 -0.2432  1.3008
26059SOL    HW279917   5.331   4.645   3.595 -0.3229  0.0310 -0.5879
26060SOL     OW79918   3.215   3.701   7.565  0.2069 -0.6223  0.1437
26060SOL    HW179919   3.150   3.727   7.500  0.2444 -1.0307 -0.0598
26060SOL    HW279920   3.248   3.783   7.600  0.9471 -0.3700 -1.1052
26061SOL     OW79921   9.354   7.697   5.567 -0.5209  0.1126 -0.0575
26061SOL    HW179922   9.366   7.781   5.522  0.1541  0.0139 -0.0757
26061SOL    HW279923   9.295   7.648   5.510  0.5201 -0.1053 -0.9969
26062SOL     OW79924   3.402   5.805   8.307  0.1734  0.1904  0.6373
26062SOL    HW179925   3.468   5.824   8.240  0.2982 -0.1874  0.6505
26062SOL    HW279926   3.453   5.780   8.384  0.1138  2.6438  1.5486
26063SOL     OW79927   7.769   5.092   3.804  0.0900  0.0545  0.2749
26063SOL    HW179928   7.836   5.030   3.832  0.2105  0.6165  1.2567
26063SOL    HW279929   7.691   5.068   3.853 -0.2034 -0.0575 -0.2317
26064SOL     OW79930   4.748   2.127   7.727  0.0686 -0.4367 -0.5967
26064SOL    HW179931   4.679   2.182   7.690  0.7188  0.0450 -1.1338
26064SOL    HW279932   4.728   2.039   7.696 -0.2754 -0.2913 -0.7960
26065SOL     OW79933   8.114   3.479   7.115 -0.0759 -0.2945 -0.2465
26065SOL    HW179934   8.148   3.390   7.111 -0.6419 -0.5830  0.9615
26065SOL    HW279935   8.093   3.501   7.024  1.3725 -0.8608 -0.7372
26066SOL     OW79936   5.330   0.405   7.000 -0.4178  0.2814  0.2804
26066SOL    HW179937   5.352   0.460   7.075  2.1769  1.5179 -1.2621
26066SOL    HW279938   5.384   0.327   7.010  0.2727  0.6435 -0.4706
26067SOL     OW79939   3.790   7.853   6.863 -0.6632  0.1407  0.2074
26067SOL    HW179940   3.748   7.860   6.949  0.2286 -0.9217  0.7587
26067SOL    HW279941   3.752   7.775   6.824 -0.4495  0.1427 -0.0045
26068SOL     OW79942   9.428   7.873   5.318 -0.4900  0.1250 -0.4427
26068SOL    HW179943   9.483   7.800   5.290 -1.5554 -1.4855  1.3852
26068SOL    HW279944   9.490   7.942   5.341  0.5558 -0.2821 -1.9135
26069SOL     OW79945   1.113   5.349   1.236 -0.4183 -0.0147 -0.2917
26069SOL    HW179946   1.041   5.286   1.241 -2.4434  2.0578 -1.4841
26069SOL    HW279947   1.113   5.378   1.145  2.4454 -0.4268 -0.5069
26070SOL     OW79948   0.717   6.826   7.673 -0.2361 -0.2092  0.8443
26070SOL    HW179949   0.807   6.802   7.693 -0.8597 -2.3442  1.3553
26070SOL    HW279950   0.712   6.920   7.692  1.4771 -0.3674  2.3277
26071SOL     OW79951   8.636   2.278   1.480  0.0955  0.0794  0.3496
26071SOL    HW179952   8.541   2.279   1.478  0.0361 -1.2193  1.1661
26071SOL    HW279953   8.659   2.305   1.569  0.5967  2.4314 -0.4307
26072SOL     OW79954   6.326   8.914   3.240  0.1942 -0.4811 -0.0869
26072SOL    HW179955   6.390   8.947   3.177  1.2721  0.1028  1.2629
26072SOL    HW279956   6.321   8.982   3.307 -1.1095 -0.9697  0.3444
26073SOL     OW79957   2.853   8.822   8.969  0.3579 -0.1250  0.5596
26073SOL    HW179958   2.788   8.811   8.901  0.2075  2.9661  0.0690
26073SOL    HW279959   2.933   8.847   8.922  0.9326 -0.3654  1.3841
26074SOL     OW79960   2.868   1.707   4.288  0.1850  0.1432 -0.5624
26074SOL    HW179961   2.961   1.685   4.295 -0.1221 -0.8609  0.6156
26074SOL    HW279962   2.858   1.786   4.342  0.6631  1.3318 -2.1403
26075SOL     OW79963   9.548   1.657   8.858  0.8011  0.7074 -0.1243
26075SOL    HW179964   9.616   1.710   8.901  1.0343  1.0708 -0.9167
26075SOL    HW279965   9.518   1.712   8.786 -0.0926  0.3984  0.0079
26076SOL     OW79966   3.038   4.972   7.080  0.3896 -0.1243 -0.3740
26076SOL    HW179967   2.964   4.921   7.114  0.9607  0.0675  1.2289
26076SOL    HW279968   2.997   5.034   7.019 -0.7468 -0.1705  0.3055
26077SOL     OW79969   7.695   7.737   0.832 -0.6095  0.4728 -0.4222
26077SOL    HW179970   7.637   7.685   0.776  1.3282 -1.0094 -1.1560
26077SOL    HW279971   7.706   7.685   0.911 -0.0667  0.5933 -0.4154
26078SOL     OW79972   3.576   4.938   7.413  0.0212  0.2063 -0.4698
26078SOL    HW179973   3.606   5.004   7.475  0.8273 -0.8026  0.2500
26078SOL    HW279974   3.555   4.987   7.333 -3.1672  1.8965  1.1818
26079SOL     OW79975   2.135   3.124   2.990  0.1480 -0.4637 -0.4295
26079SOL    HW179976   2.139   3.186   2.917  1.1131  1.3306  1.0440
26079SOL    HW279977   2.090   3.047   2.955  1.1380  0.0686 -3.0669
26080SOL     OW79978   9.150   9.465   8.990 -0.2003 -0.8751  0.4315
26080SOL    HW179979   9.232   9.497   9.028 -1.3766  3.0832  0.0589
26080SOL    HW279980   9.149   9.500   8.901 -2.9135  0.5817  0.9208
26081SOL     OW79981   4.181   2.100   8.331  0.4297 -0.5595 -0.1925
26081SOL    HW179982   4.101   2.117   8.381  0.5514 -1.1468  0.2132
26081SOL    HW279983   4.168   2.147   8.249 -0.7587 -1.3870 -0.5131
26082SOL     OW79984   3.513   8.558   6.138 -0.3910  0.1231 -0.1087
26082SOL    HW179985   3.436   8.527   6.185  0.0014  0.0312  0.4756
26082SOL    HW279986   3.579   8.572   6.206 -0.2004  1.1482 -0.4830
26083SOL     OW79987   2.130   4.901   6.353 -0.0302  0.6546  0.5607
26083SOL    HW179988   2.144   4.832   6.418  0.6794  1.4900  1.3351
26083SOL    HW279989   2.215   4.946   6.349  0.1298  0.2394 -1.4280
26084SOL     OW79990   0.175   6.254   7.705 -0.2265 -0.1561  0.2452
26084SOL    HW179991   0.261   6.232   7.670  0.1075  1.3608  0.0527
26084SOL    HW279992   0.190   6.333   7.757 -1.7789  1.1112 -1.1422
26085SOL     OW79993   7.971   5.243   2.046  0.5550 -0.2516 -0.4487
26085SOL    HW179994   7.928   5.205   1.969  1.4544 -0.8870 -0.6534
26085SOL    HW279995   7.955   5.181   2.117 -0.7266  0.5953  0.0234
26086SOL     OW79996   1.655   3.875   6.502  0.3603 -0.2984  0.3181
26086SOL    HW179997   1.565   3.887   6.534  0.7280 -0.7602  1.5599
26086SOL    HW279998   1.700   3.956   6.528  0.2935 -0.0316 -0.3763
26087SOL     OW79999   1.687   6.146   2.247 -0.9071  0.0651  0.1004
26087SOL    HW180000   1.704   6.237   2.225 -0.3483 -0.2776 -0.9932
26087SOL    HW280001   1.619   6.149   2.314 -0.9488  1.2737  0.0209
26088SOL     OW80002   5.509   8.904   0.974  0.7529  0.4531 -0.1385
26088SOL    HW180003   5.529   8.821   1.018 -0.4159  1.0219  1.5640
26088SOL    HW280004   5.414   8.906   0.970  0.8044  1.3091 -0.9828
26089SOL     OW80005   0.741   9.288   6.967 -0.1639 -0.3896  0.0136
26089SOL    HW180006   0.820   9.291   6.913  1.2771  0.1580  2.0466
26089SOL    HW280007   0.729   9.378   6.996 -0.9200 -0.6701  0.6019
26090SOL     OW80008   6.160   2.993   7.187  0.0028 -0.1302 -0.7266
26090SOL    HW180009   6.202   2.941   7.118 -1.5761  0.3920 -2.1322
26090SOL    HW280010   6.141   2.929   7.256  1.1580 -0.7530 -0.9513
26091SOL     OW80011   6.216   0.436   2.140  0.3511  0.0068 -0.1166
26091SOL    HW180012   6.128   0.423   2.174  0.1664  3.2444  1.0089
26091SOL    HW280013   6.268   0.366   2.180 -1.0696  0.0236  1.9364
26092SOL     OW80014   1.830   0.086   1.118  0.1800  0.8605 -0.3728
26092SOL    HW180015   1.793   0.066   1.031  1.2476  0.4362 -0.7424
26092SOL    HW280016   1.754   0.108   1.171 -0.4648  1.5035 -1.5172
26093SOL     OW80017   0.151   8.832   6.672  0.6348  0.3955 -0.0043
26093SOL    HW180018   0.100   8.754   6.694  0.3307 -0.1662 -2.4059
26093SOL    HW280019   0.154   8.883   6.753 -2.2084 -0.4008  0.6916
26094SOL     OW80020   1.666   4.127   1.747 -0.1355 -0.1612 -0.2546
26094SOL    HW180021   1.632   4.209   1.710  2.2869  0.8932 -0.3583
26094SOL    HW280022   1.618   4.115   1.828 -2.9246 -0.4995 -1.8415
26095SOL     OW80023   0.103   2.928   2.320 -0.3002  0.0131  0.0037
26095SOL    HW180024   0.126   2.840   2.351 -0.0253  0.3709  0.8607
26095SOL    HW280025   0.155   2.986   2.375 -1.9742  0.7995  0.8099
26096SOL     OW80026   8.644   3.369   6.775 -0.1546 -0.1729  0.0373
26096SOL    HW180027   8.614   3.300   6.716  0.0714 -0.4832  0.2810
26096SOL    HW280028   8.629   3.450   6.727  0.3162 -0.4384 -0.5795
26097SOL     OW80029   2.198   5.071   4.256  0.3328 -0.2038 -0.0946
26097SOL    HW180030   2.182   5.165   4.270 -0.3154 -0.2719 -0.3029
26097SOL    HW280031   2.167   5.055   4.166 -0.1544 -0.7384  0.1620
26098SOL     OW80032   4.791   6.231   6.177  0.2948  0.8866  0.2049
26098SOL    HW180033   4.750   6.318   6.171  3.1555  2.2410 -2.5993
26098SOL    HW280034   4.854   6.241   6.248  0.9493  1.2824 -0.4237
26099SOL     OW80035   5.441   2.518   3.358 -0.4715 -0.4460  0.6755
26099SOL    HW180036   5.500   2.446   3.336 -1.4043 -0.5589 -1.7136
26099SOL    HW280037   5.491   2.597   3.337 -0.5827 -0.5025  0.1802
26100SOL     OW80038   7.932   7.944   6.904  0.1009 -0.2541  0.3646
26100SOL    HW180039   7.933   7.962   6.810 -0.4804 -1.8310  0.0404
26100SOL    HW280040   7.954   8.029   6.944 -4.6889  1.9739 -0.9580
26101SOL     OW80041   0.933   0.237   7.984 -0.1284 -0.1016  0.4309
26101SOL    HW180042   0.994   0.194   8.044  0.5381  0.6624  0.3196
26101SOL    HW280043   0.847   0.208   8.013  0.2228 -0.2776  1.3422
26102SOL     OW80044   1.212   4.198   9.244 -0.1582 -0.5652 -0.0091
26102SOL    HW180045   1.174   4.178   9.159  0.3142 -1.6542  0.0227
26102SOL    HW280046   1.265   4.121   9.266  1.1608  0.4374  0.4657
26103SOL     OW80047   2.141   8.939   9.120  0.2662 -0.6793  0.3438
26103SOL    HW180048   2.075   8.893   9.068  0.9542 -0.1269 -1.0700
26103SOL    HW280049   2.211   8.958   9.058  1.2493 -0.2314  1.5566
26104SOL     OW80050   8.098   8.984   0.954  0.1313 -0.0403 -0.0243
26104SOL    HW180051   8.117   8.906   1.006 -0.2145 -0.7567 -0.9541
26104SOL    HW280052   8.159   9.050   0.986 -0.0746 -0.4619  1.2913
26105SOL     OW80053   8.068   7.547   2.441  0.1924 -0.2445  0.6038
26105SOL    HW180054   8.052   7.641   2.455  0.8047  0.1049 -0.8604
26105SOL    HW280055   7.989   7.504   2.472 -0.5831  0.8658  0.2086
26106SOL     OW80056   9.412   1.414   8.678 -0.0335 -0.0613 -0.2761
26106SOL    HW180057   9.345   1.441   8.616 -0.7318  1.6271  1.1314
26106SOL    HW280058   9.485   1.473   8.662  0.2332 -0.3914 -0.2760
26107SOL     OW80059   7.457   5.666   1.742 -0.6400 -0.0536 -0.1440
26107SOL    HW180060   7.409   5.621   1.812 -0.9912 -1.4123 -1.2143
26107SOL    HW280061   7.496   5.742   1.785 -1.4162 -0.4667  1.3734
26108SOL     OW80062   4.999   7.508   0.550  0.0105  1.2876  0.0071
26108SOL    HW180063   5.028   7.473   0.634  0.4139  1.0478 -0.2266
26108SOL    HW280064   5.046   7.455   0.485  0.8796  2.4596 -0.3503
26109SOL     OW80065   5.737   9.144   3.358  0.3622  0.7425  0.3271
26109SOL    HW180066   5.693   9.061   3.340  0.1779  1.0337 -0.5788
26109SOL    HW280067   5.691   9.179   3.434  0.1808  0.2069  0.4686
26110SOL     OW80068   5.832   4.988   0.535 -0.5634 -0.5832  0.2391
26110SOL    HW180069   5.881   5.058   0.493  0.7269 -1.7671 -0.3245
26110SOL    HW280070   5.740   5.012   0.523 -0.1710  1.4681  0.9310
26111SOL     OW80071   5.752   3.246   8.717  0.0433  0.0957  0.5340
26111SOL    HW180072   5.727   3.316   8.657  0.3591  0.2295  0.5582
26111SOL    HW280073   5.692   3.174   8.696  0.8227 -0.2230 -0.6567
26112SOL     OW80074   6.583   2.141   7.279 -0.1120 -0.3967  0.2738
26112SOL    HW180075   6.660   2.133   7.224  0.4104  1.7030  0.6141
26112SOL    HW280076   6.616   2.136   7.369 -0.0222  2.2526  0.4750
26113SOL     OW80077   7.560   6.870   1.123 -0.5936  0.0228  0.1716
26113SOL    HW180078   7.489   6.896   1.182 -1.3810 -0.7551 -0.3906
26113SOL    HW280079   7.538   6.912   1.040 -1.5540 -1.8291 -0.5819
26114SOL     OW80080   0.428   5.086   2.228  0.1201 -0.6852  0.4411
26114SOL    HW180081   0.446   5.048   2.314  0.0102 -0.9370  0.3523
26114SOL    HW280082   0.514   5.090   2.185  0.4004  0.6961  1.0654
26115SOL     OW80083   4.011   2.033   6.322  0.5067  0.0668  0.0138
26115SOL    HW180084   3.934   2.091   6.317  1.6094  1.5553 -0.7941
26115SOL    HW280085   3.996   1.969   6.253  0.0318  0.4119 -0.2158
26116SOL     OW80086   1.794   2.244   1.379  0.4533 -0.0325  0.1288
26116SOL    HW180087   1.859   2.176   1.365 -0.8547 -1.3988  0.4438
26116SOL    HW280088   1.719   2.217   1.326 -1.2704 -0.5563  2.6397
26117SOL     OW80089   6.488   2.250   0.958 -0.0590  0.4376  0.1634
26117SOL    HW180090   6.581   2.269   0.947 -0.3611  1.0992 -1.6115
26117SOL    HW280091   6.479   2.159   0.932  0.0195  0.5355 -0.2153
26118SOL     OW80092   7.884   2.652   3.046 -0.6119  0.3266  0.1351
26118SOL    HW180093   7.836   2.673   2.966  0.1227 -1.8633 -0.9597
26118SOL    HW280094   7.975   2.642   3.018 -0.4006 -0.8925  1.1454
26119SOL     OW80095   4.563   1.011   0.954 -0.0652 -0.2752  0.1402
26119SOL    HW180096   4.553   1.099   0.920  0.7191  0.0413  0.6972
26119SOL    HW280097   4.548   0.954   0.879  1.4195  0.3991 -0.7107
26120SOL     OW80098   5.041   7.301   5.652  0.1441 -0.4638 -0.1846
26120SOL    HW180099   4.995   7.228   5.694  0.5725 -0.8633 -0.4035
26120SOL    HW280100   5.128   7.267   5.633 -0.0737 -0.3338 -1.5025
26121SOL     OW80101   5.886   6.192   5.469 -0.5957 -0.1060 -0.3963
26121SOL    HW180102   5.940   6.189   5.548 -1.1919  0.0585  0.0214
26121SOL    HW280103   5.798   6.167   5.498 -0.5782 -1.2248 -1.2282
26122SOL     OW80104   1.457   1.685   5.099 -0.5415  0.0410 -0.0251
26122SOL    HW180105   1.493   1.741   5.031  2.7249 -0.5607  1.0281
26122SOL    HW280106   1.377   1.729   5.127 -0.8787  1.3637 -2.7536
26123SOL     OW80107   4.168   4.295   6.359 -0.2482  0.2062 -0.6941
26123SOL    HW180108   4.137   4.331   6.276  2.9280  1.8308 -1.3093
26123SOL    HW280109   4.110   4.334   6.425 -2.0836 -0.1952 -1.9960
26124SOL     OW80110   8.549   5.919   0.491  0.6840 -0.2582  0.2119
26124SOL    HW180111   8.620   5.886   0.546  0.7156  1.3666  1.2256
26124SOL    HW280112   8.480   5.944   0.552  0.4989  1.0949 -0.4916
26125SOL     OW80113   6.984   5.376   1.007 -0.0221 -0.3521  0.6212
26125SOL    HW180114   7.027   5.322   1.074 -0.6595 -0.5703  0.8618
26125SOL    HW280115   7.008   5.466   1.030  1.6327 -0.5530 -0.1973
26126SOL     OW80116   0.125   4.098   2.987 -0.6871  0.0682 -0.0934
26126SOL    HW180117   0.195   4.114   3.050 -1.7008  0.4059  0.9965
26126SOL    HW280118   0.086   4.015   3.015 -2.4863  1.2331  1.0743
26127SOL     OW80119   2.413   9.017   8.482  0.2831  0.2476 -0.5298
26127SOL    HW180120   2.436   9.101   8.444 -1.3715  1.1022  0.2656
26127SOL    HW280121   2.375   8.967   8.409  0.9530  0.2854 -0.9189
26128SOL     OW80122   7.830   6.167   0.795 -0.1449 -0.1971  0.8450
26128SOL    HW180123   7.813   6.201   0.707  0.3056 -1.0642  0.4150
26128SOL    HW280124   7.751   6.117   0.817  0.0636 -0.6280  0.6151
26129SOL     OW80125   8.257   6.379   7.874 -0.0235  0.2541 -0.4438
26129SOL    HW180126   8.166   6.410   7.881 -1.2108 -2.5623 -1.7046
26129SOL    HW280127   8.296   6.436   7.808 -0.7050  1.7785  0.4107
26130SOL     OW80128   6.838   3.691   7.928 -0.6543  0.0689 -0.3992
26130SOL    HW180129   6.903   3.740   7.980 -1.7179 -0.5092  1.5994
26130SOL    HW280130   6.846   3.727   7.840  0.6635  1.7426  0.3330
26131SOL     OW80131   0.592   0.108   3.422 -0.1152 -0.4145 -0.1855
26131SOL    HW180132   0.604   0.196   3.456 -0.6670 -0.7090  0.8256
26131SOL    HW280133   0.541   0.120   3.342 -0.2802  0.1790  0.0031
26132SOL     OW80134   8.171   9.333   7.539 -0.7303 -0.2162 -0.5875
26132SOL    HW180135   8.144   9.422   7.515  1.5574  0.4858 -0.7837
26132SOL    HW280136   8.180   9.288   7.455  0.2910  0.0776 -0.6523
26133SOL     OW80137   7.884   6.365   7.683  0.4090  0.3408 -0.3620
26133SOL    HW180138   7.879   6.446   7.633  1.5891 -0.1255 -1.2832
26133SOL    HW280139   7.824   6.305   7.638 -1.0754  0.9020  0.7868
26134SOL     OW80140   9.081   2.332   5.632  0.1518  0.2795  0.7110
26134SOL    HW180141   9.002   2.279   5.630 -0.0277  0.5192  1.2419
26134SOL    HW280142   9.049   2.422   5.642  0.5079  0.2674  2.3090
26135SOL     OW80143   1.225   4.959   7.846  0.2369 -0.5489  0.2946
26135SOL    HW180144   1.130   4.962   7.856  0.1997  0.3583 -0.2555
26135SOL    HW280145   1.247   4.867   7.864 -0.8147 -0.9362 -0.2754
26136SOL     OW80146   8.578   3.208   6.585 -0.2697 -0.2402 -0.4424
26136SOL    HW180147   8.598   3.122   6.620 -0.2026 -1.0139 -2.2597
26136SOL    HW280148   8.483   3.207   6.569 -0.0542 -0.5359 -1.8077
26137SOL     OW80149   4.403   4.340   6.487 -0.2086 -0.1433  0.1465
26137SOL    HW180150   4.435   4.418   6.443  0.2932 -0.1087  0.5641
26137SOL    HW280151   4.318   4.323   6.447  0.4498 -0.3953 -1.1680
26138SOL     OW80152   1.081   4.290   3.473 -0.0635  0.6381 -0.3232
26138SOL    HW180153   1.021   4.235   3.423 -1.1733  1.2136  0.3629
26138SOL    HW280154   1.146   4.318   3.408  0.6359 -1.5696 -0.6642
26139SOL     OW80155   3.347   7.299   1.113 -0.3299  0.3294 -0.0199
26139SOL    HW180156   3.268   7.314   1.061 -2.0892 -2.5389  1.5311
26139SOL    HW280157   3.315   7.291   1.203  2.0494  1.0819  0.9661
26140SOL     OW80158   6.466   1.868   3.980 -0.0250  0.3358 -0.4025
26140SOL    HW180159   6.552   1.871   3.937  0.8526 -0.0634  1.2359
26140SOL    HW280160   6.460   1.779   4.015 -0.3528  0.8736  0.9544
26141SOL     OW80161   8.796   2.924   4.130 -0.0252  0.1932 -0.0105
26141SOL    HW180162   8.824   3.008   4.167  0.8172 -0.1434  0.1416
26141SOL    HW280163   8.758   2.876   4.203  2.0436 -0.6511  0.5996
26142SOL     OW80164   6.424   4.329   8.859 -0.2089  0.2301 -0.5794
26142SOL    HW180165   6.345   4.382   8.872  0.0439  0.8252 -1.3689
26142SOL    HW280166   6.428   4.315   8.764  0.6809  0.2945 -0.5564
26143SOL     OW80167   3.617   3.777   2.815  0.0571 -0.5622 -0.2987
26143SOL    HW180168   3.592   3.695   2.771  0.5656 -1.7239  1.4605
26143SOL    HW280169   3.543   3.795   2.874 -0.0637  0.2804 -0.7017
26144SOL     OW80170   7.060   7.039   5.156 -0.2169 -0.4482 -0.1841
26144SOL    HW180171   7.145   7.068   5.122  0.1612  0.2905  1.2985
26144SOL    HW280172   7.069   7.045   5.251 -2.5445  1.6251  0.0245
26145SOL     OW80173   7.235   4.529   5.194  0.1970 -0.1475  0.4002
26145SOL    HW180174   7.263   4.489   5.276 -0.8339  1.0040  1.3450
26145SOL    HW280175   7.246   4.623   5.207 -0.2977  0.0770 -0.6544
26146SOL     OW80176   0.400   6.769   0.094 -0.0487 -0.4560 -0.2440
26146SOL    HW180177   0.436   6.797   0.010 -0.3183 -0.7735 -0.4693
26146SOL    HW280178   0.305   6.779   0.085 -0.3392 -3.1129 -1.0052
26147SOL     OW80179   6.634   4.518   3.280  0.3921 -0.2416  0.7887
26147SOL    HW180180   6.613   4.460   3.354  1.5261 -0.8252  0.6680
26147SOL    HW280181   6.551   4.563   3.261 -0.5670 -1.9076  0.8083
26148SOL     OW80182   6.970   3.312   5.595  0.6079  0.0140  0.0169
26148SOL    HW180183   6.989   3.399   5.561 -1.3048  0.0206 -1.2030
26148SOL    HW280184   6.991   3.253   5.523  1.0943 -0.4582  0.5405
26149SOL     OW80185   5.495   7.880   9.222 -0.4111 -0.4060  0.0255
26149SOL    HW180186   5.413   7.907   9.263 -0.2903  0.2868 -0.1802
26149SOL    HW280187   5.489   7.914   9.133  0.3602  0.1911  0.1928
26150SOL     OW80188   6.993   3.473   0.525 -0.2017  0.5441 -0.4963
26150SOL    HW180189   7.000   3.491   0.431 -2.1238  0.7852 -0.6361
26150SOL    HW280190   7.024   3.383   0.534  1.9505  1.1752 -1.0043
26151SOL     OW80191   1.835   8.257   0.242  0.3539 -0.3251 -0.0502
26151SOL    HW180192   1.779   8.233   0.316  1.3197  0.6035  1.0251
26151SOL    HW280193   1.850   8.351   0.253  2.4152 -0.6143 -0.0779
26152SOL     OW80194   5.600   9.138   8.855 -0.0724 -0.9921 -0.2449
26152SOL    HW180195   5.611   9.045   8.876 -0.0922 -0.8927  0.2291
26152SOL    HW280196   5.505   9.150   8.851 -0.0609 -1.1530 -1.0673
26153SOL     OW80197   5.405   4.696   0.991  0.5213 -0.0622  0.0561
26153SOL    HW180198   5.375   4.625   0.934  0.6560 -1.1138  1.2408
26153SOL    HW280199   5.500   4.699   0.978  0.8197 -1.5603  1.5312
26154SOL     OW80200   4.356   5.016   1.894 -0.1531  0.7025  0.1233
26154SOL    HW180201   4.386   5.077   1.961  1.9858  0.1199 -0.2350
26154SOL    HW280202   4.359   5.066   1.812 -1.7369  1.1008  0.2873
26155SOL     OW80203   8.341   2.391   2.466  0.4254  0.6374  0.1522
26155SOL    HW180204   8.356   2.464   2.406  1.7311  0.0988 -0.2170
26155SOL    HW280205   8.380   2.420   2.549 -0.0209  0.7782  0.3162
26156SOL     OW80206   3.997   1.597   3.065  0.1224  0.5084 -0.3269
26156SOL    HW180207   4.045   1.666   3.019  0.0040  0.7949 -0.0258
26156SOL    HW280208   3.916   1.639   3.093 -0.2225  0.0749 -0.6774
26157SOL     OW80209   1.575   9.429   7.367  0.2627 -0.5435  0.2151
26157SOL    HW180210   1.523   9.495   7.321 -0.0538 -0.6997  0.3431
26157SOL    HW280211   1.615   9.476   7.440  1.3224 -0.1371 -0.6088
26158SOL     OW80212   2.318   7.263   2.073  0.2994 -0.0268 -1.0663
26158SOL    HW180213   2.398   7.219   2.103  0.5351  1.6286  0.9519
26158SOL    HW280214   2.334   7.356   2.091 -1.6907  0.4568 -1.5568
26159SOL     OW80215   3.186   1.917   2.149 -0.4595  0.7146  0.1144
26159SOL    HW180216   3.221   1.989   2.202 -1.0339  0.3176  1.0711
26159SOL    HW280217   3.216   1.838   2.194 -1.0626  0.3691 -0.0721
26160SOL     OW80218   3.023   8.949   0.846  0.1876  0.0788  0.0613
26160SOL    HW180219   2.975   9.003   0.909  1.3543  0.9085  0.2679
26160SOL    HW280220   2.960   8.931   0.777 -1.3841 -1.5107  1.7764
26161SOL     OW80221   5.824   5.896   0.342  0.0893 -0.1208 -0.0413
26161SOL    HW180222   5.774   5.971   0.372 -1.3439 -0.5319 -1.2584
26161SOL    HW280223   5.913   5.928   0.332 -0.0125  0.7909  1.6262
26162SOL     OW80224   4.934   9.067   5.916 -0.4747  0.2269  0.2110
26162SOL    HW180225   4.884   9.147   5.927  0.4185  0.5764  2.1299
26162SOL    HW280226   4.889   9.002   5.971 -0.4069 -0.2194 -0.2483
26163SOL     OW80227   4.685   6.770   2.258  0.2055  0.4948 -0.4599
26163SOL    HW180228   4.660   6.771   2.351  0.5584  0.9015 -0.3639
26163SOL    HW280229   4.602   6.776   2.211 -0.1547 -1.7060 -0.2252
26164SOL     OW80230   5.785   1.942   2.355 -0.4546  0.5447  0.4506
26164SOL    HW180231   5.705   1.970   2.310 -0.0014  0.5953 -0.3450
26164SOL    HW280232   5.793   1.850   2.333  1.4776  1.2569 -2.3139
26165SOL     OW80233   3.086   6.300   7.374 -0.2726  0.1738 -0.2164
26165SOL    HW180234   3.118   6.219   7.334 -0.4471 -0.5375  1.0418
26165SOL    HW280235   3.060   6.354   7.300  1.4487 -0.2180 -1.1714
26166SOL     OW80236   7.193   5.531   7.700 -0.5222 -0.0060 -0.2558
26166SOL    HW180237   7.266   5.590   7.677 -0.1088 -0.5926 -0.4677
26166SOL    HW280238   7.189   5.536   7.795 -0.5248  0.4047 -0.2730
26167SOL     OW80239   3.683   1.878   5.852 -0.4367  0.7184 -0.5360
26167SOL    HW180240   3.736   1.952   5.881 -0.5295  0.4638  0.3086
26167SOL    HW280241   3.723   1.851   5.769  0.1963  1.0961 -0.3584
26168SOL     OW80242   1.528   8.635   8.904  0.4115  0.2376 -0.0817
26168SOL    HW180243   1.478   8.558   8.931 -0.4324  0.4123 -1.0902
26168SOL    HW280244   1.504   8.648   8.812  0.8656  1.4609 -0.0433
26169SOL     OW80245   2.591   4.764   4.591 -0.0157  0.2558  0.7826
26169SOL    HW180246   2.652   4.761   4.664 -1.0375  1.6299  1.7510
26169SOL    HW280247   2.618   4.841   4.540  1.6178 -1.5078 -1.2151
26170SOL     OW80248   3.068   6.554   6.636 -0.3407  0.0089  0.2819
26170SOL    HW180249   3.091   6.472   6.680 -0.6069 -0.9881 -1.3365
26170SOL    HW280250   2.996   6.530   6.577 -0.6056  1.4709 -0.0351
26171SOL     OW80251   2.043   0.646   7.252 -0.0993  0.4088  0.0673
26171SOL    HW180252   2.113   0.704   7.224  1.2868 -1.3339 -0.2189
26171SOL    HW280253   2.055   0.636   7.347 -0.6546  0.9602  0.2061
26172SOL     OW80254   9.172   8.949   6.483 -0.2177 -0.1606 -0.2841
26172SOL    HW180255   9.189   9.016   6.549 -0.9138  0.3642 -0.6274
26172SOL    HW280256   9.202   8.987   6.401 -0.7889 -0.1786 -0.5116
26173SOL     OW80257   7.427   9.130   7.542 -0.4327  0.7694 -0.2372
26173SOL    HW180258   7.333   9.139   7.528 -0.0570  1.2732 -3.0264
26173SOL    HW280259   7.460   9.219   7.546 -0.0967  0.6021  1.3182
26174SOL     OW80260   2.834   4.667   0.037 -0.3199 -0.1434 -0.0460
26174SOL    HW180261   2.801   4.756   0.022 -0.8641 -0.1594  0.9625
26174SOL    HW280262   2.777   4.612  -0.017 -1.0206 -0.0200  0.5432
26175SOL     OW80263   9.595   7.662   6.464  0.4534 -0.2884 -0.3046
26175SOL    HW180264   9.601   7.758   6.460 -0.7091  0.0141  2.6238
26175SOL    HW280265   9.675   7.631   6.422  0.3747  1.8958 -2.2843
26176SOL     OW80266   4.590   6.774   1.660  0.5108  0.5001 -0.2639
26176SOL    HW180267   4.540   6.703   1.701  0.4171  1.2922  1.0706
26176SOL    HW280268   4.527   6.819   1.605  0.8616 -1.1610 -2.1289
26177SOL     OW80269   7.095   2.828   9.308 -0.2797  0.2809  0.1380
26177SOL    HW180270   7.147   2.815   9.229 -2.8492  0.5354 -1.7159
26177SOL    HW280271   7.024   2.764   9.302 -2.3639  2.4074  0.5056
26178SOL     OW80272   6.892   8.376   4.658  0.3290 -0.3058  0.3076
26178SOL    HW180273   6.805   8.406   4.683  0.5783 -1.3357  2.7677
26178SOL    HW280274   6.883   8.281   4.651  1.4100 -0.5571  1.6889
26179SOL     OW80275   2.748   5.303   6.065 -0.0565 -0.3848 -0.2125
26179SOL    HW180276   2.841   5.284   6.048 -0.1276 -0.4370 -0.5465
26179SOL    HW280277   2.750   5.365   6.138  0.1998 -1.2703  0.5643
26180SOL     OW80278   5.542   4.814   9.393 -0.2641 -0.8145  0.1347
26180SOL    HW180279   5.502   4.813   9.479  0.7391 -1.9548  0.6309
26180SOL    HW280280   5.632   4.844   9.409 -0.2860 -0.3199 -0.6282
26181SOL     OW80281   9.307   5.179   2.869  0.1384  0.1417  0.1353
26181SOL    HW180282   9.266   5.258   2.904  0.0828 -0.0424  0.4886
26181SOL    HW280283   9.258   5.160   2.789  0.0657  0.3850  0.1205
26182SOL     OW80284   3.541   5.131   0.852 -0.8266  0.5917  0.1415
26182SOL    HW180285   3.532   5.049   0.803  0.5603  0.0147  0.7977
26182SOL    HW280286   3.617   5.174   0.812  0.1958  0.2061  1.5992
26183SOL     OW80287   8.911   2.038   7.732  0.8140  0.1514 -0.8561
26183SOL    HW180288   8.897   2.075   7.819  0.8602 -1.1544 -0.2762
26183SOL    HW280289   8.866   2.098   7.673  2.0175  1.8724 -0.1145
26184SOL     OW80290   1.943   0.377   7.256  0.4858 -0.2233  0.4587
26184SOL    HW180291   1.914   0.466   7.275 -2.4552 -1.4992  2.7360
26184SOL    HW280292   2.008   0.358   7.325  1.1155  0.1054 -0.0288
26185SOL     OW80293   8.152   8.004   2.211 -0.3954  0.0261 -0.2977
26185SOL    HW180294   8.059   8.029   2.209 -0.1946  0.8057 -0.1543
26185SOL    HW280295   8.183   8.036   2.296 -0.1089 -0.6916 -0.1195
26186SOL     OW80296   5.425   1.582   6.601  0.5926 -0.3823  0.4045
26186SOL    HW180297   5.519   1.594   6.583  0.3963  0.2456 -0.2861
26186SOL    HW280298   5.384   1.590   6.515 -0.0973 -0.6529  0.7065
26187SOL     OW80299   9.610   3.968   5.438  0.2441  0.2574 -0.0410
26187SOL    HW180300   9.590   3.907   5.508  1.5561 -0.4237 -0.2105
26187SOL    HW280301   9.555   3.940   5.364  1.0236 -0.9231 -0.2039
26188SOL     OW80302   5.505   5.830   3.384 -0.0622 -0.0778  0.5745
26188SOL    HW180303   5.448   5.754   3.368  0.7420 -0.5266 -0.2613
26188SOL    HW280304   5.533   5.858   3.296  0.1427  0.8093  0.9089
26189SOL     OW80305   1.084   1.798   6.138 -0.1316 -0.0494 -0.2597
26189SOL    HW180306   1.167   1.842   6.122 -0.2773 -0.1687 -1.4125
26189SOL    HW280307   1.017   1.860   6.108 -0.3361 -1.0421 -1.9797
26190SOL     OW80308   1.560   0.019   4.640  0.5545  0.0547 -0.6030
26190SOL    HW180309   1.623  -0.002   4.570 -0.5352 -0.1411 -1.5562
26190SOL    HW280310   1.552  -0.063   4.689  1.6474  0.3127  0.0339
26191SOL     OW80311   5.989   0.656   8.409 -0.1931  0.2735 -0.1955
26191SOL    HW180312   6.032   0.594   8.350  0.3444  2.1335 -1.8776
26191SOL    HW280313   5.901   0.667   8.373  0.1017  1.3447 -0.6221
26192SOL     OW80314   7.024   0.532   0.834  0.1714  0.0397 -0.3669
26192SOL    HW180315   7.041   0.548   0.927  0.9442  0.8472 -0.6294
26192SOL    HW280316   7.083   0.460   0.811 -0.7396 -0.8353 -0.0095
26193SOL     OW80317   6.529   3.750   5.080  0.5829  0.0787 -1.0191
26193SOL    HW180318   6.508   3.736   5.173  2.2295 -0.1997 -0.6668
26193SOL    HW280319   6.516   3.664   5.040  0.1974  0.1210 -0.9946
26194SOL     OW80320   0.190   4.795   5.943 -0.0007  0.0935  0.6839
26194SOL    HW180321   0.256   4.730   5.919 -0.2924 -0.0184  0.1654
26194SOL    HW280322   0.235   4.879   5.937  0.1465  0.0033  0.5159
26195SOL     OW80323   4.847   3.129   2.620 -0.4164 -0.0239 -0.0646
26195SOL    HW180324   4.888   3.118   2.534  1.1831 -0.7663  0.7535
26195SOL    HW280325   4.784   3.058   2.626 -1.7040  0.9551 -1.2205
26196SOL     OW80326   2.049   2.637   1.885  0.1850  0.1125  0.5606
26196SOL    HW180327   1.982   2.588   1.838  1.1208 -0.8812  0.2192
26196SOL    HW280328   2.122   2.642   1.823 -0.1520  2.6985  0.2478
26197SOL     OW80329   9.277   9.113   7.579  0.2008 -0.2063  0.7190
26197SOL    HW180330   9.255   9.116   7.672 -1.5648 -0.7887  0.3652
26197SOL    HW280331   9.316   9.027   7.566 -0.1752 -0.3913  0.8055
26198SOL     OW80332   2.317   7.145   2.389 -0.1368  0.7717  0.9176
26198SOL    HW180333   2.396   7.179   2.431 -0.2663  0.6378  1.2686
26198SOL    HW280334   2.349   7.076   2.330  0.2219  1.9908 -0.3852
26199SOL     OW80335   7.466   7.178   3.272 -0.1045 -0.1869 -0.5586
26199SOL    HW180336   7.527   7.169   3.346  0.0293  1.3409 -0.4401
26199SOL    HW280337   7.509   7.240   3.214 -0.7173 -0.5370 -1.3973
26200SOL     OW80338   4.516   0.679   5.259  0.3302 -0.1341 -0.6974
26200SOL    HW180339   4.574   0.603   5.257  1.5394  0.7704 -1.1786
26200SOL    HW280340   4.483   0.682   5.349  2.2907  0.2213  0.0589
26201SOL     OW80341   5.358   0.902   4.454  0.2771 -0.6123 -0.8099
26201SOL    HW180342   5.332   0.816   4.423  1.3896 -0.8632 -1.0815
26201SOL    HW280343   5.454   0.902   4.450  0.4809 -0.4060  1.9075
26202SOL     OW80344   6.759   0.219   0.657 -0.1674 -0.3513  0.4756
26202SOL    HW180345   6.757   0.201   0.751  1.8830 -1.8027  0.3233
26202SOL    HW280346   6.687   0.167   0.621 -0.4512 -0.4475  1.1722
26203SOL     OW80347   0.850   4.124   2.193 -0.3167 -0.3483 -0.0771
26203SOL    HW180348   0.798   4.200   2.219  1.5162  0.8354  0.2942
26203SOL    HW280349   0.855   4.129   2.098 -0.0608  0.0967 -0.0405
26204SOL     OW80350   4.310   8.418   8.449  0.7830 -0.4019  0.4830
26204SOL    HW180351   4.393   8.466   8.457  0.3284  0.2350  1.6344
26204SOL    HW280352   4.309   8.360   8.525 -0.3798  0.4975  1.1911
26205SOL     OW80353   6.249   8.036   4.873  0.0294  0.3017  0.6442
26205SOL    HW180354   6.189   8.102   4.908 -1.3880 -0.6037 -0.0165
26205SOL    HW280355   6.258   7.972   4.943  0.0659  0.3231  0.6592
26206SOL     OW80356   6.554   6.987   0.386  0.2697  0.5071  0.2489
26206SOL    HW180357   6.517   7.061   0.338 -2.6165 -1.9545 -1.6902
26206SOL    HW280358   6.600   6.935   0.320 -0.1969 -0.8403  0.9474
26207SOL     OW80359   2.360   0.364   1.744  0.1749  0.4791 -0.1203
26207SOL    HW180360   2.392   0.287   1.696  1.3906  0.6519  0.3804
26207SOL    HW280361   2.411   0.437   1.710  0.9990  0.6253  1.3287
26208SOL     OW80362   0.690   2.657   4.271  0.0714  0.7089 -0.0141
26208SOL    HW180363   0.641   2.718   4.326  1.0818  0.7122  0.8992
26208SOL    HW280364   0.745   2.713   4.217 -0.6083  0.6845 -0.7598
26209SOL     OW80365   0.002   6.860   3.838 -0.6540  0.3588  0.4669
26209SOL    HW180366   0.066   6.789   3.835 -0.2990  0.6916 -0.7069
26209SOL    HW280367  -0.050   6.848   3.758  0.6376  2.4767 -0.8066
26210SOL     OW80368   2.998   2.911   4.765 -0.3176 -0.3221 -0.4314
26210SOL    HW180369   3.050   2.954   4.833  0.3222 -0.7060 -0.6703
26210SOL    HW280370   3.061   2.857   4.717 -0.4465  1.1676 -2.3710
26211SOL     OW80371   3.131   4.554   3.945  0.1613  0.0194  0.0138
26211SOL    HW180372   3.078   4.476   3.926 -2.2244  1.5940 -0.3457
26211SOL    HW280373   3.202   4.551   3.881  0.1654 -1.8543  0.0479
26212SOL     OW80374   8.986   0.030   0.586  0.1792  0.4271  0.1141
26212SOL    HW180375   8.971  -0.063   0.601  0.4122  0.4235  0.3255
26212SOL    HW280376   8.901   0.064   0.559 -0.3050  0.4870  1.6584
26213SOL     OW80377   3.052   2.579   8.424  0.2295  0.1374  0.1372
26213SOL    HW180378   3.054   2.635   8.346  1.0860 -0.5356 -0.3351
26213SOL    HW280379   3.016   2.496   8.393 -0.6262  0.2589  0.7450
26214SOL     OW80380   1.866   8.790   6.712 -0.3231  0.1036  0.4396
26214SOL    HW180381   1.911   8.741   6.780 -0.8001 -1.1891 -0.1512
26214SOL    HW280382   1.926   8.788   6.637 -0.7809 -0.4781  0.0816
26215SOL     OW80383   4.667   7.007   7.106 -0.7662 -0.3308  0.0973
26215SOL    HW180384   4.662   7.079   7.168 -1.3937  0.0240 -0.3569
26215SOL    HW280385   4.697   6.932   7.158  2.6628  0.8357  0.0942
26216SOL     OW80386   1.891   7.731   1.818 -0.2072  0.1372  0.2243
26216SOL    HW180387   1.919   7.817   1.785  0.8433 -0.3794 -0.2894
26216SOL    HW280388   1.796   7.733   1.811 -0.1829  1.1523 -0.0648
26217SOL     OW80389   3.412   3.550   1.347 -0.0822 -0.4111 -0.6383
26217SOL    HW180390   3.490   3.532   1.295 -0.7087  1.1515 -2.2182
26217SOL    HW280391   3.396   3.644   1.334 -1.0381 -0.2620  1.3368
26218SOL     OW80392   4.290   1.771   6.745 -0.5163  0.4295 -0.1499
26218SOL    HW180393   4.247   1.802   6.665 -2.0835  0.5325  0.6737
26218SOL    HW280394   4.223   1.716   6.787  1.3516 -2.2043 -0.4200
26219SOL     OW80395   1.618   5.955   1.085  0.7665 -0.0598 -0.1655
26219SOL    HW180396   1.537   5.983   1.128  1.2320  0.7311  0.2180
26219SOL    HW280397   1.602   5.863   1.061  0.2225 -0.3005  1.0395
26220SOL     OW80398   2.284   3.761   1.328 -0.4635  0.3408  0.1120
26220SOL    HW180399   2.307   3.719   1.245 -0.1906  0.1863  0.2638
26220SOL    HW280400   2.252   3.848   1.303  0.2305  0.5354 -0.1038
26221SOL     OW80401   5.625   4.495   9.012 -0.0956  0.4297 -0.6297
26221SOL    HW180402   5.701   4.521   8.959  0.9618  0.4671  0.8434
26221SOL    HW280403   5.610   4.568   9.071 -0.3213 -0.1869  0.0966
26222SOL     OW80404   4.299   2.108   1.658  0.4312  0.1812  0.4638
26222SOL    HW180405   4.275   2.161   1.734 -0.5705  2.4921 -1.3636
26222SOL    HW280406   4.222   2.111   1.601  1.5184 -0.6427 -1.1218
26223SOL     OW80407   3.672   4.405   5.782 -0.1122  0.4035  0.5132
26223SOL    HW180408   3.626   4.478   5.823 -0.9338  2.1020 -3.0899
26223SOL    HW280409   3.603   4.348   5.750  0.5121 -1.1020  1.7220
26224SOL     OW80410   2.313   8.161   4.041  0.4340  0.2108 -0.2533
26224SOL    HW180411   2.288   8.229   4.103  1.4645  0.6783 -0.3300
26224SOL    HW280412   2.396   8.126   4.075  0.0016 -0.9051 -0.3016
26225SOL     OW80413   0.088   1.027   6.943 -0.1791 -0.0780  0.5817
26225SOL    HW180414   0.098   0.971   7.020  0.4793 -1.0314 -0.1729
26225SOL    HW280415   0.008   1.077   6.960  0.0701 -0.1236  1.9671
26226SOL     OW80416   5.210   9.309   7.834 -0.0018 -0.1640  0.7114
26226SOL    HW180417   5.182   9.386   7.785 -0.0369 -0.8860 -0.4461
26226SOL    HW280418   5.132   9.283   7.883 -1.1287 -1.4698 -1.5850
26227SOL     OW80419   8.097   1.917   9.364  0.3145 -0.0067  0.5700
26227SOL    HW180420   8.003   1.927   9.351  0.2996 -0.0394  0.6536
26227SOL    HW280421   8.126   2.003   9.395  0.6300  0.6118 -1.2992
26228SOL     OW80422   3.636   9.603   1.665 -0.2578 -0.0061 -0.5555
26228SOL    HW180423   3.662   9.513   1.646  0.4623  0.0208  0.2534
26228SOL    HW280424   3.591   9.598   1.749  1.3109  0.6122  0.3542
26229SOL     OW80425   4.539   4.937   4.969 -0.1517  0.2517 -0.2947
26229SOL    HW180426   4.578   5.012   4.924 -0.5723 -0.2581 -1.5645
26229SOL    HW280427   4.453   4.926   4.928 -0.7415  0.0156  0.9503
26230SOL     OW80428   3.849   0.286   8.093  0.4351 -0.3242  0.2504
26230SOL    HW180429   3.908   0.326   8.157 -1.8017  3.3296  0.2617
26230SOL    HW280430   3.775   0.255   8.146 -1.3297  2.5293 -0.3584
26231SOL     OW80431   4.926   0.186   6.982  0.7767 -0.2220 -0.2667
26231SOL    HW180432   5.015   0.204   7.012  0.7340  0.7142 -0.6764
26231SOL    HW280433   4.873   0.254   7.023  0.7293  1.1710 -2.4758
26232SOL     OW80434   7.988   5.770   0.328 -0.1485  0.6042 -0.2663
26232SOL    HW180435   8.022   5.691   0.286 -0.2497  0.7992 -0.7199
26232SOL    HW280436   8.060   5.801   0.383 -0.4138 -0.3161  0.6566
26233SOL     OW80437   4.425   5.189   2.417  0.4498 -0.2248 -0.6089
26233SOL    HW180438   4.398   5.139   2.494  0.1124  0.0661 -0.5370
26233SOL    HW280439   4.394   5.278   2.433 -0.5120 -0.3695 -1.5188
26234SOL     OW80440   6.450   5.114   3.128 -0.3757  0.2318 -0.1685
26234SOL    HW180441   6.535   5.070   3.127 -0.2478  0.0557  3.4076
26234SOL    HW280442   6.387   5.044   3.109  0.1875  0.1560 -1.8635
26235SOL     OW80443   7.062   4.741   0.435  0.3296 -0.2089 -0.2490
26235SOL    HW180444   7.030   4.651   0.432 -0.7473  0.1867 -1.0408
26235SOL    HW280445   7.117   4.744   0.514  2.0783 -2.0890 -1.3193
26236SOL     OW80446   1.915   2.060   4.490  0.1200 -0.3489  0.3833
26236SOL    HW180447   1.927   2.082   4.582 -1.1919 -1.2707  0.8028
26236SOL    HW280448   1.988   2.003   4.469  1.0674  0.7768  0.5077
26237SOL     OW80449   5.867   9.601   7.841  0.4906 -0.4711  0.1329
26237SOL    HW180450   5.817   9.680   7.826  0.8309 -0.3470 -0.3626
26237SOL    HW280451   5.938   9.605   7.777  0.7599 -0.9581  0.3962
26238SOL     OW80452   8.961   6.528   8.039 -0.2880  0.3606  0.5153
26238SOL    HW180453   8.906   6.454   8.064  1.1263 -0.1796  2.2627
26238SOL    HW280454   8.924   6.603   8.085 -0.9302  0.4947 -0.1987
26239SOL     OW80455   1.342   8.719   2.528  0.7953  0.0888  0.3039
26239SOL    HW180456   1.279   8.784   2.498  0.4573 -0.0318  0.7436
26239SOL    HW280457   1.422   8.769   2.546  1.3167  0.0326 -1.6959
26240SOL     OW80458   8.308   0.886   2.783  0.2186 -0.2883 -0.2811
26240SOL    HW180459   8.351   0.803   2.803  3.2664  1.0270 -0.8534
26240SOL    HW280460   8.245   0.865   2.714 -1.0472 -2.5193  1.4035
26241SOL     OW80461   9.383   0.448   4.283 -0.5105  0.0785 -0.0388
26241SOL    HW180462   9.466   0.486   4.314 -0.7889 -1.1262  2.4939
26241SOL    HW280463   9.316   0.491   4.336 -1.2000 -0.9351 -0.0517
26242SOL     OW80464   8.089   8.128   3.889  0.3532 -0.0951 -0.4365
26242SOL    HW180465   8.096   8.081   3.972  0.9560  1.5724  0.4997
26242SOL    HW280466   8.179   8.156   3.870 -0.0947  1.4230 -0.4739
26243SOL     OW80467   0.551   3.387   3.512  0.4612  0.3456 -0.0894
26243SOL    HW180468   0.551   3.320   3.581 -2.5588 -0.8302 -1.0635
26243SOL    HW280469   0.506   3.462   3.552  0.1672  0.2685 -0.2768
26244SOL     OW80470   9.146   3.632   4.154  0.0933  0.2810  0.1521
26244SOL    HW180471   9.169   3.671   4.239 -1.2486  0.7400  0.3296
26244SOL    HW280472   9.223   3.647   4.099  0.0341  2.2751  0.5332
26245SOL     OW80473   7.741   3.607   8.396 -0.0412  0.1196 -0.4393
26245SOL    HW180474   7.706   3.627   8.309 -0.4137  2.0795  0.1184
26245SOL    HW280475   7.769   3.516   8.390 -0.9856 -0.0969 -2.3069
26246SOL     OW80476   3.430   1.422   5.218  0.1475 -0.7501  0.2078
26246SOL    HW180477   3.466   1.505   5.249  0.2634 -1.3086  1.6891
26246SOL    HW280478   3.461   1.358   5.282  1.2210 -2.1856 -1.6477
26247SOL     OW80479   3.144   5.158   8.336  0.0500  0.1627 -0.1319
26247SOL    HW180480   3.100   5.213   8.271 -1.3764 -0.9700 -0.1781
26247SOL    HW280481   3.075   5.103   8.372  1.1985 -0.7071  0.8429
26248SOL     OW80482   7.170   2.121   6.367 -0.0269  0.2983 -0.1318
26248SOL    HW180483   7.252   2.111   6.318 -1.3443  0.1137 -2.4510
26248SOL    HW280484   7.146   2.031   6.391 -1.2559 -0.1070 -2.5641
26249SOL     OW80485   3.377   5.521   8.258 -0.7670 -0.6833 -0.5047
26249SOL    HW180486   3.412   5.610   8.249  0.3873 -1.0191  0.5433
26249SOL    HW280487   3.282   5.534   8.263 -0.8914  0.2531 -3.2607
26250SOL     OW80488   0.814   2.798   0.623  0.2744  0.5375  0.3785
26250SOL    HW180489   0.843   2.773   0.711 -0.2478 -1.2897  0.0648
26250SOL    HW280490   0.808   2.715   0.575  1.6770  1.5702 -1.7528
26251SOL     OW80491   3.458   3.681   4.836  0.1173  0.0414  0.1583
26251SOL    HW180492   3.434   3.687   4.743  0.5585  0.0348  0.0393
26251SOL    HW280493   3.437   3.591   4.860  1.5272 -0.4744 -0.3901
26252SOL     OW80494   5.417   2.740   0.400 -0.0598  0.8765  0.3711
26252SOL    HW180495   5.455   2.809   0.347  1.3849  0.9949  1.5047
26252SOL    HW280496   5.349   2.784   0.451 -1.1107  0.8580 -0.9503
26253SOL     OW80497   7.542   2.374   3.309  1.0683  0.4637 -0.4298
26253SOL    HW180498   7.467   2.396   3.365  2.0998  0.5288  0.9788
26253SOL    HW280499   7.618   2.408   3.356  2.1920 -1.3687 -0.8029
26254SOL     OW80500   6.556   8.650   8.487 -0.2275 -0.3245  0.3261
26254SOL    HW180501   6.477   8.656   8.432  0.1293  2.3367 -0.0103
26254SOL    HW280502   6.531   8.591   8.558 -2.3836  0.1038 -0.0047
26255SOL     OW80503   0.263   2.926   1.293 -0.2975  0.0312  0.2283
26255SOL    HW180504   0.230   3.013   1.274  1.1718  0.4036 -0.7565
26255SOL    HW280505   0.296   2.931   1.382  0.3834  0.6815 -0.0557
26256SOL     OW80506   8.746   5.153   8.910  0.2866  0.4047 -0.3586
26256SOL    HW180507   8.739   5.137   9.005  0.2759  0.9695 -0.2646
26256SOL    HW280508   8.830   5.198   8.900  0.3599  0.2043 -0.6371
26257SOL     OW80509   5.199   1.091   0.210 -0.6061  0.3403  0.2098
26257SOL    HW180510   5.179   1.009   0.256 -0.0349  0.4415  0.6501
26257SOL    HW280511   5.278   1.071   0.160 -1.6680 -0.0187 -1.4183
26258SOL     OW80512   7.175   8.390   3.271  0.2390  0.8920 -0.4979
26258SOL    HW180513   7.243   8.339   3.315  1.1279  0.7265 -1.9984
26258SOL    HW280514   7.195   8.481   3.293 -0.6101  0.7148  1.1589
26259SOL     OW80515   3.761   2.165   5.502  0.1676  0.1862 -0.5408
26259SOL    HW180516   3.717   2.189   5.421 -0.4081 -0.8601 -0.5578
26259SOL    HW280517   3.741   2.237   5.562 -0.9530  0.0980 -0.7778
26260SOL     OW80518   7.614   9.410   4.029 -0.3012  0.5855  0.5405
26260SOL    HW180519   7.596   9.316   4.022  0.8955  0.2919  1.1291
26260SOL    HW280520   7.690   9.416   4.087  1.1596  1.7572 -1.3850
26261SOL     OW80521   8.780   7.080   6.959  0.6984  0.0941 -0.3445
26261SOL    HW180522   8.801   7.060   7.050 -1.2643  1.7655  0.5572
26261SOL    HW280523   8.692   7.045   6.946 -0.0521  1.9995 -0.7737
26262SOL     OW80524   1.252   6.446   6.673 -0.7827  0.2615 -0.2146
26262SOL    HW180525   1.269   6.527   6.625 -4.0661  1.0304 -0.3326
26262SOL    HW280526   1.230   6.383   6.604  2.9713 -1.2896 -0.2474
26263SOL     OW80527   6.499   5.314   9.332 -0.1874 -0.4780 -0.0289
26263SOL    HW180528   6.452   5.381   9.382 -1.2334 -0.9202 -0.3852
26263SOL    HW280529   6.486   5.234   9.383 -0.9187 -0.8515 -0.7848
26264SOL     OW80530   0.470   8.217   1.698 -0.4372  0.3577 -0.1159
26264SOL    HW180531   0.441   8.180   1.614  0.1191 -0.8688  0.2060
26264SOL    HW280532   0.433   8.305   1.700 -2.6475 -0.4877 -0.5192
26265SOL     OW80533   8.927   9.055   8.665 -0.4438  0.2554 -0.5392
26265SOL    HW180534   9.023   9.059   8.666 -0.4001 -0.4156  1.3856
26265SOL    HW280535   8.906   9.016   8.580  0.9406  0.9320 -1.2346
26266SOL     OW80536   2.844   8.388   9.213 -0.2453  0.5532  0.6189
26266SOL    HW180537   2.890   8.335   9.148 -0.4369  1.4306 -0.2520
26266SOL    HW280538   2.878   8.477   9.202  1.8029  0.3033  3.6356
26267SOL     OW80539   1.133   4.688   7.568  0.2383 -0.2844 -0.0314
26267SOL    HW180540   1.205   4.625   7.571 -0.4722 -1.1661 -0.8426
26267SOL    HW280541   1.152   4.743   7.492  1.0641  0.7740  0.9027
26268SOL     OW80542   4.471   6.714   5.941  0.3798 -0.1203  0.2177
26268SOL    HW180543   4.465   6.689   5.849 -1.1779 -1.2477  0.5826
26268SOL    HW280544   4.536   6.654   5.978  1.3458  0.6349 -0.2189
26269SOL     OW80545   3.460   5.990   3.662 -0.0843 -0.5937  0.6072
26269SOL    HW180546   3.464   5.999   3.758  0.6773 -0.6407  0.5889
26269SOL    HW280547   3.536   5.936   3.640  1.1062  1.3160 -0.2250
26270SOL     OW80548   7.856   0.587   1.508 -0.3382  0.1093 -0.0188
26270SOL    HW180549   7.913   0.653   1.468 -1.4804 -1.1422 -4.2363
26270SOL    HW280550   7.902   0.560   1.587  2.5217  2.4761 -0.7028
26271SOL     OW80551   6.240   6.723   7.538  0.4196  0.5509 -0.2472
26271SOL    HW180552   6.223   6.645   7.486 -0.5602 -0.2841  1.2632
26271SOL    HW280553   6.156   6.768   7.544 -0.0821 -0.5297  2.3674
26272SOL     OW80554   4.646   8.240   6.342  0.3759 -0.4618 -0.6597
26272SOL    HW180555   4.637   8.151   6.378  0.3839 -1.0613 -2.0653
26272SOL    HW280556   4.558   8.277   6.348  0.5223 -0.2773  0.5984
26273SOL     OW80557   6.468   2.842   0.108  0.4903  0.2482 -0.0581
26273SOL    HW180558   6.484   2.818   0.017 -0.3568 -1.9881  0.3041
26273SOL    HW280559   6.382   2.804   0.128  0.6596  0.6829  1.6710
26274SOL     OW80560   2.036   6.458   0.865 -0.0028  0.3827  0.3399
26274SOL    HW180561   2.053   6.541   0.911  0.9952 -0.4007  1.4293
26274SOL    HW280562   1.997   6.485   0.781 -0.3954  1.9116  0.9849
26275SOL     OW80563   5.966   8.867   0.036  0.0350  0.3780  0.4723
26275SOL    HW180564   5.931   8.930  -0.027 -1.0910 -0.4413  0.2325
26275SOL    HW280565   6.055   8.896   0.054 -0.7698  2.5926  1.1325
26276SOL     OW80566   0.012   1.514   0.227  0.0490 -0.8696  0.0155
26276SOL    HW180567  -0.028   1.456   0.291  2.3731 -0.5152  1.9258
26276SOL    HW280568   0.067   1.457   0.173  0.5871 -0.7600  0.4402
26277SOL     OW80569   6.353   0.600   4.858 -0.5587 -0.0451  0.2019
26277SOL    HW180570   6.292   0.614   4.786 -1.0195 -0.1278  0.5686
26277SOL    HW280571   6.364   0.505   4.862  0.7752  0.0395 -0.8192
26278SOL     OW80572   1.913   6.771   7.606 -0.0306 -0.5930  0.0523
26278SOL    HW180573   1.885   6.837   7.543 -0.0512 -0.1699  0.4923
26278SOL    HW280574   1.987   6.812   7.651 -0.1315 -0.8171  0.4259
26279SOL     OW80575   6.852   9.280   5.753 -0.3489  0.1672  0.0346
26279SOL    HW180576   6.923   9.332   5.715 -0.2744  1.4603  1.8360
26279SOL    HW280577   6.891   9.193   5.766  0.6919  0.6681  0.3650
26280SOL     OW80578   9.185   2.752   8.293 -0.9464  0.4188  0.1648
26280SOL    HW180579   9.116   2.814   8.314 -0.3421  1.4477 -0.7678
26280SOL    HW280580   9.239   2.797   8.228 -0.4086 -1.0300 -0.4463
26281SOL     OW80581   5.712   8.433   8.640 -0.3465 -0.3277  0.6494
26281SOL    HW180582   5.793   8.419   8.688  1.4086  1.8872 -1.3983
26281SOL    HW280583   5.679   8.518   8.671 -1.3460 -0.7318  0.7358
26282SOL     OW80584   8.861   2.336   6.266  0.1667  0.7692  0.4516
26282SOL    HW180585   8.951   2.308   6.252  0.5627  2.1381  0.1094
26282SOL    HW280586   8.833   2.289   6.344  0.3212 -1.5630 -0.8081
26283SOL     OW80587   9.286   9.078   3.282 -0.2853 -0.1240 -0.1569
26283SOL    HW180588   9.269   9.157   3.230  1.0227 -1.9019 -3.5957
26283SOL    HW280589   9.379   9.084   3.304 -0.4105 -0.2660  0.4166
26284SOL     OW80590   3.820   6.873   3.286 -0.1868 -0.9497 -0.6754
26284SOL    HW180591   3.821   6.777   3.285 -0.9929 -0.9615 -0.8041
26284SOL    HW280592   3.826   6.898   3.193  0.2197 -0.8643 -0.6308
26285SOL     OW80593   6.900   3.337   3.035 -0.6258 -0.1681  0.2444
26285SOL    HW180594   6.846   3.391   2.977 -1.8962 -1.8784 -0.2483
26285SOL    HW280595   6.944   3.400   3.092 -1.8405  1.3948 -0.4532
26286SOL     OW80596   8.284   8.418   1.729 -0.3160  0.1592 -0.7266
26286SOL    HW180597   8.228   8.395   1.655  0.0351 -0.8083 -0.7081
26286SOL    HW280598   8.368   8.378   1.709 -0.5852 -1.3051  0.7894
26287SOL     OW80599   0.573   1.149   5.011 -0.3122  0.2184  0.1448
26287SOL    HW180600   0.607   1.238   5.005 -2.2578  0.9380 -0.8257
26287SOL    HW280601   0.652   1.094   5.009  0.8601  1.8362 -0.8122
26288SOL     OW80602   4.500   1.291   6.865  0.0793  0.3742 -0.6090
26288SOL    HW180603   4.507   1.343   6.945 -0.0913  0.4202 -0.6239
26288SOL    HW280604   4.577   1.234   6.866 -0.2612 -0.0785 -0.0976
26289SOL     OW80605   6.030   5.432   0.073 -0.2971 -0.1631  0.2496
26289SOL    HW180606   6.092   5.464   0.138 -0.4501  0.3663  0.1406
26289SOL    HW280607   6.049   5.339   0.064  0.3494 -0.0413  0.3603
26290SOL     OW80608   8.522   0.156   1.315  0.1767 -0.1309  0.9377
26290SOL    HW180609   8.582   0.138   1.387 -0.6727 -0.4938  1.5653
26290SOL    HW280610   8.472   0.232   1.344  1.7964  1.5959 -0.5080
26291SOL     OW80611   4.777   3.708   5.175 -0.5168 -0.6827 -0.6449
26291SOL    HW180612   4.779   3.793   5.219 -2.5232 -0.7074 -0.4248
26291SOL    HW280613   4.719   3.654   5.229 -1.9712 -1.1281 -2.5340
26292SOL     OW80614   7.169   1.709   8.801 -0.3628  0.6780 -0.1424
26292SOL    HW180615   7.119   1.628   8.790 -0.0372  0.3267  0.9072
26292SOL    HW280616   7.229   1.710   8.727 -0.8680  0.3384 -0.5675
26293SOL     OW80617   8.422   4.923   2.367  0.4704  0.0026  0.1448
26293SOL    HW180618   8.447   5.000   2.417  1.2926  1.0586 -1.7898
26293SOL    HW280619   8.476   4.852   2.402  1.0073  0.7062  0.7380
26294SOL     OW80620   6.881   3.864   2.862 -0.4473  0.6387 -0.2296
26294SOL    HW180621   6.812   3.870   2.929 -1.9430  1.0774 -1.7228
26294SOL    HW280622   6.947   3.806   2.900 -1.6843  0.1229  1.2440
26295SOL     OW80623   8.113   6.722   8.207 -0.0355  0.4689 -0.2543
26295SOL    HW180624   8.060   6.791   8.169 -0.5372  0.5093  0.5002
26295SOL    HW280625   8.049   6.657   8.238  0.4332 -0.4397 -1.1605
26296SOL     OW80626   2.766   0.231   4.553  0.1737  0.1491  0.0210
26296SOL    HW180627   2.706   0.158   4.547 -0.8475  0.9997 -0.3938
26296SOL    HW280628   2.742   0.275   4.634 -1.3610  1.8137 -1.2534
26297SOL     OW80629   3.485   3.875   9.270  0.5077 -0.2332 -0.3594
26297SOL    HW180630   3.486   3.969   9.250  1.6738 -0.0326  0.5901
26297SOL    HW280631   3.401   3.845   9.235  0.0875  1.1704 -0.6318
26298SOL     OW80632   6.605   3.042   1.831 -0.1127 -0.1476  0.0735
26298SOL    HW180633   6.588   3.088   1.749 -2.0551 -0.6281  0.1658
26298SOL    HW280634   6.538   3.075   1.891 -0.0469 -1.3467  0.8338
26299SOL     OW80635   4.722   3.532   5.671 -0.0692 -0.4588 -0.4892
26299SOL    HW180636   4.681   3.533   5.758 -1.5487  1.7097 -1.1215
26299SOL    HW280637   4.677   3.462   5.624  0.3612 -1.2832  0.3001
26300SOL     OW80638   7.346   8.685   8.898  0.3532 -0.2490  0.5799
26300SOL    HW180639   7.409   8.639   8.952  1.4409 -0.2316 -0.6146
26300SOL    HW280640   7.356   8.777   8.923 -0.3166 -0.4071  1.4743
26301SOL     OW80641   2.271   5.467   1.993  0.2806  0.3930 -0.3017
26301SOL    HW180642   2.359   5.433   1.977 -0.4584 -2.4983  1.0219
26301SOL    HW280643   2.247   5.432   2.079 -2.0651  1.2979 -0.5173
26302SOL     OW80644   6.530   4.986   9.172  0.3025 -0.8650  0.2423
26302SOL    HW180645   6.571   5.066   9.139  0.5490 -0.4591  1.4778
26302SOL    HW280646   6.543   4.922   9.102  0.5187  0.0420 -0.5719
26303SOL     OW80647   0.083   4.110   1.578 -0.6980  0.0600 -0.7317
26303SOL    HW180648   0.079   4.097   1.673  0.2536 -2.6436 -0.9851
26303SOL    HW280649  -0.003   4.080   1.547 -0.4794 -0.4733 -0.8343
26304SOL     OW80650   4.949   3.149   3.203  0.3243  0.2664  0.1288
26304SOL    HW180651   4.870   3.179   3.249  1.2963  0.9993  1.3994
26304SOL    HW280652   4.918   3.079   3.145 -1.8811  2.9718 -2.2495
26305SOL     OW80653   1.570   3.869   1.969 -0.5353 -0.2137  0.4091
26305SOL    HW180654   1.493   3.865   1.911 -0.3802 -1.0212  0.2457
26305SOL    HW280655   1.538   3.914   2.047 -0.8288  0.6195 -0.1727
26306SOL     OW80656   7.398   4.837   9.293  0.1080 -0.0042  0.0036
26306SOL    HW180657   7.360   4.783   9.223  2.1416  0.6474 -1.7083
26306SOL    HW280658   7.427   4.773   9.358  0.0058 -0.7981 -0.7057
26307SOL     OW80659   9.538   3.545   7.939  0.1241 -0.0145  0.9111
26307SOL    HW180660   9.535   3.528   7.845 -0.6067 -0.3134  0.9839
26307SOL    HW280661   9.631   3.538   7.962  0.1308 -1.4806  0.4885
26308SOL     OW80662   6.138   3.988   3.378 -0.5435 -0.0724  0.2670
26308SOL    HW180663   6.160   4.061   3.321  1.1396 -0.9133 -0.2275
26308SOL    HW280664   6.139   3.911   3.321 -0.1304 -0.7633  1.1675
26309SOL     OW80665   4.412   6.741   1.309 -0.0830  0.4720  0.0313
26309SOL    HW180666   4.488   6.712   1.260  0.6885  1.6586  0.4780
26309SOL    HW280667   4.432   6.832   1.334 -2.0606  1.1669 -0.7036
26310SOL     OW80668   9.533   1.737   3.649  0.0707 -0.1116  0.1094
26310SOL    HW180669   9.617   1.746   3.694 -0.3402  1.0605  0.6999
26310SOL    HW280670   9.505   1.828   3.635 -0.6249 -0.4808 -0.9800
26311SOL     OW80671   5.747   8.397   5.399 -0.3431  0.7178  0.3261
26311SOL    HW180672   5.750   8.383   5.304 -0.3185 -0.4251  0.4901
26311SOL    HW280673   5.786   8.484   5.411  1.1190  0.2278 -0.5828
26312SOL     OW80674   3.693   5.723   7.714  0.2184  0.1553 -0.0969
26312SOL    HW180675   3.763   5.754   7.656  0.4302 -0.6538 -0.2868
26312SOL    HW280676   3.683   5.793   7.779  2.9339 -0.7405  1.4357
26313SOL     OW80677   0.884   9.013   9.045 -0.0049  0.5290 -0.2912
26313SOL    HW180678   0.809   9.018   8.985 -1.0846  3.4428  1.1436
26313SOL    HW280679   0.961   9.019   8.988 -0.9379  1.0051 -1.5430
26314SOL     OW80680   7.994   0.784   1.395 -0.0299 -0.2494  0.3382
26314SOL    HW180681   7.994   0.864   1.448  1.0562  0.4483 -0.6859
26314SOL    HW280682   8.084   0.753   1.398 -0.4931 -1.6402  0.9666
26315SOL     OW80683   3.197   3.574   9.461  0.1270  0.0956  0.1947
26315SOL    HW180684   3.146   3.654   9.469  0.3059  0.1024  1.3187
26315SOL    HW280685   3.240   3.563   9.545  0.2167 -1.1105  0.0166
26316SOL     OW80686   2.126   7.389   5.735  0.6846 -0.2845 -0.0903
26316SOL    HW180687   2.195   7.434   5.687 -1.1571  0.9103 -1.7946
26316SOL    HW280688   2.092   7.324   5.673 -0.3894 -0.1285  0.3075
26317SOL     OW80689   4.633   4.969   2.374  0.9539 -0.1396 -0.2450
26317SOL    HW180690   4.580   5.049   2.375  0.4866 -0.4450  0.2962
26317SOL    HW280691   4.683   4.974   2.293  1.1489  0.8492 -0.0746
26318SOL     OW80692   9.378   5.535   7.957  0.9193 -0.9760  0.6121
26318SOL    HW180693   9.424   5.452   7.950  0.3896 -1.1481 -1.2731
26318SOL    HW280694   9.379   5.572   7.869 -0.8624 -0.0840  0.9041
26319SOL     OW80695   8.451   7.367   1.941  0.3335 -0.7551  0.1736
26319SOL    HW180696   8.526   7.421   1.967 -0.2093  0.0795  0.0781
26319SOL    HW280697   8.484   7.313   1.870  1.2211 -1.4244  1.0612
26320SOL     OW80698   8.729   3.787   5.755 -0.1835  0.0998  0.1028
26320SOL    HW180699   8.677   3.711   5.784  0.0915  0.3931  1.4209
26320SOL    HW280700   8.674   3.863   5.776  0.3578  0.3591  0.5987
26321SOL     OW80701   3.958   8.331   9.273  0.5446 -0.4667  0.2722
26321SOL    HW180702   3.896   8.335   9.201  0.6939  1.4399  0.2092
26321SOL    HW280703   3.918   8.383   9.343  0.6478 -1.8322  1.4112
26322SOL     OW80704   4.369   4.493   1.989 -0.4414  0.7672 -0.3229
26322SOL    HW180705   4.425   4.570   1.985 -0.9871  1.1247 -1.6189
26322SOL    HW280706   4.368   4.460   1.899  1.0773 -1.7075  0.4698
26323SOL     OW80707   7.217   8.563   8.698  0.0869  0.6814 -0.0035
26323SOL    HW180708   7.133   8.603   8.676 -0.3845  1.0021  2.1576
26323SOL    HW280709   7.259   8.626   8.757  0.3567 -0.9011  1.5794
26324SOL     OW80710   1.118   8.031   5.957 -0.1220 -0.0378 -0.4364
26324SOL    HW180711   1.211   8.051   5.950  0.5373 -2.1949  1.0166
26324SOL    HW280712   1.110   7.978   6.037 -2.5041 -0.3886 -0.8050
26325SOL     OW80713   7.424   6.031   4.946  0.3320  0.2093 -0.2993
26325SOL    HW180714   7.350   6.012   4.888 -0.6536  3.4900 -0.3525
26325SOL    HW280715   7.494   6.058   4.886  0.9955 -1.0833 -0.1433
26326SOL     OW80716   4.866   9.064   8.562  0.2528 -0.5078 -0.0652
26326SOL    HW180717   4.831   9.056   8.473 -0.0442  0.1716 -0.0140
26326SOL    HW280718   4.793   9.038   8.618 -0.0473  0.4713  0.0242
26327SOL     OW80719   3.357   0.121   2.084  0.4034 -0.0015  0.5779
26327SOL    HW180720   3.374   0.109   2.177  0.5611 -0.9483  0.4481
26327SOL    HW280721   3.379   0.212   2.066  2.3484 -0.3372  1.0658
26328SOL     OW80722   7.017   2.437   9.110 -0.5527  0.6546  0.3800
26328SOL    HW180723   6.990   2.345   9.114 -1.2317  0.8060 -0.4115
26328SOL    HW280724   6.936   2.486   9.125 -0.2424  1.1197  0.5428
26329SOL     OW80725   6.205   5.738   9.263 -0.2666 -0.6352  0.2997
26329SOL    HW180726   6.246   5.741   9.350 -0.0369 -2.2871  0.2734
26329SOL    HW280727   6.133   5.800   9.269  0.0658 -0.3359  1.5035
26330SOL     OW80728   8.818   1.502   8.772 -0.2584 -0.1138  0.0449
26330SOL    HW180729   8.872   1.525   8.848 -0.3014 -0.8434  0.3082
26330SOL    HW280730   8.857   1.420   8.740 -1.0410 -0.5110  0.0814
26331SOL     OW80731   7.223   3.435   6.628  0.8166 -0.4827  0.3808
26331SOL    HW180732   7.148   3.492   6.612 -0.2193 -1.8105  0.3426
26331SOL    HW280733   7.263   3.424   6.542 -0.4392 -1.7523 -0.0788
26332SOL     OW80734   0.669   6.168   9.457  0.0944  0.0518  0.3655
26332SOL    HW180735   0.622   6.150   9.538 -1.9343  1.0086 -0.5353
26332SOL    HW280736   0.658   6.090   9.404 -0.2859  0.1768  0.2565
26333SOL     OW80737   0.554   0.646   7.751 -0.2198  0.0418  0.6336
26333SOL    HW180738   0.575   0.606   7.667 -0.4040 -1.1411  1.1299
26333SOL    HW280739   0.602   0.594   7.815 -1.8281 -0.5043  1.4599
26334SOL     OW80740   5.062   5.701   0.482  0.3514 -0.8294  0.3033
26334SOL    HW180741   5.016   5.741   0.408  0.0919 -0.6795  0.5418
26334SOL    HW280742   5.155   5.709   0.460  0.3121  0.0397  0.4140
26335SOL     OW80743   5.629   2.598   7.729 -0.0838  0.2886  0.0072
26335SOL    HW180744   5.681   2.672   7.760  0.3964 -0.3560  0.7842
26335SOL    HW280745   5.683   2.521   7.747 -0.4553 -0.2362 -1.0447
26336SOL     OW80746   0.187   8.255   6.810  0.3804  0.4416 -0.3162
26336SOL    HW180747   0.136   8.176   6.826  2.4281 -1.1329 -1.1250
26336SOL    HW280748   0.179   8.271   6.716  0.7697  0.6221 -0.3212
26337SOL     OW80749   1.816   8.728   2.803 -0.3362  0.0918  0.1151
26337SOL    HW180750   1.772   8.668   2.864  0.7123  0.9181  1.7421
26337SOL    HW280751   1.909   8.716   2.819 -0.0562  0.8983 -0.7893
26338SOL     OW80752   7.859   3.746   5.416  0.1293  0.3076  0.3300
26338SOL    HW180753   7.911   3.670   5.441 -0.9295 -0.1109  1.3702
26338SOL    HW280754   7.859   3.802   5.494  0.6660  1.2480 -0.3299
26339SOL     OW80755   6.878   5.712   6.505  0.5471 -0.1940 -0.7765
26339SOL    HW180756   6.964   5.699   6.545  0.6670  0.7641 -0.7177
26339SOL    HW280757   6.818   5.717   6.579  0.1866 -2.3674 -0.8373
26340SOL     OW80758   0.552   3.828   5.615  0.3995 -0.2208  0.7437
26340SOL    HW180759   0.467   3.796   5.645 -0.2677 -1.1272 -1.8700
26340SOL    HW280760   0.554   3.919   5.644 -1.9230  0.1136  0.1114
26341SOL     OW80761   1.791   5.103   3.413  0.1191 -0.1149 -0.0431
26341SOL    HW180762   1.772   5.076   3.503 -0.7943  0.3567 -0.0804
26341SOL    HW280763   1.793   5.199   3.416 -0.6986 -0.0665 -0.6592
26342SOL     OW80764   8.702   8.126   7.268  0.3345 -0.1321  0.3718
26342SOL    HW180765   8.684   8.097   7.358  0.6968  1.3762  0.9567
26342SOL    HW280766   8.672   8.217   7.266  2.4854  0.6196 -0.3310
26343SOL     OW80767   7.352   5.167   7.913 -0.6413 -0.2657 -0.3856
26343SOL    HW180768   7.366   5.086   7.963  1.7224  0.3813  0.1440
26343SOL    HW280769   7.354   5.140   7.822 -1.5533 -1.0130 -0.1960
26344SOL     OW80770   1.525   4.898   4.890  0.3341  0.0670 -0.2743
26344SOL    HW180771   1.437   4.920   4.861  0.0032 -2.5669 -1.5601
26344SOL    HW280772   1.513   4.864   4.979  0.2163  0.6832 -0.0509
26345SOL     OW80773   7.202   2.954   2.709  0.2711 -0.1303  0.4054
26345SOL    HW180774   7.209   2.928   2.800  1.5776 -1.1098  0.0500
26345SOL    HW280775   7.129   2.903   2.674  0.3118 -0.3821  0.6927
26346SOL     OW80776   7.595   1.582   1.845 -0.3369 -0.2455 -0.2126
26346SOL    HW180777   7.645   1.663   1.857  1.6886 -1.6102  1.4266
26346SOL    HW280778   7.503   1.610   1.846  0.2832  1.9961  0.5753
26347SOL     OW80779   8.167   2.752   0.070  0.0210 -0.1349  0.6969
26347SOL    HW180780   8.130   2.701   0.143 -0.5687 -0.5415  0.1283
26347SOL    HW280781   8.158   2.694  -0.006  1.6736 -0.1712  0.4956
26348SOL     OW80782   6.309   9.048   9.318 -0.0195  0.0504 -0.5281
26348SOL    HW180783   6.294   8.987   9.390  0.9550  1.7961  1.2587
26348SOL    HW280784   6.221   9.067   9.284 -0.9889  1.6944  2.4658
26349SOL     OW80785   0.024   0.583   0.836 -0.2281 -0.6145 -0.1381
26349SOL    HW180786   0.116   0.575   0.811  0.0213 -0.3233  0.6565
26349SOL    HW280787   0.026   0.607   0.929 -1.1223 -1.4654  0.1132
26350SOL     OW80788   8.259   1.817   4.224  0.6624  0.4512  0.1496
26350SOL    HW180789   8.317   1.752   4.186  1.0417  0.8012  0.1160
26350SOL    HW280790   8.308   1.899   4.218  0.0754  0.7946 -0.0842
26351SOL     OW80791   8.162   5.876   5.952  0.4261  0.3044 -0.2910
26351SOL    HW180792   8.180   5.836   5.867  0.3385 -0.7113  0.1458
26351SOL    HW280793   8.248   5.893   5.990  0.4684 -0.0681 -0.2169
26352SOL     OW80794   7.712   1.542   9.419  0.4934  0.3471  0.3302
26352SOL    HW180795   7.758   1.546   9.503  0.2700  1.1864  0.4237
26352SOL    HW280796   7.745   1.618   9.370 -1.4810  1.5510  0.7708
26353SOL     OW80797   4.643   4.041   8.955  0.1232  0.1040  0.1594
26353SOL    HW180798   4.668   3.966   9.010 -0.3332  0.4779  0.8801
26353SOL    HW280799   4.560   4.070   8.990  0.1852  0.8160 -0.2714
26354SOL     OW80800   4.751   5.116   4.349  0.0809 -0.1041  0.1705
26354SOL    HW180801   4.845   5.102   4.339  0.0698 -0.4994  0.5915
26354SOL    HW280802   4.731   5.187   4.289  0.5691 -0.3204 -0.2559
26355SOL     OW80803   9.540   2.146   0.676 -0.1145 -0.1765 -0.3792
26355SOL    HW180804   9.503   2.231   0.701 -0.9772 -0.1140 -1.7437
26355SOL    HW280805   9.602   2.168   0.606  0.7480 -0.5394  0.2547
26356SOL     OW80806   4.204   0.449   2.436 -0.1543 -0.1945  0.4698
26356SOL    HW180807   4.125   0.443   2.383  0.4409 -1.2309 -0.3576
26356SOL    HW280808   4.175   0.434   2.526 -0.8552 -0.9097  0.1373
26357SOL     OW80809   0.259   0.336   3.396 -0.4076 -0.6467 -0.6178
26357SOL    HW180810   0.354   0.336   3.382 -0.3856  1.9490 -0.9535
26357SOL    HW280811   0.238   0.244   3.414  2.4836 -1.0214  1.6967
26358SOL     OW80812   1.401   1.845   7.344 -0.2665  0.1607 -0.0929
26358SOL    HW180813   1.429   1.929   7.380 -1.2524  0.3867  0.1699
26358SOL    HW280814   1.452   1.836   7.263 -1.5491  1.9911 -1.2002
26359SOL     OW80815   7.782   7.075   3.765 -0.1828  0.5949 -0.3459
26359SOL    HW180816   7.735   7.026   3.833  2.3877 -0.9293  0.5103
26359SOL    HW280817   7.800   7.010   3.698  2.5438  0.4627  0.3996
26360SOL     OW80818   1.520   7.768   1.293  0.5273 -0.3320  0.2624
26360SOL    HW180819   1.552   7.793   1.380 -1.6696 -0.1994  1.1005
26360SOL    HW280820   1.477   7.847   1.260 -0.6887 -1.0242  0.0984
26361SOL     OW80821   9.485   5.264   0.550  0.5655  0.0060 -0.5383
26361SOL    HW180822   9.503   5.179   0.589 -0.6164  0.2202  0.5493
26361SOL    HW280823   9.392   5.260   0.527  0.5443  0.9404 -0.6424
26362SOL     OW80824   9.024   5.609   3.992 -0.8448 -0.8128 -0.6729
26362SOL    HW180825   9.030   5.558   3.912  0.6968 -0.8458 -0.5609
26362SOL    HW280826   9.078   5.687   3.975 -0.0705 -1.0707  0.5004
26363SOL     OW80827   0.592   4.644   2.962  0.5095  0.0494  0.4815
26363SOL    HW180828   0.547   4.563   2.987  0.8122 -0.1842  0.2745
26363SOL    HW280829   0.542   4.676   2.886  1.8049 -1.2365 -0.9940
26364SOL     OW80830   4.023   5.252   8.180  0.6538  0.3831 -0.2117
26364SOL    HW180831   4.100   5.297   8.146 -0.2629  1.5421 -0.8628
26364SOL    HW280832   4.003   5.296   8.262 -0.7463  1.8467 -1.2619
26365SOL     OW80833   6.039   0.420   4.723  0.3431 -0.7574  0.3546
26365SOL    HW180834   6.026   0.363   4.798  1.8090 -0.5682  0.7818
26365SOL    HW280835   6.031   0.509   4.758 -1.2766 -0.6494 -0.1839
26366SOL     OW80836   8.549   5.050   6.511 -0.3759  0.2781 -0.4854
26366SOL    HW180837   8.612   4.982   6.535 -0.6650  0.2424  0.2180
26366SOL    HW280838   8.520   5.086   6.595 -1.5067  0.0827 -0.7785
26367SOL     OW80839   6.603   8.060   6.161 -0.7702 -0.2433 -0.0524
26367SOL    HW180840   6.668   8.129   6.170 -0.7239 -0.1998 -0.6390
26367SOL    HW280841   6.653   7.980   6.147 -0.8339 -0.2750 -0.1024
26368SOL     OW80842   4.057   7.579   5.271 -0.3273 -0.1988 -0.0318
26368SOL    HW180843   4.133   7.637   5.282 -0.8337  0.7030 -1.0885
26368SOL    HW280844   4.086   7.513   5.208  0.3739 -1.3669  1.4553
26369SOL     OW80845   7.716   1.169   7.901  0.4584  0.3177  0.0023
26369SOL    HW180846   7.704   1.087   7.948  0.9627  0.8965  1.1886
26369SOL    HW280847   7.641   1.223   7.926  0.6038  0.5426 -0.0358
26370SOL     OW80848   4.696   8.252   1.675 -0.5966 -0.1605 -0.1133
26370SOL    HW180849   4.750   8.329   1.692 -1.9871  0.4811  1.8139
26370SOL    HW280850   4.734   8.183   1.730 -0.3804 -0.3518 -0.5032
26371SOL     OW80851   6.822   4.372   9.147 -0.2889  0.6151  0.4981
26371SOL    HW180852   6.896   4.313   9.137 -1.4148 -0.5720 -1.3990
26371SOL    HW280853   6.847   4.451   9.100 -0.3268  0.1070 -0.3884
26372SOL     OW80854   0.942   9.543   8.262  0.6493 -0.0858  0.1290
26372SOL    HW180855   0.919   9.461   8.308  0.6569 -0.4947 -0.5845
26372SOL    HW280856   1.019   9.520   8.210  0.0079  0.0713 -0.9215
26373SOL     OW80857   8.071   7.781   3.016  1.0125 -0.3721 -1.2385
26373SOL    HW180858   8.124   7.708   2.985  1.5655 -0.6396  0.2421
26373SOL    HW280859   8.086   7.783   3.111  0.1787  1.0010 -1.1062
26374SOL     OW80860   5.914   8.937   5.602 -0.3225 -0.1363  0.2664
26374SOL    HW180861   5.921   9.014   5.659 -0.8762  1.4627 -1.6955
26374SOL    HW280862   5.823   8.909   5.610 -0.4223  0.1408  0.1444
26375SOL     OW80863   2.628   8.941   5.135  0.3904  0.1489  0.0763
26375SOL    HW180864   2.592   8.925   5.222 -1.5816 -1.6405 -0.9673
26375SOL    HW280865   2.723   8.942   5.148  0.1300  0.5286  2.3054
26376SOL     OW80866   8.211   8.616   5.391  0.4512  0.2675 -0.2548
26376SOL    HW180867   8.126   8.591   5.355  1.2427  0.1194 -2.1458
26376SOL    HW280868   8.253   8.532   5.413  0.5489  0.2775 -0.4013
26377SOL     OW80869   7.570   9.053   3.006  0.6098 -0.1708  0.2616
26377SOL    HW180870   7.660   9.080   2.990  0.4049  0.2446 -0.2315
26377SOL    HW280871   7.523   9.078   2.926 -0.1616  0.6590  0.9544
26378SOL     OW80872   3.704   7.983   5.792 -0.1384 -0.4153  0.4583
26378SOL    HW180873   3.764   8.053   5.765 -0.2271 -0.5022  0.0157
26378SOL    HW280874   3.728   7.964   5.882 -1.2006  1.3355  1.1530
26379SOL     OW80875   7.721   1.175   5.981 -0.4338  0.4488  0.3362
26379SOL    HW180876   7.763   1.260   5.971  1.6022 -0.3445  1.5619
26379SOL    HW280877   7.627   1.194   5.975 -0.0452  2.7519  0.5739
26380SOL     OW80878   1.495   1.729   1.197  0.0240 -0.4751  0.4196
26380SOL    HW180879   1.561   1.799   1.191 -0.3329  0.0067  1.7363
26380SOL    HW280880   1.537   1.652   1.159  0.5604  0.3536 -0.7251
26381SOL     OW80881   0.945   7.707   5.619  0.7920  0.2958 -0.1238
26381SOL    HW180882   0.918   7.790   5.657 -0.5291  1.2421 -2.8820
26381SOL    HW280883   0.870   7.649   5.630  0.8165  0.2311 -0.2838
26382SOL     OW80884   3.559   0.399   5.522 -0.2548  0.1940 -0.0526
26382SOL    HW180885   3.567   0.493   5.539  3.2470 -0.0318  0.2819
26382SOL    HW280886   3.532   0.362   5.606 -1.5931  0.8310 -0.1673
26383SOL     OW80887   1.899   5.337   2.383  0.3837  0.0337  0.5090
26383SOL    HW180888   1.917   5.243   2.382 -1.2233 -0.3169 -1.5197
26383SOL    HW280889   1.804   5.344   2.378  0.4186  1.7937  1.4757
26384SOL     OW80890   3.089   3.133   7.572  0.1563  0.3383  0.6609
26384SOL    HW180891   3.069   3.204   7.633  2.2983  1.0439  0.6177
26384SOL    HW280892   3.005   3.088   7.560 -0.8653  1.7227  2.1210
26385SOL     OW80893   1.855   7.917   9.579 -0.1123 -0.2060  0.1085
26385SOL    HW180894   1.861   7.997   9.526  0.8514 -0.4884 -0.2284
26385SOL    HW280895   1.762   7.893   9.576  0.1886 -1.5799 -3.5829
26386SOL     OW80896   5.437   4.998   3.109  0.1445  0.2261 -0.1301
26386SOL    HW180897   5.356   5.048   3.094  1.2878  2.0496 -0.5195
26386SOL    HW280898   5.470   4.979   3.022  1.4125  1.7300 -0.0201
26387SOL     OW80899   6.849   5.301   7.220  0.0331  0.7092  0.2074
26387SOL    HW180900   6.755   5.285   7.210 -0.1198  2.6011 -2.7134
26387SOL    HW280901   6.887   5.265   7.140  2.2958 -2.2949  2.3799
26388SOL     OW80902   6.659   1.725   6.743 -0.1048  0.0611 -0.3550
26388SOL    HW180903   6.653   1.726   6.839 -0.5885 -0.6949 -0.3672
26388SOL    HW280904   6.751   1.743   6.725 -0.5232  3.2530  0.1335
26389SOL     OW80905   0.614   2.297   0.353 -0.6245  0.2181 -0.1761
26389SOL    HW180906   0.559   2.351   0.409 -1.7683 -1.3349  0.2587
26389SOL    HW280907   0.556   2.267   0.283  0.1319  0.0091 -0.7321
26390SOL     OW80908   2.170   1.216   5.408  0.1418 -0.7524 -0.0033
26390SOL    HW180909   2.145   1.125   5.420 -1.7925 -0.3766 -0.7172
26390SOL    HW280910   2.120   1.245   5.331 -0.5192  1.3122  1.1153
26391SOL     OW80911   5.228   1.801   6.447  0.0213 -0.8467 -0.4071
26391SOL    HW180912   5.183   1.740   6.388 -0.5234  0.4424 -1.3920
26391SOL    HW280913   5.168   1.812   6.521  0.9441 -2.8914  0.7260
26392SOL     OW80914   3.748   4.790   0.583 -0.5877  0.3309  0.1540
26392SOL    HW180915   3.731   4.714   0.640 -2.2545  0.3267 -0.2942
26392SOL    HW280916   3.671   4.846   0.596  0.5427  1.8782  0.3428
26393SOL     OW80917   8.359   0.945   4.939 -0.0530  0.2673  0.4507
26393SOL    HW180918   8.286   0.943   4.877  0.0956  0.4908  0.2687
26393SOL    HW280919   8.424   1.002   4.899  0.6222 -0.6742  0.1647
26394SOL     OW80920   2.646   8.392   6.019  0.0131  0.4536 -0.1556
26394SOL    HW180921   2.626   8.478   6.055  1.9995  0.5474  0.8896
26394SOL    HW280922   2.662   8.408   5.926 -1.5214  0.8557 -0.3654
26395SOL     OW80923   7.302   2.919   4.140 -0.4958 -0.4758 -0.0392
26395SOL    HW180924   7.384   2.969   4.132  0.4839 -1.9681  0.2069
26395SOL    HW280925   7.284   2.917   4.234 -0.0577 -1.2615  0.0426
26396SOL     OW80926   9.035   1.190   6.197  0.5978 -0.2551 -0.4023
26396SOL    HW180927   9.003   1.264   6.249  1.2294 -0.6997  0.6419
26396SOL    HW280928   9.102   1.229   6.140 -1.8346  0.7403 -2.8126
26397SOL     OW80929   5.465   0.706   2.795 -0.3596 -0.1883 -0.3921
26397SOL    HW180930   5.483   0.739   2.707 -0.3969  0.0201 -0.3218
26397SOL    HW280931   5.538   0.648   2.814 -1.6983 -2.4602 -1.6621
26398SOL     OW80932   0.224   0.730   7.569 -0.1095  0.0317 -0.0925
26398SOL    HW180933   0.216   0.820   7.601 -0.6546  0.2609 -0.8221
26398SOL    HW280934   0.287   0.737   7.497 -0.5761 -0.0618 -0.5147
26399SOL     OW80935   4.972   0.060   3.420  0.2049 -0.8133  0.2269
26399SOL    HW180936   4.929   0.093   3.499  1.3600  0.6943  0.2623
26399SOL    HW280937   4.973   0.133   3.360  1.7752 -1.0936 -0.1491
26400SOL     OW80938   4.882   9.368   2.724  0.7889  0.3946  0.2212
26400SOL    HW180939   4.884   9.448   2.776 -0.1039  2.7283 -3.0871
26400SOL    HW280940   4.974   9.350   2.704  0.9156  1.4098 -0.1459
26401SOL     OW80941   5.709   2.562   0.964 -0.2960 -0.1543 -0.1573
26401SOL    HW180942   5.667   2.646   0.947  0.4832  0.5524  1.2155
26401SOL    HW280943   5.698   2.549   1.059 -0.1103 -1.4339 -0.2964
26402SOL     OW80944   3.511   4.520   7.727 -0.5672 -0.6334 -0.2342
26402SOL    HW180945   3.575   4.474   7.782 -0.9983 -2.8250 -1.4462
26402SOL    HW280946   3.472   4.585   7.785  0.9239 -0.9836  1.2529
26403SOL     OW80947   5.017   6.808   9.448 -0.4655 -0.4242 -0.1911
26403SOL    HW180948   4.942   6.762   9.412 -0.4463 -0.7169  0.1286
26403SOL    HW280949   4.992   6.827   9.539  0.7674 -2.7508  0.7301
26404SOL     OW80950   5.861   8.802   6.983  0.2550 -0.6707  0.4555
26404SOL    HW180951   5.894   8.862   6.915  0.2016 -2.0576 -0.8408
26404SOL    HW280952   5.857   8.717   6.940 -1.2661 -1.3083  1.7642
26405SOL     OW80953   8.764   7.350   9.269  0.0164 -0.0056 -0.3668
26405SOL    HW180954   8.807   7.266   9.287 -0.1209 -0.2966 -1.3524
26405SOL    HW280955   8.812   7.386   9.195 -0.7766  0.1569 -0.8061
26406SOL     OW80956   4.562   0.593   7.609 -0.2679 -0.5410  0.8152
26406SOL    HW180957   4.483   0.541   7.624 -0.6317 -0.2589 -0.0471
26406SOL    HW280958   4.528   0.678   7.580  0.3504 -0.3715  0.5828
26407SOL     OW80959   7.671   6.936   2.016 -0.1996 -0.1704  0.4596
26407SOL    HW180960   7.736   6.940   2.086 -0.6259 -0.7036  0.8993
26407SOL    HW280961   7.607   7.004   2.037  1.1222  1.5922 -0.9418
26408SOL     OW80962   0.097   2.256   5.044  0.9249 -0.2137 -0.1938
26408SOL    HW180963   0.076   2.322   4.978  1.7385  0.2542  0.0090
26408SOL    HW280964   0.065   2.293   5.126  0.0208 -0.7440 -0.2843
26409SOL     OW80965   7.956   9.568   9.465  0.3208 -0.1010  0.1880
26409SOL    HW180966   7.865   9.555   9.438 -0.3133  3.4134  0.1083
26409SOL    HW280967   8.007   9.560   9.385 -0.6028  2.6020 -0.7837
26410SOL     OW80968   4.831   8.511   3.920 -0.2393  0.0426 -0.3767
26410SOL    HW180969   4.899   8.462   3.968  0.1874  1.1265  0.1543
26410SOL    HW280970   4.860   8.509   3.829 -1.6983 -3.1253 -0.8972
26411SOL     OW80971   4.214   3.917   8.412  0.2676 -0.3519  0.1336
26411SOL    HW180972   4.298   3.962   8.417  0.3051 -0.2449 -1.0283
26411SOL    HW280973   4.180   3.942   8.326 -0.6867 -0.8524  0.3604
26412SOL     OW80974   1.293   0.997   1.067 -0.4750  0.5145 -0.6516
26412SOL    HW180975   1.232   1.048   1.120  1.8714  1.0377  1.7557
26412SOL    HW280976   1.378   1.010   1.109  0.8576 -2.3827 -2.1680
26413SOL     OW80977   8.321   3.966   2.122  0.0591 -0.8736  0.1350
26413SOL    HW180978   8.246   3.907   2.112 -0.7168 -0.0166  0.7208
26413SOL    HW280979   8.300   4.040   2.064 -0.7034  0.4656  2.0250
26414SOL     OW80980   0.091   0.374   5.889 -0.4752  0.2184 -0.0194
26414SOL    HW180981   0.070   0.297   5.941 -0.5932  0.2442 -0.0304
26414SOL    HW280982   0.167   0.348   5.836 -0.8165 -0.0440 -0.3815
26415SOL     OW80983   5.929   0.715   1.383 -0.2709  0.0311  0.5383
26415SOL    HW180984   5.932   0.709   1.478  1.9443  1.9137  0.6751
26415SOL    HW280985   5.983   0.641   1.353  0.6044  0.5212  0.8583
26416SOL     OW80986   8.633   0.142   4.705  0.2709 -0.2082 -0.4633
26416SOL    HW180987   8.664   0.109   4.789  0.2335  1.9713  0.4706
26416SOL    HW280988   8.685   0.094   4.640 -0.5143 -2.7863  0.6897
26417SOL     OW80989   7.021   7.869   3.352  0.1122 -0.5300 -0.7710
26417SOL    HW180990   7.079   7.928   3.303 -0.8320 -0.7644 -2.2259
26417SOL    HW280991   6.957   7.928   3.394  0.7531 -0.3504 -0.0187
26418SOL     OW80992   5.525   8.057   7.545  0.0143  0.1133 -0.3828
26418SOL    HW180993   5.532   8.081   7.637  0.6513 -0.6394 -0.2219
26418SOL    HW280994   5.433   8.033   7.533 -0.6969  2.6680 -0.5877
26419SOL     OW80995   3.265   4.359   4.864 -0.3220 -0.5198 -0.3461
26419SOL    HW180996   3.291   4.269   4.883 -0.1239 -0.3724  0.0863
26419SOL    HW280997   3.230   4.392   4.946 -0.5815 -0.2637 -0.5567
26420SOL     OW80998   4.920   9.360   4.314  0.1464  0.0139  0.7066
26420SOL    HW180999   4.836   9.405   4.328 -0.2380 -0.2933 -0.4525
26420SOL    HW281000   4.935   9.368   4.219  0.2047 -2.0045  0.5030
26421SOL     OW81001   8.071   3.463   0.352 -0.5336 -0.0703 -0.3299
26421SOL    HW181002   8.144   3.513   0.317 -1.4916  0.8396 -1.0725
26421SOL    HW281003   8.064   3.386   0.295  0.1323 -0.4046  0.0337
26422SOL     OW81004   3.284   4.815   7.141  0.2877  0.4208  0.2875
26422SOL    HW181005   3.249   4.899   7.112  0.8255  0.8499  0.8366
26422SOL    HW281006   3.207   4.763   7.163 -0.1830 -0.1880 -2.4761
26423SOL     OW81007   3.875   9.286   5.389 -0.2850 -0.4250  0.2581
26423SOL    HW181008   3.914   9.221   5.331 -0.5916 -1.8105  1.5494
26423SOL    HW281009   3.783   9.261   5.395 -0.3090 -0.1553  1.1437
26424SOL     OW81010   5.927   9.503   7.390 -0.4435  0.1473  0.2619
26424SOL    HW181011   5.847   9.500   7.338 -0.6354  0.0429  0.5596
26424SOL    HW281012   5.957   9.413   7.393 -0.8421  0.0307  0.9545
26425SOL     OW81013   2.063   2.453   4.468 -0.3693 -0.3284 -0.0777
26425SOL    HW181014   2.123   2.379   4.480 -0.2209 -0.1824  0.0856
26425SOL    HW281015   1.980   2.413   4.445 -0.6046 -0.6008  1.1797
26426SOL     OW81016   4.266   4.370   5.174 -0.6053 -0.1469  0.0060
26426SOL    HW181017   4.317   4.297   5.139 -1.4176  0.1363 -1.9056
26426SOL    HW281018   4.175   4.349   5.152 -1.0532  0.5875  1.0631
26427SOL     OW81019   8.473   5.521   1.669  0.5797 -0.1946 -0.5781
26427SOL    HW181020   8.389   5.495   1.708 -0.3586  0.6236 -1.9606
26427SOL    HW281021   8.521   5.562   1.741 -0.2708 -0.5287  0.2017
26428SOL     OW81022   1.207   8.421   7.735  0.1283  0.0555 -0.0412
26428SOL    HW181023   1.223   8.337   7.779 -0.3244 -0.8005 -1.4338
26428SOL    HW281024   1.113   8.422   7.720 -0.3901  2.1943  2.5257
26429SOL     OW81025   8.847   8.447   0.220  0.0782  0.2047 -0.3453
26429SOL    HW181026   8.757   8.433   0.247  0.0698  2.4325  0.9834
26429SOL    HW281027   8.872   8.364   0.178 -1.6732 -1.4951  1.6986
26430SOL     OW81028   3.635   6.430   6.146 -0.2881  0.2763 -0.4604
26430SOL    HW181029   3.667   6.495   6.083  0.1700  0.9146  0.3956
26430SOL    HW281030   3.560   6.472   6.188 -0.7719 -0.2607 -0.7783
26431SOL     OW81031   1.417   5.595   3.391  0.0411 -0.3482 -0.6066
26431SOL    HW181032   1.364   5.662   3.435  2.5126  2.1098 -1.0899
26431SOL    HW281033   1.403   5.613   3.298  0.7393 -0.4754 -0.7374
26432SOL     OW81034   8.514   0.238   8.182  0.1854  0.4045  0.3711
26432SOL    HW181035   8.576   0.166   8.190  0.4251  0.6140  0.4019
26432SOL    HW281036   8.564   0.316   8.205 -0.1652  0.5414  0.6926
26433SOL     OW81037   3.451   7.108   3.647  0.1794 -0.3592  0.7512
26433SOL    HW181038   3.465   7.060   3.729  1.8012  0.5120  1.0375
26433SOL    HW281039   3.537   7.108   3.605 -0.2308  0.6778 -0.1246
26434SOL     OW81040   2.833   3.683   3.844  0.3100 -0.2332  0.1762
26434SOL    HW181041   2.785   3.606   3.813  0.6885 -1.4513  2.3574
26434SOL    HW281042   2.853   3.733   3.765 -1.3071 -1.5633 -1.1588
26435SOL     OW81043   4.043   3.162   4.870 -0.2939  0.9586 -0.1069
26435SOL    HW181044   4.118   3.210   4.836 -0.3748  1.5207  0.4905
26435SOL    HW281045   3.967   3.213   4.843 -0.3809  1.1761  0.5242
26436SOL     OW81046   6.531   3.108   4.708 -0.2718  0.8476 -0.1995
26436SOL    HW181047   6.494   3.022   4.692 -0.7135  0.9998 -0.0273
26436SOL    HW281048   6.456   3.167   4.706 -0.3264  0.9470  1.8863
26437SOL     OW81049   4.446   3.931   0.946  0.6217  0.1851  0.5191
26437SOL    HW181050   4.540   3.935   0.931  0.5508  0.9925  0.2359
26437SOL    HW281051   4.414   3.871   0.878  0.6613  1.6769 -0.8874
26438SOL     OW81052   2.496   1.016   6.335  0.2936  0.2099 -0.3554
26438SOL    HW181053   2.568   1.046   6.390 -0.0045  0.1601  0.0715
26438SOL    HW281054   2.536   0.956   6.272  0.4485 -0.7186  0.6066
26439SOL     OW81055   7.428   2.480   4.422  0.6441 -0.3237 -0.1373
26439SOL    HW181056   7.347   2.503   4.467  1.2338  1.3875  0.1258
26439SOL    HW281057   7.416   2.389   4.395 -1.3249 -0.1243 -0.0536
26440SOL     OW81058   3.089   4.593   7.627  0.0131  0.4788  0.2044
26440SOL    HW181059   3.183   4.602   7.609  0.2088  0.1987  1.0459
26440SOL    HW281060   3.078   4.625   7.716 -0.5205 -0.4269  0.4769
26441SOL     OW81061   4.334   6.252   7.335  0.5269 -0.3479  0.1118
26441SOL    HW181062   4.260   6.312   7.324  0.2843 -0.0753  2.6450
26441SOL    HW281063   4.411   6.308   7.338  0.4416 -0.2518  1.0062
26442SOL     OW81064   2.174   4.309   9.286  0.2311 -0.2007 -0.1763
26442SOL    HW181065   2.179   4.404   9.275  0.8858 -0.2503 -0.3642
26442SOL    HW281066   2.224   4.291   9.366 -1.6556 -0.1915  1.0615
26443SOL     OW81067   4.009   3.555   4.122  0.3471 -0.3219  0.5415
26443SOL    HW181068   4.019   3.633   4.178  1.7110 -0.6946  0.8490
26443SOL    HW281069   4.049   3.581   4.039  0.7852 -0.6800  0.6391
26444SOL     OW81070   6.899   8.909   1.564 -0.1498 -0.1650  0.2443
26444SOL    HW181071   6.871   8.949   1.482  1.3430 -0.1373 -0.2811
26444SOL    HW281072   6.919   8.983   1.621  0.6915 -0.1456 -0.0539
26445SOL     OW81073   3.309   3.694   2.155  0.1886 -0.1783  0.2042
26445SOL    HW181074   3.345   3.783   2.154  0.4965 -0.1007  3.7026
26445SOL    HW281075   3.360   3.649   2.222 -1.6171 -2.2180  0.3136
26446SOL     OW81076   8.830   1.725   0.030 -0.6254  0.2194  0.0401
26446SOL    HW181077   8.875   1.779   0.095 -2.2534  0.8889  0.6760
26446SOL    HW281078   8.740   1.717   0.064 -1.1310 -0.6310 -1.4096
26447SOL     OW81079   0.881   7.135   6.168  0.0902  0.0980 -0.5288
26447SOL    HW181080   0.918   7.198   6.230 -0.1328  0.7947 -1.0835
26447SOL    HW281081   0.787   7.154   6.169  0.0720  0.0475 -0.9921
26448SOL     OW81082   9.438   8.616   1.116  0.6902  0.2109 -0.1186
26448SOL    HW181083   9.459   8.638   1.206 -0.3866  0.0454  0.1813
26448SOL    HW281084   9.520   8.631   1.068  0.6960  2.5306  0.4824
26449SOL     OW81085   2.486   4.831   5.319  0.2375  0.0277  0.3794
26449SOL    HW181086   2.521   4.880   5.245  1.2693 -1.6729 -0.2951
26449SOL    HW281087   2.512   4.882   5.396  0.5249  0.9779 -0.3267
26450SOL     OW81088   2.503   2.980   8.208  0.0936  0.4898  0.0963
26450SOL    HW181089   2.485   3.021   8.292 -0.3778  1.9611 -0.6881
26450SOL    HW281090   2.442   3.022   8.147 -0.4195 -1.4055 -0.7653
26451SOL     OW81091   9.577   6.424   2.810  0.1273  0.1399 -0.3180
26451SOL    HW181092   9.601   6.501   2.862 -0.0372 -0.6855  1.0542
26451SOL    HW281093   9.552   6.358   2.876 -0.3247 -0.8818 -1.4740
26452SOL     OW81094   9.390   2.398   3.560 -0.0867  0.0170  0.8061
26452SOL    HW181095   9.298   2.411   3.584  0.0278  0.1314  1.2041
26452SOL    HW281096   9.438   2.462   3.614  0.1847  0.2767  0.2660
26453SOL     OW81097   0.293   5.976   2.106 -0.0434  0.5046 -0.1794
26453SOL    HW181098   0.284   6.017   2.192  1.3641 -0.1777  0.3312
26453SOL    HW281099   0.387   5.982   2.086  0.2232 -2.2229 -0.1808
26454SOL     OW81100   1.288   5.353   3.050 -0.1728 -0.4780 -0.5089
26454SOL    HW181101   1.262   5.301   3.126 -0.1709 -0.6541 -0.6276
26454SOL    HW281102   1.382   5.367   3.061 -0.3717  0.4578  0.1030
26455SOL     OW81103   1.872   1.622   3.735 -0.3908 -0.0105 -0.2990
26455SOL    HW181104   1.944   1.683   3.715  1.5890 -1.4464  1.9147
26455SOL    HW281105   1.857   1.576   3.652  1.7692 -0.1414 -0.6903
26456SOL     OW81106   5.913   8.654   1.073 -0.3238  0.3491  0.2842
26456SOL    HW181107   5.828   8.619   1.049 -0.0997  0.1882 -0.2983
26456SOL    HW281108   5.959   8.580   1.114 -0.4964  0.4591  0.6746
26457SOL     OW81109   3.596   5.402   6.753  0.1253  0.1389  0.6288
26457SOL    HW181110   3.624   5.404   6.844  2.8505  0.9934 -0.1518
26457SOL    HW281111   3.539   5.479   6.743  0.4974  0.5203  1.4079
26458SOL     OW81112   3.214   4.600   4.682 -0.7814 -0.3578 -0.2219
26458SOL    HW181113   3.234   4.513   4.716 -0.7244  0.6861  2.7358
26458SOL    HW281114   3.278   4.615   4.612 -0.2674 -2.3382 -0.2253
26459SOL     OW81115   6.226   3.376   1.102  0.1664 -0.2717  0.1326
26459SOL    HW181116   6.142   3.378   1.147 -2.3918 -0.6093 -4.1409
26459SOL    HW281117   6.267   3.460   1.124 -1.8103  0.4449  1.3428
26460SOL     OW81118   6.779   7.575   7.490  0.7518  0.5298 -0.1763
26460SOL    HW181119   6.806   7.484   7.499  1.0839  0.6240 -0.2019
26460SOL    HW281120   6.721   7.576   7.415 -0.4469  0.0790  0.7164
26461SOL     OW81121   8.308   4.565   0.231  0.2176  0.1730  0.0990
26461SOL    HW181122   8.377   4.498   0.224 -1.5786 -1.8847  0.7771
26461SOL    HW281123   8.284   4.584   0.140  0.1255 -0.8452 -0.1052
26462SOL     OW81124   8.731   6.449   3.787 -0.1482 -0.4342  0.4625
26462SOL    HW181125   8.640   6.418   3.787 -0.6988  1.0510 -0.0085
26462SOL    HW281126   8.766   6.421   3.871 -0.8041 -1.6721  0.3481
26463SOL     OW81127   4.295   5.941   4.014 -0.3623 -0.2196  0.0001
26463SOL    HW181128   4.268   6.033   4.018 -0.3864 -0.2433  0.3493
26463SOL    HW281129   4.234   5.895   4.072  1.0724 -0.1232  1.6554
26464SOL     OW81130   6.267   7.303   2.467  0.2876  0.2213  0.0908
26464SOL    HW181131   6.352   7.296   2.511  1.0907 -3.1568 -1.6432
26464SOL    HW281132   6.287   7.350   2.385  0.4216 -0.2081 -0.1264
26465SOL     OW81133   5.939   8.454   3.863 -0.1885 -0.8061 -0.1098
26465SOL    HW181134   6.031   8.426   3.862 -0.2528 -1.0286 -1.1594
26465SOL    HW281135   5.901   8.409   3.939  0.9606  0.6904  1.4085
26466SOL     OW81136   8.669   1.184   9.187  0.1965 -1.0184 -0.2610
26466SOL    HW181137   8.638   1.100   9.221  1.2328 -1.9084 -1.4272
26466SOL    HW281138   8.694   1.166   9.097 -0.7300  0.8418 -0.9573
26467SOL     OW81139   1.386   9.233   1.523  0.4054  0.5820 -0.4251
26467SOL    HW181140   1.422   9.315   1.488  2.4806 -0.5056 -1.0278
26467SOL    HW281141   1.414   9.166   1.460 -1.1105 -0.6212  0.1243
26468SOL     OW81142   3.400   9.345   3.866  0.7838 -0.5295  0.5559
26468SOL    HW181143   3.459   9.291   3.918  1.5299 -0.2326  0.0381
26468SOL    HW281144   3.359   9.404   3.929 -0.2064 -1.8208  1.1660
26469SOL     OW81145   0.045   2.605   0.185 -0.0872 -0.0015 -0.4086
26469SOL    HW181146   0.005   2.564   0.262 -2.7644 -0.8517 -2.1201
26469SOL    HW281147   0.031   2.699   0.198 -1.1852 -0.1860 -0.1631
26470SOL     OW81148   9.094   6.059   0.763 -0.3789 -0.1602  0.2875
26470SOL    HW181149   9.126   6.104   0.841 -1.2318  1.0273 -0.0276
26470SOL    HW281150   9.172   6.051   0.708  0.0094 -0.0574  0.8060
26471SOL     OW81151   0.863   2.954   7.261 -0.1749 -0.8627  0.1742
26471SOL    HW181152   0.943   2.954   7.314 -1.1365 -2.5597  1.7612
26471SOL    HW281153   0.794   2.977   7.323 -1.0702 -0.5503 -0.9054
26472SOL     OW81154   7.409   3.412   7.835 -0.0131  0.0702  0.0409
26472SOL    HW181155   7.371   3.500   7.831 -0.1534 -0.0379 -2.0387
26472SOL    HW281156   7.334   3.353   7.824  0.1962 -0.2995  0.5424
26473SOL     OW81157   4.475   8.060   2.691 -0.1874  0.2753  0.6165
26473SOL    HW181158   4.464   7.975   2.649  0.6829  0.0710  0.7888
26473SOL    HW281159   4.436   8.049   2.778  1.0987 -0.3629  1.1331
26474SOL     OW81160   1.235   5.463   0.215  0.2593  0.4869 -0.1613
26474SOL    HW181161   1.324   5.457   0.248  0.1805  1.9260  0.3739
26474SOL    HW281162   1.230   5.397   0.145  1.2025 -0.8068  0.9511
26475SOL     OW81163   3.857   6.066   0.200  0.5968  0.2139 -0.0423
26475SOL    HW181164   3.897   6.001   0.141  0.2520 -1.9866  1.9796
26475SOL    HW281165   3.885   6.150   0.165 -0.3607 -0.8663 -3.8800
26476SOL     OW81166   4.729   3.826   3.299  0.9105  0.7336  0.3777
26476SOL    HW181167   4.819   3.855   3.315  0.8746  1.6394 -0.9057
26476SOL    HW281168   4.701   3.876   3.222 -0.4725 -0.0079  0.3688
26477SOL     OW81169   2.012   4.180   3.356  0.5881 -0.6788  0.0189
26477SOL    HW181170   2.009   4.111   3.422  0.6587  1.9065  2.9307
26477SOL    HW281171   1.920   4.196   3.334  0.4844 -0.7656  0.3874
26478SOL     OW81172   6.494   5.885   0.284  0.0069  0.0649 -0.0667
26478SOL    HW181173   6.583   5.906   0.254  0.9770 -1.2512  1.6792
26478SOL    HW281174   6.499   5.895   0.379 -1.3389 -1.3204  0.1817
26479SOL     OW81175   3.530   2.891   8.070  0.5244  0.6127 -0.1113
26479SOL    HW181176   3.503   2.805   8.101  0.2066  0.5045 -0.6766
26479SOL    HW281177   3.537   2.944   8.150  0.9900 -0.0020  0.2676
26480SOL     OW81178   8.388   2.632   2.366 -0.1602 -0.4226  0.0421
26480SOL    HW181179   8.309   2.639   2.312 -0.5880 -0.0918  0.6994
26480SOL    HW281180   8.409   2.722   2.390 -0.8698 -0.6582  1.6851
26481SOL     OW81181   6.272   3.627   7.099 -0.5277 -0.3054 -0.3330
26481SOL    HW181182   6.232   3.713   7.087  1.4547  0.5943 -0.9594
26481SOL    HW281183   6.285   3.594   7.010 -2.6700 -1.9934 -0.0808
26482SOL     OW81184   6.458   2.728   2.789  1.2321 -0.1614  0.0754
26482SOL    HW181185   6.441   2.756   2.699 -2.1914  1.9562  1.1577
26482SOL    HW281186   6.386   2.668   2.809  1.7383 -0.3464  1.4643
26483SOL     OW81187   4.117   6.431   3.272 -0.4362 -0.3459  0.0503
26483SOL    HW181188   4.190   6.409   3.215  0.1434  1.4070  0.0435
26483SOL    HW281189   4.045   6.375   3.243  0.0798 -0.0831 -1.8593
26484SOL     OW81190   3.354   2.281   1.914 -0.4454 -0.0867 -0.2589
26484SOL    HW181191   3.314   2.315   1.994 -0.6105 -1.5743  0.3359
26484SOL    HW281192   3.434   2.332   1.904  0.0138 -0.4290  1.3541
26485SOL     OW81193   1.325   7.079   1.835 -0.3009  0.1353  0.5432
26485SOL    HW181194   1.403   7.134   1.827 -0.1522  0.0195  1.1640
26485SOL    HW281195   1.260   7.136   1.875 -1.1408  0.8084 -1.6086
26486SOL     OW81196   3.141   1.679   3.039 -0.6908  0.3830  0.4769
26486SOL    HW181197   3.154   1.654   3.131 -0.6458 -1.5960 -0.0244
26486SOL    HW281198   3.047   1.687   3.029 -0.6794  0.9774  0.7602
26487SOL     OW81199   1.347   4.053   6.857  0.1974  0.8159 -0.0886
26487SOL    HW181200   1.332   4.145   6.878 -0.6335  0.2240  2.2858
26487SOL    HW281201   1.378   4.014   6.939  1.0248 -0.9320 -1.1577
26488SOL     OW81202   9.380   2.469   6.628 -0.2484 -0.2680  0.3781
26488SOL    HW181203   9.330   2.414   6.688 -1.1961  0.5782  0.3980
26488SOL    HW281204   9.435   2.523   6.685 -1.3074  0.6894  0.5253
26489SOL     OW81205   0.944   5.847   8.937  0.3308  0.3717 -0.4773
26489SOL    HW181206   0.907   5.837   8.849  0.1292  0.2010 -0.3755
26489SOL    HW281207   0.976   5.760   8.960 -1.1074  0.0110  0.2743
26490SOL     OW81208   1.825   0.090   5.169 -1.0604  0.7544  0.6377
26490SOL    HW181209   1.742   0.070   5.126 -0.8921  0.7378  0.3206
26490SOL    HW281210   1.809   0.070   5.261 -1.3238  0.4868  0.5364
26491SOL     OW81211   2.583   8.637   5.367  0.0476  0.2205 -0.0316
26491SOL    HW181212   2.618   8.551   5.391  0.1526  0.5500  1.0665
26491SOL    HW281213   2.489   8.623   5.357 -0.3330  0.3882  2.4787
26492SOL     OW81214   6.036   4.740   4.178  0.1666  0.6713  0.0666
26492SOL    HW181215   5.969   4.807   4.194 -0.3028 -0.1448  1.6872
26492SOL    HW281216   5.992   4.676   4.121 -0.1580  0.5579  0.4415
26493SOL     OW81217   0.191   1.563   9.329 -0.5895  0.2639 -0.3047
26493SOL    HW181218   0.249   1.562   9.252 -0.7195  1.1133 -0.4242
26493SOL    HW281219   0.174   1.656   9.345  1.3444  0.2918  2.2005
26494SOL     OW81220   1.643   2.438   2.848  0.0535 -0.0507 -0.3459
26494SOL    HW181221   1.676   2.381   2.780  0.8696 -0.5080  0.4127
26494SOL    HW281222   1.660   2.391   2.930  2.1412  1.8682  0.4280
26495SOL     OW81223   2.206   8.643   1.996 -0.0305  0.0331  0.0639
26495SOL    HW181224   2.242   8.570   2.046  2.0887  0.6679 -0.4475
26495SOL    HW281225   2.244   8.721   2.036 -1.9629  0.8681  0.3606
26496SOL     OW81226   6.636   0.093   7.504 -0.2777 -0.0060  0.4679
26496SOL    HW181227   6.678   0.009   7.520  1.7641  0.7339 -0.5490
26496SOL    HW281228   6.542   0.077   7.515 -0.0666 -2.7090 -0.9159
26497SOL     OW81229   5.494   8.124   3.767  0.0880  0.3313 -0.1843
26497SOL    HW181230   5.419   8.091   3.718 -0.4827  2.1603 -0.6397
26497SOL    HW281231   5.503   8.215   3.739  1.9805  0.3985  0.4770
26498SOL     OW81232   0.412   6.426   8.589  0.0015  0.2581 -0.1734
26498SOL    HW181233   0.393   6.383   8.671 -1.2020 -0.4008 -0.7734
26498SOL    HW281234   0.355   6.503   8.588 -2.1254 -1.2174 -1.5609
26499SOL     OW81235   7.341   7.984   1.849  0.0157  0.8051 -0.1422
26499SOL    HW181236   7.308   8.054   1.793 -0.6948  1.8291  1.4641
26499SOL    HW281237   7.382   8.030   1.923  0.5620 -0.4731  0.3781
26500SOL     OW81238   2.777   1.669   5.307  0.5145 -0.6350 -0.6097
26500SOL    HW181239   2.797   1.649   5.216 -2.4304 -1.2077 -1.2297
26500SOL    HW281240   2.778   1.584   5.352  1.7557 -0.3789 -0.0986
26501SOL     OW81241   7.223   0.103   9.326  0.2669  0.0660  0.0423
26501SOL    HW181242   7.132   0.116   9.301  0.2642 -2.8057 -1.8086
26501SOL    HW281243   7.274   0.131   9.250  0.9964  1.3649  0.9468
26502SOL     OW81244   2.801   3.907   1.901  0.1515  0.2286 -0.3457
26502SOL    HW181245   2.776   3.999   1.906 -1.9596 -0.3149  0.0398
26502SOL    HW281246   2.844   3.889   1.985  0.4936  0.8340 -0.3892
26503SOL     OW81247   7.592   5.726   3.231 -0.9735 -0.6737 -0.1517
26503SOL    HW181248   7.642   5.738   3.312 -0.7005  0.3362 -0.4591
26503SOL    HW281249   7.521   5.666   3.256 -1.2198  0.0501  0.9641
26504SOL     OW81250   4.677   5.455   3.963 -0.2174  0.2683  0.7033
26504SOL    HW181251   4.677   5.479   3.870  0.8676 -0.2549  0.5555
26504SOL    HW281252   4.620   5.378   3.968  0.1798 -0.0506  0.3708
26505SOL     OW81253   6.091   6.695   4.522 -0.2801  0.1311  0.5850
26505SOL    HW181254   6.124   6.774   4.565  0.1391  0.4918 -0.3684
26505SOL    HW281255   6.151   6.626   4.551  1.0806  0.6886 -0.7320
26506SOL     OW81256   7.525   1.345   7.990 -0.2212  0.4202  0.1156
26506SOL    HW181257   7.505   1.380   7.903  0.8167  1.4085  0.2530
26506SOL    HW281258   7.518   1.421   8.048 -0.9369 -0.2349  0.9120
26507SOL     OW81259   3.048   9.440   8.471 -0.0561 -0.1264 -0.0557
26507SOL    HW181260   3.007   9.426   8.385 -1.8571 -0.4314  0.8225
26507SOL    HW281261   2.988   9.498   8.517  0.6365 -0.3851  1.1949
26508SOL     OW81262   7.843   4.324   6.694  0.2664 -0.5507 -0.2942
26508SOL    HW181263   7.862   4.403   6.745 -1.6815 -0.6353  0.6375
26508SOL    HW281264   7.925   4.274   6.696  0.4967 -0.1615  2.0738
26509SOL     OW81265   2.925   6.883   2.415 -0.0504  0.1930 -0.2947
26509SOL    HW181266   2.869   6.805   2.409  0.6898 -0.2693 -1.9432
26509SOL    HW281267   2.864   6.956   2.407 -0.6964 -0.2228  0.6540
26510SOL     OW81268   4.371   3.236   0.814 -0.0442 -0.3377  0.1873
26510SOL    HW181269   4.338   3.194   0.734 -1.3852 -0.3594  0.7282
26510SOL    HW281270   4.295   3.239   0.873  0.4460  1.3710  0.7813
26511SOL     OW81271   0.855   2.400   9.283 -0.5542  0.1903  0.7414
26511SOL    HW181272   0.915   2.365   9.349 -1.2620  1.4139  2.0863
26511SOL    HW281273   0.811   2.472   9.327 -2.1549  0.0821 -0.6044
26512SOL     OW81274   4.357   8.074   1.374 -0.0639 -0.2602  0.0741
26512SOL    HW181275   4.332   7.991   1.332  1.9413 -0.3557 -1.0155
26512SOL    HW281276   4.312   8.141   1.322 -2.7936 -0.6217  1.7578
26513SOL     OW81277   4.946   1.071   1.043  0.5856 -0.4582 -0.0914
26513SOL    HW181278   5.023   1.049   1.095 -0.6127  1.3874  2.7225
26513SOL    HW281279   4.939   1.166   1.050 -2.3818 -0.6226  0.5002
26514SOL     OW81280   8.534   7.268   1.697 -0.0086  0.0494  0.0786
26514SOL    HW181281   8.459   7.304   1.651 -0.6700  0.4812  1.4236
26514SOL    HW281282   8.605   7.270   1.633 -1.4439 -1.6796 -1.6784
26515SOL     OW81283   4.321   9.206   8.729  0.1197  0.4818  0.1434
26515SOL    HW181284   4.395   9.263   8.708  0.2814  0.6475  1.1044
26515SOL    HW281285   4.248   9.242   8.678  0.8190 -0.0518 -1.2856
26516SOL     OW81286   8.426   1.838   3.506  0.7791 -0.1460  0.0169
26516SOL    HW181287   8.335   1.834   3.535  0.7394 -2.1153 -0.2759
26516SOL    HW281288   8.467   1.900   3.567 -0.9870  1.7387 -0.6117
26517SOL     OW81289   6.411   1.692   2.447 -0.6801  0.4303 -0.5073
26517SOL    HW181290   6.428   1.685   2.541 -0.5428 -0.7393 -0.5973
26517SOL    HW281291   6.476   1.754   2.416 -1.6011  1.9027  0.3641
26518SOL     OW81292   3.589   2.296   3.969 -0.1886  0.2226  0.7072
26518SOL    HW181293   3.553   2.377   4.004  2.3047  3.1882 -2.8219
26518SOL    HW281294   3.663   2.276   4.026 -0.5466  0.6687  1.3366
26519SOL     OW81295   1.593   1.896   6.081 -0.2507  0.0259 -0.1665
26519SOL    HW181296   1.670   1.843   6.101  0.3959  1.2138  0.6629
26519SOL    HW281297   1.624   1.987   6.088 -1.4402  0.5218 -1.0111
26520SOL     OW81298   0.537   3.604   1.545 -0.4994 -0.1479 -0.0786
26520SOL    HW181299   0.466   3.551   1.508 -1.0003  0.5901 -0.2005
26520SOL    HW281300   0.571   3.654   1.471 -1.9264  1.8072  0.4965
26521SOL     OW81301   8.459   3.673   0.789  0.0130 -0.8848 -0.2424
26521SOL    HW181302   8.524   3.730   0.749 -0.1949 -0.2095  0.3710
26521SOL    HW281303   8.508   3.619   0.851 -0.2560  1.0315  1.7487
26522SOL     OW81304   7.418   4.278   3.552 -0.2668  0.0806  0.0309
26522SOL    HW181305   7.445   4.345   3.614  1.3152 -1.7964  1.5156
26522SOL    HW281306   7.501   4.246   3.514 -0.7338 -2.4716  0.9986
26523SOL     OW81307   1.372   3.792   9.011 -0.1247  0.5410  0.2890
26523SOL    HW181308   1.364   3.697   9.013 -1.3598  0.6170  2.5691
26523SOL    HW281309   1.456   3.808   8.968  1.2432 -1.6903  1.9073
26524SOL     OW81310   5.923   0.928   0.159  0.6689  0.0918  0.2182
26524SOL    HW181311   5.840   0.882   0.169  1.4098 -2.0929 -2.6576
26524SOL    HW281312   5.925   0.955   0.067  3.8812 -1.5432 -0.3066
26525SOL     OW81313   1.616   3.234   5.684  0.3623 -0.2259  0.2239
26525SOL    HW181314   1.587   3.276   5.765 -0.2580  0.2136 -0.2234
26525SOL    HW281315   1.631   3.306   5.623 -0.2445 -0.6109 -0.3940
26526SOL     OW81316   1.731   8.904   1.354  0.3232  0.3634  0.2323
26526SOL    HW181317   1.805   8.852   1.324 -0.8829 -0.1772 -2.0290
26526SOL    HW281318   1.673   8.909   1.279 -2.0671  0.5834  1.9769
26527SOL     OW81319   8.055   5.437   1.139  0.0818  0.7779  0.1257
26527SOL    HW181320   8.142   5.418   1.176 -0.1746  0.0916  0.4086
26527SOL    HW281321   8.071   5.455   1.047  0.2302 -2.4179 -0.5753
26528SOL     OW81322   4.437   6.512   1.745 -0.3406  0.4187  0.0957
26528SOL    HW181323   4.493   6.449   1.700 -0.7775 -0.6576  1.0239
26528SOL    HW281324   4.453   6.496   1.838 -0.0620  2.0505  0.3705
26529SOL     OW81325   3.689   9.447   8.977 -0.7144  0.1383 -0.2935
26529SOL    HW181326   3.635   9.412   8.906 -0.2477  0.3848 -0.7846
26529SOL    HW281327   3.772   9.469   8.934  0.4428 -1.9284  0.7825
26530SOL     OW81328   8.231   8.981   3.000  0.1064  0.2643  0.1741
26530SOL    HW181329   8.184   9.054   3.041  0.8540  0.3810  0.8482
26530SOL    HW281330   8.183   8.903   3.029  0.4397  0.3651  1.0515
26531SOL     OW81331   8.028   8.065   5.884 -0.0045 -0.0530 -1.2041
26531SOL    HW181332   8.072   8.010   5.819  0.8942  0.1730 -0.7907
26531SOL    HW281333   8.098   8.101   5.937 -0.6845  0.3780 -0.5808
26532SOL     OW81334   5.180   1.301   1.285  0.2927  0.1513 -0.3037
26532SOL    HW181335   5.146   1.273   1.200 -1.2709 -1.2692  0.7262
26532SOL    HW281336   5.254   1.242   1.301  0.4810  0.3075 -0.5676
26533SOL     OW81337   2.247   4.070   7.061  0.6529 -0.7850 -0.8812
26533SOL    HW181338   2.195   4.122   6.999 -0.2151  0.5789  0.8869
26533SOL    HW281339   2.198   4.075   7.143  1.8610 -2.3630 -0.0115
26534SOL     OW81340   1.078   0.935   3.662  0.1374 -0.6532  0.3315
26534SOL    HW181341   1.139   1.008   3.652 -0.1245 -0.4613  0.1101
26534SOL    HW281342   1.006   0.956   3.603  0.4256 -1.4856 -0.3280
26535SOL     OW81343   6.706   6.305   0.328 -0.7580  0.0057 -0.0098
26535SOL    HW181344   6.683   6.393   0.359 -1.1275  0.7297 -2.1162
26535SOL    HW281345   6.793   6.315   0.289  0.6894 -1.3784  2.6215
26536SOL     OW81346   4.023   4.975   7.602 -0.3154  0.4718 -0.4607
26536SOL    HW181347   4.060   5.044   7.657  0.1692 -2.3118  3.1223
26536SOL    HW281348   4.099   4.923   7.575 -0.8634 -0.3445 -0.4837
26537SOL     OW81349   2.929   4.212   9.609 -0.0628  0.4382 -0.0065
26537SOL    HW181350   3.009   4.195   9.559 -0.3194  1.2164 -0.7099
26537SOL    HW281351   2.958   4.259   9.687 -0.0012  2.7415 -1.3239
26538SOL     OW81352   9.030   2.509   4.808 -0.9740  0.2031  0.2640
26538SOL    HW181353   9.002   2.418   4.796  0.7387 -0.3658  0.3115
26538SOL    HW281354   9.007   2.553   4.726 -1.3956 -0.3821  0.0643
26539SOL     OW81355   6.406   6.360   0.445  0.0744 -0.2763  0.1422
26539SOL    HW181356   6.384   6.374   0.353 -0.6576  2.6636  0.6604
26539SOL    HW281357   6.450   6.441   0.472  0.7368 -1.2603  2.2604
26540SOL     OW81358   3.720   3.172   8.121 -0.4221 -0.0641  0.1571
26540SOL    HW181359   3.680   3.130   8.198 -3.2275  0.5541 -0.8427
26540SOL    HW281360   3.655   3.237   8.093  0.8611  0.2797 -2.2770
26541SOL     OW81361   1.189   9.266   9.005 -0.1700 -0.1543  0.3854
26541SOL    HW181362   1.163   9.250   9.096 -1.4646  1.1681  0.2837
26541SOL    HW281363   1.237   9.350   9.008  0.7787 -0.6591 -0.0121
26542SOL     OW81364   0.143   6.363   5.897  0.2584 -0.1144  0.2026
26542SOL    HW181365   0.051   6.380   5.917  0.9932  2.4461  1.8254
26542SOL    HW281366   0.145   6.271   5.870 -2.5845 -0.5768  1.2514
26543SOL     OW81367   7.018   6.770   0.534  0.2610 -0.1056  0.3083
26543SOL    HW181368   7.043   6.840   0.473 -2.5648  1.4413  0.7536
26543SOL    HW281369   6.997   6.696   0.477  1.6367 -0.0680 -0.2881
26544SOL     OW81370   0.408   5.013   4.081  0.1564 -0.1949  0.1691
26544SOL    HW181371   0.458   5.094   4.079  0.0930 -0.0966  1.4410
26544SOL    HW281372   0.316   5.041   4.079  0.1011 -0.1219  1.8553
26545SOL     OW81373   9.069   0.486   8.194  0.2961  0.0072  0.0110
26545SOL    HW181374   9.042   0.475   8.103  1.7940 -1.6627 -0.2916
26545SOL    HW281375   9.163   0.504   8.190  0.1436  1.1951  1.1922
26546SOL     OW81376   0.515   2.073   0.813  0.3720 -0.1075 -0.9877
26546SOL    HW181377   0.433   2.078   0.763 -1.1939  0.0428  1.4422
26546SOL    HW281378   0.542   1.981   0.805  0.2293 -0.0688 -2.1353
26547SOL     OW81379   8.717   7.632   7.377  0.3491  0.0101 -0.1430
26547SOL    HW181380   8.671   7.566   7.429  0.1631  0.8124  0.7451
26547SOL    HW281381   8.795   7.587   7.344  0.6579 -0.4253  1.1324
26548SOL     OW81382   8.056   2.913   6.905  0.0676  0.0730  0.2916
26548SOL    HW181383   7.980   2.857   6.890 -0.4034  0.8148 -0.2341
26548SOL    HW281384   8.092   2.928   6.817  1.7357 -1.4632  0.6556
26549SOL     OW81385   8.362   8.932   2.339  0.1201 -0.9823 -0.3161
26549SOL    HW181386   8.302   8.925   2.264 -0.4617  0.8188 -0.0667
26549SOL    HW281387   8.443   8.966   2.301 -1.1383  3.0591  0.1670
26550SOL     OW81388   1.816   7.728   2.689  0.2414 -0.5268 -0.9686
26550SOL    HW181389   1.783   7.817   2.675 -1.8944 -1.2638 -0.9729
26550SOL    HW281390   1.894   7.723   2.634  0.8029  1.5168 -0.4795
26551SOL     OW81391   6.639   0.375   3.658 -0.0591 -0.3124  0.2976
26551SOL    HW181392   6.556   0.363   3.704  0.4593  0.6404  1.5325
26551SOL    HW281393   6.684   0.445   3.706  1.1710 -0.3415 -0.7487
26552SOL     OW81394   0.186   6.702   4.169  0.6274 -0.6929  0.3077
26552SOL    HW181395   0.254   6.635   4.161 -0.3947 -1.5526 -2.0526
26552SOL    HW281396   0.122   6.679   4.102 -0.7563  1.5373  0.7671
26553SOL     OW81397   5.219   8.533   7.432 -0.5134 -0.2747  0.1801
26553SOL    HW181398   5.283   8.561   7.367  0.6272 -0.7053  1.0923
26553SOL    HW281399   5.247   8.577   7.513 -1.4878 -0.3154  0.5535
26554SOL     OW81400   0.325   0.899   2.193 -0.5629  0.0966 -0.4785
26554SOL    HW181401   0.316   0.805   2.208  2.6350 -0.4004 -0.9484
26554SOL    HW281402   0.307   0.940   2.278  0.2784 -1.1593  0.3277
26555SOL     OW81403   4.106   7.110   3.104 -0.1017  0.1907  0.8453
26555SOL    HW181404   4.157   7.155   3.171  0.7173 -0.0241  0.3752
26555SOL    HW281405   4.057   7.181   3.061  0.6205  0.5457  0.5950
26556SOL     OW81406   7.546   4.395   6.590 -0.4411  0.3331  0.2263
26556SOL    HW181407   7.466   4.352   6.559 -0.5219 -0.4511  1.4076
26556SOL    HW281408   7.515   4.469   6.642 -0.3625  0.6565 -0.1852
26557SOL     OW81409   1.827   1.010   6.087 -0.4200 -0.4072 -0.1712
26557SOL    HW181410   1.849   0.958   6.010  0.5240 -1.0328  0.5093
26557SOL    HW281411   1.874   1.093   6.074 -1.3467  0.0268 -0.9034
26558SOL     OW81412   1.660   0.647   2.245  0.0546  0.1388  0.0558
26558SOL    HW181413   1.705   0.583   2.190  0.3276 -0.0816  0.5304
26558SOL    HW281414   1.596   0.688   2.187  1.0540  0.6603 -0.6972
26559SOL     OW81415   6.133   1.386   7.351 -0.2022  0.8040 -0.1500
26559SOL    HW181416   6.063   1.330   7.387 -0.3431  0.4204 -1.0106
26559SOL    HW281417   6.214   1.347   7.384 -0.2904 -0.0272 -0.8963
26560SOL     OW81418   7.281   9.233   3.363  0.2829 -0.8878  0.1428
26560SOL    HW181419   7.221   9.159   3.360 -2.3286  1.0348  0.6951
26560SOL    HW281420   7.224   9.310   3.354  2.7686  1.0929  0.1069
26561SOL     OW81421   8.942   4.482   9.010  0.0653 -0.5676 -0.0261
26561SOL    HW181422   8.952   4.428   9.088 -0.0649 -0.7916 -0.1631
26561SOL    HW281423   8.947   4.572   9.042  1.5190 -0.6473  0.0472
26562SOL     OW81424   3.838   9.122   8.880  0.3958 -0.3593  0.1554
26562SOL    HW181425   3.906   9.097   8.817 -0.0801 -1.8176  0.1631
26562SOL    HW281426   3.882   9.181   8.940  1.4701 -0.6945 -0.2649
26563SOL     OW81427   7.501   3.182   4.788  0.3076  0.0661  0.3231
26563SOL    HW181428   7.458   3.102   4.756 -0.7466  0.4882  0.6511
26563SOL    HW281429   7.550   3.153   4.864  1.2014 -0.5623 -0.4686
26564SOL     OW81430   5.983   0.162   6.701  0.2083 -0.3577 -0.1249
26564SOL    HW181431   5.914   0.194   6.759  0.8920  1.6330 -0.3120
26564SOL    HW281432   6.059   0.150   6.758  0.8983  1.6559 -0.5055
26565SOL     OW81433   0.510   4.525   1.872 -0.0036 -0.1121 -0.0173
26565SOL    HW181434   0.588   4.500   1.920  1.5710  2.7771 -0.8325
26565SOL    HW281435   0.474   4.600   1.920 -1.9508 -0.9661 -0.0259
26566SOL     OW81436   4.837   7.343   3.215 -0.5489 -0.2273  0.1691
26566SOL    HW181437   4.930   7.338   3.238 -0.7368  0.6984  1.2029
26566SOL    HW281438   4.811   7.252   3.198  0.1351 -0.6902  1.4978
26567SOL     OW81439   9.007   2.483   8.064 -0.0831  0.2059 -0.0612
26567SOL    HW181440   8.963   2.568   8.072  0.2675  0.3689  0.1135
26567SOL    HW281441   8.955   2.424   8.119 -1.4717 -0.1459 -1.6687
26568SOL     OW81442   0.483   9.489   0.099 -0.6770  0.1546  0.1573
26568SOL    HW181443   0.407   9.461   0.048 -0.0121 -0.4409 -0.5252
26568SOL    HW281444   0.546   9.418   0.090 -0.4896  0.0830  1.7373
26569SOL     OW81445   6.445   8.620   2.077  0.4755  0.1910  0.2097
26569SOL    HW181446   6.529   8.576   2.067  0.2046  0.0589 -1.9964
26569SOL    HW281447   6.455   8.675   2.155  2.9239  0.9044 -0.5398
26570SOL     OW81448   8.385   2.526   1.080 -0.4836 -0.1386  0.1059
26570SOL    HW181449   8.414   2.606   1.036 -0.8652  0.1813  0.4312
26570SOL    HW281450   8.464   2.473   1.087 -0.0645  0.5215  0.5523
26571SOL     OW81451   2.902   4.260   2.556 -0.2731 -0.0048  0.0349
26571SOL    HW181452   2.988   4.295   2.532 -0.7437  1.7345  0.7857
26571SOL    HW281453   2.905   4.252   2.652 -1.2402  0.9076  0.1562
26572SOL     OW81454   3.145   7.635   1.263  0.4361  0.0471 -0.4567
26572SOL    HW181455   3.178   7.677   1.184  0.2520 -0.2942 -0.7191
26572SOL    HW281456   3.059   7.674   1.277  1.4856  1.9997  1.0447
26573SOL     OW81457   4.367   1.936   7.939 -0.3450  0.5310 -0.3899
26573SOL    HW181458   4.414   1.857   7.916 -2.1588 -1.0940  1.1070
26573SOL    HW281459   4.285   1.930   7.890 -0.3927  1.6311 -0.4641
26574SOL     OW81460   2.070   8.515   0.608  0.5223 -0.1672 -0.1104
26574SOL    HW181461   2.096   8.423   0.615  2.7302  0.4904  1.7654
26574SOL    HW281462   2.123   8.550   0.536 -0.1692 -0.2975 -0.6914
26575SOL     OW81463   8.604   5.428   1.456  0.2603  0.0099  0.2283
26575SOL    HW181464   8.573   5.492   1.521  0.7601  0.5168 -0.0329
26575SOL    HW281465   8.699   5.430   1.463  0.3040 -0.2269 -0.2471
26576SOL     OW81466   5.892   6.767   5.207  0.0767 -0.1087 -0.1917
26576SOL    HW181467   5.890   6.847   5.260  0.0639 -0.7234  0.7605
26576SOL    HW281468   5.966   6.718   5.242  1.1838  0.2403 -1.9244
26577SOL     OW81469   2.596   9.074   3.401  0.1858  0.1580  0.1530
26577SOL    HW181470   2.595   9.093   3.495  0.1959  0.8453  0.0183
26577SOL    HW281471   2.534   9.137   3.363 -0.1444 -0.3985 -0.2511
26578SOL     OW81472   6.842   7.880   5.775 -0.3787  0.2699  0.5168
26578SOL    HW181473   6.860   7.935   5.699 -0.6693 -0.3086  0.0117
26578SOL    HW281474   6.927   7.865   5.815  0.2634 -1.7651 -1.3741
26579SOL     OW81475   6.790   5.139   6.823  0.6800  0.5355 -0.0173
26579SOL    HW181476   6.726   5.120   6.892  0.7467  1.3242  0.2644
26579SOL    HW281477   6.870   5.163   6.870  0.3487  2.4087 -0.3302
26580SOL     OW81478   3.916   2.941   4.475 -0.2870 -0.0363  0.0166
26580SOL    HW181479   3.938   2.874   4.540  0.4517  0.2895  0.1173
26580SOL    HW281480   3.884   3.015   4.528  0.2231  0.1935  0.0131
26581SOL     OW81481   8.470   7.374   3.969  0.0086 -0.3514 -0.0305
26581SOL    HW181482   8.475   7.286   3.931  1.4214 -1.0993  1.7209
26581SOL    HW281483   8.377   7.396   3.966 -0.2046 -1.2914 -1.7663
26582SOL     OW81484   0.905   4.826   9.461  0.0598 -0.3223 -0.6813
26582SOL    HW181485   0.936   4.845   9.549  0.1158  0.9646 -0.9483
26582SOL    HW281486   0.981   4.790   9.416  0.5018  0.5072 -0.6343
26583SOL     OW81487   1.302   4.429   9.598 -0.2600  0.3148  0.3288
26583SOL    HW181488   1.264   4.514   9.621 -0.0961  0.2819  0.7324
26583SOL    HW281489   1.331   4.439   9.508  0.6653  1.0139  0.6926
26584SOL     OW81490   5.001   9.570   7.220  0.3873 -0.2591  0.8975
26584SOL    HW181491   5.038   9.611   7.298  1.0214  1.7670 -0.3993
26584SOL    HW281492   4.934   9.632   7.190  0.6976 -0.6192 -0.5872
26585SOL     OW81493   5.457   7.725   2.162  0.6369  0.0522 -0.1754
26585SOL    HW181494   5.425   7.803   2.207  0.6506 -1.2647  2.2462
26585SOL    HW281495   5.545   7.712   2.195  1.3064 -0.0478 -1.8939
26586SOL     OW81496   2.941   1.232   1.846  0.5364  0.3049 -0.7810
26586SOL    HW181497   2.869   1.294   1.862  1.6226  1.3245  0.2923
26586SOL    HW281498   2.949   1.183   1.927  0.9627  0.0983 -0.9483
26587SOL     OW81499   5.955   9.359   6.415  0.6682 -0.0332 -0.0621
26587SOL    HW181500   6.051   9.364   6.410  0.6098 -0.1658 -2.8552
26587SOL    HW281501   5.929   9.445   6.449  1.7473 -0.5166  2.2460
26588SOL     OW81502   7.848   3.002   5.702  0.0949  0.2667 -0.2086
26588SOL    HW181503   7.793   2.961   5.635  0.6988 -0.6635 -0.1579
26588SOL    HW281504   7.787   3.049   5.759 -0.4832  0.5706 -1.0571
26589SOL     OW81505   2.970   0.527   6.405 -0.1328 -0.0418 -0.4295
26589SOL    HW181506   3.059   0.562   6.409 -0.5387  0.9634  0.1953
26589SOL    HW281507   2.981   0.437   6.374  1.1832 -0.2367  0.5251
26590SOL     OW81508   8.465   8.719   0.039 -0.3169  0.7727  0.2677
26590SOL    HW181509   8.374   8.733   0.014 -1.1445 -0.6428  2.1769
26590SOL    HW281510   8.507   8.805   0.032 -1.8820  1.5062 -0.3336
26591SOL     OW81511   0.547   0.607   1.551 -0.7080 -0.0400 -0.1620
26591SOL    HW181512   0.563   0.570   1.638 -0.7405  0.1374 -0.0800
26591SOL    HW281513   0.470   0.560   1.519 -0.7605 -0.0313 -0.0503
26592SOL     OW81514   5.963   3.523   7.231  0.2639  0.6287  0.3563
26592SOL    HW181515   5.989   3.614   7.245  0.5821  0.6429 -0.3341
26592SOL    HW281516   6.026   3.489   7.168 -1.2065  0.5812 -1.1304
26593SOL     OW81517   3.899   0.416   2.433 -0.2610  0.4080 -0.0776
26593SOL    HW181518   3.812   0.435   2.467 -1.1085 -1.0174 -1.3601
26593SOL    HW281519   3.956   0.481   2.476 -1.5904  0.1054  2.2784
26594SOL     OW81520   8.122   7.000   8.529  0.3793 -0.5502  0.3589
26594SOL    HW181521   8.041   7.007   8.579 -0.0331 -0.6838 -0.2814
26594SOL    HW281522   8.115   6.916   8.483  0.7892 -0.4671  0.1370
26595SOL     OW81523   7.973   9.515   1.595 -0.0449  0.0708 -0.0496
26595SOL    HW181524   7.992   9.469   1.514  0.6307  0.0591  0.1116
26595SOL    HW281525   7.901   9.465   1.634  0.8226 -0.9991  0.2309
26596SOL     OW81526   4.060   1.096   7.217 -0.3161 -0.3156 -0.0885
26596SOL    HW181527   4.016   1.119   7.135  1.0206 -0.7904 -0.9643
26596SOL    HW281528   4.102   1.177   7.245  0.4335 -0.5016 -0.6537
26597SOL     OW81529   0.868   4.472   0.417  0.0831 -0.1154  0.4927
26597SOL    HW181530   0.912   4.508   0.494  0.8218  1.1211 -0.4786
26597SOL    HW281531   0.885   4.378   0.421  0.2307 -0.0555  1.7415
26598SOL     OW81532   0.430   0.678   2.718  0.1838  0.3257 -0.4767
26598SOL    HW181533   0.507   0.641   2.762  1.2291  1.4283 -1.2887
26598SOL    HW281534   0.374   0.603   2.701  1.2128 -0.5582 -0.1051
26599SOL     OW81535   8.490   7.095   5.871  0.4075  0.3101  0.5432
26599SOL    HW181536   8.432   7.019   5.876  0.9600 -0.1944 -0.4688
26599SOL    HW281537   8.522   7.107   5.961 -0.4988 -0.0024  0.9128
26600SOL     OW81538   5.024   5.114   2.173  0.2776  0.0648  0.5818
26600SOL    HW181539   4.946   5.136   2.121  0.6602 -0.2418 -0.1374
26600SOL    HW281540   5.088   5.182   2.150 -0.0009  0.7215  1.7034
26601SOL     OW81541   1.802   4.398   8.897  0.2190  0.1465 -0.0154
26601SOL    HW181542   1.810   4.457   8.971 -1.7230 -0.3553  0.6399
26601SOL    HW281543   1.885   4.350   8.895 -0.1773 -0.7703  2.6649
26602SOL     OW81544   8.393   1.766   8.469  0.7460  0.2226 -0.1999
26602SOL    HW181545   8.333   1.724   8.407 -0.6262  1.1439  0.4777
26602SOL    HW281546   8.337   1.804   8.536  2.0877  1.0747  0.4911
26603SOL     OW81547   3.632   0.339   3.607  0.3092 -0.3427  0.2139
26603SOL    HW181548   3.567   0.395   3.565  0.8213 -0.2667 -0.4998
26603SOL    HW281549   3.712   0.391   3.608  0.3836 -0.4602  1.0270
26604SOL     OW81550   2.216   3.858   4.993 -0.1097  0.2344  0.3953
26604SOL    HW181551   2.279   3.929   5.010 -0.7312  0.8113  0.3330
26604SOL    HW281552   2.134   3.903   4.972 -0.7596 -0.5025  1.2606
26605SOL     OW81553   8.205   4.772   5.834  0.6564 -0.3290  0.2974
26605SOL    HW181554   8.182   4.696   5.780 -0.5330 -0.3744  0.8332
26605SOL    HW281555   8.186   4.744   5.923  1.2211  0.2456  0.6045
26606SOL     OW81556   3.184   2.746   4.618  0.0457  0.0292  0.1713
26606SOL    HW181557   3.151   2.668   4.663  1.6704  0.0735  1.5344
26606SOL    HW281558   3.233   2.712   4.543 -0.8803 -0.1399 -0.3767
26607SOL     OW81559   5.189   9.315   6.867  0.4807 -0.2500  0.0729
26607SOL    HW181560   5.103   9.343   6.901  0.7230 -0.0037  0.4952
26607SOL    HW281561   5.171   9.285   6.778 -0.2068 -1.0993  0.4866
26608SOL     OW81562   5.247   5.670   2.686 -0.1011 -0.0805  0.2890
26608SOL    HW181563   5.304   5.739   2.720 -0.0828 -0.1528  0.4056
26608SOL    HW281564   5.283   5.650   2.600 -1.2536  1.4047 -0.5918
26609SOL     OW81565   6.353   3.364   4.020 -0.0302 -0.0707  0.2424
26609SOL    HW181566   6.298   3.433   4.058 -0.7020 -0.3858 -0.1422
26609SOL    HW281567   6.350   3.293   4.085  0.5880  0.2288  0.5971
26610SOL     OW81568   3.365   5.048   8.577  0.2346 -0.0501  0.1003
26610SOL    HW181569   3.293   5.109   8.565 -0.2892 -0.5116  0.7794
26610SOL    HW281570   3.365   5.029   8.671  1.8345  0.6420  0.2719
26611SOL     OW81571   1.241   0.855   3.041 -0.8116 -0.5787  0.6798
26611SOL    HW181572   1.149   0.870   3.019 -0.9251 -0.6884  1.0742
26611SOL    HW281573   1.249   0.883   3.132 -0.2550  0.2438  0.3962
26612SOL     OW81574   9.106   3.800   7.990 -0.3954 -0.5846  0.0945
26612SOL    HW181575   9.199   3.779   8.003 -0.2075  0.9156  1.5138
26612SOL    HW281576   9.062   3.759   8.063 -0.1144  2.9137  2.4870
26613SOL     OW81577   8.627   2.793   8.916  0.4745  0.4157 -0.7556
26613SOL    HW181578   8.551   2.828   8.961  2.1724  1.8469  1.1846
26613SOL    HW281579   8.618   2.698   8.924  0.9167  0.5583  3.2232
26614SOL     OW81580   0.685   8.945   6.795 -0.0737  0.4613  0.4504
26614SOL    HW181581   0.669   8.994   6.714 -0.3380 -1.3895 -0.6551
26614SOL    HW281582   0.599   8.934   6.834  0.0713  1.5012  1.1240
26615SOL     OW81583   4.914   9.167   2.983  0.3806  0.4755 -0.2844
26615SOL    HW181584   4.898   9.116   3.063 -2.8196 -1.2810 -1.8642
26615SOL    HW281585   4.881   9.255   3.004  1.9086  0.7850  1.0497
26616SOL     OW81586   0.009   4.976   4.361 -0.0058 -0.7151 -0.2365
26616SOL    HW181587  -0.057   5.017   4.305  0.9196 -0.3974 -1.1258
26616SOL    HW281588   0.065   4.927   4.300 -0.7592 -2.9072  0.7256
26617SOL     OW81589   9.044   8.307   1.865 -0.4728  0.0646 -0.5627
26617SOL    HW181590   9.007   8.251   1.796 -1.1898 -1.0078  0.6508
26617SOL    HW281591   8.971   8.364   1.891 -0.5416 -0.3019  0.0657
26618SOL     OW81592   2.582   2.974   2.546  0.2805  0.4173  0.5196
26618SOL    HW181593   2.490   2.990   2.525  0.0097  0.3766  1.6420
26618SOL    HW281594   2.604   3.041   2.611  0.4969 -0.7364  1.6808
26619SOL     OW81595   5.597   3.397   3.479  0.1402 -0.0739  0.0224
26619SOL    HW181596   5.634   3.378   3.565  0.6599  0.8004  0.0047
26619SOL    HW281597   5.671   3.397   3.419 -0.4757 -2.8970 -0.8677
26620SOL     OW81598   0.293   0.899   2.563 -0.1777  0.0086 -0.0855
26620SOL    HW181599   0.342   0.827   2.602  0.2174 -0.2823 -1.0831
26620SOL    HW281600   0.201   0.879   2.583 -0.0424 -0.5647 -0.0189
26621SOL     OW81601   0.059   2.668   3.621  0.4011 -0.3476  0.1704
26621SOL    HW181602   0.132   2.637   3.566 -1.8401 -1.3830 -2.4355
26621SOL    HW281603   0.036   2.753   3.585  0.5295  0.1414  1.2198
26622SOL     OW81604   1.862   6.304   8.523 -0.1550 -1.0623 -0.3519
26622SOL    HW181605   1.776   6.299   8.564 -0.8597  1.7561 -1.2334
26622SOL    HW281606   1.924   6.300   8.595 -1.1857  0.1148  0.6358
26623SOL     OW81607   0.320   8.250   4.154  0.3550 -0.9881  0.6022
26623SOL    HW181608   0.328   8.177   4.093 -2.3873 -0.2047 -0.8771
26623SOL    HW281609   0.226   8.267   4.159  0.8519  3.1784 -0.0967
26624SOL     OW81610   0.099   3.164   1.321  0.6338  0.1171 -0.7639
26624SOL    HW181611   0.022   3.207   1.357  1.0452  1.0556 -0.9726
26624SOL    HW281612   0.108   3.200   1.232  0.3942 -1.1772 -1.3403
26625SOL     OW81613   8.481   6.541   2.889  0.1686 -0.0925 -0.3888
26625SOL    HW181614   8.439   6.608   2.942 -3.0194 -0.9980 -1.5563
26625SOL    HW281615   8.546   6.502   2.947 -1.3697  0.6522  1.9671
26626SOL     OW81616   4.807   4.207   3.996 -0.2832 -0.1261 -0.2608
26626SOL    HW181617   4.819   4.172   3.907  0.6733 -0.1420 -0.1417
26626SOL    HW281618   4.750   4.144   4.039  0.3356 -0.8461 -0.4636
26627SOL     OW81619   9.350   4.394   5.026 -0.1110 -0.0993 -0.7866
26627SOL    HW181620   9.407   4.414   4.953  0.2192  0.0172 -0.5002
26627SOL    HW281621   9.285   4.333   4.990 -0.4870  0.6384 -1.3915
26628SOL     OW81622   3.666   6.069   0.384 -0.0446  0.1577  0.2350
26628SOL    HW181623   3.734   6.072   0.316  0.0169 -0.7659  0.2425
26628SOL    HW281624   3.656   6.160   0.412 -2.1810  1.1562 -3.0953
26629SOL     OW81625   3.293   2.870   8.396 -0.6206 -0.4067  0.1789
26629SOL    HW181626   3.321   2.821   8.473  1.3964  1.7090  0.8997
26629SOL    HW281627   3.199   2.884   8.408 -0.6878 -1.7072  1.2860
26630SOL     OW81628   0.162   0.032   1.719 -0.1651  0.5113 -0.4909
26630SOL    HW181629   0.139   0.105   1.662  0.4870 -0.0147 -1.4524
26630SOL    HW281630   0.250   0.051   1.749  0.7646 -0.7528 -2.2498
26631SOL     OW81631   3.557   3.104   5.263  0.4404 -0.4204  1.0943
26631SOL    HW181632   3.539   3.183   5.314 -0.7733 -0.8539  1.3719
26631SOL    HW281633   3.602   3.046   5.325 -1.9509 -1.3578  2.1024
26632SOL     OW81634   6.152   3.006   1.091 -0.0769  0.3989  0.2532
26632SOL    HW181635   6.117   3.040   1.173 -1.9514 -0.0355 -0.3130
26632SOL    HW281636   6.192   2.922   1.115 -1.8631 -0.4207  0.5655
26633SOL     OW81637   5.410   8.721   4.840  0.8393  0.5012 -0.1915
26633SOL    HW181638   5.461   8.743   4.918  2.3658  0.7290 -1.2068
26633SOL    HW281639   5.442   8.634   4.814  1.2393  0.9295 -1.2205
26634SOL     OW81640   3.676   7.414   2.311 -0.0171 -0.5196 -0.4688
26634SOL    HW181641   3.656   7.340   2.368 -0.4513 -0.2568 -0.2698
26634SOL    HW281642   3.720   7.478   2.367  0.0073 -0.4672 -0.5461
26635SOL     OW81643   1.815   0.622   1.034  0.2740 -0.2638  0.4873
26635SOL    HW181644   1.749   0.553   1.034  0.3233 -0.3156 -0.1443
26635SOL    HW281645   1.778   0.691   0.978  1.7057 -1.2383 -1.8134
26636SOL     OW81646   9.228   5.912   3.194  0.3144 -0.1104  0.9355
26636SOL    HW181647   9.184   5.849   3.250 -1.0615  0.0219  0.0302
26636SOL    HW281648   9.275   5.969   3.255 -1.2946  0.1494  1.9709
26637SOL     OW81649   8.204   1.668   8.250  0.7182 -0.5009 -0.1798
26637SOL    HW181650   8.270   1.619   8.201  0.9632 -0.4527  0.1013
26637SOL    HW281651   8.143   1.699   8.183  0.1319 -1.8247 -0.3044
26638SOL     OW81652   7.336   4.837   2.148 -0.2761 -0.1687  0.4877
26638SOL    HW181653   7.308   4.915   2.197  0.2400 -0.1815  0.8112
26638SOL    HW281654   7.421   4.862   2.110 -1.3503  0.4043 -1.7236
26639SOL     OW81655   8.904   9.318   3.225  0.3702 -0.1804  0.4647
26639SOL    HW181656   8.815   9.346   3.247 -0.2069 -1.8606  0.4852
26639SOL    HW281657   8.960   9.361   3.290 -0.7263 -0.9903  2.0276
26640SOL     OW81658   1.820   4.406   6.750 -0.2739 -0.0780  0.2962
26640SOL    HW181659   1.886   4.338   6.760 -0.4415 -0.1299  1.1644
26640SOL    HW281660   1.749   4.378   6.808 -0.2718  0.9211  0.7926
26641SOL     OW81661   0.442   9.109   5.186  0.4351  0.3408 -0.1603
26641SOL    HW181662   0.389   9.095   5.265 -0.8667 -2.4710 -1.3519
26641SOL    HW281663   0.402   9.185   5.144 -1.5491 -0.5683 -0.0726
26642SOL     OW81664   7.194   4.294   0.058  0.0334  0.2713  0.4841
26642SOL    HW181665   7.272   4.238   0.063  1.2455  1.9987  2.1740
26642SOL    HW281666   7.122   4.236   0.086  0.6333 -1.3745 -1.1705
26643SOL     OW81667   3.885   4.358   7.024  0.3386  0.2986 -0.1226
26643SOL    HW181668   3.846   4.278   7.060 -1.4821  1.1384 -0.0964
26643SOL    HW281669   3.821   4.427   7.044  1.6098  1.6733 -0.6115
26644SOL     OW81670   1.825   0.448   6.327  0.7373 -0.0889  0.2540
26644SOL    HW181671   1.905   0.449   6.274 -0.1720 -1.3563 -1.2136
26644SOL    HW281672   1.857   0.443   6.417  2.3222 -0.2291 -0.2773
26645SOL     OW81673   6.503   6.736   7.497  0.0379 -0.1243 -0.1970
26645SOL    HW181674   6.468   6.724   7.409  1.4179 -0.5386 -0.7280
26645SOL    HW281675   6.427   6.749   7.552 -0.8040  1.2902 -1.6195
26646SOL     OW81676   2.580   2.687   3.172 -0.0435  0.6654 -0.4563
26646SOL    HW181677   2.531   2.729   3.102  0.7573  1.2583 -0.6673
26646SOL    HW281678   2.582   2.594   3.147 -3.6796 -0.0088  1.0756
26647SOL     OW81679   5.144   3.653   1.815 -0.5429 -0.4870 -0.2451
26647SOL    HW181680   5.058   3.611   1.806 -1.0291  0.4787 -0.1882
26647SOL    HW281681   5.146   3.681   1.907 -0.1373 -0.5539 -0.2340
26648SOL     OW81682   3.598   7.395   8.436 -0.0078 -0.2465  0.5922
26648SOL    HW181683   3.617   7.302   8.425  0.6070  0.0189 -0.8330
26648SOL    HW281684   3.684   7.437   8.437 -0.3067  0.3937  0.1801
26649SOL     OW81685   4.220   4.872   1.533 -0.1529 -0.1194  0.2745
26649SOL    HW181686   4.265   4.847   1.452 -1.7643  1.7913 -1.3187
26649SOL    HW281687   4.208   4.790   1.580  0.1663 -1.4263 -1.7979
26650SOL     OW81688   1.913   1.885   0.355 -0.0166 -0.2988 -0.2477
26650SOL    HW181689   1.836   1.938   0.377  0.2894  0.4220 -0.8294
26650SOL    HW281690   1.957   1.936   0.286  0.3459 -1.2758 -0.7540
26651SOL     OW81691   3.570   8.940   8.945  0.1359 -0.6886  0.2090
26651SOL    HW181692   3.661   8.970   8.951 -0.0360  0.0002 -0.5580
26651SOL    HW281693   3.569   8.858   8.995  1.4600 -1.3508 -0.7752
26652SOL     OW81694   6.359   2.589   8.991 -0.3875 -0.1219  0.6136
26652SOL    HW181695   6.271   2.589   8.955 -1.0691  1.9184  2.0821
26652SOL    HW281696   6.396   2.674   8.965  1.0221 -0.7872  0.3396
26653SOL     OW81697   3.653   3.813   1.942  0.4028 -0.4833  0.0065
26653SOL    HW181698   3.579   3.753   1.929  1.9206 -2.1901 -1.4068
26653SOL    HW281699   3.697   3.814   1.857  1.5853  1.1151  0.5951
26654SOL     OW81700   5.060   3.341   1.159  0.5123 -0.1679 -0.1881
26654SOL    HW181701   5.018   3.403   1.099  0.4417 -1.3741 -1.4594
26654SOL    HW281702   5.004   3.341   1.237  0.4547  1.2484 -0.2021
26655SOL     OW81703   9.605   6.085   8.342  0.2551  0.8514 -0.2135
26655SOL    HW181704   9.660   6.071   8.419 -0.5718 -2.5245 -0.0767
26655SOL    HW281705   9.608   6.001   8.295 -3.2296  1.1001 -1.1631
26656SOL     OW81706   6.762   9.380   6.475 -0.2672 -0.0317  0.1082
26656SOL    HW181707   6.696   9.393   6.543 -2.0419  1.7220 -1.8011
26656SOL    HW281708   6.837   9.431   6.506 -0.8519  0.3276  0.9807
26657SOL     OW81709   5.519   4.475   5.531  0.2240  0.5143  0.1986
26657SOL    HW181710   5.602   4.435   5.503  0.3938  0.8752  0.1783
26657SOL    HW281711   5.471   4.491   5.450  0.6431  1.4010  0.1139
26658SOL     OW81712   0.522   0.392   4.917  0.3518  0.3850  0.1265
26658SOL    HW181713   0.475   0.348   4.846  0.7223  1.2997 -0.7104
26658SOL    HW281714   0.485   0.480   4.920  0.8211  0.5752  0.6041
26659SOL     OW81715   9.268   2.749   0.573  0.2417 -0.1558  0.1879
26659SOL    HW181716   9.247   2.659   0.550  1.0072 -0.5344  0.9250
26659SOL    HW281717   9.363   2.755   0.564  0.2926  0.3424  0.9216
26660SOL     OW81718   3.335   7.444   4.326  0.4048 -0.4181  0.1487
26660SOL    HW181719   3.304   7.512   4.385  0.7963 -0.1022 -0.0124
26660SOL    HW281720   3.422   7.472   4.299  0.0773 -0.3635 -0.8836
26661SOL     OW81721   1.710   3.160   2.269  0.0997  0.1080  0.2202
26661SOL    HW181722   1.800   3.192   2.281 -0.2297  0.0385  4.1275
26661SOL    HW281723   1.660   3.237   2.245  0.7631  0.7769  0.8968
26662SOL     OW81724   7.629   2.730   0.281 -0.5821 -0.3097 -0.5198
26662SOL    HW181725   7.704   2.694   0.329 -1.9856 -2.1719  0.4131
26662SOL    HW281726   7.595   2.655   0.231 -1.1907  0.7605 -1.7636
26663SOL     OW81727   2.489   6.268   8.686 -0.4180 -0.1159 -0.8780
26663SOL    HW181728   2.512   6.361   8.691 -2.0811  0.2887  3.2879
26663SOL    HW281729   2.560   6.228   8.636  3.0258  2.6956  1.3073
26664SOL     OW81730   8.029   7.473   3.770 -0.3883 -0.4273 -0.2755
26664SOL    HW181731   7.954   7.415   3.774  0.0761 -0.9850  0.7015
26664SOL    HW281732   8.100   7.419   3.736  0.3658 -0.8461  1.7812
26665SOL     OW81733   2.663   1.546   7.858 -0.3576 -0.0641 -0.3950
26665SOL    HW181734   2.617   1.574   7.937  0.4851  0.2892 -0.0223
26665SOL    HW281735   2.726   1.480   7.888  1.4359  1.5594 -0.3943
26666SOL     OW81736   0.539   8.256   5.288  0.2082  0.4151 -0.9059
26666SOL    HW181737   0.592   8.297   5.219  1.1754  1.7299  0.5600
26666SOL    HW281738   0.452   8.247   5.249  0.3912  2.3398 -1.8857
26667SOL     OW81739   8.104   5.606   3.863 -0.1526 -0.1318 -0.5037
26667SOL    HW181740   8.158   5.532   3.891  1.5232  1.4337  0.6139
26667SOL    HW281741   8.161   5.656   3.803 -0.5747  1.1886  0.1601
26668SOL     OW81742   1.225   3.583   3.739 -0.1074  0.3377  0.2729
26668SOL    HW181743   1.182   3.602   3.823  0.2021 -4.0438  1.6701
26668SOL    HW281744   1.170   3.518   3.698  1.5120 -0.1001 -1.3330
26669SOL     OW81745   0.371   2.921   2.930 -0.3909  0.4518  0.2501
26669SOL    HW181746   0.452   2.874   2.913  0.0538  1.6475 -1.1345
26669SOL    HW281747   0.302   2.855   2.918  0.3290 -0.4683  1.0120
26670SOL     OW81748   3.870   4.139   8.959 -0.2078 -0.1670  0.0482
26670SOL    HW181749   3.902   4.133   9.049  1.1342  0.3951 -0.3591
26670SOL    HW281750   3.903   4.060   8.916  1.5849  0.8888 -0.6290
26671SOL     OW81751   1.524   5.221   5.926 -0.3707 -0.2809 -0.3652
26671SOL    HW181752   1.573   5.172   5.993 -0.0515  1.2491  0.5682
26671SOL    HW281753   1.440   5.240   5.967 -0.3229  0.3268 -0.5395
26672SOL     OW81754   5.222   7.489   1.735 -0.2038 -0.1418  0.2497
26672SOL    HW181755   5.243   7.443   1.816  1.4602 -3.1320 -1.6947
26672SOL    HW281756   5.303   7.534   1.710 -0.5134  0.2401 -0.0943
26673SOL     OW81757   7.550   4.978   1.345  0.4157  0.6435  0.1398
26673SOL    HW181758   7.597   5.053   1.381  2.0662 -0.8337  1.2457
26673SOL    HW281759   7.578   4.972   1.254  1.7560  0.2984  0.5562
26674SOL     OW81760   3.002   8.211   1.873 -0.0411  0.0329  0.0429
26674SOL    HW181761   2.973   8.137   1.925 -0.9777  0.1432 -0.2988
26674SOL    HW281762   3.049   8.267   1.934 -0.7754 -0.0342  0.6859
26675SOL     OW81763   7.614   8.586   9.178  0.4755  0.0695  0.2195
26675SOL    HW181764   7.611   8.518   9.246  0.0018  1.4904  1.6659
26675SOL    HW281765   7.547   8.649   9.203  0.4484  0.7691 -1.4610
26676SOL     OW81766   0.911   0.150   7.387  0.1232 -0.3852 -0.2711
26676SOL    HW181767   0.872   0.090   7.451 -1.3474 -0.0587 -0.8216
26676SOL    HW281768   0.956   0.093   7.326 -1.5915 -1.0039 -1.0106
26677SOL     OW81769   9.066   3.250   0.465  0.2450  0.1338 -0.2657
26677SOL    HW181770   9.077   3.259   0.371  1.7495 -1.7039 -0.3325
26677SOL    HW281771   9.109   3.167   0.487 -1.3016 -0.2055  1.8466
26678SOL     OW81772   0.521   8.098   0.587  0.0054  0.8072  0.5737
26678SOL    HW181773   0.489   8.018   0.545  1.6726  1.0967 -1.3721
26678SOL    HW281774   0.543   8.156   0.515 -2.4414  3.6760  1.8769
26679SOL     OW81775   1.021   3.468   5.948  0.5566 -0.2114  0.1070
26679SOL    HW181776   1.081   3.541   5.937 -0.8737  0.6957 -2.6810
26679SOL    HW281777   1.045   3.429   6.032  1.9655  2.9021  1.3042
26680SOL     OW81778   1.596   2.427   1.745 -0.4615  0.1803 -0.7059
26680SOL    HW181779   1.580   2.479   1.825  0.7855  1.1809 -1.0696
26680SOL    HW281780   1.519   2.371   1.737 -0.8664  0.4607  0.8979
26681SOL     OW81781   2.245   5.516   1.266  0.4881  0.3343  0.2145
26681SOL    HW181782   2.253   5.581   1.196  0.9149  0.8860  0.7568
26681SOL    HW281783   2.283   5.559   1.343  1.0283 -0.6615  0.5267
26682SOL     OW81784   7.502   0.773   5.066 -0.1461  0.1013 -0.2736
26682SOL    HW181785   7.440   0.838   5.034 -1.0076 -0.3930  0.3569
26682SOL    HW281786   7.558   0.754   4.991 -0.2036  1.1758 -0.6139
26683SOL     OW81787   8.115   7.859   4.479 -0.0478 -1.1073  0.4723
26683SOL    HW181788   8.166   7.940   4.472 -0.3686 -0.8278  1.2324
26683SOL    HW281789   8.082   7.860   4.569 -0.7707 -1.6544  0.2150
26684SOL     OW81790   2.280   0.571   6.029 -0.6023 -0.2467 -0.2689
26684SOL    HW181791   2.370   0.573   6.062 -0.6710 -1.4966  0.0675
26684SOL    HW281792   2.237   0.645   6.071  0.5543  1.0899 -1.3422
26685SOL     OW81793   2.034   0.640   2.069 -0.2041 -0.5640 -0.1134
26685SOL    HW181794   1.963   0.679   2.120  0.5418  0.0642  0.4587
26685SOL    HW281795   2.036   0.548   2.098 -0.3157 -0.4091  0.3999
26686SOL     OW81796   8.145   7.611   4.214 -0.7430  0.2830  0.0798
26686SOL    HW181797   8.161   7.535   4.158  0.0489  0.2117  0.3849
26686SOL    HW281798   8.092   7.670   4.160 -0.4453 -0.0134 -0.5505
26687SOL     OW81799   5.242   4.773   2.238  0.1232 -0.1526 -0.0577
26687SOL    HW181800   5.202   4.832   2.303 -1.2105  2.5995 -3.0807
26687SOL    HW281801   5.175   4.708   2.220 -0.9774  1.2420 -1.2022
26688SOL     OW81802   8.010   9.219   7.924 -0.3885  0.5000  0.4650
26688SOL    HW181803   7.971   9.194   8.008 -1.0333 -0.8773 -0.2105
26688SOL    HW281804   7.936   9.232   7.865  0.0918 -0.7976 -0.4742
26689SOL     OW81805   6.767   2.303   6.353 -0.3388 -0.2500  0.1334
26689SOL    HW181806   6.696   2.307   6.417 -0.5287 -1.9574  0.0801
26689SOL    HW281807   6.724   2.277   6.271  0.4966 -3.3185  0.5393
26690SOL     OW81808   5.590   0.445   3.297 -0.5433  0.4767 -0.1938
26690SOL    HW181809   5.653   0.516   3.305  1.1245 -0.8678 -0.5928
26690SOL    HW281810   5.619   0.396   3.220 -1.4436 -0.7990  0.2368
26691SOL     OW81811   5.138   7.811   1.003 -0.1113 -0.2950 -0.6095
26691SOL    HW181812   5.129   7.721   1.032 -0.8176  0.0839  0.4139
26691SOL    HW281813   5.218   7.812   0.950 -0.5847 -1.7010 -1.4179
26692SOL     OW81814   7.182   8.831   4.621  0.0196 -0.3927 -0.3742
26692SOL    HW181815   7.129   8.910   4.609 -1.4201 -0.9598  1.6600
26692SOL    HW281816   7.119   8.759   4.618  0.6870 -1.1310  1.6403
26693SOL     OW81817   0.332   3.254   0.614  0.0070  0.5643  0.1574
26693SOL    HW181818   0.333   3.304   0.696 -1.5708  0.1995  0.4327
26693SOL    HW281819   0.404   3.193   0.623  0.1254  0.8159  1.1038
26694SOL     OW81820   1.856   9.505   8.332  0.8381 -0.0678 -0.5287
26694SOL    HW181821   1.860   9.479   8.424 -1.9690 -0.7350 -0.5130
26694SOL    HW281822   1.867   9.423   8.284  0.9590  0.0773 -0.7463
26695SOL     OW81823   7.085   7.042   7.014 -0.6574  0.1158 -0.1486
26695SOL    HW181824   7.107   6.956   7.050  1.6255  0.2004 -1.1688
26695SOL    HW281825   7.104   7.103   7.086 -0.2644 -0.0637 -0.0982
26696SOL     OW81826   0.013   2.420   4.847 -0.0263  0.0153 -0.9560
26696SOL    HW181827  -0.067   2.376   4.821 -0.6881  1.6593 -1.8023
26696SOL    HW281828   0.068   2.419   4.769  1.7433 -2.8874  0.1144
26697SOL     OW81829   4.090   2.741   8.482  0.0383 -0.2970 -0.1274
26697SOL    HW181830   4.145   2.785   8.546  1.2277 -2.4017  0.3935
26697SOL    HW281831   4.145   2.731   8.405  0.1931 -1.7749  0.1442
26698SOL     OW81832   8.437   9.367   3.993 -0.4211 -0.6971  0.0350
26698SOL    HW181833   8.347   9.389   4.016  0.2066 -0.3443  2.4615
26698SOL    HW281834   8.462   9.299   4.056  0.8441 -1.2189 -0.9759
26699SOL     OW81835   3.584   3.786   6.447 -0.0439 -0.0902  0.4829
26699SOL    HW181836   3.565   3.707   6.498  0.5369 -0.1612  0.5961
26699SOL    HW281837   3.539   3.857   6.495 -0.4148 -0.3184  0.4800
26700SOL     OW81838   3.062   8.843   8.755  0.1628 -0.3361 -0.6437
26700SOL    HW181839   3.030   8.913   8.698  1.1054  0.6686  0.0071
26700SOL    HW281840   3.149   8.873   8.782 -0.7986 -0.0056  2.5256
26701SOL     OW81841   2.658   8.424   3.145 -0.0845 -0.5902  0.6800
26701SOL    HW181842   2.716   8.422   3.221 -0.1284 -0.0378  0.7290
26701SOL    HW281843   2.664   8.513   3.112  1.5881 -1.3366 -1.2381
26702SOL     OW81844   7.281   3.410   4.196 -0.3612  0.5342 -0.0949
26702SOL    HW181845   7.283   3.325   4.153 -2.9114 -0.6750  1.8696
26702SOL    HW281846   7.226   3.464   4.139  0.4714  0.5955 -0.8611
26703SOL     OW81847   7.381   2.525   8.548  0.4245  0.5236 -0.2713
26703SOL    HW181848   7.471   2.517   8.518  0.8903 -1.3456  1.4010
26703SOL    HW281849   7.381   2.605   8.600  0.8573  1.0479 -1.0531
26704SOL     OW81850   2.978   5.653   6.737  0.2418  0.3015  0.5863
26704SOL    HW181851   3.030   5.695   6.668 -0.4454  1.0791  0.5296
26704SOL    HW281852   3.041   5.596   6.782  1.1009  1.0730  0.4004
26705SOL     OW81853   3.986   2.266   8.557 -0.1067  0.2224 -0.0972
26705SOL    HW181854   4.047   2.215   8.610 -2.6791 -1.6273  1.2885
26705SOL    HW281855   3.981   2.350   8.601  0.6986  0.0707  0.3062
26706SOL     OW81856   0.263   0.440   0.286 -0.1254 -0.0869  0.0764
26706SOL    HW181857   0.232   0.518   0.331 -0.3318 -0.2907  0.2876
26706SOL    HW281858   0.242   0.367   0.344 -0.3282 -0.3448 -0.3090
26707SOL     OW81859   6.093   7.368   1.640  0.1577  0.0613  0.3402
26707SOL    HW181860   6.056   7.455   1.626 -1.5789  0.0116  3.6916
26707SOL    HW281861   6.188   7.381   1.637 -0.0721  1.8130 -0.3966
26708SOL     OW81862   1.664   4.730   1.285 -0.1955 -0.1491 -0.8293
26708SOL    HW181863   1.579   4.686   1.289 -1.0335  1.4787  0.4144
26708SOL    HW281864   1.648   4.805   1.227  0.6378 -0.3016 -1.2632
26709SOL     OW81865   6.321   0.474   0.092  0.2634  0.5160 -0.2448
26709SOL    HW181866   6.319   0.496   0.185 -0.4484  1.2040 -0.4032
26709SOL    HW281867   6.335   0.558   0.048 -0.5406  0.3710 -0.7994
26710SOL     OW81868   2.574   0.230   7.130  0.1683  0.1700 -0.0348
26710SOL    HW181869   2.526   0.286   7.069  0.4862 -0.1877 -0.6195
26710SOL    HW281870   2.534   0.248   7.215  0.5158  1.5495 -0.1506
26711SOL     OW81871   0.163   5.142   4.058  0.0234  0.0060 -0.0834
26711SOL    HW181872   0.072   5.132   4.083 -0.1023  0.8224 -0.1961
26711SOL    HW281873   0.188   5.229   4.089  1.0526 -0.5760  0.8093
26712SOL     OW81874   9.167   3.016   1.118 -0.0464  0.3817 -0.0359
26712SOL    HW181875   9.126   2.931   1.136 -0.0228  0.0396 -1.4599
26712SOL    HW281876   9.114   3.079   1.167 -0.5631 -0.3623  0.3887
26713SOL     OW81877   1.736   5.325   7.997  0.8168  0.0413 -0.1256
26713SOL    HW181878   1.779   5.408   7.978 -1.3461  1.5762  1.2495
26713SOL    HW281879   1.708   5.293   7.911 -0.6155  2.1341 -0.5279
26714SOL     OW81880   5.998   2.813   0.370 -0.0525 -0.2471 -0.2720
26714SOL    HW181881   5.989   2.720   0.391 -0.8893 -0.3257 -0.9017
26714SOL    HW281882   5.914   2.836   0.330 -0.5657  1.2439  1.5398
26715SOL     OW81883   0.404   3.885   1.973  0.2003  0.7457 -0.3936
26715SOL    HW181884   0.435   3.804   1.932  1.7419 -0.2290  2.4734
26715SOL    HW281885   0.309   3.878   1.971  0.2512 -0.0459 -2.1393
26716SOL     OW81886   8.319   8.090   8.071  1.1288  0.1967 -0.5317
26716SOL    HW181887   8.406   8.053   8.055  0.7543 -0.7161 -0.4913
26716SOL    HW281888   8.267   8.061   7.997  0.6937  0.2065 -0.2306
26717SOL     OW81889   6.164   6.066   1.386 -0.1958  0.1123  0.6912
26717SOL    HW181890   6.174   6.133   1.453  1.1407 -0.7252  1.3891
26717SOL    HW281891   6.145   6.114   1.305 -2.2205  1.1103  1.7106
26718SOL     OW81892   3.370   0.311   2.426 -0.1922  0.1685  0.3572
26718SOL    HW181893   3.287   0.301   2.473 -0.5064 -1.7516 -0.4872
26718SOL    HW281894   3.400   0.399   2.448 -2.2838  0.7931  0.9556
26719SOL     OW81895   3.025   3.812   7.384  0.0128  0.1813  0.1527
26719SOL    HW181896   2.931   3.800   7.396 -0.1384  1.0246 -0.0705
26719SOL    HW281897   3.032   3.861   7.302  0.7622 -1.5779 -0.8896
26720SOL     OW81898   5.357   8.858   3.566  0.2171 -0.5265  0.5898
26720SOL    HW181899   5.308   8.939   3.580  1.5791  0.2135  1.2581
26720SOL    HW281900   5.358   8.846   3.471  0.7155  0.6874  0.4339
26721SOL     OW81901   2.134   8.053   1.031  0.2896  0.7511 -0.0516
26721SOL    HW181902   2.049   8.023   0.998  0.2610  1.6435 -0.8281
26721SOL    HW281903   2.112   8.125   1.090  0.4225 -0.0593  1.0171
26722SOL     OW81904   5.866   3.585   9.459  0.2460  0.1652 -0.2956
26722SOL    HW181905   5.795   3.621   9.405  0.2604  2.6155  1.1490
26722SOL    HW281906   5.830   3.504   9.495 -1.9135  1.3504  0.4114
26723SOL     OW81907   0.843   2.044   6.411  0.4711  0.4753  0.2837
26723SOL    HW181908   0.929   2.088   6.406  0.8874 -0.4087 -0.6546
26723SOL    HW281909   0.795   2.095   6.477  0.4952  3.0842 -1.5537
26724SOL     OW81910   7.499   9.289   9.405  0.5392 -0.4506  0.1932
26724SOL    HW181911   7.555   9.251   9.473 -1.3023 -2.6722  0.5934
26724SOL    HW281912   7.414   9.300   9.447 -0.0814  0.1645 -1.1566
26725SOL     OW81913   7.709   0.728   6.997 -0.7744  0.2003  0.3363
26725SOL    HW181914   7.704   0.822   7.016 -1.3926  0.4459 -0.9295
26725SOL    HW281915   7.642   0.713   6.931 -0.3113 -1.0302  0.1146
26726SOL     OW81916   1.737   2.946   0.213 -0.0805  0.3599  0.2718
26726SOL    HW181917   1.769   2.887   0.282 -0.2082  0.2389  0.2295
26726SOL    HW281918   1.732   3.031   0.255 -0.4221  0.2323  0.4903
26727SOL     OW81919   8.855   8.974   8.424 -0.1722  0.6029 -0.5197
26727SOL    HW181920   8.917   9.019   8.367 -0.0405  0.8768 -0.1630
26727SOL    HW281921   8.872   8.881   8.409  0.7869  0.6762  0.0835
26728SOL     OW81922   0.519   0.419   6.189  0.1102 -0.4946  0.1549
26728SOL    HW181923   0.486   0.361   6.257  2.5739 -2.4923 -0.1844
26728SOL    HW281924   0.601   0.454   6.224  0.3096  0.1812 -0.9229
26729SOL     OW81925   0.492   6.252   3.068 -0.6368 -0.0061  0.2629
26729SOL    HW181926   0.465   6.339   3.098 -0.6878  0.2841 -0.5830
26729SOL    HW281927   0.587   6.251   3.076 -0.5787  0.3640 -0.3023
26730SOL     OW81928   1.429   0.519   5.626 -0.8736  0.4886  0.1553
26730SOL    HW181929   1.525   0.518   5.624 -0.8827  0.7692 -1.0696
26730SOL    HW281930   1.406   0.457   5.695  0.1653 -0.4880 -0.3490
26731SOL     OW81931   7.100   9.390   5.622 -0.2229  0.3520 -0.1497
26731SOL    HW181932   7.176   9.446   5.605 -0.3627  0.3457 -0.8326
26731SOL    HW281933   7.042   9.406   5.548 -0.1221 -0.9467 -0.5274
26732SOL     OW81934   5.674   1.478   0.468  0.5518  0.2790  0.2319
26732SOL    HW181935   5.764   1.475   0.435  0.9066 -1.7346  1.2252
26732SOL    HW281936   5.625   1.422   0.408 -0.0518  1.2973 -0.2524
26733SOL     OW81937   2.686   6.245   7.670 -0.2508 -0.1482 -0.0818
26733SOL    HW181938   2.633   6.292   7.735  0.4707  0.6076 -0.0229
26733SOL    HW281939   2.676   6.153   7.694 -0.3483  0.0880  0.8307
26734SOL     OW81940   3.647   0.255   7.584  0.3021  0.3347  0.0741
26734SOL    HW181941   3.703   0.313   7.636  0.6294 -0.6924  0.9105
26734SOL    HW281942   3.558   0.278   7.609  0.4474  0.1216  0.8259
26735SOL     OW81943   6.660   5.926   2.401 -0.1512 -0.2914  0.0479
26735SOL    HW181944   6.568   5.914   2.376  0.2789 -1.4046 -1.1515
26735SOL    HW281945   6.668   5.882   2.485 -0.9435  0.7307  0.6726
26736SOL     OW81946   8.014   0.852   9.381 -0.2441  0.0928  0.3114
26736SOL    HW181947   8.087   0.904   9.346 -0.0173  1.8476  3.0452
26736SOL    HW281948   8.056   0.795   9.445 -1.2009  1.1156  1.9076
26737SOL     OW81949   8.377   8.499   9.147  0.3545 -0.6964  0.1368
26737SOL    HW181950   8.443   8.444   9.190  0.7193 -1.8568 -1.7772
26737SOL    HW281951   8.314   8.436   9.110 -0.2657  0.2651 -0.4850
26738SOL     OW81952   0.950   5.842   7.035  0.0543 -0.2431  0.1474
26738SOL    HW181953   0.965   5.752   7.004  2.0862  0.2774 -0.5881
26738SOL    HW281954   0.978   5.841   7.126 -0.0182 -0.3967  0.1679
26739SOL     OW81955   7.357   0.984   1.795 -0.6413  0.5362  0.4495
26739SOL    HW181956   7.329   0.974   1.704  1.9103  0.4477 -0.3983
26739SOL    HW281957   7.438   1.035   1.790  0.4488 -0.8503  2.5103
26740SOL     OW81958   4.980   9.117   5.666 -0.2193  0.3837 -0.2930
26740SOL    HW181959   4.946   9.105   5.755 -1.8345 -0.8054 -1.0105
26740SOL    HW281960   4.902   9.117   5.610  0.8564 -2.0535 -2.0166
26741SOL     OW81961   3.033   2.811   8.934 -0.4556 -0.1818 -0.1091
26741SOL    HW181962   2.975   2.888   8.934 -0.1208  0.0732 -0.1745
26741SOL    HW281963   3.025   2.775   8.846 -1.8194 -1.1498  0.3812
26742SOL     OW81964   5.295   7.935   7.459 -0.5204  0.3109  0.1229
26742SOL    HW181965   5.237   7.895   7.523 -1.0655  0.3385 -0.3456
26742SOL    HW281966   5.304   7.869   7.390 -0.4987  0.5461 -0.1015
26743SOL     OW81967   3.111   6.181   2.418  0.5046 -0.3624 -0.3478
26743SOL    HW181968   3.033   6.222   2.456  0.7297  0.7477 -1.0246
26743SOL    HW281969   3.103   6.089   2.440 -0.7161 -0.1718  0.0838
26744SOL     OW81970   0.673   5.254   0.923 -0.1576  0.2589 -0.1370
26744SOL    HW181971   0.740   5.196   0.885  0.2908 -0.6640  1.8830
26744SOL    HW281972   0.674   5.332   0.868  1.2678 -0.5065 -1.2618
26745SOL     OW81973   6.156   4.513   1.145 -0.3161 -0.5885  0.2126
26745SOL    HW181974   6.125   4.552   1.063 -0.6921  0.0062  0.6271
26745SOL    HW281975   6.077   4.503   1.197  0.1523  0.8547  1.2544
26746SOL     OW81976   0.548   8.631   0.409 -0.1024  0.0216  0.2159
26746SOL    HW181977   0.506   8.710   0.442  0.9760  0.4301  0.6475
26746SOL    HW281978   0.518   8.624   0.318  2.3650  2.8599 -0.9791
26747SOL     OW81979   6.801   2.344   5.516  1.0618  0.1696 -0.5313
26747SOL    HW181980   6.829   2.395   5.440 -1.3664  2.4935 -0.0119
26747SOL    HW281981   6.802   2.407   5.589  1.2667 -1.4431  0.9349
26748SOL     OW81982   3.543   3.291   5.652 -0.5458 -0.5142  0.0074
26748SOL    HW181983   3.564   3.384   5.663 -0.7517 -0.2374 -1.6715
26748SOL    HW281984   3.486   3.271   5.726 -0.8032  0.7999  0.2002
26749SOL     OW81985   8.915   5.286   8.585 -0.3523  0.3670  0.0722
26749SOL    HW181986   8.894   5.378   8.567  1.5651  0.4724 -2.1321
26749SOL    HW281987   8.860   5.237   8.524  1.3224  0.3348 -1.5040
26750SOL     OW81988   6.337   5.547   5.611  0.6387  0.6238  0.2860
26750SOL    HW181989   6.356   5.453   5.611  1.1397  0.6050 -3.0104
26750SOL    HW281990   6.422   5.588   5.627  0.3145  0.5982  2.3718
26751SOL     OW81991   8.902   3.955   8.867 -0.1930  0.0629  0.0411
26751SOL    HW181992   8.970   3.913   8.919 -0.3575  0.8791  0.9542
26751SOL    HW281993   8.861   4.017   8.927 -0.3845  1.0517 -1.0673
26752SOL     OW81994   5.611   4.348   1.329 -0.3138 -0.1310 -0.1864
26752SOL    HW181995   5.621   4.396   1.247  0.5793 -0.3513 -0.2131
26752SOL    HW281996   5.626   4.413   1.397  0.8979 -0.3580 -0.2228
26753SOL     OW81997   4.991   0.749   5.512 -0.0280  0.5848  0.0307
26753SOL    HW181998   4.897   0.757   5.522 -0.0242 -1.8398  4.0520
26753SOL    HW281999   5.028   0.805   5.580  1.2968 -0.2772  0.0667
26754SOL     OW82000   6.033   4.407   6.271 -0.3797 -0.0207  0.0305
26754SOL    HW182001   6.027   4.481   6.331  0.7337  0.7719 -0.7887
26754SOL    HW282002   5.946   4.400   6.233 -0.3918  1.1664 -0.2094
26755SOL     OW82003   1.806   7.785   1.061  0.0497  0.3101  0.1836
26755SOL    HW182004   1.840   7.696   1.073 -0.1712  0.3179  0.9292
26755SOL    HW282005   1.712   7.773   1.047  0.4544  0.1940 -3.1083
26756SOL     OW82006   5.185   7.937   2.680 -0.4824  0.5662  0.1982
26756SOL    HW182007   5.135   7.926   2.599 -0.0099 -1.6665  0.1393
26756SOL    HW282008   5.120   7.961   2.745 -1.0370  1.3366 -0.6240
26757SOL     OW82009   4.472   0.555   8.771  0.2473 -0.3590  0.4627
26757SOL    HW182010   4.404   0.622   8.765 -0.4134 -1.1553 -1.5507
26757SOL    HW282011   4.551   0.599   8.738  0.3643  0.0915  1.3157
26758SOL     OW82012   9.590   1.045   6.578  0.1604 -0.1057  0.5471
26758SOL    HW182013   9.659   1.099   6.616  1.7369 -0.5843 -1.5118
26758SOL    HW282014   9.635   0.968   6.544 -1.6020 -1.1554  0.4559
26759SOL     OW82015   4.309   6.385   0.821  0.1121 -0.9392  0.4221
26759SOL    HW182016   4.378   6.344   0.874  1.2762  2.0684  1.4405
26759SOL    HW282017   4.228   6.353   0.860  0.9435 -2.1649  1.2348
26760SOL     OW82018   5.765   7.654   7.907  0.7838 -0.9372 -0.1551
26760SOL    HW182019   5.736   7.652   7.998  0.8923  0.9523 -0.0515
26760SOL    HW282020   5.724   7.731   7.869  0.2359 -2.0164 -1.9152
26761SOL     OW82021   5.074   0.830   0.726 -0.0388  0.2131 -0.1898
26761SOL    HW182022   5.072   0.744   0.683  0.2523  1.1697 -2.2711
26761SOL    HW282023   4.988   0.839   0.765 -0.1647 -0.9056 -0.1588
26762SOL     OW82024   0.784   2.665   3.327 -0.3025 -0.5049  0.4920
26762SOL    HW182025   0.873   2.698   3.333 -0.1607 -1.0313  1.3656
26762SOL    HW282026   0.779   2.624   3.241  0.4404 -0.8847  0.6228
26763SOL     OW82027   7.994   8.461   7.505  0.1836 -0.2046 -0.1007
26763SOL    HW182028   8.057   8.528   7.478 -0.6924  1.2947  1.3682
26763SOL    HW282029   7.936   8.450   7.430  0.3622  0.6901 -0.3774
26764SOL     OW82030   0.702   5.921   3.358  0.1850  0.1113  0.1457
26764SOL    HW182031   0.608   5.940   3.356  0.2233  0.4065  0.8326
26764SOL    HW282032   0.722   5.908   3.451  0.5512 -1.3797 -0.1127
26765SOL     OW82033   8.775   7.099   8.813 -0.6128 -0.2064  0.6097
26765SOL    HW182034   8.751   7.034   8.747 -0.8301 -0.3243  0.8038
26765SOL    HW282035   8.706   7.166   8.807  0.2420  0.6257 -0.4193
26766SOL     OW82036   7.067   7.785   4.770  0.3357 -0.2463  0.6921
26766SOL    HW182037   7.116   7.703   4.763  0.6482 -0.2588  2.5702
26766SOL    HW282038   6.981   7.765   4.733  1.4442 -0.4040 -2.0537
26767SOL     OW82039   4.032   4.693   3.827  0.2123 -0.2319  0.6072
26767SOL    HW182040   4.033   4.778   3.872 -1.1774 -0.0830  0.3944
26767SOL    HW282041   4.096   4.703   3.757 -2.0473  1.7730 -1.3455
26768SOL     OW82042   0.078   4.798   6.206  0.2853 -0.0186  0.5745
26768SOL    HW182043   0.125   4.793   6.123 -1.7179 -0.0216 -0.6488
26768SOL    HW282044   0.068   4.707   6.233 -2.3928 -0.4232 -1.3048
26769SOL     OW82045   5.306   8.591   8.331 -0.0611 -0.2809  0.3802
26769SOL    HW182046   5.301   8.571   8.424 -2.6856  0.4705  0.4668
26769SOL    HW282047   5.317   8.506   8.288  2.2106 -0.5527  1.3510
26770SOL     OW82048   8.527   9.225   7.486 -0.1070 -0.1471  0.5290
26770SOL    HW182049   8.573   9.144   7.463  0.4978  0.2545  0.2819
26770SOL    HW282050   8.591   9.274   7.537 -0.2171  0.4824  0.0642
26771SOL     OW82051   8.104   9.546   8.913  0.4961 -0.1448 -0.2242
26771SOL    HW182052   8.186   9.500   8.894 -0.4281 -1.7098 -0.6824
26771SOL    HW282053   8.038   9.476   8.915 -1.3557  1.3068 -2.9829
26772SOL     OW82054   4.990   3.005   6.299 -0.5919 -0.5274  0.1336
26772SOL    HW182055   4.934   3.050   6.235  0.0551  0.3693  0.1709
26772SOL    HW282056   5.020   2.927   6.254  1.4624  1.0577 -1.4960
26773SOL     OW82057   8.114   1.792   0.650 -0.0627 -0.1380  0.1221
26773SOL    HW182058   8.185   1.850   0.677  0.5497 -0.6110 -0.4099
26773SOL    HW282059   8.136   1.770   0.559 -0.8218 -0.3995 -0.0005
26774SOL     OW82060   0.197   6.088   0.730  0.2350  0.4732  0.0705
26774SOL    HW182061   0.244   6.129   0.802  1.3817  1.3008 -1.1015
26774SOL    HW282062   0.210   5.994   0.743  0.1306  0.6019  1.1258
26775SOL     OW82063   9.498   8.563   9.088  0.2150  0.0059  0.0973
26775SOL    HW182064   9.445   8.495   9.047 -0.4590  0.9357 -0.6286
26775SOL    HW282065   9.516   8.625   9.017 -1.3602  1.9014  1.2485
26776SOL     OW82066   1.178   7.171   3.731 -0.4993 -0.1421 -0.0933
26776SOL    HW182067   1.144   7.222   3.658  0.8648  0.5939 -0.2499
26776SOL    HW282068   1.270   7.156   3.709  0.2052  0.9267  1.8743
26777SOL     OW82069   6.278   5.322   3.712  0.3550 -0.2811 -0.7906
26777SOL    HW182070   6.230   5.404   3.705  1.9607  0.6237 -1.6754
26777SOL    HW282071   6.242   5.267   3.642 -0.4805 -0.2324 -0.4138
26778SOL     OW82072   6.581   4.495   1.294  0.0608 -0.3696 -0.2249
26778SOL    HW182073   6.525   4.528   1.224 -0.2772  0.4059  0.3970
26778SOL    HW282074   6.594   4.570   1.353  1.7523 -0.5307 -0.3423
26779SOL     OW82075   3.842   7.412   8.878 -0.3732 -0.1335  0.0986
26779SOL    HW182076   3.859   7.325   8.842 -0.7886  0.1952 -0.9261
26779SOL    HW282077   3.748   7.425   8.866 -0.2548  0.5913 -0.0596
26780SOL     OW82078   0.324   2.885   8.388  0.3784 -0.4087 -0.3586
26780SOL    HW182079   0.278   2.804   8.368 -0.4889  0.0932 -0.4715
26780SOL    HW282080   0.275   2.953   8.341  0.3093  0.3406  0.7421
26781SOL     OW82081   2.723   1.966   5.700 -0.8594  0.4033 -0.2253
26781SOL    HW182082   2.766   2.045   5.733  2.2466 -1.9458  2.0355
26781SOL    HW282083   2.646   1.955   5.755  0.0350  0.6126  1.0999
26782SOL     OW82084   1.782   3.945   9.101  0.2755 -1.1039 -0.0156
26782SOL    HW182085   1.803   3.989   9.018  0.7866  0.5038  0.9148
26782SOL    HW282086   1.825   3.998   9.168 -0.3742 -2.1909  1.3233
26783SOL     OW82087   6.581   5.082   4.126 -0.4304 -0.6038  0.4467
26783SOL    HW182088   6.487   5.098   4.132 -0.4809 -0.5767 -0.3891
26783SOL    HW282089   6.590   5.019   4.055  0.1924 -0.5529  0.4775
26784SOL     OW82090   3.418   5.796   0.926 -0.0773 -0.3666 -0.1380
26784SOL    HW182091   3.368   5.768   0.849  1.1936 -0.5072 -0.9332
26784SOL    HW282092   3.444   5.714   0.969 -0.5336 -0.2919  0.2986
26785SOL     OW82093   8.017   5.344   3.525  0.1733 -0.3272  0.1878
26785SOL    HW182094   8.108   5.329   3.549  0.1266  0.2203  0.7432
26785SOL    HW282095   7.969   5.337   3.608 -0.1278  0.6233  0.1087
26786SOL     OW82096   1.697   8.158   7.580  0.3949 -0.4429 -0.4654
26786SOL    HW182097   1.657   8.201   7.505  0.5385  0.6383  0.0657
26786SOL    HW282098   1.624   8.122   7.630  0.1958  0.1512 -0.3275
26787SOL     OW82099   7.702   0.695   0.688 -0.0810 -0.3021  0.1019
26787SOL    HW182100   7.626   0.650   0.650 -0.2122  0.2511 -0.3070
26787SOL    HW282101   7.665   0.761   0.746  0.1042 -0.5550  0.5060
26788SOL     OW82102   7.307   1.564   7.039 -0.1073  0.0223 -0.5541
26788SOL    HW182103   7.290   1.642   7.091 -0.3844 -0.2447 -0.2426
26788SOL    HW282104   7.268   1.492   7.089  0.3507 -0.3496 -0.7182
26789SOL     OW82105   0.651   8.194   4.195 -0.2902 -0.0002 -0.2225
26789SOL    HW182106   0.640   8.189   4.290  1.9058  0.6995  0.1391
26789SOL    HW282107   0.729   8.141   4.178  0.1412  0.9807 -1.4436
26790SOL     OW82108   4.226   8.913   2.015  0.4962  0.2742 -0.7510
26790SOL    HW182109   4.162   8.985   2.021 -0.0844 -0.3167  0.7719
26790SOL    HW282110   4.221   8.871   2.101  0.8431 -1.5811 -1.6105
26791SOL     OW82111   6.314   7.935   5.829 -0.1397 -0.2880 -0.6355
26791SOL    HW182112   6.327   7.843   5.849 -0.2721 -0.2678 -0.4457
26791SOL    HW282113   6.230   7.938   5.783 -0.5809 -0.1615  0.1589
26792SOL     OW82114   7.835   0.073   8.339 -0.3113  0.1462 -0.6391
26792SOL    HW182115   7.807  -0.007   8.384  2.7635 -0.4414  0.4833
26792SOL    HW282116   7.824   0.142   8.404  1.4331 -0.2254  0.1091
26793SOL     OW82117   9.314   7.356   0.321  0.8590  0.3808 -0.0002
26793SOL    HW182118   9.393   7.380   0.370 -0.0777  1.1681  1.1817
26793SOL    HW282119   9.276   7.284   0.371 -1.3609  2.6831  1.9268
26794SOL     OW82120   5.916   3.166   7.609  0.2960 -0.6568 -0.3317
26794SOL    HW182121   5.827   3.134   7.593 -0.0081  0.0024  0.0140
26794SOL    HW282122   5.920   3.179   7.704  0.9734 -1.2901 -0.2670
26795SOL     OW82123   0.295   0.120   4.824  0.1028  0.0206  0.3688
26795SOL    HW182124   0.320   0.156   4.739  1.5955  1.3997  1.3246
26795SOL    HW282125   0.215   0.168   4.847 -0.9725 -1.1832 -0.7235
26796SOL     OW82126   5.800   7.593   0.095  0.1944  0.0948 -0.1966
26796SOL    HW182127   5.754   7.581   0.178  0.9738 -1.8164  0.0115
26796SOL    HW282128   5.737   7.563   0.029  0.0421  0.3817 -0.1823
26797SOL     OW82129   4.672   4.905   7.946 -0.4065  0.5347 -0.2666
26797SOL    HW182130   4.745   4.962   7.920  0.9474 -0.5381  1.0491
26797SOL    HW282131   4.701   4.864   8.027 -0.9473 -2.6594 -1.5248
26798SOL     OW82132   3.587   1.685   1.066 -0.0221 -0.5225 -0.3125
26798SOL    HW182133   3.584   1.744   0.991 -0.3567 -1.4851 -1.0661
26798SOL    HW282134   3.645   1.729   1.128 -0.5674  0.7915 -0.6833
26799SOL     OW82135   6.099   9.372   1.655  0.4951 -0.3180 -0.9436
26799SOL    HW182136   6.162   9.352   1.725  0.1326  3.0561  0.5425
26799SOL    HW282137   6.123   9.460   1.626 -1.7108 -0.1494 -2.4563
26800SOL     OW82138   5.709   1.192   0.959  0.3579  0.1951 -0.3689
26800SOL    HW182139   5.800   1.216   0.971 -0.0508  1.0480  1.2068
26800SOL    HW282140   5.672   1.262   0.905  0.7478 -0.4833 -1.5681
26801SOL     OW82141   3.546   4.484   6.098  0.1056 -0.0684  0.9777
26801SOL    HW182142   3.486   4.544   6.143 -0.3776  1.0784 -1.0895
26801SOL    HW282143   3.503   4.464   6.015  1.2212 -1.6609  0.7472
26802SOL     OW82144   0.069   6.505   5.026  0.4573  0.0337 -0.3196
26802SOL    HW182145   0.029   6.523   5.111 -0.0596 -0.6725 -0.4008
26802SOL    HW282146  -0.006   6.494   4.967  0.7130 -2.0502 -0.3253
26803SOL     OW82147   8.603   2.277   7.962 -0.2063 -0.0590  0.4217
26803SOL    HW182148   8.618   2.372   7.960  0.7391 -0.1934 -1.5545
26803SOL    HW282149   8.514   2.266   7.928  0.7262  0.0366 -2.2858
26804SOL     OW82150   3.910   5.514   3.372 -0.0534 -0.1091 -0.0203
26804SOL    HW182151   3.822   5.513   3.335  0.2839  0.8290 -0.9193
26804SOL    HW282152   3.897   5.530   3.466 -0.9691 -3.3235  0.5217
26805SOL     OW82153   4.999   4.083   7.386  0.2442 -0.3638 -0.2178
26805SOL    HW182154   5.044   4.038   7.315  0.2390 -0.4610 -0.1602
26805SOL    HW282155   4.937   4.141   7.343  1.7385  1.2119 -0.3801
26806SOL     OW82156   4.852   1.341   7.539  0.5101 -0.6161  0.0544
26806SOL    HW182157   4.909   1.384   7.475 -1.6382  1.7248 -0.4196
26806SOL    HW282158   4.781   1.303   7.487 -1.0168  0.9099  0.9322
26807SOL     OW82159   6.616   5.128   3.410 -0.1301  0.2955  0.1315
26807SOL    HW182160   6.691   5.070   3.393 -2.2331 -2.6007 -0.0385
26807SOL    HW282161   6.563   5.080   3.473 -2.6514  1.4223 -1.0074
26808SOL     OW82162   6.440   3.557   4.778  0.2456  0.6820  0.5259
26808SOL    HW182163   6.414   3.497   4.708 -0.6518  1.1724  0.4247
26808SOL    HW282164   6.456   3.500   4.853 -0.4853  0.3051  0.4043
26809SOL     OW82165   7.384   5.702   1.460 -0.1427  0.5214 -0.4006
26809SOL    HW182166   7.436   5.702   1.379 -0.2471 -1.5339 -0.5184
26809SOL    HW282167   7.444   5.670   1.527 -0.9538 -0.9902 -0.3570
26810SOL     OW82168   8.765   6.081   2.207  0.0179 -0.3157 -0.0886
26810SOL    HW182169   8.753   6.066   2.113  1.0033 -1.0810 -0.1069
26810SOL    HW282170   8.775   5.994   2.245 -0.0896 -0.0001  0.7024
26811SOL     OW82171   7.950   1.807   1.689  0.2888 -0.2592  0.1598
26811SOL    HW182172   7.856   1.812   1.708  0.3267  0.8206  0.1301
26811SOL    HW282173   7.959   1.731   1.631 -0.7245  0.2478 -0.7084
26812SOL     OW82174   5.594   3.544   6.239 -0.2457 -0.1455 -0.1100
26812SOL    HW182175   5.648   3.591   6.176 -1.3441  0.6252 -0.5135
26812SOL    HW282176   5.544   3.482   6.186  1.0042 -1.6259  0.3896
26813SOL     OW82177   3.617   3.355   8.733  0.2433  0.0051 -0.2828
26813SOL    HW182178   3.550   3.398   8.680  0.6223 -0.8433 -1.4822
26813SOL    HW282179   3.690   3.342   8.673  0.5307 -1.3559  0.3417
26814SOL     OW82180   1.745   0.717   0.364  0.0265 -0.4689  0.0656
26814SOL    HW182181   1.814   0.674   0.313  0.1746 -0.4638  0.2613
26814SOL    HW282182   1.778   0.718   0.454  0.3278  0.6728 -0.0469
26815SOL     OW82183   2.792   3.304   8.914 -0.3015  0.0502  0.3079
26815SOL    HW182184   2.777   3.312   9.008 -0.4075 -1.8250  0.4817
26815SOL    HW282185   2.886   3.318   8.903  0.0162 -1.4974  0.9341
26816SOL     OW82186   8.397   3.032   1.998  0.0367  0.5190  0.4349
26816SOL    HW182187   8.331   3.073   2.054 -0.3743 -0.3483  0.6078
26816SOL    HW282188   8.464   3.099   1.987 -1.5802  1.9989 -1.0382
26817SOL     OW82189   6.379   8.451   0.587 -0.8639  0.4269  0.1824
26817SOL    HW182190   6.296   8.487   0.620 -0.1699  1.5641  0.7242
26817SOL    HW282191   6.414   8.399   0.659  0.4555  2.5879  1.2019
26818SOL     OW82192   1.365   0.070   5.255 -0.0630  0.2036  0.5034
26818SOL    HW182193   1.276   0.089   5.225 -0.5881 -0.2598  1.7022
26818SOL    HW282194   1.380   0.131   5.327  0.2588 -0.2845  0.8569
26819SOL     OW82195   6.508   9.468   7.687  0.0990  0.1572  0.0599
26819SOL    HW182196   6.471   9.545   7.730  0.4927  0.4595 -0.1420
26819SOL    HW282197   6.506   9.400   7.755  0.8165  0.6603  0.5959
26820SOL     OW82198   5.880   0.419   3.556  0.1924  0.3954 -0.5471
26820SOL    HW182199   5.833   0.390   3.478 -0.0552 -0.9691  0.0739
26820SOL    HW282200   5.827   0.490   3.592  0.3193  1.0462 -1.6080
26821SOL     OW82201   3.745   4.422   8.559  0.2170  0.3362  0.0242
26821SOL    HW182202   3.747   4.484   8.632  0.9165 -0.0670  0.3534
26821SOL    HW282203   3.701   4.345   8.595  0.5011  0.1623  0.0018
26822SOL     OW82204   2.486   4.552   4.120  0.1332 -0.4390  0.4756
26822SOL    HW182205   2.573   4.513   4.119  0.3891  0.1203 -1.1185
26822SOL    HW282206   2.438   4.505   4.052 -0.2706  0.4358  0.1484
26823SOL     OW82207   5.278   8.945   2.481  0.0432 -0.4450 -1.0175
26823SOL    HW182208   5.222   8.931   2.404  0.2838 -2.0841 -0.9472
26823SOL    HW282209   5.367   8.953   2.445 -0.0614  0.8709 -1.0347
26824SOL     OW82210   0.554   6.276   7.176  0.5514  0.4853  0.2009
26824SOL    HW182211   0.626   6.244   7.229  1.1147 -0.3783 -1.0522
26824SOL    HW282212   0.591   6.350   7.128 -0.4060  2.3504  2.1619
26825SOL     OW82213   6.147   5.196   4.663  0.0111  0.4407  0.5078
26825SOL    HW182214   6.129   5.271   4.607  2.0518  0.6276  0.0087
26825SOL    HW282215   6.192   5.134   4.606 -0.5779 -0.6640  1.2169
26826SOL     OW82216   1.015   1.047   0.161 -0.0947 -0.5373  0.9239
26826SOL    HW182217   0.965   1.075   0.085 -1.2112 -1.7140  1.1817
26826SOL    HW282218   1.071   1.122   0.182  0.7476 -0.4175 -1.4362
26827SOL     OW82219   3.780   8.990   8.026  0.7038 -0.2960 -0.0064
26827SOL    HW182220   3.867   8.951   8.017  0.9276  0.6115 -2.4711
26827SOL    HW282221   3.725   8.943   7.963 -0.3029 -0.0010  0.6156
26828SOL     OW82222   4.645   4.411   5.933 -0.0447 -0.0545  0.4381
26828SOL    HW182223   4.569   4.454   5.894 -1.3173 -2.6600 -0.1738
26828SOL    HW282224   4.676   4.351   5.865  1.6781 -0.1091  1.2090
26829SOL     OW82225   9.010   6.906   8.801 -0.3313  0.1249  0.3621
26829SOL    HW182226   8.951   6.971   8.762 -1.7637 -1.4815 -0.3034
26829SOL    HW282227   8.955   6.862   8.866  0.7896 -0.0346  1.2113
26830SOL     OW82228   1.792   6.252   3.621  0.0479  0.1062 -0.1577
26830SOL    HW182229   1.828   6.339   3.607 -2.1103  0.8297 -1.7479
26830SOL    HW282230   1.704   6.267   3.655  0.2817 -1.5295  1.3568
26831SOL     OW82231   2.563   5.635   0.866  0.0974  0.4749 -0.6132
26831SOL    HW182232   2.581   5.729   0.859 -1.1809  0.7737 -0.1020
26831SOL    HW282233   2.560   5.618   0.961  1.4233 -0.3185 -0.6862
26832SOL     OW82234   3.410   5.303   7.125  0.0249  0.1152 -0.2558
26832SOL    HW182235   3.331   5.347   7.158 -0.0809 -1.3724  1.6408
26832SOL    HW282236   3.377   5.235   7.066 -0.3332 -1.7236  1.9412
26833SOL     OW82237   6.865   6.237   0.940 -0.1419  0.0004 -0.1125
26833SOL    HW182238   6.865   6.327   0.908 -0.4374  0.3275  0.7724
26833SOL    HW282239   6.805   6.239   1.016  0.3671 -0.7873  0.3170
26834SOL     OW82240   5.975   5.946   1.695 -0.2764  0.1738  0.2789
26834SOL    HW182241   5.969   6.035   1.661 -0.6500 -0.0578 -0.2798
26834SOL    HW282242   5.951   5.890   1.621  0.7982 -0.4378  0.3784
26835SOL     OW82243   5.489   3.395   6.023 -0.0845  0.2650 -0.1051
26835SOL    HW182244   5.396   3.413   6.016  0.0329  1.3711  0.7738
26835SOL    HW282245   5.495   3.300   6.038 -1.0760  0.2266  0.0732
26836SOL     OW82246   4.234   5.850   3.560 -0.1451  0.7022 -0.7686
26836SOL    HW182247   4.307   5.905   3.586  1.3111 -0.2054 -2.7072
26836SOL    HW282248   4.241   5.844   3.465 -2.3477  0.0227 -0.9399
26837SOL     OW82249   5.802   0.287   6.332  0.0851 -0.1519  0.1643
26837SOL    HW182250   5.725   0.311   6.280 -0.7619  0.4244  1.6387
26837SOL    HW282251   5.775   0.299   6.423  1.8808 -0.0664  0.7268
26838SOL     OW82252   7.059   4.075   2.843 -0.0900 -0.1714  0.3427
26838SOL    HW182253   7.143   4.042   2.811  0.4127 -0.8029  2.1896
26838SOL    HW282254   7.004   3.997   2.852  0.1074 -0.1683  1.8648
26839SOL     OW82255   4.763   0.202   9.068  0.2532  0.1070  0.0387
26839SOL    HW182256   4.782   0.295   9.071 -0.3781  0.2492 -0.4595
26839SOL    HW282257   4.796   0.169   9.152  0.0105  0.8594  0.4382
26840SOL     OW82258   8.358   4.955   8.287 -0.0365  0.0249 -0.0982
26840SOL    HW182259   8.304   4.921   8.359 -3.1278  0.3240 -2.0885
26840SOL    HW282260   8.448   4.944   8.318 -1.0302 -3.3807  2.2667
26841SOL     OW82261   0.234   4.116   0.336 -0.3233 -0.0633  0.0675
26841SOL    HW182262   0.284   4.124   0.255  0.0657  1.5163  0.4449
26841SOL    HW282263   0.155   4.169   0.322 -1.1898 -1.2969  0.0523
26842SOL     OW82264   1.302   8.459   9.507 -0.1004 -0.2386  0.3057
26842SOL    HW182265   1.335   8.505   9.430 -0.6639 -1.3531 -0.6282
26842SOL    HW282266   1.256   8.527   9.558 -0.1084  0.4216 -0.5579
26843SOL     OW82267   7.299   2.977   6.254  0.1938  0.5311 -0.0360
26843SOL    HW182268   7.268   3.039   6.320 -0.4272 -0.7502  0.9085
26843SOL    HW282269   7.394   2.990   6.253  0.6385 -1.3753  3.2793
26844SOL     OW82270   4.325   6.860   8.863  0.3989 -0.0111  0.3947
26844SOL    HW182271   4.319   6.765   8.853 -0.8292  0.1927 -1.3517
26844SOL    HW282272   4.313   6.894   8.774 -1.4939  1.8340  1.2634
26845SOL     OW82273   7.074   6.358   3.665  0.1231 -0.2296  0.2494
26845SOL    HW182274   7.049   6.403   3.584 -0.2977  2.7632  1.8770
26845SOL    HW282275   7.169   6.366   3.669  0.2633 -1.3553 -0.4209
26846SOL     OW82276   4.957   4.014   1.258 -0.5484 -0.3191 -0.3750
26846SOL    HW182277   4.973   4.085   1.196  1.3553  0.7856  1.2592
26846SOL    HW282278   4.863   4.018   1.277 -0.4966  1.6835 -0.4252
26847SOL     OW82279   3.200   6.509   1.108 -0.5350  0.5291  0.6928
26847SOL    HW182280   3.173   6.422   1.140  0.2527  0.6292  1.6953
26847SOL    HW282281   3.214   6.560   1.188  1.5133  0.7967  0.2238
26848SOL     OW82282   2.026   7.682   7.180 -0.3335 -0.0481  0.0266
26848SOL    HW182283   2.110   7.638   7.191 -0.8080 -0.7194  1.1678
26848SOL    HW282284   1.974   7.653   7.255 -0.7210  2.3709  0.7854
26849SOL     OW82285   5.827   8.622   5.752  0.2283  0.2488  0.1067
26849SOL    HW182286   5.796   8.620   5.662 -0.5992 -0.0569  0.3918
26849SOL    HW282287   5.799   8.708   5.785  0.7241  0.4514  0.0121
26850SOL     OW82288   2.209   8.064   9.165  0.7312  0.2581 -0.3651
26850SOL    HW182289   2.268   8.137   9.145 -0.2619  0.8172 -1.3689
26850SOL    HW282290   2.267   7.992   9.190  1.7882  0.9992 -0.6153
26851SOL     OW82291   5.459   9.389   9.189  0.5290  0.5320  0.4253
26851SOL    HW182292   5.541   9.427   9.157 -0.4749  1.7690 -0.8064
26851SOL    HW282293   5.428   9.451   9.256  0.7198 -0.0832  1.0982
26852SOL     OW82294   9.058   4.082   2.665 -0.4210  0.1786  0.2706
26852SOL    HW182295   9.034   4.059   2.755 -0.3076 -0.8864  0.0457
26852SOL    HW282296   8.989   4.142   2.637 -0.1619  0.9669  1.2400
26853SOL     OW82297   4.039   5.555   8.708 -0.1867 -0.3403 -0.5015
26853SOL    HW182298   4.105   5.577   8.642 -0.3449  0.0731 -0.5248
26853SOL    HW282299   4.086   5.503   8.773  0.3093  0.4607 -0.2091
26854SOL     OW82300   6.736   7.636   3.185  0.0428 -0.1464  0.3206
26854SOL    HW182301   6.828   7.608   3.181 -0.7075 -2.7086 -0.3161
26854SOL    HW282302   6.719   7.671   3.097  0.0726 -0.8673  0.0204
26855SOL     OW82303   2.228   6.358   3.644  0.0226 -0.0427 -0.2347
26855SOL    HW182304   2.177   6.321   3.572 -0.5568  1.9405 -0.9286
26855SOL    HW282305   2.164   6.411   3.693  0.9498  0.7105  0.1921
26856SOL     OW82306   1.584   1.612   4.701  0.5095 -0.1191 -0.7539
26856SOL    HW182307   1.505   1.558   4.711  0.6262 -0.0425  0.8448
26856SOL    HW282308   1.553   1.691   4.657 -0.6446  0.5718  1.2028
26857SOL     OW82309   5.683   9.452   2.380 -0.2175  0.5928 -0.5313
26857SOL    HW182310   5.588   9.448   2.367 -0.0849 -0.7818 -1.2183
26857SOL    HW282311   5.695   9.433   2.473 -0.5687 -0.2103 -0.6437
26858SOL     OW82312   3.159   7.276   0.573  0.1870  0.0763  0.2046
26858SOL    HW182313   3.198   7.357   0.540 -0.6913 -0.0119 -1.1123
26858SOL    HW282314   3.181   7.275   0.666 -0.4991  2.2471  0.4403
26859SOL     OW82315   5.916   9.449   3.590  0.3515  0.1327 -0.6647
26859SOL    HW182316   5.975   9.523   3.603 -0.0734  0.9425 -2.9642
26859SOL    HW282317   5.836   9.473   3.636  1.2327 -0.3196  1.2108
26860SOL     OW82318   9.425   0.686   4.966 -0.3748  0.0683 -0.2591
26860SOL    HW182319   9.445   0.620   5.032  0.4396 -0.5413 -1.0905
26860SOL    HW282320   9.446   0.769   5.008  1.9894 -0.4225 -0.3600
26861SOL     OW82321   2.377   2.240   7.798  0.1142  0.0987  0.2892
26861SOL    HW182322   2.442   2.303   7.765  0.5108 -1.5079 -2.3430
26861SOL    HW282323   2.423   2.192   7.867  1.4665 -0.3803 -0.8866
26862SOL     OW82324   4.968   9.168   3.488  0.3176 -0.1905  0.5552
26862SOL    HW182325   4.958   9.102   3.420  1.8238 -0.6852  0.7601
26862SOL    HW282326   4.961   9.251   3.442  1.3462 -0.5200 -0.2313
26863SOL     OW82327   2.699   0.312   3.975  0.0817 -0.3713  0.2731
26863SOL    HW182328   2.770   0.337   3.916 -0.4018  1.1962  0.3117
26863SOL    HW282329   2.635   0.269   3.919  1.6303 -3.1454  0.4636
26864SOL     OW82330   6.851   0.477   7.641  0.0514 -0.4748 -0.5688
26864SOL    HW182331   6.869   0.429   7.561  0.6929  0.7032 -1.1445
26864SOL    HW282332   6.761   0.451   7.664 -0.0086 -1.0955 -1.4497
26865SOL     OW82333   5.181   6.974   2.506 -0.0519 -0.5225  0.0023
26865SOL    HW182334   5.171   6.900   2.565  2.1670 -0.0457  1.0700
26865SOL    HW282335   5.138   7.047   2.551 -1.5065 -0.9132 -0.6756
26866SOL     OW82336   3.234   2.614   3.503  0.7110 -0.2376 -0.4006
26866SOL    HW182337   3.211   2.693   3.454 -0.1935 -0.1313  0.1689
26866SOL    HW282338   3.245   2.547   3.437 -2.4287 -0.5937 -0.7175
26867SOL     OW82339   2.662   0.760   2.369  0.3920  0.3040 -0.9748
26867SOL    HW182340   2.685   0.706   2.294  0.6304  1.7703 -2.0173
26867SOL    HW282341   2.570   0.741   2.385  1.0167 -2.0443  0.1525
26868SOL     OW82342   2.039   8.522   6.617 -0.3951  0.0673  0.2542
26868SOL    HW182343   1.980   8.517   6.542 -1.0424  2.6312  0.5025
26868SOL    HW282344   2.124   8.545   6.580 -0.0298 -1.4120  0.1058
26869SOL     OW82345   1.605   0.029   8.344 -0.7201 -0.4014  0.3600
26869SOL    HW182346   1.632   0.106   8.393 -0.7129 -0.2646  0.1452
26869SOL    HW282347   1.685  -0.021   8.331 -0.6853 -0.3344  0.3122
26870SOL     OW82348   4.778   0.766   4.851 -0.6952  0.0708  0.3066
26870SOL    HW182349   4.805   0.687   4.898 -1.1351 -0.2208  0.0874
26870SOL    HW282350   4.859   0.804   4.819 -0.5005 -0.5132  0.0806
26871SOL     OW82351   8.744   8.675   9.232 -0.3597  0.4403 -0.0318
26871SOL    HW182352   8.777   8.661   9.321 -0.0219  0.0220 -0.2215
26871SOL    HW282353   8.821   8.667   9.176 -0.9043 -1.3876 -0.5683
26872SOL     OW82354   4.647   2.149   5.073 -0.0822  0.0551  0.4304
26872SOL    HW182355   4.653   2.073   5.014  1.3448  1.0528 -0.7700
26872SOL    HW282356   4.678   2.115   5.157 -0.4979 -0.9579  0.2009
26873SOL     OW82357   8.406   6.471   4.051 -0.3775 -0.0957  0.0374
26873SOL    HW182358   8.395   6.456   4.145 -2.0498  1.9537  0.2380
26873SOL    HW282359   8.434   6.562   4.045  1.9214 -0.8145 -1.4106
26874SOL     OW82360   7.765   7.217   4.146  0.3703  0.4394 -0.1861
26874SOL    HW182361   7.724   7.175   4.071  2.3473 -1.1900 -0.4144
26874SOL    HW282362   7.707   7.196   4.219  0.2075 -0.8903 -0.6776
26875SOL     OW82363   1.389   3.380   8.508 -0.5530  0.1663  0.0770
26875SOL    HW182364   1.481   3.376   8.483 -0.2821  0.6098  0.9635
26875SOL    HW282365   1.369   3.291   8.537  0.0464  0.4165  1.3495
26876SOL     OW82366   1.952   8.210   5.659 -0.2121  0.1770  0.4481
26876SOL    HW182367   1.983   8.126   5.625  2.2159  1.9032 -2.0313
26876SOL    HW282368   1.950   8.268   5.583 -1.5150  2.4681  2.1062
26877SOL     OW82369   3.220   4.001   7.464 -0.3861  0.0435  0.5147
26877SOL    HW182370   3.145   4.044   7.505 -1.2050  0.5087 -1.3672
26877SOL    HW282371   3.185   3.962   7.384  0.9231 -1.7583  0.7665
26878SOL     OW82372   0.853   3.624   6.204 -0.2067  0.2669  0.2041
26878SOL    HW182373   0.897   3.708   6.188  0.1423 -0.0915 -0.7987
26878SOL    HW282374   0.844   3.585   6.117  1.3825 -1.6128  0.7926
26879SOL     OW82375   0.577   1.845   5.589 -0.1012 -0.3573  0.1316
26879SOL    HW182376   0.594   1.774   5.651  0.1385 -0.8206 -0.4644
26879SOL    HW282377   0.489   1.875   5.610 -0.1080 -0.6638  0.5477
26880SOL     OW82378   3.040   0.663   6.077  0.3280 -0.1417  0.0533
26880SOL    HW182379   3.136   0.663   6.081  0.3760  2.2069  0.0535
26880SOL    HW282380   3.018   0.741   6.026 -1.6036 -0.5909  0.1238
26881SOL     OW82381   2.416   0.648   8.006 -0.0773  0.2487  0.3429
26881SOL    HW182382   2.328   0.627   7.975 -0.7983  0.8064  1.9413
26881SOL    HW282383   2.473   0.618   7.935 -1.6295  1.4796 -1.5412
26882SOL     OW82384   0.299   5.132   2.869 -0.0887 -0.0681  0.7119
26882SOL    HW182385   0.217   5.149   2.823  0.5745 -0.8695 -0.8493
26882SOL    HW282386   0.275   5.076   2.942 -0.8094 -1.1892 -0.3493
26883SOL     OW82387   7.060   5.077   8.495  0.0561 -0.3734  0.4295
26883SOL    HW182388   7.043   5.027   8.575  1.9895 -1.2310  0.3517
26883SOL    HW282389   7.150   5.109   8.506 -0.6210  1.9558 -0.1484
26884SOL     OW82390   0.650   9.124   6.605 -0.0879  0.5081 -0.4988
26884SOL    HW182391   0.618   9.161   6.523 -1.2459  1.5275  0.3755
26884SOL    HW282392   0.745   9.115   6.591 -0.1030  1.6635 -1.5864
26885SOL     OW82393   8.241   3.148   2.196 -0.0061 -0.3422 -0.1237
26885SOL    HW182394   8.235   3.121   2.288 -0.2406 -0.9122 -0.2981
26885SOL    HW282395   8.281   3.234   2.198  1.5752 -1.0639  0.4106
26886SOL     OW82396   5.080   4.058   2.177  0.4315 -0.1364  0.3919
26886SOL    HW182397   5.084   4.032   2.085  1.3784  0.0218  0.3742
26886SOL    HW282398   5.063   4.152   2.174 -0.1905 -0.2428  0.4002
26887SOL     OW82399   1.022   4.627   4.399 -0.2579 -0.4237  0.6242
26887SOL    HW182400   0.998   4.718   4.418 -1.0324 -0.4652 -0.0709
26887SOL    HW282401   1.089   4.606   4.463  2.7216  1.8443 -1.4782
26888SOL     OW82402   3.993   2.729   6.285 -0.5324  0.3713  0.7246
26888SOL    HW182403   4.017   2.816   6.316 -1.5941  0.5201  1.1611
26888SOL    HW282404   3.943   2.690   6.357  0.8358 -1.0319  0.9746
26889SOL     OW82405   3.020   7.031   6.752  0.3612 -0.0341 -0.4264
26889SOL    HW182406   3.067   7.035   6.836 -0.0009  2.0163 -0.2787
26889SOL    HW282407   2.981   6.943   6.751 -1.0655  0.4453  2.3509
26890SOL     OW82408   6.427   0.724   0.003 -0.1089  0.0802 -0.1743
26890SOL    HW182409   6.421   0.786   0.076  1.7677  0.3882 -0.2354
26890SOL    HW282410   6.495   0.760  -0.053 -1.0373 -0.5286 -1.7369
26891SOL     OW82411   4.162   3.352   4.420  0.4580  0.1718 -0.1744
26891SOL    HW182412   4.145   3.423   4.481  3.2022  0.5169  0.2947
26891SOL    HW282413   4.180   3.396   4.337  0.0525 -0.1027 -0.4089
26892SOL     OW82414   2.730   4.755   6.446 -0.4427  0.2401 -0.0329
26892SOL    HW182415   2.822   4.769   6.469 -0.2298 -0.4665 -0.4204
26892SOL    HW282416   2.681   4.796   6.517  0.1505  1.5525 -0.3543
26893SOL     OW82417   6.122   4.338   5.472  0.1089  0.6526  0.1881
26893SOL    HW182418   6.178   4.295   5.537  1.1520  1.5845 -0.0459
26893SOL    HW282419   6.137   4.289   5.392 -0.2256  0.2572  0.3655
26894SOL     OW82420   0.905   3.014   9.046  0.3123 -0.6737  0.0758
26894SOL    HW182421   0.973   3.082   9.052  0.2524 -0.6800  1.2019
26894SOL    HW282422   0.916   2.976   8.959  3.0376 -1.9920  0.8881
26895SOL     OW82423   5.902   4.940   2.445  0.0425 -0.1985  0.0062
26895SOL    HW182424   5.865   4.993   2.374  2.2873 -1.4316 -2.2640
26895SOL    HW282425   5.843   4.865   2.452 -0.5613  0.2562 -0.0709
26896SOL     OW82426   9.102   4.616   9.423 -0.2027 -0.0157 -0.1214
26896SOL    HW182427   9.163   4.672   9.471 -1.2410  2.4810 -1.5338
26896SOL    HW282428   9.021   4.619   9.473 -0.6118  0.7532 -0.8043
26897SOL     OW82429   5.449   3.794   9.345  0.1354  0.2177 -0.4376
26897SOL    HW182430   5.474   3.877   9.305 -1.7760  0.5423 -1.0897
26897SOL    HW282431   5.415   3.817   9.431 -0.8831  0.2041 -0.8206
26898SOL     OW82432   6.967   9.552   3.762 -0.1790  0.0051 -0.1020
26898SOL    HW182433   6.979   9.599   3.844 -2.8161 -0.0645  0.4090
26898SOL    HW282434   7.010   9.468   3.774  0.1046  0.2956  0.9271
26899SOL     OW82435   5.201   7.475   2.700 -0.5097 -0.3139  0.4055
26899SOL    HW182436   5.108   7.461   2.688 -0.6499 -0.8513  1.8380
26899SOL    HW282437   5.212   7.481   2.795  1.0026 -0.9713  0.3072
26900SOL     OW82438   6.306   6.775   5.210  0.9482 -0.0418  0.2440
26900SOL    HW182439   6.256   6.727   5.276 -1.6981  0.8500 -0.9503
26900SOL    HW282440   6.383   6.720   5.194  1.4127 -0.5604  3.5609
26901SOL     OW82441   9.454   6.539   1.803 -0.0469 -0.1148  0.1095
26901SOL    HW182442   9.483   6.548   1.894 -0.2500 -0.6494  0.2298
26901SOL    HW282443   9.369   6.583   1.801 -0.5444 -1.0464  0.4405
26902SOL     OW82444   6.765   9.227   3.831  0.7955 -0.0713 -0.1555
26902SOL    HW182445   6.759   9.307   3.882  0.6947  1.7230 -2.7785
26902SOL    HW282446   6.780   9.158   3.896 -1.8917  1.5913  2.5154
26903SOL     OW82447   0.481   7.704   5.119 -0.0226 -0.3133 -0.1573
26903SOL    HW182448   0.422   7.777   5.099  0.3371 -0.2566 -1.0527
26903SOL    HW282449   0.433   7.626   5.093 -0.4778 -0.4250  0.9648
26904SOL     OW82450   7.735   0.866   8.605 -0.5661  0.3908  0.4237
26904SOL    HW182451   7.755   0.925   8.678  1.2718 -0.2229  0.4915
26904SOL    HW282452   7.786   0.901   8.532 -1.1063  0.0713 -0.1102
26905SOL     OW82453   2.982   9.521   4.428  0.3009 -0.9597  0.1727
26905SOL    HW182454   3.073   9.500   4.448 -0.2063 -3.0819  0.5166
26905SOL    HW282455   2.938   9.521   4.513  0.0183  0.4307  0.0516
26906SOL     OW82456   7.434   1.741   3.452  0.2104 -0.6683 -0.0607
26906SOL    HW182457   7.508   1.802   3.455  0.5633 -1.1187  0.5317
26906SOL    HW282458   7.442   1.698   3.367 -0.4462  0.5919 -0.7986
26907SOL     OW82459   0.844   4.730   3.672 -0.2732 -0.3300 -0.4586
26907SOL    HW182460   0.877   4.749   3.759  2.0066  0.4704 -1.4379
26907SOL    HW282461   0.899   4.658   3.640 -0.5540 -0.0860 -1.5368
26908SOL     OW82462   0.041   4.699   1.682  0.4410 -0.4366  0.0311
26908SOL    HW182463   0.016   4.608   1.667  1.0788 -0.5268 -0.5622
26908SOL    HW282464   0.111   4.716   1.618  0.6441  0.3306  0.4349
26909SOL     OW82465   1.143   1.558   6.161  0.0495 -0.1204 -0.2805
26909SOL    HW182466   1.121   1.651   6.160 -0.9432 -0.3083  1.0881
26909SOL    HW282467   1.206   1.549   6.233  1.3980 -0.2866 -1.4274
26910SOL     OW82468   1.055   9.261   7.868  0.3527  0.2661  0.2929
26910SOL    HW182469   1.140   9.232   7.834 -0.6603 -0.2775 -1.9228
26910SOL    HW282470   1.002   9.181   7.870  0.1535  0.3848  2.6798
26911SOL     OW82471   1.192   8.812   5.345 -0.0039 -0.2955  0.1441
26911SOL    HW182472   1.199   8.722   5.376 -1.1323 -1.0951 -1.7383
26911SOL    HW282473   1.224   8.809   5.255  1.6420  1.5911  0.5864
26912SOL     OW82474   5.083   0.100   4.557  0.5239 -0.6732 -0.8072
26912SOL    HW182475   5.124   0.137   4.479  1.9683 -1.1460 -0.2979
26912SOL    HW282476   5.097   0.006   4.550 -0.2498 -0.8219 -0.4781
26913SOL     OW82477   7.666   7.937   2.925 -0.2067  0.7686 -0.2457
26913SOL    HW182478   7.746   7.990   2.924 -0.6943  1.5102 -0.9615
26913SOL    HW282479   7.638   7.939   3.017  0.2635  1.0264 -0.1035
26914SOL     OW82480   7.771   2.912   7.139  0.2613 -0.3888  0.4090
26914SOL    HW182481   7.678   2.891   7.146 -0.2435  1.7815  0.9922
26914SOL    HW282482   7.787   2.920   7.045  0.3396 -2.5132  0.1966
26915SOL     OW82483   6.505   4.349   6.811  0.4716  0.1262  0.5656
26915SOL    HW182484   6.540   4.413   6.872  0.4368 -0.3205  1.0628
26915SOL    HW282485   6.455   4.288   6.866  0.6941 -0.4535  0.1376
26916SOL     OW82486   0.058   5.709   0.045  0.7124 -0.0637 -0.0943
26916SOL    HW182487   0.096   5.646  -0.017  2.1245 -1.0097  1.6353
26916SOL    HW282488   0.118   5.784   0.042  1.5967 -0.6886  1.0921
26917SOL     OW82489   9.363   4.091   4.239 -0.2554  0.6918 -0.1493
26917SOL    HW182490   9.453   4.076   4.269 -0.3406  2.4822  1.1822
26917SOL    HW282491   9.314   4.108   4.320 -1.6038  0.6553 -0.9390
26918SOL     OW82492   7.113   9.113   8.479 -0.1695  0.4269  0.2283
26918SOL    HW182493   7.041   9.049   8.485  0.1517  0.1915  2.5232
26918SOL    HW282494   7.076   9.193   8.516 -0.1682  1.2335 -1.4605
26919SOL     OW82495   1.764   5.362   9.119  0.6420  0.4088  0.3937
26919SOL    HW182496   1.808   5.389   9.038  0.6538  0.3349  0.3746
26919SOL    HW282497   1.828   5.306   9.163 -0.3344 -1.7725 -0.8229
26920SOL     OW82498   5.959   3.489   1.312  0.5297 -0.0565 -0.1116
26920SOL    HW182499   5.933   3.546   1.385  0.4957  0.7344 -0.7271
26920SOL    HW282500   6.014   3.422   1.353 -0.3151 -0.2191  0.7937
26921SOL     OW82501   7.947   5.924   3.531 -0.0961  0.3890 -0.0768
26921SOL    HW182502   7.912   5.966   3.453 -0.5451  0.5509  0.2078
26921SOL    HW282503   7.910   5.835   3.529  0.3128  0.2200 -0.3213
26922SOL     OW82504   4.754   0.224   6.753  1.1287 -0.5952  0.0962
26922SOL    HW182505   4.819   0.222   6.823 -0.4148 -1.2424  1.5852
26922SOL    HW282506   4.721   0.135   6.748 -1.9212  0.2915  1.7128
26923SOL     OW82507   2.390   7.460   8.591  0.2885  0.5144  0.1840
26923SOL    HW182508   2.466   7.405   8.606 -0.6937 -0.5261  1.7006
26923SOL    HW282509   2.370   7.450   8.498  1.2143 -0.2435  0.0576
26924SOL     OW82510   8.257   7.458   8.890 -0.0006  0.6751 -0.1794
26924SOL    HW182511   8.271   7.425   8.979  0.5953 -0.6234 -0.7314
26924SOL    HW282512   8.164   7.444   8.873  0.1036 -0.0918 -0.1496
26925SOL     OW82513   0.000   8.642   1.732 -0.0633 -0.0900  0.1930
26925SOL    HW182514  -0.018   8.555   1.696  3.0377 -1.5725  1.8241
26925SOL    HW282515   0.018   8.696   1.655 -0.1897 -1.3906 -0.7884
26926SOL     OW82516   2.350   8.833   0.716 -0.1261 -0.0597  0.7269
26926SOL    HW182517   2.336   8.822   0.810  1.8981  0.5608  1.1398
26926SOL    HW282518   2.266   8.868   0.684 -0.5437  0.6383  2.4680
26927SOL     OW82519   5.150   4.376   1.943  0.1205 -0.4027 -0.3126
26927SOL    HW182520   5.150   4.393   1.848 -0.8680  2.1515  0.0644
26927SOL    HW282521   5.174   4.460   1.982  1.2024 -1.5842  1.7277
26928SOL     OW82522   8.370   7.595   1.704 -0.6596 -0.0527 -0.2671
26928SOL    HW182523   8.455   7.584   1.746 -2.3818  1.1478  3.9724
26928SOL    HW282524   8.386   7.655   1.631  2.0168  0.6627  0.8157
26929SOL     OW82525   4.958   1.971   7.800  0.4819 -0.1489  0.1940
26929SOL    HW182526   4.870   2.010   7.805 -0.7838 -2.9078  1.6228
26929SOL    HW282527   4.952   1.908   7.728  1.1028 -0.7393  0.6415
26930SOL     OW82528   7.544   4.201   1.358  0.4252 -0.3175 -0.3144
26930SOL    HW182529   7.558   4.106   1.356  1.3312 -0.2352  1.0913
26930SOL    HW282530   7.590   4.233   1.280  1.4278 -0.8767  0.0334
26931SOL     OW82531   5.068   1.136   6.560  0.2505 -0.0835  0.2896
26931SOL    HW182532   4.991   1.148   6.505  1.2731  1.4982 -0.8673
26931SOL    HW282533   5.098   1.225   6.580  0.8107 -0.6408  2.1344
26932SOL     OW82534   4.407   8.956   1.160  0.5141  0.0359 -0.5925
26932SOL    HW182535   4.436   8.904   1.235 -0.6713  0.2284  0.0146
26932SOL    HW282536   4.340   9.014   1.195 -1.1076 -0.8392 -2.0839
26933SOL     OW82537   2.488   9.309   5.090  1.4967 -0.0181  0.1662
26933SOL    HW182538   2.565   9.350   5.131  0.4079  1.5709  0.7069
26933SOL    HW282539   2.424   9.304   5.161  0.9823 -1.0626 -0.3572
26934SOL     OW82540   7.656   2.413   1.262 -0.6831  0.3690 -0.6682
26934SOL    HW182541   7.693   2.485   1.313 -1.6840  0.4786 -0.0558
26934SOL    HW282542   7.708   2.410   1.182 -0.6852  1.8164 -0.7394
26935SOL     OW82543   9.116   6.817   3.025 -0.0619  0.4268  0.0283
26935SOL    HW182544   9.149   6.787   3.110  1.2329  0.1855 -0.5326
26935SOL    HW282545   9.102   6.737   2.975 -0.8914  0.5663  0.0219
26936SOL     OW82546   6.906   3.962   2.008  0.1741  0.0757 -0.2154
26936SOL    HW182547   6.848   3.893   2.037 -2.6589  2.1304 -0.6049
26936SOL    HW282548   6.923   3.943   1.915 -2.6831  1.1342 -1.0412
26937SOL     OW82549   3.161   7.297   0.840 -0.2646 -0.2103  0.7800
26937SOL    HW182550   3.079   7.324   0.881  0.7766  1.4628  1.8502
26937SOL    HW282551   3.171   7.205   0.865 -0.6284  0.2329  2.6897
26938SOL     OW82552   6.645   4.163   9.504 -0.6612 -0.8804 -0.0825
26938SOL    HW182553   6.585   4.094   9.475 -0.8793 -0.8294  0.2482
26938SOL    HW282554   6.732   4.130   9.482 -0.8308 -0.7684 -0.9584
26939SOL     OW82555   8.448   8.187   0.667 -0.3856 -0.2062 -0.3084
26939SOL    HW182556   8.482   8.144   0.745  0.8019 -1.0988 -1.2860
26939SOL    HW282557   8.466   8.280   0.682  1.2284 -0.5070 -0.1562
26940SOL     OW82558   5.844   3.607   8.288  0.0579  0.4346  0.9036
26940SOL    HW182559   5.937   3.628   8.292 -0.2512  1.8353  1.7808
26940SOL    HW282560   5.839   3.524   8.241  1.8230 -0.1711  1.7106
26941SOL     OW82561   7.274   7.420   9.031 -0.3233  0.2886 -0.7974
26941SOL    HW182562   7.308   7.358   8.966  0.3535 -1.8206  1.4160
26941SOL    HW282563   7.179   7.415   9.020 -0.2199  0.2027 -1.8126
26942SOL     OW82564   2.429   6.260   4.800  0.0527  0.3672 -0.2333
26942SOL    HW182565   2.416   6.297   4.887  0.4256  0.0407 -0.0309
26942SOL    HW282566   2.367   6.305   4.744  0.1318  0.9091  0.1133
26943SOL     OW82567   1.845   0.220   7.867 -0.3917 -0.5964  0.0047
26943SOL    HW182568   1.876   0.149   7.811  0.2631  0.2925 -0.7869
26943SOL    HW282569   1.899   0.212   7.947  0.0798 -0.6471 -0.3140
26944SOL     OW82570   2.278   7.622   7.296 -0.0060 -0.0638  0.2567
26944SOL    HW182571   2.256   7.709   7.328 -0.8955 -0.7519  1.5891
26944SOL    HW282572   2.263   7.564   7.371  3.3813 -1.0402  0.3529
26945SOL     OW82573   0.156   7.610   0.566 -0.6823 -0.4540 -0.5982
26945SOL    HW182574   0.133   7.694   0.605 -1.8806 -0.8422 -0.4320
26945SOL    HW282575   0.124   7.616   0.476  0.8149 -0.0927 -1.1506
26946SOL     OW82576   9.474   4.387   8.930  0.0030 -0.7684  0.5929
26946SOL    HW182577   9.450   4.306   8.885  0.3791  0.6288 -2.3427
26946SOL    HW282578   9.473   4.454   8.862  0.1856  1.6519  2.8016
26947SOL     OW82579   8.759   0.381   4.708  0.2068  0.1665 -0.2645
26947SOL    HW182580   8.748   0.456   4.648  0.6245  0.4905  0.0618
26947SOL    HW282581   8.694   0.318   4.678 -0.2468  0.7122 -0.4666
26948SOL     OW82582   7.547   8.113   0.065 -0.1738 -0.1507 -0.4542
26948SOL    HW182583   7.596   8.191   0.040 -1.7700  0.7435 -0.9372
26948SOL    HW282584   7.485   8.099  -0.007 -1.0861 -0.8418  0.4306
26949SOL     OW82585   1.692   6.367   8.188 -0.2709  0.2429  0.4074
26949SOL    HW182586   1.671   6.384   8.096 -0.4372  0.6826  0.5263
26949SOL    HW282587   1.767   6.307   8.185 -0.9867 -0.6445 -0.0209
26950SOL     OW82588   9.297   2.609   4.803 -0.7225 -0.3170  0.0012
26950SOL    HW182589   9.355   2.535   4.784 -0.6344 -0.6439  1.4461
26950SOL    HW282590   9.209   2.571   4.803 -0.7216 -0.3221  0.2119
26951SOL     OW82591   1.058   0.089   6.789  0.4068  0.2244  0.3009
26951SOL    HW182592   1.015   0.169   6.759  0.0642 -0.2013 -0.4083
26951SOL    HW282593   0.991   0.045   6.841 -1.2023 -1.7958 -3.0757
26952SOL     OW82594   1.522   3.269   9.214  0.2058  0.3712  0.3139
26952SOL    HW182595   1.605   3.315   9.204  0.4793 -0.2206 -0.1727
26952SOL    HW282596   1.544   3.177   9.202 -0.4038  0.1452  0.8887
26953SOL     OW82597   0.089   8.876   0.828  0.2615 -0.1505  0.2541
26953SOL    HW182598   0.177   8.908   0.848 -0.2737  1.9268 -0.5040
26953SOL    HW282599   0.037   8.902   0.904  0.2954 -1.5353  0.7827
26954SOL     OW82600   0.044   7.131   6.304  0.4027  0.2167 -0.4817
26954SOL    HW182601   0.077   7.144   6.393 -1.1096  1.6104 -0.0919
26954SOL    HW282602  -0.042   7.091   6.315 -0.0759  0.9776 -1.2588
26955SOL     OW82603   2.124   9.019   0.666 -0.0537  0.0156 -0.4172
26955SOL    HW182604   2.183   9.073   0.613 -0.9075  0.6067 -0.7951
26955SOL    HW282605   2.057   8.988   0.605 -1.5527  1.4264  0.4169
26956SOL     OW82606   1.067   2.698   3.293  0.1786 -0.8137 -0.5019
26956SOL    HW182607   1.123   2.690   3.216  2.6841  1.1649  0.9435
26956SOL    HW282608   1.128   2.718   3.364 -2.1646 -1.2207  1.7464
26957SOL     OW82609   9.145   1.488   0.495 -0.3115 -0.2115 -0.0511
26957SOL    HW182610   9.132   1.415   0.435  2.0628 -0.5717 -0.2223
26957SOL    HW282611   9.179   1.448   0.574 -2.2963  0.3948  1.1933
26958SOL     OW82612   2.125   2.155   6.286  0.5320  0.6710  0.0170
26958SOL    HW182613   2.068   2.170   6.210  0.3488 -0.2371 -0.0343
26958SOL    HW282614   2.211   2.187   6.258  0.4353  0.4616 -0.5298
26959SOL     OW82615   4.120   7.658   6.530 -0.4421  0.0797  0.0347
26959SOL    HW182616   4.199   7.626   6.486 -1.4448 -1.4537 -0.7451
26959SOL    HW282617   4.073   7.579   6.557 -1.4411  0.9578  0.9912
26960SOL     OW82618   3.677   8.298   4.398 -0.6336  0.4011 -0.7831
26960SOL    HW182619   3.685   8.381   4.444 -0.3688 -0.3774  0.6366
26960SOL    HW282620   3.708   8.233   4.461 -3.2328 -1.0761 -0.8882
26961SOL     OW82621   4.298   3.550   0.561 -0.5686  0.2414 -1.0914
26961SOL    HW182622   4.206   3.558   0.535 -0.4275  0.5100 -1.5206
26961SOL    HW282623   4.326   3.466   0.526 -0.7119  0.0593 -0.7690
26962SOL     OW82624   6.983   2.422   8.697 -0.0470  0.9368  0.1640
26962SOL    HW182625   6.890   2.427   8.721  0.0596  0.5583  0.6763
26962SOL    HW282626   6.983   2.431   8.601 -0.5874  1.2060  0.1809
26963SOL     OW82627   3.437   3.239   4.358  0.4480 -0.1931  0.6863
26963SOL    HW182628   3.455   3.326   4.321  1.1788 -0.2056  0.9943
26963SOL    HW282629   3.522   3.209   4.389 -0.1785 -0.0984  2.5729
26964SOL     OW82630   8.564   1.957   2.983 -0.0699 -0.6252  0.1075
26964SOL    HW182631   8.658   1.974   2.990 -0.1340 -0.5787  1.0439
26964SOL    HW282632   8.541   1.983   2.894  0.6556  0.1132  0.1239
26965SOL     OW82633   7.570   1.929   4.345 -0.3359  0.9797  0.5633
26965SOL    HW182634   7.518   1.915   4.424  0.0199  0.5357  0.7196
26965SOL    HW282635   7.659   1.943   4.376 -0.1029  0.2970  0.2155
26966SOL     OW82636   0.235   3.273   1.583  0.0706  0.3332 -0.1152
26966SOL    HW182637   0.313   3.248   1.633  0.0280  0.6034  0.0905
26966SOL    HW282638   0.220   3.200   1.524  1.6946  1.1386 -1.6340
26967SOL     OW82639   7.760   4.715   9.125  0.1120  0.3622  0.3284
26967SOL    HW182640   7.666   4.699   9.128  0.6096 -3.1099  0.4979
26967SOL    HW282641   7.785   4.730   9.216 -0.1857  0.8962  0.3278
26968SOL     OW82642   6.067   1.895   7.170 -0.0972  0.0210 -0.1801
26968SOL    HW182643   6.044   1.900   7.262 -1.2896  1.3160 -0.5176
26968SOL    HW282644   6.139   1.957   7.160  2.3258 -2.4842  0.4552
26969SOL     OW82645   6.444   7.936   3.589 -0.4025 -0.5935 -0.1331
26969SOL    HW182646   6.522   7.881   3.587  0.1419  0.1427  0.2040
26969SOL    HW282647   6.381   7.885   3.640 -0.0014 -1.0256 -0.0553
26970SOL     OW82648   7.603   4.966   5.513 -0.2901  0.1233 -0.0256
26970SOL    HW182649   7.659   4.959   5.436  0.0617  1.3730  0.0915
26970SOL    HW282650   7.544   5.039   5.493 -0.8372 -0.1621  0.4948
26971SOL     OW82651   3.328   4.126   6.953  0.4241 -0.0060  0.4528
26971SOL    HW182652   3.394   4.166   6.896  1.3134 -1.6067  0.2720
26971SOL    HW282653   3.249   4.122   6.899  0.6426  0.4780  0.0931
26972SOL     OW82654   0.215   1.547   9.612 -0.1628  0.2896 -0.2926
26972SOL    HW182655   0.210   1.523   9.519 -2.9254 -1.8278  0.2622
26972SOL    HW282656   0.173   1.633   9.617 -1.3469 -0.2249 -0.8908
26973SOL     OW82657   3.278   6.020   8.606  0.2004  0.0007  0.2944
26973SOL    HW182658   3.372   6.007   8.591  0.2924  0.0953  0.7750
26973SOL    HW282659   3.265   5.995   8.697 -0.1682  0.4065  0.3540
26974SOL     OW82660   7.781   3.244   7.529  0.1704 -0.5970 -0.1619
26974SOL    HW182661   7.845   3.192   7.578 -0.5983 -0.0065  1.5432
26974SOL    HW282662   7.723   3.279   7.596  0.1656  1.7948 -1.3211
26975SOL     OW82663   4.392   9.569   5.806  0.1080  0.6253  0.0461
26975SOL    HW182664   4.399   9.482   5.846  1.2399  0.7803  0.2452
26975SOL    HW282665   4.304   9.573   5.770 -0.8050  0.2658  2.0571
26976SOL     OW82666   5.376   7.299   8.217 -0.0144 -0.3202 -0.1098
26976SOL    HW182667   5.395   7.332   8.129 -2.1447  0.0473 -0.4900
26976SOL    HW282668   5.381   7.204   8.208 -0.7586 -0.3087 -0.7935
26977SOL     OW82669   7.402   6.303   7.515  0.1140  0.6317  0.0102
26977SOL    HW182670   7.409   6.395   7.488 -2.0499  0.7183 -0.4561
26977SOL    HW282671   7.316   6.297   7.556  1.3056 -0.6272  2.5051
26978SOL     OW82672   4.925   8.610   1.959  0.1259 -0.2229  0.2454
26978SOL    HW182673   4.844   8.558   1.965 -1.1204  1.6151  0.3321
26978SOL    HW282674   4.960   8.589   1.872 -2.0456  1.0117 -1.0651
26979SOL     OW82675   8.905   0.898   8.686  0.5692  0.0727  0.1653
26979SOL    HW182676   8.912   0.994   8.685  1.7033 -0.0023 -1.0920
26979SOL    HW282677   8.888   0.875   8.595  2.3153 -1.0454  0.0891
26980SOL     OW82678   2.498   4.988   5.094 -0.2950  0.0423 -0.1052
26980SOL    HW182679   2.458   5.073   5.111  0.2218  0.2586  0.0198
26980SOL    HW282680   2.498   4.980   4.999 -0.2190  0.2390 -0.1219
26981SOL     OW82681   8.630   4.939   0.110 -0.5630  0.0939  0.5771
26981SOL    HW182682   8.640   4.902   0.198  0.0572  1.8993  1.3101
26981SOL    HW282683   8.536   4.933   0.092 -1.2009  2.2548  2.6038
26982SOL     OW82684   4.415   3.441   1.367  0.2794  0.3821 -0.0379
26982SOL    HW182685   4.325   3.417   1.345 -0.0413  1.0130  0.5595
26982SOL    HW282686   4.424   3.531   1.336 -0.1364  1.2457  2.1875
26983SOL     OW82687   6.775   3.778   9.529 -0.2937  0.0203 -0.0663
26983SOL    HW182688   6.769   3.847   9.463  2.5014  1.1289  0.6815
26983SOL    HW282689   6.852   3.727   9.504 -1.5634 -2.1336  0.1128
26984SOL     OW82690   6.832   5.209   8.977  0.5065  0.1453 -0.3300
26984SOL    HW182691   6.833   5.121   9.015 -0.0280  1.1707  2.2816
26984SOL    HW282692   6.742   5.240   8.990  1.2057  1.8329  0.7959
26985SOL     OW82693   4.194   1.389   8.221  1.2286  0.0394  0.1524
26985SOL    HW182694   4.274   1.435   8.246  0.1346  1.1004  1.8922
26985SOL    HW282695   4.157   1.442   8.150  1.5539  0.0920  0.0197
26986SOL     OW82696   6.719   2.540   7.486  0.2672 -0.0095 -0.3285
26986SOL    HW182697   6.689   2.578   7.569 -1.0711 -0.9885 -0.3296
26986SOL    HW282698   6.797   2.489   7.510  0.8430  1.0119  0.0286
26987SOL     OW82699   1.069   7.534   6.710 -0.2341 -0.7222  0.3484
26987SOL    HW182700   0.999   7.469   6.711 -0.3074 -0.7138 -1.0463
26987SOL    HW282701   1.101   7.533   6.619  1.3687 -0.5057  0.8701
26988SOL     OW82702   3.960   9.242   5.696  0.2438 -0.1002  0.2797
26988SOL    HW182703   4.007   9.213   5.618 -0.6764 -1.4174  0.1867
26988SOL    HW282704   4.025   9.241   5.766  1.1486  1.3591 -0.4937
26989SOL     OW82705   9.585   6.903   6.561  0.4139  0.3341  0.1185
26989SOL    HW182706   9.675   6.873   6.574  0.5446 -0.2779 -1.9887
26989SOL    HW282707   9.563   6.946   6.644  2.5664  0.3404  0.7553
26990SOL     OW82708   4.847   6.771   4.832 -0.3316  0.2970  0.0060
26990SOL    HW182709   4.870   6.863   4.837 -0.7086  0.5199 -1.7619
26990SOL    HW282710   4.772   6.768   4.773 -1.3498 -0.9937  1.2858
26991SOL     OW82711   6.538   1.922   6.569 -0.0218  0.1795  0.7256
26991SOL    HW182712   6.591   1.879   6.636 -0.7782  0.7563  1.7227
26991SOL    HW282713   6.596   1.930   6.494  0.4584 -1.6240  0.8694
26992SOL     OW82714   5.170   4.598   0.353 -0.3263 -0.1827  0.3557
26992SOL    HW182715   5.177   4.551   0.436  0.2680  0.2906  0.5819
26992SOL    HW282716   5.076   4.612   0.341 -0.3599  0.7078  1.4991
26993SOL     OW82717   3.910   1.713   3.626 -0.2272  0.1836  0.6543
26993SOL    HW182718   3.986   1.662   3.598 -0.7718 -1.2769  1.6458
26993SOL    HW282719   3.849   1.647   3.659 -0.5230  1.5639  3.1149
26994SOL     OW82720   8.274   6.840   9.185  0.5257 -0.7487  0.3016
26994SOL    HW182721   8.304   6.872   9.100  1.5331  1.7343  1.5103
26994SOL    HW282722   8.351   6.798   9.224  0.2436 -1.2969  0.2914
26995SOL     OW82723   9.453   9.391   2.185  0.0808 -0.0602  0.0930
26995SOL    HW182724   9.443   9.479   2.221 -0.4500  0.3305 -0.9444
26995SOL    HW282725   9.520   9.400   2.117 -0.4686 -0.2870 -0.4990
26996SOL     OW82726   6.627   1.401   7.638  0.0542  0.1916 -0.0761
26996SOL    HW182727   6.553   1.439   7.684 -0.4238 -0.5510 -0.2242
26996SOL    HW282728   6.703   1.448   7.673 -0.5995  2.2801 -1.2317
26997SOL     OW82729   9.439   6.727   3.180  0.1510 -0.2966 -0.1392
26997SOL    HW182730   9.485   6.700   3.260 -0.8408 -0.0563  0.5243
26997SOL    HW282731   9.349   6.743   3.208 -0.3698 -0.8232 -1.4316
26998SOL     OW82732   6.814   1.042   0.215 -0.1818 -0.2562  0.4211
26998SOL    HW182733   6.810   1.137   0.214  1.1874 -0.1819  0.3224
26998SOL    HW282734   6.788   1.016   0.126 -1.4903 -0.0434  0.7215
26999SOL     OW82735   8.112   2.219   3.663 -0.0045 -0.6100  0.2371
26999SOL    HW182736   8.074   2.224   3.575 -0.3805 -1.9942  0.2998
26999SOL    HW282737   8.177   2.289   3.665 -1.3784  0.7461 -0.4467
27000SOL     OW82738   1.020   1.836   7.910 -0.5088  0.3120 -0.0132
27000SOL    HW182739   0.965   1.889   7.853 -0.3458  1.9876  1.3147
27000SOL    HW282740   0.984   1.850   7.998  1.2413  0.4335  0.7256
27001SOL     OW82741   2.632   2.406   4.746  0.3411 -0.7735  0.3809
27001SOL    HW182742   2.626   2.310   4.753 -0.1039 -0.6944  1.1784
27001SOL    HW282743   2.722   2.426   4.771  0.3019 -0.9495  0.6729
27002SOL     OW82744   0.719   4.691   4.908  0.3986 -0.3282  0.3081
27002SOL    HW182745   0.733   4.609   4.956  0.5396 -0.7816 -0.4921
27002SOL    HW282746   0.760   4.677   4.823 -0.4149  0.2244 -0.1932
27003SOL     OW82747   5.685   6.477   0.544 -0.2596  0.8197 -0.1026
27003SOL    HW182748   5.608   6.533   0.556 -0.5264  0.3416  0.4886
27003SOL    HW282749   5.672   6.406   0.607 -0.1973 -0.2078 -1.2225
27004SOL     OW82750   6.561   9.414   7.436 -0.3376  0.5485  0.2238
27004SOL    HW182751   6.651   9.437   7.411 -1.1137  1.9306 -1.4883
27004SOL    HW282752   6.560   9.421   7.532  1.6483 -0.6479  0.3896
27005SOL     OW82753   0.724   2.054   1.650 -0.6032 -0.6692 -0.0281
27005SOL    HW182754   0.717   2.010   1.734 -0.8943 -1.3722 -0.4179
27005SOL    HW282755   0.699   2.145   1.668 -0.8104 -0.8510  0.6053
27006SOL     OW82756   0.087   1.415   8.985 -0.5379  0.0946  0.1721
27006SOL    HW182757   0.013   1.355   8.978 -1.9948  1.8832 -0.7654
27006SOL    HW282758   0.049   1.502   8.974  1.4559  1.2434  1.6064
27007SOL     OW82759   2.014   7.549   1.532 -0.0878 -0.0255 -0.1068
27007SOL    HW182760   1.971   7.584   1.610  1.2807  0.6423  0.3838
27007SOL    HW282761   1.979   7.461   1.522 -3.1618  1.1775 -0.9790
27008SOL     OW82762   3.084   0.503   8.060 -0.6369  0.1955  0.0530
27008SOL    HW182763   3.081   0.585   8.110 -0.9766  0.2206 -0.0078
27008SOL    HW282764   2.992   0.476   8.053 -0.4898 -0.4389  0.4814
27009SOL     OW82765   9.360   6.026   8.729  0.0257 -0.6220  0.3620
27009SOL    HW182766   9.343   6.092   8.661  0.7607 -0.4375  0.3409
27009SOL    HW282767   9.334   6.069   8.810 -0.8314 -0.8333  0.2077
27010SOL     OW82768   6.986   1.838   6.943 -0.2987 -0.3403 -0.6073
27010SOL    HW182769   6.928   1.817   7.016  0.1622 -0.0410 -0.1470
27010SOL    HW282770   6.983   1.761   6.886  1.6744 -1.8990  1.2401
27011SOL     OW82771   6.584   5.365   1.429  0.3714  0.2672  0.0966
27011SOL    HW182772   6.520   5.297   1.452  1.9268 -0.9284  1.1294
27011SOL    HW282773   6.531   5.436   1.391 -1.3823 -1.2893 -0.5582
27012SOL     OW82774   2.012   3.648   6.784  0.2331  0.1394 -0.8517
27012SOL    HW182775   2.016   3.723   6.724  0.1267  1.1829  0.4179
27012SOL    HW282776   2.038   3.573   6.730  0.1081  1.0447 -2.2082
27013SOL     OW82777   2.570   6.230   6.246  0.5188 -0.1124  0.1148
27013SOL    HW182778   2.627   6.264   6.177  1.2472 -0.1923  0.6636
27013SOL    HW282779   2.524   6.156   6.206 -0.6182  1.0889 -0.9023
27014SOL     OW82780   4.584   2.433   5.407 -0.1481 -0.0968  0.2955
27014SOL    HW182781   4.630   2.514   5.431  0.8511 -0.4873 -0.2811
27014SOL    HW282782   4.528   2.458   5.334 -1.3116  0.5040  1.3360
27015SOL     OW82783   4.709   6.635   8.645  0.5106 -0.2775  0.3885
27015SOL    HW182784   4.657   6.556   8.630  0.9612 -0.3291 -1.0542
27015SOL    HW282785   4.727   6.635   8.739 -0.8057 -1.0534  0.6562
27016SOL     OW82786   1.901   5.292   8.209  0.0274 -1.1665 -0.8790
27016SOL    HW182787   1.954   5.217   8.182  1.7564  0.3598 -2.0630
27016SOL    HW282788   1.852   5.316   8.131 -1.9242 -2.1014  0.0038
27017SOL     OW82789   6.186   6.959   4.866  0.7201 -0.3353  0.0895
27017SOL    HW182790   6.215   7.038   4.911  1.3719 -0.9462  0.7855
27017SOL    HW282791   6.095   6.948   4.891  0.8798 -0.2796  0.7040
27018SOL     OW82792   3.614   0.850   1.328  0.3659  0.0846  0.2681
27018SOL    HW182793   3.621   0.812   1.416 -0.2778  0.1918  0.3735
27018SOL    HW282794   3.563   0.930   1.341 -1.7197 -1.0345 -0.4957
27019SOL     OW82795   8.726   3.226   7.274  0.1868 -0.3434 -0.1567
27019SOL    HW182796   8.634   3.224   7.300  0.4297 -0.1052  0.7499
27019SOL    HW282797   8.756   3.135   7.283 -0.2651 -0.6545 -1.6216
27020SOL     OW82798   2.408   6.805   7.690 -0.1888 -0.6273  0.0823
27020SOL    HW182799   2.324   6.837   7.659  0.9611  2.4237 -0.2155
27020SOL    HW282800   2.435   6.741   7.623 -0.7661  0.8941 -1.6838
27021SOL     OW82801   6.745   7.053   3.521 -0.5028 -0.5473  0.2157
27021SOL    HW182802   6.736   6.996   3.597  0.5643 -0.7358  0.2139
27021SOL    HW282803   6.828   7.098   3.534  0.6215 -1.9216 -1.6867
27022SOL     OW82804   7.818   3.995   5.292 -0.5762  0.1992 -0.3581
27022SOL    HW182805   7.855   3.907   5.298  1.3335  1.0492  2.3023
27022SOL    HW282806   7.762   4.003   5.368  0.0712  1.5786  0.0037
27023SOL     OW82807   3.192   2.871   2.494  0.5577 -1.0744 -0.5026
27023SOL    HW182808   3.196   2.840   2.404  1.3725  0.9504 -1.2435
27023SOL    HW282809   3.131   2.945   2.491 -0.5256 -1.8655  0.9305
27024SOL     OW82810   3.097   6.379   4.019  0.3108  0.5792 -0.1019
27024SOL    HW182811   3.160   6.312   3.990 -0.4281 -0.0776 -0.2311
27024SOL    HW282812   3.074   6.427   3.939  0.7497  0.9111 -0.0304
27025SOL     OW82813   0.490   1.504   3.075  0.3605 -0.7174 -0.1732
27025SOL    HW182814   0.562   1.445   3.099 -0.1119 -1.9216 -1.5798
27025SOL    HW282815   0.424   1.447   3.037  0.1647  0.7704 -2.2361
27026SOL     OW82816   3.252   8.875   6.155 -0.1872  0.2927  0.0673
27026SOL    HW182817   3.302   8.802   6.192 -0.4033  0.5173  0.8021
27026SOL    HW282818   3.193   8.833   6.092  1.3333  0.0778 -1.3092
27027SOL     OW82819   6.580   3.857   1.194  0.4876  0.2228  0.2255
27027SOL    HW182820   6.586   3.892   1.105  0.6529 -0.9971 -0.2668
27027SOL    HW282821   6.487   3.856   1.214  0.1561 -2.0374 -1.0397
27028SOL     OW82822   4.411   8.370   0.940  0.5361 -0.1035  0.0351
27028SOL    HW182823   4.365   8.291   0.911  2.1633 -1.5800  1.1712
27028SOL    HW282824   4.436   8.415   0.859 -0.0224 -1.0239 -0.6649
27029SOL     OW82825   5.229   3.468   5.950  0.4385 -0.2848  0.0854
27029SOL    HW182826   5.268   3.491   5.866  1.6625  0.6102  0.8648
27029SOL    HW282827   5.135   3.460   5.932  0.6098  0.4630 -1.2435
27030SOL     OW82828   9.544   3.809   3.112 -0.5182  0.1968 -0.1516
27030SOL    HW182829   9.513   3.725   3.146  0.5744 -0.1510  0.0069
27030SOL    HW282830   9.601   3.844   3.181  2.2634 -0.8161 -1.7802
27031SOL     OW82831   7.131   1.396   1.902 -0.3585 -0.5708 -0.0917
27031SOL    HW182832   7.126   1.303   1.926  1.1155 -0.2845  1.5263
27031SOL    HW282833   7.087   1.401   1.817  1.8371 -3.2454 -1.5554
27032SOL     OW82834   3.972   3.774   6.757  0.5076  0.4613  0.0773
27032SOL    HW182835   4.064   3.754   6.776  0.8961  1.4157 -0.7095
27032SOL    HW282836   3.925   3.746   6.836  1.7258  1.8839  1.3745
27033SOL     OW82837   3.038   7.934   5.801  0.0308 -0.4098  0.5123
27033SOL    HW182838   3.049   7.971   5.714  0.7710  0.5159  0.9770
27033SOL    HW282839   3.107   7.868   5.808 -0.0681 -0.5272  0.3698
27034SOL     OW82840   6.335   0.551   3.313 -0.1569 -0.4281  0.4565
27034SOL    HW182841   6.426   0.553   3.285 -0.8379  4.5820 -2.5596
27034SOL    HW282842   6.325   0.466   3.355  5.2285 -2.2200 -1.0802
27035SOL     OW82843   3.418   0.503   0.976  0.4373 -0.1012 -1.1131
27035SOL    HW182844   3.477   0.539   1.042 -1.3610 -0.9097  1.0306
27035SOL    HW282845   3.374   0.579   0.939  0.8314  0.3020 -0.7629
27036SOL     OW82846   8.353   9.406   1.974  0.8560  0.2214 -0.2301
27036SOL    HW182847   8.399   9.476   2.021 -0.6327  1.2817 -0.2819
27036SOL    HW282848   8.274   9.447   1.941 -0.7664 -1.8101  0.9007
27037SOL     OW82849   9.483   0.545   3.019  0.4408  0.1636 -0.0263
27037SOL    HW182850   9.414   0.591   2.970  0.6200  0.3045 -0.1478
27037SOL    HW282851   9.464   0.564   3.111  0.4551  0.3994 -0.0707
27038SOL     OW82852   4.371   7.748   8.927  0.2941 -0.3324  0.2989
27038SOL    HW182853   4.344   7.689   8.857  1.1359 -0.6979  0.2704
27038SOL    HW282854   4.296   7.752   8.986 -0.4328 -0.0115 -0.6262
27039SOL     OW82855   5.548   3.854   7.880  0.0402  0.2672 -0.3193
27039SOL    HW182856   5.642   3.835   7.871  0.2231  1.2014 -0.4939
27039SOL    HW282857   5.509   3.771   7.906  0.7915 -0.3508 -1.1073
27040SOL     OW82858   3.165   8.262   3.253  0.1283  0.5187 -0.2173
27040SOL    HW182859   3.150   8.184   3.307 -3.0466 -0.1949 -1.8128
27040SOL    HW282860   3.232   8.311   3.299  0.2166 -1.7703  2.3930
27041SOL     OW82861   1.634   8.392   9.047  0.0949  0.2838  0.0922
27041SOL    HW182862   1.680   8.314   9.016  0.8987  1.1984 -1.1439
27041SOL    HW282863   1.674   8.464   8.998  0.1561  1.6296  2.0104
27042SOL     OW82864   7.057   7.985   2.322 -0.5370  0.2132  0.5785
27042SOL    HW182865   7.126   8.013   2.382  0.4411 -0.2144 -0.3114
27042SOL    HW282866   7.033   7.898   2.354 -0.2451  0.1200  0.5551
27043SOL     OW82867   1.566   0.863   4.040 -0.0176 -0.7033  0.1513
27043SOL    HW182868   1.541   0.938   3.987 -0.0865 -0.3290  0.7004
27043SOL    HW282869   1.651   0.887   4.078 -0.3272 -0.6361  0.8181
27044SOL     OW82870   1.233   5.946   5.201  0.0338  0.1842 -0.2379
27044SOL    HW182871   1.308   5.893   5.231 -1.5800 -1.8961  0.3541
27044SOL    HW282872   1.164   5.882   5.183 -1.6428  2.0311 -0.7085
27045SOL     OW82873   6.207   7.868   6.139 -0.1520 -0.1591 -0.2164
27045SOL    HW182874   6.112   7.858   6.130  0.0502 -1.2885 -1.3757
27045SOL    HW282875   6.237   7.895   6.053  0.4216  1.9349  0.5836
27046SOL     OW82876   5.939   5.649   1.009  0.6705 -0.6908 -0.0223
27046SOL    HW182877   5.863   5.707   1.005  0.7199 -0.6222  0.0594
27046SOL    HW282878   5.958   5.629   0.917 -0.8480 -2.5299 -0.0055
27047SOL     OW82879   2.131   7.928   0.048 -0.5894  0.1977 -0.2806
27047SOL    HW182880   2.037   7.929   0.028 -0.8762 -1.2187  0.8059
27047SOL    HW282881   2.149   7.837   0.071  1.0144  0.4972 -0.2473
27048SOL     OW82882   5.732   6.867   7.435  0.9884  0.3530 -0.0832
27048SOL    HW182883   5.778   6.843   7.355  1.0307  2.1550 -0.6376
27048SOL    HW282884   5.802   6.882   7.499  1.1217  1.5125 -0.4770
27049SOL     OW82885   4.664   1.768   5.712  0.8868  0.3968  0.6043
27049SOL    HW182886   4.664   1.714   5.791  1.0928  1.6917  1.5231
27049SOL    HW282887   4.580   1.814   5.715  0.0151 -0.9793 -0.9874
27050SOL     OW82888   6.964   2.751   4.518 -0.5216 -0.1120 -0.2874
27050SOL    HW182889   6.877   2.788   4.528  0.0686  1.2090  0.1250
27050SOL    HW282890   7.016   2.820   4.478  0.3792 -0.8336 -0.4134
27051SOL     OW82891   7.187   0.143   6.838  0.1416 -0.0273 -0.2916
27051SOL    HW182892   7.157   0.134   6.748  0.5038 -1.6436 -0.2815
27051SOL    HW282893   7.114   0.183   6.884 -0.5032 -0.3106 -1.0542
27052SOL     OW82894   2.426   2.812   2.981 -0.6825  0.1546 -0.5460
27052SOL    HW182895   2.480   2.865   2.922 -0.6569  1.5354  0.6869
27052SOL    HW282896   2.349   2.865   2.999 -1.1059 -0.6158 -0.0097
27053SOL     OW82897   5.127   6.897   7.388 -0.1981 -1.0401  0.2005
27053SOL    HW182898   5.170   6.832   7.443  0.0507 -2.0216 -1.1192
27053SOL    HW282899   5.050   6.852   7.354 -0.2622 -0.4923 -0.3907
27054SOL     OW82900   7.889   1.557   4.005  0.2298 -0.8959  0.3196
27054SOL    HW182901   7.962   1.543   4.066 -0.5604 -1.3761  1.1712
27054SOL    HW282902   7.819   1.594   4.059  0.3460  1.1031 -0.7897
27055SOL     OW82903   9.372   6.398   8.364 -0.2420 -0.3278 -0.0837
27055SOL    HW182904   9.301   6.453   8.397 -0.0265  0.2387 -0.5411
27055SOL    HW282905   9.452   6.446   8.387  0.0045 -1.1280  0.7288
27056SOL     OW82906   2.712   8.165   3.808  0.4980  0.1364  0.3691
27056SOL    HW182907   2.687   8.075   3.828  0.9980 -0.6875 -2.3072
27056SOL    HW282908   2.752   8.198   3.888  1.9416 -2.6426  0.8905
27057SOL     OW82909   4.260   1.910   1.255  0.0186  0.3632  0.1775
27057SOL    HW182910   4.296   1.998   1.242  2.2867 -0.5808 -0.2984
27057SOL    HW282911   4.268   1.895   1.349  0.7380  0.2271  0.0988
27058SOL     OW82912   1.932   6.798   8.381 -0.3903 -0.1011  0.3567
27058SOL    HW182913   1.964   6.753   8.302 -0.3987 -1.5333  1.1323
27058SOL    HW282914   1.847   6.758   8.398 -0.2555 -0.0327  1.2511
27059SOL     OW82915   8.375   1.409   2.026  0.1914  0.1554  0.2448
27059SOL    HW182916   8.338   1.356   1.955 -0.2612  2.5932 -1.4344
27059SOL    HW282917   8.300   1.454   2.064  0.4319 -1.1044  2.3501
27060SOL     OW82918   6.749   6.064   8.722  0.1996  0.2147  0.3385
27060SOL    HW182919   6.723   6.005   8.652  1.1387 -0.1641  0.2839
27060SOL    HW282920   6.746   6.010   8.801 -1.6198  0.8437  0.7478
27061SOL     OW82921   0.662   6.522   8.682 -0.1228  0.0477 -0.6805
27061SOL    HW182922   0.695   6.591   8.624 -0.3444 -1.3838 -2.5617
27061SOL    HW282923   0.581   6.493   8.642  0.4244 -1.9241 -0.4369
27062SOL     OW82924   8.271   4.199   9.212 -0.3089 -0.1869  0.2319
27062SOL    HW182925   8.213   4.254   9.159  1.0743 -0.3239 -1.4994
27062SOL    HW282926   8.359   4.228   9.190  0.3538 -0.4994  2.2353
27063SOL     OW82927   2.934   9.513   5.429  0.0057 -0.1297  0.4966
27063SOL    HW182928   2.917   9.589   5.374 -0.9117 -0.3573  0.4455
27063SOL    HW282929   2.876   9.524   5.505  0.8611 -0.0925  1.1683
27064SOL     OW82930   4.919   1.218   1.611  0.1344 -0.6600 -0.3794
27064SOL    HW182931   4.859   1.232   1.684 -1.0792 -0.6129 -1.3495
27064SOL    HW282932   4.876   1.151   1.557  0.2276  0.4078 -1.8429
27065SOL     OW82933   1.312   2.572   8.211  0.1444  0.4654 -0.2508
27065SOL    HW182934   1.389   2.523   8.182 -0.1948  0.0606 -0.4648
27065SOL    HW282935   1.307   2.556   8.306  1.0367  1.4904 -0.0122
27066SOL     OW82936   3.657   6.853   5.045  0.3858  0.1252 -0.1195
27066SOL    HW182937   3.622   6.926   5.096  0.3966  0.6342 -0.8230
27066SOL    HW282938   3.721   6.811   5.104 -0.3933  0.0249  0.6733
27067SOL     OW82939   0.843   0.361   4.882  0.7425 -0.2292  0.5245
27067SOL    HW182940   0.783   0.434   4.897  1.4150  0.1922  1.2589
27067SOL    HW282941   0.829   0.303   4.957  1.5402  0.0747  0.9137
27068SOL     OW82942   6.880   7.572   3.470 -0.0927  0.4634  0.2235
27068SOL    HW182943   6.815   7.519   3.424  0.9342  0.3552 -1.1460
27068SOL    HW282944   6.911   7.634   3.405  0.6261  1.0153  1.0768
27069SOL     OW82945   7.548   3.018   3.917  0.1633 -0.1105 -0.5145
27069SOL    HW182946   7.468   3.038   3.868  0.5065  1.7118 -0.4022
27069SOL    HW282947   7.543   3.073   3.995 -0.4963 -3.1446  1.7770
27070SOL     OW82948   1.707   7.505   6.520  0.2960  0.0699 -0.3072
27070SOL    HW182949   1.794   7.470   6.536  0.1720 -0.2996 -0.4253
27070SOL    HW282950   1.695   7.499   6.425  0.0066 -0.2120 -0.2554
27071SOL     OW82951   3.658   9.407   6.431  0.6986  0.5117  0.4041
27071SOL    HW182952   3.623   9.496   6.429  1.2111  0.7370  1.0941
27071SOL    HW282953   3.671   9.384   6.339  2.2990  1.8435  0.2594
27072SOL     OW82954   3.809   1.864   2.107 -0.0619 -0.7031 -0.5583
27072SOL    HW182955   3.828   1.793   2.169  0.7806 -0.3653 -0.4218
27072SOL    HW282956   3.730   1.834   2.061 -0.3972 -1.1997  0.3040
27073SOL     OW82957   8.343   9.064   1.046  0.2077 -0.3325  0.0048
27073SOL    HW182958   8.426   9.037   1.007 -0.1113 -0.8886 -0.3225
27073SOL    HW282959   8.366   9.127   1.113  0.7799  0.7295 -1.1475
27074SOL     OW82960   9.109   7.351   1.914 -0.2080 -0.1993 -0.2305
27074SOL    HW182961   9.060   7.397   1.982 -0.9699 -1.4500  0.1075
27074SOL    HW282962   9.201   7.369   1.933 -0.3610 -1.1403  1.6174
27075SOL     OW82963   4.334   5.974   8.363 -0.3250  0.7389  0.1903
27075SOL    HW182964   4.415   5.934   8.394  0.1566  0.2750 -1.5750
27075SOL    HW282965   4.363   6.045   8.306 -1.1696  0.4945 -0.5533
27076SOL     OW82966   4.605   3.118   3.656 -0.1617 -0.1688  0.3625
27076SOL    HW182967   4.662   3.190   3.629 -1.2063  0.4237 -0.3431
27076SOL    HW282968   4.626   3.103   3.748 -0.9820  2.0860  0.9927
27077SOL     OW82969   1.600   9.060   0.739 -0.1064  0.2102  0.0368
27077SOL    HW182970   1.506   9.039   0.736 -0.4726  1.8588 -1.3539
27077SOL    HW282971   1.609   9.112   0.819  0.0020 -1.4336  1.1444
27078SOL     OW82972   6.952   3.951   8.481  0.5222 -0.6548  0.0373
27078SOL    HW182973   6.902   3.913   8.553  0.1366 -0.3093 -0.0373
27078SOL    HW282974   6.927   3.900   8.404  0.6736 -0.8072  0.0901
27079SOL     OW82975   7.856   1.377   4.549 -0.2020  0.1324  0.0024
27079SOL    HW182976   7.783   1.385   4.488 -0.6338  0.8956  0.5858
27079SOL    HW282977   7.818   1.402   4.634 -0.2973 -3.3391  1.1167
27080SOL     OW82978   0.679   2.689   5.815  0.3576 -0.3582 -0.3531
27080SOL    HW182979   0.674   2.757   5.882  0.9674 -1.2343  0.6157
27080SOL    HW282980   0.591   2.684   5.778 -0.1101 -0.1799  0.7215
27081SOL     OW82981   9.580   2.961   1.045 -0.2077  0.2857  0.1753
27081SOL    HW182982   9.658   3.010   1.019 -0.2153 -1.0736 -2.6941
27081SOL    HW282983   9.515   3.029   1.065  1.5962  1.4477  2.7313
27082SOL     OW82984   9.515   9.191   7.891 -0.2608  0.6086 -0.2350
27082SOL    HW182985   9.530   9.216   7.982  1.3342  2.0910 -0.8656
27082SOL    HW282986   9.421   9.208   7.877 -0.2496  1.6300  0.7737
27083SOL     OW82987   3.179   7.419   6.436 -0.5962  0.7281 -0.5489
27083SOL    HW182988   3.163   7.358   6.363 -0.6478 -0.7113  0.6334
27083SOL    HW282989   3.110   7.399   6.499 -0.2116  1.5715  0.1576
27084SOL     OW82990   6.030   0.858   7.725 -0.3743  0.1579  0.4073
27084SOL    HW182991   5.959   0.923   7.725  1.2255  2.0169  0.8491
27084SOL    HW282992   6.041   0.835   7.818 -0.4003 -0.1392  0.3376
27085SOL     OW82993   1.146   1.224   2.520 -0.2481 -0.2005  0.5216
27085SOL    HW182994   1.061   1.231   2.477  0.3371  0.8754 -0.5258
27085SOL    HW282995   1.179   1.313   2.525  0.7109 -0.5643  1.1548
27086SOL     OW82996   8.224   0.505   4.973  0.1173  0.1390 -0.3848
27086SOL    HW182997   8.166   0.468   4.906 -0.8848 -0.5650  0.8065
27086SOL    HW282998   8.165   0.554   5.031  0.5173 -1.3200  1.3661
27087SOL     OW82999   4.415   1.350   7.125  0.1358 -0.1128  0.2537
27087SOL    HW183000   4.407   1.446   7.127 -0.6304 -0.1734  0.6443
27087SOL    HW283001   4.480   1.331   7.192  1.8978  0.2561 -1.2989
27088SOL     OW83002   3.755   6.840   6.879 -0.1182 -0.0389 -0.0666
27088SOL    HW183003   3.772   6.751   6.911 -0.4580 -0.6915 -1.6043
27088SOL    HW283004   3.669   6.835   6.839  0.3060  0.7168 -1.1124
27089SOL     OW83005   3.713   8.349   2.376 -0.8603  0.1584  0.7785
27089SOL    HW183006   3.665   8.432   2.370 -1.1338  0.0005  0.7283
27089SOL    HW283007   3.644   8.282   2.373 -0.9880 -0.0245  4.1628
27090SOL     OW83008   9.291   1.234   3.970  0.2189  0.2491 -0.4605
27090SOL    HW183009   9.208   1.206   4.008  0.5407  0.0661  0.1154
27090SOL    HW283010   9.292   1.194   3.883 -0.8512  1.2706 -0.9644
27091SOL     OW83011   1.603   3.919   0.355 -0.2053 -0.1012 -0.4772
27091SOL    HW183012   1.602   3.909   0.450 -0.8940  2.3013 -0.1730
27091SOL    HW283013   1.662   3.850   0.324 -0.4664 -1.3473  1.6046
27092SOL     OW83014   4.262   2.391   8.496 -0.5785 -0.0299 -0.1827
27092SOL    HW183015   4.213   2.423   8.572  0.7398  1.8529 -0.0702
27092SOL    HW283016   4.336   2.450   8.488 -0.7733 -0.0273 -3.1017
27093SOL     OW83017   7.273   0.527   4.410  0.2470  0.1152  0.1227
27093SOL    HW183018   7.355   0.505   4.366 -0.0025 -0.7330  0.0778
27093SOL    HW283019   7.210   0.462   4.379 -0.8006  1.5431 -0.8605
27094SOL     OW83020   3.272   3.705   6.678  0.3070  0.5195 -0.5188
27094SOL    HW183021   3.344   3.705   6.741  0.3258  0.2376 -0.5369
27094SOL    HW283022   3.207   3.764   6.715 -1.2334 -2.2437  1.5754
27095SOL     OW83023   5.326   8.383   8.152  0.0757 -0.0421  0.3771
27095SOL    HW183024   5.340   8.301   8.200 -0.2122  0.1807  0.8472
27095SOL    HW283025   5.414   8.418   8.138  0.1901 -0.3469  0.3217
27096SOL     OW83026   2.550   0.796   9.194  0.0545  0.4928 -0.4032
27096SOL    HW183027   2.634   0.833   9.222  0.6284 -0.8259 -0.3329
27096SOL    HW283028   2.497   0.797   9.273  0.5969 -0.2588 -0.0146
27097SOL     OW83029   7.627   7.007   8.549  0.0675  0.7036  0.6173
27097SOL    HW183030   7.634   6.928   8.602 -1.7529  0.4175  0.5122
27097SOL    HW283031   7.670   7.075   8.601 -0.1517  0.0714  1.6531
27098SOL     OW83032   9.252   4.642   5.119 -0.6780 -0.0817 -0.0892
27098SOL    HW183033   9.267   4.552   5.088  0.0910 -0.7473  2.0546
27098SOL    HW283034   9.338   4.683   5.113 -0.3599 -0.4280  1.6932
27099SOL     OW83035   1.499   7.675   8.072  0.0414  0.0299  0.0193
27099SOL    HW183036   1.461   7.638   8.152 -2.1499  0.6201 -0.6734
27099SOL    HW283037   1.465   7.619   8.002  0.2850  0.7195 -0.6634
27100SOL     OW83038   8.941   0.484   2.525  0.0383 -0.4570 -0.6816
27100SOL    HW183039   8.846   0.491   2.521  0.1877  3.1832 -3.5223
27100SOL    HW283040   8.965   0.520   2.610 -1.0337 -2.8191  0.7268
27101SOL     OW83041   0.661   5.034   2.396  0.5240  0.1193 -0.0908
27101SOL    HW183042   0.601   5.054   2.467  1.6827 -0.1905  1.0034
27101SOL    HW283043   0.736   5.093   2.410  0.9722 -0.2700 -0.7747
27102SOL     OW83044   0.521   5.280   9.155 -0.4509 -0.3277  0.5840
27102SOL    HW183045   0.564   5.241   9.231  0.8064 -0.4380 -0.1624
27102SOL    HW283046   0.428   5.262   9.168 -0.1708 -1.0534  1.6796
27103SOL     OW83047   3.402   8.068   1.683  0.0245  0.2480  1.0199
27103SOL    HW183048   3.336   8.031   1.742 -0.3057  0.2829  0.6781
27103SOL    HW283049   3.386   8.162   1.685  0.0985  0.2609  0.9813
27104SOL     OW83050   2.896   4.161   0.401  0.2115  0.1217 -0.5234
27104SOL    HW183051   2.910   4.234   0.461 -1.8581 -0.4515  0.7427
27104SOL    HW283052   2.968   4.101   0.419 -1.2926 -0.9382  2.8961
27105SOL     OW83053   5.827   3.507   4.768  0.4171 -0.1481 -0.3576
27105SOL    HW183054   5.761   3.569   4.738  0.0943 -0.2668  0.0982
27105SOL    HW283055   5.805   3.490   4.859  0.2712 -1.2233 -0.5825
27106SOL     OW83056   1.893   3.680   7.038 -0.2424 -0.4811 -0.7685
27106SOL    HW183057   1.821   3.617   7.037 -2.2067  1.6376 -1.8665
27106SOL    HW283058   1.930   3.676   6.950 -0.3827 -0.1123 -0.8467
27107SOL     OW83059   5.012   6.272   0.578 -0.1231  0.1138 -0.5191
27107SOL    HW183060   4.917   6.285   0.573 -0.3668  0.3698  2.5088
27107SOL    HW283061   5.025   6.181   0.553 -1.3190 -0.2169 -0.0081
27108SOL     OW83062   5.417   7.442   3.814 -0.3555 -0.8428  0.4257
27108SOL    HW183063   5.501   7.446   3.860 -0.0569 -0.1902 -0.1426
27108SOL    HW283064   5.361   7.389   3.869 -0.0030 -0.0900  1.5380
27109SOL     OW83065   2.312   1.345   6.675  0.5595 -0.3005  0.3479
27109SOL    HW183066   2.218   1.347   6.660  0.3149 -1.2528  1.5511
27109SOL    HW283067   2.326   1.263   6.723  1.8511  0.3443  1.1083
27110SOL     OW83068   4.447   3.159   8.523  0.4560  0.6704 -0.1418
27110SOL    HW183069   4.465   3.239   8.474  0.3764  0.2914 -0.7981
27110SOL    HW283070   4.480   3.177   8.611  0.2743  1.4894 -0.2313
27111SOL     OW83071   2.282   6.660   9.316  0.0854  0.1559  0.0339
27111SOL    HW183072   2.342   6.709   9.259  1.7724 -0.9510  0.7773
27111SOL    HW283073   2.234   6.728   9.364  0.5348  1.0776 -0.7922
27112SOL     OW83074   2.243   7.811   3.988 -0.4886  0.4456 -0.1624
27112SOL    HW183075   2.318   7.860   4.022 -0.3492 -1.1370  2.0214
27112SOL    HW283076   2.179   7.813   4.059 -1.3689 -0.6060 -0.8931
27113SOL     OW83077   7.737   9.418   1.673  0.2868  0.6981  0.8290
27113SOL    HW183078   7.696   9.332   1.665 -0.6653  1.1460  0.7205
27113SOL    HW283079   7.705   9.452   1.756 -0.8536  1.6951  0.0215
27114SOL     OW83080   0.125   6.710   1.867 -0.2192  0.1758 -0.0286
27114SOL    HW183081   0.088   6.764   1.796 -0.3222  0.5953  0.3343
27114SOL    HW283082   0.192   6.657   1.825  0.3529  1.0801 -0.2781
27115SOL     OW83083   4.719   8.604   0.771 -1.0187 -0.1396 -0.0105
27115SOL    HW183084   4.788   8.539   0.784  0.7715  1.1472 -2.3095
27115SOL    HW283085   4.755   8.685   0.808 -0.5933  0.8752 -2.4485
27116SOL     OW83086   0.150   6.703   5.826  0.2610  0.5815 -0.2649
27116SOL    HW183087   0.175   6.737   5.740 -0.6875 -0.2497 -0.8843
27116SOL    HW283088   0.059   6.729   5.836  0.0547 -0.2338  0.0203
27117SOL     OW83089   0.054   2.744   1.247  0.3293  0.0051  0.6404
27117SOL    HW183090   0.142   2.779   1.261  0.0923  1.6569 -1.5019
27117SOL    HW283091  -0.003   2.820   1.254 -0.4488 -0.2431 -2.0867
27118SOL     OW83092   7.491   8.184   1.610  0.1281  0.1369  0.3854
27118SOL    HW183093   7.428   8.210   1.676 -0.3281  0.3388 -0.1242
27118SOL    HW283094   7.519   8.266   1.569  1.3742  0.1432  1.1770
27119SOL     OW83095   1.858   0.040   2.731 -0.8665 -0.4176 -0.4273
27119SOL    HW183096   1.805   0.119   2.733 -2.1040 -1.2204  1.1873
27119SOL    HW283097   1.810  -0.023   2.785  2.4197 -0.7710  2.4388
27120SOL     OW83098   4.435   2.182   8.467  0.0250 -0.5851  0.7291
27120SOL    HW183099   4.373   2.129   8.416  1.8089 -1.4069 -0.7236
27120SOL    HW283100   4.389   2.264   8.483 -1.4322 -1.1535 -0.3068
27121SOL     OW83101   6.218   8.668   3.222  0.0605 -0.4547  0.7012
27121SOL    HW183102   6.193   8.667   3.129  4.9867 -1.4388 -0.9608
27121SOL    HW283103   6.234   8.761   3.241  1.1468 -0.3996 -0.2820
27122SOL     OW83104   5.696   5.370   7.430  0.3060  0.0390  0.1984
27122SOL    HW183105   5.770   5.349   7.487  0.2791  1.6174  0.8730
27122SOL    HW283106   5.676   5.288   7.385  1.9778 -0.6028  0.5591
27123SOL     OW83107   8.845   1.496   7.324  0.3186 -0.0192  0.1129
27123SOL    HW183108   8.835   1.538   7.409 -1.0305  0.0755 -0.0645
27123SOL    HW283109   8.927   1.446   7.331  1.5787  2.0042  0.5767
27124SOL     OW83110   4.581   8.039   5.690  0.0739  0.1620  0.0565
27124SOL    HW183111   4.609   8.055   5.600  2.1591 -1.0662  0.4157
27124SOL    HW283112   4.641   8.092   5.744 -0.3895 -0.0183  0.7614
27125SOL     OW83113   3.846   6.377   7.981 -0.3317 -0.5728 -0.3120
27125SOL    HW183114   3.793   6.299   7.969  0.5427 -1.3853  0.9155
27125SOL    HW283115   3.937   6.347   7.974  0.0282  0.2770  0.4067
27126SOL     OW83116   7.157   0.375   5.774 -0.0316  0.3497  0.0923
27126SOL    HW183117   7.197   0.288   5.778  1.2133  0.9507  1.6652
27126SOL    HW283118   7.107   0.374   5.693  1.1090 -1.3441 -0.6518
27127SOL     OW83119   9.009   5.046   4.787 -0.6738 -0.3261 -0.3763
27127SOL    HW183120   9.097   5.008   4.788 -0.4517  0.1339 -1.3994
27127SOL    HW283121   8.971   5.019   4.704 -1.1286  0.2929 -0.3844
27128SOL     OW83122   8.077   0.090   0.237  0.0691  0.1398  0.9094
27128SOL    HW183123   8.015   0.110   0.307  0.0609 -1.0316  1.2546
27128SOL    HW283124   8.029   0.031   0.179  0.0116  1.2409 -0.2176
27129SOL     OW83125   4.378   6.972   5.903  0.1420  0.5752  0.4280
27129SOL    HW183126   4.412   7.026   5.974  0.1500 -0.4947  1.2739
27129SOL    HW283127   4.405   6.883   5.926 -0.5805  0.1038 -0.4842
27130SOL     OW83128   5.425   6.826   7.000 -0.2486  0.3483 -0.2133
27130SOL    HW183129   5.415   6.879   7.079 -1.9785  1.0598 -0.8637
27130SOL    HW283130   5.507   6.778   7.013 -0.4075  0.5774  1.9141
27131SOL     OW83131   4.981   1.366   8.219  0.2020  0.7991  0.1105
27131SOL    HW183132   4.976   1.273   8.241  0.2188  0.7052 -0.2842
27131SOL    HW283133   5.067   1.394   8.251 -0.4626  1.0764  1.7520
27132SOL     OW83134   0.093   7.570   5.956  0.3118 -0.5191 -0.8601
27132SOL    HW183135   0.184   7.542   5.966  0.2077 -1.0945 -1.4374
27132SOL    HW283136   0.079   7.574   5.862 -0.1151  0.0638 -0.7761
27133SOL     OW83137   8.702   2.258   3.998 -0.3280  0.2751  0.2092
27133SOL    HW183138   8.709   2.286   4.089 -1.4771  0.0506  0.3749
27133SOL    HW283139   8.786   2.283   3.959  0.2122  0.2829  1.3458
27134SOL     OW83140   4.654   6.331   4.387  0.0114 -0.4028 -0.3512
27134SOL    HW183141   4.587   6.298   4.326 -0.9448 -0.6095  0.7835
27134SOL    HW283142   4.634   6.288   4.470 -0.7530  2.3385  0.9989
27135SOL     OW83143   4.485   1.877   7.175 -0.3041  0.0666 -0.6810
27135SOL    HW183144   4.510   1.785   7.181  1.1117  0.4170 -0.9441
27135SOL    HW283145   4.474   1.892   7.081 -0.6507  0.1485 -0.6293
27136SOL     OW83146   2.445   3.337   3.572  0.4897  0.0696 -0.4838
27136SOL    HW183147   2.516   3.291   3.527 -1.3231 -2.6427 -0.8001
27136SOL    HW283148   2.438   3.294   3.657 -0.3429  0.7775 -0.1735
27137SOL     OW83149   7.190   1.801   3.596  0.5268 -0.1395 -0.1846
27137SOL    HW183150   7.241   1.799   3.515  0.5061 -0.8686 -0.1818
27137SOL    HW283151   7.129   1.728   3.588  0.8555 -0.5173  0.6988
27138SOL     OW83152   4.385   7.965   6.083 -0.3437  0.1542  0.1220
27138SOL    HW183153   4.436   7.884   6.081 -0.5558 -0.0986 -3.9494
27138SOL    HW283154   4.449   8.033   6.102  0.4144 -0.6719  0.6318
27139SOL     OW83155   0.320   3.628   4.795 -0.2525  0.6219 -0.7194
27139SOL    HW183156   0.333   3.697   4.730 -2.0212  0.1580 -1.6386
27139SOL    HW283157   0.361   3.662   4.874 -2.4667  3.5481 -0.6455
27140SOL     OW83158   0.555   6.797   2.362 -0.1693 -0.1853 -0.4680
27140SOL    HW183159   0.532   6.720   2.310  1.0907  0.2800 -1.7948
27140SOL    HW283160   0.508   6.870   2.320  1.1988  0.2648 -1.2777
27141SOL     OW83161   3.391   5.219   9.189  0.3293 -0.3632  0.0032
27141SOL    HW183162   3.467   5.247   9.138  0.5747 -0.7220  0.1701
27141SOL    HW283163   3.347   5.155   9.134  0.5515 -0.6934  0.2021
27142SOL     OW83164   6.974   2.505   5.355 -0.2769  0.2664  0.2672
27142SOL    HW183165   7.014   2.589   5.334  0.4141 -0.2009 -0.3334
27142SOL    HW283166   6.883   2.515   5.329 -0.1595  0.7688  0.0359
27143SOL     OW83167   6.597   1.811   7.001  0.2298 -0.0671 -0.3496
27143SOL    HW183168   6.631   1.899   6.985  0.3481  0.1860  1.1409
27143SOL    HW283169   6.509   1.825   7.033 -0.3318 -0.5969 -1.5815
27144SOL     OW83170   9.403   3.120   5.541 -0.4897  0.5573  0.0002
27144SOL    HW183171   9.460   3.119   5.464 -0.4588 -1.7034 -0.0105
27144SOL    HW283172   9.371   3.210   5.545  1.2732  1.3100 -1.3163
27145SOL     OW83173   8.726   4.990   6.099 -0.1767 -0.4121 -0.1740
27145SOL    HW183174   8.685   5.015   6.016  0.1779 -1.1742 -0.5902
27145SOL    HW283175   8.670   5.030   6.166 -1.4466 -1.1778 -0.7289
27146SOL     OW83176   0.450   6.838   7.854 -0.4906  0.2289  0.6141
27146SOL    HW183177   0.520   6.791   7.809 -1.3284 -1.1779  0.7212
27146SOL    HW283178   0.387   6.860   7.786 -0.3274  0.7900  0.6395
27147SOL     OW83179   9.371   4.217   0.853  0.2841  0.0682 -0.0195
27147SOL    HW183180   9.366   4.281   0.925  0.7998  0.6321 -0.4754
27147SOL    HW283181   9.280   4.205   0.826  0.0821 -0.1441  0.7213
27148SOL     OW83182   8.124   7.372   1.129 -0.1537 -0.6411  0.2679
27148SOL    HW183183   8.087   7.384   1.041  3.0085  0.9797 -0.9979
27148SOL    HW283184   8.190   7.304   1.119  0.5543 -0.1321  1.2795
27149SOL     OW83185   5.885   1.849   1.285 -0.6751  0.2846 -0.3462
27149SOL    HW183186   5.914   1.848   1.194  0.4001  0.2725 -0.0068
27149SOL    HW283187   5.909   1.764   1.320 -2.6188 -0.3833 -0.4968
27150SOL     OW83188   8.411   8.749   2.931  0.0568  0.2097 -0.0429
27150SOL    HW183189   8.397   8.832   2.885  0.7390  0.3264 -0.0622
27150SOL    HW283190   8.490   8.765   2.983  2.2731 -1.4921 -2.6131
27151SOL     OW83191   0.109   7.652   3.990 -0.1723 -0.4793 -0.1009
27151SOL    HW183192   0.066   7.726   3.948  1.5919  0.6012 -0.0876
27151SOL    HW283193   0.052   7.577   3.972 -1.9978  0.8695 -0.0893
27152SOL     OW83194   2.701   7.275   7.796  0.1642 -0.0069  0.5400
27152SOL    HW183195   2.717   7.181   7.801 -1.1670 -0.3847 -1.3097
27152SOL    HW283196   2.624   7.284   7.739  1.4718  2.2605 -1.0715
27153SOL     OW83197   2.796   7.393   1.240  0.3856  0.0990 -0.0698
27153SOL    HW183198   2.741   7.329   1.195  2.2290 -1.2423 -0.4821
27153SOL    HW283199   2.736   7.436   1.301 -1.2893 -0.7567 -1.0292
27154SOL     OW83200   7.244   8.645   7.051 -0.4145  0.1463  0.2153
27154SOL    HW183201   7.193   8.682   7.123 -1.2657 -0.4505 -0.0819
27154SOL    HW283202   7.288   8.721   7.013 -1.5084  0.7564  0.1293
27155SOL     OW83203   5.677   0.761   1.624 -0.0746  0.7141 -0.1091
27155SOL    HW183204   5.642   0.806   1.701  1.7025  3.3558 -0.7402
27155SOL    HW283205   5.762   0.727   1.652 -0.0169  0.4890 -0.5437
27156SOL     OW83206   7.478   5.313   7.578 -0.1406  0.4901  0.2163
27156SOL    HW183207   7.555   5.265   7.548 -1.2069 -0.0745 -1.7928
27156SOL    HW283208   7.512   5.397   7.608  1.2690  0.2453 -0.6035
27157SOL     OW83209   0.960   7.108   4.183 -0.4302  0.1777 -0.3093
27157SOL    HW183210   0.950   7.076   4.273  0.1122  0.3710 -0.1735
27157SOL    HW283211   1.054   7.099   4.165 -0.8288 -1.9037 -1.6325
27158SOL     OW83212   7.244   6.379   4.743 -0.4970 -0.3644  0.0304
27158SOL    HW183213   7.338   6.395   4.751 -0.6292  0.3461  0.2887
27158SOL    HW283214   7.207   6.413   4.824 -0.9492 -0.9030  0.0548
27159SOL     OW83215   5.285   8.930   7.715  0.1037 -0.5145  0.1471
27159SOL    HW183216   5.251   8.988   7.646  0.9906 -0.4029 -0.2132
27159SOL    HW283217   5.357   8.980   7.755  1.3401 -1.6092 -0.6227
27160SOL     OW83218   4.072   8.071   8.425  0.3951 -0.0012 -0.2468
27160SOL    HW183219   4.148   8.107   8.471  0.9036  2.6666 -2.8479
27160SOL    HW283220   4.032   8.147   8.381 -1.1253 -1.9875 -2.5709
27161SOL     OW83221   7.111   4.944   7.038 -0.5320  0.4699 -0.3381
27161SOL    HW183222   7.058   5.023   7.052 -2.0948 -0.3609 -1.2407
27161SOL    HW283223   7.074   4.905   6.959 -1.8140 -2.7078  1.6591
27162SOL     OW83224   4.989   6.726   5.590  0.0147 -0.1646 -0.1907
27162SOL    HW183225   4.983   6.817   5.561  0.2189  0.1170  0.6278
27162SOL    HW283226   4.964   6.728   5.682  2.2465 -0.5495  0.4975
27163SOL     OW83227   5.735   5.321   6.117 -0.0867 -0.3636 -0.5277
27163SOL    HW183228   5.825   5.323   6.152 -0.4464 -0.7284  0.4641
27163SOL    HW283229   5.721   5.229   6.095  0.0943 -0.1528 -1.5399
27164SOL     OW83230   1.851   0.737   4.019 -0.0665 -0.4654  0.7054
27164SOL    HW183231   1.795   0.742   3.942  0.1546  0.1715  0.5816
27164SOL    HW283232   1.847   0.645   4.046 -0.4406 -0.6111  0.1595
27165SOL     OW83233   5.707   4.229   9.033 -0.2667 -0.2837  0.9128
27165SOL    HW183234   5.630   4.186   9.070 -2.2200  0.7136 -1.6867
27165SOL    HW283235   5.686   4.322   9.034  1.8185  0.2282  1.9728
27166SOL     OW83236   6.951   9.366   2.534 -0.7143 -0.2144  0.1338
27166SOL    HW183237   6.893   9.296   2.563  0.4538 -0.7045  1.4578
27166SOL    HW283238   6.977   9.340   2.446 -1.1304 -0.9040  0.2036
27167SOL     OW83239   8.741   8.056   3.972 -0.9036 -0.3516 -0.2962
27167SOL    HW183240   8.731   8.053   4.067  1.2748  0.4838  0.0063
27167SOL    HW283241   8.673   8.117   3.943 -2.1232 -1.2248  0.5935
27168SOL     OW83242   0.617   7.382   3.989  0.1825 -0.2684 -0.0748
27168SOL    HW183243   0.533   7.354   3.953  0.4121 -0.6095 -0.3532
27168SOL    HW283244   0.674   7.306   3.979  0.5923  0.0376 -0.1119
27169SOL     OW83245   6.396   1.352   4.382  0.4298 -0.1795  0.7528
27169SOL    HW183246   6.394   1.276   4.324 -0.8697  0.4550 -0.0677
27169SOL    HW283247   6.486   1.384   4.377  0.4955 -0.4990 -0.4425
27170SOL     OW83248   0.357   5.942   3.335  0.1802  0.0013 -0.3604
27170SOL    HW183249   0.410   5.863   3.330  0.7871  0.3823 -0.1202
27170SOL    HW283250   0.355   5.975   3.245  2.8669  1.5729  0.0635
27171SOL     OW83251   0.585   4.523   0.674 -0.8377 -0.2884  0.9933
27171SOL    HW183252   0.674   4.546   0.650 -1.0900 -0.1673  0.1337
27171SOL    HW283253   0.590   4.498   0.766  0.0002  0.1338  1.0659
27172SOL     OW83254   4.886   5.729   8.461  0.5689 -0.1310  0.2279
27172SOL    HW183255   4.959   5.669   8.478 -0.2510 -0.9939  0.8060
27172SOL    HW283256   4.910   5.774   8.380  1.0149 -1.5393 -0.4457
27173SOL     OW83257   2.551   7.608   4.699 -0.0183  0.7480 -0.4586
27173SOL    HW183258   2.605   7.661   4.641  1.4116 -0.1648  0.0097
27173SOL    HW283259   2.599   7.605   4.781 -1.0470  0.3600  0.1486
27174SOL     OW83260   8.245   1.724   5.082  0.1557 -0.2341  0.1701
27174SOL    HW183261   8.236   1.797   5.021 -0.5460 -0.6364 -0.2158
27174SOL    HW283262   8.157   1.686   5.088 -0.1283  0.6298  2.4758
27175SOL     OW83263   6.479   0.187   2.738  0.5636  0.0896  0.6701
27175SOL    HW183264   6.458   0.114   2.681  1.3210  0.2362  0.1792
27175SOL    HW283265   6.422   0.176   2.814  0.4304 -0.8170  0.4514
27176SOL     OW83266   4.804   7.856   6.308 -0.3832 -0.8046  0.5673
27176SOL    HW183267   4.789   7.802   6.231 -0.3855 -0.8419  0.5937
27176SOL    HW283268   4.871   7.809   6.357  0.9165  0.0969 -0.2775
27177SOL     OW83269   8.088   7.980   4.132 -1.0025 -0.2288  0.1191
27177SOL    HW183270   8.052   7.977   4.221  1.0084 -1.1094  0.9835
27177SOL    HW283271   8.047   7.906   4.088 -2.2349  0.3844  0.1992
27178SOL     OW83272   8.308   0.425   0.593  0.1136 -0.5929 -0.5753
27178SOL    HW183273   8.326   0.434   0.500  0.9350 -1.5709 -0.5243
27178SOL    HW283274   8.356   0.498   0.633 -1.9665  1.1400 -1.0610
27179SOL     OW83275   8.742   7.119   8.238  0.1515 -0.4708 -0.5920
27179SOL    HW183276   8.712   7.057   8.172  0.2302  0.3531 -1.4114
27179SOL    HW283277   8.797   7.181   8.190  1.6903 -0.8773  0.5461
27180SOL     OW83278   4.206   5.033   5.284  0.1384 -0.6931 -0.4728
27180SOL    HW183279   4.156   5.003   5.361 -1.0258  0.1533 -0.8782
27180SOL    HW283280   4.143   5.028   5.212  0.7003  0.2325 -1.0319
27181SOL     OW83281   1.692   8.848   7.617  0.1427 -0.6142  0.2104
27181SOL    HW183282   1.744   8.768   7.609  1.4943  0.2788 -0.3306
27181SOL    HW283283   1.684   8.881   7.528 -0.5040 -0.1890  0.4135
27182SOL     OW83284   2.668   4.125   5.404 -0.3275 -0.2333  0.8505
27182SOL    HW183285   2.686   4.214   5.433 -0.7649  0.0411  0.2984
27182SOL    HW283286   2.647   4.134   5.312 -0.7342 -0.8660  0.8789
27183SOL     OW83287   9.191   5.997   1.167  0.4551 -0.0664 -0.7804
27183SOL    HW183288   9.274   5.999   1.216  0.1788 -0.3324 -0.2844
27183SOL    HW283289   9.153   6.083   1.182  0.1538 -0.3065 -0.1278
27184SOL     OW83290   0.764   7.196   5.671 -0.2914 -0.3345  0.1960
27184SOL    HW183291   0.786   7.217   5.762  0.4393  0.2841 -0.1139
27184SOL    HW283292   0.687   7.139   5.678 -0.9263  0.5916  1.1666
27185SOL     OW83293   1.295   9.096   2.207 -0.8535  0.2623 -0.1641
27185SOL    HW183294   1.284   9.011   2.166  1.7395 -1.2092  1.8733
27185SOL    HW283295   1.350   9.146   2.146  0.5474 -0.8456  0.1414
27186SOL     OW83296   3.220   1.625   8.485  0.1450 -0.3251 -0.4056
27186SOL    HW183297   3.186   1.703   8.529 -1.6656 -0.4789 -1.4210
27186SOL    HW283298   3.301   1.604   8.532 -1.3415 -0.1639  2.4865
27187SOL     OW83299   6.475   7.185   0.221 -0.0708 -0.2103 -0.5835
27187SOL    HW183300   6.381   7.172   0.238 -0.4334  2.8686  0.3773
27187SOL    HW283301   6.481   7.189   0.126 -0.9380 -0.3554 -0.6555
27188SOL     OW83302   3.983   0.838   4.134 -0.6491 -0.1904  0.5782
27188SOL    HW183303   4.076   0.816   4.127 -0.2785  1.6285 -1.5481
27188SOL    HW283304   3.948   0.821   4.047 -2.0109  0.3776  0.9917
27189SOL     OW83305   9.084   0.515   0.680  0.1825 -0.3874  0.2435
27189SOL    HW183306   9.154   0.450   0.686  1.0407  0.4756 -0.1950
27189SOL    HW283307   9.009   0.467   0.645  1.0630 -0.9518 -0.9141
27190SOL     OW83308   8.009   7.263   8.784  0.4654  0.1102 -0.4778
27190SOL    HW183309   7.951   7.325   8.827  0.3841 -0.8478  0.8360
27190SOL    HW283310   7.956   7.184   8.772  0.3274  0.4995 -2.8301
27191SOL     OW83311   0.250   3.164   3.017  0.4044  0.2565  1.0858
27191SOL    HW183312   0.310   3.186   3.088  3.0571  2.7117 -1.6331
27191SOL    HW283313   0.300   3.105   2.961 -0.7232  0.2502  0.0495
27192SOL     OW83314   6.039   5.428   4.136  0.3335  0.1244  0.0973
27192SOL    HW183315   6.011   5.505   4.087  0.5787  0.3667  0.3343
27192SOL    HW283316   6.074   5.463   4.218 -2.3919 -0.4040  1.6115
27193SOL     OW83317   4.975   2.274   4.833 -0.3805  0.6645  0.3270
27193SOL    HW183318   5.062   2.276   4.793  0.3453  1.5244  1.8650
27193SOL    HW283319   4.916   2.252   4.761  0.9187  1.6244 -1.0876
27194SOL     OW83320   3.184   0.959   4.794 -0.5577  0.3656  0.2134
27194SOL    HW183321   3.092   0.978   4.812 -0.9446  0.8821 -2.0153
27194SOL    HW283322   3.215   1.036   4.746  0.5146 -0.6062 -0.6914
27195SOL     OW83323   3.483   9.584   6.206  0.1032 -0.2827  0.4708
27195SOL    HW183324   3.417   9.521   6.236 -1.0505 -0.0865 -1.5222
27195SOL    HW283325   3.534   9.536   6.141  1.9623 -0.4106  1.9411
27196SOL     OW83326   4.082   3.320   8.062  0.7428 -1.3237  0.1092
27196SOL    HW183327   4.051   3.229   8.059  1.4744 -1.5877  0.4175
27196SOL    HW283328   4.072   3.352   7.973 -2.1054 -0.8151  0.5027
27197SOL     OW83329   7.727   4.692   5.996  0.2336  0.4266  0.0084
27197SOL    HW183330   7.806   4.745   5.989  1.0034 -0.9017 -2.2658
27197SOL    HW283331   7.670   4.725   5.927 -0.7829  0.6287  0.9116
27198SOL     OW83332   2.557   0.681   5.815  0.2485  0.0507  0.3029
27198SOL    HW183333   2.546   0.722   5.901 -2.3672 -0.2843  0.2185
27198SOL    HW283334   2.501   0.733   5.756  1.4490 -0.1395 -1.0702
27199SOL     OW83335   5.641   3.930   1.374  0.1056 -0.6277  0.0799
27199SOL    HW183336   5.677   3.887   1.297 -1.0045 -1.1946 -0.1371
27199SOL    HW283337   5.571   3.872   1.404  2.3560 -1.9562  3.2504
27200SOL     OW83338   2.619   9.366   4.312  0.2108 -0.0232 -0.2586
27200SOL    HW183339   2.651   9.326   4.393 -1.3395  1.0090  0.9301
27200SOL    HW283340   2.526   9.343   4.309  0.6550 -1.8440 -2.9102
27201SOL     OW83341   3.013   7.912   0.422  0.1804  0.0372  0.0636
27201SOL    HW183342   3.030   7.832   0.373  0.3721  0.5934 -0.8076
27201SOL    HW283343   2.972   7.883   0.504  1.8218 -1.0673  0.5258
27202SOL     OW83344   1.734   3.656   7.743 -0.2499  0.0487 -0.0290
27202SOL    HW183345   1.746   3.622   7.832 -1.2570 -1.5933 -0.4891
27202SOL    HW283346   1.719   3.750   7.756 -1.0109 -0.2591  1.6010
27203SOL     OW83347   8.730   2.001   6.171 -0.2396 -0.4949  0.2589
27203SOL    HW183348   8.799   1.937   6.160  0.2290 -0.2615  1.6380
27203SOL    HW283349   8.772   2.074   6.217 -1.3489 -0.2912  0.9997
27204SOL     OW83350   7.916   6.389   9.419 -0.0049 -0.1212 -0.0139
27204SOL    HW183351   7.990   6.367   9.477  1.4522 -0.6949 -1.9880
27204SOL    HW283352   7.878   6.304   9.396 -0.5636  0.1005  0.0952
27205SOL     OW83353   9.056   2.812   1.797  0.4572  0.2359  0.1597
27205SOL    HW183354   8.982   2.842   1.850  0.3072 -0.5258  0.3916
27205SOL    HW283355   9.063   2.719   1.816  1.7229  0.3722  0.4353
27206SOL     OW83356   7.647   2.855   4.185 -0.6798 -0.0983  0.4324
27206SOL    HW183357   7.649   2.853   4.089  1.5620  0.1043  0.4242
27206SOL    HW283358   7.653   2.763   4.211  0.2933 -0.0701  0.3489
27207SOL     OW83359   4.935   4.893   8.928  0.1080 -0.3420  0.0695
27207SOL    HW183360   5.007   4.939   8.971 -0.4610  1.1621 -0.5133
27207SOL    HW283361   4.936   4.927   8.838 -0.2495 -1.6102 -0.4402
27208SOL     OW83362   2.429   8.142   2.561  0.0151  0.0673  0.4898
27208SOL    HW183363   2.334   8.152   2.547  0.2533  2.4234  0.1539
27208SOL    HW283364   2.448   8.197   2.636  0.7376 -2.7098  2.4985
27209SOL     OW83365   2.899   4.957   2.021  0.2809 -0.2008 -0.1757
27209SOL    HW183366   2.954   4.976   2.097  0.1227 -0.0040 -0.1079
27209SOL    HW283367   2.810   4.969   2.053  0.2511  1.5477 -0.8183
27210SOL     OW83368   2.770   8.466   1.991  0.5858 -0.0807 -0.4340
27210SOL    HW183369   2.752   8.379   2.026 -2.3059  0.4418 -0.4085
27210SOL    HW283370   2.799   8.517   2.067  0.5200 -0.5479 -0.0904
27211SOL     OW83371   5.039   6.911   0.297  0.1229  0.2023  0.0165
27211SOL    HW183372   4.958   6.933   0.251  0.7746  0.6287 -0.9510
27211SOL    HW283373   5.052   6.982   0.359 -1.6041 -1.1577  2.0766
27212SOL     OW83374   3.015   2.096   7.006  0.1510  0.2069 -0.3465
27212SOL    HW183375   2.920   2.109   7.005  0.0876  0.6876  2.5058
27212SOL    HW283376   3.026   2.001   6.996 -0.5698  0.2028 -1.2224
27213SOL     OW83377   4.683   3.650   8.510  0.4938  0.0998  0.0611
27213SOL    HW183378   4.667   3.656   8.604  0.6377 -0.8267  0.1537
27213SOL    HW283379   4.732   3.568   8.499 -0.9379 -0.6481 -1.0046
27214SOL     OW83380   5.173   5.121   6.888 -0.6969 -0.2405  0.4235
27214SOL    HW183381   5.191   5.030   6.864  0.5531 -0.0438  0.5414
27214SOL    HW283382   5.146   5.118   6.980  0.6694 -0.3808  0.8445
27215SOL     OW83383   3.228   5.083   6.267 -0.0404  0.7101 -0.0186
27215SOL    HW183384   3.149   5.039   6.297 -0.6668  2.2416  0.7048
27215SOL    HW283385   3.215   5.097   6.173  0.1303 -0.5235 -0.2370
27216SOL     OW83386   8.854   6.941   2.380  0.2056  0.3844  0.5121
27216SOL    HW183387   8.933   6.948   2.433 -0.1295 -0.1739  1.0918
27216SOL    HW283388   8.817   6.856   2.402 -1.3338  1.2323  1.3526
27217SOL     OW83389   7.360   8.173   2.288 -0.4158 -0.3538  0.4891
27217SOL    HW183390   7.375   8.091   2.334 -2.5130 -0.9246  0.2452
27217SOL    HW283391   7.356   8.239   2.357  0.4934 -0.5520  0.7485
27218SOL     OW83392   5.153   6.508   7.868  0.2367  0.0965 -0.1643
27218SOL    HW183393   5.189   6.547   7.948 -0.5118  0.2946  0.0866
27218SOL    HW283394   5.157   6.578   7.803 -1.0679  0.6020  0.2752
27219SOL     OW83395   1.379   8.089   0.321 -0.2885 -0.4077  0.0076
27219SOL    HW183396   1.412   8.147   0.252  0.1294 -1.2409 -0.5197
27219SOL    HW283397   1.284   8.094   0.313 -0.2980  1.2005  0.8377
27220SOL     OW83398   2.401   1.763   6.106  0.2050  0.0806  0.6272
27220SOL    HW183399   2.432   1.673   6.101 -0.5529 -0.2434  1.4877
27220SOL    HW283400   2.331   1.761   6.171 -0.7901  1.0161 -0.3730
27221SOL     OW83401   8.533   7.403   9.009 -0.4121  0.5413 -0.8143
27221SOL    HW183402   8.477   7.481   9.010 -0.7095  0.3662  2.1068
27221SOL    HW283403   8.622   7.437   9.012 -0.4832  0.7572 -1.0570
27222SOL     OW83404   2.162   3.019   0.483  0.0320  0.4413  0.5216
27222SOL    HW183405   2.257   3.031   0.483  0.0626  0.3644 -1.2802
27222SOL    HW283406   2.149   2.935   0.438 -1.0068  1.8324 -1.9086
27223SOL     OW83407   6.069   6.594   4.937  0.4347  0.1711 -0.6372
27223SOL    HW183408   6.079   6.685   4.909  1.1708 -0.1555 -1.4555
27223SOL    HW283409   6.001   6.559   4.879 -0.6575  0.4949  0.4146
27224SOL     OW83410   3.659   7.015   0.158  0.0283  0.0058  0.0827
27224SOL    HW183411   3.662   6.920   0.154  1.3612  0.0692 -1.1832
27224SOL    HW283412   3.585   7.040   0.104 -0.3658 -0.3131  0.4756
27225SOL     OW83413   8.240   5.613   0.222 -0.5008  0.1225  0.1464
27225SOL    HW183414   8.312   5.591   0.163  0.0959 -0.5351  1.0918
27225SOL    HW283415   8.243   5.708   0.231 -0.0675  0.1425 -0.2255
27226SOL     OW83416   5.270   0.686   7.809 -0.4889 -0.4656 -0.1094
27226SOL    HW183417   5.222   0.662   7.730  0.9499 -1.0178 -0.8403
27226SOL    HW283418   5.209   0.668   7.880 -1.9491  0.3966 -1.0899
27227SOL     OW83419   0.281   2.035   0.678 -0.4021 -0.1476  0.5170
27227SOL    HW183420   0.213   1.985   0.723 -1.1961  0.0338 -0.4715
27227SOL    HW283421   0.236   2.082   0.609  0.4401  1.4424  0.9894
27228SOL     OW83422   8.417   7.663   2.988 -0.5055 -0.2194  0.5987
27228SOL    HW183423   8.431   7.639   2.897 -1.2062 -1.1858  0.7305
27228SOL    HW283424   8.332   7.626   3.011 -1.4528  1.9971  0.9908
27229SOL     OW83425   3.856   3.319   9.317 -0.2713  0.8821  0.1201
27229SOL    HW183426   3.864   3.226   9.335 -1.8619  0.2221 -2.1793
27229SOL    HW283427   3.910   3.333   9.239  0.9505  2.1928  1.1420
27230SOL     OW83428   4.878   5.773   6.502  0.4199 -0.4518 -0.5230
27230SOL    HW183429   4.848   5.707   6.440 -1.6372  0.0022 -0.0985
27230SOL    HW283430   4.928   5.724   6.567  0.8106 -1.2407 -1.3936
27231SOL     OW83431   8.788   9.423   0.428  0.0575 -0.2923  0.2496
27231SOL    HW183432   8.713   9.433   0.487  0.5939  1.1076  0.7396
27231SOL    HW283433   8.754   9.445   0.342  0.1273  1.5012  0.6366
27232SOL     OW83434   7.479   4.790   8.226  0.2070 -0.7653  0.4347
27232SOL    HW183435   7.427   4.711   8.209 -0.5460 -0.5379  1.5766
27232SOL    HW283436   7.429   4.838   8.292  0.7812  0.5462 -0.0418
27233SOL     OW83437   4.457   3.452   4.902 -0.3814 -0.0273  0.3517
27233SOL    HW183438   4.518   3.381   4.918  0.3229  0.3899 -0.3831
27233SOL    HW283439   4.470   3.513   4.975 -2.5261 -1.6172  2.1816
27234SOL     OW83440   7.702   1.348   1.925 -0.4257  0.0739 -0.4654
27234SOL    HW183441   7.658   1.431   1.906 -0.3913  0.0489 -0.6634
27234SOL    HW283442   7.714   1.348   2.019  0.9099  0.9544 -0.6155
27235SOL     OW83443   4.580   5.746   8.373  0.2781 -0.1164 -0.0151
27235SOL    HW183444   4.659   5.758   8.427  0.5493 -1.0760 -0.1914
27235SOL    HW283445   4.613   5.751   8.283 -0.0117  0.4123 -0.0946
27236SOL     OW83446   0.586   5.024   7.022 -0.2220  0.0759 -0.0683
27236SOL    HW183447   0.498   5.009   6.987  0.2762  0.2947 -1.4347
27236SOL    HW283448   0.582   4.987   7.111 -1.2720 -1.2002 -0.6118
27237SOL     OW83449   0.240   5.366   3.603  0.4463 -0.0563  0.0550
27237SOL    HW183450   0.246   5.271   3.610  0.6125 -0.2603 -2.0450
27237SOL    HW283451   0.147   5.385   3.605  0.3732 -0.3610 -0.3112
27238SOL     OW83452   6.734   1.611   2.262 -0.4119  0.1603 -0.1439
27238SOL    HW183453   6.756   1.601   2.354  0.1238  0.7566 -0.2002
27238SOL    HW283454   6.700   1.700   2.255  0.9168  0.6346 -0.7744
27239SOL     OW83455   0.671   3.847   0.999 -0.2118  0.1999 -0.2432
27239SOL    HW183456   0.728   3.876   1.071 -1.6436 -0.2305  1.1369
27239SOL    HW283457   0.590   3.820   1.043 -0.7982 -0.9826 -1.9478
27240SOL     OW83458   6.919   4.248   5.117 -0.0840  0.1026 -0.3166
27240SOL    HW183459   6.918   4.328   5.169 -0.0953  0.3768 -0.7294
27240SOL    HW283460   6.999   4.203   5.143 -1.2667 -0.9849  1.7322
27241SOL     OW83461   5.973   1.792   8.457  0.2449 -0.2173 -0.3493
27241SOL    HW183462   5.908   1.797   8.386 -0.6223  0.0550  0.4418
27241SOL    HW283463   5.924   1.761   8.533  1.6589 -2.8955 -0.4248
27242SOL     OW83464   6.848   4.142   5.746  0.0331  0.7957  0.6510
27242SOL    HW183465   6.841   4.223   5.696 -2.4760  0.0587 -0.3556
27242SOL    HW283466   6.879   4.077   5.683 -0.3583  0.4616  0.7971
27243SOL     OW83467   0.128   0.592   1.672 -0.0369 -0.2416  0.0658
27243SOL    HW183468   0.170   0.616   1.590  2.1124  0.0210  1.1621
27243SOL    HW283469   0.185   0.525   1.709 -0.4500  0.2990  1.7645
27244SOL     OW83470   0.863   4.928   0.886  0.1071  0.2015  0.1247
27244SOL    HW183471   0.957   4.910   0.890  0.3641  1.6183  1.9896
27244SOL    HW283472   0.852   4.983   0.809  0.9004  0.3631  0.1182
27245SOL     OW83473   5.530   0.223   9.302 -0.9105  0.5030  0.0167
27245SOL    HW183474   5.607   0.176   9.270 -0.6181  0.9174  0.0967
27245SOL    HW283475   5.517   0.190   9.391 -0.3517  0.9903  0.2878
27246SOL     OW83476   8.293   6.581   5.471  0.2776  0.1318 -0.1457
27246SOL    HW183477   8.269   6.508   5.415  2.5733 -0.5682 -0.2970
27246SOL    HW283478   8.240   6.568   5.550 -0.3239 -0.9322 -0.6967
27247SOL     OW83479   7.084   0.060   1.204  0.1982  0.7254 -0.1770
27247SOL    HW183480   7.091   0.118   1.281  0.2570 -0.8083  1.0224
27247SOL    HW283481   7.175   0.038   1.183  0.1399 -2.2970  2.1075
27248SOL     OW83482   5.268   4.757   9.250 -0.1866  0.0005 -0.0406
27248SOL    HW183483   5.305   4.831   9.298  1.6311 -1.6292  1.2248
27248SOL    HW283484   5.309   4.761   9.164  1.0655 -0.3100  0.5081
27249SOL     OW83485   4.277   5.104   1.647  0.2998  0.1516 -0.3781
27249SOL    HW183486   4.251   5.027   1.597 -0.9365  0.1788  0.1925
27249SOL    HW283487   4.286   5.173   1.582 -0.8683  0.0856 -0.6207
27250SOL     OW83488   4.179   6.488   3.905  0.3075 -0.1244  0.3458
27250SOL    HW183489   4.161   6.515   3.815  1.7437 -1.3806 -0.3648
27250SOL    HW283490   4.208   6.568   3.949  1.1747  0.1819 -0.7609
27251SOL     OW83491   5.437   1.479   1.373  0.3966  0.3701  0.1831
27251SOL    HW183492   5.390   1.561   1.388 -0.8507 -0.3348  0.2501
27251SOL    HW283493   5.374   1.410   1.395  1.0391 -0.6255 -0.9553
27252SOL     OW83494   8.219   2.127   8.629 -0.1476  0.2886 -0.9901
27252SOL    HW183495   8.256   2.181   8.699 -1.6940 -0.2472  0.3139
27252SOL    HW283496   8.288   2.123   8.563  1.3495  0.9024  0.4523
27253SOL     OW83497   7.613   7.049   0.462 -0.1071 -0.2569  0.2421
27253SOL    HW183498   7.574   7.023   0.378  1.2355 -0.5210 -0.3253
27253SOL    HW283499   7.568   7.130   0.485 -2.1292 -1.3700  0.4456
27254SOL     OW83500   3.301   1.308   5.015 -0.1283 -0.7197  0.2705
27254SOL    HW183501   3.339   1.371   5.076 -1.4177 -0.4250  0.8222
27254SOL    HW283502   3.341   1.224   5.038 -1.0488 -0.7349  2.0053
27255SOL     OW83503   2.566   2.623   7.213  0.5311 -0.3779 -0.5882
27255SOL    HW183504   2.481   2.655   7.182  0.2686 -1.8404 -1.4432
27255SOL    HW283505   2.585   2.547   7.159  1.6322 -1.0527  0.6786
27256SOL     OW83506   1.260   8.689   1.227 -0.3636 -0.8980  0.1010
27256SOL    HW183507   1.296   8.600   1.225 -0.8904 -1.1061 -0.4561
27256SOL    HW283508   1.298   8.728   1.306 -1.3143 -2.1262  1.2250
27257SOL     OW83509   2.718   5.880   3.576 -0.5910  0.1991 -0.3367
27257SOL    HW183510   2.809   5.851   3.567 -0.9946 -0.5808 -2.4498
27257SOL    HW283511   2.684   5.827   3.648  0.1361 -0.8495 -0.7347
27258SOL     OW83512   1.274   6.720   2.461  0.1406 -0.5366  0.1412
27258SOL    HW183513   1.329   6.683   2.392  0.7558 -0.8010  0.7633
27258SOL    HW283514   1.281   6.814   2.450 -0.6676 -0.5688 -0.8531
27259SOL     OW83515   7.586   4.757   3.581 -0.4696  0.2866 -0.0778
27259SOL    HW183516   7.492   4.773   3.572 -0.7800 -1.6808 -1.0123
27259SOL    HW283517   7.626   4.808   3.511 -0.9161  0.6081 -0.0993
27260SOL     OW83518   1.486   8.521   7.672 -0.1243  0.6323 -0.1337
27260SOL    HW183519   1.499   8.522   7.767  1.6065 -2.8064 -0.1355
27260SOL    HW283520   1.396   8.490   7.660  0.8972 -3.1265  0.6338
27261SOL     OW83521   5.297   9.465   7.311 -0.2065 -0.2506 -0.3827
27261SOL    HW183522   5.233   9.394   7.319 -0.5329  0.1992  1.4491
27261SOL    HW283523   5.304   9.501   7.399  0.8425  1.2408 -1.0349
27262SOL     OW83524   2.761   2.046   6.446  0.2909  0.2448  0.5303
27262SOL    HW183525   2.753   1.959   6.486 -0.0490  0.8110  1.7374
27262SOL    HW283526   2.703   2.042   6.369 -1.4575  0.0642  1.7817
27263SOL     OW83527   5.385   4.265   6.137  0.3085  0.0873  0.4322
27263SOL    HW183528   5.420   4.343   6.095 -1.5086  0.6947 -0.0161
27263SOL    HW283529   5.458   4.232   6.190  1.2463  1.8317  0.3029
27264SOL     OW83530   3.617   4.776   5.131  0.8022  0.1751 -0.4602
27264SOL    HW183531   3.620   4.866   5.099 -0.0708  0.5232  0.4154
27264SOL    HW283532   3.537   4.739   5.094 -1.4045  1.2357  2.8827
27265SOL     OW83533   5.660   7.150   9.425 -0.3540  0.0733  0.4346
27265SOL    HW183534   5.628   7.239   9.413  3.2292  1.2207 -2.4262
27265SOL    HW283535   5.657   7.111   9.338  0.6765 -1.6738  1.1259
27266SOL     OW83536   8.191   2.292   4.323  0.1478 -0.2236 -0.1839
27266SOL    HW183537   8.285   2.313   4.327  0.1434 -0.0793 -0.7440
27266SOL    HW283538   8.172   2.287   4.230 -0.6528  0.9100 -0.1024
27267SOL     OW83539   5.810   5.409   3.792  0.2746 -0.2099  0.7861
27267SOL    HW183540   5.797   5.499   3.764  0.2035 -0.6802 -0.7779
27267SOL    HW283541   5.724   5.381   3.823  0.3844  0.3578  1.6410
27268SOL     OW83542   4.198   0.981   5.476  0.1929 -0.1951 -0.1999
27268SOL    HW183543   4.204   1.035   5.555  0.6746 -0.2123 -0.2208
27268SOL    HW283544   4.181   1.044   5.405  1.1243 -0.0215 -0.2791
27269SOL     OW83545   1.066   5.739   2.493 -0.3153  0.0205 -0.1614
27269SOL    HW183546   1.154   5.768   2.469  0.1239  1.3085  2.6279
27269SOL    HW283547   1.010   5.813   2.472 -0.4610 -0.1087 -0.2295
27270SOL     OW83548   2.475   9.146   1.007  0.0961  0.1712 -0.2689
27270SOL    HW183549   2.420   9.222   1.024  0.0688  0.3348 -1.0851
27270SOL    HW283550   2.479   9.139   0.912  3.2368  1.4772 -0.3466
27271SOL     OW83551   9.379   7.386   0.035 -0.5127 -0.1184  0.3288
27271SOL    HW183552   9.375   7.357   0.127 -0.4931  1.2296  0.7793
27271SOL    HW283553   9.464   7.431   0.028 -0.8911  0.5325 -0.1163
27272SOL     OW83554   1.916   3.416   1.581 -0.0785  0.7322  1.0466
27272SOL    HW183555   2.004   3.379   1.566 -0.2269  0.8973 -0.2628
27272SOL    HW283556   1.873   3.350   1.635  0.8938  0.7194  1.8506
27273SOL     OW83557   0.504   8.806   8.092 -0.2341 -0.5088 -0.5743
27273SOL    HW183558   0.520   8.859   8.014 -0.9920  0.1987 -0.2662
27273SOL    HW283559   0.409   8.806   8.101 -0.1234 -0.0029  0.7390
27274SOL     OW83560   6.604   6.079   9.167  0.6320  0.4465  0.1071
27274SOL    HW183561   6.573   6.078   9.258 -0.4415  1.4416 -0.2308
27274SOL    HW283562   6.577   5.994   9.132  0.5626  0.2770  0.5615
27275SOL     OW83563   0.827   6.232   7.770  0.2349  0.4603 -0.5025
27275SOL    HW183564   0.787   6.236   7.857  0.4517  1.0772 -0.4273
27275SOL    HW283565   0.918   6.207   7.786  0.2436  0.4475 -0.5679
27276SOL     OW83566   3.579   5.563   4.559 -0.0824 -0.1407  0.3080
27276SOL    HW183567   3.601   5.479   4.518  0.3329 -0.4179  1.0844
27276SOL    HW283568   3.659   5.615   4.553 -1.0856  1.2559 -2.6228
27277SOL     OW83569   5.618   5.988   5.098  0.0318  0.0391 -0.3723
27277SOL    HW183570   5.695   5.950   5.056  0.8756 -0.2373  1.3044
27277SOL    HW283571   5.556   5.916   5.105  0.8034 -0.5495  0.8942
27278SOL     OW83572   2.628   9.117   1.637  0.8013  0.1112 -0.3839
27278SOL    HW183573   2.706   9.110   1.582  0.0518 -1.0217 -1.3493
27278SOL    HW283574   2.584   9.196   1.607  0.9513  0.0827 -0.6836
27279SOL     OW83575   7.413   9.379   5.151 -0.1511  0.4759 -0.6332
27279SOL    HW183576   7.385   9.467   5.177  1.3266  1.3653 -1.9144
27279SOL    HW283577   7.332   9.329   5.147 -0.8578  1.2802  1.8389
27280SOL     OW83578   7.885   4.393   0.729 -0.1927  0.5865 -0.0344
27280SOL    HW183579   7.896   4.392   0.633 -1.9734 -1.0957 -0.2876
27280SOL    HW283580   7.966   4.355   0.762 -0.1923 -0.3178 -0.9967
27281SOL     OW83581   1.943   5.259   6.230 -0.2228  0.1187 -0.4320
27281SOL    HW183582   1.884   5.326   6.195  0.0886  0.2289 -0.7449
27281SOL    HW283583   1.885   5.185   6.251 -0.5975  0.5744  0.1456
27282SOL     OW83584   5.124   8.273   3.737 -0.1598 -0.1833  0.4775
27282SOL    HW183585   5.155   8.285   3.826 -1.3313 -0.0846  0.8884
27282SOL    HW283586   5.071   8.350   3.719 -0.2021 -0.3588 -0.1867
27283SOL     OW83587   0.902   9.097   7.567  0.0722 -0.3608  0.3682
27283SOL    HW183588   0.830   9.154   7.594 -0.4036 -0.1829 -1.1382
27283SOL    HW283589   0.864   9.040   7.500  1.4449  0.1763 -0.9411
27284SOL     OW83590   0.762   2.240   4.033 -0.2797 -0.5014  0.3614
27284SOL    HW183591   0.791   2.322   3.993 -0.1723 -0.3609  0.7182
27284SOL    HW283592   0.681   2.219   3.989  0.4480 -0.9934 -0.7874
27285SOL     OW83593   7.416   6.655   3.814 -0.4550 -0.3541 -0.0967
27285SOL    HW183594   7.372   6.578   3.849 -2.7489  1.5567  1.6249
27285SOL    HW283595   7.400   6.723   3.880  1.0472  1.7173 -1.7397
27286SOL     OW83596   4.735   3.180   7.839 -0.1923  0.2739 -0.2446
27286SOL    HW183597   4.672   3.146   7.775  1.0110  0.2130 -1.4518
27286SOL    HW283598   4.807   3.212   7.786  0.1182  1.8057  1.0267
27287SOL     OW83599   0.244   1.507   2.345 -0.3563  0.1684  0.6126
27287SOL    HW183600   0.261   1.477   2.434  2.3266 -0.1613  0.0843
27287SOL    HW283601   0.233   1.427   2.294 -0.6997  0.3091  0.4656
27288SOL     OW83602   6.033   4.482   8.026 -0.3719 -0.3714 -0.0122
27288SOL    HW183603   6.112   4.491   7.973 -0.5857 -1.0448 -0.4540
27288SOL    HW283604   6.039   4.395   8.065 -0.6131 -0.1968  0.4235
27289SOL     OW83605   3.637   8.244   3.008 -0.3092 -0.2811  0.5093
27289SOL    HW183606   3.586   8.295   3.071  0.8273 -0.6166  1.7428
27289SOL    HW283607   3.716   8.296   2.994  0.0205 -0.8258  0.3441
27290SOL     OW83608   1.416   1.160   4.337 -0.2241 -0.6945  0.2043
27290SOL    HW183609   1.332   1.143   4.294 -0.2046  0.5941 -0.4093
27290SOL    HW283610   1.481   1.125   4.277 -0.3310 -3.5055  1.5914
27291SOL     OW83611   8.693   3.347   8.776  0.2054 -0.0324  0.7223
27291SOL    HW183612   8.758   3.282   8.803 -0.6617 -0.3160  2.2163
27291SOL    HW283613   8.647   3.371   8.856 -2.3594 -0.7357 -0.4199
27292SOL     OW83614   6.909   6.967   4.896 -0.1935  0.2051  0.0455
27292SOL    HW183615   6.988   6.929   4.858  0.5133  2.2093 -0.6124
27292SOL    HW283616   6.934   6.991   4.985  0.5006  2.3432 -0.6835
27293SOL     OW83617   7.598   4.409   7.240  0.7177  0.0233  0.1523
27293SOL    HW183618   7.543   4.367   7.174  1.2023 -0.6283  0.1405
27293SOL    HW283619   7.597   4.348   7.314 -0.3878  1.0780  1.0433
27294SOL     OW83620   3.853   0.840   1.752 -0.0202 -0.3466 -0.1081
27294SOL    HW183621   3.888   0.901   1.688 -0.1128  0.6777  0.7859
27294SOL    HW283622   3.910   0.849   1.828 -0.3156 -1.0338  0.2089
27295SOL     OW83623   7.019   2.486   7.529 -0.4627 -0.0305 -0.2735
27295SOL    HW183624   6.980   2.538   7.599  1.2741  1.5674 -0.4089
27295SOL    HW283625   7.070   2.418   7.575 -0.9173 -0.2127 -0.0377
27296SOL     OW83626   1.494   0.834   3.427 -0.4488 -0.0231  0.0143
27296SOL    HW183627   1.575   0.878   3.451 -0.9049  0.7401  0.1968
27296SOL    HW283628   1.515   0.740   3.431 -0.5688 -0.0549  3.8821
27297SOL     OW83629   6.454   3.695   2.577  0.3909 -0.1824 -0.2713
27297SOL    HW183630   6.433   3.773   2.526 -0.7381 -0.9201 -0.9964
27297SOL    HW283631   6.500   3.638   2.515 -0.1043 -0.6814 -0.1922
27298SOL     OW83632   6.517   1.122   7.732  0.5375 -0.3617  0.2867
27298SOL    HW183633   6.429   1.159   7.718  0.7427 -0.4638 -1.5168
27298SOL    HW283634   6.572   1.199   7.747  0.6119 -0.0111 -1.4940
27299SOL     OW83635   5.044   8.453   8.531  0.4035  0.2682 -0.3823
27299SOL    HW183636   5.045   8.547   8.515  2.1908  0.0206 -2.2000
27299SOL    HW283637   4.952   8.428   8.523 -0.0195  1.7652 -0.4976
27300SOL     OW83638   8.926   3.340   3.086  0.2432 -0.1831  0.2378
27300SOL    HW183639   8.982   3.372   3.015  0.0458 -0.0976  0.1190
27300SOL    HW283640   8.980   3.275   3.131 -0.1714 -1.4251 -0.9692
27301SOL     OW83641   2.114   2.662   6.126 -0.0962 -0.0772 -0.1780
27301SOL    HW183642   2.054   2.606   6.076 -0.3562 -0.0655  0.1115
27301SOL    HW283643   2.115   2.744   6.078 -2.1297  0.7243  1.0230
27302SOL     OW83644   0.459   7.307   2.844 -0.4947  0.0876  0.0306
27302SOL    HW183645   0.517   7.366   2.891 -0.7236  0.0509  0.3660
27302SOL    HW283646   0.505   7.286   2.763 -0.4438  0.7745 -0.1210
27303SOL     OW83647   4.292   4.091   7.842 -0.3450 -0.1821 -0.2344
27303SOL    HW183648   4.368   4.033   7.836  0.1080  0.4964 -1.5770
27303SOL    HW283649   4.217   4.033   7.837  0.0989 -0.6733 -1.9348
27304SOL     OW83650   6.748   1.394   7.339 -0.3459  0.5263  0.7256
27304SOL    HW183651   6.708   1.308   7.349 -0.9876  0.5622 -1.1712
27304SOL    HW283652   6.689   1.454   7.385  0.9353 -0.1549  3.4854
27305SOL     OW83653   5.684   3.950   0.244  0.4142  0.3029  0.3810
27305SOL    HW183654   5.764   3.984   0.205  0.2587  0.6576  0.3623
27305SOL    HW283655   5.614   3.988   0.190  0.2730 -1.5138 -0.8168
27306SOL     OW83656   0.225   7.212   1.943 -0.0604 -0.5135  0.0549
27306SOL    HW183657   0.225   7.303   1.974  3.0001 -1.1947  2.5520
27306SOL    HW283658   0.203   7.219   1.850 -3.2027  2.3628  0.8086
27307SOL     OW83659   4.646   5.064   0.212 -0.2375  0.3884  0.3431
27307SOL    HW183660   4.725   5.109   0.242 -0.5652  0.5641  0.9505
27307SOL    HW283661   4.603   5.035   0.292 -0.1387 -0.8469 -0.0369
27308SOL     OW83662   7.447   1.875   7.397  0.2978 -0.0363  0.4653
27308SOL    HW183663   7.417   1.784   7.395  3.6442 -1.3756  2.1518
27308SOL    HW283664   7.392   1.917   7.463 -1.3459 -0.7582 -0.3848
27309SOL     OW83665   7.092   9.596   4.419 -0.1397 -0.3294  0.1520
27309SOL    HW183666   7.081   9.602   4.514 -0.0406 -1.3246  0.2347
27309SOL    HW283667   7.180   9.560   4.407 -0.5764 -1.3003 -0.2757
27310SOL     OW83668   1.263   3.310   3.885  0.3862  0.2028  0.4138
27310SOL    HW183669   1.276   3.256   3.962  2.2944 -0.6508 -0.4320
27310SOL    HW283670   1.173   3.293   3.858  0.3952 -1.2247  1.1844
27311SOL     OW83671   8.897   5.044   0.536  0.1813 -0.0222 -0.1866
27311SOL    HW183672   8.934   5.038   0.624 -0.9055 -0.8126  0.2356
27311SOL    HW283673   8.834   5.116   0.540 -0.7192 -0.8064  0.0184
27312SOL     OW83674   5.770   1.233   8.575 -0.2973  0.3980 -0.4530
27312SOL    HW183675   5.736   1.267   8.492 -0.0043 -1.5044 -1.4085
27312SOL    HW283676   5.815   1.152   8.551  2.9021  1.5461  1.0843
27313SOL     OW83677   4.100   3.363   7.525 -0.4696  0.0891 -0.1560
27313SOL    HW183678   4.056   3.439   7.564  0.5355  0.5666  0.1037
27313SOL    HW283679   4.043   3.289   7.544 -1.3267  0.7326 -0.1551
27314SOL     OW83680   4.484   1.594   5.129  0.1195 -0.2256 -0.1743
27314SOL    HW183681   4.557   1.538   5.154  1.5327  0.4695 -2.4769
27314SOL    HW283682   4.453   1.557   5.047 -2.9641 -1.1877  1.2497
27315SOL     OW83683   7.790   4.587   1.379 -0.5463 -0.2086  0.0972
27315SOL    HW183684   7.701   4.571   1.408 -0.1399 -0.6097  1.1830
27315SOL    HW283685   7.834   4.624   1.456  0.1313  0.3202 -0.5268
27316SOL     OW83686   4.890   3.555   1.074  0.4238  0.0498 -0.1132
27316SOL    HW183687   4.841   3.524   1.150  0.3792 -0.3861 -0.3178
27316SOL    HW283688   4.973   3.585   1.111  0.7227 -0.8980  0.0269
27317SOL     OW83689   3.223   5.189   5.656  0.0835 -0.4143  0.2023
27317SOL    HW183690   3.235   5.265   5.712  0.5425  1.3242 -2.1225
27317SOL    HW283691   3.136   5.201   5.618  0.1942 -1.0092 -0.2624
27318SOL     OW83692   7.945   6.841   0.844  0.3923 -0.7112  0.1305
27318SOL    HW183693   7.907   6.803   0.923 -0.7580  1.1745  0.5566
27318SOL    HW283694   7.869   6.865   0.790  1.0969 -0.2374 -0.6780
27319SOL     OW83695   1.496   1.709   7.077 -0.3809  0.0081 -0.1986
27319SOL    HW183696   1.519   1.761   7.000 -0.3804 -0.2738 -0.3942
27319SOL    HW283697   1.406   1.681   7.061 -0.8376  1.0329  0.5203
27320SOL     OW83698   9.366   5.511   3.521 -0.1122 -0.1755  0.0803
27320SOL    HW183699   9.429   5.439   3.517  1.4133  1.0163  1.3231
27320SOL    HW283700   9.407   5.582   3.473 -1.1452  0.1959 -0.2784
27321SOL     OW83701   7.403   3.606   3.302  0.0572  1.0500 -0.1328
27321SOL    HW183702   7.409   3.691   3.258 -3.0990  1.9093  0.7995
27321SOL    HW283703   7.411   3.626   3.395  2.2548 -0.1536  0.0018
27322SOL     OW83704   2.610   6.432   1.679  0.0668  0.4803  0.6066
27322SOL    HW183705   2.618   6.514   1.631  0.1414 -0.1929 -0.5624
27322SOL    HW283706   2.523   6.400   1.659  0.6913 -0.6316 -0.4547
27323SOL     OW83707   3.083   9.346   3.826 -0.5890 -0.1998  0.2416
27323SOL    HW183708   3.157   9.302   3.786 -0.0579  0.1440  0.8266
27323SOL    HW283709   3.110   9.362   3.917 -1.1438  0.4573  0.3054
27324SOL     OW83710   6.304   4.043   4.708 -0.1019 -0.1375  0.1814
27324SOL    HW183711   6.361   4.050   4.785  2.7646  1.4561 -1.8685
27324SOL    HW283712   6.273   4.133   4.693 -0.3713 -0.3595 -0.6751
27325SOL     OW83713   7.618   9.369   9.177  0.3337 -0.1897  0.1459
27325SOL    HW183714   7.647   9.284   9.145 -1.4618 -0.9246  0.3215
27325SOL    HW283715   7.563   9.348   9.253  0.7288  1.2098  0.8483
27326SOL     OW83716   0.550   5.617   0.897 -0.3229 -0.4980  0.1079
27326SOL    HW183717   0.481   5.596   0.834 -0.0174  0.1830 -0.4594
27326SOL    HW283718   0.548   5.712   0.904  0.5473 -0.4748  0.1117
27327SOL     OW83719   0.157   5.557   8.412  0.6983 -0.3542 -0.6230
27327SOL    HW183720   0.089   5.616   8.380 -0.2091 -1.1578 -0.2555
27327SOL    HW283721   0.109   5.493   8.466  1.9763  0.1759  1.2544
27328SOL     OW83722   3.190   8.537   3.527 -0.1023  0.2954 -0.4963
27328SOL    HW183723   3.095   8.534   3.537  0.0684 -0.5706  1.3825
27328SOL    HW283724   3.221   8.576   3.609  1.3014 -2.7354  0.5883
27329SOL     OW83725   9.484   5.382   7.368 -0.2486 -0.4982  0.2319
27329SOL    HW183726   9.536   5.302   7.373 -0.7368 -0.7881  0.8994
27329SOL    HW283727   9.544   5.448   7.333  0.3382 -1.0068  0.2615
27330SOL     OW83728   6.100   5.597   6.814  0.3580 -0.2053  0.5895
27330SOL    HW183729   6.110   5.589   6.909 -0.3104 -0.0292  0.6743
27330SOL    HW283730   6.014   5.562   6.795  0.3328  0.1136  0.0917
27331SOL     OW83731   6.415   3.363   6.183  0.0762  0.3728 -0.5072
27331SOL    HW183732   6.344   3.302   6.166  0.0524  0.3750 -0.4157
27331SOL    HW283733   6.388   3.410   6.262  1.1606 -1.1293  0.8225
27332SOL     OW83734   5.499   8.921   1.812 -0.2207 -0.0530 -0.5464
27332SOL    HW183735   5.454   8.837   1.805  0.9070 -0.5948 -1.8664
27332SOL    HW283736   5.432   8.982   1.841 -1.0273 -1.4287  0.5700
27333SOL     OW83737   0.419   8.352   6.035  0.0655 -0.7555  1.0638
27333SOL    HW183738   0.397   8.290   6.105 -0.1065 -0.6282  1.1215
27333SOL    HW283739   0.376   8.433   6.060  1.3771 -0.2196  1.6661
27334SOL     OW83740   5.555   2.194   7.175 -0.4430  0.2954 -0.7299
27334SOL    HW183741   5.524   2.232   7.258 -0.7253 -2.3566  0.4845
27334SOL    HW283742   5.478   2.148   7.141  0.8174 -2.5704  0.0092
27335SOL     OW83743   5.435   7.554   0.766  0.0213  0.0372  0.1692
27335SOL    HW183744   5.521   7.514   0.761  0.2391  0.6088 -1.5330
27335SOL    HW283745   5.405   7.557   0.675 -1.9924 -0.5350  0.7492
27336SOL     OW83746   4.082   0.947   7.902 -0.0591  0.1408 -0.0672
27336SOL    HW183747   4.157   0.949   7.842  0.3214 -0.1989  0.3845
27336SOL    HW283748   4.035   1.028   7.885 -0.8654 -0.6690 -1.9661
27337SOL     OW83749   5.369   8.570   0.560 -0.1574  0.1325  0.2047
27337SOL    HW183750   5.380   8.650   0.611  1.3012 -0.0284  0.1855
27337SOL    HW283751   5.364   8.600   0.469 -0.6774  0.2732  0.2792
27338SOL     OW83752   4.981   2.508   2.280 -0.4696 -0.1181 -0.2948
27338SOL    HW183753   4.897   2.527   2.239 -0.2370  0.8640 -0.3377
27338SOL    HW283754   4.966   2.523   2.373 -0.3822 -0.1045 -0.2832
27339SOL     OW83755   0.716   1.857   3.012 -0.2224  0.4617 -0.6767
27339SOL    HW183756   0.658   1.836   3.085  1.2542  2.3630  1.1651
27339SOL    HW283757   0.804   1.838   3.045  0.5343  1.9055 -1.7328
27340SOL     OW83758   4.033   3.991   3.544 -0.1026 -0.0717  0.8570
27340SOL    HW183759   3.993   3.965   3.461  0.5621  0.5676  0.3173
27340SOL    HW283760   3.971   4.052   3.584  0.0523  0.4571  0.3064
27341SOL     OW83761   2.164   8.401   4.204  0.0398  0.0992  0.1118
27341SOL    HW183762   2.151   8.476   4.145  0.0299  1.4815  1.8130
27341SOL    HW283763   2.076   8.376   4.231  0.1567  1.1319  1.5201
27342SOL     OW83764   3.170   1.537   6.056  0.2532  0.3624 -0.3238
27342SOL    HW183765   3.133   1.460   6.099 -0.3611  0.5546 -0.4887
27342SOL    HW283766   3.232   1.502   5.993  0.7560  0.0519  0.3303
27343SOL     OW83767   2.009   3.949   5.818  0.2493  0.3866 -0.1131
27343SOL    HW183768   1.960   3.937   5.899  1.9841  0.0098  0.9497
27343SOL    HW283769   1.977   3.881   5.760 -0.0637 -0.2395  0.7709
27344SOL     OW83770   5.971   7.217   4.681 -0.4169  0.1661 -0.2084
27344SOL    HW183771   6.020   7.243   4.758 -1.9281  1.6310  0.3089
27344SOL    HW283772   5.895   7.275   4.679 -0.0681  0.7048 -3.2001
27345SOL     OW83773   1.896   0.874   5.875 -0.1622 -0.2512  0.2574
27345SOL    HW183774   1.884   0.873   5.780 -0.2643  0.9677  0.2381
27345SOL    HW283775   1.989   0.855   5.888 -0.1356 -0.3616 -0.0920
27346SOL     OW83776   3.580   8.690   1.288 -0.3294  0.0507  0.1697
27346SOL    HW183777   3.595   8.674   1.195 -2.8113 -0.5418 -0.2208
27346SOL    HW283778   3.626   8.772   1.306  1.3015 -0.5012 -1.2090
27347SOL     OW83779   5.672   7.730   6.678 -1.0604 -0.1460 -0.6501
27347SOL    HW183780   5.583   7.734   6.711 -0.3633  2.1907  1.2186
27347SOL    HW283781   5.720   7.680   6.745 -0.9126 -1.3096 -1.5960
27348SOL     OW83782   0.873   7.716   3.349  0.2529  0.2418  0.3504
27348SOL    HW183783   0.845   7.807   3.345 -0.0393  0.1585  0.4874
27348SOL    HW283784   0.959   7.715   3.307 -0.5787  0.2389 -1.4639
27349SOL     OW83785   2.279   4.998   7.830 -0.1273 -0.1507 -0.7193
27349SOL    HW183786   2.265   4.957   7.916 -1.1507 -0.9650 -1.2451
27349SOL    HW283787   2.325   5.080   7.850  0.2487 -0.6393  0.5392
27350SOL     OW83788   8.644   5.390   3.922  0.0583 -0.2295 -0.1262
27350SOL    HW183789   8.704   5.424   3.854 -1.1894  0.9959 -0.6638
27350SOL    HW283790   8.635   5.462   3.984 -2.0268  0.2110 -0.8593
27351SOL     OW83791   6.080   6.630   8.921 -0.0923  0.1020  0.3326
27351SOL    HW183792   6.135   6.694   8.968 -1.9735  1.9435  0.1921
27351SOL    HW283793   6.023   6.594   8.988  0.1043 -0.4837  0.1850
27352SOL     OW83794   8.129   5.917   6.256  0.2290 -0.0242  0.0614
27352SOL    HW183795   8.180   5.843   6.293  1.5273  0.0746 -1.4335
27352SOL    HW283796   8.041   5.882   6.245  0.3382 -0.7263  1.1919
27353SOL     OW83797   1.039   5.294   7.463 -0.2960 -0.0113 -0.3362
27353SOL    HW183798   1.046   5.359   7.533  2.2438  0.0237 -0.5129
27353SOL    HW283799   0.945   5.278   7.454 -0.7595  0.1371  2.9261
27354SOL     OW83800   0.542   7.919   4.002 -0.6073 -0.0796  0.4479
27354SOL    HW183801   0.623   7.934   4.051  0.3661 -1.3452 -0.6967
27354SOL    HW283802   0.529   7.824   4.007 -0.7535 -0.1709 -1.3102
27355SOL     OW83803   8.589   7.877   3.409  0.5227  0.2380 -0.3728
27355SOL    HW183804   8.660   7.833   3.457  3.1364  2.2658 -2.0521
27355SOL    HW283805   8.609   7.860   3.317 -0.7977  1.4381 -0.9136
27356SOL     OW83806   2.741   9.474   3.276  0.0273  0.4611 -0.0051
27356SOL    HW183807   2.778   9.387   3.264 -0.7742  0.1123  0.0001
27356SOL    HW283808   2.735   9.485   3.371  0.7105  0.7749  0.0028
27357SOL     OW83809   3.331   8.723   3.312 -0.2590 -0.3426  0.0530
27357SOL    HW183810   3.418   8.683   3.323 -0.6309 -0.9923  0.7586
27357SOL    HW283811   3.301   8.739   3.401  0.3545  2.6737 -0.2014
27358SOL     OW83812   4.331   2.899   7.654 -0.5132 -0.1258 -0.0976
27358SOL    HW183813   4.397   2.843   7.696  0.1721  1.2041  0.6734
27358SOL    HW283814   4.364   2.912   7.565 -1.3766 -2.0067 -0.7466
27359SOL     OW83815   5.769   2.162   7.531 -0.0118 -0.1979  0.2171
27359SOL    HW183816   5.792   2.221   7.459 -1.1526  0.3260  0.2729
27359SOL    HW283817   5.854   2.139   7.570  0.8817 -2.3315 -2.6670
27360SOL     OW83818   4.440   8.210   9.253  0.3507  0.7057 -0.2863
27360SOL    HW183819   4.439   8.146   9.324 -0.1863  2.1476  1.0762
27360SOL    HW283820   4.440   8.158   9.173 -0.7997 -0.9901  0.7575
27361SOL     OW83821   4.915   5.464   6.739  0.2862 -0.0960 -0.0581
27361SOL    HW183822   4.964   5.544   6.721  0.9717 -0.1317  1.4751
27361SOL    HW283823   4.973   5.393   6.711  0.8770 -0.1207  1.1908
27362SOL     OW83824   9.531   5.851   7.431 -0.6963 -0.3210 -0.6765
27362SOL    HW183825   9.560   5.904   7.357 -0.6390  2.1948  0.9983
27362SOL    HW283826   9.438   5.836   7.415 -1.3329  2.4103 -0.1682
27363SOL     OW83827   3.164   2.178   8.486  0.2835 -0.2633  0.2996
27363SOL    HW183828   3.127   2.213   8.567  0.9573  0.2046  0.4138
27363SOL    HW283829   3.225   2.245   8.456 -1.5772  0.6000 -1.8269
27364SOL     OW83830   9.609   5.968   8.635  0.1413  0.7856  0.4773
27364SOL    HW183831   9.669   5.932   8.700  0.1680 -0.3500 -0.1674
27364SOL    HW283832   9.528   5.983   8.684  0.7216  1.7196  1.1988
27365SOL     OW83833   0.134   6.849   3.193  0.2433  0.0801 -0.3089
27365SOL    HW183834   0.124   6.773   3.135  0.0950 -0.1749  0.0433
27365SOL    HW283835   0.218   6.888   3.169 -0.3917  0.7174 -1.5490
27366SOL     OW83836   4.933   8.778   1.179 -0.8144  0.1480 -0.1081
27366SOL    HW183837   4.981   8.708   1.222 -0.5636 -0.7179 -1.7392
27366SOL    HW283838   4.842   8.763   1.202 -0.4596  1.5370  2.6367
27367SOL     OW83839   0.371   0.317   9.110 -0.3338  0.5158 -0.1811
27367SOL    HW183840   0.337   0.254   9.173  1.5135  2.1249  2.6971
27367SOL    HW283841   0.439   0.269   9.063  1.8135  0.4173  2.7100
27368SOL     OW83842   0.426   7.798   5.707 -0.1945 -0.0869 -0.4646
27368SOL    HW183843   0.439   7.838   5.793  0.0913 -0.1058 -0.4979
27368SOL    HW283844   0.487   7.845   5.650 -1.7827  1.3080 -1.0911
27369SOL     OW83845   9.073   4.736   4.730 -0.7167  0.1104 -0.3127
27369SOL    HW183846   9.052   4.747   4.822  0.1231  2.6483 -0.3388
27369SOL    HW283847   8.999   4.775   4.683  0.7235  2.8725 -0.5266
27370SOL     OW83848   4.707   7.339   4.669  0.5839  0.1529  0.1083
27370SOL    HW183849   4.678   7.409   4.727 -1.9996 -0.0759 -0.8116
27370SOL    HW283850   4.757   7.384   4.601 -2.5503  1.4772 -1.4910
27371SOL     OW83851   4.961   4.820   1.400 -0.1212  0.2857 -0.1922
27371SOL    HW183852   4.883   4.874   1.385 -0.0232  0.0261 -1.9019
27371SOL    HW283853   4.970   4.768   1.320  1.4666 -0.1226  0.2078
27372SOL     OW83854   3.262   8.419   8.344 -0.2100  0.3169 -0.2148
27372SOL    HW183855   3.294   8.503   8.312 -1.1896  0.6898 -0.2503
27372SOL    HW283856   3.219   8.379   8.269 -0.5914  0.2210  0.0483
27373SOL     OW83857   8.980   1.193   5.261  0.4038  0.2494 -0.6238
27373SOL    HW183858   9.034   1.266   5.291  1.3459 -0.5465 -0.3011
27373SOL    HW283859   8.897   1.233   5.236  1.5767  1.7137 -2.4205
27374SOL     OW83860   4.595   0.768   9.141  0.6047 -0.3724 -0.4878
27374SOL    HW183861   4.586   0.767   9.236 -0.7509  2.0811 -0.5059
27374SOL    HW283862   4.554   0.686   9.112 -0.0010 -0.6170  0.9678
27375SOL     OW83863   0.855   6.541   6.743  0.5800  0.4542  0.3233
27375SOL    HW183864   0.899   6.620   6.713 -0.0366  1.0538  0.9633
27375SOL    HW283865   0.762   6.558   6.728 -0.0058  1.6211  4.2560
27376SOL     OW83866   9.566   0.241   1.596 -0.5833 -0.3220  0.5337
27376SOL    HW183867   9.475   0.226   1.621 -0.4477  0.3213  1.4911
27376SOL    HW283868   9.609   0.269   1.677  0.5161 -0.8106  0.1453
27377SOL     OW83869   8.457   4.561   7.398 -0.5203  0.1899  0.5994
27377SOL    HW183870   8.475   4.506   7.321 -0.5950  2.4694 -1.1751
27377SOL    HW283871   8.518   4.530   7.465  0.0423 -1.4403 -0.5962
27378SOL     OW83872   5.256   4.308   6.448  0.0256 -0.8352  0.1457
27378SOL    HW183873   5.261   4.297   6.543  0.3770 -0.4252  0.1748
27378SOL    HW283874   5.264   4.219   6.414 -0.1207 -0.9866  0.5020
27379SOL     OW83875   4.212   0.421   8.808  0.1411  0.2771 -0.5451
27379SOL    HW183876   4.220   0.344   8.752 -0.6904  0.0432 -0.3667
27379SOL    HW283877   4.290   0.473   8.790 -0.0698  0.1686 -1.8639
27380SOL     OW83878   5.346   3.676   6.126  0.0040  0.5901 -0.7697
27380SOL    HW183879   5.386   3.628   6.198 -0.2120  1.1829 -0.2529
27380SOL    HW283880   5.307   3.608   6.071 -1.3746  0.2088  0.5986
27381SOL     OW83881   5.869   7.004   4.565  0.3842 -0.0817  0.6610
27381SOL    HW183882   5.931   6.932   4.571  0.9555  0.4750  1.8147
27381SOL    HW283883   5.915   7.079   4.602 -0.6314  0.5893  0.6280
27382SOL     OW83884   5.232   9.164   7.131  0.1932  0.5030  0.6644
27382SOL    HW183885   5.162   9.165   7.197 -0.8099 -0.4980 -0.3409
27382SOL    HW283886   5.188   9.180   7.048  1.4600  1.8543  0.1976
27383SOL     OW83887   7.002   6.426   6.627 -0.1175 -0.0068  0.3015
27383SOL    HW183888   7.050   6.374   6.563  0.8202 -2.6941  2.9119
27383SOL    HW283889   7.068   6.448   6.693 -1.6614 -0.4273  2.0662
27384SOL     OW83890   5.330   0.811   0.604 -0.2510 -0.6646  0.2806
27384SOL    HW183891   5.387   0.803   0.680 -0.8691 -0.3374  0.7936
27384SOL    HW283892   5.241   0.805   0.640 -0.5715  0.3973 -0.2904
27385SOL     OW83893   5.205   2.302   6.844 -0.2607  0.4696  0.1219
27385SOL    HW183894   5.125   2.323   6.893  0.0939  0.1229  0.8692
27385SOL    HW283895   5.253   2.243   6.902  1.1980  1.7632  0.2884
27386SOL     OW83896   4.108   1.832   4.476 -0.1515  0.2765  0.3324
27386SOL    HW183897   4.098   1.737   4.468  1.2449  0.2165 -1.2971
27386SOL    HW283898   4.093   1.864   4.387  2.8831  1.1876  0.0531
27387SOL     OW83899   3.220   6.702   3.962  0.1550 -0.1840  0.4438
27387SOL    HW183900   3.200   6.647   3.886  0.0243 -0.8941  0.9811
27387SOL    HW283901   3.207   6.792   3.931  1.3970 -0.3981 -0.7472
27388SOL     OW83902   9.371   5.918   7.118 -0.3341 -0.1177  0.2613
27388SOL    HW183903   9.287   5.963   7.108 -0.1741 -0.0265 -0.8197
27388SOL    HW283904   9.349   5.835   7.161 -1.3587 -1.1880 -2.1716
27389SOL     OW83905   4.997   9.396   6.358 -0.1968  0.3746 -1.0219
27389SOL    HW183906   4.925   9.438   6.311 -0.2345  0.3499 -0.9858
27389SOL    HW283907   5.037   9.338   6.293  0.1634  0.8328 -1.2170
27390SOL     OW83908   8.671   2.322   5.940 -0.3416  0.1067  0.3826
27390SOL    HW183909   8.744   2.269   5.909 -1.3620  0.4415 -3.0687
27390SOL    HW283910   8.712   2.397   5.983  1.2537 -0.7852  0.4838
27391SOL     OW83911   3.913   1.062   2.383  0.1393 -0.2862 -0.3443
27391SOL    HW183912   3.998   1.099   2.359  0.8766 -1.3941  0.4725
27391SOL    HW283913   3.921   0.968   2.363  0.1135 -0.9239  2.3040
27392SOL     OW83914   0.830   7.351   8.926 -0.4366  0.8271  0.7094
27392SOL    HW183915   0.893   7.403   8.877 -1.1659  1.8036  0.7868
27392SOL    HW283916   0.855   7.260   8.907  0.1749  1.1882 -0.3234
27393SOL     OW83917   4.912   7.152   3.923  0.8110 -0.0153  0.5626
27393SOL    HW183918   4.893   7.242   3.898  1.1605  0.1879  1.0154
27393SOL    HW283919   4.990   7.129   3.873 -1.3790 -1.4110 -2.5958
27394SOL     OW83920   2.761   3.826   0.508  0.0437 -0.0578  0.5422
27394SOL    HW183921   2.681   3.783   0.539  0.4603 -0.1311  1.5452
27394SOL    HW283922   2.742   3.849   0.417  0.4072 -3.9410 -0.6957
27395SOL     OW83923   5.290   0.993   2.765 -0.0778  0.3008 -0.1557
27395SOL    HW183924   5.379   0.982   2.732 -0.2642  0.6076 -0.7701
27395SOL    HW283925   5.302   1.022   2.856  0.4508  0.6625 -0.3361
27396SOL     OW83926   2.694   8.408   0.747  0.5527  0.0787 -0.0060
27396SOL    HW183927   2.678   8.488   0.698  1.4344  1.2120  1.4885
27396SOL    HW283928   2.663   8.338   0.689  1.0670  1.3734 -1.9383
27397SOL     OW83929   8.901   1.522   1.212 -0.6519 -0.0995 -0.5565
27397SOL    HW183930   8.805   1.517   1.214 -0.6270 -1.3389 -1.3824
27397SOL    HW283931   8.920   1.565   1.128 -0.4794  0.7134 -0.1153
27398SOL     OW83932   5.652   7.170   8.996 -0.1644  0.5496  0.0173
27398SOL    HW183933   5.642   7.160   8.902  1.0175  1.1787 -0.1900
27398SOL    HW283934   5.724   7.231   9.007  1.0831 -1.0588  1.3360
27399SOL     OW83935   0.767   7.987   3.367  0.1845  0.4597  0.0601
27399SOL    HW183936   0.824   8.063   3.367 -1.4362  1.7234 -0.1478
27399SOL    HW283937   0.705   8.002   3.296 -0.9875 -0.4017  0.8471
27400SOL     OW83938   5.913   7.000   8.004  0.8255 -1.2320  0.1640
27400SOL    HW183939   5.834   6.948   8.022 -0.2777  0.3071 -0.0674
27400SOL    HW283940   5.935   7.040   8.088 -0.3666  0.6045 -0.3425
27401SOL     OW83941   2.116   0.148   2.597 -0.5858 -0.1833  0.2711
27401SOL    HW183942   2.033   0.110   2.625 -1.4901  1.0434 -0.6296
27401SOL    HW283943   2.116   0.139   2.502 -0.5360  1.4280  0.0889
27402SOL     OW83944   3.277   2.425   1.687  0.3379 -0.1965  0.1473
27402SOL    HW183945   3.300   2.375   1.765  0.7513  0.9551  0.7885
27402SOL    HW283946   3.277   2.360   1.616 -2.5837 -1.7958  1.4515
27403SOL     OW83947   8.449   0.706   3.156  0.0882  0.0646  0.1567
27403SOL    HW183948   8.363   0.743   3.137  0.3494  1.1662  0.9671
27403SOL    HW283949   8.454   0.707   3.252  0.5779 -1.0194  0.1572
27404SOL     OW83950   1.233   0.611   4.273  0.8216  0.8387  0.2622
27404SOL    HW183951   1.326   0.630   4.256  0.8598 -0.1900 -0.8420
27404SOL    HW283952   1.186   0.681   4.227  1.0359  0.6698 -0.2262
27405SOL     OW83953   8.367   8.042   2.909  0.5642 -0.2112  0.3457
27405SOL    HW183954   8.422   8.119   2.894  1.0746 -0.4751  0.8414
27405SOL    HW283955   8.417   7.969   2.872 -0.3940 -0.1810 -1.1045
27406SOL     OW83956   0.927   0.963   5.652 -0.7564  0.2745 -0.1722
27406SOL    HW183957   0.849   0.978   5.706 -1.0876 -1.1372 -0.2098
27406SOL    HW283958   0.999   0.999   5.704 -1.2174 -0.0358  0.7140
27407SOL     OW83959   1.432   5.769   5.317  0.3197 -0.1196  0.8049
27407SOL    HW183960   1.517   5.803   5.289  0.2529 -0.0467  0.6905
27407SOL    HW283961   1.425   5.794   5.409 -0.3084  1.3470  0.3756
27408SOL     OW83962   7.769   0.362   7.140 -0.1014  0.0958  0.4271
27408SOL    HW183963   7.789   0.365   7.047  0.1639  0.0738  0.4809
27408SOL    HW283964   7.675   0.350   7.145  0.0027 -0.9555  0.1469
27409SOL     OW83965   8.929   0.392   5.580 -0.3835 -0.1977  0.5448
27409SOL    HW183966   9.024   0.404   5.584 -0.6970  2.9408  2.3127
27409SOL    HW283967   8.903   0.434   5.498 -0.3173 -0.0093  0.6186
27410SOL     OW83968   0.098   8.698   3.995  0.3138 -0.1848  0.1335
27410SOL    HW183969   0.136   8.612   4.013 -1.6995 -0.7402  2.3420
27410SOL    HW283970   0.053   8.687   3.911  0.1295 -1.2997  0.3557
27411SOL     OW83971   3.188   5.529   1.043  0.5037 -0.2092 -0.5576
27411SOL    HW183972   3.154   5.501   1.128 -3.4359  1.7268 -1.2295
27411SOL    HW283973   3.206   5.622   1.055 -0.2798  0.1307 -1.8142
27412SOL     OW83974   5.870   9.275   0.621 -0.9243 -0.3611 -0.0479
27412SOL    HW183975   5.911   9.236   0.699  1.2141  1.0424 -0.3935
27412SOL    HW283976   5.862   9.202   0.560 -1.2552 -1.1826  0.9455
27413SOL     OW83977   8.113   0.597   8.118 -0.2435 -0.7997 -0.3927
27413SOL    HW183978   8.178   0.527   8.120  1.5504  0.7117  3.0483
27413SOL    HW283979   8.158   0.671   8.078  0.7608  0.5496  2.8577
27414SOL     OW83980   7.740   0.465   5.435 -0.1530  0.3333  0.2757
27414SOL    HW183981   7.711   0.467   5.526 -1.7849 -0.8568 -0.1759
27414SOL    HW283982   7.779   0.378   5.424  0.7041  0.7419  0.0132
27415SOL     OW83983   4.401   7.467   1.312  0.0622  0.6740  0.0575
27415SOL    HW183984   4.438   7.553   1.333 -1.4899  1.4006 -0.1124
27415SOL    HW283985   4.320   7.463   1.361 -0.0643 -0.5637 -0.2222
27416SOL     OW83986   7.593   8.768   2.720  0.0535 -0.0414 -0.3819
27416SOL    HW183987   7.643   8.698   2.677  2.3012  0.9689  0.4485
27416SOL    HW283988   7.527   8.721   2.771  2.3116 -1.7498  1.1910
27417SOL     OW83989   5.999   5.926   9.207  0.1652  0.0298 -0.3617
27417SOL    HW183990   5.949   5.935   9.126 -0.0369  0.9056 -0.1588
27417SOL    HW283991   5.932   5.924   9.276  0.3851  0.8337 -0.1174
27418SOL     OW83992   8.736   6.150   3.585 -0.1048  0.2052  0.0582
27418SOL    HW183993   8.665   6.108   3.633 -2.5817 -2.1036 -4.8839
27418SOL    HW283994   8.701   6.237   3.564 -1.4219 -0.7333 -1.9105
27419SOL     OW83995   6.394   1.556   7.770  0.4178 -0.0825  0.3272
27419SOL    HW183996   6.350   1.627   7.817  0.5683  0.2953 -0.1030
27419SOL    HW283997   6.447   1.600   7.704 -0.5950 -0.6558 -0.8955
27420SOL     OW83998   5.142   4.056   9.151  0.1833  0.4321 -0.2866
27420SOL    HW183999   5.086   4.008   9.090  0.2273 -0.1390  0.1134
27420SOL    HW284000   5.126   4.148   9.131  1.1924  0.2826 -2.0772
27421SOL     OW84001   4.354   6.200   8.940 -0.0182 -0.1075 -0.8051
27421SOL    HW184002   4.399   6.123   8.906  0.4066 -0.2108 -0.0405
27421SOL    HW284003   4.424   6.262   8.960 -0.3801  0.6379 -1.7709
27422SOL     OW84004   5.475   2.629   8.013  0.0377 -0.0665  0.4652
27422SOL    HW184005   5.484   2.597   7.923  1.9893  1.7262 -0.0651
27422SOL    HW284006   5.559   2.607   8.054  0.5262  2.1109  0.7593
27423SOL     OW84007   8.516   8.804   5.202  0.4654  0.3730 -0.3426
27423SOL    HW184008   8.432   8.833   5.166  0.9071  1.1396 -0.7714
27423SOL    HW284009   8.506   8.710   5.213 -0.5427  0.4892 -0.1549
27424SOL     OW84010   2.674   7.108   8.182 -0.0127  0.4915 -0.4436
27424SOL    HW184011   2.616   7.184   8.183 -0.6600  0.0073 -0.6380
27424SOL    HW284012   2.619   7.036   8.213  0.2779 -0.1138 -1.3070
27425SOL     OW84013   7.881   6.725   2.342  0.0474  0.4799 -1.0939
27425SOL    HW184014   7.886   6.816   2.312 -0.9207  0.3336 -1.7264
27425SOL    HW284015   7.788   6.702   2.334  0.2502 -0.5020 -0.7453
27426SOL     OW84016   5.624   6.864   4.352  0.2296  0.1925 -0.2812
27426SOL    HW184017   5.695   6.925   4.371 -0.2350  0.8990 -0.7468
27426SOL    HW284018   5.648   6.824   4.268  0.3313  0.0520 -0.1840
27427SOL     OW84019   0.643   5.384   8.054  0.1305 -0.3882  0.5937
27427SOL    HW184020   0.576   5.352   8.116  0.1559 -1.0128  0.3036
27427SOL    HW284021   0.725   5.375   8.102  0.0174  0.3493  0.9399
27428SOL     OW84022   4.188   9.015   6.527  0.3249  0.3162 -0.9061
27428SOL    HW184023   4.251   9.052   6.589  1.5536  1.9255 -2.9790
27428SOL    HW284024   4.204   8.921   6.530 -0.1051  0.2671  1.6294
27429SOL     OW84025   1.489   5.758   7.532 -0.2138 -0.3578 -0.2805
27429SOL    HW184026   1.547   5.768   7.456  0.5084  1.1103  0.4260
27429SOL    HW284027   1.499   5.839   7.581 -1.8657 -0.6249  0.5822
27430SOL     OW84028   8.003   6.098   2.633 -0.1651  0.3291 -0.0635
27430SOL    HW184029   8.006   6.192   2.616  1.2399  0.4833  0.8756
27430SOL    HW284030   8.078   6.081   2.690  0.7732 -1.6756 -1.7339
27431SOL     OW84031   2.690   1.656   4.906 -0.8076  0.8065  0.7640
27431SOL    HW184032   2.778   1.664   4.943 -0.5358 -0.7130  0.5206
27431SOL    HW284033   2.635   1.632   4.980 -0.6470 -0.1514  0.5875
27432SOL     OW84034   5.996   5.824   8.767  0.5581  0.4812  0.0252
27432SOL    HW184035   6.027   5.739   8.800  0.1324 -0.4283 -1.7403
27432SOL    HW284036   5.962   5.803   8.680 -1.2242  2.1780  0.2721
27433SOL     OW84037   1.864   2.523   4.835 -0.2593 -0.1905  0.1350
27433SOL    HW184038   1.948   2.544   4.794 -1.3344 -0.3103 -2.2767
27433SOL    HW284039   1.882   2.524   4.929  2.1135  1.1481 -0.2641
27434SOL     OW84040   1.953   5.776   2.290  0.1200  0.0517  0.1169
27434SOL    HW184041   1.975   5.828   2.367  0.1531  0.9099 -0.4516
27434SOL    HW284042   2.032   5.778   2.236 -0.2754  0.4720 -0.4710
27435SOL     OW84043   5.276   3.153   4.886  0.0104 -0.1503 -0.5012
27435SOL    HW184044   5.283   3.231   4.941 -2.1933  0.6693 -1.2411
27435SOL    HW284045   5.345   3.163   4.821  0.2181  0.8265 -0.1495
27436SOL     OW84046   5.923   0.370   6.099  0.6946 -0.3935  0.2343
27436SOL    HW184047   5.876   0.364   6.183  0.6621  3.0144  0.6096
27436SOL    HW284048   6.015   0.366   6.122  0.6823  0.4237  0.4738
27437SOL     OW84049   7.258   6.689   4.146 -0.0508  0.3707  0.0545
27437SOL    HW184050   7.246   6.782   4.127  2.7737  0.7790 -0.2695
27437SOL    HW284051   7.285   6.687   4.238 -0.1307 -0.1164  0.0714
27438SOL     OW84052   4.681   6.594   7.152  0.9121  0.2813  0.0091
27438SOL    HW184053   4.750   6.572   7.215  0.7728  1.0742  0.4439
27438SOL    HW284054   4.727   6.638   7.080  1.1578 -1.1443 -0.7531
27439SOL     OW84055   2.610   1.707   8.087  0.3524 -0.5134  0.4721
27439SOL    HW184056   2.636   1.637   8.147  0.4289 -0.6984  0.2259
27439SOL    HW284057   2.648   1.787   8.125 -0.8291 -0.3890  1.4589
27440SOL     OW84058   3.851   9.209   9.485  0.2618 -0.8349  0.3631
27440SOL    HW184059   3.869   9.119   9.508 -0.3703 -1.5927 -1.8318
27440SOL    HW284060   3.771   9.205   9.432  0.2086  1.0115  0.2180
27441SOL     OW84061   5.325   0.279   2.178  0.0197 -0.5352 -0.1978
27441SOL    HW184062   5.410   0.266   2.219 -0.3977  0.2458  0.9696
27441SOL    HW284063   5.323   0.372   2.155 -1.0521 -0.2000  1.1182
27442SOL     OW84064   4.582   9.338   9.366  0.2630  0.1865  0.0792
27442SOL    HW184065   4.574   9.244   9.385 -0.4468  0.3486  0.6185
27442SOL    HW284066   4.502   9.359   9.317  0.1121  0.6476  0.5267
27443SOL     OW84067   3.068   8.910   0.015 -1.0904  0.4649  0.2980
27443SOL    HW184068   3.092   8.983  -0.043  0.2138  0.3988  0.7247
27443SOL    HW284069   3.032   8.953   0.093 -0.8329  0.6470  0.3199
27444SOL     OW84070   8.522   4.414   0.517 -0.7433 -0.3177  0.2075
27444SOL    HW184071   8.605   4.446   0.554 -0.8939  1.5020 -0.9042
27444SOL    HW284072   8.549   4.348   0.453 -0.1543  0.1194 -0.0056
27445SOL     OW84073   4.316   8.749   9.082  0.2140 -0.2616 -0.7878
27445SOL    HW184074   4.373   8.826   9.091  0.6197 -0.5108 -1.2334
27445SOL    HW284075   4.230   8.786   9.064 -0.3372  0.2504  2.2722
27446SOL     OW84076   2.089   5.619   9.563  0.1034 -0.3225 -0.0512
27446SOL    HW184077   2.161   5.570   9.603  0.6986 -0.3185 -1.0779
27446SOL    HW284078   2.071   5.572   9.482 -1.7717 -0.9356  0.6778
27447SOL     OW84079   5.317   6.891   5.396  0.0226 -0.0453  0.4139
27447SOL    HW184080   5.279   6.934   5.320  2.1315  3.4154  1.1198
27447SOL    HW284081   5.396   6.848   5.363 -0.0999 -0.2146  0.3384
27448SOL     OW84082   5.418   3.026   0.931 -0.3923 -0.0298 -0.1094
27448SOL    HW184083   5.486   3.084   0.898  0.4012 -0.2115  1.1782
27448SOL    HW284084   5.356   3.084   0.975 -0.0039 -0.0735  0.4983
27449SOL     OW84085   6.908   8.952   8.447  0.7486 -0.2502  0.1701
27449SOL    HW184086   6.918   8.970   8.354  1.3758 -1.0583  0.0734
27449SOL    HW284087   6.843   8.882   8.452  0.6406 -0.1385  0.3469
27450SOL     OW84088   1.676   2.003   9.348  0.5975  0.0084 -0.3053
27450SOL    HW184089   1.752   1.993   9.406  0.6585  1.0065 -0.1905
27450SOL    HW284090   1.600   1.992   9.406  0.6080 -2.1797 -0.6262
27451SOL     OW84091   8.318   9.250   7.308 -0.2320  0.2139  0.4246
27451SOL    HW184092   8.315   9.343   7.287  0.1398  0.1809  0.2155
27451SOL    HW284093   8.396   9.240   7.363 -1.0052  0.2433  1.5634
27452SOL     OW84094   8.207   6.311   5.911 -0.4787  0.4445  0.0212
27452SOL    HW184095   8.290   6.354   5.933  0.3751 -2.1976  2.6488
27452SOL    HW284096   8.233   6.231   5.866 -1.4399 -1.0775  2.0417
27453SOL     OW84097   5.542   9.411   4.023  0.3832 -0.0414  0.5262
27453SOL    HW184098   5.571   9.321   4.007  1.0788  0.2907 -0.1766
27453SOL    HW284099   5.447   9.407   4.018  0.4623 -0.4233 -1.3824
27454SOL     OW84100   9.100   7.600   6.750 -0.1480 -0.2417  0.1818
27454SOL    HW184101   9.075   7.563   6.665 -0.7902 -1.5435  0.9135
27454SOL    HW284102   9.084   7.529   6.812 -0.4934  0.9850  1.5146
27455SOL     OW84103   7.523   1.353   0.617  0.6280  0.4375 -0.0661
27455SOL    HW184104   7.460   1.415   0.654  0.7899  0.4619  0.1720
27455SOL    HW284105   7.473   1.303   0.553  0.7569  1.5970 -1.1169
27456SOL     OW84106   0.015   0.432   3.973 -0.2054 -0.4747 -0.1189
27456SOL    HW184107   0.102   0.438   3.933  0.5000 -1.1699  1.2637
27456SOL    HW284108  -0.038   0.496   3.925  0.9685 -0.2885 -1.2071
27457SOL     OW84109   1.263   5.906   5.713 -0.0823  0.5809 -0.2265
27457SOL    HW184110   1.338   5.890   5.657 -1.8658  0.1359 -2.6435
27457SOL    HW284111   1.277   5.849   5.789  1.4029 -0.4104 -1.1922
27458SOL     OW84112   2.434   7.476   1.713 -0.3538  0.6875 -0.0135
27458SOL    HW184113   2.496   7.417   1.670 -0.7934 -2.0316  2.6774
27458SOL    HW284114   2.473   7.494   1.798 -1.8810  1.4158  0.5740
27459SOL     OW84115   0.313   7.991   1.524 -0.3376 -0.0416  0.3898
27459SOL    HW184116   0.291   7.961   1.612  0.4422  0.1042  0.6360
27459SOL    HW284117   0.240   7.961   1.470 -0.9483  0.0894  1.1265
27460SOL     OW84118   3.516   3.011   3.624 -0.4877 -0.1239  0.2774
27460SOL    HW184119   3.596   3.027   3.573 -1.0529 -1.4149 -1.1110
27460SOL    HW284120   3.445   3.035   3.564 -1.1927 -2.2835  0.1538
27461SOL     OW84121   4.453   0.583   7.925 -0.2789 -0.6159 -0.5493
27461SOL    HW184122   4.473   0.499   7.965  1.2058 -0.9347 -1.8437
27461SOL    HW284123   4.402   0.562   7.848  0.3618 -0.3707 -1.0495
27462SOL     OW84124   5.842   6.623   3.046  0.2742  0.4325 -0.3438
27462SOL    HW184125   5.869   6.581   3.128  0.0829  2.0919  0.6139
27462SOL    HW284126   5.923   6.628   2.995  0.0652 -2.2456 -1.0906
27463SOL     OW84127   9.057   0.717   4.661  0.0292  0.1991  0.0599
27463SOL    HW184128   9.108   0.724   4.742 -0.8328 -1.0218  0.7497
27463SOL    HW284129   9.067   0.802   4.619  1.4026  0.4888  0.8980
27464SOL     OW84130   8.123   5.986   9.233 -0.0315 -0.1897  0.1614
27464SOL    HW184131   8.120   5.890   9.225 -0.2198 -0.1170 -0.7604
27464SOL    HW284132   8.065   6.005   9.306  0.7017 -0.8381  0.9320
27465SOL     OW84133   6.713   2.437   4.608  0.0233 -0.4903 -0.0009
27465SOL    HW184134   6.641   2.437   4.545 -0.9733  0.0607  1.1009
27465SOL    HW284135   6.694   2.363   4.665  0.1838 -0.1804  0.4515
27466SOL     OW84136   7.857   8.274   9.277  0.2248  0.3213  0.1267
27466SOL    HW184137   7.807   8.192   9.278  1.0104 -0.1680 -0.0498
27466SOL    HW284138   7.948   8.246   9.280  0.5775  1.1208 -1.7936
27467SOL     OW84139   4.837   9.461   3.083  0.1209 -0.1849  1.0880
27467SOL    HW184140   4.757   9.512   3.097 -0.1515 -0.8362  2.0193
27467SOL    HW284141   4.884   9.508   3.014 -1.6310 -0.4414 -0.3620
27468SOL     OW84142   7.702   1.612   0.457 -0.3946 -0.5578 -0.3052
27468SOL    HW184143   7.707   1.707   0.449 -0.4445 -0.5911 -0.7581
27468SOL    HW284144   7.609   1.593   0.466 -0.3838 -0.5646 -0.2021
27469SOL     OW84145   4.568   4.291   9.465  0.1639  0.3514  0.4356
27469SOL    HW184146   4.570   4.241   9.547 -0.0483 -0.1167  0.1556
27469SOL    HW284147   4.636   4.251   9.411 -0.3166  0.0700  0.0381
27470SOL     OW84148   1.221   0.093   4.954 -0.5983  0.2260  0.4829
27470SOL    HW184149   1.263   0.008   4.938  0.1916  0.8512 -1.0141
27470SOL    HW284150   1.143   0.072   5.004 -1.0605 -1.5535 -0.8704
27471SOL     OW84151   6.624   0.619   8.522 -0.4408 -0.3317  0.4891
27471SOL    HW184152   6.637   0.619   8.616  0.3476 -1.1487  0.3921
27471SOL    HW284153   6.652   0.532   8.493 -1.8546 -0.5589 -0.3462
27472SOL     OW84154   4.884   0.968   3.762  0.0926 -0.2731  0.6251
27472SOL    HW184155   4.846   0.901   3.820 -0.4690  0.4180  1.0830
27472SOL    HW284156   4.881   0.929   3.675 -0.2571 -0.8323  0.8785
27473SOL     OW84157   3.895   3.180   0.963  0.0210  0.2232  0.3720
27473SOL    HW184158   3.883   3.093   0.925 -1.9222  0.0035  1.3715
27473SOL    HW284159   3.837   3.237   0.911 -0.0670  0.5660  0.8349
27474SOL     OW84160   1.202   8.485   3.151  0.1582 -0.1082  0.2019
27474SOL    HW184161   1.290   8.450   3.164 -0.2150 -1.3236 -0.3767
27474SOL    HW284162   1.158   8.474   3.235 -0.0170 -1.2501 -0.0292
27475SOL     OW84163   8.069   6.565   3.250  0.6007 -0.4528 -0.6574
27475SOL    HW184164   8.037   6.498   3.310  1.1051 -0.5795 -0.5286
27475SOL    HW284165   8.160   6.578   3.274  0.7609 -0.3785 -1.2801
27476SOL     OW84166   1.235   9.035   8.086 -0.4411 -0.9410  0.2163
27476SOL    HW184167   1.324   9.011   8.061  0.3488 -0.3953  2.2600
27476SOL    HW284168   1.190   9.050   8.004  2.2166  1.8688 -0.9221
27477SOL     OW84169   1.371   3.903   7.496  0.0808 -0.7212  0.5477
27477SOL    HW184170   1.370   3.928   7.589  0.9443  1.6308  0.0107
27477SOL    HW284171   1.429   3.968   7.455 -0.9280 -1.1900 -1.7655
27478SOL     OW84172   3.559   3.536   1.578 -0.3989  0.6590  0.4790
27478SOL    HW184173   3.526   3.512   1.491 -2.3809  0.0911  1.3314
27478SOL    HW284174   3.525   3.624   1.592  0.3369  0.9441  0.4870
27479SOL     OW84175   9.235   8.884   4.395 -0.1660 -0.2924  0.2001
27479SOL    HW184176   9.223   8.808   4.452  0.4798  0.3072  1.1578
27479SOL    HW284177   9.304   8.936   4.437 -1.1593  1.2481  0.0324
27480SOL     OW84178   2.929   1.385   7.081  0.5267  0.3792  0.0171
27480SOL    HW184179   2.924   1.375   7.177 -1.5209  1.5870  0.0973
27480SOL    HW284180   2.915   1.296   7.048  1.7874 -0.1472  0.8303
27481SOL     OW84181   0.018   1.801   4.947 -0.5472  0.1063  0.1875
27481SOL    HW184182   0.050   1.732   4.890 -0.1124  0.6012 -0.1842
27481SOL    HW284183   0.096   1.853   4.968 -0.9133  0.6687  0.1943
27482SOL     OW84184   7.433   7.946   5.120  0.0998 -0.1135  0.1611
27482SOL    HW184185   7.429   7.922   5.212  1.0260 -1.0507 -0.0277
27482SOL    HW284186   7.479   7.873   5.078  1.7336  1.3148 -0.6666
27483SOL     OW84187   0.411   6.824   5.909  0.0228  0.0192 -0.4265
27483SOL    HW184188   0.458   6.808   5.991 -0.4179  1.0656  0.0485
27483SOL    HW284189   0.349   6.752   5.903  1.7824 -1.5164 -1.1767
27484SOL     OW84190   3.633   2.938   5.982 -0.0862  0.4800 -0.0385
27484SOL    HW184191   3.725   2.923   5.958 -0.1225 -0.7396  0.4881
27484SOL    HW284192   3.631   3.027   6.017  0.8636  0.5709 -0.1924
27485SOL     OW84193   1.432   0.159   1.650 -0.5211  0.2718  0.9191
27485SOL    HW184194   1.508   0.131   1.701  0.8363  0.7493 -0.7452
27485SOL    HW284195   1.398   0.077   1.612  0.4986  0.2653 -0.0412
27486SOL     OW84196   0.764   4.361   1.192 -0.2772 -0.1920 -0.6281
27486SOL    HW184197   0.738   4.275   1.159  1.7252 -0.9875 -0.2779
27486SOL    HW284198   0.703   4.379   1.263 -2.2645 -0.1657 -2.2251
27487SOL     OW84199   7.863   7.049   0.363  0.5847  0.3791  0.0596
27487SOL    HW184200   7.772   7.037   0.391  0.8995  0.1019  1.0088
27487SOL    HW284201   7.857   7.108   0.288 -0.3761  0.4080  0.1379
27488SOL     OW84202   4.035   4.058   4.649 -0.3981  0.0858  0.8708
27488SOL    HW184203   3.962   4.118   4.666 -2.5701 -1.8157 -1.0867
27488SOL    HW284204   4.069   4.086   4.564 -1.4567 -1.3450 -0.0826
27489SOL     OW84205   6.907   9.283   7.084 -0.8376 -0.0746 -0.3410
27489SOL    HW184206   6.814   9.302   7.095 -0.4385  1.8599  0.0773
27489SOL    HW284207   6.945   9.366   7.056  0.7945 -0.7784 -0.3197
27490SOL     OW84208   4.977   0.567   3.566  0.1169  0.3978  0.1707
27490SOL    HW184209   4.896   0.542   3.610 -0.5483 -1.3807 -1.8744
27490SOL    HW284210   4.958   0.652   3.526 -0.6923  0.0775 -0.1465
27491SOL     OW84211   9.056   1.308   7.319 -0.5379  0.2763 -0.0207
27491SOL    HW184212   9.047   1.251   7.396 -2.0192  1.5797  0.8388
27491SOL    HW284213   9.128   1.367   7.342 -1.3045  0.9932  0.6433
27492SOL     OW84214   0.364   5.090   1.157  0.0352  0.3067 -0.3043
27492SOL    HW184215   0.333   5.176   1.185  1.9192  0.9932 -0.1947
27492SOL    HW284216   0.302   5.063   1.089 -1.3826  1.0973  0.6059
27493SOL     OW84217   8.609   2.308   0.199 -0.8620 -0.3845  0.2458
27493SOL    HW184218   8.638   2.394   0.228 -1.0000 -0.6077  1.0734
27493SOL    HW284219   8.547   2.326   0.128 -1.5142  0.2376  0.9538
27494SOL     OW84220   9.302   8.622   0.319 -0.3183  0.3313 -0.2809
27494SOL    HW184221   9.273   8.608   0.409  1.4116 -0.8897  0.1584
27494SOL    HW284222   9.223   8.614   0.266 -1.1919 -0.0836  1.0352
27495SOL     OW84223   6.253   2.658   2.182  0.1930  0.0285 -0.5681
27495SOL    HW184224   6.265   2.590   2.117 -0.0099 -0.0589 -0.5152
27495SOL    HW284225   6.329   2.650   2.240 -0.4147 -0.9122  0.1198
27496SOL     OW84226   3.055   3.829   8.673  0.1944  0.0972 -0.0804
27496SOL    HW184227   3.003   3.878   8.737  0.4291  1.4328 -0.8922
27496SOL    HW284228   2.996   3.816   8.599  1.1906  2.3172 -1.3391
27497SOL     OW84229   2.526   6.226   7.278  0.5989  0.2671 -0.1677
27497SOL    HW184230   2.505   6.261   7.192  1.4666 -0.3204 -0.6409
27497SOL    HW284231   2.486   6.139   7.279 -0.1475  0.6098  0.3652
27498SOL     OW84232   4.734   4.052   7.541 -0.3409  0.0511  0.0711
27498SOL    HW184233   4.738   3.999   7.620  0.4618 -0.2384 -0.1473
27498SOL    HW284234   4.826   4.061   7.514 -0.5214  1.0000 -0.2598
27499SOL     OW84235   7.482   3.284   3.564  0.1556 -0.0529 -0.2356
27499SOL    HW184236   7.398   3.248   3.536 -0.5350  1.1975  0.2010
27499SOL    HW284237   7.547   3.226   3.523 -0.9046 -1.4024 -0.0656
27500SOL     OW84238   4.406   0.777   8.116 -0.0600 -0.3020 -0.6361
27500SOL    HW184239   4.325   0.759   8.163  0.1463  1.3747  0.4616
27500SOL    HW284240   4.419   0.701   8.060 -2.2812 -0.6898 -0.7109
27501SOL     OW84241   8.595   9.197   0.250  0.1573  0.1620  0.4543
27501SOL    HW184242   8.593   9.179   0.344 -0.0490  0.8415  0.5871
27501SOL    HW284243   8.581   9.292   0.244 -3.2871 -0.2494 -0.3670
27502SOL     OW84244   0.302   7.447   9.558  0.1807 -0.6687  0.8557
27502SOL    HW184245   0.330   7.461   9.648 -2.4388  0.7348  1.5688
27502SOL    HW284246   0.284   7.353   9.553  3.2371 -1.3487  0.7807
27503SOL     OW84247   5.820   8.376   3.086 -0.7699  0.2550  0.2935
27503SOL    HW184248   5.896   8.404   3.137  0.8974 -0.0667 -1.8706
27503SOL    HW284249   5.824   8.429   3.006 -2.2206 -0.5109 -0.3140
27504SOL     OW84250   6.688   3.455   8.497  0.4102  0.1543 -0.2243
27504SOL    HW184251   6.674   3.520   8.565  0.9555 -0.3025  0.3427
27504SOL    HW284252   6.602   3.415   8.483 -0.0518  1.3818 -0.9984
27505SOL     OW84253   4.412   8.498   9.564  0.9750 -0.5213  0.0647
27505SOL    HW184254   4.344   8.516   9.499 -0.2566 -1.1327  1.1280
27505SOL    HW284255   4.423   8.581   9.611 -0.1461 -0.7876  0.8507
27506SOL     OW84256   7.400   4.735   0.435  0.1779  0.5215  0.4546
27506SOL    HW184257   7.487   4.760   0.465  1.4725 -3.2583  0.3356
27506SOL    HW284258   7.346   4.737   0.513  1.7194 -1.9938  1.7212
27507SOL     OW84259   8.370   2.385   0.085  0.0404 -0.1308  0.3226
27507SOL    HW184260   8.374   2.474   0.121  0.7992 -0.8537  2.1297
27507SOL    HW284261   8.282   2.354   0.108 -0.2179  0.1226 -0.2932
27508SOL     OW84262   4.263   9.366   7.791 -0.0161  0.4106  0.0416
27508SOL    HW184263   4.198   9.357   7.722 -0.3733  0.8982  0.3069
27508SOL    HW284264   4.277   9.277   7.823 -0.2116  0.2472 -0.3251
27509SOL     OW84265   3.153   2.739   2.234  0.2530  0.2057 -0.9916
27509SOL    HW184266   3.062   2.750   2.260  0.4787 -1.6846  0.8756
27509SOL    HW284267   3.151   2.735   2.139 -2.0438 -2.4713 -0.9553
27510SOL     OW84268   5.874   4.257   2.523  0.2177 -0.1289  0.5534
27510SOL    HW184269   5.786   4.241   2.487  0.6976  0.3716 -0.9053
27510SOL    HW284270   5.870   4.347   2.555  0.4664  0.2033 -0.3456
27511SOL     OW84271   7.489   7.576   3.756  0.2548  0.2444  0.0487
27511SOL    HW184272   7.484   7.492   3.802 -1.2742  0.9947  1.3349
27511SOL    HW284273   7.464   7.641   3.821 -0.8542  1.4755 -1.5240
27512SOL     OW84274   1.169   5.507   0.717 -0.0687 -0.6486  0.8721
27512SOL    HW184275   1.211   5.560   0.649 -1.4595  0.6543  0.9656
27512SOL    HW284276   1.121   5.439   0.669  0.6140 -0.9992  0.6772
27513SOL     OW84277   1.373   5.067   8.837  0.3047  0.3094  0.3309
27513SOL    HW184278   1.371   5.141   8.899  1.8904 -0.0570  0.8550
27513SOL    HW284279   1.464   5.038   8.837 -0.2700 -1.6077  0.0623
27514SOL     OW84280   6.823   4.752   0.158 -0.1407 -0.3534 -0.4850
27514SOL    HW184281   6.810   4.663   0.124  0.7070 -1.2832  1.4478
27514SOL    HW284282   6.900   4.744   0.215  0.4520  1.8320 -0.9080
27515SOL     OW84283   6.418   3.209   1.969 -0.0523 -0.2337  0.3375
27515SOL    HW184284   6.412   3.304   1.978 -0.4590 -0.2665  0.4724
27515SOL    HW284285   6.330   3.182   1.941  0.0651 -0.5661  0.2812
27516SOL     OW84286   6.295   3.998   1.206  0.2955 -0.3830  0.4314
27516SOL    HW184287   6.342   4.081   1.205 -0.4901  0.0770 -0.4866
27516SOL    HW284288   6.288   3.973   1.114 -0.7785 -0.6947  0.5763
27517SOL     OW84289   7.846   1.554   2.217  0.2972  0.1385 -0.0044
27517SOL    HW184290   7.915   1.598   2.166 -0.1603 -1.0878 -1.8020
27517SOL    HW284291   7.776   1.619   2.222 -0.5391 -0.3597 -2.9875
27518SOL     OW84292   7.566   3.970   7.784 -0.0825 -0.2806  0.5344
27518SOL    HW184293   7.603   4.027   7.852  0.9414  0.9033 -0.9468
27518SOL    HW284294   7.642   3.926   7.746 -0.4944 -0.1092 -0.5320
27519SOL     OW84295   0.872   5.427   6.547 -0.1767  0.5036  0.2847
27519SOL    HW184296   0.898   5.392   6.632  0.1282  0.4317  0.1633
27519SOL    HW284297   0.946   5.409   6.490 -0.4541  0.3867 -0.0431
27520SOL     OW84298   6.368   6.057   5.843 -0.5085 -0.4657 -0.3656
27520SOL    HW184299   6.403   6.120   5.780  0.5941 -1.2034 -0.5259
27520SOL    HW284300   6.407   5.973   5.817 -0.5723 -0.9094  0.8860
27521SOL     OW84301   8.007   4.891   3.480 -0.2031 -0.1065 -0.1731
27521SOL    HW184302   7.977   4.942   3.555  2.1994  0.4967  0.4768
27521SOL    HW284303   8.079   4.838   3.514 -0.6624 -1.6994 -1.5332
27522SOL     OW84304   1.449   0.573   2.622  0.4247 -0.3892  0.2853
27522SOL    HW184305   1.379   0.635   2.640 -0.9962 -1.3849 -1.4762
27522SOL    HW284306   1.440   0.506   2.690  0.2640 -0.0413  0.6092
27523SOL     OW84307   9.331   7.623   2.734  0.2015 -0.0349 -0.3727
27523SOL    HW184308   9.300   7.533   2.732 -3.9274  1.1527 -1.8116
27523SOL    HW284309   9.297   7.658   2.817 -1.1613  0.9541 -1.3007
27524SOL     OW84310   8.547   7.373   1.148  0.4738 -0.1410  0.0462
27524SOL    HW184311   8.596   7.441   1.102  1.5362 -0.7428  0.2680
27524SOL    HW284312   8.510   7.417   1.224  0.3405  0.4071 -0.3270
27525SOL     OW84313   7.956   4.587   8.129  0.1874 -0.0506 -0.4803
27525SOL    HW184314   7.929   4.679   8.131 -0.1628 -0.0539 -2.6651
27525SOL    HW284315   8.051   4.590   8.128  0.2406  0.1732  1.2618
27526SOL     OW84316   7.398   7.362   8.783 -0.2175  0.0110 -0.2961
27526SOL    HW184317   7.467   7.418   8.820 -1.3976  2.0758 -1.0847
27526SOL    HW284318   7.436   7.274   8.786  2.0775  0.9249  0.1683
27527SOL     OW84319   6.886   1.892   6.214  0.1131  0.2032 -0.2671
27527SOL    HW184320   6.930   1.970   6.180 -0.4948  1.4410  1.6512
27527SOL    HW284321   6.919   1.820   6.159 -0.3266  1.9349 -2.9728
27528SOL     OW84322   6.222   3.654   7.520 -0.1624 -0.0542 -0.3284
27528SOL    HW184323   6.233   3.737   7.567  1.3463 -0.6650  0.4509
27528SOL    HW284324   6.206   3.589   7.589  0.0572 -0.6436 -0.8247
27529SOL     OW84325   1.526   1.272   1.816 -0.0067 -0.2579 -0.1599
27529SOL    HW184326   1.602   1.324   1.790 -0.5986  0.5154 -0.3761
27529SOL    HW284327   1.482   1.325   1.882 -1.0772 -0.1019 -0.9862
27530SOL     OW84328   1.340   9.218   7.778  0.2236 -0.1746 -0.2499
27530SOL    HW184329   1.411   9.256   7.830  1.4885 -2.6728 -0.0281
27530SOL    HW284330   1.357   9.248   7.689  1.0712 -0.0703 -0.0613
27531SOL     OW84331   3.310   4.291   2.237  0.0029  0.3526  0.3016
27531SOL    HW184332   3.376   4.302   2.169  0.7978 -0.3856  0.9387
27531SOL    HW284333   3.285   4.198   2.232 -0.6404  0.5137  0.3811
27532SOL     OW84334   3.336   2.783   0.286  0.6218  0.0328  0.2682
27532SOL    HW184335   3.321   2.785   0.192 -1.6311  3.6088  0.5335
27532SOL    HW284336   3.268   2.725   0.320 -0.3103  0.8931 -0.1134
27533SOL     OW84337   8.107   8.316   1.532 -0.1528  0.7868 -0.0873
27533SOL    HW184338   8.027   8.264   1.540  0.3733  0.1462  1.5021
27533SOL    HW284339   8.148   8.285   1.451  0.4198 -1.7885  1.0628
27534SOL     OW84340   1.248   0.941   1.758 -0.1125  0.4027 -0.2107
27534SOL    HW184341   1.197   0.907   1.832  0.4596  0.6372  0.2983
27534SOL    HW284342   1.223   0.886   1.684 -1.9033  1.1801 -0.2305
27535SOL     OW84343   0.163   2.388   6.501 -0.3923 -1.0449 -0.1028
27535SOL    HW184344   0.169   2.342   6.417 -1.8858  0.2974 -1.0154
27535SOL    HW284345   0.174   2.481   6.478  1.2984 -0.7831  1.5070
27536SOL     OW84346   0.752   1.496   0.330  0.5318  0.4093  0.2186
27536SOL    HW184347   0.809   1.456   0.395  0.2374  0.6550  0.6345
27536SOL    HW284348   0.699   1.558   0.380  0.0953  0.3822 -0.2054
27537SOL     OW84349   7.884   8.040   6.134  0.0138 -0.2022  0.3401
27537SOL    HW184350   7.934   7.960   6.119  0.7235  0.1460  0.7794
27537SOL    HW284351   7.929   8.107   6.082 -1.2008 -0.2817 -0.8871
27538SOL     OW84352   0.227   1.097   3.724 -0.5760 -0.3740  0.4820
27538SOL    HW184353   0.240   1.010   3.687 -0.1408  0.0056 -0.2828
27538SOL    HW284354   0.133   1.104   3.738 -0.8404 -0.2977 -1.1711
27539SOL     OW84355   8.631   2.591   6.877 -0.8711 -0.0696  0.4484
27539SOL    HW184356   8.626   2.623   6.967  0.8689  0.0839  0.5280
27539SOL    HW284357   8.551   2.623   6.835 -1.4867  0.2324  1.8151
27540SOL     OW84358   4.822   5.911   1.764 -0.0932  0.3675 -0.3529
27540SOL    HW184359   4.758   5.870   1.822  0.8753  0.3200  0.7165
27540SOL    HW284360   4.888   5.844   1.749  0.6709  1.0094  0.0849
27541SOL     OW84361   4.738   7.426   8.548  0.4540  0.5780  0.0572
27541SOL    HW184362   4.760   7.351   8.604  2.1075  0.4665 -0.6712
27541SOL    HW284363   4.818   7.443   8.499 -0.0955  2.4394 -0.2604
27542SOL     OW84364   5.735   9.573   5.012  0.1910  0.3263 -0.0378
27542SOL    HW184365   5.661   9.631   5.027  1.9010  2.9312 -0.9499
27542SOL    HW284366   5.711   9.523   4.934 -1.3846 -0.3359  0.8398
27543SOL     OW84367   1.997   7.834   8.388  0.2110  0.9566 -0.0506
27543SOL    HW184368   1.957   7.860   8.471  1.9633  0.8434  0.8689
27543SOL    HW284369   2.049   7.757   8.409  0.9373  1.1057 -1.1930
27544SOL     OW84370   4.627   3.149   5.180  0.8702 -0.0410 -0.2175
27544SOL    HW184371   4.551   3.187   5.223 -0.3079 -2.1090 -0.3169
27544SOL    HW284372   4.632   3.193   5.095 -1.3231 -1.0564 -0.9364
27545SOL     OW84373   4.067   7.816   5.939 -0.0226  0.3325 -0.1560
27545SOL    HW184374   3.986   7.769   5.920  1.2220 -1.3204 -1.6874
27545SOL    HW284375   4.073   7.816   6.035 -2.1244  1.1193  0.0368
27546SOL     OW84376   3.501   8.390   3.162 -0.0237 -0.2109 -0.1254
27546SOL    HW184377   3.573   8.430   3.210 -0.7831  1.5268 -0.3874
27546SOL    HW284378   3.423   8.408   3.215 -0.4789 -0.8375 -0.5567
27547SOL     OW84379   9.571   8.165   8.275 -0.2804  0.0497  0.4836
27547SOL    HW184380   9.556   8.190   8.366  0.1015 -1.2248  0.9068
27547SOL    HW284381   9.534   8.238   8.225  1.1684  1.6825  1.6640
27548SOL     OW84382   8.383   2.467   7.697 -0.8591  0.3142 -0.1227
27548SOL    HW184383   8.447   2.399   7.676 -1.3903  0.2719 -1.7776
27548SOL    HW284384   8.317   2.422   7.750 -0.8432 -0.2900 -0.6074
27549SOL     OW84385   9.291   8.794   0.986 -0.2236  0.1090 -0.1623
27549SOL    HW184386   9.212   8.795   1.041 -0.5988 -1.3161 -0.6312
27549SOL    HW284387   9.349   8.731   1.029  1.0082  1.6783  0.5870
27550SOL     OW84388   5.771   3.469   4.273  0.5092  0.6019 -0.0238
27550SOL    HW184389   5.863   3.490   4.286  0.6501 -0.3221  0.5667
27550SOL    HW284390   5.725   3.552   4.288  1.3671  1.6330 -2.5281
27551SOL     OW84391   2.163   4.746   8.269 -0.1400 -0.2938 -0.0319
27551SOL    HW184392   2.092   4.811   8.274  0.6589  0.7192 -1.3055
27551SOL    HW284393   2.188   4.732   8.361  0.4052  2.0793  0.2497
27552SOL     OW84394   4.293   0.234   6.869 -0.5534 -0.3470 -0.0577
27552SOL    HW184395   4.356   0.164   6.882  2.5626  2.4200  1.3666
27552SOL    HW284396   4.288   0.245   6.774 -0.0634 -1.6018 -0.2437
27553SOL     OW84397   0.154   0.658   1.400  0.0743 -0.2332  0.0838
27553SOL    HW184398   0.064   0.630   1.386  0.0919 -0.7396  0.9125
27553SOL    HW284399   0.205   0.577   1.398  0.1895 -0.2633  1.9757
27554SOL     OW84400   2.120   1.062   0.933  0.4725 -0.3283 -0.1647
27554SOL    HW184401   2.181   0.989   0.921  1.2733  0.0027  1.5718
27554SOL    HW284402   2.097   1.089   0.844  1.0728 -1.9293 -0.8432
27555SOL     OW84403   2.778   3.905   2.277 -0.1905  0.1913  0.2634
27555SOL    HW184404   2.729   3.986   2.271  0.2745  0.4220 -0.5375
27555SOL    HW284405   2.865   3.932   2.307  0.0473  0.0238 -0.2730
27556SOL     OW84406   4.224   6.540   5.350 -0.4530 -0.3296  0.3214
27556SOL    HW184407   4.272   6.456   5.352  1.2247  0.5724  0.1400
27556SOL    HW284408   4.147   6.524   5.405  0.2542 -1.7567  0.9762
27557SOL     OW84409   3.431   7.975   8.151 -0.2050  0.3309  0.2846
27557SOL    HW184410   3.469   7.900   8.197  0.7694  0.1718 -0.7422
27557SOL    HW284411   3.503   8.037   8.142 -0.7373  0.9454  0.1876
27558SOL     OW84412   0.999   4.150   1.162 -0.4807 -0.1435 -0.1452
27558SOL    HW184413   0.981   4.207   1.088  0.8924  0.4525 -0.0463
27558SOL    HW284414   0.996   4.207   1.238  1.3856 -0.0502 -0.0904
27559SOL     OW84415   0.123   1.827   9.421  0.0413 -0.4722 -0.3911
27559SOL    HW184416   0.185   1.899   9.408 -3.0695  2.4704 -0.2367
27559SOL    HW284417   0.096   1.835   9.512 -1.3409 -0.9613 -0.7367
27560SOL     OW84418   7.035   8.523   4.039 -0.0479 -0.1763 -0.4243
27560SOL    HW184419   6.978   8.453   4.070  0.6943 -0.3350  0.6458
27560SOL    HW284420   7.122   8.483   4.034  0.3244  0.5751 -0.1406
27561SOL     OW84421   3.241   9.592   7.975 -0.3987 -0.2704  0.6897
27561SOL    HW184422   3.148   9.610   7.991 -0.4349 -0.4871  0.7251
27561SOL    HW284423   3.267   9.534   8.046 -0.4780 -0.9795  0.1504
27562SOL     OW84424   9.292   4.449   5.523  0.7672 -0.9909 -0.6635
27562SOL    HW184425   9.198   4.460   5.512  0.4656 -3.4265 -1.2460
27562SOL    HW284426   9.327   4.448   5.434  1.1931 -1.0472 -0.5012
27563SOL     OW84427   3.125   8.260   1.200  0.0472  0.1237 -0.3809
27563SOL    HW184428   3.061   8.322   1.165 -0.2556  0.1372  0.1843
27563SOL    HW284429   3.153   8.209   1.124 -1.9213 -1.0491 -0.3895
27564SOL     OW84430   5.642   0.699   1.342  0.2252 -0.0109  0.6688
27564SOL    HW184431   5.641   0.780   1.290  0.3990 -0.4547 -0.0314
27564SOL    HW284432   5.669   0.728   1.430  1.5562  0.5182  0.1130
27565SOL     OW84433   0.178   6.437   3.267  0.1461  0.0359  0.0603
27565SOL    HW184434   0.170   6.485   3.185 -1.7120  1.4060  0.9578
27565SOL    HW284435   0.106   6.374   3.266  0.5842 -0.4805  0.3117
27566SOL     OW84436   6.639   6.447   4.118  0.4694 -0.1320  0.3862
27566SOL    HW184437   6.728   6.429   4.148  0.7726 -1.8387 -1.3303
27566SOL    HW284438   6.649   6.526   4.063  0.9444 -0.3286  0.1798
27567SOL     OW84439   3.751   8.435   2.661  0.1919 -0.6199  0.0183
27567SOL    HW184440   3.668   8.482   2.654  0.9336  0.6720 -0.3730
27567SOL    HW284441   3.752   8.378   2.584  0.1750  0.2016 -0.6038
27568SOL     OW84442   7.600   8.461   4.097 -0.1695 -0.0896 -0.1481
27568SOL    HW184443   7.544   8.538   4.090  2.0592  1.5479 -1.0763
27568SOL    HW284444   7.542   8.387   4.078 -1.6354  1.6421 -3.1505
27569SOL     OW84445   5.763   8.816   5.199  0.1114 -0.1820  0.4213
27569SOL    HW184446   5.857   8.814   5.182  0.2924 -2.0799  1.3266
27569SOL    HW284447   5.723   8.812   5.112  0.8857 -0.3532  0.0615
27570SOL     OW84448   8.170   2.373   5.152 -0.7691 -0.6747 -0.5372
27570SOL    HW184449   8.241   2.330   5.201  0.3049 -0.4604 -1.8584
27570SOL    HW284450   8.145   2.447   5.207  2.8941  1.7591 -1.7958
27571SOL     OW84451   0.902   8.731   4.626  0.1685  0.2892 -0.5046
27571SOL    HW184452   0.991   8.739   4.661 -0.3215  2.4808  0.4204
27571SOL    HW284453   0.848   8.717   4.704 -0.2396 -2.5467 -1.1738
27572SOL     OW84454   6.244   6.300   0.738 -0.0670 -0.0381  0.3621
27572SOL    HW184455   6.226   6.389   0.708 -1.4533 -0.5308 -0.3538
27572SOL    HW284456   6.219   6.300   0.830 -2.2879 -0.2580 -0.2023
27573SOL     OW84457   2.000   0.911   8.989  0.4019 -0.0875  0.1988
27573SOL    HW184458   2.022   0.979   8.925  2.2085 -1.6956 -0.9964
27573SOL    HW284459   1.913   0.882   8.964 -1.0831  2.7175  1.6577
27574SOL     OW84460   0.083   0.514   4.750  0.0824 -0.1362  0.0623
27574SOL    HW184461   0.046   0.461   4.680 -0.9498 -1.8929  1.8347
27574SOL    HW284462   0.007   0.557   4.791  0.6613  0.8587  0.1315
27575SOL     OW84463   1.476   3.439   3.789  0.1975 -0.3012  0.3946
27575SOL    HW184464   1.450   3.517   3.740 -0.0720 -2.1297 -2.6699
27575SOL    HW284465   1.396   3.410   3.832 -0.2713 -0.0900 -0.3062
27576SOL     OW84466   2.042   6.236   7.228 -0.5234  0.2282  0.2485
27576SOL    HW184467   2.116   6.222   7.286  1.3413  1.2788 -1.7277
27576SOL    HW284468   2.038   6.330   7.214 -0.6862  0.0013 -1.5355
27577SOL     OW84469   3.471   2.027   1.993 -0.0385 -0.0610 -0.3784
27577SOL    HW184470   3.417   1.958   1.953 -1.0846  2.0195 -2.9167
27577SOL    HW284471   3.426   2.108   1.970  2.3700  1.6241  0.4353
27578SOL     OW84472   1.578   0.458   0.667 -0.2099 -0.0630 -0.0614
27578SOL    HW184473   1.566   0.373   0.623 -1.9890  0.6100 -0.9603
27578SOL    HW284474   1.665   0.487   0.639 -0.1011 -1.0145 -0.7543
27579SOL     OW84475   7.600   6.177   3.019  0.2722  0.0965  0.2413
27579SOL    HW184476   7.562   6.223   2.944  0.5719  0.7712  0.4911
27579SOL    HW284477   7.695   6.185   3.006  0.3922  2.6178  2.0737
27580SOL     OW84478   8.885   8.731   5.061 -0.3946 -0.0619  0.0046
27580SOL    HW184479   8.825   8.751   4.989  0.5786 -2.5800 -1.6601
27580SOL    HW284480   8.972   8.735   5.021  0.4780  1.4944  1.8672
27581SOL     OW84481   7.383   1.295   6.305 -0.0707  0.1679 -0.4489
27581SOL    HW184482   7.344   1.220   6.350 -0.4505  0.3686 -0.4400
27581SOL    HW284483   7.476   1.291   6.328  0.1551 -1.0456 -1.5053
27582SOL     OW84484   5.064   7.069   1.029 -0.3347 -0.8570  0.1162
27582SOL    HW184485   4.996   7.022   0.980 -0.0722 -0.6782 -0.4308
27582SOL    HW284486   5.017   7.137   1.077 -0.4696 -0.1843 -0.9249
27583SOL     OW84487   9.370   7.703   6.695  0.0157 -0.1612 -0.0679
27583SOL    HW184488   9.280   7.674   6.713 -0.0275 -0.0233 -0.0590
27583SOL    HW284489   9.423   7.623   6.701 -0.0272 -0.1544  0.4661
27584SOL     OW84490   0.843   2.258   3.126 -0.4328  0.0660 -0.2955
27584SOL    HW184491   0.802   2.276   3.211 -0.8004  1.2102 -0.7014
27584SOL    HW284492   0.779   2.205   3.079 -0.1719 -0.6846  0.1876
27585SOL     OW84493   9.230   9.114   1.140 -0.0198  0.1093 -0.1616
27585SOL    HW184494   9.254   9.088   1.051  0.2443  0.2552 -0.1336
27585SOL    HW284495   9.147   9.068   1.157  0.7244 -1.1828  0.0953
27586SOL     OW84496   7.420   9.403   9.001  0.6807 -0.1790  0.3264
27586SOL    HW184497   7.357   9.387   9.071  0.8900 -1.2201  0.2975
27586SOL    HW284498   7.506   9.398   9.043  0.8167 -1.0218 -0.0185
27587SOL     OW84499   3.950   5.214   5.399  0.1352  0.0217  0.2359
27587SOL    HW184500   3.945   5.155   5.474 -0.0886  0.1851  0.3489
27587SOL    HW284501   3.860   5.242   5.384  0.2039  0.1255  0.0139
27588SOL     OW84502   0.104   2.970   5.495 -0.3984  0.3752 -0.4454
27588SOL    HW184503   0.062   2.888   5.520 -0.5254  0.4139 -0.5287
27588SOL    HW284504   0.153   2.948   5.415  0.5115  0.1020  0.1741
27589SOL     OW84505   6.631   1.784   1.006 -0.7292 -0.7328 -0.1248
27589SOL    HW184506   6.581   1.703   0.993  0.7332 -1.7372  0.3418
27589SOL    HW284507   6.714   1.756   1.043 -0.1862  1.0002  0.0633
27590SOL     OW84508   8.826   3.660   4.897 -0.3661  0.1864 -0.1645
27590SOL    HW184509   8.908   3.676   4.944  1.0720 -1.3278 -1.9926
27590SOL    HW284510   8.764   3.635   4.965  1.5246 -1.5901  1.0292
27591SOL     OW84511   2.132   3.317   5.189 -0.3458 -0.5058  0.6741
27591SOL    HW184512   2.158   3.269   5.111 -1.5926 -1.7247  0.9660
27591SOL    HW284513   2.132   3.409   5.162 -0.5239 -0.8871 -0.6845
27592SOL     OW84514   3.887   9.551   3.830 -0.0574 -0.5081 -0.2028
27592SOL    HW184515   3.835   9.629   3.850 -0.9357 -0.6965 -1.6173
27592SOL    HW284516   3.976   9.574   3.856 -0.5610  0.4322  0.7321
27593SOL     OW84517   5.309   7.072   6.339  0.2865  0.3882 -0.6410
27593SOL    HW184518   5.291   6.981   6.317  0.1736  0.4563 -0.8357
27593SOL    HW284519   5.404   7.079   6.336  0.3691  0.0045  0.4784
27594SOL     OW84520   5.828   9.234   5.670 -0.5224 -0.0916  0.4847
27594SOL    HW184521   5.831   9.329   5.657  0.4289 -0.0100  1.2160
27594SOL    HW284522   5.889   9.217   5.742 -0.1211 -1.3339 -0.1126
27595SOL     OW84523   5.889   2.954   4.746  0.1529 -0.2285 -0.2386
27595SOL    HW184524   5.797   2.956   4.773 -0.1378 -0.1490 -1.2051
27595SOL    HW284525   5.886   2.960   4.651  1.1258 -1.1699 -0.3452
27596SOL     OW84526   6.229   2.327   8.908  0.6760 -0.1098  0.0162
27596SOL    HW184527   6.229   2.261   8.838 -0.8399 -1.0205  0.8184
27596SOL    HW284528   6.214   2.277   8.988 -1.0393  1.2494  0.5900
27597SOL     OW84529   3.903   3.766   8.224 -0.2205 -0.0217 -0.7999
27597SOL    HW184530   3.841   3.698   8.198 -1.5609  0.7697  0.2023
27597SOL    HW284531   3.850   3.845   8.231  0.5500  0.3585  1.7255
27598SOL     OW84532   0.793   6.939   8.500  0.3188 -0.4403 -0.2985
27598SOL    HW184533   0.806   6.881   8.575 -1.4899  0.3627  0.7090
27598SOL    HW284534   0.829   6.891   8.426  1.2940 -1.6804  0.9272
27599SOL     OW84535   7.072   6.354   3.945  0.1677 -0.5110 -0.0725
27599SOL    HW184536   6.986   6.345   3.985 -0.3854  0.8597 -0.8575
27599SOL    HW284537   7.056   6.344   3.851  0.7328  0.4330 -0.2852
27600SOL     OW84538   9.093   3.879   3.941 -0.1159 -0.3521  0.4055
27600SOL    HW184539   9.178   3.872   3.985  1.5837 -1.8585 -2.7835
27600SOL    HW284540   9.057   3.791   3.944 -0.3809 -0.2783 -0.4179
27601SOL     OW84541   7.780   8.569   1.515 -0.0818 -0.3952  0.2585
27601SOL    HW184542   7.832   8.536   1.588  0.6399  0.1015 -0.0238
27601SOL    HW284543   7.839   8.566   1.440 -0.8827 -1.1094 -0.3695
27602SOL     OW84544   2.365   9.278   3.339  0.2513 -0.1055 -0.0220
27602SOL    HW184545   2.402   9.358   3.302 -0.7914 -0.4165 -1.8520
27602SOL    HW284546   2.279   9.269   3.297 -0.1018 -1.6160  0.9399
27603SOL     OW84547   9.031   7.496   6.510 -0.9413 -0.0637 -0.0250
27603SOL    HW184548   8.945   7.503   6.468 -0.9715 -0.5438 -0.0393
27603SOL    HW284549   9.038   7.405   6.537 -0.4737 -0.0025  0.0696
27604SOL     OW84550   0.197   4.037   6.508  0.2005 -0.2319 -0.0939
27604SOL    HW184551   0.216   4.018   6.600 -2.0483 -0.6103  0.3533
27604SOL    HW284552   0.217   3.956   6.462  1.4344 -0.0108  0.0096
27605SOL     OW84553   9.162   0.970   4.584  0.3092 -0.0856 -0.5609
27605SOL    HW184554   9.208   0.918   4.518  0.2838  1.2409 -1.6707
27605SOL    HW284555   9.231   1.001   4.642  0.4069 -0.7895 -0.2959
27606SOL     OW84556   3.032   2.796   4.325 -0.7087 -1.2629 -0.1128
27606SOL    HW184557   3.048   2.859   4.255 -0.1839 -0.1383  0.9643
27606SOL    HW284558   3.119   2.762   4.347 -0.8128 -1.3017  0.2565
27607SOL     OW84559   4.023   0.388   8.251  0.2894 -0.2698  0.3340
27607SOL    HW184560   4.033   0.480   8.226  0.6047  0.1258  1.7785
27607SOL    HW284561   4.112   0.352   8.246  0.4119 -0.1001  1.1429
27608SOL     OW84562   6.237   2.518   1.097  0.2057 -0.0172  0.1985
27608SOL    HW184563   6.257   2.443   1.152 -1.4976  1.2076  2.6908
27608SOL    HW284564   6.156   2.493   1.052  0.4391 -0.2004 -0.1284
27609SOL     OW84565   2.012   5.501   1.637  0.6097  0.5124  0.4759
27609SOL    HW184566   2.040   5.477   1.725 -0.9438  1.6519  1.3399
27609SOL    HW284567   2.015   5.596   1.636  0.0604  0.5337 -0.5117
27610SOL     OW84568   3.510   3.012   2.569  0.4370  0.4898  0.0972
27610SOL    HW184569   3.461   2.929   2.566  0.2776  0.6000 -2.5942
27610SOL    HW284570   3.578   2.997   2.635  1.2359 -2.3047 -1.1943
27611SOL     OW84571   5.878   0.103   0.276  0.3376  0.1342 -0.1617
27611SOL    HW184572   5.970   0.128   0.282 -0.0124  1.1608  2.1032
27611SOL    HW284573   5.878   0.008   0.289  1.1441 -0.0339 -1.2965
27612SOL     OW84574   6.054   7.476   0.040  0.3166  0.7316  0.3061
27612SOL    HW184575   5.961   7.486   0.060  0.1198 -0.3394 -0.0236
27612SOL    HW284576   6.098   7.487   0.124 -0.0720  1.6036  0.4041
27613SOL     OW84577   1.706   8.884   6.916  0.0188  0.4263 -0.0267
27613SOL    HW184578   1.747   8.865   6.831 -1.7289 -1.5289 -0.5148
27613SOL    HW284579   1.712   8.979   6.924  0.8826  0.6021 -1.9913
27614SOL     OW84580   1.598   0.314   6.373  0.2936 -0.2704 -0.1976
27614SOL    HW184581   1.541   0.351   6.305  0.9970 -0.1268 -0.7261
27614SOL    HW284582   1.678   0.368   6.369 -0.4414  1.1268  2.2045
27615SOL     OW84583   5.980   5.604   2.249 -0.3506 -0.0107 -0.3760
27615SOL    HW184584   6.006   5.539   2.314 -2.0868 -0.4948 -0.1294
27615SOL    HW284585   6.014   5.570   2.166 -2.4079 -2.0218 -0.4840
27616SOL     OW84586   5.926   1.508   0.969  0.0317  0.3062 -0.0953
27616SOL    HW184587   5.925   1.416   0.941 -1.7556 -0.0741  1.0891
27616SOL    HW284588   5.967   1.506   1.055 -0.7184  0.5034  0.2684
27617SOL     OW84589   4.928   0.830   4.230  0.2267 -0.2709  0.4322
27617SOL    HW184590   4.838   0.836   4.263 -0.4720 -1.5243 -1.1188
27617SOL    HW284591   4.972   0.772   4.292  0.0636  0.5530  1.3453
27618SOL     OW84592   8.558   0.028   9.168  0.1454  0.4315 -0.3312
27618SOL    HW184593   8.528  -0.063   9.177 -1.4770  0.9505 -0.0634
27618SOL    HW284594   8.612   0.043   9.245  0.7008 -0.3922 -0.5436
27619SOL     OW84595   1.458   4.699   0.553 -0.3371  0.9481  0.5109
27619SOL    HW184596   1.397   4.632   0.583  0.0275 -0.8924 -2.4650
27619SOL    HW284597   1.402   4.773   0.528 -1.1470  0.2047  0.0822
27620SOL     OW84598   4.097   3.883   9.243  0.1558  0.9482  0.4128
27620SOL    HW184599   4.044   3.960   9.223 -1.8866 -0.1704  1.1609
27620SOL    HW284600   4.035   3.809   9.238  1.7850 -0.5139  0.7742
27621SOL     OW84601   2.518   3.171   4.866  0.1950 -0.1867  0.1396
27621SOL    HW184602   2.480   3.177   4.954  1.7426 -0.3436  0.8550
27621SOL    HW284603   2.607   3.139   4.881  0.3735 -0.5399 -1.5258
27622SOL     OW84604   6.345   3.122   1.528  0.6908  0.0059  0.3564
27622SOL    HW184605   6.346   3.193   1.592 -0.4809  0.0455  0.3606
27622SOL    HW284606   6.361   3.165   1.444 -1.6333  0.5868  0.1305
27623SOL     OW84607   1.697   2.185   2.341  0.1976  0.4627  0.1954
27623SOL    HW184608   1.667   2.275   2.359 -3.9965 -0.9506  1.3755
27623SOL    HW284609   1.702   2.180   2.246  1.1171  2.0795  0.1189
27624SOL     OW84610   3.051   5.263   6.904  0.4829  0.1330  0.0026
27624SOL    HW184611   2.956   5.268   6.892  0.3963  1.6203  1.0735
27624SOL    HW284612   3.067   5.308   6.987  2.0922 -0.4826  0.0600
27625SOL     OW84613   7.125   1.581   6.304 -0.5152  0.2179 -0.5488
27625SOL    HW184614   7.174   1.663   6.300  0.4659 -0.1763  1.6727
27625SOL    HW284615   7.169   1.523   6.242 -0.0566  0.8015 -0.7744
27626SOL     OW84616   9.454   4.915   8.013  0.3571 -0.0161 -0.5188
27626SOL    HW184617   9.466   4.824   7.986 -0.5588 -0.4668  0.5157
27626SOL    HW284618   9.391   4.951   7.951  0.7052 -0.0790 -0.9157
27627SOL     OW84619   0.712   8.109   8.709  0.5638  0.4536 -0.3867
27627SOL    HW184620   0.628   8.149   8.687 -0.1051 -1.9423 -2.6625
27627SOL    HW284621   0.766   8.123   8.632  1.6348  0.2942  0.3151
27628SOL     OW84622   1.797   3.845   3.510  0.0085  0.1197 -0.2035
27628SOL    HW184623   1.861   3.796   3.561  1.4883  3.0118  0.9146
27628SOL    HW284624   1.849   3.887   3.441 -1.0866  0.6852 -0.7033
27629SOL     OW84625   7.010   5.172   1.206  0.5565  0.0827 -0.4421
27629SOL    HW184626   6.930   5.174   1.259 -0.2975 -1.9463 -1.5306
27629SOL    HW284627   6.987   5.117   1.131  3.1009 -0.8678 -0.6158
27630SOL     OW84628   8.481   9.572   3.607  0.0715 -0.2728 -0.1254
27630SOL    HW184629   8.540   9.587   3.680  0.4111 -0.2285 -0.4082
27630SOL    HW284630   8.425   9.499   3.635 -0.8574  0.7552  0.8122
27631SOL     OW84631   9.395   6.488   8.653  0.0235 -0.1845  0.0679
27631SOL    HW184632   9.301   6.502   8.649 -0.0160 -0.4053  0.2034
27631SOL    HW284633   9.405   6.394   8.662  0.2621 -0.1740 -0.0769
27632SOL     OW84634   8.918   9.158   0.542  0.1142  0.4022 -0.1301
27632SOL    HW184635   8.865   9.082   0.563  0.8668  0.6792  3.3440
27632SOL    HW284636   8.856   9.222   0.507 -0.8189 -1.1207 -1.3750
27633SOL     OW84637   1.929   2.717   3.763  0.3817 -0.0558 -0.0025
27633SOL    HW184638   1.861   2.772   3.802  0.0946  0.5755 -1.3383
27633SOL    HW284639   2.011   2.749   3.802  0.1670  0.9821 -0.3818
27634SOL     OW84640   5.445   8.738   9.521  0.2549  0.4826  0.1260
27634SOL    HW184641   5.427   8.663   9.464 -2.0162 -0.7532  2.2331
27634SOL    HW284642   5.494   8.699   9.595 -1.5202  0.8423  1.5667
27635SOL     OW84643   2.327   3.972   1.903  0.1860 -0.0668  0.6236
27635SOL    HW184644   2.391   3.901   1.906 -0.1787 -0.3667  2.3424
27635SOL    HW284645   2.248   3.935   1.943  0.5305  1.7550  3.2546
27636SOL     OW84646   0.182   4.664   1.436  0.4901 -0.0470  0.0899
27636SOL    HW184647   0.270   4.687   1.466  0.5624 -0.4527  0.1979
27636SOL    HW284648   0.148   4.745   1.398  0.3909  0.4862  1.2793
27637SOL     OW84649   5.406   2.649   4.389  0.4005  0.3003  0.7020
27637SOL    HW184650   5.348   2.717   4.422 -1.1943 -2.0918  3.2721
27637SOL    HW284651   5.366   2.620   4.307 -1.8027 -0.8289  2.0879
27638SOL     OW84652   2.618   2.618   1.290  0.3303  0.1108  0.1634
27638SOL    HW184653   2.565   2.545   1.260 -1.7122  2.3919 -2.2163
27638SOL    HW284654   2.702   2.607   1.246  0.6290 -1.5337  1.0506
27639SOL     OW84655   0.959   5.312   8.956 -0.4089  0.4071 -0.1718
27639SOL    HW184656   0.880   5.356   8.989 -0.8395 -0.2735 -0.2851
27639SOL    HW284657   0.937   5.219   8.958  0.4606  0.1994 -0.0327
27640SOL     OW84658   0.109   0.242   4.971  0.0515 -0.1156 -0.4832
27640SOL    HW184659   0.021   0.271   4.946 -0.0716  0.8572  0.9612
27640SOL    HW284660   0.141   0.310   5.030  0.5933 -1.8791  1.3796
27641SOL     OW84661   4.698   2.353   9.040 -0.2503 -0.4641 -0.6648
27641SOL    HW184662   4.617   2.388   9.004 -0.0197 -0.3951 -1.1218
27641SOL    HW284663   4.766   2.414   9.010 -0.4104  1.5147  2.5624
27642SOL     OW84664   9.248   4.091   5.864 -0.2126 -0.5173  0.6670
27642SOL    HW184665   9.208   4.064   5.782  1.0076 -1.7313  0.4568
27642SOL    HW284666   9.239   4.187   5.864 -4.1958 -0.7055  1.2110
27643SOL     OW84667   5.394   3.536   3.354 -0.1890 -0.4222  0.4214
27643SOL    HW184668   5.319   3.539   3.414 -0.3634  0.4668  0.1743
27643SOL    HW284669   5.454   3.473   3.394 -0.9333 -0.9197  0.7794
27644SOL     OW84670   0.875   4.205   0.092  0.4236  0.5951 -0.0037
27644SOL    HW184671   0.940   4.260   0.135 -1.1741  3.1938 -0.6735
27644SOL    HW284672   0.908   4.196   0.002  1.3756 -0.8013  0.4508
27645SOL     OW84673   1.942   8.617   8.528 -0.0016 -0.5385  0.2508
27645SOL    HW184674   1.880   8.614   8.455  0.4057  3.5269 -0.4982
27645SOL    HW284675   2.028   8.620   8.487  0.2579  1.3229  0.8519
27646SOL     OW84676   6.224   4.689   1.567  0.5325 -0.6300  0.9715
27646SOL    HW184677   6.237   4.633   1.644 -2.1454  0.5842  2.4598
27646SOL    HW284678   6.132   4.676   1.544  0.6367  0.9345 -0.4763
27647SOL     OW84679   0.086   8.699   8.701 -0.6429  0.0151 -0.3078
27647SOL    HW184680   0.076   8.782   8.654 -2.0507  0.3797  0.5705
27647SOL    HW284681   0.024   8.705   8.774  0.4279 -1.1281  0.7516
27648SOL     OW84682   4.340   6.988   8.398  0.3797 -0.0579  0.2005
27648SOL    HW184683   4.363   6.904   8.437  0.2240  0.0107  0.4373
27648SOL    HW284684   4.323   6.967   8.306 -0.8819 -0.4965  0.5206
27649SOL     OW84685   4.134   2.578   7.664  0.3375  0.1234 -0.4870
27649SOL    HW184686   4.162   2.602   7.576  0.7737 -0.2223 -0.4498
27649SOL    HW284687   4.059   2.634   7.682  0.5140  0.5027 -0.9115
27650SOL     OW84688   3.603   8.548   9.357 -0.2331  0.0155  0.2338
27650SOL    HW184689   3.520   8.518   9.394 -0.1842 -0.1220  0.2354
27650SOL    HW284690   3.631   8.475   9.301  0.0724 -0.0932  0.5255
27651SOL     OW84691   5.290   8.163   5.008 -0.0270  0.1522  0.1561
27651SOL    HW184692   5.276   8.252   5.040 -0.9614 -0.1976  0.7971
27651SOL    HW284693   5.261   8.165   4.917  0.7082  0.6792 -0.0766
27652SOL     OW84694   3.329   8.582   5.205  0.0214  0.6911 -0.3229
27652SOL    HW184695   3.399   8.550   5.262 -0.0022  1.8230  0.3532
27652SOL    HW284696   3.293   8.502   5.166  2.5687  0.1241 -1.7870
27653SOL     OW84697   5.082   3.550   4.802  0.5381  0.2223  0.2486
27653SOL    HW184698   5.075   3.631   4.751 -1.8161  0.2490  0.5019
27653SOL    HW284699   5.132   3.491   4.747  2.7136  1.9392  0.2407
27654SOL     OW84700   6.472   1.456   8.573 -0.2396 -0.3227  0.1790
27654SOL    HW184701   6.485   1.544   8.608 -0.8869 -0.0961 -0.1336
27654SOL    HW284702   6.523   1.455   8.492 -0.7041 -0.0365 -0.1195
27655SOL     OW84703   2.087   0.711   6.229  0.1882  0.2512 -0.6269
27655SOL    HW184704   2.028   0.756   6.289  1.7233  1.6120 -0.0758
27655SOL    HW284705   2.131   0.645   6.283 -1.2817 -1.2671 -1.1969
27656SOL     OW84706   0.916   2.821   6.687  0.2144 -0.1611  0.6848
27656SOL    HW184707   0.953   2.900   6.648 -1.9364  1.0703  1.0362
27656SOL    HW284708   0.885   2.770   6.612  0.1835  0.0635  0.5438
27657SOL     OW84709   4.203   8.837   6.165  0.4838  0.1214 -0.6983
27657SOL    HW184710   4.256   8.760   6.182  1.1858  0.3934 -1.5993
27657SOL    HW284711   4.195   8.840   6.070  0.2578  1.0264 -0.6568
27658SOL     OW84712   2.054   7.579   9.109  0.3439  0.3660 -0.3065
27658SOL    HW184713   2.111   7.504   9.093 -1.5214 -0.8580 -1.6022
27658SOL    HW284714   2.092   7.622   9.185  2.7523 -0.5830 -0.8920
27659SOL     OW84715   3.952   3.442   8.287  0.2842  0.1635  0.9746
27659SOL    HW184716   4.005   3.405   8.217 -1.0604 -0.6861  0.3588
27659SOL    HW284717   4.011   3.500   8.335  1.1600  1.0117 -1.0416
27660SOL     OW84718   8.887   1.458   0.742 -0.1942 -0.2428 -0.1648
27660SOL    HW184719   8.895   1.434   0.650  0.9833  1.6407 -0.6238
27660SOL    HW284720   8.914   1.380   0.791  1.8739 -0.4371 -1.4941
27661SOL     OW84721   5.349   3.217   0.332  0.3253 -0.4206 -0.2894
27661SOL    HW184722   5.397   3.139   0.362  0.2433 -0.2645  0.2679
27661SOL    HW284723   5.314   3.255   0.413  0.9059  0.5493 -0.4839
27662SOL     OW84724   8.133   4.217   1.266 -0.0485 -0.0300 -0.0261
27662SOL    HW184725   8.056   4.269   1.243 -2.1842 -2.9067  0.0243
27662SOL    HW284726   8.133   4.214   1.361 -1.0812 -1.5517 -0.0353
27663SOL     OW84727   1.981   8.937   1.506  0.0025 -0.1886  0.4468
27663SOL    HW184728   2.009   8.930   1.414 -0.7013  0.5542  0.1680
27663SOL    HW284729   1.886   8.942   1.501 -0.1299 -1.4818  1.3126
27664SOL     OW84730   5.644   2.956   6.950 -0.1325  0.3047 -0.2277
27664SOL    HW184731   5.675   2.939   7.039  0.5994 -2.6181 -0.9302
27664SOL    HW284732   5.710   3.015   6.913  0.9976 -0.5105  0.4019
27665SOL     OW84733   6.923   5.618   7.488 -0.1326 -0.1777  0.2067
27665SOL    HW184734   6.999   5.676   7.478 -1.7429  1.8165 -1.3875
27665SOL    HW284735   6.889   5.608   7.399 -1.6691 -1.1046  0.8641
27666SOL     OW84736   5.087   8.004   7.275  0.3681  0.5416 -0.2867
27666SOL    HW184737   5.034   8.083   7.287 -2.7689 -1.4070 -0.0535
27666SOL    HW284738   5.128   7.989   7.360 -0.2641  1.1056  0.1310
27667SOL     OW84739   9.523   7.014   6.801  0.1642  0.3852 -0.3355
27667SOL    HW184740   9.539   7.073   6.874  0.4676  0.9798 -0.8668
27667SOL    HW284741   9.509   6.928   6.841  0.2770  0.7095  0.4131
27668SOL     OW84742   1.531   3.480   2.621  0.3870 -0.2906 -0.6013
27668SOL    HW184743   1.571   3.408   2.670  2.0644  1.4325  0.6712
27668SOL    HW284744   1.464   3.437   2.567  0.2828 -2.5951  1.2092
27669SOL     OW84745   4.841   8.817   5.629 -0.0859 -0.3726  0.4661
27669SOL    HW184746   4.849   8.787   5.720 -0.6270 -0.2042  0.5742
27669SOL    HW284747   4.912   8.772   5.583 -1.7666 -3.1098  0.2949
27670SOL     OW84748   5.701   1.378   0.753 -0.0034 -0.0498 -0.4902
27670SOL    HW184749   5.765   1.309   0.734 -1.2987 -1.3265 -0.3740
27670SOL    HW284750   5.702   1.433   0.674 -0.7669 -1.6683 -1.6865
27671SOL     OW84751   5.964   0.746   2.994 -0.1145 -0.2769 -0.0002
27671SOL    HW184752   5.910   0.768   2.918 -2.4275 -4.2500  0.2679
27671SOL    HW284753   6.034   0.691   2.959  0.9467  0.8020  0.3480
27672SOL     OW84754   6.020   8.912   7.572 -0.1906  0.0042  0.2324
27672SOL    HW184755   6.076   8.889   7.646 -0.6139  1.0147  0.8928
27672SOL    HW284756   6.079   8.949   7.507  0.1713 -0.8041  0.0947
27673SOL     OW84757   0.348   2.951   5.814 -0.4349 -0.4006  0.4029
27673SOL    HW184758   0.392   2.959   5.899 -0.8552 -0.9287  0.6738
27673SOL    HW284759   0.366   3.034   5.770 -2.5116  1.0455  2.0895
27674SOL     OW84760   1.334   2.067   2.618 -0.0593 -0.3434 -0.6085
27674SOL    HW184761   1.319   2.037   2.707 -1.0173  1.6914 -0.0382
27674SOL    HW284762   1.249   2.058   2.574 -0.7429  2.4533 -0.0702
27675SOL     OW84763   4.983   4.335   0.722  0.1554 -0.1752 -0.0958
27675SOL    HW184764   4.956   4.270   0.787 -1.2110  1.2193  0.8272
27675SOL    HW284765   4.963   4.419   0.763  0.0981  0.7874 -1.9701
27676SOL     OW84766   8.241   8.235   6.453 -0.2421 -0.4856  0.0933
27676SOL    HW184767   8.195   8.191   6.526 -0.1898 -0.4395  0.1539
27676SOL    HW284768   8.267   8.163   6.395  0.3028 -0.5853  0.4550
27677SOL     OW84769   8.677   1.233   7.768 -0.1324 -0.3158  0.6087
27677SOL    HW184770   8.762   1.273   7.747  0.3174 -1.3958  0.2902
27677SOL    HW284771   8.645   1.283   7.843  2.4069 -1.9503  2.9866
27678SOL     OW84772   2.303   8.420   0.948  0.0230  0.2644  0.2342
27678SOL    HW184773   2.236   8.379   1.002  1.4329 -1.1118  1.0394
27678SOL    HW284774   2.292   8.381   0.862 -1.7867  1.9427 -0.3498
27679SOL     OW84775   5.733   6.713   4.821  0.3555  0.0271 -0.0972
27679SOL    HW184776   5.670   6.651   4.856 -0.1175  1.9615  2.8720
27679SOL    HW284777   5.807   6.659   4.793 -0.1689 -1.9204  1.9936
27680SOL     OW84778   9.514   2.530   2.162  0.5877  0.3559 -0.2646
27680SOL    HW184779   9.478   2.587   2.094 -1.1015  1.6143  1.5810
27680SOL    HW284780   9.445   2.467   2.180  0.9281  0.1827  0.4571
27681SOL     OW84781   2.552   9.098   0.446  0.4480 -0.5861 -0.3217
27681SOL    HW184782   2.624   9.102   0.508  0.5398  0.2153 -0.4675
27681SOL    HW284783   2.589   9.130   0.364  0.0247 -0.5291 -0.4959
27682SOL     OW84784   2.368   8.472   8.749 -0.2497  0.1931 -0.1190
27682SOL    HW184785   2.373   8.538   8.819 -2.8809  0.2572  0.1328
27682SOL    HW284786   2.383   8.522   8.668  0.7861  0.5122  0.2629
27683SOL     OW84787   1.343   0.821   7.994 -0.8486 -0.4098  0.0158
27683SOL    HW184788   1.361   0.761   7.922 -0.4382 -0.5994  0.2699
27683SOL    HW284789   1.408   0.798   8.061  0.0360  1.0378 -0.2997
27684SOL     OW84790   3.666   8.638   5.310 -0.6220 -0.0573 -0.5683
27684SOL    HW184791   3.615   8.579   5.366 -0.2060 -0.2098 -0.3395
27684SOL    HW284792   3.757   8.621   5.335 -0.4764  0.4053 -0.7755
27685SOL     OW84793   3.869   4.967   8.322  0.2026  0.0711  0.1767
27685SOL    HW184794   3.855   4.997   8.232  1.2049  4.8007  1.3098
27685SOL    HW284795   3.787   4.989   8.367  0.2418 -0.9020  0.7366
27686SOL     OW84796   4.275   6.283   5.424 -0.1965  0.2377 -0.0902
27686SOL    HW184797   4.304   6.206   5.473 -1.8505  0.3543  1.1402
27686SOL    HW284798   4.187   6.301   5.456 -1.1590  0.6949 -2.7067
27687SOL     OW84799   9.598   8.738   2.817 -0.2258 -0.0726  0.1583
27687SOL    HW184800   9.615   8.794   2.741  3.7676 -0.5600  0.4529
27687SOL    HW284801   9.551   8.663   2.781 -2.8181  1.8693 -0.8121
27688SOL     OW84802   4.957   7.039   4.945 -0.4711  0.3233  0.0848
27688SOL    HW184803   5.000   7.097   4.881  0.1572  0.4202  0.5820
27688SOL    HW284804   5.026   6.980   4.974 -0.7208  0.3504  0.7574
27689SOL     OW84805   3.918   3.438   7.173 -0.5241  0.3200  0.1516
27689SOL    HW184806   3.907   3.507   7.107  1.8982  1.4617  0.8059
27689SOL    HW284807   3.829   3.419   7.202 -1.6817  0.0128 -3.1159
27690SOL     OW84808   6.959   7.751   6.055  0.1013  0.2734 -0.1626
27690SOL    HW184809   7.042   7.743   6.102 -0.0640  0.5027  0.1698
27690SOL    HW284810   6.929   7.661   6.044  0.0447  0.2288  0.3435
27691SOL     OW84811   6.011   7.006   9.195  0.3629  0.1180 -0.1484
27691SOL    HW184812   6.021   7.090   9.150  1.6626  1.0308  1.7330
27691SOL    HW284813   5.991   7.030   9.286 -1.1683 -1.6498  0.0349
27692SOL     OW84814   1.928   0.217   5.381  0.2139 -1.1302  0.1024
27692SOL    HW184815   1.969   0.290   5.428 -0.3696 -0.7122 -0.0252
27692SOL    HW284816   2.001   0.169   5.343  0.5469  0.4565 -1.3997
27693SOL     OW84817   2.289   5.535   5.318  0.5674 -0.4034 -0.1592
27693SOL    HW184818   2.362   5.592   5.294 -0.4316  1.8192  1.6793
27693SOL    HW284819   2.310   5.504   5.406 -0.3086 -0.4084  0.0593
27694SOL     OW84820   1.890   6.627   2.499  0.5569  0.2141 -0.2822
27694SOL    HW184821   1.860   6.540   2.526  1.0770 -0.1251 -0.7566
27694SOL    HW284822   1.880   6.628   2.404  0.2773  0.7847 -0.2499
27695SOL     OW84823   7.639   3.693   3.679 -0.2492  0.0251 -0.1037
27695SOL    HW184824   7.657   3.762   3.614  0.1416  0.6111  0.6139
27695SOL    HW284825   7.558   3.653   3.648  1.0116 -1.1301 -2.1245
27696SOL     OW84826   6.835   2.260   2.146 -0.9511  0.2410 -0.0036
27696SOL    HW184827   6.796   2.315   2.078 -2.4038  2.0940  2.2029
27696SOL    HW284828   6.764   2.202   2.174  0.2483 -2.1108 -1.4965
27697SOL     OW84829   5.882   9.456   0.384  0.1961 -0.8746 -0.3872
27697SOL    HW184830   5.882   9.453   0.479  0.2399  0.5614 -0.3192
27697SOL    HW284831   5.929   9.377   0.357 -1.2450 -2.1651  0.7124
27698SOL     OW84832   5.455   3.607   7.965  0.7897  0.2975  0.0290
27698SOL    HW184833   5.379   3.553   7.986  0.9858  0.7931  2.3598
27698SOL    HW284834   5.530   3.552   7.987  1.1359 -0.0155 -1.7943
27699SOL     OW84835   8.646   2.512   3.329 -0.1587  1.3297  0.0023
27699SOL    HW184836   8.609   2.478   3.410  2.2939  1.0028  1.0974
27699SOL    HW284837   8.609   2.457   3.260 -0.9782  0.4734  1.0956
27700SOL     OW84838   1.084   2.941   2.626 -0.5554 -0.3486  0.3288
27700SOL    HW184839   1.009   2.957   2.683 -1.6146  0.7416 -1.2646
27700SOL    HW284840   1.045   2.929   2.539  1.1129  0.4484 -0.5727
27701SOL     OW84841   3.621   9.479   3.097  0.4444 -0.6987 -0.6931
27701SOL    HW184842   3.692   9.478   3.162  0.7413 -0.9051 -1.0216
27701SOL    HW284843   3.542   9.500   3.148  0.5068 -1.8725 -0.0962
27702SOL     OW84844   4.389   4.940   4.485 -0.1210  0.3367 -0.0988
27702SOL    HW184845   4.391   4.874   4.555 -0.4955  1.0560  0.6170
27702SOL    HW284846   4.306   4.925   4.440 -0.3366  0.4892  0.2431
27703SOL     OW84847   7.053   5.986   3.780  0.4754  0.4392 -0.5195
27703SOL    HW184848   6.978   5.980   3.721 -0.6997  3.0416  0.6020
27703SOL    HW284849   7.079   5.895   3.795 -2.4383 -0.5506 -0.9396
27704SOL     OW84850   8.273   7.290   8.650  0.5611 -0.0070  0.4352
27704SOL    HW184851   8.271   7.385   8.642 -0.0745 -0.1813 -4.2202
27704SOL    HW284852   8.192   7.268   8.696 -1.1589  1.6787 -1.5459
27705SOL     OW84853   8.280   1.557   5.574 -0.0353  0.2592  0.9903
27705SOL    HW184854   8.224   1.602   5.636  1.0999  0.7868  1.6694
27705SOL    HW284855   8.367   1.596   5.587  0.4644 -0.4201 -0.1254
27706SOL     OW84856   8.641   4.065   4.423  0.8339  0.4683 -0.0186
27706SOL    HW184857   8.676   3.998   4.482 -3.1263 -0.6616  1.3398
27706SOL    HW284858   8.623   4.018   4.342  2.7887  1.1813 -0.9286
27707SOL     OW84859   0.645   5.912   6.744  0.3500 -0.5842 -0.3061
27707SOL    HW184860   0.643   5.972   6.818 -0.7226 -1.2094  0.1870
27707SOL    HW284861   0.730   5.867   6.752  0.9661  0.5227 -0.4354
27708SOL     OW84862   4.939   7.524   1.701  0.0987 -0.4364  0.0445
27708SOL    HW184863   5.034   7.518   1.686  0.3747 -0.3260  1.6425
27708SOL    HW284864   4.927   7.495   1.791 -1.4833 -1.0930 -0.3517
27709SOL     OW84865   1.397   9.294   2.017 -0.1691  0.7240 -0.5325
27709SOL    HW184866   1.461   9.283   1.947 -1.1087  0.0408 -1.2936
27709SOL    HW284867   1.313   9.270   1.979 -0.7209  0.4250  0.7979
27710SOL     OW84868   3.450   7.794   3.178 -0.2148  0.3027 -0.4903
27710SOL    HW184869   3.448   7.890   3.179 -0.6405  0.3261  1.7361
27710SOL    HW284870   3.532   7.773   3.133 -0.3601  1.6669 -1.4779
27711SOL     OW84871   6.402   1.477   4.954 -0.1213 -0.2831 -0.2549
27711SOL    HW184872   6.339   1.520   5.012 -1.1346 -1.3941 -0.4787
27711SOL    HW284873   6.426   1.544   4.890 -2.0796 -0.1652 -0.9435
27712SOL     OW84874   6.436   3.496   3.432 -0.7272 -0.1761 -0.2045
27712SOL    HW184875   6.403   3.579   3.397 -1.3274 -0.6975 -0.9174
27712SOL    HW284876   6.531   3.505   3.428 -0.7850  0.1980 -0.9716
27713SOL     OW84877   7.824   9.380   1.095  0.2159  0.0226 -0.5318
27713SOL    HW184878   7.825   9.291   1.059  2.0037 -0.3761  0.3915
27713SOL    HW284879   7.780   9.372   1.179 -0.1388  0.1383 -0.7028
27714SOL     OW84880   5.801   8.622   7.713 -0.7194  0.0111 -0.0405
27714SOL    HW184881   5.719   8.641   7.668  1.1652  4.2002 -2.2852
27714SOL    HW284882   5.868   8.632   7.645  1.8163 -2.2293  1.9044
27715SOL     OW84883   4.768   1.369   3.092  0.5848 -0.5175 -0.3344
27715SOL    HW184884   4.686   1.404   3.129  1.7436  0.0912  1.8023
27715SOL    HW284885   4.818   1.446   3.068  0.8351 -0.8659 -0.9396
27716SOL     OW84886   6.469   4.369   7.460  0.1292 -0.3728 -1.0244
27716SOL    HW184887   6.490   4.314   7.536 -2.1087 -0.9774 -0.7871
27716SOL    HW284888   6.498   4.317   7.385 -0.7706 -1.3082 -0.7362
27717SOL     OW84889   6.327   3.272   3.217  0.0895  0.5512 -0.0871
27717SOL    HW184890   6.311   3.329   3.142 -0.0023  1.2174  0.4283
27717SOL    HW284891   6.344   3.332   3.290 -0.9102 -0.0529  0.6748
27718SOL     OW84892   6.305   8.308   2.733 -0.3780  0.1435 -0.3066
27718SOL    HW184893   6.356   8.328   2.655  3.9169  0.1679  2.1829
27718SOL    HW284894   6.327   8.217   2.754 -0.5586  0.4459  1.4038
27719SOL     OW84895   1.923   2.066   5.060 -0.3120  0.1252 -0.4554
27719SOL    HW184896   1.854   2.115   5.105 -0.8403  0.9623 -2.0930
27719SOL    HW284897   1.997   2.127   5.055  1.0017 -1.0727  2.1261
27720SOL     OW84898   6.009   1.902   0.633  0.2037  0.4694 -0.0645
27720SOL    HW184899   5.997   1.908   0.728  0.2285  0.4392 -0.0598
27720SOL    HW284900   5.958   1.826   0.607  0.8196  0.0223  0.0259
27721SOL     OW84901   8.461   0.014   8.425  0.0029 -0.3523  0.2854
27721SOL    HW184902   8.485  -0.062   8.477  2.1860 -1.5883 -2.3135
27721SOL    HW284903   8.543   0.061   8.412 -0.9771  1.4455  0.1925
27722SOL     OW84904   0.161   4.684   2.487  1.0825 -0.4267  0.2423
27722SOL    HW184905   0.137   4.610   2.430 -1.5757  1.0979 -0.7924
27722SOL    HW284906   0.247   4.660   2.523  0.8484 -3.4564 -0.9498
27723SOL     OW84907   0.372   7.322   3.873  0.0127  0.3054 -0.2766
27723SOL    HW184908   0.333   7.385   3.812 -0.5769  1.6801  1.4482
27723SOL    HW284909   0.303   7.256   3.886  0.4304 -0.4330 -1.6639
27724SOL     OW84910   7.081   5.758   8.174 -0.1736 -0.6056  0.3639
27724SOL    HW184911   7.024   5.793   8.106  0.2217  2.6123  1.4894
27724SOL    HW284912   7.034   5.775   8.256  1.1105 -0.5408  1.1304
27725SOL     OW84913   6.966   1.576   7.375 -0.0204 -0.2239 -0.5636
27725SOL    HW184914   6.931   1.489   7.355  0.3333 -0.0946 -1.8816
27725SOL    HW284915   6.890   1.626   7.405 -0.1003 -1.1578  0.8882
27726SOL     OW84916   4.976   5.546   1.517  0.0818 -0.5710 -0.3641
27726SOL    HW184917   5.064   5.561   1.483 -0.4589  0.3313 -1.4023
27726SOL    HW284918   4.918   5.574   1.447 -1.0543  0.3711  0.9053
27727SOL     OW84919   2.773   9.321   2.597 -0.7264 -0.6519 -0.5278
27727SOL    HW184920   2.732   9.344   2.513 -0.5882  1.5331 -0.0410
27727SOL    HW284921   2.866   9.313   2.576 -0.4278  1.6971 -0.3026
27728SOL     OW84922   1.853   4.925   3.788 -0.1782  0.2324  0.1171
27728SOL    HW184923   1.879   4.981   3.861  0.7376  0.4922 -0.3777
27728SOL    HW284924   1.813   4.985   3.725 -1.0161  0.0011  0.4221
27729SOL     OW84925   8.212   5.870   2.818  0.5857  0.1244  0.1608
27729SOL    HW184926   8.282   5.891   2.756  1.0531 -0.5257  0.4640
27729SOL    HW284927   8.197   5.952   2.866 -0.2013  0.8220 -1.1950
27730SOL     OW84928   5.885   0.985   4.930  0.1206  0.2533 -0.5046
27730SOL    HW184929   5.853   0.905   4.888 -0.3261  0.3140 -0.2932
27730SOL    HW284930   5.839   1.056   4.885 -0.2430  0.3285 -0.0364
27731SOL     OW84931   1.811   7.492   0.999  0.7486  0.1608 -0.1875
27731SOL    HW184932   1.737   7.488   1.059  0.9701  1.2713  0.1834
27731SOL    HW284933   1.773   7.478   0.913  0.1980  0.0850  0.0632
27732SOL     OW84934   8.528   1.265   0.267 -0.1956  0.2691 -0.1853
27732SOL    HW184935   8.580   1.345   0.275 -0.5270  0.5912 -1.1874
27732SOL    HW284936   8.588   1.195   0.294  0.2507  0.7999  0.2155
27733SOL     OW84937   2.072   7.165   0.069 -0.1365  0.0060  0.5245
27733SOL    HW184938   1.984   7.155   0.033 -0.1418 -0.3214  0.6319
27733SOL    HW284939   2.086   7.087   0.122  0.7589 -0.6308 -0.6091
27734SOL     OW84940   4.710   9.570   9.298  0.0760  0.1809  0.2954
27734SOL    HW184941   4.709   9.556   9.203  0.7408 -0.5538  0.3869
27734SOL    HW284942   4.665   9.493   9.333 -0.5330  0.6511  0.5607
27735SOL     OW84943   4.165   6.453   4.675  0.4521  0.0130  0.5259
27735SOL    HW184944   4.130   6.499   4.751  0.9907  1.0536  0.1607
27735SOL    HW284945   4.087   6.422   4.629 -0.0977  2.5662 -0.4327
27736SOL     OW84946   5.898   8.114   3.556  0.2409 -0.0788  0.0004
27736SOL    HW184947   5.827   8.177   3.551 -0.1766 -0.5201  0.3184
27736SOL    HW284948   5.885   8.069   3.639  0.1716 -1.0105 -0.4965
27737SOL     OW84949   5.677   8.601   4.657 -0.2406  0.0877  0.0024
27737SOL    HW184950   5.652   8.693   4.644 -0.5743  0.4740  2.8152
27737SOL    HW284951   5.597   8.552   4.638 -0.0448  0.3373 -1.5732
27738SOL     OW84952   0.684   4.850   5.493  0.5871 -0.3334 -0.4169
27738SOL    HW184953   0.638   4.773   5.524  1.5051 -0.8205 -0.2293
27738SOL    HW284954   0.633   4.924   5.526  1.2639 -0.8268  1.8877
27739SOL     OW84955   1.198   7.777   2.995  0.5481  0.6481 -0.1630
27739SOL    HW184956   1.289   7.792   2.970  0.8986  0.5366  0.9814
27739SOL    HW284957   1.179   7.688   2.965  1.2402  0.1855  0.7328
27740SOL     OW84958   9.034   5.442   6.477  0.0432  0.0105  0.6523
27740SOL    HW184959   9.074   5.356   6.482 -0.2472 -0.3427 -1.7476
27740SOL    HW284960   8.957   5.436   6.534  0.5286 -0.9881  1.2304
27741SOL     OW84961   3.618   3.198   3.072 -0.4382 -0.5048 -0.0919
27741SOL    HW184962   3.579   3.273   3.028 -0.5095 -0.2524  0.3935
27741SOL    HW284963   3.684   3.165   3.011  1.1220  1.2658  0.5500
27742SOL     OW84964   2.122   5.548   8.143  1.1052 -0.1122 -0.0426
27742SOL    HW184965   2.150   5.464   8.107  0.5588 -0.0415 -0.6490
27742SOL    HW284966   2.148   5.545   8.235  2.3101 -0.3933 -0.3834
27743SOL     OW84967   7.648   6.863   2.673  0.0397  0.3850  0.0854
27743SOL    HW184968   7.626   6.771   2.688  1.8871 -0.1489 -0.2820
27743SOL    HW284969   7.571   6.911   2.705 -0.6808 -1.2340  0.9146
27744SOL     OW84970   0.747   5.646   7.281 -0.4774 -0.1966 -0.2347
27744SOL    HW184971   0.695   5.680   7.208  2.2357  0.8181 -1.8357
27744SOL    HW284972   0.824   5.703   7.284  0.9140 -2.0463  1.5504
27745SOL     OW84973   1.368   9.342   8.117 -0.0774  0.2978  0.1267
27745SOL    HW184974   1.363   9.265   8.173  0.3775 -1.7057 -2.4249
27745SOL    HW284975   1.448   9.330   8.065 -0.0930  2.4040 -0.4938
27746SOL     OW84976   1.213   3.622   2.296 -0.5387 -0.0496 -0.7944
27746SOL    HW184977   1.247   3.543   2.337  1.0643  1.5938  1.2515
27746SOL    HW284978   1.141   3.591   2.241  1.7384 -3.2475 -2.2983
27747SOL     OW84979   4.055   7.213   6.173  0.0203 -0.3275  0.3508
27747SOL    HW184980   4.048   7.288   6.113  0.1003 -0.2654  0.4183
27747SOL    HW284981   3.975   7.163   6.159  0.7615 -1.2016 -1.0105
27748SOL     OW84982   0.673   1.027   0.011 -0.5241 -0.3488 -0.2070
27748SOL    HW184983   0.667   1.050   0.104 -1.1065  0.7390 -0.4994
27748SOL    HW284984   0.754   1.070  -0.019  0.1638 -1.4670 -0.0062
27749SOL     OW84985   0.153   5.038   0.958 -0.4261 -0.0406 -0.0902
27749SOL    HW184986   0.203   5.002   0.884 -1.0915 -0.0058 -0.5677
27749SOL    HW284987   0.124   4.961   1.007  0.9725 -0.0335  0.7977
27750SOL     OW84988   7.533   6.079   8.077  0.4748  0.5581  0.1157
27750SOL    HW184989   7.462   6.018   8.061 -0.0848  0.7008  1.8522
27750SOL    HW284990   7.499   6.164   8.048 -0.0988  0.6330  0.9706
27751SOL     OW84991   7.916   0.644   5.833  0.3862 -0.3974  0.0537
27751SOL    HW184992   7.944   0.701   5.904  1.9845  1.0689 -1.6581
27751SOL    HW284993   7.845   0.693   5.790 -0.3831 -1.1542  0.4148
27752SOL     OW84994   8.250   7.795   1.889  0.5205  0.1279  0.4685
27752SOL    HW184995   8.161   7.782   1.919 -0.1835  2.1292 -0.5541
27752SOL    HW284996   8.271   7.714   1.841 -1.8504  0.6583 -1.7225
27753SOL     OW84997   9.599   3.490   7.195  0.1581 -0.0454 -0.1556
27753SOL    HW184998   9.522   3.532   7.157 -1.4842 -2.6762 -0.0020
27753SOL    HW284999   9.617   3.540   7.275 -0.2305  1.7064 -1.1124
27754SOL     OW85000   1.047   9.395   6.877 -0.1092  0.0055  0.3785
27754SOL    HW185001   1.031   9.370   6.786  1.5005  0.1907 -0.0012
27754SOL    HW285002   0.971   9.447   6.901 -1.5430 -1.7444 -0.1662
27755SOL     OW85003   1.170   4.368   8.394  0.4680  0.0194 -0.0959
27755SOL    HW185004   1.114   4.340   8.466  2.9735  0.0375  2.0501
27755SOL    HW285005   1.170   4.464   8.399 -0.0051  0.0532 -0.6799
27756SOL     OW85006   9.153   8.770   4.857  0.6324  0.5975  0.4490
27756SOL    HW185007   9.116   8.850   4.818 -0.1439 -0.0702 -0.2421
27756SOL    HW285008   9.233   8.755   4.808 -0.6461 -0.5760 -1.4292
27757SOL     OW85009   4.505   1.227   1.210 -0.7709  0.0089 -0.3668
27757SOL    HW185010   4.457   1.310   1.210  0.4961  0.7785  0.7634
27757SOL    HW285011   4.498   1.196   1.119  0.2157  2.2447 -1.2961
27758SOL     OW85012   9.067   7.361   6.932 -0.6319 -0.1843 -0.4922
27758SOL    HW185013   9.084   7.404   7.016 -1.8604 -1.8447  0.6421
27758SOL    HW285014   9.151   7.321   6.908  0.2875  1.9507 -1.1271
27759SOL     OW85015   1.129   1.150   1.514  0.4210  0.1545 -0.1748
27759SOL    HW185016   1.131   1.165   1.419 -0.8123 -1.6934 -0.5466
27759SOL    HW285017   1.220   1.157   1.541  0.7357  1.2442 -1.3917
27760SOL     OW85018   0.771   8.691   3.440 -0.4363 -0.2085 -0.3159
27760SOL    HW185019   0.752   8.774   3.397  0.6287  0.0987 -0.2411
27760SOL    HW285020   0.777   8.712   3.533 -0.0486 -0.3420 -0.3075
27761SOL     OW85021   3.596   3.851   4.346 -0.5611 -0.0577 -0.2412
27761SOL    HW185022   3.603   3.917   4.414 -3.0012  0.6505 -0.5864
27761SOL    HW285023   3.605   3.767   4.392  1.0714  0.4373  0.4128
27762SOL     OW85024   8.134   2.675   4.232 -0.4010  0.4934 -0.0822
27762SOL    HW185025   8.067   2.608   4.238 -1.5513  1.5129 -0.9732
27762SOL    HW285026   8.195   2.643   4.165 -1.6754  0.9084 -1.4987
27763SOL     OW85027   5.625   7.122   1.052 -0.0678 -0.2661  0.1476
27763SOL    HW185028   5.556   7.187   1.041  1.4047  1.3575 -0.0598
27763SOL    HW285029   5.604   7.078   1.135 -2.2313 -1.0438 -0.7326
27764SOL     OW85030   3.851   4.043   5.259 -0.2456  0.4373  0.2265
27764SOL    HW185031   3.914   4.029   5.188 -1.1669  1.1697 -0.7663
27764SOL    HW285032   3.778   4.089   5.218 -2.4153 -2.1910  0.8439
27765SOL     OW85033   4.873   2.140   2.371  0.3465  0.2516 -0.0840
27765SOL    HW185034   4.910   2.172   2.289  0.9708  0.4503  0.2658
27765SOL    HW285035   4.811   2.072   2.345  1.2862 -0.4018 -0.6626
27766SOL     OW85036   2.039   6.539   4.489 -0.5447  0.3705  0.3300
27766SOL    HW185037   2.097   6.605   4.527 -1.2562  0.5343  1.1698
27766SOL    HW285038   1.955   6.584   4.477 -0.0431  0.7138 -2.6901
27767SOL     OW85039   2.350   3.546   1.817 -0.3681  0.0011 -0.2616
27767SOL    HW185040   2.394   3.629   1.833 -1.2211  0.3857  0.1540
27767SOL    HW285041   2.313   3.554   1.729 -0.6322  0.1519 -0.1388
27768SOL     OW85042   6.441   8.946   7.610 -0.1434 -0.3681  0.1638
27768SOL    HW185043   6.496   8.898   7.672 -0.6124 -0.0018  0.8815
27768SOL    HW285044   6.503   8.995   7.556  0.2432 -0.0732  0.8643
27769SOL     OW85045   5.063   3.109   0.959 -0.4550  0.0694  0.0513
27769SOL    HW185046   4.971   3.132   0.969 -0.0967  0.6067  2.7316
27769SOL    HW285047   5.093   3.163   0.886 -1.7051  1.6967  0.6765
27770SOL     OW85048   3.303   0.564   3.286 -0.2337  0.1372 -0.1707
27770SOL    HW185049   3.354   0.523   3.356  0.3611 -0.5379 -0.9744
27770SOL    HW285050   3.215   0.526   3.295 -0.4016  0.7180  0.7383
27771SOL     OW85051   6.876   2.845   5.575  0.2092 -0.0912  0.8608
27771SOL    HW185052   6.914   2.882   5.655  0.7224 -1.2742  1.1910
27771SOL    HW285053   6.840   2.920   5.528 -0.0482  0.6420  2.1715
27772SOL     OW85054   1.175   6.434   0.804  0.4358 -0.3348  0.2366
27772SOL    HW185055   1.175   6.353   0.855  0.6252  1.0744  2.6237
27772SOL    HW285056   1.266   6.444   0.775  0.5010 -0.7334  0.2934
27773SOL     OW85057   2.278   3.827   6.398  0.3106 -0.4469 -0.0610
27773SOL    HW185058   2.314   3.900   6.347 -0.4255  0.4707  0.6906
27773SOL    HW285059   2.268   3.757   6.334  1.2942  0.0107 -0.7491
27774SOL     OW85060   9.026   4.470   1.651  0.0854  0.5909  0.2182
27774SOL    HW185061   9.018   4.565   1.644 -1.5056  0.4673  0.1543
27774SOL    HW285062   9.064   4.443   1.567 -1.8785  0.9376 -0.8319
27775SOL     OW85063   7.035   6.919   7.919  0.4364  0.5914 -0.0998
27775SOL    HW185064   6.999   6.910   8.007 -0.8730 -1.3127 -0.7720
27775SOL    HW285065   7.005   7.005   7.890  0.3170  0.9567  1.0488
27776SOL     OW85066   7.259   5.980   8.345 -0.6902  0.1374  0.0913
27776SOL    HW185067   7.244   5.946   8.257  0.3911  1.4633 -0.6431
27776SOL    HW285068   7.178   6.028   8.366 -1.0319 -0.3566 -0.0772
27777SOL     OW85069   5.002   4.297   1.438  0.0676 -0.1922  0.5311
27777SOL    HW185070   5.068   4.275   1.373 -0.0487  0.2479  0.2595
27777SOL    HW285071   4.995   4.393   1.434 -1.3555 -0.2870 -0.2233
27778SOL     OW85072   5.952   8.143   7.219 -0.0039 -0.3888 -0.5004
27778SOL    HW185073   5.886   8.110   7.158 -2.0322  1.7520  0.3726
27778SOL    HW285074   5.967   8.233   7.192  0.5766 -0.0338  0.9224
27779SOL     OW85075   3.553   8.845   0.973  0.1849  0.4654 -0.4469
27779SOL    HW185076   3.534   8.752   0.978 -1.3136  0.6431 -1.9344
27779SOL    HW285077   3.531   8.869   0.883 -1.2478  2.6005  0.3909
27780SOL     OW85078   5.107   0.151   4.846 -0.6476  0.2643 -0.2673
27780SOL    HW185079   5.082   0.135   4.755  0.3160 -0.8443 -0.3612
27780SOL    HW285080   5.113   0.064   4.885 -0.0840  0.6707  0.5777
27781SOL     OW85081   7.623   8.707   6.052  0.3784 -0.3698 -0.1140
27781SOL    HW185082   7.552   8.758   6.012  0.5502 -0.1147 -0.1001
27781SOL    HW285083   7.700   8.727   5.999  0.0984 -1.9884 -1.1832
27782SOL     OW85084   8.579   5.006   3.561  0.9047 -0.0744  0.1986
27782SOL    HW185085   8.545   5.062   3.631  0.8618 -1.1308  1.0627
27782SOL    HW285086   8.630   5.064   3.506 -0.2631  1.0702  0.2798
27783SOL     OW85087   0.859   8.768   3.066  0.0068  0.2512 -1.3956
27783SOL    HW185088   0.952   8.776   3.088 -0.6830  2.5426  1.1237
27783SOL    HW285089   0.841   8.674   3.074  1.4719  0.0996  1.0545
27784SOL     OW85090   7.492   4.592   9.169 -0.5537 -0.2660  0.0898
27784SOL    HW185091   7.527   4.506   9.145 -0.5681 -0.5590  1.0486
27784SOL    HW285092   7.400   4.588   9.144 -0.1888  0.0983 -1.4134
27785SOL     OW85093   5.555   2.471   7.510 -0.4495 -0.4829  0.1194
27785SOL    HW185094   5.622   2.536   7.490  0.5679 -1.6124 -0.2856
27785SOL    HW285095   5.516   2.502   7.592 -0.9021  1.3009 -0.7217
27786SOL     OW85096   1.556   2.631   5.840  0.3392 -0.1051  0.4423
27786SOL    HW185097   1.503   2.571   5.788  0.7618 -0.9026  0.9186
27786SOL    HW285098   1.630   2.653   5.783 -0.1604  0.5182  0.0129
27787SOL     OW85099   1.161   7.414   6.193 -0.3150  0.2496 -0.1575
27787SOL    HW185100   1.101   7.419   6.267  1.9531 -1.3328  1.9068
27787SOL    HW285101   1.229   7.479   6.212  0.4544 -0.3812 -0.6904
27788SOL     OW85102   8.920   4.645   4.386  0.2988 -0.0702  0.0936
27788SOL    HW185103   8.950   4.715   4.328  0.6354 -1.1491 -1.0819
27788SOL    HW285104   8.826   4.661   4.396  0.5713  1.2306  0.8377
27789SOL     OW85105   6.443   1.719   2.731 -0.4286 -0.3140  0.5362
27789SOL    HW185106   6.358   1.675   2.723  0.2926 -1.6489 -0.4327
27789SOL    HW285107   6.487   1.672   2.802  0.0960 -0.7546 -0.0626
27790SOL     OW85108   2.884   6.618   3.960 -0.0143  0.3887  0.1188
27790SOL    HW185109   2.943   6.590   3.890  0.9546  0.5990  0.8277
27790SOL    HW285110   2.835   6.692   3.924 -0.1986 -0.0956 -0.6389
27791SOL     OW85111   0.497   0.432   3.292 -0.2755 -0.0627 -0.1389
27791SOL    HW185112   0.527   0.486   3.365  1.0093 -3.9328  2.5332
27791SOL    HW285113   0.565   0.441   3.226  0.2616  0.9586  0.5284
27792SOL     OW85114   4.757   1.434   1.936 -0.8661 -0.2518  0.0317
27792SOL    HW185115   4.794   1.346   1.936  1.2183  0.5159  2.0558
27792SOL    HW285116   4.678   1.427   1.990 -0.2312 -0.7248  0.9141
27793SOL     OW85117   5.083   8.907   0.515  0.4959 -0.5477  0.0061
27793SOL    HW185118   5.035   8.900   0.433  1.2278 -0.6608 -0.4249
27793SOL    HW285119   5.118   8.996   0.514 -2.0654  0.5847  1.6729
27794SOL     OW85120   3.840   8.213   7.550 -0.0507  0.1209  0.1217
27794SOL    HW185121   3.755   8.206   7.507 -0.4165  1.9834  0.4580
27794SOL    HW285122   3.821   8.197   7.643 -0.3490  2.0520  0.4299
27795SOL     OW85123   7.032   2.383   2.532  0.1796 -0.8518  0.6930
27795SOL    HW185124   6.948   2.392   2.577 -0.5644  0.6910 -0.8725
27795SOL    HW285125   7.094   2.432   2.586 -0.0520 -1.4376  1.5070
27796SOL     OW85126   3.045   5.144   1.887 -0.2663 -0.4390 -0.1193
27796SOL    HW185127   3.084   5.087   1.820  0.5230 -0.8911  0.7071
27796SOL    HW285128   2.992   5.085   1.941  0.9737 -0.5290  1.0628
27797SOL     OW85129   3.250   3.418   9.249 -0.9429 -0.2259 -0.1185
27797SOL    HW185130   3.176   3.358   9.259 -0.4490 -0.6337  1.2773
27797SOL    HW285131   3.226   3.494   9.303  0.3019 -1.0217  1.6444
27798SOL     OW85132   8.237   0.824   8.036 -0.5321 -0.3354  0.3208
27798SOL    HW185133   8.307   0.872   8.081 -0.8273 -0.2280  0.6688
27798SOL    HW285134   8.235   0.862   7.949 -1.0322  0.5689  0.7142
27799SOL     OW85135   5.088   7.311   9.146 -0.1489  0.2478  0.6213
27799SOL    HW185136   5.093   7.255   9.224  1.1881 -1.1719 -0.4259
27799SOL    HW285137   5.014   7.276   9.097 -0.8557  1.0057  1.1182
27800SOL     OW85138   3.452   8.589   1.708  0.5689  0.2408  0.2184
27800SOL    HW185139   3.458   8.661   1.645 -3.6883  1.6728  1.0815
27800SOL    HW285140   3.499   8.620   1.785  2.5872  0.0696 -0.8736
27801SOL     OW85141   8.250   6.032   2.048  0.0664 -0.0326 -1.1394
27801SOL    HW185142   8.229   6.125   2.040  1.0637  0.2246 -0.9494
27801SOL    HW285143   8.179   5.996   2.101  0.6419  1.0096  0.4132
27802SOL     OW85144   7.641   2.394   1.760  0.3480  0.7045 -0.8112
27802SOL    HW185145   7.560   2.348   1.783  0.0276  1.3288 -0.6707
27802SOL    HW285146   7.647   2.386   1.665 -0.2637  1.2694 -0.9069
27803SOL     OW85147   5.941   6.885   6.840 -0.4327  0.0184 -0.6609
27803SOL    HW185148   5.996   6.936   6.900  1.4494 -0.0068 -2.2673
27803SOL    HW285149   5.859   6.934   6.836 -0.3382  0.4139  1.3326
27804SOL     OW85150   2.475   0.691   1.977 -0.1299  0.0304  0.0292
27804SOL    HW185151   2.412   0.691   2.049  0.3023  0.8530  0.4113
27804SOL    HW285152   2.519   0.776   1.983 -0.0406  0.0881 -1.1598
27805SOL     OW85153   6.637   5.988   7.561  0.1415 -0.1780  0.4446
27805SOL    HW185154   6.597   5.901   7.567  0.9998 -0.7430 -1.1286
27805SOL    HW285155   6.595   6.028   7.484  2.0696 -0.5700 -0.9031
27806SOL     OW85156   1.636   4.552   3.563 -0.2898 -0.1336 -0.3361
27806SOL    HW185157   1.621   4.522   3.474 -1.8392 -2.0027  0.4544
27806SOL    HW285158   1.557   4.526   3.610  0.9667 -0.3045  1.8253
27807SOL     OW85159   2.463   5.195   8.599  0.1284 -0.3039 -0.4941
27807SOL    HW185160   2.457   5.284   8.565 -0.7169  0.0104  0.4397
27807SOL    HW285161   2.551   5.190   8.637 -0.5913  0.9288  1.5086
27808SOL     OW85162   3.543   3.666   0.055  0.0582 -0.0588  0.1618
27808SOL    HW185163   3.553   3.716   0.136  1.5686 -0.0476 -0.0020
27808SOL    HW285164   3.551   3.575   0.083  1.2482 -0.0288 -0.0450
27809SOL     OW85165   6.827   9.225   0.756 -0.1685  0.3754 -0.5049
27809SOL    HW185166   6.827   9.137   0.792 -0.0060  0.9188  0.8653
27809SOL    HW285167   6.913   9.261   0.779 -0.1455  0.8261 -1.2453
27810SOL     OW85168   8.583   8.447   0.337 -0.0651  0.0708  0.2033
27810SOL    HW185169   8.541   8.531   0.357 -0.6204  0.0444 -0.7951
27810SOL    HW285170   8.519   8.381   0.366  0.4181 -0.0169  1.0912
27811SOL     OW85171   3.986   1.713   6.891 -0.4166  0.2237 -0.9494
27811SOL    HW185172   3.982   1.805   6.917  0.3806  0.1899 -0.6985
27811SOL    HW285173   3.934   1.709   6.810 -2.1357  0.4993  0.0850
27812SOL     OW85174   0.610   7.486   2.959  0.0288  0.3860  1.0054
27812SOL    HW185175   0.594   7.580   2.966 -0.4486  0.4777 -0.8489
27812SOL    HW285176   0.679   7.468   3.023  0.2514  2.0232  1.2473
27813SOL     OW85177   9.334   7.868   3.216 -0.1048 -0.4214 -0.5922
27813SOL    HW185178   9.317   7.951   3.260  2.1217  0.8049 -1.8291
27813SOL    HW285179   9.247   7.829   3.203 -1.4190  2.4893 -1.3951
27814SOL     OW85180   9.210   2.091   1.715 -0.3854 -0.3887 -0.8552
27814SOL    HW185181   9.268   2.121   1.786  1.1938  0.2654 -2.3494
27814SOL    HW285182   9.134   2.055   1.760 -0.3120  1.7167  1.1416
27815SOL     OW85183   8.522   8.683   6.736  0.3016  0.7413  0.4666
27815SOL    HW185184   8.513   8.691   6.831 -0.3912 -1.6317  0.6882
27815SOL    HW285185   8.435   8.656   6.706  1.2530 -1.7785 -0.3223
27816SOL     OW85186   8.815   4.595   6.195  0.0952  0.1939 -0.8655
27816SOL    HW185187   8.860   4.664   6.145  1.4665  0.6135  0.8582
27816SOL    HW285188   8.726   4.627   6.206  1.2743  3.0002  1.9998
27817SOL     OW85189   5.669   6.726   4.103  0.0989  0.1642  0.8101
27817SOL    HW185190   5.728   6.651   4.100  0.4496  0.4862 -0.6447
27817SOL    HW285191   5.590   6.696   4.056  0.9801  1.2970 -1.5197
27818SOL     OW85192   7.572   8.416   6.047 -0.1033  0.1655  0.6515
27818SOL    HW185193   7.630   8.485   6.016  1.1895 -0.8268  0.7647
27818SOL    HW285194   7.505   8.407   5.978  0.7061  0.3723 -0.1738
27819SOL     OW85195   0.030   3.756   8.799  0.3348 -0.0935 -0.5782
27819SOL    HW185196   0.116   3.714   8.805  0.2080 -0.4434 -1.1273
27819SOL    HW285197   0.043   3.844   8.833  0.5846 -0.6093  0.7244
27820SOL     OW85198   0.316   3.389   6.867 -0.2514 -0.0855 -0.4810
27820SOL    HW185199   0.389   3.341   6.829 -0.6483 -0.9039 -0.2248
27820SOL    HW285200   0.238   3.350   6.828 -0.6396 -0.4970  0.6493
27821SOL     OW85201   6.602   0.633   8.808  0.2672  0.0731 -0.0274
27821SOL    HW185202   6.514   0.671   8.800  0.8944  1.4789 -0.4688
27821SOL    HW285203   6.651   0.697   8.859  1.0571 -0.7024  0.2054
27822SOL     OW85204   9.088   4.036   5.631  0.3118 -0.6041 -0.1146
27822SOL    HW185205   9.087   4.030   5.535  0.1325  1.2035 -0.2498
27822SOL    HW285206   9.019   4.099   5.652 -0.4632 -1.8656  1.3063
27823SOL     OW85207   9.141   6.003   1.729  0.2576 -0.4053  0.6042
27823SOL    HW185208   9.187   6.060   1.791  1.4823 -1.0596  0.3314
27823SOL    HW285209   9.211   5.957   1.683 -0.6914 -1.6867  0.3923
27824SOL     OW85210   0.912   3.612   8.145  0.2398  0.2657 -0.1188
27824SOL    HW185211   0.956   3.695   8.162  0.0718  0.1008  1.2530
27824SOL    HW285212   0.907   3.606   8.050  1.5869  1.1263 -0.2745
27825SOL     OW85213   9.023   5.161   3.305  0.1506  0.1472  0.0383
27825SOL    HW185214   9.045   5.134   3.394  1.4572  0.1004 -0.2833
27825SOL    HW285215   9.077   5.106   3.249  0.8213  1.5243 -0.7156
27826SOL     OW85216   5.197   3.828   0.897  0.0539 -0.1252  0.0423
27826SOL    HW185217   5.131   3.761   0.916 -0.2366  0.1131 -0.1297
27826SOL    HW285218   5.201   3.880   0.977  0.2619 -0.3286  0.1673
27827SOL     OW85219   6.031   2.378   1.535 -0.1591  0.0880 -0.5402
27827SOL    HW185220   5.987   2.338   1.609  0.4333  1.1738  0.4383
27827SOL    HW285221   5.996   2.467   1.532 -0.0710  0.1009 -1.4890
27828SOL     OW85222   4.669   9.580   5.390 -0.2934 -0.4253  0.1987
27828SOL    HW185223   4.745   9.522   5.396 -1.4211 -2.0339 -0.5640
27828SOL    HW285224   4.674   9.633   5.470  1.4719 -0.6509  0.2881
27829SOL     OW85225   5.733   9.607   1.324  0.0040  0.5763  0.9218
27829SOL    HW185226   5.787   9.684   1.306 -1.0695  0.7735 -2.0147
27829SOL    HW285227   5.794   9.541   1.357  1.9324  1.0564 -1.4686
27830SOL     OW85228   4.659   0.546   6.536 -0.1530  0.2445  0.3671
27830SOL    HW185229   4.573   0.564   6.572  0.2150  1.5491  0.6305
27830SOL    HW285230   4.719   0.600   6.587  0.7508 -0.2067 -0.1873
27831SOL     OW85231   5.645   1.149   1.309 -0.1414 -0.1703  0.0913
27831SOL    HW185232   5.704   1.185   1.376 -0.7831  0.9059  0.0893
27831SOL    HW285233   5.696   1.079   1.268  0.0674 -1.2493  2.0824
27832SOL     OW85234   3.869   0.898   0.051 -0.0926  0.4590  0.1993
27832SOL    HW185235   3.802   0.846   0.095 -0.2174 -1.4817 -2.0437
27832SOL    HW285236   3.822   0.952  -0.011  0.2593  0.9833  0.3818
27833SOL     OW85237   2.527   3.083   4.376  0.2636 -0.3371 -0.4123
27833SOL    HW185238   2.474   3.026   4.433  0.0508  0.1221 -0.1486
27833SOL    HW285239   2.603   3.105   4.429  0.0271  0.1539 -0.2726
27834SOL     OW85240   5.425   4.382   0.410 -0.3213  0.1199 -0.7469
27834SOL    HW185241   5.422   4.461   0.463 -0.2653  0.8716 -1.8385
27834SOL    HW285242   5.356   4.326   0.446 -0.7103  0.8767 -0.3076
27835SOL     OW85243   3.572   2.070   4.698  0.1630 -0.4689  0.5541
27835SOL    HW185244   3.590   2.163   4.713  1.1610 -0.1673 -2.0818
27835SOL    HW285245   3.619   2.025   4.768  3.0253  0.8609 -0.3792
27836SOL     OW85246   9.452   0.003   9.359 -0.2756  0.2175  0.2555
27836SOL    HW185247   9.385   0.026   9.423 -1.1749 -0.8802 -0.2531
27836SOL    HW285248   9.484  -0.083   9.386  0.1559  0.2570 -0.1127
27837SOL     OW85249   5.096   1.693   7.109  0.1271  0.0512  0.1516
27837SOL    HW185250   5.004   1.679   7.083  0.0027 -0.0201  0.6179
27837SOL    HW285251   5.147   1.659   7.035 -0.1948 -1.5123  0.6101
27838SOL     OW85252   4.455   4.042   8.447 -0.2385  0.5625  0.7499
27838SOL    HW185253   4.454   4.087   8.531 -0.6652  0.9870  0.5224
27838SOL    HW285254   4.544   4.009   8.438  0.2724  1.9405  0.6089
27839SOL     OW85255   7.547   8.672   1.568 -0.3589 -0.1894 -0.1349
27839SOL    HW185256   7.542   8.635   1.657 -0.5336  0.5769  0.1830
27839SOL    HW285257   7.627   8.635   1.531 -0.8866 -1.4343 -0.0915
27840SOL     OW85258   1.654   0.594   8.686  0.2768  0.0794  0.6688
27840SOL    HW185259   1.668   0.502   8.705 -1.9338 -0.6036 -0.6594
27840SOL    HW285260   1.707   0.611   8.608 -1.4264 -0.8900 -0.7775
27841SOL     OW85261   5.452   8.840   8.248  0.2133  0.3237  0.3808
27841SOL    HW185262   5.450   8.875   8.337 -0.0875 -0.9843  0.9061
27841SOL    HW285263   5.390   8.767   8.249  0.0286  0.4365 -0.9673
27842SOL     OW85264   6.690   1.875   2.779  0.6056 -0.2016  0.2061
27842SOL    HW185265   6.735   1.883   2.695  0.9464 -0.9396  0.3116
27842SOL    HW285266   6.597   1.870   2.756  0.7712 -1.8548 -0.2599
27843SOL     OW85267   2.929   9.564   6.900 -0.0476  0.3558 -0.0065
27843SOL    HW185268   2.914   9.492   6.961 -0.8737  0.0710 -0.5321
27843SOL    HW285269   2.879   9.637   6.937 -2.5020 -0.4535 -1.4931
27844SOL     OW85270   6.955   4.166   8.185 -0.2323  0.4350  0.1858
27844SOL    HW185271   6.872   4.118   8.185 -0.0569  0.0874 -0.8912
27844SOL    HW285272   6.932   4.256   8.161 -0.2652  0.2429 -0.5306
27845SOL     OW85273   8.390   4.441   7.150 -0.0602 -0.1105  0.0959
27845SOL    HW185274   8.299   4.426   7.177  0.0020 -3.3698 -1.1060
27845SOL    HW285275   8.425   4.354   7.134  2.9215  1.1254 -0.7720
27846SOL     OW85276   1.506   6.990   8.334  0.1104  0.1093  0.0070
27846SOL    HW185277   1.472   6.930   8.400 -0.1718  0.0198 -0.2152
27846SOL    HW285278   1.482   7.077   8.365 -2.0610 -0.0297 -1.0798
27847SOL     OW85279   1.607   1.502   1.124 -0.2145 -0.0693  0.1622
27847SOL    HW185280   1.659   1.427   1.153  1.4427  0.4020 -1.3805
27847SOL    HW285281   1.667   1.554   1.071 -1.7771  1.5121 -0.1709
27848SOL     OW85282   2.289   8.904   8.881  0.5193  0.6211  0.3941
27848SOL    HW185283   2.348   8.828   8.874  0.8233  0.7703  1.2740
27848SOL    HW285284   2.339   8.977   8.846  0.4608  0.5413  0.1433
27849SOL     OW85285   8.060   3.828   2.087  0.4765 -0.0814  0.4540
27849SOL    HW185286   8.022   3.817   2.174 -0.2784  0.9365  0.2772
27849SOL    HW285287   8.002   3.891   2.043  0.6590 -0.8098 -0.8976
27850SOL     OW85288   2.239   6.840   3.445 -0.2345  0.5506  0.3481
27850SOL    HW185289   2.296   6.768   3.417 -0.1105  0.8749 -0.2561
27850SOL    HW285290   2.159   6.827   3.395 -0.5101  0.3765  0.8348
27851SOL     OW85291   5.407   6.354   7.920  0.4399 -0.2280  0.2437
27851SOL    HW185292   5.444   6.277   7.962 -0.5347 -0.7704  0.1542
27851SOL    HW285293   5.312   6.341   7.926  0.1870  1.8235  1.8376
27852SOL     OW85294   5.039   6.478   1.264  0.0930 -0.0965 -0.5735
27852SOL    HW185295   5.072   6.388   1.266  0.3705  0.0077  1.2532
27852SOL    HW285296   4.964   6.477   1.324 -0.4914  0.6976 -1.2572
27853SOL     OW85297   0.901   0.219   3.629 -0.3634 -0.2409  0.0658
27853SOL    HW185298   0.972   0.177   3.581  0.8123  1.3820  0.3229
27853SOL    HW285299   0.875   0.154   3.695  0.1129 -1.2761 -0.7472
27854SOL     OW85300   0.708   9.178   3.608 -0.2129  0.6714 -1.1403
27854SOL    HW185301   0.714   9.273   3.615 -0.1626  0.6472 -0.8480
27854SOL    HW285302   0.745   9.158   3.522  1.2133  0.7838 -0.5833
27855SOL     OW85303   5.885   7.808   2.359  0.2650  0.1655  0.1569
27855SOL    HW185304   5.793   7.784   2.372 -0.3898  0.8476 -2.5390
27855SOL    HW285305   5.928   7.727   2.331  0.1032  0.2162 -0.2339
27856SOL     OW85306   4.823   6.624   9.272  0.2393  0.1873 -0.4935
27856SOL    HW185307   4.766   6.551   9.296  0.8664 -0.0566  0.3105
27856SOL    HW285308   4.768   6.683   9.222 -0.5750 -0.2864 -0.1669
27857SOL     OW85309   2.089   9.465   5.084  0.0934 -0.1249  0.3258
27857SOL    HW185310   2.071   9.552   5.048  0.6790 -0.0026  0.3214
27857SOL    HW285311   2.006   9.418   5.075 -0.3586  0.5692  0.7384
27858SOL     OW85312   6.541   7.821   7.389  0.0152 -0.2539  0.4103
27858SOL    HW185313   6.450   7.798   7.373  0.6007 -2.1749 -0.4637
27858SOL    HW285314   6.584   7.814   7.304  1.0757  0.2046  0.8800
27859SOL     OW85315   2.313   4.789   4.526  0.3254  0.2622  0.3708
27859SOL    HW185316   2.399   4.775   4.565  0.0020 -1.2456  0.6018
27859SOL    HW285317   2.328   4.784   4.432  0.4609 -0.3044  0.4164
27860SOL     OW85318   3.328   2.248   6.678  0.3003 -1.0269 -0.0253
27860SOL    HW185319   3.323   2.166   6.726 -0.1090 -0.4737  0.8891
27860SOL    HW285320   3.339   2.221   6.586  2.2172 -2.0834  0.4651
27861SOL     OW85321   5.451   4.960   2.215 -0.1133  0.3251  0.5568
27861SOL    HW185322   5.447   5.053   2.239  0.9341  0.2288  1.1536
27861SOL    HW285323   5.360   4.931   2.215 -0.6349  1.7552 -1.3470
27862SOL     OW85324   0.140   3.381   8.329  0.3049  0.1948 -0.2955
27862SOL    HW185325   0.188   3.445   8.276  2.9705 -1.4769 -0.1255
27862SOL    HW285326   0.126   3.307   8.270  1.2156 -0.7597  0.6382
27863SOL     OW85327   4.980   2.747   4.218  0.0325 -0.3020  0.1883
27863SOL    HW185328   5.028   2.671   4.250  0.6563  1.4086  3.8658
27863SOL    HW285329   4.892   2.715   4.199  1.1375 -2.4842 -1.7355
27864SOL     OW85330   4.157   1.495   6.968 -0.0949 -0.3532  0.4596
27864SOL    HW185331   4.194   1.514   7.054  0.9781  2.2172 -0.4749
27864SOL    HW285332   4.077   1.547   6.964  1.1953  1.6792 -0.9647
27865SOL     OW85333   0.904   5.257   6.764 -0.3837  0.1949 -0.1131
27865SOL    HW185334   0.860   5.249   6.848  0.0347 -1.1081 -0.0053
27865SOL    HW285335   0.985   5.304   6.783  0.6922 -1.8337  0.6115
27866SOL     OW85336   9.588   5.373   3.001 -0.3698 -0.2269  0.2658
27866SOL    HW185337   9.656   5.402   2.940 -0.1902 -0.7969  0.1899
27866SOL    HW285338   9.507   5.411   2.967 -0.1432  0.1834  0.1704
27867SOL     OW85339   7.365   6.535   1.524  0.0119  0.1051 -0.1405
27867SOL    HW185340   7.448   6.574   1.552 -0.2480  0.8083 -0.3081
27867SOL    HW285341   7.389   6.475   1.454  0.3142  0.8804 -0.7230
27868SOL     OW85342   8.706   5.244   7.381 -0.2869 -0.2992 -0.2624
27868SOL    HW185343   8.755   5.171   7.419  0.8045  1.0926  1.1706
27868SOL    HW285344   8.622   5.206   7.355  0.4699 -2.1714 -0.1699
27869SOL     OW85345   5.408   4.700   3.905  0.2443 -0.3632 -0.1098
27869SOL    HW185346   5.340   4.653   3.953  1.1100 -1.9124 -0.3491
27869SOL    HW285347   5.392   4.680   3.813  0.9318 -0.6279 -0.1776
27870SOL     OW85348   8.638   3.604   4.723  0.0914  0.5867  0.0929
27870SOL    HW185349   8.705   3.629   4.787  1.2801 -3.2507  0.5680
27870SOL    HW285350   8.574   3.554   4.773 -1.0133  0.7545 -1.0904
27871SOL     OW85351   0.586   9.562   8.023  0.0010 -0.1076 -0.4005
27871SOL    HW185352   0.646   9.487   8.015 -0.6700 -1.4215  4.0212
27871SOL    HW285353   0.499   9.522   8.031 -0.6390  1.2807 -0.1833
27872SOL     OW85354   6.929   4.999   4.420  0.1599 -0.6125 -0.0074
27872SOL    HW185355   6.842   4.966   4.397  0.5357 -1.0852 -0.8261
27872SOL    HW285356   6.937   5.081   4.371  0.3715 -0.8353 -0.3498
27873SOL     OW85357   8.130   7.453   5.809 -0.1349 -0.2180  0.2603
27873SOL    HW185358   8.104   7.521   5.747  0.0480 -2.2293 -2.1755
27873SOL    HW285359   8.061   7.455   5.876 -0.3296  2.0540  0.0966
27874SOL     OW85360   5.780   1.848   0.214  0.3615 -0.2446  0.5183
27874SOL    HW185361   5.872   1.826   0.203  0.7749  1.5659  0.2191
27874SOL    HW285362   5.734   1.783   0.160  1.5067 -0.5365 -0.1429
27875SOL     OW85363   4.613   0.733   5.807 -0.0416 -0.3195  0.2006
27875SOL    HW185364   4.565   0.808   5.773  0.1520 -0.5428 -0.5907
27875SOL    HW285365   4.586   0.726   5.898  0.6141  1.2537  0.5475
27876SOL     OW85366   0.400   2.695   5.732  0.5076  0.0549  0.0701
27876SOL    HW185367   0.364   2.676   5.645  0.9001  2.9247 -0.8283
27876SOL    HW285368   0.362   2.779   5.756  2.5287  0.6656  1.4368
27877SOL     OW85369   5.708   8.741   6.281 -0.2454  0.5397  0.5154
27877SOL    HW185370   5.750   8.712   6.200  1.0824 -0.3615  1.4875
27877SOL    HW285371   5.669   8.826   6.259 -0.4689  0.0177 -1.2211
27878SOL     OW85372   4.567   4.807   0.685  0.1600  0.0694 -0.2221
27878SOL    HW185373   4.621   4.729   0.694  1.3032  0.9322  0.8720
27878SOL    HW285374   4.559   4.821   0.591  0.0643 -1.2560 -0.4262
27879SOL     OW85375   8.851   0.508   8.578 -0.2832 -0.0056  0.3346
27879SOL    HW185376   8.806   0.424   8.576 -1.1859  0.3979  2.0060
27879SOL    HW285377   8.781   0.573   8.585  0.4483  0.8218  0.1716
27880SOL     OW85378   7.702   2.159   4.714  0.4093  0.0892  0.0705
27880SOL    HW185379   7.757   2.115   4.778  0.2088  0.6833  0.6716
27880SOL    HW285380   7.613   2.128   4.733  0.4503 -0.3416 -0.4433
27881SOL     OW85381   5.422   8.202   1.197  0.2445  0.0215 -0.6064
27881SOL    HW185382   5.441   8.194   1.104  0.2657 -0.4478 -0.5653
27881SOL    HW285383   5.338   8.160   1.209  0.5322 -0.4808 -0.3137
27882SOL     OW85384   8.232   8.062   6.691 -0.0157  0.0912  0.1247
27882SOL    HW185385   8.228   8.118   6.768 -0.0790  0.6415 -0.2712
27882SOL    HW285386   8.144   8.025   6.682  0.1147 -0.3480  0.5801
27883SOL     OW85387   7.879   7.672   6.624 -0.0220  0.2398  0.9374
27883SOL    HW185388   7.828   7.640   6.549  0.6352 -0.7208  0.8878
27883SOL    HW285389   7.970   7.670   6.594  0.1975  0.3665  1.5809
27884SOL     OW85390   4.375   5.825   7.549  0.7349 -0.4663  0.2242
27884SOL    HW185391   4.342   5.915   7.561  1.0456 -0.2429 -0.5632
27884SOL    HW285392   4.457   5.835   7.502  0.2153 -1.2260 -0.8848
27885SOL     OW85393   7.073   8.015   2.654  0.0135  0.0457  0.3418
27885SOL    HW185394   7.100   8.100   2.618  0.5815 -0.2953 -0.0616
27885SOL    HW285395   6.980   8.025   2.671  0.4459  1.4228  2.1875
27886SOL     OW85396   7.357   2.225   9.575  0.0033  0.4089 -0.7890
27886SOL    HW185397   7.286   2.232   9.512  0.3680  0.8523 -1.1510
27886SOL    HW285398   7.323   2.165   9.642 -0.1321 -0.5932 -1.7348
27887SOL     OW85399   0.068   5.193   7.752  0.3036  0.2916 -0.1899
27887SOL    HW185400   0.006   5.122   7.736 -0.1760  0.3112  1.4219
27887SOL    HW285401   0.032   5.268   7.703 -1.0506  0.3413  0.8185
27888SOL     OW85402   2.389   7.648   3.743 -0.2006  0.4497 -0.4027
27888SOL    HW185403   2.314   7.702   3.770  0.3004  0.5402  0.8832
27888SOL    HW285404   2.454   7.662   3.812  0.1841 -1.3255 -0.3620
27889SOL     OW85405   2.285   4.670   5.547  0.5872  0.0731  0.3337
27889SOL    HW185406   2.358   4.688   5.488  0.9946 -0.7362  0.5694
27889SOL    HW285407   2.282   4.746   5.606  0.7238  0.4853 -0.1875
27890SOL     OW85408   7.932   2.007   5.343  0.1066  0.1287 -0.3513
27890SOL    HW185409   7.934   2.059   5.262  2.5110 -0.6218 -0.8540
27890SOL    HW285410   7.839   1.992   5.359 -0.6538  3.5869 -0.7772
27891SOL     OW85411   7.103   6.407   0.022  0.4234  0.3840 -0.7824
27891SOL    HW185412   7.168   6.357  -0.028  0.2622 -0.3846 -0.2456
27891SOL    HW285413   7.035   6.428  -0.042  0.2839 -0.4755 -0.9316
27892SOL     OW85414   5.059   1.654   9.449  0.1198  0.0742 -0.2625
27892SOL    HW185415   5.126   1.647   9.381  0.1189  0.5011 -0.3094
27892SOL    HW285416   5.108   1.663   9.531  0.1210  0.4461 -0.3033
27893SOL     OW85417   6.201   9.453   5.237 -0.2432 -0.2584  0.3978
27893SOL    HW185418   6.132   9.501   5.191 -1.4091 -1.0589  1.2389
27893SOL    HW285419   6.261   9.426   5.168 -0.5208  0.8223 -0.3107
27894SOL     OW85420   5.031   0.822   3.957 -0.3485  0.3003 -0.3148
27894SOL    HW185421   5.035   0.825   4.053  0.5104  2.8636 -0.3470
27894SOL    HW285422   4.942   0.792   3.938 -1.3848  2.0848  1.3441
27895SOL     OW85423   4.066   4.216   2.883  0.8270 -0.4311  0.3467
27895SOL    HW185424   4.074   4.123   2.864 -1.7451 -0.4606 -0.9343
27895SOL    HW285425   4.139   4.256   2.836  0.6864 -1.5936 -0.9106
27896SOL     OW85426   3.150   5.533   4.570  0.2465 -0.1081  0.0630
27896SOL    HW185427   3.184   5.621   4.556  0.1802 -0.0989 -0.0428
27896SOL    HW285428   3.220   5.486   4.616  0.2762  0.0038  0.1299
27897SOL     OW85429   6.129   1.112   2.443  0.1227 -0.1733 -0.1333
27897SOL    HW185430   6.165   1.036   2.398 -0.9383 -0.5213 -0.4274
27897SOL    HW285431   6.134   1.090   2.536  1.3735  0.1238 -0.1051
27898SOL     OW85432   7.453   9.426   7.129  1.0543 -0.2593 -0.5222
27898SOL    HW185433   7.372   9.383   7.158  1.9046 -1.9354 -0.4912
27898SOL    HW285434   7.425   9.512   7.100 -0.5577 -0.3272  0.6587
27899SOL     OW85435   5.919   6.880   4.930  0.2133 -0.6069  0.1394
27899SOL    HW185436   5.862   6.817   4.886  1.9908 -1.3813 -1.1609
27899SOL    HW285437   5.932   6.843   5.017 -0.9500 -0.6035  0.3279
27900SOL     OW85438   7.631   0.171   9.214  0.5206 -0.3173 -0.1995
27900SOL    HW185439   7.697   0.233   9.243  0.1692 -0.4093  0.8562
27900SOL    HW285440   7.652   0.089   9.260  0.2914 -0.6394 -0.6585
27901SOL     OW85441   7.696   5.756   0.372  0.1210 -0.2254  0.3415
27901SOL    HW185442   7.704   5.719   0.460  0.3538  1.4107  1.0553
27901SOL    HW285443   7.780   5.800   0.357  0.4493 -1.2943 -1.1212
27902SOL     OW85444   7.034   4.937   6.741 -0.2158  0.0522 -0.2445
27902SOL    HW185445   6.999   5.026   6.745 -1.5160 -0.4047 -0.9299
27902SOL    HW285446   7.050   4.922   6.648  1.6643  0.1579  0.0160
27903SOL     OW85447   0.580   4.183   2.699  0.4092 -0.0685  0.6903
27903SOL    HW185448   0.593   4.170   2.793 -0.6484  0.8119  0.9797
27903SOL    HW285449   0.488   4.163   2.685  0.3644  0.5951 -0.0139
27904SOL     OW85450   0.041   5.779   0.393  0.1873  0.4652  0.4031
27904SOL    HW185451   0.111   5.725   0.357 -0.9747  0.0784 -1.3995
27904SOL    HW285452  -0.024   5.717   0.427  0.3487  0.8078  1.3755
27905SOL     OW85453   3.297   0.417   4.486  0.2188  0.1706  0.1288
27905SOL    HW185454   3.327   0.338   4.441  1.1315  0.3856  0.3372
27905SOL    HW285455   3.223   0.388   4.540  2.0536 -1.0946  2.1265
27906SOL     OW85456   4.748   2.385   4.949  0.1893 -0.2999 -0.0443
27906SOL    HW185457   4.711   2.302   4.977 -1.0988 -0.2544 -1.4847
27906SOL    HW285458   4.829   2.362   4.903  0.4071 -0.6439  0.4970
27907SOL     OW85459   2.448   9.150   8.809 -0.5891  0.1966  0.2150
27907SOL    HW185460   2.536   9.183   8.826 -0.8970  2.3339 -1.7621
27907SOL    HW285461   2.445   9.139   8.714 -2.6598  0.9150  0.1451
27908SOL     OW85462   6.993   0.910   0.377 -0.1775  0.2688 -0.0266
27908SOL    HW185463   7.066   0.886   0.321 -0.8944 -0.5237 -0.6385
27908SOL    HW285464   6.937   0.964   0.322 -0.4294  0.2520  0.2120
27909SOL     OW85465   8.136   1.196   5.369  0.2150 -0.0208 -0.3477
27909SOL    HW185466   8.055   1.245   5.363 -1.7240 -2.3641  2.8823
27909SOL    HW285467   8.170   1.192   5.280 -2.2873  2.4813 -1.5394
27910SOL     OW85468   4.853   4.889   4.597 -0.4044 -0.4561 -0.0859
27910SOL    HW185469   4.913   4.906   4.524  0.2009 -0.0505  0.5041
27910SOL    HW285470   4.777   4.945   4.579  0.2498  0.5564  0.2093
27911SOL     OW85471   3.517   2.354   4.748 -0.4312 -0.2144  0.3990
27911SOL    HW185472   3.553   2.431   4.704  1.4523 -0.7742  0.8961
27911SOL    HW285473   3.473   2.390   4.825  1.0187  0.3428  1.0007
27912SOL     OW85474   1.203   0.651   1.682 -0.0467 -0.1284  0.5104
27912SOL    HW185475   1.149   0.581   1.645  0.4941 -1.3431  1.9084
27912SOL    HW285476   1.277   0.659   1.622  1.0941 -2.4190  1.4843
27913SOL     OW85477   8.171   1.034   4.249  0.1759  0.4105 -0.2067
27913SOL    HW185478   8.130   1.107   4.295 -0.0723  2.0182 -2.7823
27913SOL    HW285479   8.099   0.992   4.201  0.4692 -1.0378  0.5421
27914SOL     OW85480   0.410   4.701   1.698 -0.3621  0.0863 -0.3312
27914SOL    HW185481   0.456   4.637   1.753  0.1368  1.6520  1.1783
27914SOL    HW285482   0.463   4.707   1.618  0.1089 -0.6774 -0.0831
27915SOL     OW85483   7.264   4.554   9.587 -0.3237 -0.0494 -0.1995
27915SOL    HW185484   7.336   4.546   9.525  1.4619 -2.5299  1.9952
27915SOL    HW285485   7.236   4.464   9.603  0.7036  0.1566  3.9763
27916SOL     OW85486   7.801   5.191   8.960  0.4934  0.1782 -0.3152
27916SOL    HW185487   7.831   5.122   9.019 -0.7975  0.4762  0.7570
27916SOL    HW285488   7.738   5.148   8.902 -0.0876  0.3694  0.1591
27917SOL     OW85489   8.006   3.033   1.774 -0.9739  0.4092 -0.1284
27917SOL    HW185490   8.006   2.971   1.846 -0.2703 -0.7152 -1.0633
27917SOL    HW285491   8.046   3.112   1.811  0.9748 -0.7017  0.3061
27918SOL     OW85492   0.091   4.869   9.250  0.0103 -0.0748 -0.3276
27918SOL    HW185493   0.176   4.907   9.273  0.0106  0.1747 -0.7233
27918SOL    HW285494   0.097   4.853   9.156 -0.0172 -1.0009 -0.1792
27919SOL     OW85495   0.709   0.203   4.691 -0.2050  0.2437 -0.0728
27919SOL    HW185496   0.729   0.251   4.772  0.6696 -0.6396  0.2587
27919SOL    HW285497   0.795   0.182   4.655 -0.5896 -0.1087 -0.7913
27920SOL     OW85498   2.901   8.988   5.176 -0.5490  0.2740  0.3607
27920SOL    HW185499   2.954   8.933   5.234 -1.1902  0.7643  1.4433
27920SOL    HW285500   2.911   8.948   5.090  1.5814  0.3553  0.5189
27921SOL     OW85501   3.036   3.877   5.749  0.1097  0.3548 -0.7417
27921SOL    HW185502   2.990   3.934   5.687  0.4565  0.4275 -0.9382
27921SOL    HW285503   2.969   3.849   5.811 -0.0260  1.1344 -0.5271
27922SOL     OW85504   1.127   8.257   0.013  0.4621 -0.2810 -0.3156
27922SOL    HW185505   1.138   8.331  -0.046  0.3364  0.2249  0.2894
27922SOL    HW285506   1.210   8.210   0.007  0.3086 -0.4603 -1.1880
27923SOL     OW85507   8.668   0.513   3.108  0.2365  0.3864 -0.4184
27923SOL    HW185508   8.643   0.440   3.164  1.1383 -0.0963 -0.6214
27923SOL    HW285509   8.588   0.564   3.098 -0.5614 -0.8797 -0.7382
27924SOL     OW85510   4.015   7.958   7.778 -0.1537 -0.2786  0.0033
27924SOL    HW185511   4.079   8.000   7.836 -0.5503  0.9448 -0.3997
27924SOL    HW285512   4.063   7.887   7.737  0.7729  0.2239  0.1865
27925SOL     OW85513   8.067   3.261   1.386 -0.0696  0.1610  0.4431
27925SOL    HW185514   8.153   3.220   1.400  0.0440  0.0069 -0.5765
27925SOL    HW285515   8.025   3.259   1.472  0.3285 -1.2059  0.6348
27926SOL     OW85516   1.362   4.708   5.771 -0.1661  0.2978  0.1398
27926SOL    HW185517   1.271   4.737   5.781 -0.4410 -0.3360 -0.4565
27926SOL    HW285518   1.413   4.788   5.778 -0.8336  0.7774 -0.3241
27927SOL     OW85519   6.994   8.134   3.800 -0.1925 -0.5655 -0.4138
27927SOL    HW185520   6.981   8.172   3.713 -1.5580  2.3658  0.9049
27927SOL    HW285521   6.943   8.053   3.800 -0.3543 -0.4920 -2.2658
27928SOL     OW85522   1.355   6.793   4.481  0.2545 -0.5560 -0.3999
27928SOL    HW185523   1.415   6.736   4.529 -0.0747 -0.8497 -0.3294
27928SOL    HW285524   1.275   6.794   4.534  0.6820  0.9865  0.2490
27929SOL     OW85525   4.606   6.002   2.932 -0.2225  0.8754 -0.3820
27929SOL    HW185526   4.597   6.094   2.910 -0.3518  0.7109 -1.0480
27929SOL    HW285527   4.516   5.969   2.936 -0.1508  0.4405 -1.6980
27930SOL     OW85528   3.670   2.359   2.919  0.3881 -0.8974 -0.0598
27930SOL    HW185529   3.690   2.309   2.998  1.6057 -0.2682  0.0497
27930SOL    HW285530   3.724   2.438   2.926  0.6162 -0.8872 -1.5818
27931SOL     OW85531   1.349   3.560   1.522 -0.4665  0.7175 -0.2997
27931SOL    HW185532   1.425   3.537   1.575  0.2128 -0.3066 -1.6541
27931SOL    HW285533   1.273   3.528   1.572  0.1950 -0.9001 -0.2741
27932SOL     OW85534   8.133   6.222   4.370 -0.0582 -0.6557  0.4444
27932SOL    HW185535   8.124   6.158   4.441  0.6193 -0.0851  1.0554
27932SOL    HW285536   8.080   6.297   4.398 -0.1298 -0.5894  0.1412
27933SOL     OW85537   7.193   8.526   8.095 -0.1413 -0.4057  0.2623
27933SOL    HW185538   7.220   8.575   8.018 -2.5169 -1.1465 -1.1698
27933SOL    HW285539   7.132   8.584   8.140 -0.8762 -0.9715  0.0327
27934SOL     OW85540   3.978   1.761   1.691 -0.0835 -0.4010  0.2813
27934SOL    HW185541   4.027   1.787   1.769 -0.6899 -0.2865  0.6275
27934SOL    HW285542   3.895   1.809   1.697 -0.1606 -0.4368 -0.4027
27935SOL     OW85543   9.307   3.626   5.833 -0.0726  0.5561 -0.1958
27935SOL    HW185544   9.225   3.640   5.785 -0.3202  0.2592  0.1351
27935SOL    HW285545   9.289   3.550   5.888  0.0766  1.1178  0.6406
27936SOL     OW85546   1.439   2.280   2.172  0.2941 -0.3632  0.0624
27936SOL    HW185547   1.406   2.300   2.260 -0.1932 -0.7539 -0.0253
27936SOL    HW285548   1.382   2.210   2.141  0.0052  0.2623 -0.8527
27937SOL     OW85549   1.202   2.499   3.557  0.3031  0.5426 -0.3368
27937SOL    HW185550   1.134   2.497   3.625 -1.6140  0.8037 -2.1268
27937SOL    HW285551   1.230   2.591   3.555  1.0221  0.3666  0.6480
27938SOL     OW85552   8.963   5.114   4.133 -0.1119  0.4383  0.5525
27938SOL    HW185553   8.984   5.022   4.145 -0.0188  0.1575 -1.4904
27938SOL    HW285554   8.869   5.117   4.120 -0.0997  0.6228  0.4939
27939SOL     OW85555   4.125   7.235   1.850 -0.6559  0.6377  0.4103
27939SOL    HW185556   4.030   7.248   1.855 -0.6492  1.1516 -0.6399
27939SOL    HW285557   4.144   7.176   1.923 -1.7190  0.8652  0.8978
27940SOL     OW85558   5.443   1.610   7.552  0.5619 -0.3438 -0.0881
27940SOL    HW185559   5.431   1.702   7.527 -0.3897 -0.4992 -0.2147
27940SOL    HW285560   5.479   1.568   7.474  0.2358 -0.2437 -0.2944
27941SOL     OW85561   7.595   1.177   2.358  0.1628  0.3757 -0.0203
27941SOL    HW185562   7.657   1.246   2.333 -0.2521  0.0713 -2.0870
27941SOL    HW285563   7.538   1.168   2.282  0.2648 -2.2999  0.1244
27942SOL     OW85564   0.764   4.023   3.151  0.1800 -0.9967 -0.4165
27942SOL    HW185565   0.737   4.000   3.240  3.1332 -1.9767  0.3696
27942SOL    HW285566   0.755   3.942   3.101  0.7164 -1.0888 -0.3745
27943SOL     OW85567   7.656   2.302   8.715  0.1617  0.7214 -0.4130
27943SOL    HW185568   7.685   2.277   8.628 -0.8037  0.3390 -0.6329
27943SOL    HW285569   7.567   2.268   8.722  0.8867 -1.0076  1.4582
27944SOL     OW85570   6.020   1.051   2.914 -0.4969 -0.3001 -0.1690
27944SOL    HW185571   6.012   1.075   3.006  0.3574  1.2440 -0.4648
27944SOL    HW285572   5.941   0.999   2.895 -0.9650 -0.1303  1.2643
27945SOL     OW85573   9.293   3.030   6.245  0.6519  0.1379  0.4203
27945SOL    HW185574   9.274   3.106   6.300  0.2251 -0.3574  0.9735
27945SOL    HW285575   9.212   3.015   6.196  0.6613 -0.0888  0.4723
27946SOL     OW85576   5.635   8.630   0.093  0.0020 -0.1120 -0.2397
27946SOL    HW185577   5.620   8.679   0.174 -0.3405 -1.4987  0.5767
27946SOL    HW285578   5.728   8.608   0.095  0.5375  1.7930 -1.4034
27947SOL     OW85579   8.442   0.107   6.244 -0.0008 -0.2890 -0.0585
27947SOL    HW185580   8.353   0.090   6.211 -0.2898  2.0974 -0.7177
27947SOL    HW285581   8.480   0.166   6.180  1.6968 -0.4338  0.7736
27948SOL     OW85582   3.301   3.623   4.606  0.5726 -0.4316  0.3642
27948SOL    HW185583   3.251   3.705   4.600 -1.3655 -1.5476  0.6145
27948SOL    HW285584   3.277   3.574   4.528  0.8969 -1.2195  0.7463
27949SOL     OW85585   4.749   1.239   6.589 -0.7815  0.1088 -0.0126
27949SOL    HW185586   4.793   1.164   6.551 -0.1978  0.1432  0.5853
27949SOL    HW285587   4.664   1.242   6.545 -0.4186 -0.3000 -0.7543
27950SOL     OW85588   3.606   3.106   9.189  0.2024 -0.7826  0.0435
27950SOL    HW185589   3.595   3.166   9.116  2.3477 -2.0019 -1.3995
27950SOL    HW285590   3.517   3.079   9.212 -0.5451 -1.6880 -3.3175
27951SOL     OW85591   9.114   8.462   0.743  0.2058  0.0652 -0.3303
27951SOL    HW185592   9.148   8.482   0.830  0.9170  0.8674 -0.7835
27951SOL    HW285593   9.185   8.485   0.683 -0.6981  0.6458 -1.2090
27952SOL     OW85594   5.027   4.532   7.480 -0.0622  0.2107 -0.2491
27952SOL    HW185595   5.098   4.514   7.542  0.2088 -0.7967 -0.8133
27952SOL    HW285596   5.071   4.572   7.405 -0.4734  2.0167  0.4178
27953SOL     OW85597   8.953   3.702   2.026 -0.1528  0.2324  0.3679
27953SOL    HW185598   8.921   3.741   1.945  0.9603  0.9931  0.2645
27953SOL    HW285599   9.043   3.733   2.034 -0.1009 -0.1593  1.6845
27954SOL     OW85600   4.339   8.723   8.398 -0.1753  0.0341  0.2209
27954SOL    HW185601   4.318   8.802   8.449 -0.9282 -0.6450  0.9942
27954SOL    HW285602   4.400   8.674   8.454  0.2846  0.0614 -0.2531
27955SOL     OW85603   8.157   9.505   2.815 -0.4509  0.1936  0.4598
27955SOL    HW185604   8.128   9.579   2.761  0.0311  0.1845  0.1796
27955SOL    HW285605   8.088   9.439   2.804 -1.5561  1.0793  1.7695
27956SOL     OW85606   5.828   8.506   6.407 -0.3878  0.3389  0.5878
27956SOL    HW185607   5.762   8.456   6.456  0.0071  0.1638  0.9393
27956SOL    HW285608   5.776   8.571   6.360 -0.8695 -0.1420  0.4348
27957SOL     OW85609   0.689   1.070   5.325  0.1262 -0.3305 -0.1938
27957SOL    HW185610   0.676   1.059   5.231  0.8103 -0.6903 -0.2470
27957SOL    HW285611   0.782   1.089   5.335 -0.2965  1.7570  0.2291
27958SOL     OW85612   4.179   8.672   1.155 -0.0236 -0.2330 -1.0223
27958SOL    HW185613   4.108   8.732   1.177  0.2492 -0.1483 -0.3363
27958SOL    HW285614   4.199   8.692   1.063 -1.0114 -0.4020 -1.2869
27959SOL     OW85615   0.512   1.907   9.130  0.3502 -0.5513  0.1908
27959SOL    HW185616   0.597   1.911   9.173  0.2736 -1.5011  0.4539
27959SOL    HW285617   0.449   1.919   9.201  0.2115 -2.5259  0.4563
27960SOL     OW85618   1.951   3.350   4.548  0.5181 -0.8413  0.9920
27960SOL    HW185619   1.989   3.262   4.548 -1.5588 -1.8058  2.2401
27960SOL    HW285620   1.926   3.367   4.639 -0.3622  0.4684  0.5493
27961SOL     OW85621   5.096   3.260   1.796 -0.2329  0.1869 -0.0341
27961SOL    HW185622   5.126   3.319   1.727  0.2268 -0.0381 -0.0256
27961SOL    HW285623   5.117   3.306   1.877 -0.3693  0.2506 -0.0336
27962SOL     OW85624   1.980   5.712   7.621  0.1791 -0.4194  0.0929
27962SOL    HW185625   2.041   5.754   7.681 -0.6499  1.6419 -0.4403
27962SOL    HW285626   1.897   5.757   7.635 -0.2374 -0.4413 -1.9928
27963SOL     OW85627   4.260   4.429   3.640 -0.7745 -1.0578  0.0945
27963SOL    HW185628   4.226   4.343   3.615 -0.3493 -1.0237 -0.6155
27963SOL    HW285629   4.211   4.491   3.586 -0.7630 -0.8900  0.2778
27964SOL     OW85630   7.087   9.199   4.075 -0.0892  0.4789 -0.1544
27964SOL    HW185631   7.117   9.109   4.061 -0.4136  0.2635  0.4777
27964SOL    HW285632   7.101   9.215   4.168 -1.3649  0.5605  0.0530
27965SOL     OW85633   4.698   1.911   9.503  0.5044 -0.1561  0.6480
27965SOL    HW185634   4.725   1.998   9.473  0.5956  0.2775  1.9207
27965SOL    HW285635   4.605   1.920   9.522  0.0983 -0.8252 -0.8237
27966SOL     OW85636   8.354   0.248   5.752  0.4792  0.4941 -0.1113
27966SOL    HW185637   8.316   0.321   5.800 -0.9244  0.1661 -0.6954
27966SOL    HW285638   8.416   0.209   5.814  0.8493  1.8323  0.3912
27967SOL     OW85639   4.233   7.812   7.141 -0.3342 -0.8133 -0.1161
27967SOL    HW185640   4.148   7.853   7.130 -1.2699 -2.7543 -0.5036
27967SOL    HW285641   4.280   7.834   7.060 -0.3121  0.5317  0.2395
27968SOL     OW85642   8.403   2.750   6.799 -0.2494  0.1239 -0.1562
27968SOL    HW185643   8.336   2.752   6.731  0.3666  0.8504 -0.7597
27968SOL    HW285644   8.354   2.732   6.880 -1.0265 -0.4068 -0.7288
27969SOL     OW85645   6.458   7.710   8.906 -0.2434  0.2819  0.4286
27969SOL    HW185646   6.543   7.669   8.889  1.5510  2.9690  2.0956
27969SOL    HW285647   6.440   7.692   8.998 -1.4749 -0.1770  0.1137
27970SOL     OW85648   1.003   6.776   4.219 -0.2686 -0.0234  0.0639
27970SOL    HW185649   1.023   6.709   4.284  0.2004 -0.1599 -0.2155
27970SOL    HW285650   1.061   6.756   4.145 -1.4096 -0.4106 -0.7579
27971SOL     OW85651   3.780   3.207   1.714  0.6726 -0.4041 -0.0148
27971SOL    HW185652   3.774   3.302   1.723  1.2286 -0.3218 -0.4875
27971SOL    HW285653   3.722   3.186   1.641 -0.5693 -0.6013  0.9928
27972SOL     OW85654   4.164   5.293   3.647  0.1558  0.0602  0.2740
27972SOL    HW185655   4.105   5.328   3.581 -1.0261 -1.2426  0.5775
27972SOL    HW285656   4.178   5.366   3.707 -1.6898  0.2582  0.5425
27973SOL     OW85657   2.081   1.531   0.658 -0.3023 -0.3220 -0.0195
27973SOL    HW185658   2.050   1.479   0.732  1.0501  0.5301  1.2031
27973SOL    HW285659   2.019   1.604   0.653 -1.2043 -1.1177 -0.6373
27974SOL     OW85660   9.297   2.212   9.601  0.4178 -0.4213  0.0595
27974SOL    HW185661   9.209   2.198   9.636  0.8470 -0.1212  1.2749
27974SOL    HW285662   9.347   2.137   9.630  1.4073  1.0049  2.2498
27975SOL     OW85663   6.418   5.933   8.816 -0.0052 -0.3623  0.6996
27975SOL    HW185664   6.338   5.902   8.860 -1.0473  0.4521 -0.5580
27975SOL    HW285665   6.480   5.946   8.888 -0.8847 -1.3378  1.6812
27976SOL     OW85666   3.620   1.586   2.437  0.6126 -0.1351 -0.3665
27976SOL    HW185667   3.532   1.605   2.471  0.7546  0.6474 -0.4235
27976SOL    HW285668   3.643   1.502   2.476 -0.3154 -0.5397 -0.6505
27977SOL     OW85669   8.418   0.943   3.586 -0.3352  0.8848 -0.1771
27977SOL    HW185670   8.361   0.922   3.660  0.6874 -0.1317  0.3719
27977SOL    HW285671   8.391   0.883   3.517 -1.0741  1.6116 -0.5343
27978SOL     OW85672   6.121   6.191   7.089 -0.3161  0.5058  0.1954
27978SOL    HW185673   6.051   6.176   7.152  1.2037 -1.6184  1.5269
27978SOL    HW285674   6.107   6.125   7.021  1.4982 -1.4527  1.5869
27979SOL     OW85675   4.771   7.236   2.226 -0.4934 -0.4120  0.0686
27979SOL    HW185676   4.848   7.270   2.181  1.7701 -2.0217  2.3852
27979SOL    HW285677   4.795   7.146   2.249 -2.8394 -0.7654  1.4570
27980SOL     OW85678   8.226   2.513   7.470  0.2729  0.5636 -0.0037
27980SOL    HW185679   8.207   2.422   7.448  0.1662  0.4225  0.6526
27980SOL    HW285680   8.268   2.510   7.556 -1.5119  1.2474  0.9549
27981SOL     OW85681   7.962   2.487   4.265  0.6010 -0.2858  0.1655
27981SOL    HW185682   7.958   2.392   4.276  0.5949  0.0642  4.9561
27981SOL    HW285683   7.873   2.518   4.286  0.6451  0.8555 -1.1568
27982SOL     OW85684   8.653   0.553   8.890 -0.0283 -0.1069 -0.1271
27982SOL    HW185685   8.682   0.480   8.945  0.8598 -1.2815 -2.0586
27982SOL    HW285686   8.733   0.598   8.865 -0.1001 -1.1310 -2.4650
27983SOL     OW85687   7.414   1.486   5.562  0.4303  0.2788  0.2764
27983SOL    HW185688   7.349   1.554   5.575  0.5479  0.1134  1.8543
27983SOL    HW285689   7.401   1.424   5.633  0.7876 -1.0063 -0.7182
27984SOL     OW85690   0.015   5.177   7.009  0.4878 -0.5237  0.1983
27984SOL    HW185691   0.067   5.219   7.078  1.3615  0.6530 -1.1080
27984SOL    HW285692   0.070   5.106   6.978  0.3539 -0.6718  0.3000
27985SOL     OW85693   7.421   3.514   5.225  0.1047 -0.4604 -0.1391
27985SOL    HW185694   7.492   3.538   5.286  0.5856 -1.1918 -0.4025
27985SOL    HW285695   7.414   3.589   5.166  0.8796 -0.5124 -0.3084
27986SOL     OW85696   2.677   6.692   8.608  0.1859  0.1717 -0.1958
27986SOL    HW185697   2.621   6.741   8.548 -2.1063 -2.4700 -0.3837
27986SOL    HW285698   2.721   6.627   8.553  0.2190 -0.4726  0.5775
27987SOL     OW85699   0.370   1.739   9.002 -0.9153 -0.5784 -0.2919
27987SOL    HW185700   0.418   1.708   8.926 -0.1198  0.1207 -0.0848
27987SOL    HW285701   0.434   1.787   9.054 -1.3988 -1.1888  0.9195
27988SOL     OW85702   5.505   0.923   5.081 -0.0004  0.3941  0.1012
27988SOL    HW185703   5.473   0.939   5.170 -0.1245  1.0775 -0.0589
27988SOL    HW285704   5.512   1.010   5.042 -1.2816  0.0220 -1.0177
27989SOL     OW85705   5.982   2.724   6.015 -0.6237 -0.0841 -0.3096
27989SOL    HW185706   6.008   2.734   5.923  0.2527  0.7348  0.0074
27989SOL    HW285707   6.065   2.712   6.062 -0.7500  2.3740  0.7121
27990SOL     OW85708   5.284   0.040   9.139 -0.0650  0.0176  0.5170
27990SOL    HW185709   5.233   0.113   9.103 -1.8059 -0.7453  1.2958
27990SOL    HW285710   5.327   0.001   9.063 -2.6440 -0.7775 -0.6519
27991SOL     OW85711   2.201   1.471   8.748  0.0703 -0.0307 -0.5470
27991SOL    HW185712   2.226   1.388   8.789  0.3493 -0.1205 -0.8989
27991SOL    HW285713   2.221   1.537   8.815 -0.4267 -0.2674 -0.1551
27992SOL     OW85714   5.806   2.160   7.065  0.3527  0.2082  0.1484
27992SOL    HW185715   5.862   2.235   7.086  0.0868  0.2166  0.8797
27992SOL    HW285716   5.730   2.171   7.122  0.3019 -0.6051  0.2460
27993SOL     OW85717   1.733   9.363   2.850  0.0775 -0.4556 -0.0970
27993SOL    HW185718   1.640   9.384   2.849 -1.0591 -4.5784 -0.8711
27993SOL    HW285719   1.751   9.338   2.941  0.6185  0.9191  0.1845
27994SOL     OW85720   7.091   5.073   7.406 -0.5666 -0.2572 -0.1333
27994SOL    HW185721   7.012   5.035   7.444 -1.0648  0.7030 -0.1896
27994SOL    HW285722   7.083   5.167   7.421  1.0303 -0.2178  0.7105
27995SOL     OW85723   5.057   4.767   3.514  0.1562 -0.7946 -0.0310
27995SOL    HW185724   4.997   4.722   3.454  1.3098 -1.4278 -0.7489
27995SOL    HW285725   5.011   4.769   3.597 -1.6609  0.4399 -0.9943
27996SOL     OW85726   4.567   3.791   9.269  0.5998  0.1500  0.6538
27996SOL    HW185727   4.482   3.830   9.251 -0.0583 -1.6713 -0.4401
27996SOL    HW285728   4.631   3.855   9.239 -0.4258 -0.4169 -3.2737
27997SOL     OW85729   3.797   2.657   0.285  0.5081  0.0923 -0.4539
27997SOL    HW185730   3.787   2.562   0.276 -2.7877  0.2728  0.2459
27997SOL    HW285731   3.861   2.667   0.355  2.2167 -1.5210 -1.6585
27998SOL     OW85732   4.711   4.513   4.863  0.2917  0.7983 -0.4155
27998SOL    HW185733   4.777   4.574   4.832 -0.3618  1.4207 -0.6002
27998SOL    HW285734   4.673   4.476   4.783 -0.2586  1.1787 -0.3336
27999SOL     OW85735   2.617   0.191   5.007  0.4632  0.2750  0.0844
27999SOL    HW185736   2.704   0.161   4.982  1.3283  0.9151  2.1211
27999SOL    HW285737   2.595   0.258   4.941  0.4152 -1.5490 -1.8465
28000SOL     OW85738   2.340   3.679   2.893 -0.0601  0.3472 -0.5217
28000SOL    HW185739   2.399   3.754   2.881  1.5541 -0.9341 -0.8241
28000SOL    HW285740   2.256   3.719   2.919  1.4322  2.1500  1.9985
28001SOL     OW85741   5.900   5.534   1.668  0.0047 -0.4544  0.1947
28001SOL    HW185742   5.983   5.534   1.620 -0.1418  0.3897 -0.0796
28001SOL    HW285743   5.883   5.442   1.687 -0.1330 -0.8562 -1.7211
28002SOL     OW85744   6.983   0.044   5.941  0.4625  0.1255  0.1088
28002SOL    HW185745   7.036   0.057   5.862  0.5947 -0.9806 -0.0035
28002SOL    HW285746   6.923   0.118   5.943  1.6478  1.1168 -0.0637
28003SOL     OW85747   8.685   4.577   5.505  0.3558  0.3623  0.4753
28003SOL    HW185748   8.770   4.619   5.505  0.0240  1.0904 -0.9195
28003SOL    HW285749   8.654   4.584   5.596  1.5157  0.6001  0.8597
28004SOL     OW85750   5.734   0.187   5.736 -0.4860 -0.2081  0.0667
28004SOL    HW185751   5.762   0.227   5.654 -0.7404  1.1490  0.6083
28004SOL    HW285752   5.815   0.176   5.786 -0.5389  0.7829  0.3893
28005SOL     OW85753   4.630   5.949   7.496 -0.5234  0.4463  0.2450
28005SOL    HW185754   4.649   5.972   7.405 -0.2790  0.0280  0.1852
28005SOL    HW285755   4.629   6.033   7.542 -0.2639  0.6296 -0.0750
28006SOL     OW85756   5.171   4.792   1.616  0.2132  0.0656 -0.1771
28006SOL    HW185757   5.241   4.856   1.619 -0.3195  0.6165  2.1913
28006SOL    HW285758   5.124   4.812   1.535 -0.5638  3.4125  0.9563
28007SOL     OW85759   8.355   4.687   4.410  0.3163 -0.4084 -0.3893
28007SOL    HW185760   8.337   4.614   4.469  1.1014 -0.6551 -0.4419
28007SOL    HW285761   8.288   4.752   4.430  1.5262  0.2234  1.9734
28008SOL     OW85762   1.903   3.808   1.354 -0.1547  0.2720  0.1757
28008SOL    HW185763   1.856   3.725   1.367 -1.4854  1.0419  0.4149
28008SOL    HW285764   1.896   3.853   1.438  0.1301  0.8351 -0.0973
28009SOL     OW85765   6.093   2.613   7.180  0.5682 -0.0675 -0.1710
28009SOL    HW185766   6.167   2.666   7.211  1.0121 -0.9796  0.3549
28009SOL    HW285767   6.091   2.628   7.085  1.9482 -0.6689 -0.3171
28010SOL     OW85768   8.127   0.342   4.465  0.0488  0.0728 -0.3837
28010SOL    HW185769   8.087   0.323   4.380  1.8246  1.7225 -1.6772
28010SOL    HW285770   8.185   0.267   4.481  1.1442  0.6054 -1.6181
28011SOL     OW85771   2.442   0.344   8.717 -0.2125  0.2613  0.2332
28011SOL    HW185772   2.532   0.376   8.713  0.6229 -1.6820  1.5828
28011SOL    HW285773   2.409   0.376   8.801  0.1261 -1.0619  0.9033
28012SOL     OW85774   9.267   9.010   7.850  0.0971  0.1730 -0.3135
28012SOL    HW185775   9.202   9.040   7.914  0.5460  2.7215 -0.9586
28012SOL    HW285776   9.348   9.003   7.900 -0.1331 -0.6214 -0.0332
28013SOL     OW85777   2.023   8.291   9.528 -0.0720 -0.4408 -0.0788
28013SOL    HW185778   2.082   8.356   9.567 -0.2401  1.1604 -2.3174
28013SOL    HW285779   2.062   8.273   9.442 -1.5212 -1.2446 -0.5919
28014SOL     OW85780   7.008   2.138   0.348  0.1448 -0.0394  0.1618
28014SOL    HW185781   7.070   2.107   0.282 -1.2605  0.1650 -1.3235
28014SOL    HW285782   7.025   2.232   0.355  1.2163 -0.2870  1.1457
28015SOL     OW85783   0.320   8.593   6.227 -0.0262 -0.0348  0.3168
28015SOL    HW185784   0.344   8.618   6.317  0.7618  0.7572 -0.1027
28015SOL    HW285785   0.242   8.538   6.238  0.0230  0.0969  1.4817
28016SOL     OW85786   7.913   2.405   1.554  0.1275 -0.3887 -0.4599
28016SOL    HW185787   8.000   2.438   1.534  1.3528 -1.0318  3.0743
28016SOL    HW285788   7.912   2.315   1.520  0.2392  0.0854 -1.7782
28017SOL     OW85789   6.141   8.825   7.802 -0.1750 -0.1256 -0.4289
28017SOL    HW185790   6.079   8.757   7.829  0.5914 -0.6335  0.0934
28017SOL    HW285791   6.226   8.782   7.803  0.2743  0.7307 -0.5117
28018SOL     OW85792   2.894   1.133   1.449 -0.2892 -0.5876  0.4247
28018SOL    HW185793   2.939   1.049   1.452 -0.4722 -0.6866  0.3802
28018SOL    HW285794   2.846   1.138   1.532 -0.1671 -0.4652  0.4891
28019SOL     OW85795   4.140   6.584   6.487 -1.2828 -0.2259  0.2557
28019SOL    HW185796   4.099   6.668   6.507 -3.3100 -0.8409 -1.0885
28019SOL    HW285797   4.131   6.574   6.393  3.4448  0.2802 -0.5354
28020SOL     OW85798   8.650   1.222   4.073 -0.3058 -0.2957 -0.0200
28020SOL    HW185799   8.576   1.256   4.022 -1.4748 -1.1890  1.0138
28020SOL    HW285800   8.642   1.265   4.158 -0.4315 -1.3866  0.5385
28021SOL     OW85801   1.387   8.254   4.975  0.3748  0.4623  0.1678
28021SOL    HW185802   1.368   8.169   4.935  0.7625  0.5929 -0.3047
28021SOL    HW285803   1.367   8.242   5.067 -0.1783  0.0412  0.0008
28022SOL     OW85804   3.541   5.503   3.380 -0.3782 -0.4417  0.5416
28022SOL    HW185805   3.503   5.517   3.293 -1.6168  0.5301  1.2013
28022SOL    HW285806   3.576   5.588   3.405  0.2736 -0.8020  0.8678
28023SOL     OW85807   1.247   7.063   7.713 -0.6743  0.0391 -0.0260
28023SOL    HW185808   1.282   7.151   7.723 -1.0073  0.1834 -0.1216
28023SOL    HW285809   1.183   7.055   7.783 -0.0664 -0.4222  0.4947
28024SOL     OW85810   1.133   7.139   6.635  0.2785  0.1303 -0.4043
28024SOL    HW185811   1.201   7.178   6.691 -1.4265  2.2551  0.3148
28024SOL    HW285812   1.153   7.046   6.635  1.5139  0.3114  2.1454
28025SOL     OW85813   2.344   4.059   1.584 -0.3023 -0.0340 -0.5113
28025SOL    HW185814   2.252   4.051   1.559 -0.3701  2.4894 -1.3245
28025SOL    HW285815   2.346   4.039   1.677 -1.5937 -0.5593 -0.5834
28026SOL     OW85816   1.424   1.124   2.854 -0.2150 -0.1100 -0.1368
28026SOL    HW185817   1.494   1.171   2.810 -1.0293  0.5309 -0.7692
28026SOL    HW285818   1.389   1.064   2.788 -0.3308 -0.3548  0.1426
28027SOL     OW85819   0.820   2.175   6.658 -0.0322 -0.2797  0.0029
28027SOL    HW185820   0.735   2.145   6.689 -0.5552 -0.3048 -1.4060
28027SOL    HW285821   0.856   2.225   6.731 -0.4284 -1.8028  1.3000
28028SOL     OW85822   3.412   6.247   2.436 -0.1157  0.1583  0.0480
28028SOL    HW185823   3.455   6.331   2.418  0.9578 -0.2635  0.5509
28028SOL    HW285824   3.319   6.265   2.425  0.1108  1.3752 -0.0256
28029SOL     OW85825   5.128   6.204   5.117  0.0501 -0.2975 -0.1299
28029SOL    HW185826   5.205   6.167   5.073  0.6305 -0.9987  1.4130
28029SOL    HW285827   5.160   6.282   5.161  0.1019 -1.0563  1.2225
28030SOL     OW85828   6.676   1.983   9.105 -0.1341  0.0503 -0.0524
28030SOL    HW185829   6.584   2.007   9.098  0.4240  1.9623 -1.5092
28030SOL    HW285830   6.723   2.049   9.053  2.1570 -0.2614  1.4641
28031SOL     OW85831   5.454   8.765   0.725  0.1164  0.3628 -0.1048
28031SOL    HW185832   5.537   8.736   0.763 -0.1244 -0.7840 -0.4070
28031SOL    HW285833   5.401   8.792   0.800  0.8322  1.3041  0.0700
28032SOL     OW85834   9.173   6.301   8.209  0.3434 -0.5984  0.3864
28032SOL    HW185835   9.264   6.319   8.233 -0.0365  1.1138  0.6740
28032SOL    HW285836   9.163   6.338   8.122  0.3617 -2.3660 -0.4099
28033SOL     OW85837   8.800   2.973   1.824  0.2487 -0.1525 -0.3619
28033SOL    HW185838   8.792   2.894   1.770  1.8024 -1.0854  0.6755
28033SOL    HW285839   8.744   3.037   1.782  1.0352 -0.9764 -2.7937
28034SOL     OW85840   4.968   8.577   3.487  0.2809  0.3383  0.3400
28034SOL    HW185841   4.949   8.652   3.544  0.2011  0.4873  0.1177
28034SOL    HW285842   5.059   8.589   3.461 -0.0899  1.0618 -0.7285
28035SOL     OW85843   7.411   7.075   2.589  0.2848 -0.5249  0.1796
28035SOL    HW185844   7.425   7.095   2.682 -0.7795 -0.8216  0.4131
28035SOL    HW285845   7.473   7.131   2.543 -0.5733  1.1540  0.9707
28036SOL     OW85846   4.087   6.847   7.130 -1.1303 -0.1048  0.2828
28036SOL    HW185847   4.107   6.934   7.164  4.4196 -1.6584  2.0401
28036SOL    HW285848   4.110   6.852   7.037 -2.0707  0.5785  0.0781
28037SOL     OW85849   3.875   2.626   6.545  0.2270 -0.5401  0.1615
28037SOL    HW185850   3.915   2.673   6.619  0.7448 -1.1895  0.3098
28037SOL    HW285851   3.888   2.533   6.567 -1.3545 -0.7744  0.1877
28038SOL     OW85852   2.342   2.628   5.085 -1.0563  0.0982  0.2286
28038SOL    HW185853   2.371   2.546   5.124 -2.5582  0.6579  2.7268
28038SOL    HW285854   2.249   2.632   5.104 -1.2729  1.8238 -0.9399
28039SOL     OW85855   5.051   1.332   1.026  0.2400 -0.1041 -0.4477
28039SOL    HW185856   5.074   1.416   1.066  0.0132 -0.0301 -0.4721
28039SOL    HW285857   5.133   1.298   0.992  0.4667 -0.2315  0.2074
28040SOL     OW85858   8.679   7.728   2.246  0.0945  0.1453  0.6039
28040SOL    HW185859   8.728   7.809   2.236 -0.7874  0.7617  1.0922
28040SOL    HW285860   8.744   7.659   2.236  0.7680  0.8933 -0.3363
28041SOL     OW85861   9.381   0.411   0.880 -0.4867 -0.6310  0.0077
28041SOL    HW185862   9.305   0.459   0.913  0.3680  0.0929  0.9670
28041SOL    HW285863   9.445   0.479   0.859  0.9391 -1.3224  1.8699
28042SOL     OW85864   8.921   2.602   5.834 -0.2677 -0.0536  0.2650
28042SOL    HW185865   8.941   2.677   5.779  2.3486 -0.0519  1.0723
28042SOL    HW285866   8.912   2.639   5.922 -0.2500 -0.5353  0.4728
28043SOL     OW85867   6.222   5.399   0.282  0.4026  0.7738 -0.2090
28043SOL    HW185868   6.256   5.456   0.352 -0.5048  1.6581 -0.4602
28043SOL    HW285869   6.157   5.345   0.326  1.7737 -0.6193  0.1826
28044SOL     OW85870   7.780   0.337   7.598 -0.3006 -0.5750 -0.0483
28044SOL    HW185871   7.800   0.416   7.547  0.0772 -0.3132  0.5027
28044SOL    HW285872   7.787   0.266   7.534  0.0144 -0.2332 -0.4028
28045SOL     OW85873   1.222   2.933   0.408 -0.2734 -0.3313  0.1779
28045SOL    HW185874   1.255   3.023   0.405  1.3708 -0.8678  1.1794
28045SOL    HW285875   1.130   2.943   0.431 -0.0418  1.0857  0.6097
28046SOL     OW85876   4.470   6.587   4.382  0.5280 -0.2971 -0.1191
28046SOL    HW185877   4.456   6.592   4.288 -0.4618  2.5998  0.0612
28046SOL    HW285878   4.564   6.606   4.393  0.3511  0.8833 -0.4959
28047SOL     OW85879   0.949   6.361   6.537 -0.0908 -0.0776  0.3225
28047SOL    HW185880   0.910   6.412   6.608 -1.0892  0.3471 -0.4907
28047SOL    HW285881   0.883   6.295   6.516  0.6200 -0.8371  0.4510
28048SOL     OW85882   7.694   1.982   7.458  0.3163 -0.0753  0.2774
28048SOL    HW185883   7.726   2.064   7.420  0.7332  0.3599  1.5412
28048SOL    HW285884   7.619   1.959   7.404  0.1327  1.1846 -0.0407
28049SOL     OW85885   5.562   1.232   5.578  0.6214 -0.6131  0.2093
28049SOL    HW185886   5.521   1.293   5.639  2.0910 -0.9388  1.6049
28049SOL    HW285887   5.500   1.160   5.571 -0.9442  0.7877 -1.1343
28050SOL     OW85888   1.559   6.403   1.007 -0.5929 -0.0860 -0.1372
28050SOL    HW185889   1.563   6.337   0.938  0.3800  0.5211 -0.6821
28050SOL    HW285890   1.644   6.399   1.050 -1.0048 -0.0943  0.6916
28051SOL     OW85891   6.133   7.283   6.182  0.3193 -0.3564  0.3489
28051SOL    HW185892   6.212   7.335   6.188 -0.7723  1.7338 -1.8669
28051SOL    HW285893   6.065   7.338   6.221 -0.4243 -1.2948  0.4322
28052SOL     OW85894   6.832   6.248   4.505 -0.1444 -0.1686 -0.0041
28052SOL    HW185895   6.914   6.289   4.478 -1.0308  1.5051 -0.3167
28052SOL    HW285896   6.809   6.190   4.433  0.7856 -0.6854  0.1077
28053SOL     OW85897   0.373   6.665   8.137 -0.0528  0.0642 -0.2768
28053SOL    HW185898   0.377   6.575   8.105  1.0591  0.3828 -1.0886
28053SOL    HW285899   0.410   6.717   8.066 -0.7664  1.1851  0.1387
28054SOL     OW85900   9.170   7.417   4.800 -0.3289 -0.0594  0.5940
28054SOL    HW185901   9.157   7.485   4.734  0.7913 -1.0529 -0.7002
28054SOL    HW285902   9.241   7.450   4.855  0.2070 -0.1643 -0.0241
28055SOL     OW85903   8.440   9.026   2.833 -0.3409 -0.0828  0.0018
28055SOL    HW185904   8.416   9.079   2.757 -0.4524 -0.7335 -0.4263
28055SOL    HW285905   8.360   9.023   2.886  0.2042  1.7209  0.9722
28056SOL     OW85906   3.682   5.535   3.014 -0.0733  0.0901  0.2609
28056SOL    HW185907   3.608   5.580   3.054  0.9872  0.8698  1.4325
28056SOL    HW285908   3.678   5.446   3.049  1.3514  0.9833  2.9721
28057SOL     OW85909   1.695   3.160   8.041 -0.4567 -0.1080 -0.5991
28057SOL    HW185910   1.726   3.186   8.128  1.5821 -2.0893 -0.6613
28057SOL    HW285911   1.717   3.234   7.985  0.1115  0.3348  0.1894
28058SOL     OW85912   3.552   6.526   6.731 -0.5519  0.5712  0.2911
28058SOL    HW185913   3.573   6.478   6.650  0.3072 -0.1173  0.9014
28058SOL    HW285914   3.484   6.588   6.705 -0.2925  0.3606 -0.9644
28059SOL     OW85915   6.140   7.657   6.841  0.0877  0.5168 -0.5007
28059SOL    HW185916   6.150   7.752   6.842 -0.3726  0.5636  0.0121
28059SOL    HW285917   6.046   7.642   6.832  0.0687  0.1197  0.2318
28060SOL     OW85918   2.854   6.592   2.664  0.1944 -0.1279 -0.4206
28060SOL    HW185919   2.910   6.667   2.681 -3.2096  2.4767  0.3275
28060SOL    HW285920   2.833   6.558   2.751  0.0977 -0.6762 -0.6561
28061SOL     OW85921   6.001   5.246   3.691 -0.0709 -0.9391 -0.2805
28061SOL    HW185922   6.004   5.153   3.713 -2.9836 -1.3722 -1.3535
28061SOL    HW285923   5.930   5.282   3.744 -0.2163  0.2652 -1.2345
28062SOL     OW85924   5.580   3.428   6.875 -0.0796  0.3445 -0.0788
28062SOL    HW185925   5.598   3.363   6.808 -0.6958 -0.1936  0.2541
28062SOL    HW285926   5.644   3.410   6.944 -0.9399 -0.6533  0.4954
28063SOL     OW85927   1.856   4.776   4.608  0.0601  0.6121  0.0379
28063SOL    HW185928   1.889   4.844   4.549  1.6995 -0.3153 -0.1629
28063SOL    HW285929   1.825   4.824   4.685 -0.6272  1.7108 -0.8820
28064SOL     OW85930   7.519   5.129   7.146 -0.3557 -0.2649 -0.0972
28064SOL    HW185931   7.434   5.099   7.177 -0.6384  0.6678  0.0557
28064SOL    HW285932   7.514   5.224   7.151  0.9642 -0.2126  0.6403
28065SOL     OW85933   2.283   8.835   2.146 -0.2378 -0.1957 -0.4753
28065SOL    HW185934   2.300   8.919   2.103 -1.7039 -1.2026 -3.3009
28065SOL    HW285935   2.243   8.859   2.230  1.3717  1.8910 -0.2258
28066SOL     OW85936   2.239   6.476   4.159  0.3790 -0.0936 -0.0127
28066SOL    HW185937   2.259   6.547   4.099  1.4172  0.0049  0.4258
28066SOL    HW285938   2.308   6.480   4.225 -0.4589 -0.4963  0.9194
28067SOL     OW85939   6.984   3.496   6.873 -0.4684 -0.1436 -0.5096
28067SOL    HW185940   6.989   3.520   6.781  0.0830  1.9615  0.0218
28067SOL    HW285941   6.911   3.547   6.907  0.7796  0.9524  0.6798
28068SOL     OW85942   0.127   7.318   4.839  0.2243 -0.5604  0.4297
28068SOL    HW185943   0.037   7.297   4.866 -0.4021  1.9503  0.5178
28068SOL    HW285944   0.182   7.264   4.895 -1.1991 -1.5815  0.9068
28069SOL     OW85945   3.818   8.495   7.202  0.0395  0.2359  0.0983
28069SOL    HW185946   3.855   8.562   7.259  0.6293  0.1727 -0.2011
28069SOL    HW285947   3.732   8.529   7.177 -0.4755  0.0242  1.4519
28070SOL     OW85948   1.829   5.526   5.016  0.3086  0.1653  0.2297
28070SOL    HW185949   1.906   5.518   5.072 -0.5683 -0.5757  1.3786
28070SOL    HW285950   1.755   5.526   5.077 -0.6261  0.3969 -0.8752
28071SOL     OW85951   5.503   7.584   4.652  0.2310  0.5131  0.1511
28071SOL    HW185952   5.591   7.571   4.687  0.1411 -1.0202 -0.1274
28071SOL    HW285953   5.469   7.659   4.701  1.5574  0.9220  0.4976
28072SOL     OW85954   6.788   7.789   1.379 -0.6961 -0.2202  0.0224
28072SOL    HW185955   6.860   7.833   1.423  0.2664  0.2753 -1.9230
28072SOL    HW285956   6.741   7.743   1.449  0.1896  1.2265  1.6502
28073SOL     OW85957   2.457   1.189   3.373  0.1676 -0.1334  0.0244
28073SOL    HW185958   2.372   1.149   3.353  0.1927 -0.9041  1.3161
28073SOL    HW285959   2.504   1.122   3.423  0.9722  0.8228  0.5950
28074SOL     OW85960   8.297   7.739   6.030 -0.0487  0.1257  0.3576
28074SOL    HW185961   8.203   7.759   6.028 -0.5145 -1.7604  0.7706
28074SOL    HW285962   8.313   7.691   5.948 -0.0767 -1.8267  1.4248
28075SOL     OW85963   3.370   8.513   2.134 -0.3630 -0.4314 -0.0878
28075SOL    HW185964   3.406   8.597   2.104 -1.6866 -0.1455 -0.9754
28075SOL    HW285965   3.334   8.533   2.220 -0.2238 -0.2047 -0.0799
28076SOL     OW85966   8.096   5.720   9.173  0.3016  0.3461  0.4101
28076SOL    HW185967   8.101   5.748   9.081  0.7645  0.0646  0.3482
28076SOL    HW285968   8.046   5.639   9.170 -0.3494  0.7337  0.4995
28077SOL     OW85969   8.209   3.454   2.043 -0.1143  0.2290  0.5429
28077SOL    HW185970   8.153   3.461   2.121 -0.0288  0.6041  0.5758
28077SOL    HW285971   8.171   3.516   1.981 -0.3103 -0.2285  0.2030
28078SOL     OW85972   7.298   7.655   7.099  0.2718  0.3073 -0.5240
28078SOL    HW185973   7.286   7.709   7.177 -0.6076 -0.0356 -0.4062
28078SOL    HW285974   7.382   7.611   7.112 -0.2912 -0.4503  0.6620
28079SOL     OW85975   3.332   8.838   0.529 -0.6272 -0.1794  0.4265
28079SOL    HW185976   3.281   8.795   0.598  1.2717  0.5458  2.4050
28079SOL    HW285977   3.376   8.766   0.484 -2.2126 -0.6949 -0.3794
28080SOL     OW85978   6.633   8.676   0.877 -0.2997  0.4289 -0.1367
28080SOL    HW185979   6.699   8.614   0.907  2.9683  3.9625  0.6996
28080SOL    HW285980   6.654   8.694   0.786  0.0973  1.7412  0.1902
28081SOL     OW85981   5.672   8.242   8.407 -0.3758 -0.6352  0.0374
28081SOL    HW185982   5.579   8.253   8.390 -0.4219  0.3998  0.8718
28081SOL    HW285983   5.696   8.317   8.462  1.4651  0.5220 -2.1206
28082SOL     OW85984   4.298   6.305   5.127 -0.0717  0.8333  0.2326
28082SOL    HW185985   4.318   6.264   5.212  1.0772 -0.9212 -0.8349
28082SOL    HW285986   4.356   6.381   5.123  0.6252  0.3327  0.5757
28083SOL     OW85987   9.393   2.564   4.409  0.1366 -0.2322 -0.4918
28083SOL    HW185988   9.389   2.494   4.343 -0.1311 -1.3691  0.6902
28083SOL    HW285989   9.303   2.596   4.415 -0.0843 -0.9418  0.1468
28084SOL     OW85990   9.305   5.485   0.335  0.0013 -0.3293 -0.5892
28084SOL    HW185991   9.325   5.489   0.241 -2.8315 -0.1856 -1.2903
28084SOL    HW285992   9.249   5.408   0.344  1.4108 -1.2003  1.2971
28085SOL     OW85993   2.099   2.201   5.720  0.3123 -0.3023 -0.0165
28085SOL    HW185994   2.114   2.268   5.653 -1.8611 -0.0754 -0.3387
28085SOL    HW285995   2.140   2.122   5.684  1.5869  0.4553 -0.3164
28086SOL     OW85996   6.491   0.427   5.336 -0.3750 -0.4229  0.0824
28086SOL    HW185997   6.509   0.517   5.309 -0.6155 -0.2499  0.4917
28086SOL    HW285998   6.430   0.394   5.270  0.6810 -0.7032 -0.7793
28087SOL     OW85999   4.404   2.104   5.400 -0.2380 -0.0556  0.1256
28087SOL    HW186000   4.491   2.130   5.367  0.4262 -1.7782  0.4203
28087SOL    HW286001   4.422   2.059   5.482 -1.4437 -0.2826  0.2850
28088SOL     OW86002   9.072   5.392   5.957 -0.2550  0.6590 -0.3213
28088SOL    HW186003   8.986   5.433   5.959 -0.0505  1.0864  1.4477
28088SOL    HW286004   9.119   5.437   5.886 -0.4441  2.6747  0.7638
28089SOL     OW86005   1.103   3.001   0.819  0.3177  0.7053  0.5867
28089SOL    HW186006   1.186   3.028   0.859  0.3632  1.7751 -0.1966
28089SOL    HW286007   1.125   2.922   0.770  1.5596  2.3962 -1.8253
28090SOL     OW86008   4.730   5.289   2.592  0.1366  0.2375 -0.1578
28090SOL    HW186009   4.741   5.345   2.516 -2.3774  1.1919  0.0891
28090SOL    HW286010   4.635   5.284   2.606  0.4665 -0.3724  2.5529
28091SOL     OW86011   5.829   5.634   4.218 -0.4120  0.1605  0.4727
28091SOL    HW186012   5.864   5.698   4.156  1.4045 -0.8881  0.3586
28091SOL    HW286013   5.906   5.594   4.257 -1.2556 -4.4883 -1.9838
28092SOL     OW86014   9.308   3.939   0.947  0.1209  0.0553 -0.2359
28092SOL    HW186015   9.252   3.862   0.934  0.8106 -0.0830 -2.9970
28092SOL    HW286016   9.271   4.005   0.890  1.0126  0.9799  0.2294
28093SOL     OW86017   8.081   4.957   7.624  0.4644  0.2285  0.0959
28093SOL    HW186018   8.096   5.047   7.650  1.5031  0.1918 -0.3524
28093SOL    HW286019   8.046   4.963   7.535 -0.3793  0.2171  0.4121
28094SOL     OW86020   9.480   6.428   4.136 -1.0494 -0.0145  0.7669
28094SOL    HW186021   9.507   6.417   4.227  0.7745  0.6871  0.3725
28094SOL    HW286022   9.550   6.482   4.097 -1.9779  0.0298 -0.9471
28095SOL     OW86023   6.743   2.586   0.040  0.0760  0.1519 -0.4404
28095SOL    HW186024   6.756   2.677   0.065 -3.1590  0.5587  0.2500
28095SOL    HW286025   6.713   2.543   0.120  0.8898 -1.3868 -0.9184
28096SOL     OW86026   9.455   2.044   6.307 -0.0433  0.5751  0.4375
28096SOL    HW186027   9.548   2.030   6.289 -0.4720  2.3582 -5.2488
28096SOL    HW286028   9.450   2.136   6.334 -0.1770  1.2038 -1.5470
28097SOL     OW86029   7.892   4.651   0.076 -0.2293  0.1268 -0.2256
28097SOL    HW186030   7.973   4.602   0.085 -0.5198 -0.0674  1.8621
28097SOL    HW286031   7.919   4.741   0.056  0.4837 -0.0267  0.0429
28098SOL     OW86032   4.501   0.891   2.045  0.2111  0.0563 -0.7285
28098SOL    HW186033   4.539   0.943   2.116  0.8787 -1.4177  0.0537
28098SOL    HW286034   4.463   0.955   1.985 -0.9899  1.3446  1.2931
28099SOL     OW86035   3.484   7.849   9.221 -0.3367  0.1348  0.1389
28099SOL    HW186036   3.422   7.864   9.293  0.0990 -0.9302  0.7454
28099SOL    HW286037   3.434   7.799   9.156 -0.5732  0.6557 -0.0930
28100SOL     OW86038   8.869   4.243   5.050 -0.1968  0.2490  0.0049
28100SOL    HW186039   8.897   4.229   5.140 -0.6794  1.0980  0.2927
28100SOL    HW286040   8.942   4.211   4.997 -0.0601 -0.6025  0.6804
28101SOL     OW86041   6.851   0.759   9.211 -0.2397  0.9555 -0.0449
28101SOL    HW186042   6.816   0.693   9.272  1.8794 -0.5842 -0.3510
28101SOL    HW286043   6.920   0.803   9.261  0.6838  0.5287 -0.9171
28102SOL     OW86044   6.006   0.851   8.626  0.2085  0.2980 -1.0844
28102SOL    HW186045   6.010   0.797   8.547  2.2885  1.5737 -1.9240
28102SOL    HW286046   6.015   0.941   8.595 -1.0148  1.0211  0.4634
28103SOL     OW86047   2.979   4.081   8.959  0.0516 -0.2258  0.0136
28103SOL    HW186048   2.934   3.996   8.959  0.7260 -0.5920 -0.0679
28103SOL    HW286049   2.910   4.145   8.945 -0.6081 -0.6897  1.0046
28104SOL     OW86050   8.164   7.790   9.451  0.0461  0.0884 -0.6011
28104SOL    HW186051   8.188   7.876   9.487 -1.8216  1.2157 -1.9175
28104SOL    HW286052   8.206   7.728   9.511  1.1129  1.8837  0.6402
28105SOL     OW86053   2.680   1.453   8.869  0.5306  0.1000  0.2110
28105SOL    HW186054   2.709   1.531   8.821 -0.9241  0.4487 -0.1551
28105SOL    HW286055   2.596   1.478   8.908  0.9182 -0.6997  1.6442
28106SOL     OW86056   5.119   3.661   0.632  0.5281  0.5925 -0.4952
28106SOL    HW186057   5.150   3.750   0.615 -0.3749  1.0805  0.2883
28106SOL    HW286058   5.065   3.670   0.711  0.3115 -0.6293 -0.4921
28107SOL     OW86059   6.892   4.177   1.094 -0.0436  0.3115  0.6140
28107SOL    HW186060   6.920   4.267   1.112 -1.3195  0.8421  0.0920
28107SOL    HW286061   6.935   4.155   1.011 -1.0805  1.1179 -0.1770
28108SOL     OW86062   2.913   2.777   3.822 -0.4245 -0.5856 -0.6820
28108SOL    HW186063   2.907   2.855   3.766 -1.3335 -0.4186 -0.3822
28108SOL    HW286064   2.822   2.748   3.832  0.0328 -2.8788 -2.4015
28109SOL     OW86065   1.689   1.231   1.035 -0.1433 -0.0613 -0.1154
28109SOL    HW186066   1.763   1.236   1.095  0.1217  1.4762 -0.5252
28109SOL    HW286067   1.708   1.155   0.980  0.8868  0.0281  0.0932
28110SOL     OW86068   2.758   4.797   0.769 -0.3292 -0.2279  0.4812
28110SOL    HW186069   2.706   4.827   0.844 -2.5159 -0.9762 -0.6250
28110SOL    HW286070   2.755   4.870   0.707  0.4949 -0.0491  0.6398
28111SOL     OW86071   1.067   7.764   5.392  0.4427  0.2656 -0.3218
28111SOL    HW186072   1.016   7.691   5.357  1.5850 -0.8547  0.2217
28111SOL    HW286073   1.061   7.754   5.487  1.0556  0.5350 -0.2463
28112SOL     OW86074   6.701   6.107   5.856  0.1978  0.0381 -0.3274
28112SOL    HW186075   6.653   6.043   5.908 -0.4980  1.4056  0.8098
28112SOL    HW286076   6.789   6.106   5.891 -0.1147  0.5127  0.5084
28113SOL     OW86077   7.840   1.301   9.513 -0.6054 -0.1139  0.9678
28113SOL    HW186078   7.928   1.264   9.507 -0.5404  0.1302  0.3046
28113SOL    HW286079   7.825   1.311   9.607  0.4550  0.7067  1.0755
28114SOL     OW86080   4.363   1.149   2.082  0.0054 -0.1743  0.1741
28114SOL    HW186081   4.373   1.239   2.051 -1.2333 -0.3049 -0.6674
28114SOL    HW286082   4.443   1.132   2.132  0.7127  1.0561 -0.4896
28115SOL     OW86083   7.418   2.037   6.957 -0.1975 -0.7823  0.1037
28115SOL    HW186084   7.491   1.986   6.922 -1.6569 -1.6093 -1.9757
28115SOL    HW286085   7.371   2.067   6.879 -1.9058 -0.0201  1.3677
28116SOL     OW86086   6.596   9.303   2.996  0.0185 -0.7196 -0.0976
28116SOL    HW186087   6.600   9.349   2.912  1.5199 -3.2578 -1.5616
28116SOL    HW286088   6.634   9.364   3.059 -0.8600  1.1494 -1.2958
28117SOL     OW86089   1.850   2.502   3.934  0.0820  0.1154  0.2438
28117SOL    HW186090   1.908   2.570   3.900  0.3645 -0.0046  0.4817
28117SOL    HW286091   1.908   2.442   3.981  0.2451 -1.6549 -2.0106
28118SOL     OW86092   2.295   3.155   3.883  0.6368  0.3266 -0.2532
28118SOL    HW186093   2.336   3.112   3.958 -0.8477 -2.2025 -0.7835
28118SOL    HW286094   2.366   3.165   3.819  1.4917  0.7593  0.7352
28119SOL     OW86095   3.990   6.674   1.009 -0.1195 -0.2353  0.2113
28119SOL    HW186096   4.071   6.659   0.961  0.1127 -0.8598  0.7880
28119SOL    HW286097   4.019   6.708   1.094 -0.3498 -2.0052  1.0476
28120SOL     OW86098   2.282   8.364   3.545  0.4540  0.5850  0.3735
28120SOL    HW186099   2.353   8.307   3.516  1.2416  1.0664  1.3074
28120SOL    HW286100   2.256   8.329   3.630 -1.1510 -0.1989 -0.3675
28121SOL     OW86101   6.179   6.190   6.276 -0.0759  0.4826 -0.7445
28121SOL    HW186102   6.197   6.112   6.224  0.6402 -1.2749  1.9377
28121SOL    HW286103   6.262   6.237   6.278  0.1857  0.0211 -0.4045
28122SOL     OW86104   2.609   5.300   9.078  0.0475 -0.4035 -0.1112
28122SOL    HW186105   2.563   5.217   9.065  0.1360 -0.4406 -0.1864
28122SOL    HW286106   2.581   5.355   9.005 -1.5617  0.3268  0.9909
28123SOL     OW86107   0.437   8.428   6.493  0.2597 -0.3271 -0.4173
28123SOL    HW186108   0.506   8.469   6.440 -0.1180  1.0184  0.0784
28123SOL    HW286109   0.440   8.475   6.577 -0.9395 -0.5680 -0.2180
28124SOL     OW86110   7.845   0.697   4.591 -0.0902  0.0761 -0.2202
28124SOL    HW186111   7.768   0.681   4.537 -0.8023 -0.7008  0.9515
28124SOL    HW286112   7.881   0.779   4.560 -1.2648  0.3292 -0.9532
28125SOL     OW86113   4.760   4.602   6.374 -0.1310 -0.5556 -0.8999
28125SOL    HW186114   4.802   4.518   6.354 -1.1794 -0.9792 -1.4473
28125SOL    HW286115   4.778   4.616   6.467  0.7684 -0.9639 -0.9953
28126SOL     OW86116   5.730   2.241   0.646 -0.4596  0.4990 -0.0312
28126SOL    HW186117   5.636   2.250   0.664 -0.6559 -0.7039 -0.3631
28126SOL    HW286118   5.772   2.275   0.725 -1.1664  1.2533  0.0343
28127SOL     OW86119   0.515   5.430   2.526 -0.3011 -0.2874 -0.5808
28127SOL    HW186120   0.537   5.403   2.437 -1.7261 -1.8414 -0.5134
28127SOL    HW286121   0.432   5.386   2.545  0.0561 -0.1430  1.5945
28128SOL     OW86122   3.797   3.158   8.829  0.4382  0.7879 -0.4847
28128SOL    HW186123   3.765   3.247   8.819 -0.7438  0.3591 -0.6422
28128SOL    HW286124   3.819   3.130   8.741 -1.2496  0.1959 -0.7527
28129SOL     OW86125   1.040   7.609   7.073  0.1333 -0.5326 -0.1550
28129SOL    HW186126   1.106   7.540   7.082 -1.3643 -2.2882 -1.8095
28129SOL    HW286127   1.053   7.645   6.985 -0.4808 -0.2231 -0.1307
28130SOL     OW86128   5.917   8.985   9.054 -0.4555 -0.6273 -0.9236
28130SOL    HW186129   5.882   8.981   8.965 -1.6684  0.3802 -0.5116
28130SOL    HW286130   5.841   8.971   9.111 -0.0475  0.6599 -0.0173
28131SOL     OW86131   1.195   0.720   2.245 -0.5149  0.0648 -0.7695
28131SOL    HW186132   1.277   0.729   2.197 -0.1749 -0.7714 -0.3561
28131SOL    HW286133   1.169   0.810   2.265  0.0262  0.3595 -1.3571
28132SOL     OW86134   2.847   0.484   6.108  0.2477  0.1049 -0.0755
28132SOL    HW186135   2.915   0.546   6.081 -0.9514  1.7849  0.5896
28132SOL    HW286136   2.884   0.442   6.186  0.6133  0.8499  0.1672
28133SOL     OW86137   1.584   9.015   0.172  0.2435  0.5054  0.7333
28133SOL    HW186138   1.630   9.052   0.248  1.0840 -0.5122  0.7419
28133SOL    HW286139   1.646   9.023   0.100 -0.1369  0.4593  0.3959
28134SOL     OW86140   7.563   7.861   7.760 -0.5130 -0.2495 -0.3291
28134SOL    HW186141   7.537   7.866   7.852  1.2860  0.2249  0.2090
28134SOL    HW286142   7.548   7.949   7.726 -2.2278 -0.7126 -0.8235
28135SOL     OW86143   1.082   9.290   8.451  0.1941 -0.3117  0.2086
28135SOL    HW186144   1.157   9.231   8.462  1.7178  0.9030 -2.5600
28135SOL    HW286145   1.116   9.376   8.479  0.0895  0.3514 -1.5628
28136SOL     OW86146   4.356   5.957   4.323  0.6539  1.1545 -0.3615
28136SOL    HW186147   4.347   5.866   4.294  1.2941  0.5438  1.2605
28136SOL    HW286148   4.450   5.970   4.332  0.5056  1.2184  1.5959
28137SOL     OW86149   1.468   0.709   6.131  0.0364  0.6377 -0.4184
28137SOL    HW186150   1.498   0.721   6.221 -0.0999 -1.5781 -0.0113
28137SOL    HW286151   1.548   0.696   6.080  0.0687  0.9188 -0.4380
28138SOL     OW86152   7.520   4.199   5.244 -0.8106  0.5056 -0.1247
28138SOL    HW186153   7.548   4.270   5.186  1.0880 -0.6250 -0.6774
28138SOL    HW286154   7.518   4.121   5.188  0.9525 -0.5972  1.2356
28139SOL     OW86155   8.964   9.403   7.112  0.3560 -0.2046  0.2839
28139SOL    HW186156   9.043   9.365   7.075  0.0046  0.0216 -0.7298
28139SOL    HW286157   8.913   9.432   7.036 -0.9097 -0.7616  0.8859
28140SOL     OW86158   6.314   2.688   1.531 -0.1030  0.4586 -0.7580
28140SOL    HW186159   6.316   2.592   1.525  0.1392  0.0921  2.9550
28140SOL    HW286160   6.403   2.715   1.508  1.6053 -0.8765  3.2653
28141SOL     OW86161   1.530   2.461   5.517 -0.4165  0.8394  0.4310
28141SOL    HW186162   1.500   2.375   5.545 -1.8538  1.1805  0.0516
28141SOL    HW286163   1.625   2.459   5.529 -0.3454 -0.9830 -0.0756
28142SOL     OW86164   5.066   3.023   3.534  0.0443  1.1655 -0.0352
28142SOL    HW186165   5.125   2.993   3.464 -0.5098  0.8294 -0.3734
28142SOL    HW286166   5.049   2.944   3.586 -0.4166  1.1720 -0.1758
28143SOL     OW86167   5.944   6.536   4.337  0.3225  0.5665  0.0612
28143SOL    HW186168   5.998   6.507   4.264  0.0175 -0.6726  0.3149
28143SOL    HW286169   6.002   6.594   4.388  0.9466  0.3896 -0.4319
28144SOL     OW86170   2.129   0.162   3.602 -0.0416  0.0849  0.0697
28144SOL    HW186171   2.069   0.154   3.528  2.5493 -0.2034 -2.1862
28144SOL    HW286172   2.162   0.252   3.597  1.2231 -0.3583 -0.0736
28145SOL     OW86173   8.880   3.455   8.386  0.2785 -0.5328  0.0931
28145SOL    HW186174   8.793   3.438   8.422  0.9381 -0.4903  1.8279
28145SOL    HW286175   8.936   3.466   8.463  1.4423  1.4885 -0.9531
28146SOL     OW86176   3.164   7.270   7.101  1.0194 -0.4997 -0.3579
28146SOL    HW186177   3.179   7.312   7.016 -0.7503 -2.8534 -1.9622
28146SOL    HW286178   3.176   7.176   7.083 -1.4380 -1.2566  1.4411
28147SOL     OW86179   9.458   6.772   4.692  1.1641 -0.3367  0.1843
28147SOL    HW186180   9.364   6.763   4.678  0.9425 -0.3172  1.4685
28147SOL    HW286181   9.498   6.750   4.608 -0.0447  1.1045 -0.8163
28148SOL     OW86182   6.802   2.094   5.374  0.0529 -0.4983 -0.0954
28148SOL    HW186183   6.801   2.189   5.387  0.3094 -0.6718  1.3719
28148SOL    HW286184   6.834   2.059   5.457 -0.3143 -1.8881 -0.5165
28149SOL     OW86185   7.539   1.066   1.235 -0.0439 -0.4771  0.1864
28149SOL    HW186186   7.626   1.069   1.194  0.7453 -1.3039  1.7024
28149SOL    HW286187   7.486   1.015   1.173  0.8530 -0.8979 -0.2680
28150SOL     OW86188   7.723   3.360   4.755  0.0227  0.1220 -0.1735
28150SOL    HW186189   7.687   3.401   4.676 -1.4111  0.6524  0.7246
28150SOL    HW286190   7.656   3.297   4.783  0.5001 -0.0463  0.6357
28151SOL     OW86191   6.570   8.274   9.507  0.6087 -0.0907 -0.1040
28151SOL    HW186192   6.590   8.252   9.598 -1.3769  0.6008  0.5568
28151SOL    HW286193   6.636   8.339   9.483  0.6456  0.3459  1.1216
28152SOL     OW86194   6.049   0.649   4.864 -0.2882 -0.5260 -0.2895
28152SOL    HW186195   6.082   0.662   4.953 -2.3035 -1.9111  0.7388
28152SOL    HW286196   5.973   0.706   4.858 -2.2100 -2.9037  0.1629
28153SOL     OW86197   5.511   3.613   7.237  0.2878 -0.2312  0.4720
28153SOL    HW186198   5.415   3.611   7.237  0.2398  0.5535  2.0776
28153SOL    HW286199   5.534   3.643   7.149 -0.8536 -1.9805 -0.4919
28154SOL     OW86200   9.391   5.414   8.992 -0.2893  0.1957 -0.0157
28154SOL    HW186201   9.440   5.477   8.939  1.4243 -0.6238  0.5101
28154SOL    HW286202   9.409   5.440   9.083 -0.3979 -0.4413  0.1973
28155SOL     OW86203   1.366   1.905   1.542 -0.1046 -0.0006  0.4045
28155SOL    HW186204   1.333   1.873   1.458  2.8595 -1.7600 -0.2484
28155SOL    HW286205   1.307   1.868   1.607 -1.9880  0.7340 -0.8175
28156SOL     OW86206   7.709   2.578   6.256 -0.3528 -0.4293  0.6136
28156SOL    HW186207   7.672   2.609   6.173 -2.8074  1.0683  2.1334
28156SOL    HW286208   7.635   2.538   6.301  0.8850 -1.0104  2.2040
28157SOL     OW86209   7.242   8.621   1.328 -0.3734  0.5999  0.1478
28157SOL    HW186210   7.242   8.611   1.423 -1.3703  2.8303  0.4375
28157SOL    HW286211   7.162   8.578   1.298  0.4566 -1.0399  0.1279
28158SOL     OW86212   5.077   6.342   4.104  0.1530  0.7581  0.2235
28158SOL    HW186213   5.083   6.359   4.010  0.9217  3.8243  0.7160
28158SOL    HW286214   5.053   6.427   4.142  2.4827  0.3055  3.0372
28159SOL     OW86215   0.271   7.912   6.464 -0.3470  0.2137  0.3817
28159SOL    HW186216   0.311   7.845   6.408 -4.3279  0.4031 -3.2164
28159SOL    HW286217   0.287   7.994   6.419 -1.0164  0.8167  1.1972
28160SOL     OW86218   2.755   5.882   2.307 -0.2780  0.4153 -0.7445
28160SOL    HW186219   2.759   5.971   2.344  0.1612 -0.0007  0.2463
28160SOL    HW286220   2.677   5.883   2.252 -1.6473  0.7621  1.0929
28161SOL     OW86221   6.623   7.944   0.115 -0.1903  0.1246  0.0974
28161SOL    HW186222   6.536   7.943   0.154  0.3719  0.1206  1.4065
28161SOL    HW286223   6.631   7.859   0.071 -0.4560 -0.3182  0.8832
28162SOL     OW86224   1.955   4.838   6.143 -0.2295 -0.6408  0.5873
28162SOL    HW186225   2.010   4.876   6.074 -1.5047  2.2131  1.0185
28162SOL    HW286226   1.996   4.868   6.224 -0.5516 -1.2939  0.9912
28163SOL     OW86227   1.584   0.750   0.862  0.0674 -0.3239 -0.0607
28163SOL    HW186228   1.555   0.757   0.771  0.0270  1.7223  0.0643
28163SOL    HW286229   1.503   0.752   0.913  0.1725  1.2888  0.1033
28164SOL     OW86230   4.100   4.219   9.115 -1.2536 -0.3993 -0.4126
28164SOL    HW186231   4.108   4.196   9.208 -0.7993  0.4972 -0.2199
28164SOL    HW286232   4.113   4.313   9.113 -0.6752 -0.4945 -1.4691
28165SOL     OW86233   3.931   1.176   7.882  0.5381 -0.2111 -0.7363
28165SOL    HW186234   3.949   1.262   7.920  0.5144 -0.9144  0.9256
28165SOL    HW286235   3.842   1.155   7.909  1.1351 -1.4923  0.3789
28166SOL     OW86236   5.186   7.147   6.620  0.3062  0.7691  0.9481
28166SOL    HW186237   5.104   7.099   6.608  0.2929  0.0223  3.4197
28166SOL    HW286238   5.232   7.139   6.537 -1.5921  0.1472 -0.0800
28167SOL     OW86239   1.435   6.585   4.002  0.0013  0.4967  0.0078
28167SOL    HW186240   1.510   6.639   3.981  0.1854 -0.1580 -1.0974
28167SOL    HW286241   1.396   6.626   4.080  1.1929  1.1281  0.2843
28168SOL     OW86242   8.140   5.999   4.529 -0.0379 -0.0147 -0.2134
28168SOL    HW186243   8.061   6.034   4.570  0.1716 -0.9585  1.0533
28168SOL    HW286244   8.109   5.924   4.478 -0.2971  1.1564 -1.8667
28169SOL     OW86245   5.962   2.612   9.381  1.2146  0.1505 -0.1311
28169SOL    HW186246   5.964   2.553   9.305  2.3591 -0.0576  0.0381
28169SOL    HW286247   5.871   2.640   9.388  0.7795 -1.0917 -0.6073
28170SOL     OW86248   5.274   2.736   1.116 -0.3200 -0.4141  0.0371
28170SOL    HW186249   5.200   2.792   1.138 -1.0596 -0.7811 -1.3693
28170SOL    HW286250   5.350   2.793   1.124 -1.0077  0.6981 -0.9169
28171SOL     OW86251   1.624   1.054   1.964 -0.4873  0.3598 -0.0857
28171SOL    HW186252   1.594   1.119   1.901 -2.3897  1.3824  1.7648
28171SOL    HW286253   1.561   1.059   2.036 -0.0977 -2.8267  0.6074
28172SOL     OW86254   8.900   2.078   7.345 -0.2508  0.3194 -0.1016
28172SOL    HW186255   8.944   2.144   7.399 -1.1252  0.5659  0.3215
28172SOL    HW286256   8.920   1.995   7.388 -0.2505  0.4335  0.1202
28173SOL     OW86257   5.761   0.423   4.568 -0.1492  0.4314  0.6862
28173SOL    HW186258   5.677   0.416   4.611 -1.2562  1.3996 -1.1657
28173SOL    HW286259   5.826   0.412   4.638 -1.8075  1.3367  2.4404
28174SOL     OW86260   8.825   2.024   2.857  0.0177 -0.0176 -0.2403
28174SOL    HW186261   8.876   2.078   2.797 -1.1935  0.6167 -0.7475
28174SOL    HW286262   8.887   1.961   2.892  1.2952  1.1621 -0.2928
28175SOL     OW86263   5.221   3.970   8.579  0.0750  0.3828 -0.4144
28175SOL    HW186264   5.281   3.931   8.643  0.9564 -0.3915 -1.6730
28175SOL    HW286265   5.161   4.022   8.632  0.4639 -0.6253  1.0888
28176SOL     OW86266   8.602   5.621   1.891 -0.9096 -0.0468 -0.0328
28176SOL    HW186267   8.561   5.559   1.951 -1.3729  0.0332 -0.2666
28176SOL    HW286268   8.578   5.707   1.925 -1.2311 -0.0024 -0.3739
28177SOL     OW86269   5.388   1.433   5.424 -0.4589 -0.3570 -0.1267
28177SOL    HW186270   5.361   1.420   5.515  0.6373  0.6552  0.3763
28177SOL    HW286271   5.416   1.346   5.395 -0.7430 -0.6767  0.5306
28178SOL     OW86272   1.804   9.014   9.553  0.0935 -0.5315  0.5039
28178SOL    HW186273   1.868   9.035   9.622  0.7292  0.7167 -0.4250
28178SOL    HW286274   1.846   8.946   9.501 -0.9083 -2.4168  2.0191
28179SOL     OW86275   7.591   5.919   1.881  0.3593 -0.9153  0.4441
28179SOL    HW186276   7.660   5.951   1.939  0.0883  0.4715  0.0372
28179SOL    HW286277   7.512   5.966   1.908  0.3449  0.2343 -1.3787
28180SOL     OW86278   7.569   3.774   4.451 -0.1918 -0.2295 -0.2642
28180SOL    HW186279   7.505   3.723   4.401  0.5560 -0.6656 -0.7889
28180SOL    HW286280   7.518   3.846   4.489 -1.3291 -1.5280  0.7557
28181SOL     OW86281   5.270   3.763   2.519 -0.6746  0.0689 -0.4191
28181SOL    HW186282   5.251   3.816   2.441 -1.2305  1.7338  0.7848
28181SOL    HW286283   5.270   3.826   2.591  1.2259 -1.1807  0.7822
28182SOL     OW86284   0.150   7.963   6.744  0.1643 -0.3851 -0.0944
28182SOL    HW186285   0.189   7.905   6.810  2.1717  0.3263 -0.5808
28182SOL    HW286286   0.188   7.934   6.661  0.8151  1.2717 -0.4119
28183SOL     OW86287   1.077   5.029   6.614 -0.2172 -0.2323  0.3384
28183SOL    HW186288   0.995   5.073   6.637 -0.4907 -1.2598  1.4345
28183SOL    HW286289   1.119   5.011   6.698  0.2476 -1.3530 -0.1129
28184SOL     OW86290   9.170   9.484   2.586  0.4488 -0.0012 -0.2242
28184SOL    HW186291   9.113   9.554   2.556  0.0028  0.3526  1.3553
28184SOL    HW286292   9.216   9.522   2.661  0.8978 -1.1016  0.0703
28185SOL     OW86293   6.814   6.048   0.767  0.1011  0.6556 -0.3818
28185SOL    HW186294   6.752   6.092   0.708  0.5450  0.5977 -0.9047
28185SOL    HW286295   6.854   6.120   0.817 -0.0821  0.7342 -0.3497
28186SOL     OW86296   3.493   7.896   6.220  0.4105  0.5339  0.0205
28186SOL    HW186297   3.556   7.851   6.275 -0.7049 -1.5795 -0.3293
28186SOL    HW286298   3.415   7.906   6.274  0.0445  0.4008 -0.4650
28187SOL     OW86299   6.737   5.308   2.012 -0.4880  0.6969 -0.0217
28187SOL    HW186300   6.646   5.328   2.033 -1.1744 -2.6042  0.8431
28187SOL    HW286301   6.788   5.349   2.082 -1.5730  0.6325  0.8253
28188SOL     OW86302   7.444   5.707   1.196  0.0412  0.3476 -0.3455
28188SOL    HW186303   7.385   5.738   1.127  0.9307 -0.2349 -1.3987
28188SOL    HW286304   7.430   5.612   1.198  2.0188 -0.0461 -1.7289
28189SOL     OW86305   1.826   1.864   6.239  0.9727 -0.3147  0.1389
28189SOL    HW186306   1.870   1.801   6.296  0.1146 -1.4937 -0.4811
28189SOL    HW286307   1.763   1.908   6.296 -0.4624 -2.0657 -0.0379
28190SOL     OW86308   7.607   6.089   4.728  0.2030 -0.0351 -0.3897
28190SOL    HW186309   7.594   6.030   4.654 -2.0899 -0.6413  0.4271
28190SOL    HW286310   7.557   6.167   4.705 -2.3083 -1.0292  1.3257
28191SOL     OW86311   0.413   7.567   0.283 -0.4507  0.3263  0.3737
28191SOL    HW186312   0.417   7.472   0.281 -0.4328  0.3167  0.8331
28191SOL    HW286313   0.320   7.587   0.290 -0.5206  0.3640 -0.5148
28192SOL     OW86314   4.827   2.728   0.983 -0.3661 -0.1877  0.1410
28192SOL    HW186315   4.888   2.767   0.921 -1.5448  0.3532 -0.7288
28192SOL    HW286316   4.881   2.701   1.057  0.6725  1.8556  0.1859
28193SOL     OW86317   6.928   5.656   2.782 -0.2870  0.5851 -0.0653
28193SOL    HW186318   7.009   5.668   2.733 -0.2321 -0.5145 -0.2614
28193SOL    HW286319   6.912   5.562   2.779 -0.4397  0.5153  1.7642
28194SOL     OW86320   1.905   3.115   4.215 -0.1264  0.4635 -0.7382
28194SOL    HW186321   1.907   3.020   4.224  1.3399  0.5608  0.1873
28194SOL    HW286322   1.864   3.130   4.129 -3.9775 -0.8356  0.6867
28195SOL     OW86323   3.674   2.281   6.834 -0.1188  0.0246 -0.0258
28195SOL    HW186324   3.733   2.271   6.909 -0.6766 -2.0359  0.1871
28195SOL    HW286325   3.621   2.358   6.855  1.3944  0.9650  0.5096
28196SOL     OW86326   9.283   8.846   8.441 -0.5324  0.3438 -0.2200
28196SOL    HW186327   9.242   8.787   8.504 -0.3595  1.0345  0.5658
28196SOL    HW286328   9.210   8.882   8.391 -0.8832  1.2986  0.9381
28197SOL     OW86329   2.206   5.619   5.975  0.3960 -0.1399  0.1438
28197SOL    HW186330   2.158   5.647   5.897  0.2160 -1.5530 -0.2806
28197SOL    HW286331   2.162   5.538   6.002  2.3501 -1.3369 -0.0912
28198SOL     OW86332   5.601   5.223   0.009 -0.4732 -0.1662 -0.3015
28198SOL    HW186333   5.608   5.141  -0.038  0.6851 -0.1510 -0.1819
28198SOL    HW286334   5.653   5.210   0.089 -2.0192 -0.0441  0.7746
28199SOL     OW86335   8.353   2.311   6.255 -0.4052  0.0779 -0.4679
28199SOL    HW186336   8.425   2.373   6.262  0.5650 -1.0201 -0.4507
28199SOL    HW286337   8.307   2.337   6.175  2.2582 -1.4366 -2.6794
28200SOL     OW86338   8.169   3.441   0.856  0.5738 -0.5064  0.0917
28200SOL    HW186339   8.133   3.473   0.773  0.6462 -0.4803  0.0694
28200SOL    HW286340   8.178   3.519   0.910  2.9820 -0.0753 -0.7962
28201SOL     OW86341   4.383   6.782   3.834 -0.2835 -0.2210  0.3625
28201SOL    HW186342   4.329   6.843   3.783  0.0500 -0.1091  0.1423
28201SOL    HW286343   4.410   6.715   3.771  0.7001  0.2931  0.2326
28202SOL     OW86344   5.676   2.519   5.718  0.4210  0.1571 -0.3859
28202SOL    HW186345   5.711   2.546   5.804 -0.8112 -1.4284  0.6677
28202SOL    HW286346   5.657   2.426   5.728 -1.5307  0.3559 -1.7785
28203SOL     OW86347   4.494   3.102   5.560  0.2166 -0.3589 -0.1139
28203SOL    HW186348   4.547   3.024   5.543  1.3596  0.8411 -2.6012
28203SOL    HW286349   4.416   3.090   5.506 -0.9575 -0.9733  1.6299
28204SOL     OW86350   3.678   0.137   5.159  0.3311  0.4482  0.0269
28204SOL    HW186351   3.685   0.042   5.169 -0.3884  0.4028  0.1452
28204SOL    HW286352   3.759   0.163   5.116 -0.4307 -0.5246 -2.1127
28205SOL     OW86353   4.126   6.153   9.328  0.5078  0.1109  0.2581
28205SOL    HW186354   4.047   6.148   9.381  0.6175 -0.4031  0.3796
28205SOL    HW286355   4.099   6.126   9.240  1.1912 -3.6290  1.0124
28206SOL     OW86356   9.561   5.047   9.381 -0.0453 -0.0986 -0.3264
28206SOL    HW186357   9.476   5.073   9.347  0.5441  1.2503 -0.8402
28206SOL    HW286358   9.598   4.990   9.313 -0.9486 -1.5554  0.3716
28207SOL     OW86359   9.579   0.511   8.528  0.3193 -0.6777 -0.4229
28207SOL    HW186360   9.670   0.521   8.559 -0.0481 -2.4565  1.4619
28207SOL    HW286361   9.541   0.599   8.538  1.3145 -0.3361  0.6531
28208SOL     OW86362   5.361   7.798   0.866  0.4729 -0.1719  0.7540
28208SOL    HW186363   5.389   7.708   0.848  1.1480 -0.1837  1.7742
28208SOL    HW286364   5.361   7.841   0.781 -0.8135 -1.3870  0.0884
28209SOL     OW86365   6.906   4.440   8.083  0.2199  0.1126 -0.1468
28209SOL    HW186366   6.848   4.413   8.012  0.2215  0.9236 -0.4721
28209SOL    HW286367   6.946   4.521   8.052  1.3728 -0.3215  0.1649
28210SOL     OW86368   6.180   7.346   7.878 -0.6628  0.3714  0.1220
28210SOL    HW186369   6.261   7.323   7.922 -1.6824  0.0662  1.9475
28210SOL    HW286370   6.182   7.297   7.796  2.1125  2.3258 -1.1123
28211SOL     OW86371   0.155   2.388   0.003  0.0571 -0.1809 -0.0958
28211SOL    HW186372   0.248   2.378   0.024 -0.1633  1.0415  1.7733
28211SOL    HW286373   0.126   2.462   0.057 -1.8777 -0.1706 -1.0485
28212SOL     OW86374   5.659   8.858   4.573  0.2754 -0.0194  0.3617
28212SOL    HW186375   5.571   8.832   4.546  0.6951 -2.1453  0.8515
28212SOL    HW286376   5.715   8.835   4.499  0.6539 -0.3061  0.7354
28213SOL     OW86377   5.087   3.983   9.418 -0.5611 -0.1509  0.0360
28213SOL    HW186378   5.152   3.996   9.487  1.6306 -2.0063 -1.5471
28213SOL    HW286379   5.130   4.014   9.338 -2.7600  1.2319 -0.7065
28214SOL     OW86380   5.837   3.966   0.480 -0.0962  0.2521 -0.1379
28214SOL    HW186381   5.777   3.976   0.407 -0.0166 -0.8663 -0.3804
28214SOL    HW286382   5.780   3.962   0.557 -0.2586  0.2726 -0.2559
28215SOL     OW86383   0.444   6.487   1.964  0.4217 -0.5833 -0.7321
28215SOL    HW186384   0.365   6.433   1.963  0.3898 -0.6278  1.1083
28215SOL    HW286385   0.429   6.553   1.896 -2.1845  0.7258  0.9408
28216SOL     OW86386   8.975   2.321   8.495 -0.5276 -0.1690  0.1742
28216SOL    HW186387   9.061   2.299   8.531 -0.6924 -0.8962  0.1527
28216SOL    HW286388   8.918   2.250   8.524 -1.4932  1.0988  1.4915
28217SOL     OW86389   6.145   7.416   7.025  0.3868 -0.1547 -0.2556
28217SOL    HW186390   6.130   7.436   7.117  0.8904 -2.5590  0.4200
28217SOL    HW286391   6.165   7.501   6.985 -1.0771  1.1244  1.5589
28218SOL     OW86392   1.601   2.985   1.745  0.1004  0.1091  0.1082
28218SOL    HW186393   1.656   3.064   1.750  0.4667 -0.0254 -1.4085
28218SOL    HW286394   1.661   2.913   1.764  0.1434  0.0677 -0.1837
28219SOL     OW86395   9.201   2.688   2.259  0.0828 -0.4624  0.4983
28219SOL    HW186396   9.264   2.681   2.188 -0.4390  0.5228 -0.0851
28219SOL    HW286397   9.249   2.734   2.329  0.0769  0.1078  0.1317
28220SOL     OW86398   1.819   4.523   5.822  0.2151 -0.3337 -0.2377
28220SOL    HW186399   1.741   4.505   5.771 -0.4569  0.6386  0.4095
28220SOL    HW286400   1.793   4.592   5.883  1.6113  0.1079 -0.0935
28221SOL     OW86401   5.729   0.709   7.711  0.3566  0.2896  0.5480
28221SOL    HW186402   5.643   0.669   7.728  0.2027  0.0302 -0.7869
28221SOL    HW286403   5.781   0.640   7.672  0.7387  0.8301  0.0828
28222SOL     OW86404   6.278   3.163   8.546  0.3693 -0.1974  0.4908
28222SOL    HW186405   6.310   3.120   8.626  2.2313  1.1576  0.5366
28222SOL    HW286406   6.193   3.200   8.572  0.2240 -1.0723  1.3640
28223SOL     OW86407   2.993   1.321   0.327 -0.4078 -0.7438  0.3695
28223SOL    HW186408   2.934   1.346   0.256  0.1806  1.5048  0.5922
28223SOL    HW286409   2.950   1.353   0.406  0.4671 -0.2738  0.6692
28224SOL     OW86410   4.125   2.682   2.513  0.3782  0.2850 -0.3544
28224SOL    HW186411   4.132   2.753   2.449 -0.4375 -1.0215 -1.9597
28224SOL    HW286412   4.213   2.644   2.517 -0.1071 -1.3500 -2.8649
28225SOL     OW86413   4.090   8.115   6.433  0.5089 -0.3416 -0.1117
28225SOL    HW186414   4.170   8.075   6.399  1.6187  1.9537 -0.3804
28225SOL    HW286415   4.073   8.070   6.515  3.5301  0.7292  1.2357
28226SOL     OW86416   5.293   3.827   6.983  0.0396  0.5712  0.6511
28226SOL    HW186417   5.235   3.901   7.002  2.6070  3.0414 -0.4404
28226SOL    HW286418   5.270   3.801   6.893 -1.6842 -0.8758  1.4487
28227SOL     OW86419   6.054   8.167   5.044  0.2787 -0.1775 -0.9640
28227SOL    HW186420   6.050   8.262   5.037  0.4615 -0.1323 -0.5134
28227SOL    HW286421   5.963   8.139   5.045  0.1828  0.1014  0.2030
28228SOL     OW86422   4.014   5.040   3.551 -0.1711  0.0756  0.5327
28228SOL    HW186423   4.032   5.101   3.480  0.9697 -2.2293 -1.2868
28228SOL    HW286424   3.955   4.975   3.513  2.2573 -2.5103  0.8244
28229SOL     OW86425   3.875   6.496   8.251  0.3200  0.1552  0.2494
28229SOL    HW186426   3.870   6.402   8.230  0.7630 -0.0915  1.1858
28229SOL    HW286427   3.817   6.538   8.187  1.9230 -0.4837 -1.7581
28230SOL     OW86428   1.551   0.737   7.412 -0.3295 -0.1498  0.4239
28230SOL    HW186429   1.539   0.790   7.491  0.1698  0.2873  0.2120
28230SOL    HW286430   1.476   0.678   7.411 -0.9551  0.6256  0.6138
28231SOL     OW86431   2.895   5.358   3.174 -0.0298  0.0552  0.3335
28231SOL    HW186432   2.805   5.356   3.206  0.5279 -0.7725  1.9416
28231SOL    HW286433   2.945   5.397   3.246  1.0217 -0.2959 -0.1882
28232SOL     OW86434   1.691   3.440   4.699 -0.4596 -0.3456  0.4143
28232SOL    HW186435   1.767   3.458   4.754 -0.5898 -0.1748  0.5380
28232SOL    HW286436   1.642   3.522   4.697 -0.2468 -0.2276 -0.2901
28233SOL     OW86437   4.005   6.306   6.050 -0.0116  0.5646  0.1145
28233SOL    HW186438   3.925   6.314   5.998  0.5913 -0.8635 -1.1186
28233SOL    HW286439   3.990   6.230   6.106  0.2477  0.6606  0.3175
28234SOL     OW86440   6.043   9.284   7.087 -0.4293  0.0262 -0.3733
28234SOL    HW186441   6.019   9.295   6.996  0.0949  1.8844 -0.3189
28234SOL    HW286442   5.974   9.327   7.136  0.7631  1.6611 -0.0477
28235SOL     OW86443   8.037   6.731   5.998  0.5553 -0.1863 -0.2467
28235SOL    HW186444   8.062   6.662   6.059 -0.8467 -0.6062 -0.1316
28235SOL    HW286445   7.951   6.760   6.027  1.5695  2.4493  0.4233
28236SOL     OW86446   7.007   6.685   4.371 -0.0065  0.2615  0.9154
28236SOL    HW186447   7.018   6.700   4.277 -2.5195  1.1380  0.6582
28236SOL    HW286448   7.006   6.773   4.408 -1.1524  0.0468  1.4296
28237SOL     OW86449   9.235   5.060   6.150 -0.2909  0.5246  0.0120
28237SOL    HW186450   9.140   5.072   6.150 -0.3106  0.3969  0.4295
28237SOL    HW286451   9.266   5.114   6.078 -0.9742 -1.7598 -2.1476
28238SOL     OW86452   7.612   2.075   3.744  0.1261  0.0978  0.3704
28238SOL    HW186453   7.533   2.032   3.712 -0.5432  2.7448 -1.9135
28238SOL    HW286454   7.581   2.142   3.805  0.7954 -0.0556  0.8964
28239SOL     OW86455   2.831   8.022   5.958  0.1567 -0.1951 -0.5306
28239SOL    HW186456   2.902   7.966   5.927  0.2090 -0.5792  0.2445
28239SOL    HW286457   2.837   8.101   5.905  0.0825 -0.9189 -1.6507
28240SOL     OW86458   0.172   0.452   5.144  0.0072 -0.4539  0.4335
28240SOL    HW186459   0.144   0.477   5.232  2.6595 -0.1529  1.2958
28240SOL    HW286460   0.267   0.458   5.147  0.2074  3.1376 -3.4717
28241SOL     OW86461   2.104   5.930   8.324  0.0542 -0.1924 -0.2833
28241SOL    HW186462   2.186   5.972   8.351  0.9505  1.4033 -4.5494
28241SOL    HW286463   2.040   6.001   8.322 -0.3381 -0.5487 -0.7752
28242SOL     OW86464   4.450   1.566   7.495 -0.0964  0.4109 -0.1943
28242SOL    HW186465   4.406   1.526   7.569 -0.9568 -0.3210 -1.0753
28242SOL    HW286466   4.466   1.493   7.434  1.9886  0.7018 -0.0933
28243SOL     OW86467   0.167   6.070   5.349 -0.3005 -1.1687 -0.4128
28243SOL    HW186468   0.161   6.164   5.365  0.6069 -1.1996  0.1991
28243SOL    HW286469   0.158   6.061   5.254  0.6930 -0.3675 -0.5927
28244SOL     OW86470   4.735   3.501   9.558  0.3826  0.2484 -0.5834
28244SOL    HW186471   4.730   3.445   9.481  1.2012 -1.1875  0.3746
28244SOL    HW286472   4.684   3.456   9.625  2.6885 -0.4470  0.8180
28245SOL     OW86473   0.627   5.830   5.731 -0.2160  0.1645  0.2744
28245SOL    HW186474   0.633   5.781   5.649  1.1567 -0.8987  0.9684
28245SOL    HW286475   0.606   5.920   5.703  1.3408  0.0826 -1.3522
28246SOL     OW86476   2.585   6.284   0.087 -0.6971 -0.4642  0.0895
28246SOL    HW186477   2.544   6.208   0.127  0.6664 -1.2224  0.1080
28246SOL    HW286478   2.601   6.258  -0.004 -1.5532  0.3484 -0.3108
28247SOL     OW86479   3.159   5.175   0.706 -0.9615 -0.2123  0.6831
28247SOL    HW186480   3.113   5.252   0.673  2.2441  1.5271 -0.0944
28247SOL    HW286481   3.154   5.183   0.802  1.6516  2.7031  0.7414
28248SOL     OW86482   2.862   0.784   7.795  0.6033  0.3516  0.0965
28248SOL    HW186483   2.840   0.714   7.733 -0.2746  0.6269  0.0933
28248SOL    HW286484   2.918   0.843   7.745 -2.3891  2.1186 -1.4373
28249SOL     OW86485   7.655   5.838   5.831  0.2114 -0.2345  0.2074
28249SOL    HW186486   7.699   5.838   5.746 -0.3795  0.8665 -0.1243
28249SOL    HW286487   7.706   5.899   5.884 -0.6767  0.7818 -0.0722
28250SOL     OW86488   0.782   8.594   5.719  0.4686  0.0429  0.4495
28250SOL    HW186489   0.736   8.546   5.787 -2.0308  1.2735 -0.2734
28250SOL    HW286490   0.807   8.677   5.760 -1.9647  1.2378 -0.2695
28251SOL     OW86491   0.736   7.770   1.280  0.3632 -0.3140  0.4979
28251SOL    HW186492   0.659   7.773   1.337  0.3592  0.2844  0.4701
28251SOL    HW286493   0.750   7.861   1.254 -0.7441 -0.7698 -1.9687
28252SOL     OW86494   6.757   2.294   0.953  0.4623  0.4157  0.2232
28252SOL    HW186495   6.778   2.207   0.987 -1.0946 -0.6771 -1.3973
28252SOL    HW286496   6.833   2.318   0.900  1.6681  0.8798  2.0773
28253SOL     OW86497   4.748   8.914   3.564 -0.3966  0.3765 -0.0655
28253SOL    HW186498   4.697   8.906   3.484  0.3060 -0.6119 -0.4297
28253SOL    HW286499   4.710   8.989   3.609 -1.0448  0.7133 -1.1389
28254SOL     OW86500   5.818   3.147   2.246 -0.1746 -0.0969 -0.3563
28254SOL    HW186501   5.779   3.190   2.170 -1.3220  0.5788  0.5835
28254SOL    HW286502   5.838   3.218   2.307 -0.2222 -0.7075  0.3855
28255SOL     OW86503   7.152   7.467   8.775 -0.1060  0.1250 -0.0672
28255SOL    HW186504   7.148   7.521   8.854 -0.8646 -0.0499  0.0265
28255SOL    HW286505   7.242   7.437   8.771 -0.3041 -0.7666  1.3594
28256SOL     OW86506   4.713   0.346   3.272 -0.1621  0.1497  0.3222
28256SOL    HW186507   4.648   0.336   3.203 -1.1575 -0.6229  1.3176
28256SOL    HW286508   4.777   0.277   3.256  0.5145  1.0091 -0.7517
28257SOL     OW86509   3.040   3.850   3.236 -0.7589  0.5458  0.6391
28257SOL    HW186510   3.115   3.893   3.195 -0.5404 -1.7158 -1.5579
28257SOL    HW286511   3.075   3.768   3.271 -2.3355 -1.2161 -1.6378
28258SOL     OW86512   0.517   8.790   4.247  0.2471  0.5329 -0.0193
28258SOL    HW186513   0.595   8.739   4.226  1.0067  0.7654  1.9612
28258SOL    HW286514   0.459   8.778   4.172  0.5419 -2.9251  0.1420
28259SOL     OW86515   0.685   1.202   3.371 -0.1130 -0.2072  0.0849
28259SOL    HW186516   0.757   1.194   3.309 -0.6242 -0.2967 -0.5125
28259SOL    HW286517   0.724   1.239   3.450  0.6669 -0.6752 -0.0773
28260SOL     OW86518   4.268   3.534   6.302 -0.8564 -0.2213  0.5805
28260SOL    HW186519   4.299   3.464   6.361  0.4672  1.0440  1.4485
28260SOL    HW286520   4.346   3.586   6.284 -1.4039 -0.0859 -1.6903
28261SOL     OW86521   2.538   3.515   9.177  0.0915  0.1687 -0.3643
28261SOL    HW186522   2.546   3.600   9.133  1.2393 -0.1379 -0.7816
28261SOL    HW286523   2.447   3.490   9.164  0.1074  0.6419 -1.5327
28262SOL     OW86524   7.244   8.743   5.984  0.6895 -0.8705  0.2022
28262SOL    HW186525   7.244   8.649   5.963 -0.5983 -0.9303  0.3554
28262SOL    HW286526   7.254   8.786   5.900  2.0611 -1.1385  0.2117
28263SOL     OW86527   1.696   8.581   1.992  0.7234  0.1892  0.6321
28263SOL    HW186528   1.622   8.625   1.950  0.7922 -0.0611  0.2349
28263SOL    HW286529   1.693   8.609   2.083 -0.9886 -1.2698  1.1027
28264SOL     OW86530   0.616   6.233   2.195 -0.1955  0.5715  0.1724
28264SOL    HW186531   0.591   6.189   2.114 -1.2492  1.8398 -0.2307
28264SOL    HW286532   0.563   6.191   2.262  0.8521 -0.6441  0.2658
28265SOL     OW86533   5.069   4.003   1.893  0.1638  0.2070 -0.2481
28265SOL    HW186534   5.005   4.000   1.822  1.8671  0.8789 -1.8889
28265SOL    HW286535   5.151   4.030   1.851  1.4140 -0.0560  1.8607
28266SOL     OW86536   5.961   2.503   9.145 -0.1967 -0.5365 -0.3330
28266SOL    HW186537   5.890   2.547   9.098 -0.5293 -1.9006 -1.1503
28266SOL    HW286538   6.034   2.504   9.083 -0.1531 -0.9801 -0.2890
28267SOL     OW86539   0.230   4.849   2.276 -0.3232  0.3836  0.1114
28267SOL    HW186540   0.202   4.807   2.357 -0.7753 -0.1106 -0.2980
28267SOL    HW286541   0.319   4.817   2.263 -0.6289 -0.3811 -0.1461
28268SOL     OW86542   8.349   3.772   3.700 -0.7663 -0.1769 -0.0854
28268SOL    HW186543   8.285   3.704   3.719 -2.3573  1.0896 -0.6838
28268SOL    HW286544   8.391   3.742   3.619 -1.7778 -0.2552 -0.6046
28269SOL     OW86545   6.035   4.918   6.482 -0.2775  0.3989  0.0694
28269SOL    HW186546   6.000   4.932   6.569 -0.4540  1.8088 -0.1997
28269SOL    HW286547   5.969   4.864   6.438 -0.5663  0.3469  0.5569
28270SOL     OW86548   1.808   0.307   2.668  0.2913  0.8704  0.1061
28270SOL    HW186549   1.796   0.346   2.582  1.8404  1.1995  0.0071
28270SOL    HW286550   1.726   0.324   2.714 -0.3761  1.1085 -1.1394
28271SOL     OW86551   7.091   7.103   1.524 -0.1161  0.5621  0.3176
28271SOL    HW186552   7.184   7.086   1.538  0.2580  2.5688  0.5712
28271SOL    HW286553   7.046   7.049   1.589  0.6591 -2.3515 -1.3935
28272SOL     OW86554   3.715   2.484   6.290  0.8485 -0.0511  0.0544
28272SOL    HW186555   3.810   2.486   6.305  0.7310  0.7005  0.7747
28272SOL    HW286556   3.699   2.559   6.232  0.9892 -1.5720 -2.0507
28273SOL     OW86557   1.769   3.352   9.468  0.0322  0.1519  0.0841
28273SOL    HW186558   1.775   3.262   9.438 -3.0770 -0.6178  1.4377
28273SOL    HW286559   1.786   3.347   9.562  0.6839  1.1391  0.0375
28274SOL     OW86560   9.417   6.106   7.494 -0.0704 -0.8867 -0.5176
28274SOL    HW186561   9.393   6.016   7.517 -1.8614 -0.8757 -2.1034
28274SOL    HW286562   9.368   6.125   7.414  1.9806  0.7721 -1.4951
28275SOL     OW86563   7.953   6.864   1.685 -0.1529  0.1321  0.1223
28275SOL    HW186564   7.954   6.955   1.653 -1.5483 -0.0290 -0.4719
28275SOL    HW286565   8.023   6.861   1.750  0.0547  1.5845  0.0154
28276SOL     OW86566   6.118   0.026   1.553  0.8672  0.1931 -0.4606
28276SOL    HW186567   6.148  -0.013   1.471  0.8027  1.2324 -1.0049
28276SOL    HW286568   6.161   0.112   1.555  0.4982  0.3672  0.3644
28277SOL     OW86569   8.471   4.672   7.066  0.2464 -0.3888 -0.1102
28277SOL    HW186570   8.566   4.662   7.071  0.4119  0.4723 -1.1668
28277SOL    HW286571   8.436   4.593   7.107  1.4336 -1.9640 -1.9782
28278SOL     OW86572   6.463   8.777   7.397 -0.6026  0.5245 -0.2552
28278SOL    HW186573   6.427   8.834   7.465 -0.6864 -0.2992  0.4109
28278SOL    HW286574   6.477   8.835   7.322 -0.4285  1.4695  0.4882
28279SOL     OW86575   8.473   5.434   3.535  0.1225 -0.2014  0.0091
28279SOL    HW186576   8.444   5.523   3.513 -0.0725  0.0025  1.0386
28279SOL    HW286577   8.392   5.387   3.554  0.2674 -0.4463  0.0211
28280SOL     OW86578   8.512   8.311   1.147  0.0743 -0.5916  0.1423
28280SOL    HW186579   8.533   8.256   1.223 -0.8174 -1.0185  0.0896
28280SOL    HW286580   8.582   8.377   1.146  0.7572 -1.2847  0.6335
28281SOL     OW86581   3.071   0.753   3.011 -0.3587  0.2912  0.1835
28281SOL    HW186582   3.102   0.836   2.974  0.2453 -0.1154 -0.2442
28281SOL    HW286583   2.987   0.775   3.050 -0.6708  0.9038 -0.7826
28282SOL     OW86584   2.357   0.145   4.647  0.4477 -0.2781 -0.2469
28282SOL    HW186585   2.346   0.161   4.740  0.2677  2.4020 -0.6402
28282SOL    HW286586   2.274   0.172   4.607  0.1764 -2.2520 -1.1482
28283SOL     OW86587   7.818   6.057   8.010  0.2237 -0.4962  0.2466
28283SOL    HW186588   7.897   6.110   8.012  0.4416 -0.8422  1.1873
28283SOL    HW286589   7.831   5.999   7.935  0.5850 -0.1403  0.0295
28284SOL     OW86590   0.191   4.976   6.351  0.4350 -0.0778 -0.1879
28284SOL    HW186591   0.139   5.055   6.335  0.7428  0.2027  0.1576
28284SOL    HW286592   0.139   4.904   6.315 -1.1825 -0.0847  1.9896
28285SOL     OW86593   6.292   7.116   9.368 -0.1370  0.1763 -0.9074
28285SOL    HW186594   6.204   7.088   9.393 -1.1824  2.0954 -2.1725
28285SOL    HW286595   6.294   7.209   9.390  1.4169  0.2585 -1.3140
28286SOL     OW86596   8.362   6.988   0.560 -0.2748  0.7781 -0.4512
28286SOL    HW186597   8.401   6.911   0.519  0.7721  1.2465 -0.3692
28286SOL    HW286598   8.288   7.010   0.504  0.0188  0.3098 -1.0383
28287SOL     OW86599   6.321   5.996   5.247  0.1580 -0.6991  0.0741
28287SOL    HW186600   6.344   6.076   5.294 -1.0616  0.5259 -1.2974
28287SOL    HW286601   6.403   5.968   5.206  1.0124 -1.2554  2.0753
28288SOL     OW86602   7.751   2.273   2.554 -0.5764  0.6416 -0.1196
28288SOL    HW186603   7.808   2.345   2.580 -0.3156  0.2058  0.5717
28288SOL    HW286604   7.786   2.197   2.600 -0.8893  0.0852 -0.7770
28289SOL     OW86605   1.035   4.691   5.539 -0.2532 -0.2502 -0.0087
28289SOL    HW186606   1.018   4.784   5.558  0.5180  0.1680 -1.2463
28289SOL    HW286607   1.111   4.692   5.482  1.4597 -1.8167  2.0869
28290SOL     OW86608   3.076   8.370   5.042 -0.1686 -0.3776 -0.9814
28290SOL    HW186609   3.107   8.298   5.097 -1.8034  0.8462  1.8073
28290SOL    HW286610   2.994   8.338   5.004 -1.8256  0.4211  1.6443
28291SOL     OW86611   2.563   7.334   1.503 -0.4658  0.2311  0.2248
28291SOL    HW186612   2.639   7.392   1.505  0.0600 -0.4437  0.0101
28291SOL    HW286613   2.507   7.370   1.434  1.9461 -2.0588 -3.2005
28292SOL     OW86614   2.791   3.415   5.206 -0.1985  0.0010  0.6371
28292SOL    HW186615   2.859   3.435   5.142 -1.6205  0.9512 -0.6701
28292SOL    HW286616   2.774   3.497   5.251  0.7044 -0.6360  2.2008
28293SOL     OW86617   1.963   4.483   1.847  0.0303  0.5247 -0.3056
28293SOL    HW186618   1.918   4.400   1.835  1.2340 -0.5933  2.1183
28293SOL    HW286619   2.041   4.461   1.899  1.1405  2.9701 -0.7629
28294SOL     OW86620   4.345   5.721   7.817  0.3916  0.1497  0.4950
28294SOL    HW186621   4.249   5.727   7.814  0.3281 -0.4020  1.1220
28294SOL    HW286622   4.374   5.753   7.732 -0.3709 -0.0086  0.1669
28295SOL     OW86623   4.695   1.095   6.941  0.1261 -0.2424  0.0727
28295SOL    HW186624   4.697   1.028   6.872  0.6120  0.6394 -0.8014
28295SOL    HW286625   4.763   1.069   7.002  0.2438 -0.5973 -0.2032
28296SOL     OW86626   5.538   3.187   1.989  0.8663  0.2583 -0.4563
28296SOL    HW186627   5.529   3.206   2.083  1.4036 -3.0843  0.4047
28296SOL    HW286628   5.597   3.255   1.957 -0.2775  2.2154  1.3276
28297SOL     OW86629   0.218   5.314   9.319  0.0474  0.5676 -0.2419
28297SOL    HW186630   0.196   5.362   9.239  0.1557  2.0250  0.5676
28297SOL    HW286631   0.270   5.376   9.370 -0.8227  0.0162  1.3784
28298SOL     OW86632   4.232   8.090   7.930 -0.2675 -0.0983  0.8511
28298SOL    HW186633   4.176   8.166   7.910 -0.9690 -0.7789  0.1400
28298SOL    HW286634   4.310   8.128   7.971 -0.0577  1.1190 -0.6031
28299SOL     OW86635   6.318   7.455   0.830  0.5833  0.4239  0.4800
28299SOL    HW186636   6.227   7.447   0.858  0.2239  1.3602 -0.3607
28299SOL    HW286637   6.360   7.374   0.859 -1.0549 -1.0820 -1.1457
28300SOL     OW86638   6.053   2.708   2.643  0.4248  0.6609 -0.5149
28300SOL    HW186639   6.082   2.777   2.583 -1.7273 -0.1637 -2.6591
28300SOL    HW286640   6.050   2.629   2.589 -1.2136 -0.2181  0.7820
28301SOL     OW86641   1.445   0.162   5.614  0.0545  0.4942 -0.0730
28301SOL    HW186642   1.508   0.200   5.554 -0.0119 -0.4111 -0.7254
28301SOL    HW286643   1.447   0.220   5.691  3.1580 -0.6093  0.8098
28302SOL     OW86644   0.485   8.512   7.486 -0.2876  0.2224 -0.0423
28302SOL    HW186645   0.466   8.592   7.534 -0.3391 -0.0152  0.3376
28302SOL    HW286646   0.428   8.515   7.409  0.3173  0.9549 -0.4758
28303SOL     OW86647   2.533   2.452   9.032  0.1741 -0.4068  0.5145
28303SOL    HW186648   2.619   2.494   9.028  0.1793 -0.4834 -0.3083
28303SOL    HW286649   2.508   2.440   8.940 -0.6782 -0.4605  0.7501
28304SOL     OW86650   7.236   2.308   8.630  0.1271 -0.2054 -0.5919
28304SOL    HW186651   7.302   2.373   8.607 -0.3789  0.7460  0.5811
28304SOL    HW286652   7.154   2.357   8.634 -0.7955 -1.4640 -2.5685
28305SOL     OW86653   7.867   2.975   8.355  0.3111 -0.2687  0.3399
28305SOL    HW186654   7.873   3.022   8.271  1.5136 -2.2942 -0.7981
28305SOL    HW286655   7.812   3.031   8.410  0.3143  1.6301 -1.4497
28306SOL     OW86656   2.143   8.642   5.540 -0.1376 -0.2677 -0.1890
28306SOL    HW186657   2.192   8.702   5.596 -1.8281  0.1569  0.9413
28306SOL    HW286658   2.066   8.619   5.592 -0.8670 -1.3239 -1.6539
28307SOL     OW86659   8.268   4.407   2.065  0.2358 -0.1180 -0.2746
28307SOL    HW186660   8.345   4.458   2.042  1.0156 -0.7954  0.6826
28307SOL    HW286661   8.267   4.335   2.002  1.6671 -1.3042  0.9812
28308SOL     OW86662   0.304   8.524   0.878  0.5733 -0.2402  0.2996
28308SOL    HW186663   0.318   8.588   0.808 -1.1091 -1.2298 -1.0292
28308SOL    HW286664   0.325   8.440   0.838  2.6201 -0.6002  1.9733
28309SOL     OW86665   4.169   5.438   1.805  0.2045  0.2343 -0.0192
28309SOL    HW186666   4.189   5.448   1.712  1.5083  1.8493  0.3911
28309SOL    HW286667   4.162   5.528   1.838  0.2326 -0.3053  1.5332
28310SOL     OW86668   2.568   5.410   1.567  0.2363  0.1976  0.2649
28310SOL    HW186669   2.498   5.421   1.631 -1.4852 -0.3350 -1.4694
28310SOL    HW286670   2.580   5.315   1.560  0.5125  0.2576 -0.1181
28311SOL     OW86671   8.216   3.081   2.458 -0.1863  0.3784  0.1523
28311SOL    HW186672   8.171   3.165   2.473 -0.0986  0.7816 -1.6289
28311SOL    HW286673   8.145   3.018   2.443 -0.2527  0.0959  1.5116
28312SOL     OW86674   7.277   6.323   1.651 -0.5390 -0.1786  0.0264
28312SOL    HW186675   7.228   6.364   1.723  1.2098  2.2980 -0.0555
28312SOL    HW286676   7.306   6.396   1.598  0.2184 -1.8124 -1.9239
28313SOL     OW86677   8.891   2.369   5.317  0.1051 -0.2794  0.2170
28313SOL    HW186678   8.932   2.432   5.376  0.8360  0.7541 -1.3296
28313SOL    HW286679   8.958   2.351   5.251 -1.1352 -0.3357 -1.0734
28314SOL     OW86680   2.504   6.909   2.208  0.1038 -0.1595  0.2987
28314SOL    HW186681   2.441   6.839   2.225 -0.8840  0.8264  0.8303
28314SOL    HW286682   2.528   6.898   2.116 -1.1047 -0.3643 -0.0064
28315SOL     OW86683   7.502   2.607   7.533 -0.0480  0.2440 -0.2949
28315SOL    HW186684   7.449   2.527   7.530  0.8775 -0.4025  0.1884
28315SOL    HW286685   7.538   2.616   7.445  0.8704 -0.5883 -0.0164
28316SOL     OW86686   6.272   7.967   1.727 -0.1619  0.0577  0.3535
28316SOL    HW186687   6.335   7.910   1.771  0.0482  0.1752  0.2129
28316SOL    HW286688   6.279   7.943   1.634 -1.7419 -1.2895  0.5456
28317SOL     OW86689   4.301   4.792   2.476  0.3928  0.1906 -0.1764
28317SOL    HW186690   4.296   4.831   2.389 -0.0756  1.3827  0.3698
28317SOL    HW286691   4.386   4.748   2.477 -0.0250 -0.7114 -1.5757
28318SOL     OW86692   4.671   7.269   5.154 -0.1658  0.1128  0.2361
28318SOL    HW186693   4.623   7.241   5.076  0.2442 -0.3622  0.1559
28318SOL    HW286694   4.664   7.365   5.152  0.1526  0.1301 -0.5880
28319SOL     OW86695   4.840   9.113   7.744  0.4079  0.2897  0.2398
28319SOL    HW186696   4.889   9.138   7.822 -0.5401  0.5768  0.7621
28319SOL    HW286697   4.749   9.110   7.773  0.2425 -1.6370 -0.3335
28320SOL     OW86698   6.004   3.466   3.790  0.2841 -0.1908  0.4480
28320SOL    HW186699   6.043   3.489   3.705  1.3675 -4.3374 -0.4327
28320SOL    HW286700   6.074   3.481   3.853  1.3034 -1.8542 -0.2309
28321SOL     OW86701   5.139   2.457   3.827 -0.3950 -0.2507  0.2165
28321SOL    HW186702   5.103   2.544   3.817 -0.5046 -0.2463  0.6104
28321SOL    HW286703   5.225   2.461   3.785  0.4624  0.6254  1.9291
28322SOL     OW86704   3.105   4.553   8.298  0.0516 -0.0128 -0.1129
28322SOL    HW186705   3.174   4.568   8.362 -0.3265  4.2446 -0.4024
28322SOL    HW286706   3.026   4.543   8.350  0.1371  0.7577  0.1872
28323SOL     OW86707   8.628   9.458   0.656 -0.2325 -0.0884  0.3194
28323SOL    HW186708   8.561   9.393   0.678  0.7158 -0.9179  0.8281
28323SOL    HW286709   8.596   9.539   0.695 -0.7243 -0.5810  0.9645
28324SOL     OW86710   3.291   8.530   1.037  0.4453  0.7478 -0.2274
28324SOL    HW186711   3.285   8.609   0.984 -0.4201 -0.2081 -1.6395
28324SOL    HW286712   3.200   8.507   1.057  0.7734  1.5119  2.4101
28325SOL     OW86713   7.262   5.025   0.052  0.4032  0.3423  0.6098
28325SOL    HW186714   7.274   4.930   0.048 -0.5412  0.1352  1.8859
28325SOL    HW286715   7.312   5.059  -0.022 -1.4144 -1.3364 -1.5430
28326SOL     OW86716   1.032   7.635   1.502 -0.6329  0.0953 -0.4736
28326SOL    HW186717   0.972   7.638   1.577 -0.3912  0.3598 -0.2906
28326SOL    HW286718   1.114   7.673   1.535 -0.4335 -0.0589 -0.7869
28327SOL     OW86719   0.364   3.699   3.966 -0.4337 -0.8941 -0.7597
28327SOL    HW186720   0.372   3.618   4.016  0.9260 -1.3597 -1.6886
28327SOL    HW286721   0.452   3.714   3.930 -0.6259  1.0187 -0.5666
28328SOL     OW86722   1.168   7.530   8.685 -0.9047  0.1179 -0.0423
28328SOL    HW186723   1.253   7.491   8.702 -0.5883  0.3277 -1.1111
28328SOL    HW286724   1.126   7.471   8.622 -1.1315  0.5662 -0.3178
28329SOL     OW86725   8.288   5.290   7.001  0.1494  0.2592 -0.1121
28329SOL    HW186726   8.342   5.344   6.943  1.1992 -0.6923 -0.0563
28329SOL    HW286727   8.294   5.333   7.086  2.1393 -0.6273  0.2739
28330SOL     OW86728   6.945   3.176   6.035 -0.4278  0.1523 -0.0027
28330SOL    HW186729   6.885   3.172   6.109  0.9101  1.5510  1.2462
28330SOL    HW286730   7.017   3.117   6.059 -0.4968 -0.2227 -0.6975
28331SOL     OW86731   3.876   7.134   2.284  0.2451 -0.5833 -0.9395
28331SOL    HW186732   3.817   7.175   2.348  0.3798  0.1349 -1.2658
28331SOL    HW286733   3.841   7.160   2.199  1.3724  0.3740 -1.1359
28332SOL     OW86734   0.632   0.825   3.629 -0.0731 -0.0469  0.2691
28332SOL    HW186735   0.597   0.908   3.659 -0.1548  0.1439 -0.3454
28332SOL    HW286736   0.690   0.796   3.700 -1.1970 -0.2041  1.1427
28333SOL     OW86737   0.035   4.745   0.593  0.0727 -0.1321  0.4584
28333SOL    HW186738   0.127   4.717   0.584 -0.3434 -1.5314  0.3465
28333SOL    HW286739  -0.009   4.705   0.518 -0.4181  1.6058 -0.2235
28334SOL     OW86740   5.453   5.777   6.089  0.2698  0.1025  0.0906
28334SOL    HW186741   5.527   5.726   6.121  0.0627  0.3745  1.0468
28334SOL    HW286742   5.389   5.711   6.061 -0.2743 -0.2313  1.9524
28335SOL     OW86743   3.006   5.849   4.355 -0.4133  0.5900  0.2005
28335SOL    HW186744   2.943   5.920   4.338 -0.7716  0.6410  1.5836
28335SOL    HW286745   2.963   5.794   4.420 -1.6535 -2.9747 -3.2902
28336SOL     OW86746   1.739   0.879   8.129  0.2564  0.1985 -0.1474
28336SOL    HW186747   1.802   0.888   8.201 -0.4948 -0.1006  0.5690
28336SOL    HW286748   1.660   0.845   8.171 -0.7560  1.6100 -0.8143
28337SOL     OW86749   9.356   5.643   6.246 -0.3076 -0.2061  0.4183
28337SOL    HW186750   9.375   5.686   6.163  1.3030  0.7209  1.2210
28337SOL    HW286751   9.376   5.550   6.230 -0.4593 -0.1155 -0.3458
28338SOL     OW86752   2.638   0.016   6.388  0.2054  0.1102 -0.0914
28338SOL    HW186753   2.629  -0.043   6.462 -0.9394  0.3689 -0.0104
28338SOL    HW286754   2.699   0.083   6.418 -0.1087  0.1099  0.5528
28339SOL     OW86755   4.688   9.506   4.573  0.4250  0.3828 -0.4403
28339SOL    HW186756   4.700   9.522   4.480 -0.2176  1.6764 -0.3151
28339SOL    HW286757   4.703   9.591   4.615 -0.3979  0.0797  0.5212
28340SOL     OW86758   5.686   3.260   2.630 -0.0165 -0.0762  0.6362
28340SOL    HW186759   5.595   3.290   2.641  0.4403  0.9383  1.9669
28340SOL    HW286760   5.706   3.214   2.711  1.2088  1.2888  1.1543
28341SOL     OW86761   1.058   1.798   0.574 -0.1050  0.5565  0.5125
28341SOL    HW186762   1.093   1.766   0.657  2.0780  0.2700 -0.4396
28341SOL    HW286763   1.021   1.884   0.596 -3.0040 -1.0204  2.4368
28342SOL     OW86764   8.921   2.979   0.575 -0.5137 -0.3982  0.2660
28342SOL    HW186765   8.862   3.054   0.572  0.3744  0.3166  0.1894
28342SOL    HW286766   8.875   2.914   0.628 -1.0713  0.3984  0.7874
28343SOL     OW86767   6.217   6.898   6.006  0.5013  0.2631  0.3137
28343SOL    HW186768   6.266   6.816   6.010 -2.3388 -1.5441  0.6842
28343SOL    HW286769   6.224   6.926   5.914 -0.0295 -1.4519 -0.2835
28344SOL     OW86770   8.549   5.729   8.830 -0.3097  0.5299 -0.0891
28344SOL    HW186771   8.457   5.734   8.804  0.0350  1.7333 -1.1413
28344SOL    HW286772   8.599   5.738   8.749  0.7557 -0.8450  0.3660
28345SOL     OW86773   3.927   6.041   1.131  0.0981 -0.7247  0.4272
28345SOL    HW186774   3.949   6.130   1.160  1.8737 -0.4180 -1.6162
28345SOL    HW286775   3.846   6.053   1.081  1.0696  0.0383 -1.0289
28346SOL     OW86776   3.961   3.076   8.019  0.2763 -0.1687 -0.1745
28346SOL    HW186777   3.871   3.089   8.048 -0.3773 -1.1799 -1.6538
28346SOL    HW286778   3.989   2.996   8.062  0.9226  0.7624  1.2221
28347SOL     OW86779   3.973   5.566   0.472  0.0401 -0.2518 -0.0347
28347SOL    HW186780   3.996   5.544   0.562 -0.6563 -3.1615 -0.4480
28347SOL    HW286781   3.942   5.483   0.435 -0.0246  0.9297 -2.8573
28348SOL     OW86782   4.369   9.199   3.533  0.1919  0.1556  0.5772
28348SOL    HW186783   4.419   9.164   3.607  0.3677  0.8695  0.8052
28348SOL    HW286784   4.281   9.163   3.544  0.3832 -0.2493  0.7801
28349SOL     OW86785   7.855   4.393   2.598  0.2130  0.0486  0.2379
28349SOL    HW186786   7.853   4.304   2.561  0.5714  0.1689 -0.0703
28349SOL    HW286787   7.894   4.381   2.685  0.5862 -0.0459  0.0583
28350SOL     OW86788   4.945   8.365   8.793  0.5392  0.0419  1.0131
28350SOL    HW186789   5.023   8.344   8.845  2.0833  0.2227 -1.1310
28350SOL    HW286790   4.975   8.367   8.703 -1.8092  0.9131  0.1628
28351SOL     OW86791   1.654   5.497   1.872 -0.2413  0.5578 -0.5366
28351SOL    HW186792   1.717   5.457   1.933 -3.2066 -2.3438  0.9807
28351SOL    HW286793   1.691   5.583   1.852  2.9968 -0.0197  2.0373
28352SOL     OW86794   8.396   3.505   0.107  0.3748 -1.0603 -0.1145
28352SOL    HW186795   8.358   3.492   0.021  2.5317 -1.2712 -1.0969
28352SOL    HW286796   8.361   3.590   0.136  0.0378 -0.7376 -1.4118
28353SOL     OW86797   8.175   0.135   4.839 -1.0303 -0.2285  0.0976
28353SOL    HW186798   8.252   0.189   4.825 -0.0726 -1.2409  1.1262
28353SOL    HW286799   8.189   0.059   4.782 -0.7078 -0.9155  1.0629
28354SOL     OW86800   5.498   7.043   8.229  0.2844  0.9305  0.1496
28354SOL    HW186801   5.433   6.993   8.279  0.5580  0.2386 -0.1759
28354SOL    HW286802   5.577   6.989   8.230  0.7585  1.6092  0.2509
28355SOL     OW86803   1.626   0.064   3.015  0.3205  0.7563 -0.4404
28355SOL    HW186804   1.553   0.126   3.009  0.0151  0.5565  0.9694
28355SOL    HW286805   1.594  -0.015   2.972  0.6008  1.4466 -1.9717
28356SOL     OW86806   7.607   5.753   7.299 -0.1434 -0.1100  0.0784
28356SOL    HW186807   7.573   5.665   7.287 -1.3192  0.4997 -1.3308
28356SOL    HW286808   7.674   5.763   7.231  1.4477 -0.5663  1.5008
28357SOL     OW86809   2.121   7.350   7.438 -0.6547  0.1922  0.3715
28357SOL    HW186810   2.049   7.385   7.385  0.6832  1.8678 -0.4241
28357SOL    HW286811   2.159   7.427   7.480  1.6455 -0.4317 -0.4601
28358SOL     OW86812   6.166   1.668   5.052 -0.6271  0.7855  1.2419
28358SOL    HW186813   6.081   1.647   5.014 -0.7059  0.3672  1.6400
28358SOL    HW286814   6.204   1.733   4.992  0.6087 -2.0638 -1.3596
28359SOL     OW86815   4.291   3.502   4.174 -0.4109  0.3910  0.0433
28359SOL    HW186816   4.229   3.541   4.112  0.5637 -0.3299 -1.4548
28359SOL    HW286817   4.320   3.421   4.131  0.5537  0.0235  1.3114
28360SOL     OW86818   6.754   0.983   5.525  0.1704 -0.3585  0.5336
28360SOL    HW186819   6.825   1.026   5.572 -0.1011  1.0512 -0.2921
28360SOL    HW286820   6.727   0.912   5.583  2.5478 -1.2590  0.6526
28361SOL     OW86821   8.110   3.974   8.918 -0.0264  0.1197 -0.1793
28361SOL    HW186822   8.095   3.967   9.012 -2.4573 -0.5210 -0.5519
28361SOL    HW286823   8.202   4.001   8.911  0.5529 -0.8741  2.3244
28362SOL     OW86824   3.047   1.343   6.189  0.3090  0.0739 -0.2091
28362SOL    HW186825   2.978   1.284   6.156  1.6660 -1.0801 -1.0911
28362SOL    HW286826   2.999   1.417   6.226 -1.3928 -0.4677 -1.2185
28363SOL     OW86827   2.381   1.763   4.335 -0.2891  0.2090 -0.4087
28363SOL    HW186828   2.383   1.670   4.315  1.3379  0.5750 -2.2007
28363SOL    HW286829   2.427   1.805   4.263 -1.4987  2.4889  0.0273
28364SOL     OW86830   0.377   6.345   1.217  0.3655  0.1233  0.9715
28364SOL    HW186831   0.286   6.363   1.242  0.4941  1.7578  0.3957
28364SOL    HW286832   0.428   6.363   1.296  0.2917  0.4175  0.9553
28365SOL     OW86833   3.417   8.704   4.830  0.1090 -0.0328 -0.1486
28365SOL    HW186834   3.415   8.703   4.734  0.5305  0.7249 -0.1723
28365SOL    HW286835   3.338   8.657   4.856 -0.7523  0.9439 -0.8791
28366SOL     OW86836   8.923   0.222   3.940  0.5696 -0.1863  0.1798
28366SOL    HW186837   8.953   0.287   3.878  1.1496 -0.0351  0.6090
28366SOL    HW286838   8.831   0.206   3.917  0.9579 -0.6253 -1.1280
28367SOL     OW86839   5.331   7.083   4.810  0.4322 -0.6031 -0.3292
28367SOL    HW186840   5.319   7.047   4.898  3.7301 -1.0565  0.0728
28367SOL    HW286841   5.263   7.150   4.801 -1.1297 -1.8012  1.8153
28368SOL     OW86842   1.031   6.366   9.100 -0.3474 -0.5682 -0.3793
28368SOL    HW186843   1.114   6.352   9.055 -1.2971 -0.2487 -2.3367
28368SOL    HW286844   0.965   6.333   9.039 -1.8273  1.4075  0.0688
28369SOL     OW86845   4.434   4.201   4.122 -0.7704  0.0408  0.7660
28369SOL    HW186846   4.506   4.227   4.180 -2.9588  3.0318  2.4027
28369SOL    HW286847   4.465   4.225   4.034  0.4548  0.7678  1.3634
28370SOL     OW86848   1.284   8.926   4.434 -0.5169 -0.2265 -0.2106
28370SOL    HW186849   1.194   8.900   4.413 -1.0639  2.0673 -1.0632
28370SOL    HW286850   1.277   9.020   4.455  1.5336 -0.2472  0.7882
28371SOL     OW86851   5.855   0.036   4.414 -0.6518 -0.0435  0.3427
28371SOL    HW186852   5.824   0.125   4.398  1.2162  0.9731  1.8327
28371SOL    HW286853   5.877   0.002   4.327 -2.3524  0.5482 -0.3492
28372SOL     OW86854   2.527   8.024   2.226 -0.4171 -0.2727  0.3231
28372SOL    HW186855   2.474   7.972   2.287 -0.8760 -1.6473 -1.1671
28372SOL    HW286856   2.490   8.112   2.231 -1.6088 -0.7755  0.7241
28373SOL     OW86857   5.162   4.566   6.850 -0.0743  0.3769 -0.4432
28373SOL    HW186858   5.085   4.538   6.901  1.0304  0.4462  1.3565
28373SOL    HW286859   5.128   4.582   6.762 -2.4025  1.7722  0.6229
28374SOL     OW86860   3.551   8.865   0.702 -0.3857 -0.7335  0.4062
28374SOL    HW186861   3.466   8.875   0.659 -0.1687  0.1624  0.1633
28374SOL    HW286862   3.613   8.906   0.642  0.5741 -3.3855 -0.5092
28375SOL     OW86863   1.254   9.229   3.564  0.5549 -0.0534  0.2517
28375SOL    HW186864   1.256   9.308   3.617 -0.0846  0.3011 -0.2415
28375SOL    HW286865   1.298   9.252   3.483 -2.2430  0.7723 -1.1495
28376SOL     OW86866   1.497   2.008   1.752  0.7108 -0.5311  0.1800
28376SOL    HW186867   1.429   1.974   1.693  0.3044 -2.2091  1.5144
28376SOL    HW286868   1.469   2.097   1.772 -0.0094 -0.4985 -0.8927
28377SOL     OW86869   8.956   2.128   1.859 -0.1065  0.2072 -0.2486
28377SOL    HW186870   8.934   2.062   1.925  0.9721 -0.6146 -0.6879
28377SOL    HW286871   8.925   2.210   1.896  3.2161  0.3165  2.7961
28378SOL     OW86872   1.443   5.086   8.491 -0.3209  0.0400 -0.2691
28378SOL    HW186873   1.457   5.167   8.539  0.7224 -0.8638  1.0261
28378SOL    HW286874   1.448   5.111   8.399  0.5244  1.3505  0.1085
28379SOL     OW86875   7.443   8.954   8.023 -0.0839  0.3951 -0.2996
28379SOL    HW186876   7.364   8.986   7.978 -0.8730 -2.2784 -1.0390
28379SOL    HW286877   7.454   9.014   8.097 -1.1439  2.5181 -1.7468
28380SOL     OW86878   9.488   0.810   0.763 -0.1223  0.0951 -0.0540
28380SOL    HW186879   9.457   0.832   0.851 -2.1062 -0.3735 -0.5755
28380SOL    HW286880   9.533   0.726   0.773 -1.9272 -0.8805  0.2657
28381SOL     OW86881   2.211   1.076   5.073 -0.0080  0.3020  0.0195
28381SOL    HW186882   2.118   1.061   5.054 -0.1413  0.4942  0.4997
28381SOL    HW286883   2.254   1.067   4.989 -0.4835  0.3589 -0.2363
28382SOL     OW86884   6.424   2.627   5.469  0.4849  0.2803 -0.2364
28382SOL    HW186885   6.443   2.533   5.468  1.3184  0.3847  1.4875
28382SOL    HW286886   6.378   2.643   5.386 -0.5365 -1.8046 -0.1417
28383SOL     OW86887   5.444   8.939   6.271 -0.0002 -0.1273 -0.0682
28383SOL    HW186888   5.385   8.889   6.328  1.0011  0.1038  1.2158
28383SOL    HW286889   5.418   8.913   6.182 -2.9514  1.0103  0.3395
28384SOL     OW86890   6.274   6.773   1.029 -0.3259  0.0773 -0.3324
28384SOL    HW186891   6.365   6.743   1.032 -0.4886 -0.4752 -0.7248
28384SOL    HW286892   6.236   6.740   1.110  0.5651  2.8857  1.3739
28385SOL     OW86893   7.974   8.092   5.308 -0.2192  0.0462  1.0392
28385SOL    HW186894   8.014   8.005   5.318 -0.2629 -0.4981 -2.2105
28385SOL    HW286895   8.040   8.152   5.342  1.3088 -1.1115  0.2720
28386SOL     OW86896   1.221   8.261   8.794 -0.3524  0.0758 -0.4344
28386SOL    HW186897   1.140   8.300   8.760  1.0302  2.0396 -1.6334
28386SOL    HW286898   1.291   8.311   8.754  1.5102 -1.5404  0.6173
28387SOL     OW86899   5.599   7.533   9.526  0.3955 -0.2108 -0.9154
28387SOL    HW186900   5.594   7.477   9.449 -1.4068  0.0162 -1.0091
28387SOL    HW286901   5.601   7.622   9.491 -1.0133 -0.0795 -0.7395
28388SOL     OW86902   6.445   6.340   5.502 -0.7047  0.3947 -0.5876
28388SOL    HW186903   6.526   6.295   5.479  2.1116  3.9777  1.3322
28388SOL    HW286904   6.432   6.321   5.595 -0.6046  1.7760 -0.2680
28389SOL     OW86905   7.944   0.500   3.713 -0.8385  0.0607  0.3204
28389SOL    HW186906   7.916   0.464   3.629  1.2986 -0.6118 -0.1827
28389SOL    HW286907   7.932   0.428   3.775  0.8489 -0.6863 -0.1494
28390SOL     OW86908   5.662   6.257   5.137  0.2529 -0.3758 -0.2824
28390SOL    HW186909   5.757   6.262   5.143  0.2628 -1.9616  3.5133
28390SOL    HW286910   5.644   6.167   5.113 -0.3374 -0.0025 -1.3014
28391SOL     OW86911   6.887   5.097   6.300  0.8033  0.6830 -0.5014
28391SOL    HW186912   6.823   5.091   6.371  1.1396 -2.7672 -0.3492
28391SOL    HW286913   6.903   5.191   6.291 -1.2020  1.4128  2.1886
28392SOL     OW86914   5.074   0.615   5.983 -0.1879  0.1507  0.3349
28392SOL    HW186915   5.004   0.631   5.920  0.3445  2.0703  0.1849
28392SOL    HW286916   5.053   0.529   6.020  0.1528 -1.7665 -3.3251
28393SOL     OW86917   7.325   0.801   3.336  0.7363 -0.1510 -0.0751
28393SOL    HW186918   7.330   0.863   3.409  0.3059  0.2105 -0.3475
28393SOL    HW286919   7.286   0.852   3.264  0.4585 -0.7168 -0.3260
28394SOL     OW86920   1.260   1.218   3.051 -0.6558  0.4759  0.2919
28394SOL    HW186921   1.326   1.241   3.116 -0.8335  0.7903  0.3611
28394SOL    HW286922   1.303   1.153   2.996 -0.1505  0.9528  0.1093
28395SOL     OW86923   4.842   6.980   2.263 -0.1507  0.0980  0.5795
28395SOL    HW186924   4.867   6.988   2.171  0.1575 -0.7994  0.5828
28395SOL    HW286925   4.782   6.906   2.265  1.0169 -0.8540  1.3252
28396SOL     OW86926   6.179   9.045   3.675  0.0397 -0.1159 -0.1280
28396SOL    HW186927   6.269   9.071   3.654 -0.3214  0.5448 -0.9082
28396SOL    HW286928   6.181   8.949   3.673  0.6461 -0.0991 -0.5020
28397SOL     OW86929   5.302   3.638   5.407  0.1606  0.1029  0.0050
28397SOL    HW186930   5.335   3.679   5.327  1.7834 -1.8646 -0.4225
28397SOL    HW286931   5.207   3.643   5.399  0.2603  2.8058 -0.4395
28398SOL     OW86932   1.923   3.467   5.690  0.0192 -0.2342 -0.3462
28398SOL    HW186933   1.914   3.410   5.766 -1.3162  0.3215 -0.0688
28398SOL    HW286934   1.924   3.407   5.615 -2.0647 -0.6248 -0.1124
28399SOL     OW86935   3.056   1.969   3.524 -0.4055 -0.0594  0.5325
28399SOL    HW186936   3.019   2.057   3.520 -0.5265 -0.1295  0.0438
28399SOL    HW286937   3.096   1.963   3.611 -1.9621 -0.1526  1.2680
28400SOL     OW86938   0.124   9.453   0.677 -0.3730 -0.3043  0.9010
28400SOL    HW186939   0.030   9.471   0.688 -1.0689 -1.8641 -1.5136
28400SOL    HW286940   0.132   9.359   0.691  0.3434 -0.6044 -1.1343
28401SOL     OW86941   9.046   1.879   7.135 -0.3480 -0.4883 -0.4095
28401SOL    HW186942   9.070   1.786   7.146 -0.9248 -0.4969  0.8459
28401SOL    HW286943   9.130   1.924   7.130 -0.0476 -1.1297 -1.6694
28402SOL     OW86944   3.867   1.620   6.000 -0.2919 -0.1475  0.0218
28402SOL    HW186945   3.787   1.570   6.010  0.4739 -1.3730  0.1772
28402SOL    HW286946   3.882   1.623   5.905 -0.2350 -0.3821  0.0235
28403SOL     OW86947   1.056   0.738   8.027 -0.4770  0.1581 -0.4261
28403SOL    HW186948   1.042   0.711   7.936 -1.3005  0.1356 -0.3044
28403SOL    HW286949   1.145   0.774   8.029  0.3424 -1.7536 -0.7774
28404SOL     OW86950   7.971   2.098   0.066 -0.4486 -0.3486  0.0744
28404SOL    HW186951   8.017   2.079  -0.016 -0.7422  0.8388 -0.3924
28404SOL    HW286952   7.893   2.043   0.063 -0.1124 -0.8192 -0.1228
28405SOL     OW86953   4.151   8.032   2.736 -0.0572 -0.5393 -0.4535
28405SOL    HW186954   4.204   7.956   2.715  0.6964 -0.3061  0.5528
28405SOL    HW286955   4.086   8.000   2.798 -0.0830 -0.4840 -0.4517
28406SOL     OW86956   4.783   3.274   6.253  0.1340 -0.3456 -0.4789
28406SOL    HW186957   4.697   3.263   6.293 -0.0785 -1.0368 -1.0987
28406SOL    HW286958   4.798   3.368   6.252  0.0259 -0.2919  0.9656
28407SOL     OW86959   7.696   3.124   5.884 -0.3333  0.2182 -0.2921
28407SOL    HW186960   7.629   3.065   5.919 -1.7608  1.1764 -1.2871
28407SOL    HW286961   7.647   3.201   5.855  1.2503  1.0785 -0.7965
28408SOL     OW86962   0.166   2.255   2.418 -0.2424  0.2570  0.6211
28408SOL    HW186963   0.172   2.336   2.368 -0.4015  1.0376  1.8260
28408SOL    HW286964   0.225   2.194   2.373  0.3164  1.2106  0.0352
28409SOL     OW86965   7.416   2.475   4.056  0.4043  0.4718 -0.1024
28409SOL    HW186966   7.505   2.469   4.020  0.5039  1.7379 -0.1134
28409SOL    HW286967   7.390   2.566   4.039 -0.0380  0.7461  1.8451
28410SOL     OW86968   2.604   6.132   1.940  0.2573  0.2382  0.3006
28410SOL    HW186969   2.617   6.210   1.994 -1.0401  0.4636  0.3303
28410SOL    HW286970   2.690   6.112   1.904  1.0616  0.3619  2.0677
28411SOL     OW86971   6.425   4.645   6.226  0.2593 -0.0505  0.1538
28411SOL    HW186972   6.402   4.556   6.199 -0.6407  0.5700 -1.2701
28411SOL    HW286973   6.349   4.675   6.275  0.5278 -0.0226  0.5595
28412SOL     OW86974   7.373   8.131   3.308  0.5204  0.4100 -0.6554
28412SOL    HW186975   7.338   8.120   3.397 -1.8095 -2.6505 -1.8073
28412SOL    HW286976   7.449   8.074   3.305  0.2894  0.1067 -0.7682
28413SOL     OW86977   1.509   0.455   7.677  0.2098 -0.2531  0.0604
28413SOL    HW186978   1.601   0.473   7.694  0.4239 -0.7038 -0.5753
28413SOL    HW286979   1.504   0.439   7.583 -0.0698 -2.6971  0.4147
28414SOL     OW86980   4.559   9.462   0.421 -0.1583  0.0214 -0.2996
28414SOL    HW186981   4.637   9.409   0.436 -1.3549 -1.9074 -0.5012
28414SOL    HW286982   4.489   9.415   0.468 -1.2775  1.4690 -0.4414
28415SOL     OW86983   7.939   1.270   1.773 -0.3920 -1.0721 -1.1618
28415SOL    HW186984   7.937   1.209   1.846  0.9251  0.0457 -0.1447
28415SOL    HW286985   7.860   1.323   1.784 -0.1880 -0.8939 -0.5317
28416SOL     OW86986   1.821   7.109   5.160 -0.6433  0.5768 -0.2308
28416SOL    HW186987   1.848   7.019   5.142 -4.1863 -0.6230 -0.3240
28416SOL    HW286988   1.760   7.131   5.090 -2.9870  1.4487  1.9070
28417SOL     OW86989   1.499   6.981   6.445 -0.1186 -0.2166 -0.4255
28417SOL    HW186990   1.542   7.022   6.520  0.5187  0.6260 -1.2374
28417SOL    HW286991   1.431   7.043   6.420  0.4368  0.0640 -1.2680
28418SOL     OW86992   4.814   2.559   7.414 -0.1966  0.3659 -0.2984
28418SOL    HW186993   4.724   2.572   7.444 -0.0287  2.7513 -0.6414
28418SOL    HW286994   4.851   2.647   7.411  1.7459 -0.4322 -1.4489
28419SOL     OW86995   4.283   9.294   4.869  0.8072  0.3218 -0.1499
28419SOL    HW186996   4.367   9.306   4.912 -0.4213 -0.1369  2.5759
28419SOL    HW286997   4.242   9.220   4.914 -0.9623  0.3304 -1.5862
28420SOL     OW86998   3.769   8.300   3.308 -0.2258  0.5249 -0.5889
28420SOL    HW186999   3.765   8.204   3.303  0.6179  0.5247 -1.7369
28420SOL    HW287000   3.860   8.321   3.288 -0.4986  1.5898 -0.7657
28421SOL     OW87001   8.212   4.622   8.118  0.7448 -0.3758  0.0390
28421SOL    HW187002   8.264   4.565   8.174  1.0131 -0.1245  0.0493
28421SOL    HW287003   8.193   4.699   8.172  1.0002 -0.1345 -0.2103
28422SOL     OW87004   6.231   5.434   8.668  0.4236  0.7837 -0.3087
28422SOL    HW187005   6.186   5.463   8.747 -1.6206 -1.2913 -0.6133
28422SOL    HW287006   6.274   5.513   8.635 -0.6453  2.2300  1.5741
28423SOL     OW87007   0.816   5.631   6.109  0.0947 -0.1093 -0.1515
28423SOL    HW187008   0.768   5.680   6.177 -0.8755 -0.3038 -0.6779
28423SOL    HW287009   0.894   5.684   6.092 -0.1944  0.4975  0.3477
28424SOL     OW87010   6.574   4.218   7.700 -0.4608 -0.1216 -0.3981
28424SOL    HW187011   6.503   4.205   7.763 -0.2078 -1.8671 -0.4285
28424SOL    HW287012   6.604   4.130   7.678  1.2431  0.5432 -0.9454
28425SOL     OW87013   5.275   5.969   6.147  0.4980  0.5426  0.5161
28425SOL    HW187014   5.328   5.891   6.126 -0.5468  0.3759 -1.8964
28425SOL    HW287015   5.222   5.942   6.221  0.3090 -1.0074 -0.1375
28426SOL     OW87016   8.311   7.344   2.479 -0.6767  0.5217 -0.3519
28426SOL    HW187017   8.273   7.420   2.436 -0.6147  1.1289  0.6371
28426SOL    HW287018   8.257   7.331   2.557  0.2628  0.5158  0.3146
28427SOL     OW87019   5.794   6.155   8.636  0.3456 -0.4780 -0.0439
28427SOL    HW187020   5.702   6.134   8.649  0.1023 -1.6360 -2.8487
28427SOL    HW287021   5.831   6.159   8.724 -1.6873 -3.2152  1.0671
28428SOL     OW87022   5.594   1.545   9.267 -0.2026 -0.0313 -0.3958
28428SOL    HW187023   5.671   1.581   9.310 -0.3922  1.3520 -1.1620
28428SOL    HW287024   5.599   1.450   9.283  1.6772  0.0182 -0.5070
28429SOL     OW87025   5.411   8.240   1.995 -0.1166 -0.6615 -0.2367
28429SOL    HW187026   5.396   8.258   2.088  0.2095 -0.6977 -0.1763
28429SOL    HW287027   5.341   8.287   1.950 -1.7289 -2.5220  0.1610
28430SOL     OW87028   8.505   0.699   9.078  0.0643  0.4918  0.0580
28430SOL    HW187029   8.585   0.665   9.038 -0.0864  1.4388 -1.0936
28430SOL    HW287030   8.440   0.699   9.007 -0.7210  0.5582  0.7561
28431SOL     OW87031   3.539   1.159   7.723  0.0654  0.5087  0.6970
28431SOL    HW187032   3.588   1.112   7.655  0.1950 -0.3850  1.3868
28431SOL    HW287033   3.479   1.216   7.675  1.5454  1.4013 -0.1717
28432SOL     OW87034   0.971   4.870   4.461  0.2473  0.3287  0.5656
28432SOL    HW187035   1.024   4.948   4.447  1.1421 -0.6433 -1.9829
28432SOL    HW287036   0.881   4.902   4.466  0.4635  1.4669 -1.8104
28433SOL     OW87037   3.150   5.580   8.836  0.1072  0.3897 -0.3308
28433SOL    HW187038   3.056   5.562   8.844  0.3162 -0.6000  0.0597
28433SOL    HW287039   3.162   5.608   8.745 -0.6770  1.3179 -0.1715
28434SOL     OW87040   8.189   3.826   7.022 -0.1643  0.1304  0.4327
28434SOL    HW187041   8.215   3.743   6.982 -1.6463 -0.5557  0.8264
28434SOL    HW287042   8.192   3.889   6.949  1.9799  0.0142  0.3506
28435SOL     OW87043   3.259   0.005   9.128  0.3982  0.2383  0.1266
28435SOL    HW187044   3.226   0.070   9.065  1.0622  1.7094  1.2196
28435SOL    HW287045   3.181  -0.034   9.166 -0.0630  1.5071  0.5312
28436SOL     OW87046   3.326   1.871   3.409  0.0729 -0.6652  0.0381
28436SOL    HW187047   3.255   1.882   3.471  0.0117  0.9428 -0.2700
28436SOL    HW287048   3.286   1.829   3.333 -0.1431 -1.3879  0.5418
28437SOL     OW87049   0.352   4.803   8.838 -0.3528  0.0551  0.8290
28437SOL    HW187050   0.446   4.791   8.851 -0.7538 -1.8338  2.4215
28437SOL    HW287051   0.331   4.745   8.765 -0.0105  1.9658 -0.8607
28438SOL     OW87052   1.885   2.798   9.369 -0.2602 -0.2887 -0.5780
28438SOL    HW187053   1.833   2.752   9.435  0.3375 -1.5391 -0.9378
28438SOL    HW287054   1.968   2.750   9.366  0.9877  1.7078  0.0463
28439SOL     OW87055   8.921   7.800   6.284 -0.2432 -0.2206 -0.4906
28439SOL    HW187056   8.900   7.887   6.250  0.4988 -0.0429 -0.5050
28439SOL    HW287057   9.011   7.785   6.257 -0.1653 -0.7359  0.0435
28440SOL     OW87058   1.517   4.246   5.866 -0.1557 -0.5684 -0.0662
28440SOL    HW187059   1.436   4.228   5.915 -0.2286  3.6216  1.7697
28440SOL    HW287060   1.489   4.303   5.794  0.9417 -0.7156 -0.6217
28441SOL     OW87061   2.990   7.068   4.102  0.1128  0.0821  0.3044
28441SOL    HW187062   3.065   7.094   4.155  0.6215 -2.8915  1.2659
28441SOL    HW287063   2.917   7.064   4.164  0.5295 -2.5883  0.7701
28442SOL     OW87064   2.183   5.348   4.250 -0.2643 -0.0808 -0.1572
28442SOL    HW187065   2.127   5.391   4.185 -0.9368 -0.3629  0.2281
28442SOL    HW287066   2.268   5.391   4.240 -0.2974 -0.2532 -1.3664
28443SOL     OW87067   0.992   6.855   6.038 -0.2338 -0.5191  0.0899
28443SOL    HW187068   0.976   6.946   6.063  0.5563 -0.3003 -0.1623
28443SOL    HW287069   1.037   6.818   6.114 -0.7439 -0.7591  0.2754
28444SOL     OW87070   4.475   5.699   0.038 -1.0832  0.3380  0.1045
28444SOL    HW187071   4.414   5.667   0.105 -0.2745  0.9545  1.1754
28444SOL    HW287072   4.481   5.793   0.055  0.3463  0.2503  0.1761
28445SOL     OW87073   6.281   4.373   0.789  0.0725 -0.1442 -0.5404
28445SOL    HW187074   6.239   4.456   0.765  0.9271  0.0284 -1.5267
28445SOL    HW287075   6.269   4.367   0.884  1.2759  1.8473 -0.2100
28446SOL     OW87076   0.761   0.060   6.658 -0.3804 -0.6724  0.0437
28446SOL    HW187077   0.695  -0.010   6.663 -1.0543  0.0232  2.2086
28446SOL    HW287078   0.784   0.076   6.750  1.7057  0.1660 -0.5765
28447SOL     OW87079   2.888   4.807   8.878  0.0835 -0.3494 -0.1629
28447SOL    HW187080   2.864   4.827   8.968  1.2027  0.0688  0.0625
28447SOL    HW287081   2.806   4.814   8.829 -0.6953 -1.3512  0.9263
28448SOL     OW87082   8.347   7.745   1.449  0.7512 -0.2606  0.4086
28448SOL    HW187083   8.357   7.789   1.364 -1.3215 -1.5916 -0.6000
28448SOL    HW287084   8.269   7.784   1.487  0.4840 -1.1344  0.7583
28449SOL     OW87085   1.985   8.167   1.805  0.1322 -0.3920 -0.1580
28449SOL    HW187086   1.964   8.256   1.834 -0.6552 -1.0567  1.4687
28449SOL    HW287087   2.005   8.176   1.712  0.0312  1.4766 -0.0405
28450SOL     OW87088   1.128   3.379   0.607 -0.2192 -0.3645  0.1721
28450SOL    HW187089   1.085   3.421   0.533 -1.6690 -1.4205  0.3918
28450SOL    HW287090   1.058   3.336   0.655  1.0431 -1.9695  0.6676
28451SOL     OW87091   9.160   0.849   9.137 -0.1858  0.1972  0.3637
28451SOL    HW187092   9.223   0.912   9.171 -0.7203  0.6209  0.5963
28451SOL    HW287093   9.101   0.832   9.210  0.5410 -1.3586  0.6145
28452SOL     OW87094   8.685   0.397   4.133  0.3487 -0.4796 -0.3810
28452SOL    HW187095   8.710   0.366   4.220  1.4959  0.7882 -0.2383
28452SOL    HW287096   8.682   0.492   4.141  0.3762 -0.3481 -1.7023
28453SOL     OW87097   1.074   1.614   1.861 -0.2795  0.7034 -0.1355
28453SOL    HW187098   1.133   1.653   1.926  1.0736  0.1142 -0.9621
28453SOL    HW287099   1.008   1.568   1.913  1.6090 -1.0096  0.8837
28454SOL     OW87100   1.454   1.394   6.905 -0.3508 -0.5744  0.6873
28454SOL    HW187101   1.509   1.472   6.899 -1.7307  0.3284 -1.8858
28454SOL    HW287102   1.385   1.417   6.967 -1.6287  0.9510 -1.1882
28455SOL     OW87103   0.130   9.382   3.621 -0.3960  0.0671 -0.0586
28455SOL    HW187104   0.206   9.439   3.634  0.8532 -1.8507  1.7626
28455SOL    HW287105   0.121   9.335   3.703 -1.7843 -1.8627 -1.2243
28456SOL     OW87106   7.713   0.639   0.036  0.4795 -0.0398 -0.1964
28456SOL    HW187107   7.794   0.621   0.084  1.2495  2.6045 -0.3191
28456SOL    HW287108   7.731   0.611  -0.053  1.2453  0.4300 -0.1983
28457SOL     OW87109   5.669   9.574   3.511 -0.0841  0.8815 -0.3122
28457SOL    HW187110   5.651   9.662   3.479 -2.1352  0.6025 -0.0541
28457SOL    HW287111   5.711   9.529   3.438  2.4738  2.4624  0.0562
28458SOL     OW87112   0.915   7.577   1.271  0.2602  0.0299 -0.0595
28458SOL    HW187113   0.856   7.653   1.279 -1.4180 -1.0788 -1.2531
28458SOL    HW287114   0.970   7.582   1.349 -1.3854  1.1720  1.1103
28459SOL     OW87115   2.832   6.485   7.703  0.3426  0.0063 -0.7609
28459SOL    HW187116   2.752   6.501   7.653  0.1792  0.2581 -0.4264
28459SOL    HW287117   2.828   6.392   7.725 -0.0252  0.0918 -0.4622
28460SOL     OW87118   6.868   1.386   0.511  0.0532 -0.5276  0.0743
28460SOL    HW187119   6.948   1.398   0.563 -0.0853  0.7986  0.0015
28460SOL    HW287120   6.799   1.428   0.563  0.4630  4.1230 -2.6516
28461SOL     OW87121   1.139   3.094   0.178  0.2958 -0.3903  0.1469
28461SOL    HW187122   1.219   3.052   0.212  0.6378  0.1172 -0.0210
28461SOL    HW287123   1.168   3.179   0.147 -0.0542 -0.7416 -1.2002
28462SOL     OW87124   6.220   4.481   1.828 -0.6084 -0.1824  0.3231
28462SOL    HW187125   6.305   4.485   1.872 -0.7190 -0.1745  0.5353
28462SOL    HW287126   6.167   4.423   1.882 -1.1518  0.8307  0.9110
28463SOL     OW87127   4.785   6.253   8.617 -0.2260  0.0814  0.2576
28463SOL    HW187128   4.864   6.305   8.602 -0.4901 -0.1276 -2.5430
28463SOL    HW287129   4.772   6.255   8.711  1.8818  1.9398  0.6013
28464SOL     OW87130   3.919   5.242   4.860 -0.2731  0.0248 -0.5468
28464SOL    HW187131   3.878   5.161   4.828 -2.0112  1.2160 -1.4582
28464SOL    HW287132   4.002   5.247   4.813  0.4630 -1.8110  0.4299
28465SOL     OW87133   6.738   0.654   2.932 -0.2777  0.0694 -0.2458
28465SOL    HW187134   6.676   0.710   2.979 -1.7884  0.3356 -2.4211
28465SOL    HW287135   6.810   0.641   2.994 -2.3183  0.0292  2.2744
28466SOL     OW87136   1.791   9.254   9.403  0.1252 -0.2392  0.2733
28466SOL    HW187137   1.851   9.228   9.332  1.6005  1.0061  1.0167
28466SOL    HW287138   1.800   9.184   9.468  2.9206  1.1634  1.5858
28467SOL     OW87139   3.101   6.126   4.239  0.2537 -0.0972  0.0907
28467SOL    HW187140   3.104   6.170   4.324  0.2138 -1.0939  0.6204
28467SOL    HW287141   3.009   6.103   4.227 -0.2122  2.2627 -1.4168
28468SOL     OW87142   1.708   4.516   3.080 -0.1163  0.3075  0.0221
28468SOL    HW187143   1.698   4.428   3.043 -1.1845 -0.9751  3.0114
28468SOL    HW287144   1.798   4.519   3.111  0.1874  0.6313 -0.8726
28469SOL     OW87145   0.908   9.500   9.502 -0.5083  0.2511  0.0169
28469SOL    HW187146   0.859   9.436   9.451  0.4117 -0.0705 -0.4794
28469SOL    HW287147   0.965   9.543   9.439  1.1769 -0.6502  0.8465
28470SOL     OW87148   6.266   0.194   4.621 -0.0830 -0.6249  0.8070
28470SOL    HW187149   6.198   0.258   4.642 -0.1769  0.2001 -1.7663
28470SOL    HW287150   6.344   0.246   4.603  0.5758 -1.4234  1.2792
28471SOL     OW87151   4.191   4.895   3.230  0.5398  0.0288 -0.6385
28471SOL    HW187152   4.164   4.982   3.256  2.1259  0.6016 -0.7925
28471SOL    HW287153   4.194   4.898   3.134  1.1214 -0.0158 -0.6257
28472SOL     OW87154   0.453   8.767   4.813  0.6065 -0.0156  0.4059
28472SOL    HW187155   0.511   8.696   4.785 -0.5365 -0.2758 -1.4482
28472SOL    HW287156   0.374   8.723   4.843  0.8982  0.3888  1.8569
28473SOL     OW87157   6.454   0.155   4.271 -0.2255  0.0622  0.2672
28473SOL    HW187158   6.487   0.074   4.233 -2.4620 -0.9360  0.3045
28473SOL    HW287159   6.367   0.166   4.232 -0.1442  2.2293  0.5934
28474SOL     OW87160   2.783   2.790   6.118 -0.7831 -0.2671  0.1078
28474SOL    HW187161   2.849   2.725   6.141  1.1905  1.6026  0.0757
28474SOL    HW287162   2.704   2.762   6.164  0.1388 -2.3061  0.5736
28475SOL     OW87163   1.346   4.174   6.474  0.0284  0.0938 -0.2144
28475SOL    HW187164   1.314   4.245   6.418 -0.5421  1.7424  2.0563
28475SOL    HW287165   1.404   4.217   6.536  1.0637 -1.7521  0.1420
28476SOL     OW87166   7.896   0.605   2.799  0.2273 -0.4763 -0.2134
28476SOL    HW187167   7.804   0.582   2.813  0.6408 -1.7710  0.5509
28476SOL    HW287168   7.902   0.627   2.706 -1.3728  2.2543  0.2209
28477SOL     OW87169   8.259   9.531   7.286 -0.0929  0.6630  0.3788
28477SOL    HW187170   8.254   9.625   7.267  0.3783  0.3326 -1.6591
28477SOL    HW287171   8.168   9.504   7.297 -0.2870  1.2149  0.1476
28478SOL     OW87172   1.291   1.706   6.776 -0.5792 -0.2121 -0.1141
28478SOL    HW187173   1.364   1.768   6.777 -0.3598 -0.3940 -1.9424
28478SOL    HW287174   1.324   1.631   6.725 -2.0740 -0.2377 -1.1052
28479SOL     OW87175   4.444   9.261   6.975 -0.0421 -0.0172  0.4959
28479SOL    HW187176   4.401   9.345   6.990  1.1625  0.3158  2.3926
28479SOL    HW287177   4.518   9.261   7.035  0.2024 -2.2879  0.2730
28480SOL     OW87178   2.591   1.613   9.571 -0.3026  0.1144  0.0193
28480SOL    HW187179   2.676   1.651   9.549 -0.7746  1.5446  0.5737
28480SOL    HW287180   2.594   1.602   9.666  0.0393 -1.8401 -0.1758
28481SOL     OW87181   0.856   7.485   0.500 -0.0964  0.3741  0.1377
28481SOL    HW187182   0.853   7.557   0.436  0.6221  0.0797 -0.2332
28481SOL    HW287183   0.934   7.502   0.553  0.1905 -0.2316 -0.0801
28482SOL     OW87184   2.080   7.684   0.869 -0.0048 -0.1197 -0.0903
28482SOL    HW187185   2.054   7.765   0.912 -3.8354 -0.8997 -0.6566
28482SOL    HW287186   2.089   7.621   0.941 -2.0257 -0.3491  0.0074
28483SOL     OW87187   4.739   3.051   1.563 -0.3667 -0.0151  0.2132
28483SOL    HW187188   4.763   2.979   1.621  0.4823  0.7982  0.9186
28483SOL    HW287189   4.821   3.101   1.552 -1.2714  1.7749  1.1325
28484SOL     OW87190   8.803   7.383   7.701 -0.2804 -0.7546 -0.0374
28484SOL    HW187191   8.751   7.349   7.628 -1.5996 -0.1367  0.5759
28484SOL    HW287192   8.851   7.307   7.734 -0.8047 -1.3443 -0.6036
28485SOL     OW87193   1.075   6.629   3.348 -0.4345 -0.3672  0.2236
28485SOL    HW187194   1.036   6.675   3.422 -0.3702  2.2013 -1.2314
28485SOL    HW287195   1.110   6.698   3.292 -0.3164 -2.2037 -2.1363
28486SOL     OW87196   4.069   7.145   3.661 -0.1683  0.5097  0.5022
28486SOL    HW187197   4.093   7.220   3.715  0.5447  0.0882  0.7778
28486SOL    HW287198   4.151   7.097   3.648 -0.4151  0.3492 -0.5616
28487SOL     OW87199   7.643   3.860   3.046 -0.3817 -0.4416  0.1287
28487SOL    HW187200   7.629   3.808   3.125  2.3873 -1.9070 -0.1919
28487SOL    HW287201   7.672   3.945   3.078  1.7425 -1.3475  0.8182
28488SOL     OW87202   4.002   2.024   0.977 -0.6135  0.4394 -0.1880
28488SOL    HW187203   3.935   1.987   0.920  0.4985 -0.4413 -0.9571
28488SOL    HW287204   4.044   1.949   1.018 -2.2920  1.0448  2.9726
28489SOL     OW87205   2.657   8.903   5.428 -0.0454  0.2115  0.4492
28489SOL    HW187206   2.601   8.935   5.498  0.0228  0.0154  0.5945
28489SOL    HW287207   2.656   8.808   5.437  0.7590  0.2217  0.8170
28490SOL     OW87208   0.861   5.208   8.145 -0.4235 -0.1025 -0.3036
28490SOL    HW187209   0.800   5.198   8.217 -0.7158 -0.1659 -0.5586
28490SOL    HW287210   0.900   5.121   8.134  1.9507  0.5537  1.8054
28491SOL     OW87211   0.942   9.107   6.633  0.5226 -0.3260  0.7113
28491SOL    HW187212   1.006   9.117   6.704 -0.2318 -0.0799  1.3675
28491SOL    HW287213   0.929   9.195   6.599  1.3791 -0.5330 -0.1909
28492SOL     OW87214   7.662   5.558   6.744  0.0220 -0.5930 -0.5466
28492SOL    HW187215   7.734   5.619   6.729 -0.3609 -0.0515 -0.2385
28492SOL    HW287216   7.629   5.537   6.656 -3.4418  4.0303 -0.7575
28493SOL     OW87217   7.449   7.708   8.631 -0.3649 -0.1658 -0.0140
28493SOL    HW187218   7.381   7.771   8.655  1.3097  1.7163 -0.0115
28493SOL    HW287219   7.468   7.662   8.712  0.5618  1.5233  0.7757
28494SOL     OW87220   6.132   7.637   2.831 -0.4522  0.0233 -0.6240
28494SOL    HW187221   6.092   7.718   2.863  0.5808 -0.4233  2.0985
28494SOL    HW287222   6.061   7.572   2.834 -0.8007  0.3837 -0.9472
28495SOL     OW87223   8.302   3.628   4.716 -0.0341 -0.3057 -0.2856
28495SOL    HW187224   8.343   3.699   4.666 -1.2641  0.1391 -0.7044
28495SOL    HW287225   8.375   3.572   4.743  0.7277 -0.2557 -2.1108
28496SOL     OW87226   8.713   6.718   1.687 -0.4953  0.5723 -0.1771
28496SOL    HW187227   8.729   6.719   1.781 -0.1736 -1.0053 -0.2006
28496SOL    HW287228   8.748   6.802   1.656 -0.8118  1.2095  1.1239
28497SOL     OW87229   7.937   2.675   7.338 -0.0999  1.1450  0.1470
28497SOL    HW187230   7.851   2.687   7.380  0.0082  0.6572  0.5158
28497SOL    HW287231   7.972   2.764   7.329 -1.1176  1.4580 -1.0348
28498SOL     OW87232   3.439   3.980   8.442 -0.6304  0.2887  0.2600
28498SOL    HW187233   3.454   3.885   8.437 -1.5911  0.0633  1.2466
28498SOL    HW287234   3.400   4.003   8.357 -0.1335 -0.1444 -0.0905
28499SOL     OW87235   6.919   6.727   9.088 -0.1914  0.0222 -0.0998
28499SOL    HW187236   6.976   6.667   9.136  0.3392  1.0228  0.5483
28499SOL    HW287237   6.950   6.721   8.997 -0.2062 -0.7460 -0.0614
28500SOL     OW87238   0.723   8.470   0.892  0.6531  0.3934  0.7754
28500SOL    HW187239   0.641   8.456   0.940 -0.0660  1.8095  0.0051
28500SOL    HW287240   0.703   8.444   0.802  1.0567  0.7166  0.5916
28501SOL     OW87241   5.475   3.404   3.920  0.3841 -0.1663 -0.1372
28501SOL    HW187242   5.556   3.354   3.930  0.8667  0.7261  0.5109
28501SOL    HW287243   5.475   3.433   3.829 -0.0193 -1.5254 -0.5913
28502SOL     OW87244   2.645   3.790   2.584  0.3955 -0.6098  0.2498
28502SOL    HW187245   2.627   3.824   2.497 -0.8966 -0.5912  0.5049
28502SOL    HW287246   2.688   3.863   2.630 -2.9082  1.0347  1.0006
28503SOL     OW87247   1.071   6.657   4.444  0.3082  0.4742 -0.1247
28503SOL    HW187248   1.066   6.695   4.532  0.9645  0.1892  0.0397
28503SOL    HW287249   1.046   6.565   4.456 -2.3789  1.0380 -0.6942
28504SOL     OW87250   4.858   8.211   0.988  0.7721 -0.2424  0.0812
28504SOL    HW187251   4.906   8.247   1.063  1.9269 -0.5549 -0.4919
28504SOL    HW287252   4.768   8.200   1.021  1.3252 -0.6957  1.5240
28505SOL     OW87253   4.863   2.443   2.534 -0.2461 -0.3276 -0.3346
28505SOL    HW187254   4.868   2.511   2.602  1.1648  0.4965 -1.2271
28505SOL    HW287255   4.920   2.373   2.566 -2.2386 -1.4664  0.9207
28506SOL     OW87256   7.963   4.701   5.445  0.1443 -0.5434  0.1968
28506SOL    HW187257   7.914   4.638   5.498 -0.3326 -0.2029  0.1708
28506SOL    HW287258   8.055   4.677   5.457 -0.0210 -1.1164  0.3455
28507SOL     OW87259   9.180   7.303   5.220  0.2019  0.8525  0.1942
28507SOL    HW187260   9.170   7.247   5.142 -2.0564 -0.1663  1.0920
28507SOL    HW287261   9.217   7.244   5.287 -0.7236  0.8156  0.7014
28508SOL     OW87262   2.462   0.838   6.038  0.1242  0.4709 -0.1348
28508SOL    HW187263   2.372   0.862   6.059  0.7317  3.3817 -0.4146
28508SOL    HW287264   2.503   0.921   6.013  2.7817 -0.8376 -0.4102
28509SOL     OW87265   5.286   9.589   9.406 -0.1991 -0.0691  0.2746
28509SOL    HW187266   5.277   9.618   9.315  1.2892 -1.7598 -0.4617
28509SOL    HW287267   5.254   9.664   9.458 -2.0987  0.5367 -1.6076
28510SOL     OW87268   4.405   9.102   6.357  0.3567  0.4251 -0.3736
28510SOL    HW187269   4.315   9.097   6.390  0.4479 -1.3184 -0.3211
28510SOL    HW287270   4.456   9.137   6.430 -0.1572  0.6889 -0.1381
28511SOL     OW87271   1.684   4.406   2.657  0.3225  0.8177 -0.3002
28511SOL    HW187272   1.742   4.365   2.594 -0.6197 -0.7749 -0.1753
28511SOL    HW287273   1.729   4.486   2.683  1.2207  0.9666 -2.1759
28512SOL     OW87274   0.916   4.258   4.011  0.0377 -0.0254 -0.4474
28512SOL    HW187275   0.858   4.246   4.086  0.4574  2.5275  0.3936
28512SOL    HW287276   0.994   4.299   4.047  0.9311 -0.2067 -2.0692
28513SOL     OW87277   6.754   5.939   6.282  0.0989 -0.8786  0.1470
28513SOL    HW187278   6.790   5.858   6.317 -0.3996 -1.2008 -0.0808
28513SOL    HW287279   6.820   6.006   6.303  1.6184 -1.7172 -1.6651
28514SOL     OW87280   4.506   0.614   1.316 -0.1524 -0.0538  0.2006
28514SOL    HW187281   4.440   0.662   1.265 -0.0045 -0.6579 -0.5882
28514SOL    HW287282   4.540   0.549   1.254 -0.4897 -1.3072  1.2995
28515SOL     OW87283   2.563   5.457   1.137 -0.1171  0.1230  0.0452
28515SOL    HW187284   2.469   5.442   1.128  0.0335 -0.8516 -0.0248
28515SOL    HW287285   2.589   5.399   1.209  0.3110  0.9092  0.5340
28516SOL     OW87286   4.082   6.451   2.828  0.1596  0.1132  0.1850
28516SOL    HW187287   4.032   6.498   2.895  1.3509  0.0686  1.1401
28516SOL    HW287288   4.124   6.520   2.777  0.8983  0.1295  0.7961
28517SOL     OW87289   7.041   5.575   0.111  0.0867 -0.7826 -0.3647
28517SOL    HW187290   7.114   5.513   0.103  0.6922 -0.3151  1.2243
28517SOL    HW287291   6.980   5.548   0.042  0.5892 -2.8113 -0.1064
28518SOL     OW87292   8.610   8.462   3.338 -0.1496 -0.2002  0.2571
28518SOL    HW187293   8.689   8.431   3.382  0.1821 -2.4628 -1.7399
28518SOL    HW287294   8.542   8.456   3.405  1.0020  0.0419  1.4870
28519SOL     OW87295   3.251   9.508   8.779  0.5776 -0.1934 -0.1678
28519SOL    HW187296   3.239   9.513   8.684 -3.5162  0.6720  0.2072
28519SOL    HW287297   3.286   9.594   8.803 -0.1823  0.2894 -0.7340
28520SOL     OW87298   5.208   1.876   2.261  0.3615  0.1968  0.0694
28520SOL    HW187299   5.147   1.907   2.329 -0.3122 -2.6323  0.9032
28520SOL    HW287300   5.294   1.879   2.303  0.2201  0.3173  0.3561
28521SOL     OW87301   0.329   1.607   6.473 -0.3177 -0.4022 -0.2929
28521SOL    HW187302   0.286   1.592   6.389 -0.4401  0.0873 -0.3255
28521SOL    HW287303   0.344   1.702   6.475 -0.1549 -0.4349  0.1596
28522SOL     OW87304   1.817   7.811   4.311  0.0311 -0.3404 -0.1919
28522SOL    HW187305   1.839   7.891   4.359  0.1361 -0.4319 -0.0874
28522SOL    HW287306   1.792   7.749   4.380 -1.4420  0.0322 -0.3450
28523SOL     OW87307   5.934   1.448   0.351 -0.0599 -0.1988 -0.4603
28523SOL    HW187308   5.949   1.480   0.262 -0.8409 -0.7344 -0.7912
28523SOL    HW287309   5.952   1.354   0.346 -0.3103 -0.2668 -0.1016
28524SOL     OW87310   0.102   3.132   0.507 -0.4610  0.3699 -0.1312
28524SOL    HW187311   0.178   3.189   0.517 -0.9592  1.1307 -0.5905
28524SOL    HW287312   0.047   3.153   0.582 -0.5939  0.4011 -0.2387
28525SOL     OW87313   1.284   3.184   4.738  0.3072  0.7437 -0.5403
28525SOL    HW187314   1.369   3.209   4.773  0.3668  1.1108 -0.9368
28525SOL    HW287315   1.294   3.189   4.643  0.5354 -1.5342 -0.6874
28526SOL     OW87316   3.655   8.930   3.516 -0.3127  0.1249  0.2717
28526SOL    HW187317   3.672   8.905   3.425  1.8134 -1.1785  0.9358
28526SOL    HW287318   3.723   8.994   3.536 -1.5720  1.3958  0.5954
28527SOL     OW87319   3.394   8.922   5.085 -0.1366 -0.0868 -0.1802
28527SOL    HW187320   3.322   8.874   5.125  0.5552 -0.2860  0.8544
28527SOL    HW287321   3.473   8.875   5.112  0.4135  0.2484 -1.1172
28528SOL     OW87322   1.717   0.990   0.888 -0.1969  0.0519  0.5794
28528SOL    HW187323   1.727   1.016   0.796 -2.5154  2.1073  0.8015
28528SOL    HW287324   1.682   0.901   0.884 -3.8921  1.3739 -0.7998
28529SOL     OW87325   0.654   6.670   3.458 -0.1579 -0.8388  0.2354
28529SOL    HW187326   0.579   6.682   3.400  0.9833  0.9270 -0.9729
28529SOL    HW287327   0.672   6.757   3.493  2.0121 -0.9493 -0.4415
28530SOL     OW87328   1.982   5.965   6.233  0.2007 -0.1923 -0.5764
28530SOL    HW187329   2.049   5.897   6.242  1.5807  1.1837  0.0934
28530SOL    HW287330   1.902   5.918   6.212  0.8421 -2.1438  1.0400
28531SOL     OW87331   1.220   1.239   0.193  0.3775  0.0552 -0.2921
28531SOL    HW187332   1.209   1.325   0.234  0.6016 -0.1494  0.2010
28531SOL    HW287333   1.233   1.259   0.100 -0.5261  0.4986 -0.3353
28532SOL     OW87334   8.529   6.084   8.841 -0.2459 -0.1995 -0.0707
28532SOL    HW187335   8.466   6.013   8.851 -1.8226  0.9630 -1.1970
28532SOL    HW287336   8.486   6.160   8.880  0.8792  0.4239 -0.0046
28533SOL     OW87337   2.671   7.011   2.424  0.1971  0.4618  0.0354
28533SOL    HW187338   2.650   6.980   2.336 -1.0110  1.0485  0.0956
28533SOL    HW287339   2.610   6.963   2.481 -0.3143  1.4459  0.3384
28534SOL     OW87340   3.144   2.148   4.155  0.1541 -0.2690 -0.3181
28534SOL    HW187341   3.220   2.090   4.157  1.3581  1.2689  0.7525
28534SOL    HW287342   3.083   2.111   4.219  0.2970 -1.1004 -0.6500
28535SOL     OW87343   9.527   5.997   5.783 -0.0984 -0.3275 -0.5463
28535SOL    HW187344   9.573   5.950   5.853  0.1055  3.1084  1.9040
28535SOL    HW287345   9.435   5.987   5.805 -0.0913 -0.2637 -0.4861
28536SOL     OW87346   5.906   0.360   2.486  0.1470 -0.1038 -0.2497
28536SOL    HW187347   5.933   0.330   2.399 -1.0876  1.2724 -1.1626
28536SOL    HW287348   5.812   0.375   2.478  0.0824  0.4232  1.2200
28537SOL     OW87349   8.737   6.041   7.066 -0.6108  1.0479 -0.4431
28537SOL    HW187350   8.777   5.977   7.125  0.7807 -0.3632 -2.7381
28537SOL    HW287351   8.645   6.041   7.090 -0.8082 -2.3124 -0.6280
28538SOL     OW87352   7.986   8.519   8.566 -0.0082 -0.1746  0.1415
28538SOL    HW187353   8.068   8.565   8.546 -0.1888  0.2202  0.3168
28538SOL    HW287354   7.985   8.513   8.662  0.2108 -0.9011  0.1061
28539SOL     OW87355   6.653   6.238   2.144 -0.5171 -0.0191 -0.3671
28539SOL    HW187356   6.698   6.237   2.059  2.4404  0.2373  1.0517
28539SOL    HW287357   6.573   6.287   2.128 -0.6924 -1.0564 -3.2538
28540SOL     OW87358   0.891   6.624   0.465 -0.5713 -0.0078  0.6087
28540SOL    HW187359   0.965   6.668   0.506 -0.0697  0.0571 -0.3421
28540SOL    HW287360   0.814   6.656   0.513 -0.2790  2.3424 -0.3898
28541SOL     OW87361   6.575   4.013   3.582  0.2053 -0.0217  0.0766
28541SOL    HW187362   6.588   4.035   3.674  0.4750  1.7055 -0.3545
28541SOL    HW287363   6.481   4.000   3.573  0.1583 -0.0264  0.5584
28542SOL     OW87364   2.378   0.776   2.436  0.1405  0.3376  0.5366
28542SOL    HW187365   2.329   0.856   2.418 -0.4131 -0.4040 -1.5713
28542SOL    HW287366   2.352   0.716   2.366  3.3848 -0.3796 -0.2354
28543SOL     OW87367   1.280   7.810   5.642 -0.3762 -0.6468 -0.0842
28543SOL    HW187368   1.186   7.827   5.652 -0.1285 -0.0118  1.3758
28543SOL    HW287369   1.284   7.730   5.589 -1.7803 -1.2978  0.7197
28544SOL     OW87370   1.635   7.375   6.757 -0.0978 -0.0570 -0.8236
28544SOL    HW187371   1.723   7.344   6.776 -0.4814 -0.0070  1.2455
28544SOL    HW287372   1.638   7.401   6.665  1.7201 -1.0975 -1.1117
28545SOL     OW87373   8.370   1.095   3.331  0.1372  0.5523  0.1450
28545SOL    HW187374   8.360   1.183   3.293 -1.0013  0.2888 -0.1839
28545SOL    HW287375   8.426   1.049   3.268 -0.5818  0.5544 -0.5085
28546SOL     OW87376   0.063   8.862   5.009  0.3581 -0.1924  0.2559
28546SOL    HW187377   0.086   8.854   4.917 -2.4340 -0.4311 -0.5173
28546SOL    HW287378   0.069   8.956   5.028  0.1123 -0.0365 -0.4220
28547SOL     OW87379   7.525   8.920   5.237  0.0693 -0.7311  0.3356
28547SOL    HW187380   7.537   8.853   5.170 -1.0891 -0.8537  0.2419
28547SOL    HW287381   7.604   8.974   5.230  0.6893 -1.6638 -0.0563
28548SOL     OW87382   3.907   7.400   2.116 -0.1185  0.1800 -0.2005
28548SOL    HW187383   3.874   7.442   2.037 -1.0707 -0.8487 -0.3772
28548SOL    HW287384   3.830   7.391   2.173 -0.0461 -1.6125 -0.3219
28549SOL     OW87385   7.341   4.794   1.796  0.2229  0.4035  0.2948
28549SOL    HW187386   7.399   4.826   1.865  0.2842  0.0861  0.3939
28549SOL    HW287387   7.386   4.816   1.715  0.5490  0.0366  0.3741
28550SOL     OW87388   5.534   8.695   2.367  0.4042 -0.1840  0.1697
28550SOL    HW187389   5.575   8.695   2.453 -0.1646 -0.4513  0.4488
28550SOL    HW287390   5.580   8.628   2.318  0.4129 -0.3692  0.4267
28551SOL     OW87391   1.041   4.866   3.795 -0.0028 -0.0512  0.2038
28551SOL    HW187392   1.053   4.888   3.702 -1.2423 -2.8840 -0.7475
28551SOL    HW287393   1.122   4.822   3.820  0.6743  1.4484  0.7840
28552SOL     OW87394   2.375   8.482   7.153 -0.5894  0.3139  0.2704
28552SOL    HW187395   2.456   8.434   7.174 -1.8540 -2.6746 -1.1699
28552SOL    HW287396   2.331   8.491   7.237  0.9322  1.5173  0.9979
28553SOL     OW87397   1.044   2.194   4.259  0.4541 -0.7332 -0.4909
28553SOL    HW187398   1.100   2.270   4.243 -1.3206  0.7194 -0.1281
28553SOL    HW287399   1.060   2.137   4.184  0.9834  0.5234 -1.3675
28554SOL     OW87400   3.415   7.045   2.825  0.5886  0.0489 -0.2738
28554SOL    HW187401   3.340   7.086   2.868  1.2453 -0.2099  1.2194
28554SOL    HW287402   3.474   7.118   2.806  0.1207  0.2126 -1.1418
28555SOL     OW87403   8.760   8.288   6.177  0.3064 -0.4831  0.3788
28555SOL    HW187404   8.703   8.213   6.195 -1.4719  0.7172  0.0077
28555SOL    HW287405   8.714   8.363   6.215  0.0969  0.9807 -2.4679
28556SOL     OW87406   6.899   6.936   2.011  0.0192  0.2247 -0.1255
28556SOL    HW187407   6.981   6.930   1.962 -0.0543 -1.7220 -0.0662
28556SOL    HW287408   6.907   6.870   2.080 -1.9507 -0.6437 -0.6639
28557SOL     OW87409   6.766   4.449   4.250  0.3372 -0.3671 -0.3758
28557SOL    HW187410   6.732   4.381   4.191 -0.7157 -0.2819  0.1055
28557SOL    HW287411   6.757   4.530   4.200 -1.9094 -0.0872  0.3555
28558SOL     OW87412   2.253   8.629   6.965  0.5373  0.2764 -0.5381
28558SOL    HW187413   2.301   8.569   7.022  0.7046  2.0282  1.2800
28558SOL    HW287414   2.317   8.696   6.941 -0.1753  0.9135 -0.6984
28559SOL     OW87415   7.013   0.120   2.589  0.0133 -0.3304 -0.3162
28559SOL    HW187416   7.064   0.080   2.518 -2.1787 -1.3829 -1.4182
28559SOL    HW287417   6.951   0.051   2.615 -0.2196  0.5529  1.6198
28560SOL     OW87418   6.344   4.406   1.520 -0.4755 -0.1840  0.1141
28560SOL    HW187419   6.424   4.434   1.565 -0.5222  0.6088 -0.2865
28560SOL    HW287420   6.307   4.487   1.485 -2.4413 -0.2394  1.8720
28561SOL     OW87421   7.975   1.634   5.070  0.0569  0.3693 -0.1293
28561SOL    HW187422   7.950   1.587   5.149  1.0746  0.1118  0.0505
28561SOL    HW287423   7.897   1.631   5.014 -0.4214 -0.0887  0.5527
28562SOL     OW87424   7.362   3.765   9.014 -0.1563 -0.4040  0.5635
28562SOL    HW187425   7.402   3.733   8.933 -0.9034  0.5265 -0.1976
28562SOL    HW287426   7.270   3.740   9.007 -0.1541 -0.6798  1.3361
28563SOL     OW87427   1.478   4.084   2.135  0.7045 -0.5900 -0.2751
28563SOL    HW187428   1.383   4.095   2.135  0.6253 -1.2362  0.1844
28563SOL    HW287429   1.510   4.156   2.080 -0.0165 -0.0952 -0.0734
28564SOL     OW87430   0.188   5.462   0.525  0.4523 -0.0910  1.1022
28564SOL    HW187431   0.142   5.510   0.456 -0.9116  0.3726  2.2778
28564SOL    HW287432   0.189   5.371   0.494 -2.4341 -0.3688  1.5461
28565SOL     OW87433   2.507   3.735   9.011  0.1565 -0.4397 -0.7515
28565SOL    HW187434   2.432   3.784   8.976  0.1852  2.2782  2.4977
28565SOL    HW287435   2.584   3.783   8.981  0.3786 -0.6663 -0.5498
28566SOL     OW87436   4.500   0.353   2.903  0.7313 -0.3029  0.1070
28566SOL    HW187437   4.503   0.292   2.829  2.6392 -0.3803  0.1976
28566SOL    HW287438   4.586   0.395   2.903  1.3631 -1.3423  3.1459
28567SOL     OW87439   3.579   8.602   8.938 -0.7573  0.1982 -0.1498
28567SOL    HW187440   3.495   8.610   8.982 -0.8356  2.6608 -0.5580
28567SOL    HW287441   3.557   8.581   8.847 -0.8655 -0.2154 -0.0279
28568SOL     OW87442   5.809   5.230   7.175 -0.2955 -0.5525  0.2183
28568SOL    HW187443   5.762   5.287   7.114  0.7342  0.5695  0.4295
28568SOL    HW287444   5.743   5.202   7.238 -0.8115  0.5290  0.1810
28569SOL     OW87445   9.031   7.288   7.492  0.2861  0.3215 -0.0849
28569SOL    HW187446   9.095   7.332   7.548  1.8364 -1.1311 -0.6281
28569SOL    HW287447   9.010   7.208   7.538  0.2103 -0.0416 -0.7332
28570SOL     OW87448   0.574   0.737   1.981  0.2282  0.1180 -0.4799
28570SOL    HW187449   0.506   0.737   2.047 -0.9904 -2.3383 -1.5912
28570SOL    HW287450   0.530   0.709   1.900  2.1771  0.2707 -1.6796
28571SOL     OW87451   2.291   9.117   1.880  0.2885 -0.2751 -0.0161
28571SOL    HW187452   2.266   9.153   1.795  1.9640 -1.0031 -0.8792
28571SOL    HW287453   2.221   9.056   1.902 -0.2771  0.0786 -0.7752
28572SOL     OW87454   4.656   7.635   7.945  0.2822 -0.5296 -0.0309
28572SOL    HW187455   4.595   7.601   7.879 -0.0416  1.4248 -0.8344
28572SOL    HW287456   4.741   7.597   7.922 -0.0754 -0.8798 -0.7971
28573SOL     OW87457   1.590   8.742   3.588 -0.0619  0.3281  0.0734
28573SOL    HW187458   1.584   8.694   3.671 -0.4028 -1.7834 -1.1137
28573SOL    HW287459   1.554   8.829   3.608  0.6958  0.1896  2.3334
28574SOL     OW87460   7.647   2.621   4.577 -0.1039  0.3648 -0.2848
28574SOL    HW187461   7.616   2.538   4.541  2.6500 -1.2288  0.6583
28574SOL    HW287462   7.713   2.651   4.515 -0.1116  1.1413  0.0697
28575SOL     OW87463   8.184   4.579   9.584  0.1700  0.0886 -0.0300
28575SOL    HW187464   8.178   4.620   9.497 -1.9303 -1.4797 -0.7282
28575SOL    HW287465   8.237   4.500   9.570  0.2475  0.0912  0.2373
28576SOL     OW87466   6.208   2.964   5.275  0.0824  0.2773  0.5478
28576SOL    HW187467   6.267   2.962   5.199  1.6994 -0.8963  1.7650
28576SOL    HW287468   6.137   2.904   5.251 -1.1323  2.2782 -1.2426
28577SOL     OW87469   0.965   2.496   4.320 -0.8631  0.1933 -0.0488
28577SOL    HW187470   0.951   2.403   4.339 -1.0872  0.0937 -0.6991
28577SOL    HW287471   0.877   2.534   4.326 -0.7054  0.4663  0.7223
28578SOL     OW87472   1.163   9.432   2.178  0.2105 -0.5071  0.8134
28578SOL    HW187473   1.153   9.384   2.095  0.2039 -1.3543  1.2873
28578SOL    HW287474   1.084   9.411   2.227 -1.1598  2.2502 -0.0261
28579SOL     OW87475   4.708   2.811   5.762  0.0377  0.4664 -0.5685
28579SOL    HW187476   4.709   2.734   5.819  1.8597  1.9608  1.6379
28579SOL    HW287477   4.679   2.882   5.820 -1.4448  1.5237 -2.4932
28580SOL     OW87478   4.601   1.203   6.282  0.3190 -0.4473 -0.0491
28580SOL    HW187479   4.603   1.202   6.186  0.4620  0.3656 -0.0635
28580SOL    HW287480   4.676   1.150   6.308  1.4880  0.9540 -0.4206
28581SOL     OW87481   6.885   0.113   4.304  0.4988 -0.6836 -0.4472
28581SOL    HW187482   6.942   0.051   4.349  0.3923  1.6417  3.3530
28581SOL    HW287483   6.799   0.100   4.343 -0.5396 -0.8747 -2.6305
28582SOL     OW87484   8.831   3.465   2.067 -0.3668 -0.4402 -0.6673
28582SOL    HW187485   8.874   3.548   2.045 -0.0583 -0.7987 -1.4692
28582SOL    HW287486   8.896   3.398   2.045 -1.1605 -0.9721 -1.4893
28583SOL     OW87487   4.701   7.853   1.211  1.0407 -0.5878  0.0397
28583SOL    HW187488   4.673   7.799   1.285 -1.0178  1.3564  0.7826
28583SOL    HW287489   4.690   7.943   1.241 -0.1515  0.2750 -2.6894
28584SOL     OW87490   5.732   3.219   0.527 -0.3312 -0.0959  0.3671
28584SOL    HW187491   5.825   3.231   0.544 -0.4328 -0.2856  1.0877
28584SOL    HW287492   5.694   3.307   0.535  0.1239  0.4486 -2.3441
28585SOL     OW87493   8.407   1.427   9.456 -0.3653  1.0686  0.4904
28585SOL    HW187494   8.415   1.503   9.398 -0.8052  2.4327  2.1015
28585SOL    HW287495   8.497   1.406   9.481 -0.1561  0.3048 -0.8592
28586SOL     OW87496   0.948   2.576   7.908 -0.2546 -0.1237  0.0306
28586SOL    HW187497   0.928   2.626   7.987 -1.1316  0.0751 -0.3004
28586SOL    HW287498   1.041   2.555   7.915 -0.5717 -1.1727  1.7081
28587SOL     OW87499   3.632   0.693   0.529  0.1142  0.2479 -0.4801
28587SOL    HW187500   3.688   0.676   0.604  1.4498 -0.1590 -1.5231
28587SOL    HW287501   3.632   0.611   0.479  0.7258  1.0355 -1.8312
28588SOL     OW87502   9.546   9.516   0.906 -0.2749 -0.1748  0.2766
28588SOL    HW187503   9.567   9.423   0.917 -0.4549 -0.2383  0.0891
28588SOL    HW287504   9.475   9.532   0.968  0.6962  0.1729  1.3225
28589SOL     OW87505   7.438   8.267   4.404 -0.5731 -0.2331 -0.4356
28589SOL    HW187506   7.348   8.299   4.405 -0.8588 -0.9890 -0.8629
28589SOL    HW287507   7.440   8.205   4.331 -0.1176 -1.3552  0.4960
28590SOL     OW87508   2.640   8.622   8.590 -0.7964 -0.0124 -0.5845
28590SOL    HW187509   2.590   8.567   8.531 -0.9203 -1.2631  0.6402
28590SOL    HW287510   2.732   8.598   8.574 -0.8366 -0.4286 -0.2085
28591SOL     OW87511   8.491   2.945   3.236 -0.3043 -0.7852  0.3618
28591SOL    HW187512   8.415   2.947   3.178 -1.1796 -0.8977  1.4693
28591SOL    HW287513   8.544   3.020   3.209 -2.2517  1.0522  1.4244
28592SOL     OW87514   5.930   0.373   2.839 -0.0476 -0.0496 -0.6958
28592SOL    HW187515   6.004   0.342   2.787  0.6141 -0.4547  0.4580
28592SOL    HW287516   5.852   0.347   2.789  0.5672 -0.5424 -1.4066
28593SOL     OW87517   6.099   1.912   7.518 -0.1284  0.7434 -0.3484
28593SOL    HW187518   6.173   1.859   7.545 -0.5749  0.7143  0.8927
28593SOL    HW287519   6.138   1.992   7.483  0.5054  0.2293 -0.8395
28594SOL     OW87520   6.812   8.065   7.643 -0.2049 -0.4088 -0.1524
28594SOL    HW187521   6.833   7.981   7.603  0.1093 -0.1100 -0.6157
28594SOL    HW287522   6.720   8.079   7.621 -1.0708 -1.8658  2.1493
28595SOL     OW87523   4.464   0.854   7.010  0.0947 -0.1704 -0.7761
28595SOL    HW187524   4.502   0.941   6.995 -0.4913 -0.0739 -1.8015
28595SOL    HW287525   4.422   0.860   7.095 -0.9991  0.9523 -1.3623
28596SOL     OW87526   2.724   6.444   0.300  0.3874  0.0604 -0.2798
28596SOL    HW187527   2.676   6.415   0.223  0.4359 -0.6344 -0.0559
28596SOL    HW287528   2.754   6.533   0.278  1.0610 -0.4138 -1.3534
28597SOL     OW87529   4.000   5.274   0.038 -0.4956 -0.7303  0.4717
28597SOL    HW187530   4.075   5.254  -0.018  0.6733 -1.6438  2.2562
28597SOL    HW287531   3.946   5.333  -0.014 -0.3314 -2.7722 -2.2493
28598SOL     OW87532   0.620   1.416   7.051  0.1635  0.0873 -0.3389
28598SOL    HW187533   0.644   1.328   7.079  1.2803  0.5622  0.2689
28598SOL    HW287534   0.658   1.425   6.964  0.0316 -0.0288 -0.4097
28599SOL     OW87535   2.097   5.691   7.066  0.2274  0.0995  0.0477
28599SOL    HW187536   2.083   5.597   7.057 -2.0048  0.5366 -1.9210
28599SOL    HW287537   2.146   5.700   7.148  1.4188 -2.8077 -0.2249
28600SOL     OW87538   6.373   9.477   2.325  0.3805 -0.1514  0.8011
28600SOL    HW187539   6.340   9.392   2.297  1.8208 -0.4273 -0.1682
28600SOL    HW287540   6.295   9.533   2.330 -0.2345 -0.5961 -1.9447
28601SOL     OW87541   8.320   2.802   2.117  0.3472 -0.1971 -0.8104
28601SOL    HW187542   8.344   2.852   2.038  2.9563 -2.3729 -1.5504
28601SOL    HW287543   8.362   2.850   2.189  0.7153  0.0394 -1.1774
28602SOL     OW87544   0.862   4.563   5.308  0.3885  0.4476 -0.1653
28602SOL    HW187545   0.867   4.613   5.390  0.0875 -0.5690  0.4828
28602SOL    HW287546   0.932   4.499   5.314 -0.8792 -0.9618  0.2266
28603SOL     OW87547   5.645   1.956   9.504 -0.2159  0.2789 -0.4622
28603SOL    HW187548   5.683   2.043   9.503  1.3523 -0.3287  1.1415
28603SOL    HW287549   5.593   1.953   9.584  0.9324 -0.6942  0.2830
28604SOL     OW87550   9.075   8.215   2.558  0.2970 -0.1188  0.2482
28604SOL    HW187551   9.069   8.200   2.464  0.2321  0.7152  0.1057
28604SOL    HW287552   9.059   8.309   2.568 -2.4384 -0.5998  1.3327
28605SOL     OW87553   0.659   9.214   5.850  0.1547 -0.2015  0.8336
28605SOL    HW187554   0.593   9.164   5.803  0.0360  0.5585  0.1588
28605SOL    HW287555   0.702   9.151   5.907 -1.6902 -0.5498  1.8924
28606SOL     OW87556   9.091   8.648   3.387  0.3342  0.3485  0.3063
28606SOL    HW187557   9.133   8.563   3.401 -0.7366 -0.1684  0.4660
28606SOL    HW287558   9.164   8.709   3.372  1.0515 -1.1370 -3.1451
28607SOL     OW87559   3.982   4.706   2.842 -0.0102 -0.2782 -0.0279
28607SOL    HW187560   4.071   4.692   2.810  0.3717  2.3363 -0.3527
28607SOL    HW287561   3.985   4.682   2.935  0.3674 -2.4428 -0.5519
28608SOL     OW87562   4.712   0.847   1.716  0.3806  0.1090 -0.0858
28608SOL    HW187563   4.715   0.942   1.705  0.2835 -0.0393 -1.6693
28608SOL    HW287564   4.790   0.826   1.767  0.0915  1.0752  0.7931
28609SOL     OW87565   5.946   0.309   2.221  0.1825  0.5136 -0.2953
28609SOL    HW187566   5.883   0.359   2.169  0.2454 -0.6752 -1.6058
28609SOL    HW287567   5.944   0.221   2.182  0.5907 -0.3222  1.4456
28610SOL     OW87568   4.582   8.815   2.091  0.1779 -0.1816  0.0817
28610SOL    HW187569   4.534   8.772   2.021 -2.6796  0.5307  1.4391
28610SOL    HW287570   4.582   8.908   2.066  1.6861 -0.2667 -0.3111
28611SOL     OW87571   1.097   1.948   7.264  0.6863 -1.0799 -0.2764
28611SOL    HW187572   1.096   1.853   7.254  1.9490 -1.0262 -1.0681
28611SOL    HW287573   1.134   1.981   7.182  2.4038 -0.0464  0.8461
28612SOL     OW87574   1.867   6.228   2.485 -0.0597  0.0762 -0.4658
28612SOL    HW187575   1.833   6.140   2.499  1.0341  0.0474  2.7675
28612SOL    HW287576   1.896   6.228   2.394  2.5633 -3.9457  0.1069
28613SOL     OW87577   8.278   8.651   4.050 -0.0958  0.0192  0.1499
28613SOL    HW187578   8.228   8.728   4.077  1.2336  1.1493 -0.4769
28613SOL    HW287579   8.351   8.687   4.000  0.2561 -1.7004 -0.6267
28614SOL     OW87580   0.955   8.048   0.041  0.0620  0.1170 -0.3469
28614SOL    HW187581   1.010   8.115   0.001  0.6930  0.3449  0.8564
28614SOL    HW287582   0.999   7.966   0.022  1.2760  0.3578  1.2654
28615SOL     OW87583   2.844   0.778   6.391 -0.2015 -0.6159  0.0498
28615SOL    HW187584   2.879   0.690   6.404 -1.2457 -0.7765  2.3951
28615SOL    HW287585   2.790   0.794   6.469  1.8959  3.0196  1.0242
28616SOL     OW87586   4.888   4.274   1.839 -0.8639 -0.1076  0.0304
28616SOL    HW187587   4.975   4.257   1.876 -0.6837  0.1458 -0.2744
28616SOL    HW287588   4.835   4.200   1.868 -1.0440  0.6818  1.8210
28617SOL     OW87589   4.195   8.241   1.203  0.3495 -0.3397 -0.2125
28617SOL    HW187590   4.264   8.265   1.142  0.6535 -0.6722 -0.0084
28617SOL    HW287591   4.113   8.252   1.154  0.5103  0.6246 -0.2664
28618SOL     OW87592   1.523   6.478   4.291  0.0326  0.0075 -0.2095
28618SOL    HW187593   1.438   6.519   4.276  0.0727  0.0927 -0.2102
28618SOL    HW287594   1.505   6.405   4.350 -0.0100  0.1636 -0.0243
28619SOL     OW87595   4.254   2.116   6.817 -0.3706  0.1698 -0.0858
28619SOL    HW187596   4.266   2.210   6.820 -0.8452  0.2038  1.8860
28619SOL    HW287597   4.172   2.104   6.769 -0.6822  0.7969  0.2837
28620SOL     OW87598   1.215   3.453   0.980 -0.1839 -0.3390 -0.2744
28620SOL    HW187599   1.303   3.415   0.969 -0.0038 -0.1718  0.5256
28620SOL    HW287600   1.158   3.377   0.993  0.2414 -0.3566  1.7568
28621SOL     OW87601   4.507   0.140   1.509  0.1088 -0.8427 -0.1230
28621SOL    HW187602   4.415   0.164   1.519  0.1454 -0.7207 -0.0723
28621SOL    HW287603   4.555   0.219   1.535  0.2143 -0.5297 -1.2445
28622SOL     OW87604   0.992   3.835   0.804 -0.6972 -0.0951 -0.1046
28622SOL    HW187605   1.020   3.905   0.864 -0.4252 -1.2700  1.1953
28622SOL    HW287606   1.073   3.790   0.781 -0.8387  0.1796 -1.1838
28623SOL     OW87607   9.513   4.589   0.397  0.6368 -0.6480  0.3284
28623SOL    HW187608   9.429   4.633   0.382 -0.3750 -2.2713  0.9240
28623SOL    HW287609   9.551   4.579   0.310  0.5082  0.6263  0.1057
28624NA      NA87610   2.875   2.681   5.535 -0.0235  0.1774  0.0501
28625NA      NA87611   2.957   6.032   5.807  0.0274  0.1262 -0.5268
28626NA      NA87612   6.534   2.780   0.945  0.0142  0.5742  0.0415
28627NA      NA87613   1.813   3.996   4.789 -0.3285 -0.0146  0.4680
28628NA      NA87614   2.704   4.360   2.465  0.1863 -0.1137  0.1340
28629NA      NA87615   2.149   2.803   4.786  0.1872 -0.6896  0.1080
28630NA      NA87616   5.369   4.752   5.226  0.4679 -0.0260 -0.3827
28631NA      NA87617   4.055   4.921   8.998 -0.3393 -0.0247 -0.0894
28632NA      NA87618   5.545   6.598   6.069  0.4278 -0.1892  0.1147
28633NA      NA87619   1.989   7.573   1.921  0.1345  0.3268 -0.3370
28634NA      NA87620   6.439   3.081   3.134 -0.2015 -0.5446 -0.2056
28635NA      NA87621   3.112   2.704   3.899  0.1847 -0.2841 -0.4483
28636NA      NA87622   4.279   5.525   7.978  0.0652  0.4512 -0.0286
28637NA      NA87623   7.701   5.993   8.180  0.0752 -0.1999 -0.4959
28638NA      NA87624   1.997   0.176   4.839 -0.0163  0.0994  0.0722
28639NA      NA87625   0.109   0.982   4.240  0.2636  0.7029  0.0386
28640NA      NA87626   8.125   4.770   7.728 -0.2961 -0.3515 -0.5910
28641NA      NA87627   6.336   5.061   0.683 -0.2007 -0.2642  0.1238
28642NA      NA87628   6.492   6.019   7.957  0.3065 -0.2039 -0.2011
28643NA      NA87629   4.990   9.302   2.226 -0.1131  0.6315  0.1748
28644NA      NA87630   3.410   6.853   2.755  0.4181 -0.0458  0.0803
28645NA      NA87631   7.874   3.092   7.222  0.5788  0.1995  0.2745
28646NA      NA87632   7.835   3.722   4.047 -0.2635 -0.2511 -0.0347
28647NA      NA87633   5.757   4.856   8.992  0.2496 -0.1268  0.5677
28648NA      NA87634   5.205   7.615   6.340  0.8553  0.0061 -0.5625
28649NA      NA87635   4.536   3.141   1.575 -0.0613  0.0331  0.2369
28650NA      NA87636   0.726   4.879   3.324  0.2434  0.7261 -0.1428
28651NA      NA87637   6.122   7.470   3.388  0.2465 -0.3922 -0.2208
28652NA      NA87638   8.945   3.807   7.835 -0.0515 -0.1500 -0.0995
28653NA      NA87639   4.706   7.798   0.970 -0.0137 -0.0177  0.0279
28654NA      NA87640   2.924   8.254   1.520 -0.0373  0.6788 -0.0607
28655NA      NA87641   3.969   1.615   9.335  0.1748  0.3578 -0.2342
28656NA      NA87642   7.817   5.992   2.640 -0.1058  0.3234  0.1823
28657NA      NA87643   7.671   4.355   0.713 -0.4339 -0.0641 -0.2798
28658NA      NA87644   8.500   4.911   5.539  0.1059 -0.5193  0.3027
28659NA      NA87645   4.322   8.401   4.489 -0.0016  0.2912  0.2512
28660NA      NA87646   6.627   5.353   0.762  0.0973  0.1130 -0.1176
28661NA      NA87647   5.562   7.114   2.578  0.3028  0.0232 -0.0830
28662NA      NA87648   7.028   5.458   7.602 -0.0749 -0.1719  0.0503
28663NA      NA87649   4.089   8.955   3.159  0.5080  0.0310 -0.5577
28664NA      NA87650   6.829   0.412   5.494 -0.3595  0.0806  0.4692
28665NA      NA87651   6.832   1.241   5.146  0.1903 -0.6355 -0.2978
28666NA      NA87652   7.204   2.759   8.883  0.0489 -0.1006  0.5570
28667NA      NA87653   5.033   2.745   7.981 -0.2572  0.4583 -0.3246
28668NA      NA87654   1.926   6.821   9.501  0.0303 -0.2606  0.2529
28669NA      NA87655   3.689   7.102   4.435  0.2802  0.1882 -0.0213
28670NA      NA87656   9.312   4.002   6.054  0.0542  0.3709  0.1017
28671NA      NA87657   5.251   7.452   9.134  0.2298 -0.2698 -0.1004
28672NA      NA87658   4.483   6.570   7.075  0.4777  0.1994  0.3378
28673NA      NA87659   0.389   3.665   8.772 -0.0949 -0.3402 -0.2621
28674NA      NA87660   3.313   6.329   3.379  0.3388 -0.0480  0.4123
28675NA      NA87661   4.326   8.566   8.979  0.3508 -0.1362 -0.0397
28676NA      NA87662   4.097   3.594   6.149 -0.0077 -0.0485  0.1234
28677NA      NA87663   2.860   5.511   9.391 -0.0520 -0.4288  0.0105
28678NA      NA87664   0.390   4.091   0.503 -0.9450  0.2846 -0.0845
28679NA      NA87665   5.637   2.267   5.031  0.0347 -0.2609 -0.3208
28680NA      NA87666   5.561   4.857   3.211  0.5880 -0.4584  0.6516
28681NA      NA87667   0.092   1.892   2.100 -0.6871  0.2575 -0.5035
28682NA      NA87668   5.875   7.901   4.431  0.3748 -0.0094 -0.2133
28683NA      NA87669   5.562   2.949   3.520  0.2585  0.0240 -0.5726
28684NA      NA87670   7.777   3.988   1.423  0.5475  0.4519 -0.3997
28685NA      NA87671   7.934   3.925   8.825 -0.2758  0.1237  0.5038
28686NA      NA87672   2.536   8.187   8.992 -0.0953 -0.5743  0.1540
28687NA      NA87673   1.007   3.086   5.541  0.0017 -0.0980 -0.2385
28688NA      NA87674   4.269   7.917   0.230 -0.1186 -0.0324 -0.0140
28689NA      NA87675   5.439   7.800   1.954 -0.2447 -0.5597 -0.1999
28690NA      NA87676   4.876   2.107   0.523 -0.3997  0.2865  0.4091
28691NA      NA87677   6.400   7.759   6.497  0.3605  0.1959 -0.2377
28692NA      NA87678   2.391   4.120   5.858 -0.7444 -0.2943 -0.6819
28693NA      NA87679   0.049   7.740   4.792 -0.2407 -0.1182 -0.2908
28694NA      NA87680   6.771   1.787   2.954  0.6194 -0.0114  0.0792
28695NA      NA87681   1.061   7.942   2.976 -0.2351 -0.1669  0.3144
28696NA      NA87682   7.177   3.433   7.012 -0.1545  0.0878 -0.2535
28697NA      NA87683   8.449   1.157   3.543 -0.1416  0.3824  0.3919
28698NA      NA87684   4.157   9.460   2.309  0.2272  0.1647 -0.8284
28699NA      NA87685   8.711   7.036   2.257  0.4728 -0.8895 -0.2060
28700NA      NA87686   8.882   5.943   6.607  0.2094  0.4539  0.0300
28701NA      NA87687   7.728   1.336   9.337  0.2443  0.2394  0.2483
28702NA      NA87688   8.553   1.698   2.917  0.2868 -0.1626 -0.2753
28703NA      NA87689   4.651   7.171   8.844  0.2292 -0.0946  0.0624
28704NA      NA87690   7.716   4.287   6.528  0.2035  0.6128 -0.2023
28705CL      CL87691   5.196   6.430   3.824  0.0752  0.2242 -0.3798
28706CL      CL87692   7.523   7.414   7.221 -0.2750 -0.0704 -0.3160
28707CL      CL87693   9.078   8.323   9.481 -0.4932  0.2604  0.2284
28708CL      CL87694   1.911   9.257   8.161  0.0168  0.0330 -0.3266
28709CL      CL87695   2.883   6.634   6.014  0.1303 -0.2019 -0.0408
28710CL      CL87696   1.379   8.285   8.328  0.2433 -0.1797  0.0151
28711CL      CL87697   9.511   2.624   2.798  0.0367  0.4901 -0.0466
28712CL      CL87698   5.030   3.967   7.070  0.1630 -0.1305  0.4544
28713CL      CL87699   4.810   7.625   6.083  0.0479 -0.0722  0.2782
28714CL      CL87700   5.382   6.134   9.349 -0.4416  0.2294 -0.0555
28715CL      CL87701   4.859   4.565   3.339 -0.0161 -0.1023  0.1053
28716CL      CL87702   9.352   8.328   8.954 -0.1265  0.2774  0.2975
28717CL      CL87703   2.034   4.189   6.851 -0.1356  0.1409 -0.2533
28718CL      CL87704   9.613   1.431   6.068  0.0611 -0.1110  0.0317
28719CL      CL87705   1.743   2.754   0.474 -0.1508 -0.1740 -0.1203
28720CL      CL87706   7.898   7.732   5.023  0.0148 -0.4400 -0.2051
28721CL      CL87707   0.662   1.567   2.377 -0.2734 -0.2246  0.4179
28722CL      CL87708   9.321   6.496   9.495 -0.0835  0.1543  0.1809
28723CL      CL87709   7.352   4.047   6.946  0.5786 -0.1515  0.0445
28724CL      CL87710   7.427   1.273   5.799 -0.2971 -0.3716 -0.1045
28725CL      CL87711   4.882   8.993   3.230 -0.3635  0.3583  0.2483
28726CL      CL87712   6.621   7.707   6.439 -0.3709  0.1011  0.0855
28727CL      CL87713   0.157   2.203   0.469  0.3348  0.3942 -0.3076
28728CL      CL87714   4.577   6.847   7.993 -0.0226 -0.2544 -0.0812
28729CL      CL87715   4.598   1.315   7.373 -0.1938 -0.3573 -0.0839
28730CL      CL87716   6.104   1.294   0.754 -0.2462  0.0995  0.5305
28731CL      CL87717   1.120   8.165   7.866 -0.4362 -0.2564  0.1942
28732CL      CL87718   8.413   3.553   1.452 -0.4243 -0.0629  0.3099
28733CL      CL87719   1.259   4.235   5.155  0.2322 -0.2447 -0.0625
28734CL      CL87720   6.394   2.823   4.667 -0.1291  0.1267  0.2757
28735CL      CL87721   9.291   6.599   5.996 -0.0040 -0.1009 -0.3275
28736CL      CL87722   5.968   0.776   8.036 -0.4181  0.3553 -0.1651
28737CL      CL87723   0.226   8.165   5.195 -0.1026 -0.3794  0.4935
28738CL      CL87724   8.498   0.964   8.488  0.0593 -0.1402  0.0201
28739CL      CL87725   0.014   0.489   5.455  0.4039 -0.2199 -0.1126
28740CL      CL87726   5.987   9.017   6.765  0.1399  0.1399  0.3946
28741CL      CL87727   8.295   4.234   5.895 -0.4349  0.1151  0.2476
28742CL      CL87728   9.078   3.232   2.713  0.1094  0.2941  0.3912
28743CL      CL87729   2.616   8.522   8.103  0.2733  0.1629  0.2165
28744CL      CL87730   4.623   4.184   2.854  0.0403  0.0665  0.2572
28745CL      CL87731   7.792   0.522   1.909  0.4721 -0.3474  0.1482
28746CL      CL87732   5.955   5.049   8.176 -0.0335  0.1994 -0.1612
28747CL      CL87733   9.185   8.633   4.528 -0.3848  0.2357  0.2116
28748CL      CL87734   7.806   8.371   7.269 -0.2343  0.2030 -0.2955
28749CL      CL87735   5.770   8.061   5.028 -0.0524 -0.1220  0.2146
28750CL      CL87736   9.135   3.428   6.622 -0.4425 -0.0517 -0.1286
28751CL      CL87737   6.018   5.202   0.432 -0.6203 -0.1445 -0.1656
28752CL      CL87738   7.353   8.350   1.834  0.5450  0.0548 -0.1626
28753CL      CL87739   7.307   2.772   9.102 -0.1300 -0.4234 -0.1667
28754CL      CL87740   0.704   6.415   4.456  0.4302  0.0221 -0.1680
28755CL      CL87741   8.573   3.263   8.065  0.1696  0.5602  0.1407
28756CL      CL87742   7.599   7.265   2.432  0.5079 -0.2135  0.3860
28757CL      CL87743   6.377   1.148   4.144  0.0340  0.2532 -0.0287
28758CL      CL87744   7.178   3.204   7.697 -0.3898  0.1003  0.4089
28759CL      CL87745   5.078   1.581   6.227  0.0591 -0.1256 -0.1164
28760CL      CL87746   1.709   1.054   0.558  0.3249  0.2342  0.3057
28761CL      CL87747   3.469   6.513   3.350 -0.2494  0.2713 -0.4801
28762CL      CL87748   5.041   8.585   5.742 -0.5818  0.0501  0.1631
28763CL      CL87749   0.814   9.580   6.958  0.2403  0.2081 -0.4697
28764CL      CL87750   7.546   6.130   5.509 -0.1255  0.1722  0.4464
28765CL      CL87751   2.101   0.998   4.292 -0.4333  0.7370 -0.0047
28766CL      CL87752   8.243   8.587   6.707  0.1279  0.0778 -0.0001
28767CL      CL87753   1.693   1.448   9.384 -0.0419 -0.2282 -0.0604
28768CL      CL87754   8.888   6.732   8.327 -0.2841 -0.2647 -0.0485
28769CL      CL87755   4.308   8.394   4.916  0.1481  0.3184 -0.1579
28770CL      CL87756   6.621   1.587   2.952  0.2207 -0.0083 -0.1297
28771CL      CL87757   2.051   2.053   1.308 -0.1854 -0.0613 -0.1623
28772CL      CL87758   8.203   1.649   6.117 -0.0963 -0.2541 -0.2216
28773CL      CL87759   7.460   9.592   7.737  0.6728 -0.0500 -0.2977
28774CL      CL87760   1.965   1.690   6.444 -0.0351  0.2543  0.0489
28775CL      CL87761   1.077   4.038   1.854  0.2237  0.0373 -0.0364
28776CL      CL87762   9.034   0.803   7.316 -0.4578 -0.2007  0.0387
28777CL      CL87763   9.005   0.153   7.968 -0.2443 -0.1601 -0.4695
28778CL      CL87764   5.607   8.599   0.992 -0.2872 -0.0845  0.1103
28779CL      CL87765   2.471   8.665   9.001 -0.1706  0.0508  0.0830
28780CL      CL87766   8.619   6.236   5.032 -0.6059 -0.5076 -0.1053
28781CL      CL87767   4.724   0.737   3.899  0.2711  0.3620  0.1002
28782CL      CL87768   0.659   9.111   6.305  0.0330  0.1172  0.1511
28783CL      CL87769   3.525   5.996   3.989 -0.1438 -0.0915 -0.1091
28784CL      CL87770   0.694   0.398   2.191  0.4224 -0.2008 -0.4363
28785CL      CL87771   0.279   7.978   8.426  0.1216  0.0093  0.0443
28786CL      CL87772   5.511   8.246   4.287  0.2029  0.6200 -0.3944
28787CL      CL87773   6.514   5.464   7.244  0.3111  0.4258 -0.1436
28788CL      CL87774   5.306   7.232   3.140 -0.2372 -0.0858 -0.4021
28789CL      CL87775   8.991   9.060   7.983 -0.0254  0.2646 -0.0296
28790CL      CL87776   2.171   0.438   6.357  0.1466 -0.2139 -0.2024
28791CL      CL87777   4.994   4.144   0.956 -0.4647 -0.3976 -0.0498
28792CL      CL87778   8.134   4.231   1.588 -0.1012  0.0265  0.0249
28793CL      CL87779   8.978   1.245   8.651  0.0110  0.0140  0.1007
28794CL      CL87780   0.795   2.682   6.424 -0.0786 -0.2073 -0.0262
28795CL      CL87781   8.116   0.090   6.138 -0.1788  0.3336 -0.1179
28796CL      CL87782   2.631   4.391   2.034 -0.2992 -0.1032 -0.3850
28797CL      CL87783   7.625   3.807   6.568 -0.1921 -0.1720 -0.0775
28798CL      CL87784   0.075   8.551   7.517 -0.2156 -0.2879 -0.0774
28799CL      CL87785   0.444   0.775   7.351 -0.1417  0.0216 -0.5750
28800CL      CL87786   2.792   6.130   5.419  0.2914  0.3290  0.1172
28801CL      CL87787   2.058   2.543   5.169 -0.0803 -0.5061  0.2862
28802CL      CL87788   1.575   7.248   1.709 -0.3108  0.1431 -0.2892
28803CL      CL87789   1.079   4.567   0.927  0.3302  0.0109  0.0522
28804CL      CL87790   4.935   0.719   2.982  0.2491 -0.1435  0.2056
28805CL      CL87791   0.233   8.173   6.268 -0.4170  0.0726  0.1830
28806CL      CL87792   0.497   0.330   8.309  0.0568  0.1462 -0.0520
28807CL      CL87793   0.750   7.123   7.625  0.2456  0.1227 -0.1553
28808CL      CL87794   7.511   5.435   7.187  0.4905 -0.3394  0.2440
28809CL      CL87795   0.788   8.460   3.132 -0.2141  0.1611 -0.1529
28810CL      CL87796   2.989   6.052   8.093  0.2110  0.0593 -0.0418
28811CL      CL87797   8.352   8.606   7.239  0.3376  0.2930  0.0270
28812CL      CL87798   5.941   8.190   5.901 -0.1240  0.2877 -0.1164
28813CL      CL87799   8.329   4.452   4.604  0.1929 -0.0936  0.3265
28814CL      CL87800   7.945   4.137   8.663  0.0169 -0.0488  0.2126
28815CL      CL87801   2.263   1.974   9.005 -0.1019  0.2066  0.3950
28816CL      CL87802   8.732   0.752   1.410 -0.2674 -0.0367 -0.1973
28817CL      CL87803   0.605   0.626   4.330  0.1368  0.2713  0.1293
28818CL      CL87804   1.731   9.171   0.387  0.4376 -0.4122 -0.1648
28819CL      CL87805   3.511   7.050   5.705  0.0741 -0.0881  0.0066
28820CL      CL87806   3.378   2.478   4.999 -0.1279 -0.0321 -0.1332
28821CL      CL87807   5.287   5.450   8.707  0.1461  0.2297 -0.3545
28822CL      CL87808   3.030   6.584   3.692 -0.0371 -0.1040  0.2671
28823CL      CL87809   8.737   7.937   8.827 -0.1855 -0.3883  0.3849
28824CL      CL87810   5.047   7.085   8.512 -0.0636 -0.0047  0.0378
28825CL      CL87811   3.131   0.317   7.306 -0.1951  0.3560  0.2929
28826CL      CL87812   1.037   8.380   7.246  0.4321  0.6871  0.2394
28827CL      CL87813   1.369   0.338   5.865  0.3054 -0.3521  0.0468
28828CL      CL87814   0.736   1.159   7.165 -0.3700  0.5257  0.1402
28829CL      CL87815   9.567   3.704   5.078 -0.0753 -0.1792  0.1145
28830CL      CL87816   1.189   7.953   2.385  0.1845 -0.0463 -0.2903
28831CL      CL87817   6.705   5.878   7.954 -0.0205 -0.0258  0.5170
28832CL      CL87818   8.901   7.106   7.789 -0.0909 -0.3190  0.2020
28833CL      CL87819   6.883   1.711   4.271 -0.0349  0.4213 -0.1901
28834CL      CL87820   5.404   2.667   9.514  0.2278  0.4083  0.6930
28835CL      CL87821   9.366   7.593   7.906  0.2261 -0.0034 -0.2680
28836CL      CL87822   7.359   2.796   8.707  0.2782  0.2414 -0.2069
28837CL      CL87823   1.439   6.794   7.088  0.3141 -0.0972 -0.3625
28838CL      CL87824   1.917   5.448   8.853  0.1358  0.1702  0.0414
28839CL      CL87825   5.772   0.289   6.867 -0.1128 -0.3415  0.1813
28840CL      CL87826   3.700   7.292   6.758  0.1112  0.0161 -0.0749
28841CL      CL87827   1.967   1.186   8.480 -0.0088 -0.2490  0.1860
28842CL      CL87828   8.939   9.477   8.337 -0.0697  0.1571  0.4850
28843CL      CL87829   5.438   5.263   2.237  0.0924  0.5062  0.4196
28844CL      CL87830   6.581   3.703   2.099 -0.0640  0.3576  0.0991
28845CL      CL87831   8.672   0.562   7.052 -0.0562 -0.1356  0.0504
28846CL      CL87832   1.777   0.955   3.528  0.2308  0.0960 -0.3650
28847CL      CL87833   9.361   9.156   6.678  0.0021  0.4325 -0.0632
   9.61401   9.61401   9.61401
