;
;   File g6.5ocore_petim.itp  was generated
;   By user: sairam (1000)
;   On host: sairam
;   At date: Wed. August  3 14:49:08 2023
;
;   This is a standalone topology file
;
;   Created by:
;   ParmEd:       amb2gro_top_gro.py, VERSION 3.4.1
;   Executable:   amb2gro_top_gro.py
;   Library dir:  /usr/local/gromacs/share/gromacs/top
;   Command line:
;     ./amb2gro_top_gro.py -p g6.5ocore_petim.prmtop -c g6.5ocore_petim.inpcrd -t g6.5ocore_petim.itp -g g6.5ocore_petim.gro -b g6.5ocore_petim.pdb
;

;[ defaults ]
;; nbfunc        comb-rule       gen-pairs       fudgeLJ fudgeQQ
;1               2               yes             0.5          0.83333333  
;
;[ atomtypes ]
;; name    at.num    mass    charge ptype  sigma      epsilon
;os             8  16.000000  0.00000000  A     0.30000123        0.71128
;c3             6  12.010000  0.00000000  A     0.33996695      0.4577296
;h1             1   1.008000  0.00000000  A      0.2471353      0.0656888
;hc             1   1.008000  0.00000000  A     0.26495328      0.0656888
;n3             7  14.010000  0.00000000  A     0.32499985        0.71128
;c              6  12.010000  0.00000000  A     0.33996695       0.359824
;o              8  16.000000  0.00000000  A     0.29599219        0.87864


[ moleculetype ]
; Name            nrexcl
g6.5ocore_petim     3

[ atoms ]
;   nr       type  resnr residue  atom   cgnr    charge       mass  typeB    chargeB      massB
; residue    1 aaa rtp aaa q -0.0
    1         os      1    aaa     O1      1 -0.43807400  16.000000   ; qtot -0.438074
    2         c3      1    aaa     C1      2 0.04509800  12.010000   ; qtot -0.392976
    3         h1      1    aaa     H1      3 0.04771700   1.008000   ; qtot -0.345259
    4         h1      1    aaa     H2      4 0.04771700   1.008000   ; qtot -0.297542
    5         c3      1    aaa     C2      5 0.04509800  12.010000   ; qtot -0.252444
    6         h1      1    aaa     H3      6 0.04771700   1.008000   ; qtot -0.204727
    7         h1      1    aaa     H4      7 0.04771700   1.008000   ; qtot -0.157010
    8         c3      1    aaa     C3      8 0.05658600  12.010000   ; qtot -0.100424
    9         hc      1    aaa     H5      9 0.04933800   1.008000   ; qtot -0.051086
   10         hc      1    aaa     H6     10 0.04933800   1.008000   ; qtot -0.001748
   11         c3      1    aaa     C4     11 0.05658600  12.010000   ; qtot 0.054838
   12         hc      1    aaa     H7     12 0.04933800   1.008000   ; qtot 0.104176
   13         hc      1    aaa     H8     13 0.04933800   1.008000   ; qtot 0.153514
   14         c3      1    aaa     C5     14 0.00989700  12.010000   ; qtot 0.163411
   15         h1      1    aaa     H9     15 0.04845500   1.008000   ; qtot 0.211866
   16         h1      1    aaa    H10     16 0.04845500   1.008000   ; qtot 0.260321
   17         c3      1    aaa     C6     17 0.00989700  12.010000   ; qtot 0.270218
   18         h1      1    aaa    H11     18 0.04845500   1.008000   ; qtot 0.318673
   19         h1      1    aaa    H12     19 0.04845500   1.008000   ; qtot 0.367128
   20         n3      1    aaa     N1     20 -0.59936800  14.010000   ; qtot -0.232240
   21         n3      1    aaa     N2     21 -0.59936800  14.010000   ; qtot -0.831608
   22         c3      1    aaa     C7     22 0.08030200  12.010000   ; qtot -0.751306
   23         h1      1    aaa    H13     23 0.05071600   1.008000   ; qtot -0.700590
   24         h1      1    aaa    H14     24 0.05071600   1.008000   ; qtot -0.649874
   25         c3      1    aaa     C8     25 0.08030200  12.010000   ; qtot -0.569572
   26         h1      1    aaa    H15     26 0.05071600   1.008000   ; qtot -0.518856
   27         h1      1    aaa    H16     27 0.05071600   1.008000   ; qtot -0.468140
   28         c3      1    aaa     C9     28 0.08030200  12.010000   ; qtot -0.387838
   29         h1      1    aaa    H17     29 0.05071600   1.008000   ; qtot -0.337122
   30         h1      1    aaa    H18     30 0.05071600   1.008000   ; qtot -0.286406
   31         c3      1    aaa    C10     31 0.08030200  12.010000   ; qtot -0.206104
   32         h1      1    aaa    H19     32 0.05071600   1.008000   ; qtot -0.155388
   33         h1      1    aaa    H20     33 0.05071600   1.008000   ; qtot -0.104672
   34         c3      1    aaa    C11     34 0.10287800  12.010000   ; qtot -0.001794
   35         hc      1    aaa    H21     35 0.06787400   1.008000   ; qtot 0.066080
   36         hc      1    aaa    H22     36 0.06787400   1.008000   ; qtot 0.133954
   37         c3      1    aaa    C12     37 0.10287800  12.010000   ; qtot 0.236832
   38         hc      1    aaa    H23     38 0.06787400   1.008000   ; qtot 0.304706
   39         hc      1    aaa    H24     39 0.06787400   1.008000   ; qtot 0.372580
   40         c3      1    aaa    C13     40 0.10287800  12.010000   ; qtot 0.475458
   41         hc      1    aaa    H25     41 0.06787400   1.008000   ; qtot 0.543332
   42         hc      1    aaa    H26     42 0.06787400   1.008000   ; qtot 0.611206
   43         c3      1    aaa    C14     43 0.10287800  12.010000   ; qtot 0.714084
   44         hc      1    aaa    H27     44 0.06787400   1.008000   ; qtot 0.781958
   45         hc      1    aaa    H28     45 0.06787400   1.008000   ; qtot 0.849832
   46         c3      1    aaa    C15     46 -0.72585200  12.010000   ; qtot 0.123980
   47         h1      1    aaa    H29     47 0.25669700   1.008000   ; qtot 0.380677
   48         h1      1    aaa    H30     48 0.25669700   1.008000   ; qtot 0.637374
   49         c3      1    aaa    C16     49 -0.72585200  12.010000   ; qtot -0.088478
   50         h1      1    aaa    H31     50 0.25669700   1.008000   ; qtot 0.168219
   51         h1      1    aaa    H32     51 0.25669700   1.008000   ; qtot 0.424916
   52         c3      1    aaa    C17     52 -0.72585200  12.010000   ; qtot -0.300936
   53         h1      1    aaa    H33     53 0.25669700   1.008000   ; qtot -0.044239
   54         h1      1    aaa    H34     54 0.25669700   1.008000   ; qtot 0.212458
   55         c3      1    aaa    C18     55 -0.72585200  12.010000   ; qtot -0.513394
   56         h1      1    aaa    H35     56 0.25669700   1.008000   ; qtot -0.256697
   57         h1      1    aaa    H36     57 0.25669700   1.008000   ; qtot -0.000000
; residue    2 bbb rtp bbb q -0.0
   58         n3      2    bbb     N1     58 -0.59685800  14.010000   ; qtot -0.596858
   59         c3      2    bbb     C1     59 0.10137000  12.010000   ; qtot -0.495488
   60         h1      2    bbb     H1     60 0.04411300   1.008000   ; qtot -0.451375
   61         h1      2    bbb     H2     61 0.04411300   1.008000   ; qtot -0.407262
   62         c3      2    bbb     C2     62 0.10137000  12.010000   ; qtot -0.305892
   63         h1      2    bbb     H3     63 0.04411300   1.008000   ; qtot -0.261779
   64         h1      2    bbb     H4     64 0.04411300   1.008000   ; qtot -0.217666
   65         c3      2    bbb     C3     65 -0.00195300  12.010000   ; qtot -0.219619
   66         h1      2    bbb     H5     66 0.05064400   1.008000   ; qtot -0.168975
   67         h1      2    bbb     H6     67 0.05064400   1.008000   ; qtot -0.118331
   68         c3      2    bbb     C4     68 -0.01612100  12.010000   ; qtot -0.134452
   69         hc      2    bbb     H7     69 0.04936100   1.008000   ; qtot -0.085091
   70         hc      2    bbb     H8     70 0.04936100   1.008000   ; qtot -0.035730
   71         c3      2    bbb     C5     71 0.11363000  12.010000   ; qtot 0.077900
   72         hc      2    bbb     H9     72 0.06265900   1.008000   ; qtot 0.140559
   73         hc      2    bbb    H10     73 0.06265900   1.008000   ; qtot 0.203218
   74         c3      2    bbb     C6     74 0.11363000  12.010000   ; qtot 0.316848
   75         hc      2    bbb    H11     75 0.06265900   1.008000   ; qtot 0.379507
   76         hc      2    bbb    H12     76 0.06265900   1.008000   ; qtot 0.442166
   77         c3      2    bbb     C7     77 0.05858200  12.010000   ; qtot 0.500748
   78         h1      2    bbb    H13     78 0.06123400   1.008000   ; qtot 0.561982
   79         h1      2    bbb    H14     79 0.06123400   1.008000   ; qtot 0.623216
   80         c3      2    bbb     C8     80 -0.72423400  12.010000   ; qtot -0.101018
   81         h1      2    bbb    H15     81 0.25637600   1.008000   ; qtot 0.155358
   82         h1      2    bbb    H16     82 0.25637600   1.008000   ; qtot 0.411734
   83         c3      2    bbb     C9     83 -0.72423400  12.010000   ; qtot -0.312500
   84         h1      2    bbb    H17     84 0.25637600   1.008000   ; qtot -0.056124
   85         h1      2    bbb    H18     85 0.25637600   1.008000   ; qtot 0.200252
   86         os      2    bbb     O1     86 -0.20025300  16.000000   ; qtot -0.000001
; residue    3 bbb rtp bbb q -0.0
   87         n3      3    bbb     N1     87 -0.59685800  14.010000   ; qtot -0.596859
   88         c3      3    bbb     C1     88 0.10137000  12.010000   ; qtot -0.495489
   89         h1      3    bbb     H1     89 0.04411300   1.008000   ; qtot -0.451376
   90         h1      3    bbb     H2     90 0.04411300   1.008000   ; qtot -0.407263
   91         c3      3    bbb     C2     91 0.10137000  12.010000   ; qtot -0.305893
   92         h1      3    bbb     H3     92 0.04411300   1.008000   ; qtot -0.261780
   93         h1      3    bbb     H4     93 0.04411300   1.008000   ; qtot -0.217667
   94         c3      3    bbb     C3     94 -0.00195300  12.010000   ; qtot -0.219620
   95         h1      3    bbb     H5     95 0.05064400   1.008000   ; qtot -0.168976
   96         h1      3    bbb     H6     96 0.05064400   1.008000   ; qtot -0.118332
   97         c3      3    bbb     C4     97 -0.01612100  12.010000   ; qtot -0.134453
   98         hc      3    bbb     H7     98 0.04936100   1.008000   ; qtot -0.085092
   99         hc      3    bbb     H8     99 0.04936100   1.008000   ; qtot -0.035731
  100         c3      3    bbb     C5    100 0.11363000  12.010000   ; qtot 0.077899
  101         hc      3    bbb     H9    101 0.06265900   1.008000   ; qtot 0.140558
  102         hc      3    bbb    H10    102 0.06265900   1.008000   ; qtot 0.203217
  103         c3      3    bbb     C6    103 0.11363000  12.010000   ; qtot 0.316847
  104         hc      3    bbb    H11    104 0.06265900   1.008000   ; qtot 0.379506
  105         hc      3    bbb    H12    105 0.06265900   1.008000   ; qtot 0.442165
  106         c3      3    bbb     C7    106 0.05858200  12.010000   ; qtot 0.500747
  107         h1      3    bbb    H13    107 0.06123400   1.008000   ; qtot 0.561981
  108         h1      3    bbb    H14    108 0.06123400   1.008000   ; qtot 0.623215
  109         c3      3    bbb     C8    109 -0.72423400  12.010000   ; qtot -0.101019
  110         h1      3    bbb    H15    110 0.25637600   1.008000   ; qtot 0.155357
  111         h1      3    bbb    H16    111 0.25637600   1.008000   ; qtot 0.411733
  112         c3      3    bbb     C9    112 -0.72423400  12.010000   ; qtot -0.312501
  113         h1      3    bbb    H17    113 0.25637600   1.008000   ; qtot -0.056125
  114         h1      3    bbb    H18    114 0.25637600   1.008000   ; qtot 0.200251
  115         os      3    bbb     O1    115 -0.20025300  16.000000   ; qtot -0.000002
; residue    4 bbb rtp bbb q -0.0
  116         n3      4    bbb     N1    116 -0.59685800  14.010000   ; qtot -0.596860
  117         c3      4    bbb     C1    117 0.10137000  12.010000   ; qtot -0.495490
  118         h1      4    bbb     H1    118 0.04411300   1.008000   ; qtot -0.451377
  119         h1      4    bbb     H2    119 0.04411300   1.008000   ; qtot -0.407264
  120         c3      4    bbb     C2    120 0.10137000  12.010000   ; qtot -0.305894
  121         h1      4    bbb     H3    121 0.04411300   1.008000   ; qtot -0.261781
  122         h1      4    bbb     H4    122 0.04411300   1.008000   ; qtot -0.217668
  123         c3      4    bbb     C3    123 -0.00195300  12.010000   ; qtot -0.219621
  124         h1      4    bbb     H5    124 0.05064400   1.008000   ; qtot -0.168977
  125         h1      4    bbb     H6    125 0.05064400   1.008000   ; qtot -0.118333
  126         c3      4    bbb     C4    126 -0.01612100  12.010000   ; qtot -0.134454
  127         hc      4    bbb     H7    127 0.04936100   1.008000   ; qtot -0.085093
  128         hc      4    bbb     H8    128 0.04936100   1.008000   ; qtot -0.035732
  129         c3      4    bbb     C5    129 0.11363000  12.010000   ; qtot 0.077898
  130         hc      4    bbb     H9    130 0.06265900   1.008000   ; qtot 0.140557
  131         hc      4    bbb    H10    131 0.06265900   1.008000   ; qtot 0.203216
  132         c3      4    bbb     C6    132 0.11363000  12.010000   ; qtot 0.316846
  133         hc      4    bbb    H11    133 0.06265900   1.008000   ; qtot 0.379505
  134         hc      4    bbb    H12    134 0.06265900   1.008000   ; qtot 0.442164
  135         c3      4    bbb     C7    135 0.05858200  12.010000   ; qtot 0.500746
  136         h1      4    bbb    H13    136 0.06123400   1.008000   ; qtot 0.561980
  137         h1      4    bbb    H14    137 0.06123400   1.008000   ; qtot 0.623214
  138         c3      4    bbb     C8    138 -0.72423400  12.010000   ; qtot -0.101020
  139         h1      4    bbb    H15    139 0.25637600   1.008000   ; qtot 0.155356
  140         h1      4    bbb    H16    140 0.25637600   1.008000   ; qtot 0.411732
  141         c3      4    bbb     C9    141 -0.72423400  12.010000   ; qtot -0.312502
  142         h1      4    bbb    H17    142 0.25637600   1.008000   ; qtot -0.056126
  143         h1      4    bbb    H18    143 0.25637600   1.008000   ; qtot 0.200250
  144         os      4    bbb     O1    144 -0.20025300  16.000000   ; qtot -0.000003
; residue    5 bbb rtp bbb q -0.0
  145         n3      5    bbb     N1    145 -0.59685800  14.010000   ; qtot -0.596861
  146         c3      5    bbb     C1    146 0.10137000  12.010000   ; qtot -0.495491
  147         h1      5    bbb     H1    147 0.04411300   1.008000   ; qtot -0.451378
  148         h1      5    bbb     H2    148 0.04411300   1.008000   ; qtot -0.407265
  149         c3      5    bbb     C2    149 0.10137000  12.010000   ; qtot -0.305895
  150         h1      5    bbb     H3    150 0.04411300   1.008000   ; qtot -0.261782
  151         h1      5    bbb     H4    151 0.04411300   1.008000   ; qtot -0.217669
  152         c3      5    bbb     C3    152 -0.00195300  12.010000   ; qtot -0.219622
  153         h1      5    bbb     H5    153 0.05064400   1.008000   ; qtot -0.168978
  154         h1      5    bbb     H6    154 0.05064400   1.008000   ; qtot -0.118334
  155         c3      5    bbb     C4    155 -0.01612100  12.010000   ; qtot -0.134455
  156         hc      5    bbb     H7    156 0.04936100   1.008000   ; qtot -0.085094
  157         hc      5    bbb     H8    157 0.04936100   1.008000   ; qtot -0.035733
  158         c3      5    bbb     C5    158 0.11363000  12.010000   ; qtot 0.077897
  159         hc      5    bbb     H9    159 0.06265900   1.008000   ; qtot 0.140556
  160         hc      5    bbb    H10    160 0.06265900   1.008000   ; qtot 0.203215
  161         c3      5    bbb     C6    161 0.11363000  12.010000   ; qtot 0.316845
  162         hc      5    bbb    H11    162 0.06265900   1.008000   ; qtot 0.379504
  163         hc      5    bbb    H12    163 0.06265900   1.008000   ; qtot 0.442163
  164         c3      5    bbb     C7    164 0.05858200  12.010000   ; qtot 0.500745
  165         h1      5    bbb    H13    165 0.06123400   1.008000   ; qtot 0.561979
  166         h1      5    bbb    H14    166 0.06123400   1.008000   ; qtot 0.623213
  167         c3      5    bbb     C8    167 -0.72423400  12.010000   ; qtot -0.101021
  168         h1      5    bbb    H15    168 0.25637600   1.008000   ; qtot 0.155355
  169         h1      5    bbb    H16    169 0.25637600   1.008000   ; qtot 0.411731
  170         c3      5    bbb     C9    170 -0.72423400  12.010000   ; qtot -0.312503
  171         h1      5    bbb    H17    171 0.25637600   1.008000   ; qtot -0.056127
  172         h1      5    bbb    H18    172 0.25637600   1.008000   ; qtot 0.200249
  173         os      5    bbb     O1    173 -0.20025300  16.000000   ; qtot -0.000004
; residue    6 bbb rtp bbb q -0.0
  174         n3      6    bbb     N1    174 -0.59685800  14.010000   ; qtot -0.596862
  175         c3      6    bbb     C1    175 0.10137000  12.010000   ; qtot -0.495492
  176         h1      6    bbb     H1    176 0.04411300   1.008000   ; qtot -0.451379
  177         h1      6    bbb     H2    177 0.04411300   1.008000   ; qtot -0.407266
  178         c3      6    bbb     C2    178 0.10137000  12.010000   ; qtot -0.305896
  179         h1      6    bbb     H3    179 0.04411300   1.008000   ; qtot -0.261783
  180         h1      6    bbb     H4    180 0.04411300   1.008000   ; qtot -0.217670
  181         c3      6    bbb     C3    181 -0.00195300  12.010000   ; qtot -0.219623
  182         h1      6    bbb     H5    182 0.05064400   1.008000   ; qtot -0.168979
  183         h1      6    bbb     H6    183 0.05064400   1.008000   ; qtot -0.118335
  184         c3      6    bbb     C4    184 -0.01612100  12.010000   ; qtot -0.134456
  185         hc      6    bbb     H7    185 0.04936100   1.008000   ; qtot -0.085095
  186         hc      6    bbb     H8    186 0.04936100   1.008000   ; qtot -0.035734
  187         c3      6    bbb     C5    187 0.11363000  12.010000   ; qtot 0.077896
  188         hc      6    bbb     H9    188 0.06265900   1.008000   ; qtot 0.140555
  189         hc      6    bbb    H10    189 0.06265900   1.008000   ; qtot 0.203214
  190         c3      6    bbb     C6    190 0.11363000  12.010000   ; qtot 0.316844
  191         hc      6    bbb    H11    191 0.06265900   1.008000   ; qtot 0.379503
  192         hc      6    bbb    H12    192 0.06265900   1.008000   ; qtot 0.442162
  193         c3      6    bbb     C7    193 0.05858200  12.010000   ; qtot 0.500744
  194         h1      6    bbb    H13    194 0.06123400   1.008000   ; qtot 0.561978
  195         h1      6    bbb    H14    195 0.06123400   1.008000   ; qtot 0.623212
  196         c3      6    bbb     C8    196 -0.72423400  12.010000   ; qtot -0.101022
  197         h1      6    bbb    H15    197 0.25637600   1.008000   ; qtot 0.155354
  198         h1      6    bbb    H16    198 0.25637600   1.008000   ; qtot 0.411730
  199         c3      6    bbb     C9    199 -0.72423400  12.010000   ; qtot -0.312504
  200         h1      6    bbb    H17    200 0.25637600   1.008000   ; qtot -0.056128
  201         h1      6    bbb    H18    201 0.25637600   1.008000   ; qtot 0.200248
  202         os      6    bbb     O1    202 -0.20025300  16.000000   ; qtot -0.000005
; residue    7 bbb rtp bbb q -0.0
  203         n3      7    bbb     N1    203 -0.59685800  14.010000   ; qtot -0.596863
  204         c3      7    bbb     C1    204 0.10137000  12.010000   ; qtot -0.495493
  205         h1      7    bbb     H1    205 0.04411300   1.008000   ; qtot -0.451380
  206         h1      7    bbb     H2    206 0.04411300   1.008000   ; qtot -0.407267
  207         c3      7    bbb     C2    207 0.10137000  12.010000   ; qtot -0.305897
  208         h1      7    bbb     H3    208 0.04411300   1.008000   ; qtot -0.261784
  209         h1      7    bbb     H4    209 0.04411300   1.008000   ; qtot -0.217671
  210         c3      7    bbb     C3    210 -0.00195300  12.010000   ; qtot -0.219624
  211         h1      7    bbb     H5    211 0.05064400   1.008000   ; qtot -0.168980
  212         h1      7    bbb     H6    212 0.05064400   1.008000   ; qtot -0.118336
  213         c3      7    bbb     C4    213 -0.01612100  12.010000   ; qtot -0.134457
  214         hc      7    bbb     H7    214 0.04936100   1.008000   ; qtot -0.085096
  215         hc      7    bbb     H8    215 0.04936100   1.008000   ; qtot -0.035735
  216         c3      7    bbb     C5    216 0.11363000  12.010000   ; qtot 0.077895
  217         hc      7    bbb     H9    217 0.06265900   1.008000   ; qtot 0.140554
  218         hc      7    bbb    H10    218 0.06265900   1.008000   ; qtot 0.203213
  219         c3      7    bbb     C6    219 0.11363000  12.010000   ; qtot 0.316843
  220         hc      7    bbb    H11    220 0.06265900   1.008000   ; qtot 0.379502
  221         hc      7    bbb    H12    221 0.06265900   1.008000   ; qtot 0.442161
  222         c3      7    bbb     C7    222 0.05858200  12.010000   ; qtot 0.500743
  223         h1      7    bbb    H13    223 0.06123400   1.008000   ; qtot 0.561977
  224         h1      7    bbb    H14    224 0.06123400   1.008000   ; qtot 0.623211
  225         c3      7    bbb     C8    225 -0.72423400  12.010000   ; qtot -0.101023
  226         h1      7    bbb    H15    226 0.25637600   1.008000   ; qtot 0.155353
  227         h1      7    bbb    H16    227 0.25637600   1.008000   ; qtot 0.411729
  228         c3      7    bbb     C9    228 -0.72423400  12.010000   ; qtot -0.312505
  229         h1      7    bbb    H17    229 0.25637600   1.008000   ; qtot -0.056129
  230         h1      7    bbb    H18    230 0.25637600   1.008000   ; qtot 0.200247
  231         os      7    bbb     O1    231 -0.20025300  16.000000   ; qtot -0.000006
; residue    8 bbb rtp bbb q -0.0
  232         n3      8    bbb     N1    232 -0.59685800  14.010000   ; qtot -0.596864
  233         c3      8    bbb     C1    233 0.10137000  12.010000   ; qtot -0.495494
  234         h1      8    bbb     H1    234 0.04411300   1.008000   ; qtot -0.451381
  235         h1      8    bbb     H2    235 0.04411300   1.008000   ; qtot -0.407268
  236         c3      8    bbb     C2    236 0.10137000  12.010000   ; qtot -0.305898
  237         h1      8    bbb     H3    237 0.04411300   1.008000   ; qtot -0.261785
  238         h1      8    bbb     H4    238 0.04411300   1.008000   ; qtot -0.217672
  239         c3      8    bbb     C3    239 -0.00195300  12.010000   ; qtot -0.219625
  240         h1      8    bbb     H5    240 0.05064400   1.008000   ; qtot -0.168981
  241         h1      8    bbb     H6    241 0.05064400   1.008000   ; qtot -0.118337
  242         c3      8    bbb     C4    242 -0.01612100  12.010000   ; qtot -0.134458
  243         hc      8    bbb     H7    243 0.04936100   1.008000   ; qtot -0.085097
  244         hc      8    bbb     H8    244 0.04936100   1.008000   ; qtot -0.035736
  245         c3      8    bbb     C5    245 0.11363000  12.010000   ; qtot 0.077894
  246         hc      8    bbb     H9    246 0.06265900   1.008000   ; qtot 0.140553
  247         hc      8    bbb    H10    247 0.06265900   1.008000   ; qtot 0.203212
  248         c3      8    bbb     C6    248 0.11363000  12.010000   ; qtot 0.316842
  249         hc      8    bbb    H11    249 0.06265900   1.008000   ; qtot 0.379501
  250         hc      8    bbb    H12    250 0.06265900   1.008000   ; qtot 0.442160
  251         c3      8    bbb     C7    251 0.05858200  12.010000   ; qtot 0.500742
  252         h1      8    bbb    H13    252 0.06123400   1.008000   ; qtot 0.561976
  253         h1      8    bbb    H14    253 0.06123400   1.008000   ; qtot 0.623210
  254         c3      8    bbb     C8    254 -0.72423400  12.010000   ; qtot -0.101024
  255         h1      8    bbb    H15    255 0.25637600   1.008000   ; qtot 0.155352
  256         h1      8    bbb    H16    256 0.25637600   1.008000   ; qtot 0.411728
  257         c3      8    bbb     C9    257 -0.72423400  12.010000   ; qtot -0.312506
  258         h1      8    bbb    H17    258 0.25637600   1.008000   ; qtot -0.056130
  259         h1      8    bbb    H18    259 0.25637600   1.008000   ; qtot 0.200246
  260         os      8    bbb     O1    260 -0.20025300  16.000000   ; qtot -0.000007
; residue    9 bbb rtp bbb q -0.0
  261         n3      9    bbb     N1    261 -0.59685800  14.010000   ; qtot -0.596865
  262         c3      9    bbb     C1    262 0.10137000  12.010000   ; qtot -0.495495
  263         h1      9    bbb     H1    263 0.04411300   1.008000   ; qtot -0.451382
  264         h1      9    bbb     H2    264 0.04411300   1.008000   ; qtot -0.407269
  265         c3      9    bbb     C2    265 0.10137000  12.010000   ; qtot -0.305899
  266         h1      9    bbb     H3    266 0.04411300   1.008000   ; qtot -0.261786
  267         h1      9    bbb     H4    267 0.04411300   1.008000   ; qtot -0.217673
  268         c3      9    bbb     C3    268 -0.00195300  12.010000   ; qtot -0.219626
  269         h1      9    bbb     H5    269 0.05064400   1.008000   ; qtot -0.168982
  270         h1      9    bbb     H6    270 0.05064400   1.008000   ; qtot -0.118338
  271         c3      9    bbb     C4    271 -0.01612100  12.010000   ; qtot -0.134459
  272         hc      9    bbb     H7    272 0.04936100   1.008000   ; qtot -0.085098
  273         hc      9    bbb     H8    273 0.04936100   1.008000   ; qtot -0.035737
  274         c3      9    bbb     C5    274 0.11363000  12.010000   ; qtot 0.077893
  275         hc      9    bbb     H9    275 0.06265900   1.008000   ; qtot 0.140552
  276         hc      9    bbb    H10    276 0.06265900   1.008000   ; qtot 0.203211
  277         c3      9    bbb     C6    277 0.11363000  12.010000   ; qtot 0.316841
  278         hc      9    bbb    H11    278 0.06265900   1.008000   ; qtot 0.379500
  279         hc      9    bbb    H12    279 0.06265900   1.008000   ; qtot 0.442159
  280         c3      9    bbb     C7    280 0.05858200  12.010000   ; qtot 0.500741
  281         h1      9    bbb    H13    281 0.06123400   1.008000   ; qtot 0.561975
  282         h1      9    bbb    H14    282 0.06123400   1.008000   ; qtot 0.623209
  283         c3      9    bbb     C8    283 -0.72423400  12.010000   ; qtot -0.101025
  284         h1      9    bbb    H15    284 0.25637600   1.008000   ; qtot 0.155351
  285         h1      9    bbb    H16    285 0.25637600   1.008000   ; qtot 0.411727
  286         c3      9    bbb     C9    286 -0.72423400  12.010000   ; qtot -0.312507
  287         h1      9    bbb    H17    287 0.25637600   1.008000   ; qtot -0.056131
  288         h1      9    bbb    H18    288 0.25637600   1.008000   ; qtot 0.200245
  289         os      9    bbb     O1    289 -0.20025300  16.000000   ; qtot -0.000008
; residue   10 bbb rtp bbb q -0.0
  290         n3     10    bbb     N1    290 -0.59685800  14.010000   ; qtot -0.596866
  291         c3     10    bbb     C1    291 0.10137000  12.010000   ; qtot -0.495496
  292         h1     10    bbb     H1    292 0.04411300   1.008000   ; qtot -0.451383
  293         h1     10    bbb     H2    293 0.04411300   1.008000   ; qtot -0.407270
  294         c3     10    bbb     C2    294 0.10137000  12.010000   ; qtot -0.305900
  295         h1     10    bbb     H3    295 0.04411300   1.008000   ; qtot -0.261787
  296         h1     10    bbb     H4    296 0.04411300   1.008000   ; qtot -0.217674
  297         c3     10    bbb     C3    297 -0.00195300  12.010000   ; qtot -0.219627
  298         h1     10    bbb     H5    298 0.05064400   1.008000   ; qtot -0.168983
  299         h1     10    bbb     H6    299 0.05064400   1.008000   ; qtot -0.118339
  300         c3     10    bbb     C4    300 -0.01612100  12.010000   ; qtot -0.134460
  301         hc     10    bbb     H7    301 0.04936100   1.008000   ; qtot -0.085099
  302         hc     10    bbb     H8    302 0.04936100   1.008000   ; qtot -0.035738
  303         c3     10    bbb     C5    303 0.11363000  12.010000   ; qtot 0.077892
  304         hc     10    bbb     H9    304 0.06265900   1.008000   ; qtot 0.140551
  305         hc     10    bbb    H10    305 0.06265900   1.008000   ; qtot 0.203210
  306         c3     10    bbb     C6    306 0.11363000  12.010000   ; qtot 0.316840
  307         hc     10    bbb    H11    307 0.06265900   1.008000   ; qtot 0.379499
  308         hc     10    bbb    H12    308 0.06265900   1.008000   ; qtot 0.442158
  309         c3     10    bbb     C7    309 0.05858200  12.010000   ; qtot 0.500740
  310         h1     10    bbb    H13    310 0.06123400   1.008000   ; qtot 0.561974
  311         h1     10    bbb    H14    311 0.06123400   1.008000   ; qtot 0.623208
  312         c3     10    bbb     C8    312 -0.72423400  12.010000   ; qtot -0.101026
  313         h1     10    bbb    H15    313 0.25637600   1.008000   ; qtot 0.155350
  314         h1     10    bbb    H16    314 0.25637600   1.008000   ; qtot 0.411726
  315         c3     10    bbb     C9    315 -0.72423400  12.010000   ; qtot -0.312508
  316         h1     10    bbb    H17    316 0.25637600   1.008000   ; qtot -0.056132
  317         h1     10    bbb    H18    317 0.25637600   1.008000   ; qtot 0.200244
  318         os     10    bbb     O1    318 -0.20025300  16.000000   ; qtot -0.000009
; residue   11 bbb rtp bbb q -0.0
  319         n3     11    bbb     N1    319 -0.59685800  14.010000   ; qtot -0.596867
  320         c3     11    bbb     C1    320 0.10137000  12.010000   ; qtot -0.495497
  321         h1     11    bbb     H1    321 0.04411300   1.008000   ; qtot -0.451384
  322         h1     11    bbb     H2    322 0.04411300   1.008000   ; qtot -0.407271
  323         c3     11    bbb     C2    323 0.10137000  12.010000   ; qtot -0.305901
  324         h1     11    bbb     H3    324 0.04411300   1.008000   ; qtot -0.261788
  325         h1     11    bbb     H4    325 0.04411300   1.008000   ; qtot -0.217675
  326         c3     11    bbb     C3    326 -0.00195300  12.010000   ; qtot -0.219628
  327         h1     11    bbb     H5    327 0.05064400   1.008000   ; qtot -0.168984
  328         h1     11    bbb     H6    328 0.05064400   1.008000   ; qtot -0.118340
  329         c3     11    bbb     C4    329 -0.01612100  12.010000   ; qtot -0.134461
  330         hc     11    bbb     H7    330 0.04936100   1.008000   ; qtot -0.085100
  331         hc     11    bbb     H8    331 0.04936100   1.008000   ; qtot -0.035739
  332         c3     11    bbb     C5    332 0.11363000  12.010000   ; qtot 0.077891
  333         hc     11    bbb     H9    333 0.06265900   1.008000   ; qtot 0.140550
  334         hc     11    bbb    H10    334 0.06265900   1.008000   ; qtot 0.203209
  335         c3     11    bbb     C6    335 0.11363000  12.010000   ; qtot 0.316839
  336         hc     11    bbb    H11    336 0.06265900   1.008000   ; qtot 0.379498
  337         hc     11    bbb    H12    337 0.06265900   1.008000   ; qtot 0.442157
  338         c3     11    bbb     C7    338 0.05858200  12.010000   ; qtot 0.500739
  339         h1     11    bbb    H13    339 0.06123400   1.008000   ; qtot 0.561973
  340         h1     11    bbb    H14    340 0.06123400   1.008000   ; qtot 0.623207
  341         c3     11    bbb     C8    341 -0.72423400  12.010000   ; qtot -0.101027
  342         h1     11    bbb    H15    342 0.25637600   1.008000   ; qtot 0.155349
  343         h1     11    bbb    H16    343 0.25637600   1.008000   ; qtot 0.411725
  344         c3     11    bbb     C9    344 -0.72423400  12.010000   ; qtot -0.312509
  345         h1     11    bbb    H17    345 0.25637600   1.008000   ; qtot -0.056133
  346         h1     11    bbb    H18    346 0.25637600   1.008000   ; qtot 0.200243
  347         os     11    bbb     O1    347 -0.20025300  16.000000   ; qtot -0.000010
; residue   12 bbb rtp bbb q -0.0
  348         n3     12    bbb     N1    348 -0.59685800  14.010000   ; qtot -0.596868
  349         c3     12    bbb     C1    349 0.10137000  12.010000   ; qtot -0.495498
  350         h1     12    bbb     H1    350 0.04411300   1.008000   ; qtot -0.451385
  351         h1     12    bbb     H2    351 0.04411300   1.008000   ; qtot -0.407272
  352         c3     12    bbb     C2    352 0.10137000  12.010000   ; qtot -0.305902
  353         h1     12    bbb     H3    353 0.04411300   1.008000   ; qtot -0.261789
  354         h1     12    bbb     H4    354 0.04411300   1.008000   ; qtot -0.217676
  355         c3     12    bbb     C3    355 -0.00195300  12.010000   ; qtot -0.219629
  356         h1     12    bbb     H5    356 0.05064400   1.008000   ; qtot -0.168985
  357         h1     12    bbb     H6    357 0.05064400   1.008000   ; qtot -0.118341
  358         c3     12    bbb     C4    358 -0.01612100  12.010000   ; qtot -0.134462
  359         hc     12    bbb     H7    359 0.04936100   1.008000   ; qtot -0.085101
  360         hc     12    bbb     H8    360 0.04936100   1.008000   ; qtot -0.035740
  361         c3     12    bbb     C5    361 0.11363000  12.010000   ; qtot 0.077890
  362         hc     12    bbb     H9    362 0.06265900   1.008000   ; qtot 0.140549
  363         hc     12    bbb    H10    363 0.06265900   1.008000   ; qtot 0.203208
  364         c3     12    bbb     C6    364 0.11363000  12.010000   ; qtot 0.316838
  365         hc     12    bbb    H11    365 0.06265900   1.008000   ; qtot 0.379497
  366         hc     12    bbb    H12    366 0.06265900   1.008000   ; qtot 0.442156
  367         c3     12    bbb     C7    367 0.05858200  12.010000   ; qtot 0.500738
  368         h1     12    bbb    H13    368 0.06123400   1.008000   ; qtot 0.561972
  369         h1     12    bbb    H14    369 0.06123400   1.008000   ; qtot 0.623206
  370         c3     12    bbb     C8    370 -0.72423400  12.010000   ; qtot -0.101028
  371         h1     12    bbb    H15    371 0.25637600   1.008000   ; qtot 0.155348
  372         h1     12    bbb    H16    372 0.25637600   1.008000   ; qtot 0.411724
  373         c3     12    bbb     C9    373 -0.72423400  12.010000   ; qtot -0.312510
  374         h1     12    bbb    H17    374 0.25637600   1.008000   ; qtot -0.056134
  375         h1     12    bbb    H18    375 0.25637600   1.008000   ; qtot 0.200242
  376         os     12    bbb     O1    376 -0.20025300  16.000000   ; qtot -0.000011
; residue   13 bbb rtp bbb q -0.0
  377         n3     13    bbb     N1    377 -0.59685800  14.010000   ; qtot -0.596869
  378         c3     13    bbb     C1    378 0.10137000  12.010000   ; qtot -0.495499
  379         h1     13    bbb     H1    379 0.04411300   1.008000   ; qtot -0.451386
  380         h1     13    bbb     H2    380 0.04411300   1.008000   ; qtot -0.407273
  381         c3     13    bbb     C2    381 0.10137000  12.010000   ; qtot -0.305903
  382         h1     13    bbb     H3    382 0.04411300   1.008000   ; qtot -0.261790
  383         h1     13    bbb     H4    383 0.04411300   1.008000   ; qtot -0.217677
  384         c3     13    bbb     C3    384 -0.00195300  12.010000   ; qtot -0.219630
  385         h1     13    bbb     H5    385 0.05064400   1.008000   ; qtot -0.168986
  386         h1     13    bbb     H6    386 0.05064400   1.008000   ; qtot -0.118342
  387         c3     13    bbb     C4    387 -0.01612100  12.010000   ; qtot -0.134463
  388         hc     13    bbb     H7    388 0.04936100   1.008000   ; qtot -0.085102
  389         hc     13    bbb     H8    389 0.04936100   1.008000   ; qtot -0.035741
  390         c3     13    bbb     C5    390 0.11363000  12.010000   ; qtot 0.077889
  391         hc     13    bbb     H9    391 0.06265900   1.008000   ; qtot 0.140548
  392         hc     13    bbb    H10    392 0.06265900   1.008000   ; qtot 0.203207
  393         c3     13    bbb     C6    393 0.11363000  12.010000   ; qtot 0.316837
  394         hc     13    bbb    H11    394 0.06265900   1.008000   ; qtot 0.379496
  395         hc     13    bbb    H12    395 0.06265900   1.008000   ; qtot 0.442155
  396         c3     13    bbb     C7    396 0.05858200  12.010000   ; qtot 0.500737
  397         h1     13    bbb    H13    397 0.06123400   1.008000   ; qtot 0.561971
  398         h1     13    bbb    H14    398 0.06123400   1.008000   ; qtot 0.623205
  399         c3     13    bbb     C8    399 -0.72423400  12.010000   ; qtot -0.101029
  400         h1     13    bbb    H15    400 0.25637600   1.008000   ; qtot 0.155347
  401         h1     13    bbb    H16    401 0.25637600   1.008000   ; qtot 0.411723
  402         c3     13    bbb     C9    402 -0.72423400  12.010000   ; qtot -0.312511
  403         h1     13    bbb    H17    403 0.25637600   1.008000   ; qtot -0.056135
  404         h1     13    bbb    H18    404 0.25637600   1.008000   ; qtot 0.200241
  405         os     13    bbb     O1    405 -0.20025300  16.000000   ; qtot -0.000012
; residue   14 bbb rtp bbb q -0.0
  406         n3     14    bbb     N1    406 -0.59685800  14.010000   ; qtot -0.596870
  407         c3     14    bbb     C1    407 0.10137000  12.010000   ; qtot -0.495500
  408         h1     14    bbb     H1    408 0.04411300   1.008000   ; qtot -0.451387
  409         h1     14    bbb     H2    409 0.04411300   1.008000   ; qtot -0.407274
  410         c3     14    bbb     C2    410 0.10137000  12.010000   ; qtot -0.305904
  411         h1     14    bbb     H3    411 0.04411300   1.008000   ; qtot -0.261791
  412         h1     14    bbb     H4    412 0.04411300   1.008000   ; qtot -0.217678
  413         c3     14    bbb     C3    413 -0.00195300  12.010000   ; qtot -0.219631
  414         h1     14    bbb     H5    414 0.05064400   1.008000   ; qtot -0.168987
  415         h1     14    bbb     H6    415 0.05064400   1.008000   ; qtot -0.118343
  416         c3     14    bbb     C4    416 -0.01612100  12.010000   ; qtot -0.134464
  417         hc     14    bbb     H7    417 0.04936100   1.008000   ; qtot -0.085103
  418         hc     14    bbb     H8    418 0.04936100   1.008000   ; qtot -0.035742
  419         c3     14    bbb     C5    419 0.11363000  12.010000   ; qtot 0.077888
  420         hc     14    bbb     H9    420 0.06265900   1.008000   ; qtot 0.140547
  421         hc     14    bbb    H10    421 0.06265900   1.008000   ; qtot 0.203206
  422         c3     14    bbb     C6    422 0.11363000  12.010000   ; qtot 0.316836
  423         hc     14    bbb    H11    423 0.06265900   1.008000   ; qtot 0.379495
  424         hc     14    bbb    H12    424 0.06265900   1.008000   ; qtot 0.442154
  425         c3     14    bbb     C7    425 0.05858200  12.010000   ; qtot 0.500736
  426         h1     14    bbb    H13    426 0.06123400   1.008000   ; qtot 0.561970
  427         h1     14    bbb    H14    427 0.06123400   1.008000   ; qtot 0.623204
  428         c3     14    bbb     C8    428 -0.72423400  12.010000   ; qtot -0.101030
  429         h1     14    bbb    H15    429 0.25637600   1.008000   ; qtot 0.155346
  430         h1     14    bbb    H16    430 0.25637600   1.008000   ; qtot 0.411722
  431         c3     14    bbb     C9    431 -0.72423400  12.010000   ; qtot -0.312512
  432         h1     14    bbb    H17    432 0.25637600   1.008000   ; qtot -0.056136
  433         h1     14    bbb    H18    433 0.25637600   1.008000   ; qtot 0.200240
  434         os     14    bbb     O1    434 -0.20025300  16.000000   ; qtot -0.000013
; residue   15 bbb rtp bbb q -0.0
  435         n3     15    bbb     N1    435 -0.59685800  14.010000   ; qtot -0.596871
  436         c3     15    bbb     C1    436 0.10137000  12.010000   ; qtot -0.495501
  437         h1     15    bbb     H1    437 0.04411300   1.008000   ; qtot -0.451388
  438         h1     15    bbb     H2    438 0.04411300   1.008000   ; qtot -0.407275
  439         c3     15    bbb     C2    439 0.10137000  12.010000   ; qtot -0.305905
  440         h1     15    bbb     H3    440 0.04411300   1.008000   ; qtot -0.261792
  441         h1     15    bbb     H4    441 0.04411300   1.008000   ; qtot -0.217679
  442         c3     15    bbb     C3    442 -0.00195300  12.010000   ; qtot -0.219632
  443         h1     15    bbb     H5    443 0.05064400   1.008000   ; qtot -0.168988
  444         h1     15    bbb     H6    444 0.05064400   1.008000   ; qtot -0.118344
  445         c3     15    bbb     C4    445 -0.01612100  12.010000   ; qtot -0.134465
  446         hc     15    bbb     H7    446 0.04936100   1.008000   ; qtot -0.085104
  447         hc     15    bbb     H8    447 0.04936100   1.008000   ; qtot -0.035743
  448         c3     15    bbb     C5    448 0.11363000  12.010000   ; qtot 0.077887
  449         hc     15    bbb     H9    449 0.06265900   1.008000   ; qtot 0.140546
  450         hc     15    bbb    H10    450 0.06265900   1.008000   ; qtot 0.203205
  451         c3     15    bbb     C6    451 0.11363000  12.010000   ; qtot 0.316835
  452         hc     15    bbb    H11    452 0.06265900   1.008000   ; qtot 0.379494
  453         hc     15    bbb    H12    453 0.06265900   1.008000   ; qtot 0.442153
  454         c3     15    bbb     C7    454 0.05858200  12.010000   ; qtot 0.500735
  455         h1     15    bbb    H13    455 0.06123400   1.008000   ; qtot 0.561969
  456         h1     15    bbb    H14    456 0.06123400   1.008000   ; qtot 0.623203
  457         c3     15    bbb     C8    457 -0.72423400  12.010000   ; qtot -0.101031
  458         h1     15    bbb    H15    458 0.25637600   1.008000   ; qtot 0.155345
  459         h1     15    bbb    H16    459 0.25637600   1.008000   ; qtot 0.411721
  460         c3     15    bbb     C9    460 -0.72423400  12.010000   ; qtot -0.312513
  461         h1     15    bbb    H17    461 0.25637600   1.008000   ; qtot -0.056137
  462         h1     15    bbb    H18    462 0.25637600   1.008000   ; qtot 0.200239
  463         os     15    bbb     O1    463 -0.20025300  16.000000   ; qtot -0.000014
; residue   16 bbb rtp bbb q -0.0
  464         n3     16    bbb     N1    464 -0.59685800  14.010000   ; qtot -0.596872
  465         c3     16    bbb     C1    465 0.10137000  12.010000   ; qtot -0.495502
  466         h1     16    bbb     H1    466 0.04411300   1.008000   ; qtot -0.451389
  467         h1     16    bbb     H2    467 0.04411300   1.008000   ; qtot -0.407276
  468         c3     16    bbb     C2    468 0.10137000  12.010000   ; qtot -0.305906
  469         h1     16    bbb     H3    469 0.04411300   1.008000   ; qtot -0.261793
  470         h1     16    bbb     H4    470 0.04411300   1.008000   ; qtot -0.217680
  471         c3     16    bbb     C3    471 -0.00195300  12.010000   ; qtot -0.219633
  472         h1     16    bbb     H5    472 0.05064400   1.008000   ; qtot -0.168989
  473         h1     16    bbb     H6    473 0.05064400   1.008000   ; qtot -0.118345
  474         c3     16    bbb     C4    474 -0.01612100  12.010000   ; qtot -0.134466
  475         hc     16    bbb     H7    475 0.04936100   1.008000   ; qtot -0.085105
  476         hc     16    bbb     H8    476 0.04936100   1.008000   ; qtot -0.035744
  477         c3     16    bbb     C5    477 0.11363000  12.010000   ; qtot 0.077886
  478         hc     16    bbb     H9    478 0.06265900   1.008000   ; qtot 0.140545
  479         hc     16    bbb    H10    479 0.06265900   1.008000   ; qtot 0.203204
  480         c3     16    bbb     C6    480 0.11363000  12.010000   ; qtot 0.316834
  481         hc     16    bbb    H11    481 0.06265900   1.008000   ; qtot 0.379493
  482         hc     16    bbb    H12    482 0.06265900   1.008000   ; qtot 0.442152
  483         c3     16    bbb     C7    483 0.05858200  12.010000   ; qtot 0.500734
  484         h1     16    bbb    H13    484 0.06123400   1.008000   ; qtot 0.561968
  485         h1     16    bbb    H14    485 0.06123400   1.008000   ; qtot 0.623202
  486         c3     16    bbb     C8    486 -0.72423400  12.010000   ; qtot -0.101032
  487         h1     16    bbb    H15    487 0.25637600   1.008000   ; qtot 0.155344
  488         h1     16    bbb    H16    488 0.25637600   1.008000   ; qtot 0.411720
  489         c3     16    bbb     C9    489 -0.72423400  12.010000   ; qtot -0.312514
  490         h1     16    bbb    H17    490 0.25637600   1.008000   ; qtot -0.056138
  491         h1     16    bbb    H18    491 0.25637600   1.008000   ; qtot 0.200238
  492         os     16    bbb     O1    492 -0.20025300  16.000000   ; qtot -0.000015
; residue   17 bbb rtp bbb q -0.0
  493         n3     17    bbb     N1    493 -0.59685800  14.010000   ; qtot -0.596873
  494         c3     17    bbb     C1    494 0.10137000  12.010000   ; qtot -0.495503
  495         h1     17    bbb     H1    495 0.04411300   1.008000   ; qtot -0.451390
  496         h1     17    bbb     H2    496 0.04411300   1.008000   ; qtot -0.407277
  497         c3     17    bbb     C2    497 0.10137000  12.010000   ; qtot -0.305907
  498         h1     17    bbb     H3    498 0.04411300   1.008000   ; qtot -0.261794
  499         h1     17    bbb     H4    499 0.04411300   1.008000   ; qtot -0.217681
  500         c3     17    bbb     C3    500 -0.00195300  12.010000   ; qtot -0.219634
  501         h1     17    bbb     H5    501 0.05064400   1.008000   ; qtot -0.168990
  502         h1     17    bbb     H6    502 0.05064400   1.008000   ; qtot -0.118346
  503         c3     17    bbb     C4    503 -0.01612100  12.010000   ; qtot -0.134467
  504         hc     17    bbb     H7    504 0.04936100   1.008000   ; qtot -0.085106
  505         hc     17    bbb     H8    505 0.04936100   1.008000   ; qtot -0.035745
  506         c3     17    bbb     C5    506 0.11363000  12.010000   ; qtot 0.077885
  507         hc     17    bbb     H9    507 0.06265900   1.008000   ; qtot 0.140544
  508         hc     17    bbb    H10    508 0.06265900   1.008000   ; qtot 0.203203
  509         c3     17    bbb     C6    509 0.11363000  12.010000   ; qtot 0.316833
  510         hc     17    bbb    H11    510 0.06265900   1.008000   ; qtot 0.379492
  511         hc     17    bbb    H12    511 0.06265900   1.008000   ; qtot 0.442151
  512         c3     17    bbb     C7    512 0.05858200  12.010000   ; qtot 0.500733
  513         h1     17    bbb    H13    513 0.06123400   1.008000   ; qtot 0.561967
  514         h1     17    bbb    H14    514 0.06123400   1.008000   ; qtot 0.623201
  515         c3     17    bbb     C8    515 -0.72423400  12.010000   ; qtot -0.101033
  516         h1     17    bbb    H15    516 0.25637600   1.008000   ; qtot 0.155343
  517         h1     17    bbb    H16    517 0.25637600   1.008000   ; qtot 0.411719
  518         c3     17    bbb     C9    518 -0.72423400  12.010000   ; qtot -0.312515
  519         h1     17    bbb    H17    519 0.25637600   1.008000   ; qtot -0.056139
  520         h1     17    bbb    H18    520 0.25637600   1.008000   ; qtot 0.200237
  521         os     17    bbb     O1    521 -0.20025300  16.000000   ; qtot -0.000016
; residue   18 bbb rtp bbb q -0.0
  522         n3     18    bbb     N1    522 -0.59685800  14.010000   ; qtot -0.596874
  523         c3     18    bbb     C1    523 0.10137000  12.010000   ; qtot -0.495504
  524         h1     18    bbb     H1    524 0.04411300   1.008000   ; qtot -0.451391
  525         h1     18    bbb     H2    525 0.04411300   1.008000   ; qtot -0.407278
  526         c3     18    bbb     C2    526 0.10137000  12.010000   ; qtot -0.305908
  527         h1     18    bbb     H3    527 0.04411300   1.008000   ; qtot -0.261795
  528         h1     18    bbb     H4    528 0.04411300   1.008000   ; qtot -0.217682
  529         c3     18    bbb     C3    529 -0.00195300  12.010000   ; qtot -0.219635
  530         h1     18    bbb     H5    530 0.05064400   1.008000   ; qtot -0.168991
  531         h1     18    bbb     H6    531 0.05064400   1.008000   ; qtot -0.118347
  532         c3     18    bbb     C4    532 -0.01612100  12.010000   ; qtot -0.134468
  533         hc     18    bbb     H7    533 0.04936100   1.008000   ; qtot -0.085107
  534         hc     18    bbb     H8    534 0.04936100   1.008000   ; qtot -0.035746
  535         c3     18    bbb     C5    535 0.11363000  12.010000   ; qtot 0.077884
  536         hc     18    bbb     H9    536 0.06265900   1.008000   ; qtot 0.140543
  537         hc     18    bbb    H10    537 0.06265900   1.008000   ; qtot 0.203202
  538         c3     18    bbb     C6    538 0.11363000  12.010000   ; qtot 0.316832
  539         hc     18    bbb    H11    539 0.06265900   1.008000   ; qtot 0.379491
  540         hc     18    bbb    H12    540 0.06265900   1.008000   ; qtot 0.442150
  541         c3     18    bbb     C7    541 0.05858200  12.010000   ; qtot 0.500732
  542         h1     18    bbb    H13    542 0.06123400   1.008000   ; qtot 0.561966
  543         h1     18    bbb    H14    543 0.06123400   1.008000   ; qtot 0.623200
  544         c3     18    bbb     C8    544 -0.72423400  12.010000   ; qtot -0.101034
  545         h1     18    bbb    H15    545 0.25637600   1.008000   ; qtot 0.155342
  546         h1     18    bbb    H16    546 0.25637600   1.008000   ; qtot 0.411718
  547         c3     18    bbb     C9    547 -0.72423400  12.010000   ; qtot -0.312516
  548         h1     18    bbb    H17    548 0.25637600   1.008000   ; qtot -0.056140
  549         h1     18    bbb    H18    549 0.25637600   1.008000   ; qtot 0.200236
  550         os     18    bbb     O1    550 -0.20025300  16.000000   ; qtot -0.000017
; residue   19 bbb rtp bbb q -0.0
  551         n3     19    bbb     N1    551 -0.59685800  14.010000   ; qtot -0.596875
  552         c3     19    bbb     C1    552 0.10137000  12.010000   ; qtot -0.495505
  553         h1     19    bbb     H1    553 0.04411300   1.008000   ; qtot -0.451392
  554         h1     19    bbb     H2    554 0.04411300   1.008000   ; qtot -0.407279
  555         c3     19    bbb     C2    555 0.10137000  12.010000   ; qtot -0.305909
  556         h1     19    bbb     H3    556 0.04411300   1.008000   ; qtot -0.261796
  557         h1     19    bbb     H4    557 0.04411300   1.008000   ; qtot -0.217683
  558         c3     19    bbb     C3    558 -0.00195300  12.010000   ; qtot -0.219636
  559         h1     19    bbb     H5    559 0.05064400   1.008000   ; qtot -0.168992
  560         h1     19    bbb     H6    560 0.05064400   1.008000   ; qtot -0.118348
  561         c3     19    bbb     C4    561 -0.01612100  12.010000   ; qtot -0.134469
  562         hc     19    bbb     H7    562 0.04936100   1.008000   ; qtot -0.085108
  563         hc     19    bbb     H8    563 0.04936100   1.008000   ; qtot -0.035747
  564         c3     19    bbb     C5    564 0.11363000  12.010000   ; qtot 0.077883
  565         hc     19    bbb     H9    565 0.06265900   1.008000   ; qtot 0.140542
  566         hc     19    bbb    H10    566 0.06265900   1.008000   ; qtot 0.203201
  567         c3     19    bbb     C6    567 0.11363000  12.010000   ; qtot 0.316831
  568         hc     19    bbb    H11    568 0.06265900   1.008000   ; qtot 0.379490
  569         hc     19    bbb    H12    569 0.06265900   1.008000   ; qtot 0.442149
  570         c3     19    bbb     C7    570 0.05858200  12.010000   ; qtot 0.500731
  571         h1     19    bbb    H13    571 0.06123400   1.008000   ; qtot 0.561965
  572         h1     19    bbb    H14    572 0.06123400   1.008000   ; qtot 0.623199
  573         c3     19    bbb     C8    573 -0.72423400  12.010000   ; qtot -0.101035
  574         h1     19    bbb    H15    574 0.25637600   1.008000   ; qtot 0.155341
  575         h1     19    bbb    H16    575 0.25637600   1.008000   ; qtot 0.411717
  576         c3     19    bbb     C9    576 -0.72423400  12.010000   ; qtot -0.312517
  577         h1     19    bbb    H17    577 0.25637600   1.008000   ; qtot -0.056141
  578         h1     19    bbb    H18    578 0.25637600   1.008000   ; qtot 0.200235
  579         os     19    bbb     O1    579 -0.20025300  16.000000   ; qtot -0.000018
; residue   20 bbb rtp bbb q -0.0
  580         n3     20    bbb     N1    580 -0.59685800  14.010000   ; qtot -0.596876
  581         c3     20    bbb     C1    581 0.10137000  12.010000   ; qtot -0.495506
  582         h1     20    bbb     H1    582 0.04411300   1.008000   ; qtot -0.451393
  583         h1     20    bbb     H2    583 0.04411300   1.008000   ; qtot -0.407280
  584         c3     20    bbb     C2    584 0.10137000  12.010000   ; qtot -0.305910
  585         h1     20    bbb     H3    585 0.04411300   1.008000   ; qtot -0.261797
  586         h1     20    bbb     H4    586 0.04411300   1.008000   ; qtot -0.217684
  587         c3     20    bbb     C3    587 -0.00195300  12.010000   ; qtot -0.219637
  588         h1     20    bbb     H5    588 0.05064400   1.008000   ; qtot -0.168993
  589         h1     20    bbb     H6    589 0.05064400   1.008000   ; qtot -0.118349
  590         c3     20    bbb     C4    590 -0.01612100  12.010000   ; qtot -0.134470
  591         hc     20    bbb     H7    591 0.04936100   1.008000   ; qtot -0.085109
  592         hc     20    bbb     H8    592 0.04936100   1.008000   ; qtot -0.035748
  593         c3     20    bbb     C5    593 0.11363000  12.010000   ; qtot 0.077882
  594         hc     20    bbb     H9    594 0.06265900   1.008000   ; qtot 0.140541
  595         hc     20    bbb    H10    595 0.06265900   1.008000   ; qtot 0.203200
  596         c3     20    bbb     C6    596 0.11363000  12.010000   ; qtot 0.316830
  597         hc     20    bbb    H11    597 0.06265900   1.008000   ; qtot 0.379489
  598         hc     20    bbb    H12    598 0.06265900   1.008000   ; qtot 0.442148
  599         c3     20    bbb     C7    599 0.05858200  12.010000   ; qtot 0.500730
  600         h1     20    bbb    H13    600 0.06123400   1.008000   ; qtot 0.561964
  601         h1     20    bbb    H14    601 0.06123400   1.008000   ; qtot 0.623198
  602         c3     20    bbb     C8    602 -0.72423400  12.010000   ; qtot -0.101036
  603         h1     20    bbb    H15    603 0.25637600   1.008000   ; qtot 0.155340
  604         h1     20    bbb    H16    604 0.25637600   1.008000   ; qtot 0.411716
  605         c3     20    bbb     C9    605 -0.72423400  12.010000   ; qtot -0.312518
  606         h1     20    bbb    H17    606 0.25637600   1.008000   ; qtot -0.056142
  607         h1     20    bbb    H18    607 0.25637600   1.008000   ; qtot 0.200234
  608         os     20    bbb     O1    608 -0.20025300  16.000000   ; qtot -0.000019
; residue   21 bbb rtp bbb q -0.0
  609         n3     21    bbb     N1    609 -0.59685800  14.010000   ; qtot -0.596877
  610         c3     21    bbb     C1    610 0.10137000  12.010000   ; qtot -0.495507
  611         h1     21    bbb     H1    611 0.04411300   1.008000   ; qtot -0.451394
  612         h1     21    bbb     H2    612 0.04411300   1.008000   ; qtot -0.407281
  613         c3     21    bbb     C2    613 0.10137000  12.010000   ; qtot -0.305911
  614         h1     21    bbb     H3    614 0.04411300   1.008000   ; qtot -0.261798
  615         h1     21    bbb     H4    615 0.04411300   1.008000   ; qtot -0.217685
  616         c3     21    bbb     C3    616 -0.00195300  12.010000   ; qtot -0.219638
  617         h1     21    bbb     H5    617 0.05064400   1.008000   ; qtot -0.168994
  618         h1     21    bbb     H6    618 0.05064400   1.008000   ; qtot -0.118350
  619         c3     21    bbb     C4    619 -0.01612100  12.010000   ; qtot -0.134471
  620         hc     21    bbb     H7    620 0.04936100   1.008000   ; qtot -0.085110
  621         hc     21    bbb     H8    621 0.04936100   1.008000   ; qtot -0.035749
  622         c3     21    bbb     C5    622 0.11363000  12.010000   ; qtot 0.077881
  623         hc     21    bbb     H9    623 0.06265900   1.008000   ; qtot 0.140540
  624         hc     21    bbb    H10    624 0.06265900   1.008000   ; qtot 0.203199
  625         c3     21    bbb     C6    625 0.11363000  12.010000   ; qtot 0.316829
  626         hc     21    bbb    H11    626 0.06265900   1.008000   ; qtot 0.379488
  627         hc     21    bbb    H12    627 0.06265900   1.008000   ; qtot 0.442147
  628         c3     21    bbb     C7    628 0.05858200  12.010000   ; qtot 0.500729
  629         h1     21    bbb    H13    629 0.06123400   1.008000   ; qtot 0.561963
  630         h1     21    bbb    H14    630 0.06123400   1.008000   ; qtot 0.623197
  631         c3     21    bbb     C8    631 -0.72423400  12.010000   ; qtot -0.101037
  632         h1     21    bbb    H15    632 0.25637600   1.008000   ; qtot 0.155339
  633         h1     21    bbb    H16    633 0.25637600   1.008000   ; qtot 0.411715
  634         c3     21    bbb     C9    634 -0.72423400  12.010000   ; qtot -0.312519
  635         h1     21    bbb    H17    635 0.25637600   1.008000   ; qtot -0.056143
  636         h1     21    bbb    H18    636 0.25637600   1.008000   ; qtot 0.200233
  637         os     21    bbb     O1    637 -0.20025300  16.000000   ; qtot -0.000020
; residue   22 bbb rtp bbb q -0.0
  638         n3     22    bbb     N1    638 -0.59685800  14.010000   ; qtot -0.596878
  639         c3     22    bbb     C1    639 0.10137000  12.010000   ; qtot -0.495508
  640         h1     22    bbb     H1    640 0.04411300   1.008000   ; qtot -0.451395
  641         h1     22    bbb     H2    641 0.04411300   1.008000   ; qtot -0.407282
  642         c3     22    bbb     C2    642 0.10137000  12.010000   ; qtot -0.305912
  643         h1     22    bbb     H3    643 0.04411300   1.008000   ; qtot -0.261799
  644         h1     22    bbb     H4    644 0.04411300   1.008000   ; qtot -0.217686
  645         c3     22    bbb     C3    645 -0.00195300  12.010000   ; qtot -0.219639
  646         h1     22    bbb     H5    646 0.05064400   1.008000   ; qtot -0.168995
  647         h1     22    bbb     H6    647 0.05064400   1.008000   ; qtot -0.118351
  648         c3     22    bbb     C4    648 -0.01612100  12.010000   ; qtot -0.134472
  649         hc     22    bbb     H7    649 0.04936100   1.008000   ; qtot -0.085111
  650         hc     22    bbb     H8    650 0.04936100   1.008000   ; qtot -0.035750
  651         c3     22    bbb     C5    651 0.11363000  12.010000   ; qtot 0.077880
  652         hc     22    bbb     H9    652 0.06265900   1.008000   ; qtot 0.140539
  653         hc     22    bbb    H10    653 0.06265900   1.008000   ; qtot 0.203198
  654         c3     22    bbb     C6    654 0.11363000  12.010000   ; qtot 0.316828
  655         hc     22    bbb    H11    655 0.06265900   1.008000   ; qtot 0.379487
  656         hc     22    bbb    H12    656 0.06265900   1.008000   ; qtot 0.442146
  657         c3     22    bbb     C7    657 0.05858200  12.010000   ; qtot 0.500728
  658         h1     22    bbb    H13    658 0.06123400   1.008000   ; qtot 0.561962
  659         h1     22    bbb    H14    659 0.06123400   1.008000   ; qtot 0.623196
  660         c3     22    bbb     C8    660 -0.72423400  12.010000   ; qtot -0.101038
  661         h1     22    bbb    H15    661 0.25637600   1.008000   ; qtot 0.155338
  662         h1     22    bbb    H16    662 0.25637600   1.008000   ; qtot 0.411714
  663         c3     22    bbb     C9    663 -0.72423400  12.010000   ; qtot -0.312520
  664         h1     22    bbb    H17    664 0.25637600   1.008000   ; qtot -0.056144
  665         h1     22    bbb    H18    665 0.25637600   1.008000   ; qtot 0.200232
  666         os     22    bbb     O1    666 -0.20025300  16.000000   ; qtot -0.000021
; residue   23 bbb rtp bbb q -0.0
  667         n3     23    bbb     N1    667 -0.59685800  14.010000   ; qtot -0.596879
  668         c3     23    bbb     C1    668 0.10137000  12.010000   ; qtot -0.495509
  669         h1     23    bbb     H1    669 0.04411300   1.008000   ; qtot -0.451396
  670         h1     23    bbb     H2    670 0.04411300   1.008000   ; qtot -0.407283
  671         c3     23    bbb     C2    671 0.10137000  12.010000   ; qtot -0.305913
  672         h1     23    bbb     H3    672 0.04411300   1.008000   ; qtot -0.261800
  673         h1     23    bbb     H4    673 0.04411300   1.008000   ; qtot -0.217687
  674         c3     23    bbb     C3    674 -0.00195300  12.010000   ; qtot -0.219640
  675         h1     23    bbb     H5    675 0.05064400   1.008000   ; qtot -0.168996
  676         h1     23    bbb     H6    676 0.05064400   1.008000   ; qtot -0.118352
  677         c3     23    bbb     C4    677 -0.01612100  12.010000   ; qtot -0.134473
  678         hc     23    bbb     H7    678 0.04936100   1.008000   ; qtot -0.085112
  679         hc     23    bbb     H8    679 0.04936100   1.008000   ; qtot -0.035751
  680         c3     23    bbb     C5    680 0.11363000  12.010000   ; qtot 0.077879
  681         hc     23    bbb     H9    681 0.06265900   1.008000   ; qtot 0.140538
  682         hc     23    bbb    H10    682 0.06265900   1.008000   ; qtot 0.203197
  683         c3     23    bbb     C6    683 0.11363000  12.010000   ; qtot 0.316827
  684         hc     23    bbb    H11    684 0.06265900   1.008000   ; qtot 0.379486
  685         hc     23    bbb    H12    685 0.06265900   1.008000   ; qtot 0.442145
  686         c3     23    bbb     C7    686 0.05858200  12.010000   ; qtot 0.500727
  687         h1     23    bbb    H13    687 0.06123400   1.008000   ; qtot 0.561961
  688         h1     23    bbb    H14    688 0.06123400   1.008000   ; qtot 0.623195
  689         c3     23    bbb     C8    689 -0.72423400  12.010000   ; qtot -0.101039
  690         h1     23    bbb    H15    690 0.25637600   1.008000   ; qtot 0.155337
  691         h1     23    bbb    H16    691 0.25637600   1.008000   ; qtot 0.411713
  692         c3     23    bbb     C9    692 -0.72423400  12.010000   ; qtot -0.312521
  693         h1     23    bbb    H17    693 0.25637600   1.008000   ; qtot -0.056145
  694         h1     23    bbb    H18    694 0.25637600   1.008000   ; qtot 0.200231
  695         os     23    bbb     O1    695 -0.20025300  16.000000   ; qtot -0.000022
; residue   24 bbb rtp bbb q -0.0
  696         n3     24    bbb     N1    696 -0.59685800  14.010000   ; qtot -0.596880
  697         c3     24    bbb     C1    697 0.10137000  12.010000   ; qtot -0.495510
  698         h1     24    bbb     H1    698 0.04411300   1.008000   ; qtot -0.451397
  699         h1     24    bbb     H2    699 0.04411300   1.008000   ; qtot -0.407284
  700         c3     24    bbb     C2    700 0.10137000  12.010000   ; qtot -0.305914
  701         h1     24    bbb     H3    701 0.04411300   1.008000   ; qtot -0.261801
  702         h1     24    bbb     H4    702 0.04411300   1.008000   ; qtot -0.217688
  703         c3     24    bbb     C3    703 -0.00195300  12.010000   ; qtot -0.219641
  704         h1     24    bbb     H5    704 0.05064400   1.008000   ; qtot -0.168997
  705         h1     24    bbb     H6    705 0.05064400   1.008000   ; qtot -0.118353
  706         c3     24    bbb     C4    706 -0.01612100  12.010000   ; qtot -0.134474
  707         hc     24    bbb     H7    707 0.04936100   1.008000   ; qtot -0.085113
  708         hc     24    bbb     H8    708 0.04936100   1.008000   ; qtot -0.035752
  709         c3     24    bbb     C5    709 0.11363000  12.010000   ; qtot 0.077878
  710         hc     24    bbb     H9    710 0.06265900   1.008000   ; qtot 0.140537
  711         hc     24    bbb    H10    711 0.06265900   1.008000   ; qtot 0.203196
  712         c3     24    bbb     C6    712 0.11363000  12.010000   ; qtot 0.316826
  713         hc     24    bbb    H11    713 0.06265900   1.008000   ; qtot 0.379485
  714         hc     24    bbb    H12    714 0.06265900   1.008000   ; qtot 0.442144
  715         c3     24    bbb     C7    715 0.05858200  12.010000   ; qtot 0.500726
  716         h1     24    bbb    H13    716 0.06123400   1.008000   ; qtot 0.561960
  717         h1     24    bbb    H14    717 0.06123400   1.008000   ; qtot 0.623194
  718         c3     24    bbb     C8    718 -0.72423400  12.010000   ; qtot -0.101040
  719         h1     24    bbb    H15    719 0.25637600   1.008000   ; qtot 0.155336
  720         h1     24    bbb    H16    720 0.25637600   1.008000   ; qtot 0.411712
  721         c3     24    bbb     C9    721 -0.72423400  12.010000   ; qtot -0.312522
  722         h1     24    bbb    H17    722 0.25637600   1.008000   ; qtot -0.056146
  723         h1     24    bbb    H18    723 0.25637600   1.008000   ; qtot 0.200230
  724         os     24    bbb     O1    724 -0.20025300  16.000000   ; qtot -0.000023
; residue   25 bbb rtp bbb q -0.0
  725         n3     25    bbb     N1    725 -0.59685800  14.010000   ; qtot -0.596881
  726         c3     25    bbb     C1    726 0.10137000  12.010000   ; qtot -0.495511
  727         h1     25    bbb     H1    727 0.04411300   1.008000   ; qtot -0.451398
  728         h1     25    bbb     H2    728 0.04411300   1.008000   ; qtot -0.407285
  729         c3     25    bbb     C2    729 0.10137000  12.010000   ; qtot -0.305915
  730         h1     25    bbb     H3    730 0.04411300   1.008000   ; qtot -0.261802
  731         h1     25    bbb     H4    731 0.04411300   1.008000   ; qtot -0.217689
  732         c3     25    bbb     C3    732 -0.00195300  12.010000   ; qtot -0.219642
  733         h1     25    bbb     H5    733 0.05064400   1.008000   ; qtot -0.168998
  734         h1     25    bbb     H6    734 0.05064400   1.008000   ; qtot -0.118354
  735         c3     25    bbb     C4    735 -0.01612100  12.010000   ; qtot -0.134475
  736         hc     25    bbb     H7    736 0.04936100   1.008000   ; qtot -0.085114
  737         hc     25    bbb     H8    737 0.04936100   1.008000   ; qtot -0.035753
  738         c3     25    bbb     C5    738 0.11363000  12.010000   ; qtot 0.077877
  739         hc     25    bbb     H9    739 0.06265900   1.008000   ; qtot 0.140536
  740         hc     25    bbb    H10    740 0.06265900   1.008000   ; qtot 0.203195
  741         c3     25    bbb     C6    741 0.11363000  12.010000   ; qtot 0.316825
  742         hc     25    bbb    H11    742 0.06265900   1.008000   ; qtot 0.379484
  743         hc     25    bbb    H12    743 0.06265900   1.008000   ; qtot 0.442143
  744         c3     25    bbb     C7    744 0.05858200  12.010000   ; qtot 0.500725
  745         h1     25    bbb    H13    745 0.06123400   1.008000   ; qtot 0.561959
  746         h1     25    bbb    H14    746 0.06123400   1.008000   ; qtot 0.623193
  747         c3     25    bbb     C8    747 -0.72423400  12.010000   ; qtot -0.101041
  748         h1     25    bbb    H15    748 0.25637600   1.008000   ; qtot 0.155335
  749         h1     25    bbb    H16    749 0.25637600   1.008000   ; qtot 0.411711
  750         c3     25    bbb     C9    750 -0.72423400  12.010000   ; qtot -0.312523
  751         h1     25    bbb    H17    751 0.25637600   1.008000   ; qtot -0.056147
  752         h1     25    bbb    H18    752 0.25637600   1.008000   ; qtot 0.200229
  753         os     25    bbb     O1    753 -0.20025300  16.000000   ; qtot -0.000024
; residue   26 bbb rtp bbb q -0.0
  754         n3     26    bbb     N1    754 -0.59685800  14.010000   ; qtot -0.596882
  755         c3     26    bbb     C1    755 0.10137000  12.010000   ; qtot -0.495512
  756         h1     26    bbb     H1    756 0.04411300   1.008000   ; qtot -0.451399
  757         h1     26    bbb     H2    757 0.04411300   1.008000   ; qtot -0.407286
  758         c3     26    bbb     C2    758 0.10137000  12.010000   ; qtot -0.305916
  759         h1     26    bbb     H3    759 0.04411300   1.008000   ; qtot -0.261803
  760         h1     26    bbb     H4    760 0.04411300   1.008000   ; qtot -0.217690
  761         c3     26    bbb     C3    761 -0.00195300  12.010000   ; qtot -0.219643
  762         h1     26    bbb     H5    762 0.05064400   1.008000   ; qtot -0.168999
  763         h1     26    bbb     H6    763 0.05064400   1.008000   ; qtot -0.118355
  764         c3     26    bbb     C4    764 -0.01612100  12.010000   ; qtot -0.134476
  765         hc     26    bbb     H7    765 0.04936100   1.008000   ; qtot -0.085115
  766         hc     26    bbb     H8    766 0.04936100   1.008000   ; qtot -0.035754
  767         c3     26    bbb     C5    767 0.11363000  12.010000   ; qtot 0.077876
  768         hc     26    bbb     H9    768 0.06265900   1.008000   ; qtot 0.140535
  769         hc     26    bbb    H10    769 0.06265900   1.008000   ; qtot 0.203194
  770         c3     26    bbb     C6    770 0.11363000  12.010000   ; qtot 0.316824
  771         hc     26    bbb    H11    771 0.06265900   1.008000   ; qtot 0.379483
  772         hc     26    bbb    H12    772 0.06265900   1.008000   ; qtot 0.442142
  773         c3     26    bbb     C7    773 0.05858200  12.010000   ; qtot 0.500724
  774         h1     26    bbb    H13    774 0.06123400   1.008000   ; qtot 0.561958
  775         h1     26    bbb    H14    775 0.06123400   1.008000   ; qtot 0.623192
  776         c3     26    bbb     C8    776 -0.72423400  12.010000   ; qtot -0.101042
  777         h1     26    bbb    H15    777 0.25637600   1.008000   ; qtot 0.155334
  778         h1     26    bbb    H16    778 0.25637600   1.008000   ; qtot 0.411710
  779         c3     26    bbb     C9    779 -0.72423400  12.010000   ; qtot -0.312524
  780         h1     26    bbb    H17    780 0.25637600   1.008000   ; qtot -0.056148
  781         h1     26    bbb    H18    781 0.25637600   1.008000   ; qtot 0.200228
  782         os     26    bbb     O1    782 -0.20025300  16.000000   ; qtot -0.000025
; residue   27 bbb rtp bbb q -0.0
  783         n3     27    bbb     N1    783 -0.59685800  14.010000   ; qtot -0.596883
  784         c3     27    bbb     C1    784 0.10137000  12.010000   ; qtot -0.495513
  785         h1     27    bbb     H1    785 0.04411300   1.008000   ; qtot -0.451400
  786         h1     27    bbb     H2    786 0.04411300   1.008000   ; qtot -0.407287
  787         c3     27    bbb     C2    787 0.10137000  12.010000   ; qtot -0.305917
  788         h1     27    bbb     H3    788 0.04411300   1.008000   ; qtot -0.261804
  789         h1     27    bbb     H4    789 0.04411300   1.008000   ; qtot -0.217691
  790         c3     27    bbb     C3    790 -0.00195300  12.010000   ; qtot -0.219644
  791         h1     27    bbb     H5    791 0.05064400   1.008000   ; qtot -0.169000
  792         h1     27    bbb     H6    792 0.05064400   1.008000   ; qtot -0.118356
  793         c3     27    bbb     C4    793 -0.01612100  12.010000   ; qtot -0.134477
  794         hc     27    bbb     H7    794 0.04936100   1.008000   ; qtot -0.085116
  795         hc     27    bbb     H8    795 0.04936100   1.008000   ; qtot -0.035755
  796         c3     27    bbb     C5    796 0.11363000  12.010000   ; qtot 0.077875
  797         hc     27    bbb     H9    797 0.06265900   1.008000   ; qtot 0.140534
  798         hc     27    bbb    H10    798 0.06265900   1.008000   ; qtot 0.203193
  799         c3     27    bbb     C6    799 0.11363000  12.010000   ; qtot 0.316823
  800         hc     27    bbb    H11    800 0.06265900   1.008000   ; qtot 0.379482
  801         hc     27    bbb    H12    801 0.06265900   1.008000   ; qtot 0.442141
  802         c3     27    bbb     C7    802 0.05858200  12.010000   ; qtot 0.500723
  803         h1     27    bbb    H13    803 0.06123400   1.008000   ; qtot 0.561957
  804         h1     27    bbb    H14    804 0.06123400   1.008000   ; qtot 0.623191
  805         c3     27    bbb     C8    805 -0.72423400  12.010000   ; qtot -0.101043
  806         h1     27    bbb    H15    806 0.25637600   1.008000   ; qtot 0.155333
  807         h1     27    bbb    H16    807 0.25637600   1.008000   ; qtot 0.411709
  808         c3     27    bbb     C9    808 -0.72423400  12.010000   ; qtot -0.312525
  809         h1     27    bbb    H17    809 0.25637600   1.008000   ; qtot -0.056149
  810         h1     27    bbb    H18    810 0.25637600   1.008000   ; qtot 0.200227
  811         os     27    bbb     O1    811 -0.20025300  16.000000   ; qtot -0.000026
; residue   28 bbb rtp bbb q -0.0
  812         n3     28    bbb     N1    812 -0.59685800  14.010000   ; qtot -0.596884
  813         c3     28    bbb     C1    813 0.10137000  12.010000   ; qtot -0.495514
  814         h1     28    bbb     H1    814 0.04411300   1.008000   ; qtot -0.451401
  815         h1     28    bbb     H2    815 0.04411300   1.008000   ; qtot -0.407288
  816         c3     28    bbb     C2    816 0.10137000  12.010000   ; qtot -0.305918
  817         h1     28    bbb     H3    817 0.04411300   1.008000   ; qtot -0.261805
  818         h1     28    bbb     H4    818 0.04411300   1.008000   ; qtot -0.217692
  819         c3     28    bbb     C3    819 -0.00195300  12.010000   ; qtot -0.219645
  820         h1     28    bbb     H5    820 0.05064400   1.008000   ; qtot -0.169001
  821         h1     28    bbb     H6    821 0.05064400   1.008000   ; qtot -0.118357
  822         c3     28    bbb     C4    822 -0.01612100  12.010000   ; qtot -0.134478
  823         hc     28    bbb     H7    823 0.04936100   1.008000   ; qtot -0.085117
  824         hc     28    bbb     H8    824 0.04936100   1.008000   ; qtot -0.035756
  825         c3     28    bbb     C5    825 0.11363000  12.010000   ; qtot 0.077874
  826         hc     28    bbb     H9    826 0.06265900   1.008000   ; qtot 0.140533
  827         hc     28    bbb    H10    827 0.06265900   1.008000   ; qtot 0.203192
  828         c3     28    bbb     C6    828 0.11363000  12.010000   ; qtot 0.316822
  829         hc     28    bbb    H11    829 0.06265900   1.008000   ; qtot 0.379481
  830         hc     28    bbb    H12    830 0.06265900   1.008000   ; qtot 0.442140
  831         c3     28    bbb     C7    831 0.05858200  12.010000   ; qtot 0.500722
  832         h1     28    bbb    H13    832 0.06123400   1.008000   ; qtot 0.561956
  833         h1     28    bbb    H14    833 0.06123400   1.008000   ; qtot 0.623190
  834         c3     28    bbb     C8    834 -0.72423400  12.010000   ; qtot -0.101044
  835         h1     28    bbb    H15    835 0.25637600   1.008000   ; qtot 0.155332
  836         h1     28    bbb    H16    836 0.25637600   1.008000   ; qtot 0.411708
  837         c3     28    bbb     C9    837 -0.72423400  12.010000   ; qtot -0.312526
  838         h1     28    bbb    H17    838 0.25637600   1.008000   ; qtot -0.056150
  839         h1     28    bbb    H18    839 0.25637600   1.008000   ; qtot 0.200226
  840         os     28    bbb     O1    840 -0.20025300  16.000000   ; qtot -0.000027
; residue   29 bbb rtp bbb q -0.0
  841         n3     29    bbb     N1    841 -0.59685800  14.010000   ; qtot -0.596885
  842         c3     29    bbb     C1    842 0.10137000  12.010000   ; qtot -0.495515
  843         h1     29    bbb     H1    843 0.04411300   1.008000   ; qtot -0.451402
  844         h1     29    bbb     H2    844 0.04411300   1.008000   ; qtot -0.407289
  845         c3     29    bbb     C2    845 0.10137000  12.010000   ; qtot -0.305919
  846         h1     29    bbb     H3    846 0.04411300   1.008000   ; qtot -0.261806
  847         h1     29    bbb     H4    847 0.04411300   1.008000   ; qtot -0.217693
  848         c3     29    bbb     C3    848 -0.00195300  12.010000   ; qtot -0.219646
  849         h1     29    bbb     H5    849 0.05064400   1.008000   ; qtot -0.169002
  850         h1     29    bbb     H6    850 0.05064400   1.008000   ; qtot -0.118358
  851         c3     29    bbb     C4    851 -0.01612100  12.010000   ; qtot -0.134479
  852         hc     29    bbb     H7    852 0.04936100   1.008000   ; qtot -0.085118
  853         hc     29    bbb     H8    853 0.04936100   1.008000   ; qtot -0.035757
  854         c3     29    bbb     C5    854 0.11363000  12.010000   ; qtot 0.077873
  855         hc     29    bbb     H9    855 0.06265900   1.008000   ; qtot 0.140532
  856         hc     29    bbb    H10    856 0.06265900   1.008000   ; qtot 0.203191
  857         c3     29    bbb     C6    857 0.11363000  12.010000   ; qtot 0.316821
  858         hc     29    bbb    H11    858 0.06265900   1.008000   ; qtot 0.379480
  859         hc     29    bbb    H12    859 0.06265900   1.008000   ; qtot 0.442139
  860         c3     29    bbb     C7    860 0.05858200  12.010000   ; qtot 0.500721
  861         h1     29    bbb    H13    861 0.06123400   1.008000   ; qtot 0.561955
  862         h1     29    bbb    H14    862 0.06123400   1.008000   ; qtot 0.623189
  863         c3     29    bbb     C8    863 -0.72423400  12.010000   ; qtot -0.101045
  864         h1     29    bbb    H15    864 0.25637600   1.008000   ; qtot 0.155331
  865         h1     29    bbb    H16    865 0.25637600   1.008000   ; qtot 0.411707
  866         c3     29    bbb     C9    866 -0.72423400  12.010000   ; qtot -0.312527
  867         h1     29    bbb    H17    867 0.25637600   1.008000   ; qtot -0.056151
  868         h1     29    bbb    H18    868 0.25637600   1.008000   ; qtot 0.200225
  869         os     29    bbb     O1    869 -0.20025300  16.000000   ; qtot -0.000028
; residue   30 bbb rtp bbb q -0.0
  870         n3     30    bbb     N1    870 -0.59685800  14.010000   ; qtot -0.596886
  871         c3     30    bbb     C1    871 0.10137000  12.010000   ; qtot -0.495516
  872         h1     30    bbb     H1    872 0.04411300   1.008000   ; qtot -0.451403
  873         h1     30    bbb     H2    873 0.04411300   1.008000   ; qtot -0.407290
  874         c3     30    bbb     C2    874 0.10137000  12.010000   ; qtot -0.305920
  875         h1     30    bbb     H3    875 0.04411300   1.008000   ; qtot -0.261807
  876         h1     30    bbb     H4    876 0.04411300   1.008000   ; qtot -0.217694
  877         c3     30    bbb     C3    877 -0.00195300  12.010000   ; qtot -0.219647
  878         h1     30    bbb     H5    878 0.05064400   1.008000   ; qtot -0.169003
  879         h1     30    bbb     H6    879 0.05064400   1.008000   ; qtot -0.118359
  880         c3     30    bbb     C4    880 -0.01612100  12.010000   ; qtot -0.134480
  881         hc     30    bbb     H7    881 0.04936100   1.008000   ; qtot -0.085119
  882         hc     30    bbb     H8    882 0.04936100   1.008000   ; qtot -0.035758
  883         c3     30    bbb     C5    883 0.11363000  12.010000   ; qtot 0.077872
  884         hc     30    bbb     H9    884 0.06265900   1.008000   ; qtot 0.140531
  885         hc     30    bbb    H10    885 0.06265900   1.008000   ; qtot 0.203190
  886         c3     30    bbb     C6    886 0.11363000  12.010000   ; qtot 0.316820
  887         hc     30    bbb    H11    887 0.06265900   1.008000   ; qtot 0.379479
  888         hc     30    bbb    H12    888 0.06265900   1.008000   ; qtot 0.442138
  889         c3     30    bbb     C7    889 0.05858200  12.010000   ; qtot 0.500720
  890         h1     30    bbb    H13    890 0.06123400   1.008000   ; qtot 0.561954
  891         h1     30    bbb    H14    891 0.06123400   1.008000   ; qtot 0.623188
  892         c3     30    bbb     C8    892 -0.72423400  12.010000   ; qtot -0.101046
  893         h1     30    bbb    H15    893 0.25637600   1.008000   ; qtot 0.155330
  894         h1     30    bbb    H16    894 0.25637600   1.008000   ; qtot 0.411706
  895         c3     30    bbb     C9    895 -0.72423400  12.010000   ; qtot -0.312528
  896         h1     30    bbb    H17    896 0.25637600   1.008000   ; qtot -0.056152
  897         h1     30    bbb    H18    897 0.25637600   1.008000   ; qtot 0.200224
  898         os     30    bbb     O1    898 -0.20025300  16.000000   ; qtot -0.000029
; residue   31 bbb rtp bbb q -0.0
  899         n3     31    bbb     N1    899 -0.59685800  14.010000   ; qtot -0.596887
  900         c3     31    bbb     C1    900 0.10137000  12.010000   ; qtot -0.495517
  901         h1     31    bbb     H1    901 0.04411300   1.008000   ; qtot -0.451404
  902         h1     31    bbb     H2    902 0.04411300   1.008000   ; qtot -0.407291
  903         c3     31    bbb     C2    903 0.10137000  12.010000   ; qtot -0.305921
  904         h1     31    bbb     H3    904 0.04411300   1.008000   ; qtot -0.261808
  905         h1     31    bbb     H4    905 0.04411300   1.008000   ; qtot -0.217695
  906         c3     31    bbb     C3    906 -0.00195300  12.010000   ; qtot -0.219648
  907         h1     31    bbb     H5    907 0.05064400   1.008000   ; qtot -0.169004
  908         h1     31    bbb     H6    908 0.05064400   1.008000   ; qtot -0.118360
  909         c3     31    bbb     C4    909 -0.01612100  12.010000   ; qtot -0.134481
  910         hc     31    bbb     H7    910 0.04936100   1.008000   ; qtot -0.085120
  911         hc     31    bbb     H8    911 0.04936100   1.008000   ; qtot -0.035759
  912         c3     31    bbb     C5    912 0.11363000  12.010000   ; qtot 0.077871
  913         hc     31    bbb     H9    913 0.06265900   1.008000   ; qtot 0.140530
  914         hc     31    bbb    H10    914 0.06265900   1.008000   ; qtot 0.203189
  915         c3     31    bbb     C6    915 0.11363000  12.010000   ; qtot 0.316819
  916         hc     31    bbb    H11    916 0.06265900   1.008000   ; qtot 0.379478
  917         hc     31    bbb    H12    917 0.06265900   1.008000   ; qtot 0.442137
  918         c3     31    bbb     C7    918 0.05858200  12.010000   ; qtot 0.500719
  919         h1     31    bbb    H13    919 0.06123400   1.008000   ; qtot 0.561953
  920         h1     31    bbb    H14    920 0.06123400   1.008000   ; qtot 0.623187
  921         c3     31    bbb     C8    921 -0.72423400  12.010000   ; qtot -0.101047
  922         h1     31    bbb    H15    922 0.25637600   1.008000   ; qtot 0.155329
  923         h1     31    bbb    H16    923 0.25637600   1.008000   ; qtot 0.411705
  924         c3     31    bbb     C9    924 -0.72423400  12.010000   ; qtot -0.312529
  925         h1     31    bbb    H17    925 0.25637600   1.008000   ; qtot -0.056153
  926         h1     31    bbb    H18    926 0.25637600   1.008000   ; qtot 0.200223
  927         os     31    bbb     O1    927 -0.20025300  16.000000   ; qtot -0.000030
; residue   32 bbb rtp bbb q -0.0
  928         n3     32    bbb     N1    928 -0.59685800  14.010000   ; qtot -0.596888
  929         c3     32    bbb     C1    929 0.10137000  12.010000   ; qtot -0.495518
  930         h1     32    bbb     H1    930 0.04411300   1.008000   ; qtot -0.451405
  931         h1     32    bbb     H2    931 0.04411300   1.008000   ; qtot -0.407292
  932         c3     32    bbb     C2    932 0.10137000  12.010000   ; qtot -0.305922
  933         h1     32    bbb     H3    933 0.04411300   1.008000   ; qtot -0.261809
  934         h1     32    bbb     H4    934 0.04411300   1.008000   ; qtot -0.217696
  935         c3     32    bbb     C3    935 -0.00195300  12.010000   ; qtot -0.219649
  936         h1     32    bbb     H5    936 0.05064400   1.008000   ; qtot -0.169005
  937         h1     32    bbb     H6    937 0.05064400   1.008000   ; qtot -0.118361
  938         c3     32    bbb     C4    938 -0.01612100  12.010000   ; qtot -0.134482
  939         hc     32    bbb     H7    939 0.04936100   1.008000   ; qtot -0.085121
  940         hc     32    bbb     H8    940 0.04936100   1.008000   ; qtot -0.035760
  941         c3     32    bbb     C5    941 0.11363000  12.010000   ; qtot 0.077870
  942         hc     32    bbb     H9    942 0.06265900   1.008000   ; qtot 0.140529
  943         hc     32    bbb    H10    943 0.06265900   1.008000   ; qtot 0.203188
  944         c3     32    bbb     C6    944 0.11363000  12.010000   ; qtot 0.316818
  945         hc     32    bbb    H11    945 0.06265900   1.008000   ; qtot 0.379477
  946         hc     32    bbb    H12    946 0.06265900   1.008000   ; qtot 0.442136
  947         c3     32    bbb     C7    947 0.05858200  12.010000   ; qtot 0.500718
  948         h1     32    bbb    H13    948 0.06123400   1.008000   ; qtot 0.561952
  949         h1     32    bbb    H14    949 0.06123400   1.008000   ; qtot 0.623186
  950         c3     32    bbb     C8    950 -0.72423400  12.010000   ; qtot -0.101048
  951         h1     32    bbb    H15    951 0.25637600   1.008000   ; qtot 0.155328
  952         h1     32    bbb    H16    952 0.25637600   1.008000   ; qtot 0.411704
  953         c3     32    bbb     C9    953 -0.72423400  12.010000   ; qtot -0.312530
  954         h1     32    bbb    H17    954 0.25637600   1.008000   ; qtot -0.056154
  955         h1     32    bbb    H18    955 0.25637600   1.008000   ; qtot 0.200222
  956         os     32    bbb     O1    956 -0.20025300  16.000000   ; qtot -0.000031
; residue   33 bbb rtp bbb q -0.0
  957         n3     33    bbb     N1    957 -0.59685800  14.010000   ; qtot -0.596889
  958         c3     33    bbb     C1    958 0.10137000  12.010000   ; qtot -0.495519
  959         h1     33    bbb     H1    959 0.04411300   1.008000   ; qtot -0.451406
  960         h1     33    bbb     H2    960 0.04411300   1.008000   ; qtot -0.407293
  961         c3     33    bbb     C2    961 0.10137000  12.010000   ; qtot -0.305923
  962         h1     33    bbb     H3    962 0.04411300   1.008000   ; qtot -0.261810
  963         h1     33    bbb     H4    963 0.04411300   1.008000   ; qtot -0.217697
  964         c3     33    bbb     C3    964 -0.00195300  12.010000   ; qtot -0.219650
  965         h1     33    bbb     H5    965 0.05064400   1.008000   ; qtot -0.169006
  966         h1     33    bbb     H6    966 0.05064400   1.008000   ; qtot -0.118362
  967         c3     33    bbb     C4    967 -0.01612100  12.010000   ; qtot -0.134483
  968         hc     33    bbb     H7    968 0.04936100   1.008000   ; qtot -0.085122
  969         hc     33    bbb     H8    969 0.04936100   1.008000   ; qtot -0.035761
  970         c3     33    bbb     C5    970 0.11363000  12.010000   ; qtot 0.077869
  971         hc     33    bbb     H9    971 0.06265900   1.008000   ; qtot 0.140528
  972         hc     33    bbb    H10    972 0.06265900   1.008000   ; qtot 0.203187
  973         c3     33    bbb     C6    973 0.11363000  12.010000   ; qtot 0.316817
  974         hc     33    bbb    H11    974 0.06265900   1.008000   ; qtot 0.379476
  975         hc     33    bbb    H12    975 0.06265900   1.008000   ; qtot 0.442135
  976         c3     33    bbb     C7    976 0.05858200  12.010000   ; qtot 0.500717
  977         h1     33    bbb    H13    977 0.06123400   1.008000   ; qtot 0.561951
  978         h1     33    bbb    H14    978 0.06123400   1.008000   ; qtot 0.623185
  979         c3     33    bbb     C8    979 -0.72423400  12.010000   ; qtot -0.101049
  980         h1     33    bbb    H15    980 0.25637600   1.008000   ; qtot 0.155327
  981         h1     33    bbb    H16    981 0.25637600   1.008000   ; qtot 0.411703
  982         c3     33    bbb     C9    982 -0.72423400  12.010000   ; qtot -0.312531
  983         h1     33    bbb    H17    983 0.25637600   1.008000   ; qtot -0.056155
  984         h1     33    bbb    H18    984 0.25637600   1.008000   ; qtot 0.200221
  985         os     33    bbb     O1    985 -0.20025300  16.000000   ; qtot -0.000032
; residue   34 bbb rtp bbb q -0.0
  986         n3     34    bbb     N1    986 -0.59685800  14.010000   ; qtot -0.596890
  987         c3     34    bbb     C1    987 0.10137000  12.010000   ; qtot -0.495520
  988         h1     34    bbb     H1    988 0.04411300   1.008000   ; qtot -0.451407
  989         h1     34    bbb     H2    989 0.04411300   1.008000   ; qtot -0.407294
  990         c3     34    bbb     C2    990 0.10137000  12.010000   ; qtot -0.305924
  991         h1     34    bbb     H3    991 0.04411300   1.008000   ; qtot -0.261811
  992         h1     34    bbb     H4    992 0.04411300   1.008000   ; qtot -0.217698
  993         c3     34    bbb     C3    993 -0.00195300  12.010000   ; qtot -0.219651
  994         h1     34    bbb     H5    994 0.05064400   1.008000   ; qtot -0.169007
  995         h1     34    bbb     H6    995 0.05064400   1.008000   ; qtot -0.118363
  996         c3     34    bbb     C4    996 -0.01612100  12.010000   ; qtot -0.134484
  997         hc     34    bbb     H7    997 0.04936100   1.008000   ; qtot -0.085123
  998         hc     34    bbb     H8    998 0.04936100   1.008000   ; qtot -0.035762
  999         c3     34    bbb     C5    999 0.11363000  12.010000   ; qtot 0.077868
 1000         hc     34    bbb     H9   1000 0.06265900   1.008000   ; qtot 0.140527
 1001         hc     34    bbb    H10   1001 0.06265900   1.008000   ; qtot 0.203186
 1002         c3     34    bbb     C6   1002 0.11363000  12.010000   ; qtot 0.316816
 1003         hc     34    bbb    H11   1003 0.06265900   1.008000   ; qtot 0.379475
 1004         hc     34    bbb    H12   1004 0.06265900   1.008000   ; qtot 0.442134
 1005         c3     34    bbb     C7   1005 0.05858200  12.010000   ; qtot 0.500716
 1006         h1     34    bbb    H13   1006 0.06123400   1.008000   ; qtot 0.561950
 1007         h1     34    bbb    H14   1007 0.06123400   1.008000   ; qtot 0.623184
 1008         c3     34    bbb     C8   1008 -0.72423400  12.010000   ; qtot -0.101050
 1009         h1     34    bbb    H15   1009 0.25637600   1.008000   ; qtot 0.155326
 1010         h1     34    bbb    H16   1010 0.25637600   1.008000   ; qtot 0.411702
 1011         c3     34    bbb     C9   1011 -0.72423400  12.010000   ; qtot -0.312532
 1012         h1     34    bbb    H17   1012 0.25637600   1.008000   ; qtot -0.056156
 1013         h1     34    bbb    H18   1013 0.25637600   1.008000   ; qtot 0.200220
 1014         os     34    bbb     O1   1014 -0.20025300  16.000000   ; qtot -0.000033
; residue   35 bbb rtp bbb q -0.0
 1015         n3     35    bbb     N1   1015 -0.59685800  14.010000   ; qtot -0.596891
 1016         c3     35    bbb     C1   1016 0.10137000  12.010000   ; qtot -0.495521
 1017         h1     35    bbb     H1   1017 0.04411300   1.008000   ; qtot -0.451408
 1018         h1     35    bbb     H2   1018 0.04411300   1.008000   ; qtot -0.407295
 1019         c3     35    bbb     C2   1019 0.10137000  12.010000   ; qtot -0.305925
 1020         h1     35    bbb     H3   1020 0.04411300   1.008000   ; qtot -0.261812
 1021         h1     35    bbb     H4   1021 0.04411300   1.008000   ; qtot -0.217699
 1022         c3     35    bbb     C3   1022 -0.00195300  12.010000   ; qtot -0.219652
 1023         h1     35    bbb     H5   1023 0.05064400   1.008000   ; qtot -0.169008
 1024         h1     35    bbb     H6   1024 0.05064400   1.008000   ; qtot -0.118364
 1025         c3     35    bbb     C4   1025 -0.01612100  12.010000   ; qtot -0.134485
 1026         hc     35    bbb     H7   1026 0.04936100   1.008000   ; qtot -0.085124
 1027         hc     35    bbb     H8   1027 0.04936100   1.008000   ; qtot -0.035763
 1028         c3     35    bbb     C5   1028 0.11363000  12.010000   ; qtot 0.077867
 1029         hc     35    bbb     H9   1029 0.06265900   1.008000   ; qtot 0.140526
 1030         hc     35    bbb    H10   1030 0.06265900   1.008000   ; qtot 0.203185
 1031         c3     35    bbb     C6   1031 0.11363000  12.010000   ; qtot 0.316815
 1032         hc     35    bbb    H11   1032 0.06265900   1.008000   ; qtot 0.379474
 1033         hc     35    bbb    H12   1033 0.06265900   1.008000   ; qtot 0.442133
 1034         c3     35    bbb     C7   1034 0.05858200  12.010000   ; qtot 0.500715
 1035         h1     35    bbb    H13   1035 0.06123400   1.008000   ; qtot 0.561949
 1036         h1     35    bbb    H14   1036 0.06123400   1.008000   ; qtot 0.623183
 1037         c3     35    bbb     C8   1037 -0.72423400  12.010000   ; qtot -0.101051
 1038         h1     35    bbb    H15   1038 0.25637600   1.008000   ; qtot 0.155325
 1039         h1     35    bbb    H16   1039 0.25637600   1.008000   ; qtot 0.411701
 1040         c3     35    bbb     C9   1040 -0.72423400  12.010000   ; qtot -0.312533
 1041         h1     35    bbb    H17   1041 0.25637600   1.008000   ; qtot -0.056157
 1042         h1     35    bbb    H18   1042 0.25637600   1.008000   ; qtot 0.200219
 1043         os     35    bbb     O1   1043 -0.20025300  16.000000   ; qtot -0.000034
; residue   36 bbb rtp bbb q -0.0
 1044         n3     36    bbb     N1   1044 -0.59685800  14.010000   ; qtot -0.596892
 1045         c3     36    bbb     C1   1045 0.10137000  12.010000   ; qtot -0.495522
 1046         h1     36    bbb     H1   1046 0.04411300   1.008000   ; qtot -0.451409
 1047         h1     36    bbb     H2   1047 0.04411300   1.008000   ; qtot -0.407296
 1048         c3     36    bbb     C2   1048 0.10137000  12.010000   ; qtot -0.305926
 1049         h1     36    bbb     H3   1049 0.04411300   1.008000   ; qtot -0.261813
 1050         h1     36    bbb     H4   1050 0.04411300   1.008000   ; qtot -0.217700
 1051         c3     36    bbb     C3   1051 -0.00195300  12.010000   ; qtot -0.219653
 1052         h1     36    bbb     H5   1052 0.05064400   1.008000   ; qtot -0.169009
 1053         h1     36    bbb     H6   1053 0.05064400   1.008000   ; qtot -0.118365
 1054         c3     36    bbb     C4   1054 -0.01612100  12.010000   ; qtot -0.134486
 1055         hc     36    bbb     H7   1055 0.04936100   1.008000   ; qtot -0.085125
 1056         hc     36    bbb     H8   1056 0.04936100   1.008000   ; qtot -0.035764
 1057         c3     36    bbb     C5   1057 0.11363000  12.010000   ; qtot 0.077866
 1058         hc     36    bbb     H9   1058 0.06265900   1.008000   ; qtot 0.140525
 1059         hc     36    bbb    H10   1059 0.06265900   1.008000   ; qtot 0.203184
 1060         c3     36    bbb     C6   1060 0.11363000  12.010000   ; qtot 0.316814
 1061         hc     36    bbb    H11   1061 0.06265900   1.008000   ; qtot 0.379473
 1062         hc     36    bbb    H12   1062 0.06265900   1.008000   ; qtot 0.442132
 1063         c3     36    bbb     C7   1063 0.05858200  12.010000   ; qtot 0.500714
 1064         h1     36    bbb    H13   1064 0.06123400   1.008000   ; qtot 0.561948
 1065         h1     36    bbb    H14   1065 0.06123400   1.008000   ; qtot 0.623182
 1066         c3     36    bbb     C8   1066 -0.72423400  12.010000   ; qtot -0.101052
 1067         h1     36    bbb    H15   1067 0.25637600   1.008000   ; qtot 0.155324
 1068         h1     36    bbb    H16   1068 0.25637600   1.008000   ; qtot 0.411700
 1069         c3     36    bbb     C9   1069 -0.72423400  12.010000   ; qtot -0.312534
 1070         h1     36    bbb    H17   1070 0.25637600   1.008000   ; qtot -0.056158
 1071         h1     36    bbb    H18   1071 0.25637600   1.008000   ; qtot 0.200218
 1072         os     36    bbb     O1   1072 -0.20025300  16.000000   ; qtot -0.000035
; residue   37 bbb rtp bbb q -0.0
 1073         n3     37    bbb     N1   1073 -0.59685800  14.010000   ; qtot -0.596893
 1074         c3     37    bbb     C1   1074 0.10137000  12.010000   ; qtot -0.495523
 1075         h1     37    bbb     H1   1075 0.04411300   1.008000   ; qtot -0.451410
 1076         h1     37    bbb     H2   1076 0.04411300   1.008000   ; qtot -0.407297
 1077         c3     37    bbb     C2   1077 0.10137000  12.010000   ; qtot -0.305927
 1078         h1     37    bbb     H3   1078 0.04411300   1.008000   ; qtot -0.261814
 1079         h1     37    bbb     H4   1079 0.04411300   1.008000   ; qtot -0.217701
 1080         c3     37    bbb     C3   1080 -0.00195300  12.010000   ; qtot -0.219654
 1081         h1     37    bbb     H5   1081 0.05064400   1.008000   ; qtot -0.169010
 1082         h1     37    bbb     H6   1082 0.05064400   1.008000   ; qtot -0.118366
 1083         c3     37    bbb     C4   1083 -0.01612100  12.010000   ; qtot -0.134487
 1084         hc     37    bbb     H7   1084 0.04936100   1.008000   ; qtot -0.085126
 1085         hc     37    bbb     H8   1085 0.04936100   1.008000   ; qtot -0.035765
 1086         c3     37    bbb     C5   1086 0.11363000  12.010000   ; qtot 0.077865
 1087         hc     37    bbb     H9   1087 0.06265900   1.008000   ; qtot 0.140524
 1088         hc     37    bbb    H10   1088 0.06265900   1.008000   ; qtot 0.203183
 1089         c3     37    bbb     C6   1089 0.11363000  12.010000   ; qtot 0.316813
 1090         hc     37    bbb    H11   1090 0.06265900   1.008000   ; qtot 0.379472
 1091         hc     37    bbb    H12   1091 0.06265900   1.008000   ; qtot 0.442131
 1092         c3     37    bbb     C7   1092 0.05858200  12.010000   ; qtot 0.500713
 1093         h1     37    bbb    H13   1093 0.06123400   1.008000   ; qtot 0.561947
 1094         h1     37    bbb    H14   1094 0.06123400   1.008000   ; qtot 0.623181
 1095         c3     37    bbb     C8   1095 -0.72423400  12.010000   ; qtot -0.101053
 1096         h1     37    bbb    H15   1096 0.25637600   1.008000   ; qtot 0.155323
 1097         h1     37    bbb    H16   1097 0.25637600   1.008000   ; qtot 0.411699
 1098         c3     37    bbb     C9   1098 -0.72423400  12.010000   ; qtot -0.312535
 1099         h1     37    bbb    H17   1099 0.25637600   1.008000   ; qtot -0.056159
 1100         h1     37    bbb    H18   1100 0.25637600   1.008000   ; qtot 0.200217
 1101         os     37    bbb     O1   1101 -0.20025300  16.000000   ; qtot -0.000036
; residue   38 bbb rtp bbb q -0.0
 1102         n3     38    bbb     N1   1102 -0.59685800  14.010000   ; qtot -0.596894
 1103         c3     38    bbb     C1   1103 0.10137000  12.010000   ; qtot -0.495524
 1104         h1     38    bbb     H1   1104 0.04411300   1.008000   ; qtot -0.451411
 1105         h1     38    bbb     H2   1105 0.04411300   1.008000   ; qtot -0.407298
 1106         c3     38    bbb     C2   1106 0.10137000  12.010000   ; qtot -0.305928
 1107         h1     38    bbb     H3   1107 0.04411300   1.008000   ; qtot -0.261815
 1108         h1     38    bbb     H4   1108 0.04411300   1.008000   ; qtot -0.217702
 1109         c3     38    bbb     C3   1109 -0.00195300  12.010000   ; qtot -0.219655
 1110         h1     38    bbb     H5   1110 0.05064400   1.008000   ; qtot -0.169011
 1111         h1     38    bbb     H6   1111 0.05064400   1.008000   ; qtot -0.118367
 1112         c3     38    bbb     C4   1112 -0.01612100  12.010000   ; qtot -0.134488
 1113         hc     38    bbb     H7   1113 0.04936100   1.008000   ; qtot -0.085127
 1114         hc     38    bbb     H8   1114 0.04936100   1.008000   ; qtot -0.035766
 1115         c3     38    bbb     C5   1115 0.11363000  12.010000   ; qtot 0.077864
 1116         hc     38    bbb     H9   1116 0.06265900   1.008000   ; qtot 0.140523
 1117         hc     38    bbb    H10   1117 0.06265900   1.008000   ; qtot 0.203182
 1118         c3     38    bbb     C6   1118 0.11363000  12.010000   ; qtot 0.316812
 1119         hc     38    bbb    H11   1119 0.06265900   1.008000   ; qtot 0.379471
 1120         hc     38    bbb    H12   1120 0.06265900   1.008000   ; qtot 0.442130
 1121         c3     38    bbb     C7   1121 0.05858200  12.010000   ; qtot 0.500712
 1122         h1     38    bbb    H13   1122 0.06123400   1.008000   ; qtot 0.561946
 1123         h1     38    bbb    H14   1123 0.06123400   1.008000   ; qtot 0.623180
 1124         c3     38    bbb     C8   1124 -0.72423400  12.010000   ; qtot -0.101054
 1125         h1     38    bbb    H15   1125 0.25637600   1.008000   ; qtot 0.155322
 1126         h1     38    bbb    H16   1126 0.25637600   1.008000   ; qtot 0.411698
 1127         c3     38    bbb     C9   1127 -0.72423400  12.010000   ; qtot -0.312536
 1128         h1     38    bbb    H17   1128 0.25637600   1.008000   ; qtot -0.056160
 1129         h1     38    bbb    H18   1129 0.25637600   1.008000   ; qtot 0.200216
 1130         os     38    bbb     O1   1130 -0.20025300  16.000000   ; qtot -0.000037
; residue   39 bbb rtp bbb q -0.0
 1131         n3     39    bbb     N1   1131 -0.59685800  14.010000   ; qtot -0.596895
 1132         c3     39    bbb     C1   1132 0.10137000  12.010000   ; qtot -0.495525
 1133         h1     39    bbb     H1   1133 0.04411300   1.008000   ; qtot -0.451412
 1134         h1     39    bbb     H2   1134 0.04411300   1.008000   ; qtot -0.407299
 1135         c3     39    bbb     C2   1135 0.10137000  12.010000   ; qtot -0.305929
 1136         h1     39    bbb     H3   1136 0.04411300   1.008000   ; qtot -0.261816
 1137         h1     39    bbb     H4   1137 0.04411300   1.008000   ; qtot -0.217703
 1138         c3     39    bbb     C3   1138 -0.00195300  12.010000   ; qtot -0.219656
 1139         h1     39    bbb     H5   1139 0.05064400   1.008000   ; qtot -0.169012
 1140         h1     39    bbb     H6   1140 0.05064400   1.008000   ; qtot -0.118368
 1141         c3     39    bbb     C4   1141 -0.01612100  12.010000   ; qtot -0.134489
 1142         hc     39    bbb     H7   1142 0.04936100   1.008000   ; qtot -0.085128
 1143         hc     39    bbb     H8   1143 0.04936100   1.008000   ; qtot -0.035767
 1144         c3     39    bbb     C5   1144 0.11363000  12.010000   ; qtot 0.077863
 1145         hc     39    bbb     H9   1145 0.06265900   1.008000   ; qtot 0.140522
 1146         hc     39    bbb    H10   1146 0.06265900   1.008000   ; qtot 0.203181
 1147         c3     39    bbb     C6   1147 0.11363000  12.010000   ; qtot 0.316811
 1148         hc     39    bbb    H11   1148 0.06265900   1.008000   ; qtot 0.379470
 1149         hc     39    bbb    H12   1149 0.06265900   1.008000   ; qtot 0.442129
 1150         c3     39    bbb     C7   1150 0.05858200  12.010000   ; qtot 0.500711
 1151         h1     39    bbb    H13   1151 0.06123400   1.008000   ; qtot 0.561945
 1152         h1     39    bbb    H14   1152 0.06123400   1.008000   ; qtot 0.623179
 1153         c3     39    bbb     C8   1153 -0.72423400  12.010000   ; qtot -0.101055
 1154         h1     39    bbb    H15   1154 0.25637600   1.008000   ; qtot 0.155321
 1155         h1     39    bbb    H16   1155 0.25637600   1.008000   ; qtot 0.411697
 1156         c3     39    bbb     C9   1156 -0.72423400  12.010000   ; qtot -0.312537
 1157         h1     39    bbb    H17   1157 0.25637600   1.008000   ; qtot -0.056161
 1158         h1     39    bbb    H18   1158 0.25637600   1.008000   ; qtot 0.200215
 1159         os     39    bbb     O1   1159 -0.20025300  16.000000   ; qtot -0.000038
; residue   40 bbb rtp bbb q -0.0
 1160         n3     40    bbb     N1   1160 -0.59685800  14.010000   ; qtot -0.596896
 1161         c3     40    bbb     C1   1161 0.10137000  12.010000   ; qtot -0.495526
 1162         h1     40    bbb     H1   1162 0.04411300   1.008000   ; qtot -0.451413
 1163         h1     40    bbb     H2   1163 0.04411300   1.008000   ; qtot -0.407300
 1164         c3     40    bbb     C2   1164 0.10137000  12.010000   ; qtot -0.305930
 1165         h1     40    bbb     H3   1165 0.04411300   1.008000   ; qtot -0.261817
 1166         h1     40    bbb     H4   1166 0.04411300   1.008000   ; qtot -0.217704
 1167         c3     40    bbb     C3   1167 -0.00195300  12.010000   ; qtot -0.219657
 1168         h1     40    bbb     H5   1168 0.05064400   1.008000   ; qtot -0.169013
 1169         h1     40    bbb     H6   1169 0.05064400   1.008000   ; qtot -0.118369
 1170         c3     40    bbb     C4   1170 -0.01612100  12.010000   ; qtot -0.134490
 1171         hc     40    bbb     H7   1171 0.04936100   1.008000   ; qtot -0.085129
 1172         hc     40    bbb     H8   1172 0.04936100   1.008000   ; qtot -0.035768
 1173         c3     40    bbb     C5   1173 0.11363000  12.010000   ; qtot 0.077862
 1174         hc     40    bbb     H9   1174 0.06265900   1.008000   ; qtot 0.140521
 1175         hc     40    bbb    H10   1175 0.06265900   1.008000   ; qtot 0.203180
 1176         c3     40    bbb     C6   1176 0.11363000  12.010000   ; qtot 0.316810
 1177         hc     40    bbb    H11   1177 0.06265900   1.008000   ; qtot 0.379469
 1178         hc     40    bbb    H12   1178 0.06265900   1.008000   ; qtot 0.442128
 1179         c3     40    bbb     C7   1179 0.05858200  12.010000   ; qtot 0.500710
 1180         h1     40    bbb    H13   1180 0.06123400   1.008000   ; qtot 0.561944
 1181         h1     40    bbb    H14   1181 0.06123400   1.008000   ; qtot 0.623178
 1182         c3     40    bbb     C8   1182 -0.72423400  12.010000   ; qtot -0.101056
 1183         h1     40    bbb    H15   1183 0.25637600   1.008000   ; qtot 0.155320
 1184         h1     40    bbb    H16   1184 0.25637600   1.008000   ; qtot 0.411696
 1185         c3     40    bbb     C9   1185 -0.72423400  12.010000   ; qtot -0.312538
 1186         h1     40    bbb    H17   1186 0.25637600   1.008000   ; qtot -0.056162
 1187         h1     40    bbb    H18   1187 0.25637600   1.008000   ; qtot 0.200214
 1188         os     40    bbb     O1   1188 -0.20025300  16.000000   ; qtot -0.000039
; residue   41 bbb rtp bbb q -0.0
 1189         n3     41    bbb     N1   1189 -0.59685800  14.010000   ; qtot -0.596897
 1190         c3     41    bbb     C1   1190 0.10137000  12.010000   ; qtot -0.495527
 1191         h1     41    bbb     H1   1191 0.04411300   1.008000   ; qtot -0.451414
 1192         h1     41    bbb     H2   1192 0.04411300   1.008000   ; qtot -0.407301
 1193         c3     41    bbb     C2   1193 0.10137000  12.010000   ; qtot -0.305931
 1194         h1     41    bbb     H3   1194 0.04411300   1.008000   ; qtot -0.261818
 1195         h1     41    bbb     H4   1195 0.04411300   1.008000   ; qtot -0.217705
 1196         c3     41    bbb     C3   1196 -0.00195300  12.010000   ; qtot -0.219658
 1197         h1     41    bbb     H5   1197 0.05064400   1.008000   ; qtot -0.169014
 1198         h1     41    bbb     H6   1198 0.05064400   1.008000   ; qtot -0.118370
 1199         c3     41    bbb     C4   1199 -0.01612100  12.010000   ; qtot -0.134491
 1200         hc     41    bbb     H7   1200 0.04936100   1.008000   ; qtot -0.085130
 1201         hc     41    bbb     H8   1201 0.04936100   1.008000   ; qtot -0.035769
 1202         c3     41    bbb     C5   1202 0.11363000  12.010000   ; qtot 0.077861
 1203         hc     41    bbb     H9   1203 0.06265900   1.008000   ; qtot 0.140520
 1204         hc     41    bbb    H10   1204 0.06265900   1.008000   ; qtot 0.203179
 1205         c3     41    bbb     C6   1205 0.11363000  12.010000   ; qtot 0.316809
 1206         hc     41    bbb    H11   1206 0.06265900   1.008000   ; qtot 0.379468
 1207         hc     41    bbb    H12   1207 0.06265900   1.008000   ; qtot 0.442127
 1208         c3     41    bbb     C7   1208 0.05858200  12.010000   ; qtot 0.500709
 1209         h1     41    bbb    H13   1209 0.06123400   1.008000   ; qtot 0.561943
 1210         h1     41    bbb    H14   1210 0.06123400   1.008000   ; qtot 0.623177
 1211         c3     41    bbb     C8   1211 -0.72423400  12.010000   ; qtot -0.101057
 1212         h1     41    bbb    H15   1212 0.25637600   1.008000   ; qtot 0.155319
 1213         h1     41    bbb    H16   1213 0.25637600   1.008000   ; qtot 0.411695
 1214         c3     41    bbb     C9   1214 -0.72423400  12.010000   ; qtot -0.312539
 1215         h1     41    bbb    H17   1215 0.25637600   1.008000   ; qtot -0.056163
 1216         h1     41    bbb    H18   1216 0.25637600   1.008000   ; qtot 0.200213
 1217         os     41    bbb     O1   1217 -0.20025300  16.000000   ; qtot -0.000040
; residue   42 bbb rtp bbb q -0.0
 1218         n3     42    bbb     N1   1218 -0.59685800  14.010000   ; qtot -0.596898
 1219         c3     42    bbb     C1   1219 0.10137000  12.010000   ; qtot -0.495528
 1220         h1     42    bbb     H1   1220 0.04411300   1.008000   ; qtot -0.451415
 1221         h1     42    bbb     H2   1221 0.04411300   1.008000   ; qtot -0.407302
 1222         c3     42    bbb     C2   1222 0.10137000  12.010000   ; qtot -0.305932
 1223         h1     42    bbb     H3   1223 0.04411300   1.008000   ; qtot -0.261819
 1224         h1     42    bbb     H4   1224 0.04411300   1.008000   ; qtot -0.217706
 1225         c3     42    bbb     C3   1225 -0.00195300  12.010000   ; qtot -0.219659
 1226         h1     42    bbb     H5   1226 0.05064400   1.008000   ; qtot -0.169015
 1227         h1     42    bbb     H6   1227 0.05064400   1.008000   ; qtot -0.118371
 1228         c3     42    bbb     C4   1228 -0.01612100  12.010000   ; qtot -0.134492
 1229         hc     42    bbb     H7   1229 0.04936100   1.008000   ; qtot -0.085131
 1230         hc     42    bbb     H8   1230 0.04936100   1.008000   ; qtot -0.035770
 1231         c3     42    bbb     C5   1231 0.11363000  12.010000   ; qtot 0.077860
 1232         hc     42    bbb     H9   1232 0.06265900   1.008000   ; qtot 0.140519
 1233         hc     42    bbb    H10   1233 0.06265900   1.008000   ; qtot 0.203178
 1234         c3     42    bbb     C6   1234 0.11363000  12.010000   ; qtot 0.316808
 1235         hc     42    bbb    H11   1235 0.06265900   1.008000   ; qtot 0.379467
 1236         hc     42    bbb    H12   1236 0.06265900   1.008000   ; qtot 0.442126
 1237         c3     42    bbb     C7   1237 0.05858200  12.010000   ; qtot 0.500708
 1238         h1     42    bbb    H13   1238 0.06123400   1.008000   ; qtot 0.561942
 1239         h1     42    bbb    H14   1239 0.06123400   1.008000   ; qtot 0.623176
 1240         c3     42    bbb     C8   1240 -0.72423400  12.010000   ; qtot -0.101058
 1241         h1     42    bbb    H15   1241 0.25637600   1.008000   ; qtot 0.155318
 1242         h1     42    bbb    H16   1242 0.25637600   1.008000   ; qtot 0.411694
 1243         c3     42    bbb     C9   1243 -0.72423400  12.010000   ; qtot -0.312540
 1244         h1     42    bbb    H17   1244 0.25637600   1.008000   ; qtot -0.056164
 1245         h1     42    bbb    H18   1245 0.25637600   1.008000   ; qtot 0.200212
 1246         os     42    bbb     O1   1246 -0.20025300  16.000000   ; qtot -0.000041
; residue   43 bbb rtp bbb q -0.0
 1247         n3     43    bbb     N1   1247 -0.59685800  14.010000   ; qtot -0.596899
 1248         c3     43    bbb     C1   1248 0.10137000  12.010000   ; qtot -0.495529
 1249         h1     43    bbb     H1   1249 0.04411300   1.008000   ; qtot -0.451416
 1250         h1     43    bbb     H2   1250 0.04411300   1.008000   ; qtot -0.407303
 1251         c3     43    bbb     C2   1251 0.10137000  12.010000   ; qtot -0.305933
 1252         h1     43    bbb     H3   1252 0.04411300   1.008000   ; qtot -0.261820
 1253         h1     43    bbb     H4   1253 0.04411300   1.008000   ; qtot -0.217707
 1254         c3     43    bbb     C3   1254 -0.00195300  12.010000   ; qtot -0.219660
 1255         h1     43    bbb     H5   1255 0.05064400   1.008000   ; qtot -0.169016
 1256         h1     43    bbb     H6   1256 0.05064400   1.008000   ; qtot -0.118372
 1257         c3     43    bbb     C4   1257 -0.01612100  12.010000   ; qtot -0.134493
 1258         hc     43    bbb     H7   1258 0.04936100   1.008000   ; qtot -0.085132
 1259         hc     43    bbb     H8   1259 0.04936100   1.008000   ; qtot -0.035771
 1260         c3     43    bbb     C5   1260 0.11363000  12.010000   ; qtot 0.077859
 1261         hc     43    bbb     H9   1261 0.06265900   1.008000   ; qtot 0.140518
 1262         hc     43    bbb    H10   1262 0.06265900   1.008000   ; qtot 0.203177
 1263         c3     43    bbb     C6   1263 0.11363000  12.010000   ; qtot 0.316807
 1264         hc     43    bbb    H11   1264 0.06265900   1.008000   ; qtot 0.379466
 1265         hc     43    bbb    H12   1265 0.06265900   1.008000   ; qtot 0.442125
 1266         c3     43    bbb     C7   1266 0.05858200  12.010000   ; qtot 0.500707
 1267         h1     43    bbb    H13   1267 0.06123400   1.008000   ; qtot 0.561941
 1268         h1     43    bbb    H14   1268 0.06123400   1.008000   ; qtot 0.623175
 1269         c3     43    bbb     C8   1269 -0.72423400  12.010000   ; qtot -0.101059
 1270         h1     43    bbb    H15   1270 0.25637600   1.008000   ; qtot 0.155317
 1271         h1     43    bbb    H16   1271 0.25637600   1.008000   ; qtot 0.411693
 1272         c3     43    bbb     C9   1272 -0.72423400  12.010000   ; qtot -0.312541
 1273         h1     43    bbb    H17   1273 0.25637600   1.008000   ; qtot -0.056165
 1274         h1     43    bbb    H18   1274 0.25637600   1.008000   ; qtot 0.200211
 1275         os     43    bbb     O1   1275 -0.20025300  16.000000   ; qtot -0.000042
; residue   44 bbb rtp bbb q -0.0
 1276         n3     44    bbb     N1   1276 -0.59685800  14.010000   ; qtot -0.596900
 1277         c3     44    bbb     C1   1277 0.10137000  12.010000   ; qtot -0.495530
 1278         h1     44    bbb     H1   1278 0.04411300   1.008000   ; qtot -0.451417
 1279         h1     44    bbb     H2   1279 0.04411300   1.008000   ; qtot -0.407304
 1280         c3     44    bbb     C2   1280 0.10137000  12.010000   ; qtot -0.305934
 1281         h1     44    bbb     H3   1281 0.04411300   1.008000   ; qtot -0.261821
 1282         h1     44    bbb     H4   1282 0.04411300   1.008000   ; qtot -0.217708
 1283         c3     44    bbb     C3   1283 -0.00195300  12.010000   ; qtot -0.219661
 1284         h1     44    bbb     H5   1284 0.05064400   1.008000   ; qtot -0.169017
 1285         h1     44    bbb     H6   1285 0.05064400   1.008000   ; qtot -0.118373
 1286         c3     44    bbb     C4   1286 -0.01612100  12.010000   ; qtot -0.134494
 1287         hc     44    bbb     H7   1287 0.04936100   1.008000   ; qtot -0.085133
 1288         hc     44    bbb     H8   1288 0.04936100   1.008000   ; qtot -0.035772
 1289         c3     44    bbb     C5   1289 0.11363000  12.010000   ; qtot 0.077858
 1290         hc     44    bbb     H9   1290 0.06265900   1.008000   ; qtot 0.140517
 1291         hc     44    bbb    H10   1291 0.06265900   1.008000   ; qtot 0.203176
 1292         c3     44    bbb     C6   1292 0.11363000  12.010000   ; qtot 0.316806
 1293         hc     44    bbb    H11   1293 0.06265900   1.008000   ; qtot 0.379465
 1294         hc     44    bbb    H12   1294 0.06265900   1.008000   ; qtot 0.442124
 1295         c3     44    bbb     C7   1295 0.05858200  12.010000   ; qtot 0.500706
 1296         h1     44    bbb    H13   1296 0.06123400   1.008000   ; qtot 0.561940
 1297         h1     44    bbb    H14   1297 0.06123400   1.008000   ; qtot 0.623174
 1298         c3     44    bbb     C8   1298 -0.72423400  12.010000   ; qtot -0.101060
 1299         h1     44    bbb    H15   1299 0.25637600   1.008000   ; qtot 0.155316
 1300         h1     44    bbb    H16   1300 0.25637600   1.008000   ; qtot 0.411692
 1301         c3     44    bbb     C9   1301 -0.72423400  12.010000   ; qtot -0.312542
 1302         h1     44    bbb    H17   1302 0.25637600   1.008000   ; qtot -0.056166
 1303         h1     44    bbb    H18   1303 0.25637600   1.008000   ; qtot 0.200210
 1304         os     44    bbb     O1   1304 -0.20025300  16.000000   ; qtot -0.000043
; residue   45 bbb rtp bbb q -0.0
 1305         n3     45    bbb     N1   1305 -0.59685800  14.010000   ; qtot -0.596901
 1306         c3     45    bbb     C1   1306 0.10137000  12.010000   ; qtot -0.495531
 1307         h1     45    bbb     H1   1307 0.04411300   1.008000   ; qtot -0.451418
 1308         h1     45    bbb     H2   1308 0.04411300   1.008000   ; qtot -0.407305
 1309         c3     45    bbb     C2   1309 0.10137000  12.010000   ; qtot -0.305935
 1310         h1     45    bbb     H3   1310 0.04411300   1.008000   ; qtot -0.261822
 1311         h1     45    bbb     H4   1311 0.04411300   1.008000   ; qtot -0.217709
 1312         c3     45    bbb     C3   1312 -0.00195300  12.010000   ; qtot -0.219662
 1313         h1     45    bbb     H5   1313 0.05064400   1.008000   ; qtot -0.169018
 1314         h1     45    bbb     H6   1314 0.05064400   1.008000   ; qtot -0.118374
 1315         c3     45    bbb     C4   1315 -0.01612100  12.010000   ; qtot -0.134495
 1316         hc     45    bbb     H7   1316 0.04936100   1.008000   ; qtot -0.085134
 1317         hc     45    bbb     H8   1317 0.04936100   1.008000   ; qtot -0.035773
 1318         c3     45    bbb     C5   1318 0.11363000  12.010000   ; qtot 0.077857
 1319         hc     45    bbb     H9   1319 0.06265900   1.008000   ; qtot 0.140516
 1320         hc     45    bbb    H10   1320 0.06265900   1.008000   ; qtot 0.203175
 1321         c3     45    bbb     C6   1321 0.11363000  12.010000   ; qtot 0.316805
 1322         hc     45    bbb    H11   1322 0.06265900   1.008000   ; qtot 0.379464
 1323         hc     45    bbb    H12   1323 0.06265900   1.008000   ; qtot 0.442123
 1324         c3     45    bbb     C7   1324 0.05858200  12.010000   ; qtot 0.500705
 1325         h1     45    bbb    H13   1325 0.06123400   1.008000   ; qtot 0.561939
 1326         h1     45    bbb    H14   1326 0.06123400   1.008000   ; qtot 0.623173
 1327         c3     45    bbb     C8   1327 -0.72423400  12.010000   ; qtot -0.101061
 1328         h1     45    bbb    H15   1328 0.25637600   1.008000   ; qtot 0.155315
 1329         h1     45    bbb    H16   1329 0.25637600   1.008000   ; qtot 0.411691
 1330         c3     45    bbb     C9   1330 -0.72423400  12.010000   ; qtot -0.312543
 1331         h1     45    bbb    H17   1331 0.25637600   1.008000   ; qtot -0.056167
 1332         h1     45    bbb    H18   1332 0.25637600   1.008000   ; qtot 0.200209
 1333         os     45    bbb     O1   1333 -0.20025300  16.000000   ; qtot -0.000044
; residue   46 bbb rtp bbb q -0.0
 1334         n3     46    bbb     N1   1334 -0.59685800  14.010000   ; qtot -0.596902
 1335         c3     46    bbb     C1   1335 0.10137000  12.010000   ; qtot -0.495532
 1336         h1     46    bbb     H1   1336 0.04411300   1.008000   ; qtot -0.451419
 1337         h1     46    bbb     H2   1337 0.04411300   1.008000   ; qtot -0.407306
 1338         c3     46    bbb     C2   1338 0.10137000  12.010000   ; qtot -0.305936
 1339         h1     46    bbb     H3   1339 0.04411300   1.008000   ; qtot -0.261823
 1340         h1     46    bbb     H4   1340 0.04411300   1.008000   ; qtot -0.217710
 1341         c3     46    bbb     C3   1341 -0.00195300  12.010000   ; qtot -0.219663
 1342         h1     46    bbb     H5   1342 0.05064400   1.008000   ; qtot -0.169019
 1343         h1     46    bbb     H6   1343 0.05064400   1.008000   ; qtot -0.118375
 1344         c3     46    bbb     C4   1344 -0.01612100  12.010000   ; qtot -0.134496
 1345         hc     46    bbb     H7   1345 0.04936100   1.008000   ; qtot -0.085135
 1346         hc     46    bbb     H8   1346 0.04936100   1.008000   ; qtot -0.035774
 1347         c3     46    bbb     C5   1347 0.11363000  12.010000   ; qtot 0.077856
 1348         hc     46    bbb     H9   1348 0.06265900   1.008000   ; qtot 0.140515
 1349         hc     46    bbb    H10   1349 0.06265900   1.008000   ; qtot 0.203174
 1350         c3     46    bbb     C6   1350 0.11363000  12.010000   ; qtot 0.316804
 1351         hc     46    bbb    H11   1351 0.06265900   1.008000   ; qtot 0.379463
 1352         hc     46    bbb    H12   1352 0.06265900   1.008000   ; qtot 0.442122
 1353         c3     46    bbb     C7   1353 0.05858200  12.010000   ; qtot 0.500704
 1354         h1     46    bbb    H13   1354 0.06123400   1.008000   ; qtot 0.561938
 1355         h1     46    bbb    H14   1355 0.06123400   1.008000   ; qtot 0.623172
 1356         c3     46    bbb     C8   1356 -0.72423400  12.010000   ; qtot -0.101062
 1357         h1     46    bbb    H15   1357 0.25637600   1.008000   ; qtot 0.155314
 1358         h1     46    bbb    H16   1358 0.25637600   1.008000   ; qtot 0.411690
 1359         c3     46    bbb     C9   1359 -0.72423400  12.010000   ; qtot -0.312544
 1360         h1     46    bbb    H17   1360 0.25637600   1.008000   ; qtot -0.056168
 1361         h1     46    bbb    H18   1361 0.25637600   1.008000   ; qtot 0.200208
 1362         os     46    bbb     O1   1362 -0.20025300  16.000000   ; qtot -0.000045
; residue   47 bbb rtp bbb q -0.0
 1363         n3     47    bbb     N1   1363 -0.59685800  14.010000   ; qtot -0.596903
 1364         c3     47    bbb     C1   1364 0.10137000  12.010000   ; qtot -0.495533
 1365         h1     47    bbb     H1   1365 0.04411300   1.008000   ; qtot -0.451420
 1366         h1     47    bbb     H2   1366 0.04411300   1.008000   ; qtot -0.407307
 1367         c3     47    bbb     C2   1367 0.10137000  12.010000   ; qtot -0.305937
 1368         h1     47    bbb     H3   1368 0.04411300   1.008000   ; qtot -0.261824
 1369         h1     47    bbb     H4   1369 0.04411300   1.008000   ; qtot -0.217711
 1370         c3     47    bbb     C3   1370 -0.00195300  12.010000   ; qtot -0.219664
 1371         h1     47    bbb     H5   1371 0.05064400   1.008000   ; qtot -0.169020
 1372         h1     47    bbb     H6   1372 0.05064400   1.008000   ; qtot -0.118376
 1373         c3     47    bbb     C4   1373 -0.01612100  12.010000   ; qtot -0.134497
 1374         hc     47    bbb     H7   1374 0.04936100   1.008000   ; qtot -0.085136
 1375         hc     47    bbb     H8   1375 0.04936100   1.008000   ; qtot -0.035775
 1376         c3     47    bbb     C5   1376 0.11363000  12.010000   ; qtot 0.077855
 1377         hc     47    bbb     H9   1377 0.06265900   1.008000   ; qtot 0.140514
 1378         hc     47    bbb    H10   1378 0.06265900   1.008000   ; qtot 0.203173
 1379         c3     47    bbb     C6   1379 0.11363000  12.010000   ; qtot 0.316803
 1380         hc     47    bbb    H11   1380 0.06265900   1.008000   ; qtot 0.379462
 1381         hc     47    bbb    H12   1381 0.06265900   1.008000   ; qtot 0.442121
 1382         c3     47    bbb     C7   1382 0.05858200  12.010000   ; qtot 0.500703
 1383         h1     47    bbb    H13   1383 0.06123400   1.008000   ; qtot 0.561937
 1384         h1     47    bbb    H14   1384 0.06123400   1.008000   ; qtot 0.623171
 1385         c3     47    bbb     C8   1385 -0.72423400  12.010000   ; qtot -0.101063
 1386         h1     47    bbb    H15   1386 0.25637600   1.008000   ; qtot 0.155313
 1387         h1     47    bbb    H16   1387 0.25637600   1.008000   ; qtot 0.411689
 1388         c3     47    bbb     C9   1388 -0.72423400  12.010000   ; qtot -0.312545
 1389         h1     47    bbb    H17   1389 0.25637600   1.008000   ; qtot -0.056169
 1390         h1     47    bbb    H18   1390 0.25637600   1.008000   ; qtot 0.200207
 1391         os     47    bbb     O1   1391 -0.20025300  16.000000   ; qtot -0.000046
; residue   48 bbb rtp bbb q -0.0
 1392         n3     48    bbb     N1   1392 -0.59685800  14.010000   ; qtot -0.596904
 1393         c3     48    bbb     C1   1393 0.10137000  12.010000   ; qtot -0.495534
 1394         h1     48    bbb     H1   1394 0.04411300   1.008000   ; qtot -0.451421
 1395         h1     48    bbb     H2   1395 0.04411300   1.008000   ; qtot -0.407308
 1396         c3     48    bbb     C2   1396 0.10137000  12.010000   ; qtot -0.305938
 1397         h1     48    bbb     H3   1397 0.04411300   1.008000   ; qtot -0.261825
 1398         h1     48    bbb     H4   1398 0.04411300   1.008000   ; qtot -0.217712
 1399         c3     48    bbb     C3   1399 -0.00195300  12.010000   ; qtot -0.219665
 1400         h1     48    bbb     H5   1400 0.05064400   1.008000   ; qtot -0.169021
 1401         h1     48    bbb     H6   1401 0.05064400   1.008000   ; qtot -0.118377
 1402         c3     48    bbb     C4   1402 -0.01612100  12.010000   ; qtot -0.134498
 1403         hc     48    bbb     H7   1403 0.04936100   1.008000   ; qtot -0.085137
 1404         hc     48    bbb     H8   1404 0.04936100   1.008000   ; qtot -0.035776
 1405         c3     48    bbb     C5   1405 0.11363000  12.010000   ; qtot 0.077854
 1406         hc     48    bbb     H9   1406 0.06265900   1.008000   ; qtot 0.140513
 1407         hc     48    bbb    H10   1407 0.06265900   1.008000   ; qtot 0.203172
 1408         c3     48    bbb     C6   1408 0.11363000  12.010000   ; qtot 0.316802
 1409         hc     48    bbb    H11   1409 0.06265900   1.008000   ; qtot 0.379461
 1410         hc     48    bbb    H12   1410 0.06265900   1.008000   ; qtot 0.442120
 1411         c3     48    bbb     C7   1411 0.05858200  12.010000   ; qtot 0.500702
 1412         h1     48    bbb    H13   1412 0.06123400   1.008000   ; qtot 0.561936
 1413         h1     48    bbb    H14   1413 0.06123400   1.008000   ; qtot 0.623170
 1414         c3     48    bbb     C8   1414 -0.72423400  12.010000   ; qtot -0.101064
 1415         h1     48    bbb    H15   1415 0.25637600   1.008000   ; qtot 0.155312
 1416         h1     48    bbb    H16   1416 0.25637600   1.008000   ; qtot 0.411688
 1417         c3     48    bbb     C9   1417 -0.72423400  12.010000   ; qtot -0.312546
 1418         h1     48    bbb    H17   1418 0.25637600   1.008000   ; qtot -0.056170
 1419         h1     48    bbb    H18   1419 0.25637600   1.008000   ; qtot 0.200206
 1420         os     48    bbb     O1   1420 -0.20025300  16.000000   ; qtot -0.000047
; residue   49 bbb rtp bbb q -0.0
 1421         n3     49    bbb     N1   1421 -0.59685800  14.010000   ; qtot -0.596905
 1422         c3     49    bbb     C1   1422 0.10137000  12.010000   ; qtot -0.495535
 1423         h1     49    bbb     H1   1423 0.04411300   1.008000   ; qtot -0.451422
 1424         h1     49    bbb     H2   1424 0.04411300   1.008000   ; qtot -0.407309
 1425         c3     49    bbb     C2   1425 0.10137000  12.010000   ; qtot -0.305939
 1426         h1     49    bbb     H3   1426 0.04411300   1.008000   ; qtot -0.261826
 1427         h1     49    bbb     H4   1427 0.04411300   1.008000   ; qtot -0.217713
 1428         c3     49    bbb     C3   1428 -0.00195300  12.010000   ; qtot -0.219666
 1429         h1     49    bbb     H5   1429 0.05064400   1.008000   ; qtot -0.169022
 1430         h1     49    bbb     H6   1430 0.05064400   1.008000   ; qtot -0.118378
 1431         c3     49    bbb     C4   1431 -0.01612100  12.010000   ; qtot -0.134499
 1432         hc     49    bbb     H7   1432 0.04936100   1.008000   ; qtot -0.085138
 1433         hc     49    bbb     H8   1433 0.04936100   1.008000   ; qtot -0.035777
 1434         c3     49    bbb     C5   1434 0.11363000  12.010000   ; qtot 0.077853
 1435         hc     49    bbb     H9   1435 0.06265900   1.008000   ; qtot 0.140512
 1436         hc     49    bbb    H10   1436 0.06265900   1.008000   ; qtot 0.203171
 1437         c3     49    bbb     C6   1437 0.11363000  12.010000   ; qtot 0.316801
 1438         hc     49    bbb    H11   1438 0.06265900   1.008000   ; qtot 0.379460
 1439         hc     49    bbb    H12   1439 0.06265900   1.008000   ; qtot 0.442119
 1440         c3     49    bbb     C7   1440 0.05858200  12.010000   ; qtot 0.500701
 1441         h1     49    bbb    H13   1441 0.06123400   1.008000   ; qtot 0.561935
 1442         h1     49    bbb    H14   1442 0.06123400   1.008000   ; qtot 0.623169
 1443         c3     49    bbb     C8   1443 -0.72423400  12.010000   ; qtot -0.101065
 1444         h1     49    bbb    H15   1444 0.25637600   1.008000   ; qtot 0.155311
 1445         h1     49    bbb    H16   1445 0.25637600   1.008000   ; qtot 0.411687
 1446         c3     49    bbb     C9   1446 -0.72423400  12.010000   ; qtot -0.312547
 1447         h1     49    bbb    H17   1447 0.25637600   1.008000   ; qtot -0.056171
 1448         h1     49    bbb    H18   1448 0.25637600   1.008000   ; qtot 0.200205
 1449         os     49    bbb     O1   1449 -0.20025300  16.000000   ; qtot -0.000048
; residue   50 bbb rtp bbb q -0.0
 1450         n3     50    bbb     N1   1450 -0.59685800  14.010000   ; qtot -0.596906
 1451         c3     50    bbb     C1   1451 0.10137000  12.010000   ; qtot -0.495536
 1452         h1     50    bbb     H1   1452 0.04411300   1.008000   ; qtot -0.451423
 1453         h1     50    bbb     H2   1453 0.04411300   1.008000   ; qtot -0.407310
 1454         c3     50    bbb     C2   1454 0.10137000  12.010000   ; qtot -0.305940
 1455         h1     50    bbb     H3   1455 0.04411300   1.008000   ; qtot -0.261827
 1456         h1     50    bbb     H4   1456 0.04411300   1.008000   ; qtot -0.217714
 1457         c3     50    bbb     C3   1457 -0.00195300  12.010000   ; qtot -0.219667
 1458         h1     50    bbb     H5   1458 0.05064400   1.008000   ; qtot -0.169023
 1459         h1     50    bbb     H6   1459 0.05064400   1.008000   ; qtot -0.118379
 1460         c3     50    bbb     C4   1460 -0.01612100  12.010000   ; qtot -0.134500
 1461         hc     50    bbb     H7   1461 0.04936100   1.008000   ; qtot -0.085139
 1462         hc     50    bbb     H8   1462 0.04936100   1.008000   ; qtot -0.035778
 1463         c3     50    bbb     C5   1463 0.11363000  12.010000   ; qtot 0.077852
 1464         hc     50    bbb     H9   1464 0.06265900   1.008000   ; qtot 0.140511
 1465         hc     50    bbb    H10   1465 0.06265900   1.008000   ; qtot 0.203170
 1466         c3     50    bbb     C6   1466 0.11363000  12.010000   ; qtot 0.316800
 1467         hc     50    bbb    H11   1467 0.06265900   1.008000   ; qtot 0.379459
 1468         hc     50    bbb    H12   1468 0.06265900   1.008000   ; qtot 0.442118
 1469         c3     50    bbb     C7   1469 0.05858200  12.010000   ; qtot 0.500700
 1470         h1     50    bbb    H13   1470 0.06123400   1.008000   ; qtot 0.561934
 1471         h1     50    bbb    H14   1471 0.06123400   1.008000   ; qtot 0.623168
 1472         c3     50    bbb     C8   1472 -0.72423400  12.010000   ; qtot -0.101066
 1473         h1     50    bbb    H15   1473 0.25637600   1.008000   ; qtot 0.155310
 1474         h1     50    bbb    H16   1474 0.25637600   1.008000   ; qtot 0.411686
 1475         c3     50    bbb     C9   1475 -0.72423400  12.010000   ; qtot -0.312548
 1476         h1     50    bbb    H17   1476 0.25637600   1.008000   ; qtot -0.056172
 1477         h1     50    bbb    H18   1477 0.25637600   1.008000   ; qtot 0.200204
 1478         os     50    bbb     O1   1478 -0.20025300  16.000000   ; qtot -0.000049
; residue   51 bbb rtp bbb q -0.0
 1479         n3     51    bbb     N1   1479 -0.59685800  14.010000   ; qtot -0.596907
 1480         c3     51    bbb     C1   1480 0.10137000  12.010000   ; qtot -0.495537
 1481         h1     51    bbb     H1   1481 0.04411300   1.008000   ; qtot -0.451424
 1482         h1     51    bbb     H2   1482 0.04411300   1.008000   ; qtot -0.407311
 1483         c3     51    bbb     C2   1483 0.10137000  12.010000   ; qtot -0.305941
 1484         h1     51    bbb     H3   1484 0.04411300   1.008000   ; qtot -0.261828
 1485         h1     51    bbb     H4   1485 0.04411300   1.008000   ; qtot -0.217715
 1486         c3     51    bbb     C3   1486 -0.00195300  12.010000   ; qtot -0.219668
 1487         h1     51    bbb     H5   1487 0.05064400   1.008000   ; qtot -0.169024
 1488         h1     51    bbb     H6   1488 0.05064400   1.008000   ; qtot -0.118380
 1489         c3     51    bbb     C4   1489 -0.01612100  12.010000   ; qtot -0.134501
 1490         hc     51    bbb     H7   1490 0.04936100   1.008000   ; qtot -0.085140
 1491         hc     51    bbb     H8   1491 0.04936100   1.008000   ; qtot -0.035779
 1492         c3     51    bbb     C5   1492 0.11363000  12.010000   ; qtot 0.077851
 1493         hc     51    bbb     H9   1493 0.06265900   1.008000   ; qtot 0.140510
 1494         hc     51    bbb    H10   1494 0.06265900   1.008000   ; qtot 0.203169
 1495         c3     51    bbb     C6   1495 0.11363000  12.010000   ; qtot 0.316799
 1496         hc     51    bbb    H11   1496 0.06265900   1.008000   ; qtot 0.379458
 1497         hc     51    bbb    H12   1497 0.06265900   1.008000   ; qtot 0.442117
 1498         c3     51    bbb     C7   1498 0.05858200  12.010000   ; qtot 0.500699
 1499         h1     51    bbb    H13   1499 0.06123400   1.008000   ; qtot 0.561933
 1500         h1     51    bbb    H14   1500 0.06123400   1.008000   ; qtot 0.623167
 1501         c3     51    bbb     C8   1501 -0.72423400  12.010000   ; qtot -0.101067
 1502         h1     51    bbb    H15   1502 0.25637600   1.008000   ; qtot 0.155309
 1503         h1     51    bbb    H16   1503 0.25637600   1.008000   ; qtot 0.411685
 1504         c3     51    bbb     C9   1504 -0.72423400  12.010000   ; qtot -0.312549
 1505         h1     51    bbb    H17   1505 0.25637600   1.008000   ; qtot -0.056173
 1506         h1     51    bbb    H18   1506 0.25637600   1.008000   ; qtot 0.200203
 1507         os     51    bbb     O1   1507 -0.20025300  16.000000   ; qtot -0.000050
; residue   52 bbb rtp bbb q -0.0
 1508         n3     52    bbb     N1   1508 -0.59685800  14.010000   ; qtot -0.596908
 1509         c3     52    bbb     C1   1509 0.10137000  12.010000   ; qtot -0.495538
 1510         h1     52    bbb     H1   1510 0.04411300   1.008000   ; qtot -0.451425
 1511         h1     52    bbb     H2   1511 0.04411300   1.008000   ; qtot -0.407312
 1512         c3     52    bbb     C2   1512 0.10137000  12.010000   ; qtot -0.305942
 1513         h1     52    bbb     H3   1513 0.04411300   1.008000   ; qtot -0.261829
 1514         h1     52    bbb     H4   1514 0.04411300   1.008000   ; qtot -0.217716
 1515         c3     52    bbb     C3   1515 -0.00195300  12.010000   ; qtot -0.219669
 1516         h1     52    bbb     H5   1516 0.05064400   1.008000   ; qtot -0.169025
 1517         h1     52    bbb     H6   1517 0.05064400   1.008000   ; qtot -0.118381
 1518         c3     52    bbb     C4   1518 -0.01612100  12.010000   ; qtot -0.134502
 1519         hc     52    bbb     H7   1519 0.04936100   1.008000   ; qtot -0.085141
 1520         hc     52    bbb     H8   1520 0.04936100   1.008000   ; qtot -0.035780
 1521         c3     52    bbb     C5   1521 0.11363000  12.010000   ; qtot 0.077850
 1522         hc     52    bbb     H9   1522 0.06265900   1.008000   ; qtot 0.140509
 1523         hc     52    bbb    H10   1523 0.06265900   1.008000   ; qtot 0.203168
 1524         c3     52    bbb     C6   1524 0.11363000  12.010000   ; qtot 0.316798
 1525         hc     52    bbb    H11   1525 0.06265900   1.008000   ; qtot 0.379457
 1526         hc     52    bbb    H12   1526 0.06265900   1.008000   ; qtot 0.442116
 1527         c3     52    bbb     C7   1527 0.05858200  12.010000   ; qtot 0.500698
 1528         h1     52    bbb    H13   1528 0.06123400   1.008000   ; qtot 0.561932
 1529         h1     52    bbb    H14   1529 0.06123400   1.008000   ; qtot 0.623166
 1530         c3     52    bbb     C8   1530 -0.72423400  12.010000   ; qtot -0.101068
 1531         h1     52    bbb    H15   1531 0.25637600   1.008000   ; qtot 0.155308
 1532         h1     52    bbb    H16   1532 0.25637600   1.008000   ; qtot 0.411684
 1533         c3     52    bbb     C9   1533 -0.72423400  12.010000   ; qtot -0.312550
 1534         h1     52    bbb    H17   1534 0.25637600   1.008000   ; qtot -0.056174
 1535         h1     52    bbb    H18   1535 0.25637600   1.008000   ; qtot 0.200202
 1536         os     52    bbb     O1   1536 -0.20025300  16.000000   ; qtot -0.000051
; residue   53 bbb rtp bbb q -0.0
 1537         n3     53    bbb     N1   1537 -0.59685800  14.010000   ; qtot -0.596909
 1538         c3     53    bbb     C1   1538 0.10137000  12.010000   ; qtot -0.495539
 1539         h1     53    bbb     H1   1539 0.04411300   1.008000   ; qtot -0.451426
 1540         h1     53    bbb     H2   1540 0.04411300   1.008000   ; qtot -0.407313
 1541         c3     53    bbb     C2   1541 0.10137000  12.010000   ; qtot -0.305943
 1542         h1     53    bbb     H3   1542 0.04411300   1.008000   ; qtot -0.261830
 1543         h1     53    bbb     H4   1543 0.04411300   1.008000   ; qtot -0.217717
 1544         c3     53    bbb     C3   1544 -0.00195300  12.010000   ; qtot -0.219670
 1545         h1     53    bbb     H5   1545 0.05064400   1.008000   ; qtot -0.169026
 1546         h1     53    bbb     H6   1546 0.05064400   1.008000   ; qtot -0.118382
 1547         c3     53    bbb     C4   1547 -0.01612100  12.010000   ; qtot -0.134503
 1548         hc     53    bbb     H7   1548 0.04936100   1.008000   ; qtot -0.085142
 1549         hc     53    bbb     H8   1549 0.04936100   1.008000   ; qtot -0.035781
 1550         c3     53    bbb     C5   1550 0.11363000  12.010000   ; qtot 0.077849
 1551         hc     53    bbb     H9   1551 0.06265900   1.008000   ; qtot 0.140508
 1552         hc     53    bbb    H10   1552 0.06265900   1.008000   ; qtot 0.203167
 1553         c3     53    bbb     C6   1553 0.11363000  12.010000   ; qtot 0.316797
 1554         hc     53    bbb    H11   1554 0.06265900   1.008000   ; qtot 0.379456
 1555         hc     53    bbb    H12   1555 0.06265900   1.008000   ; qtot 0.442115
 1556         c3     53    bbb     C7   1556 0.05858200  12.010000   ; qtot 0.500697
 1557         h1     53    bbb    H13   1557 0.06123400   1.008000   ; qtot 0.561931
 1558         h1     53    bbb    H14   1558 0.06123400   1.008000   ; qtot 0.623165
 1559         c3     53    bbb     C8   1559 -0.72423400  12.010000   ; qtot -0.101069
 1560         h1     53    bbb    H15   1560 0.25637600   1.008000   ; qtot 0.155307
 1561         h1     53    bbb    H16   1561 0.25637600   1.008000   ; qtot 0.411683
 1562         c3     53    bbb     C9   1562 -0.72423400  12.010000   ; qtot -0.312551
 1563         h1     53    bbb    H17   1563 0.25637600   1.008000   ; qtot -0.056175
 1564         h1     53    bbb    H18   1564 0.25637600   1.008000   ; qtot 0.200201
 1565         os     53    bbb     O1   1565 -0.20025300  16.000000   ; qtot -0.000052
; residue   54 bbb rtp bbb q -0.0
 1566         n3     54    bbb     N1   1566 -0.59685800  14.010000   ; qtot -0.596910
 1567         c3     54    bbb     C1   1567 0.10137000  12.010000   ; qtot -0.495540
 1568         h1     54    bbb     H1   1568 0.04411300   1.008000   ; qtot -0.451427
 1569         h1     54    bbb     H2   1569 0.04411300   1.008000   ; qtot -0.407314
 1570         c3     54    bbb     C2   1570 0.10137000  12.010000   ; qtot -0.305944
 1571         h1     54    bbb     H3   1571 0.04411300   1.008000   ; qtot -0.261831
 1572         h1     54    bbb     H4   1572 0.04411300   1.008000   ; qtot -0.217718
 1573         c3     54    bbb     C3   1573 -0.00195300  12.010000   ; qtot -0.219671
 1574         h1     54    bbb     H5   1574 0.05064400   1.008000   ; qtot -0.169027
 1575         h1     54    bbb     H6   1575 0.05064400   1.008000   ; qtot -0.118383
 1576         c3     54    bbb     C4   1576 -0.01612100  12.010000   ; qtot -0.134504
 1577         hc     54    bbb     H7   1577 0.04936100   1.008000   ; qtot -0.085143
 1578         hc     54    bbb     H8   1578 0.04936100   1.008000   ; qtot -0.035782
 1579         c3     54    bbb     C5   1579 0.11363000  12.010000   ; qtot 0.077848
 1580         hc     54    bbb     H9   1580 0.06265900   1.008000   ; qtot 0.140507
 1581         hc     54    bbb    H10   1581 0.06265900   1.008000   ; qtot 0.203166
 1582         c3     54    bbb     C6   1582 0.11363000  12.010000   ; qtot 0.316796
 1583         hc     54    bbb    H11   1583 0.06265900   1.008000   ; qtot 0.379455
 1584         hc     54    bbb    H12   1584 0.06265900   1.008000   ; qtot 0.442114
 1585         c3     54    bbb     C7   1585 0.05858200  12.010000   ; qtot 0.500696
 1586         h1     54    bbb    H13   1586 0.06123400   1.008000   ; qtot 0.561930
 1587         h1     54    bbb    H14   1587 0.06123400   1.008000   ; qtot 0.623164
 1588         c3     54    bbb     C8   1588 -0.72423400  12.010000   ; qtot -0.101070
 1589         h1     54    bbb    H15   1589 0.25637600   1.008000   ; qtot 0.155306
 1590         h1     54    bbb    H16   1590 0.25637600   1.008000   ; qtot 0.411682
 1591         c3     54    bbb     C9   1591 -0.72423400  12.010000   ; qtot -0.312552
 1592         h1     54    bbb    H17   1592 0.25637600   1.008000   ; qtot -0.056176
 1593         h1     54    bbb    H18   1593 0.25637600   1.008000   ; qtot 0.200200
 1594         os     54    bbb     O1   1594 -0.20025300  16.000000   ; qtot -0.000053
; residue   55 bbb rtp bbb q -0.0
 1595         n3     55    bbb     N1   1595 -0.59685800  14.010000   ; qtot -0.596911
 1596         c3     55    bbb     C1   1596 0.10137000  12.010000   ; qtot -0.495541
 1597         h1     55    bbb     H1   1597 0.04411300   1.008000   ; qtot -0.451428
 1598         h1     55    bbb     H2   1598 0.04411300   1.008000   ; qtot -0.407315
 1599         c3     55    bbb     C2   1599 0.10137000  12.010000   ; qtot -0.305945
 1600         h1     55    bbb     H3   1600 0.04411300   1.008000   ; qtot -0.261832
 1601         h1     55    bbb     H4   1601 0.04411300   1.008000   ; qtot -0.217719
 1602         c3     55    bbb     C3   1602 -0.00195300  12.010000   ; qtot -0.219672
 1603         h1     55    bbb     H5   1603 0.05064400   1.008000   ; qtot -0.169028
 1604         h1     55    bbb     H6   1604 0.05064400   1.008000   ; qtot -0.118384
 1605         c3     55    bbb     C4   1605 -0.01612100  12.010000   ; qtot -0.134505
 1606         hc     55    bbb     H7   1606 0.04936100   1.008000   ; qtot -0.085144
 1607         hc     55    bbb     H8   1607 0.04936100   1.008000   ; qtot -0.035783
 1608         c3     55    bbb     C5   1608 0.11363000  12.010000   ; qtot 0.077847
 1609         hc     55    bbb     H9   1609 0.06265900   1.008000   ; qtot 0.140506
 1610         hc     55    bbb    H10   1610 0.06265900   1.008000   ; qtot 0.203165
 1611         c3     55    bbb     C6   1611 0.11363000  12.010000   ; qtot 0.316795
 1612         hc     55    bbb    H11   1612 0.06265900   1.008000   ; qtot 0.379454
 1613         hc     55    bbb    H12   1613 0.06265900   1.008000   ; qtot 0.442113
 1614         c3     55    bbb     C7   1614 0.05858200  12.010000   ; qtot 0.500695
 1615         h1     55    bbb    H13   1615 0.06123400   1.008000   ; qtot 0.561929
 1616         h1     55    bbb    H14   1616 0.06123400   1.008000   ; qtot 0.623163
 1617         c3     55    bbb     C8   1617 -0.72423400  12.010000   ; qtot -0.101071
 1618         h1     55    bbb    H15   1618 0.25637600   1.008000   ; qtot 0.155305
 1619         h1     55    bbb    H16   1619 0.25637600   1.008000   ; qtot 0.411681
 1620         c3     55    bbb     C9   1620 -0.72423400  12.010000   ; qtot -0.312553
 1621         h1     55    bbb    H17   1621 0.25637600   1.008000   ; qtot -0.056177
 1622         h1     55    bbb    H18   1622 0.25637600   1.008000   ; qtot 0.200199
 1623         os     55    bbb     O1   1623 -0.20025300  16.000000   ; qtot -0.000054
; residue   56 bbb rtp bbb q -0.0
 1624         n3     56    bbb     N1   1624 -0.59685800  14.010000   ; qtot -0.596912
 1625         c3     56    bbb     C1   1625 0.10137000  12.010000   ; qtot -0.495542
 1626         h1     56    bbb     H1   1626 0.04411300   1.008000   ; qtot -0.451429
 1627         h1     56    bbb     H2   1627 0.04411300   1.008000   ; qtot -0.407316
 1628         c3     56    bbb     C2   1628 0.10137000  12.010000   ; qtot -0.305946
 1629         h1     56    bbb     H3   1629 0.04411300   1.008000   ; qtot -0.261833
 1630         h1     56    bbb     H4   1630 0.04411300   1.008000   ; qtot -0.217720
 1631         c3     56    bbb     C3   1631 -0.00195300  12.010000   ; qtot -0.219673
 1632         h1     56    bbb     H5   1632 0.05064400   1.008000   ; qtot -0.169029
 1633         h1     56    bbb     H6   1633 0.05064400   1.008000   ; qtot -0.118385
 1634         c3     56    bbb     C4   1634 -0.01612100  12.010000   ; qtot -0.134506
 1635         hc     56    bbb     H7   1635 0.04936100   1.008000   ; qtot -0.085145
 1636         hc     56    bbb     H8   1636 0.04936100   1.008000   ; qtot -0.035784
 1637         c3     56    bbb     C5   1637 0.11363000  12.010000   ; qtot 0.077846
 1638         hc     56    bbb     H9   1638 0.06265900   1.008000   ; qtot 0.140505
 1639         hc     56    bbb    H10   1639 0.06265900   1.008000   ; qtot 0.203164
 1640         c3     56    bbb     C6   1640 0.11363000  12.010000   ; qtot 0.316794
 1641         hc     56    bbb    H11   1641 0.06265900   1.008000   ; qtot 0.379453
 1642         hc     56    bbb    H12   1642 0.06265900   1.008000   ; qtot 0.442112
 1643         c3     56    bbb     C7   1643 0.05858200  12.010000   ; qtot 0.500694
 1644         h1     56    bbb    H13   1644 0.06123400   1.008000   ; qtot 0.561928
 1645         h1     56    bbb    H14   1645 0.06123400   1.008000   ; qtot 0.623162
 1646         c3     56    bbb     C8   1646 -0.72423400  12.010000   ; qtot -0.101072
 1647         h1     56    bbb    H15   1647 0.25637600   1.008000   ; qtot 0.155304
 1648         h1     56    bbb    H16   1648 0.25637600   1.008000   ; qtot 0.411680
 1649         c3     56    bbb     C9   1649 -0.72423400  12.010000   ; qtot -0.312554
 1650         h1     56    bbb    H17   1650 0.25637600   1.008000   ; qtot -0.056178
 1651         h1     56    bbb    H18   1651 0.25637600   1.008000   ; qtot 0.200198
 1652         os     56    bbb     O1   1652 -0.20025300  16.000000   ; qtot -0.000055
; residue   57 bbb rtp bbb q -0.0
 1653         n3     57    bbb     N1   1653 -0.59685800  14.010000   ; qtot -0.596913
 1654         c3     57    bbb     C1   1654 0.10137000  12.010000   ; qtot -0.495543
 1655         h1     57    bbb     H1   1655 0.04411300   1.008000   ; qtot -0.451430
 1656         h1     57    bbb     H2   1656 0.04411300   1.008000   ; qtot -0.407317
 1657         c3     57    bbb     C2   1657 0.10137000  12.010000   ; qtot -0.305947
 1658         h1     57    bbb     H3   1658 0.04411300   1.008000   ; qtot -0.261834
 1659         h1     57    bbb     H4   1659 0.04411300   1.008000   ; qtot -0.217721
 1660         c3     57    bbb     C3   1660 -0.00195300  12.010000   ; qtot -0.219674
 1661         h1     57    bbb     H5   1661 0.05064400   1.008000   ; qtot -0.169030
 1662         h1     57    bbb     H6   1662 0.05064400   1.008000   ; qtot -0.118386
 1663         c3     57    bbb     C4   1663 -0.01612100  12.010000   ; qtot -0.134507
 1664         hc     57    bbb     H7   1664 0.04936100   1.008000   ; qtot -0.085146
 1665         hc     57    bbb     H8   1665 0.04936100   1.008000   ; qtot -0.035785
 1666         c3     57    bbb     C5   1666 0.11363000  12.010000   ; qtot 0.077845
 1667         hc     57    bbb     H9   1667 0.06265900   1.008000   ; qtot 0.140504
 1668         hc     57    bbb    H10   1668 0.06265900   1.008000   ; qtot 0.203163
 1669         c3     57    bbb     C6   1669 0.11363000  12.010000   ; qtot 0.316793
 1670         hc     57    bbb    H11   1670 0.06265900   1.008000   ; qtot 0.379452
 1671         hc     57    bbb    H12   1671 0.06265900   1.008000   ; qtot 0.442111
 1672         c3     57    bbb     C7   1672 0.05858200  12.010000   ; qtot 0.500693
 1673         h1     57    bbb    H13   1673 0.06123400   1.008000   ; qtot 0.561927
 1674         h1     57    bbb    H14   1674 0.06123400   1.008000   ; qtot 0.623161
 1675         c3     57    bbb     C8   1675 -0.72423400  12.010000   ; qtot -0.101073
 1676         h1     57    bbb    H15   1676 0.25637600   1.008000   ; qtot 0.155303
 1677         h1     57    bbb    H16   1677 0.25637600   1.008000   ; qtot 0.411679
 1678         c3     57    bbb     C9   1678 -0.72423400  12.010000   ; qtot -0.312555
 1679         h1     57    bbb    H17   1679 0.25637600   1.008000   ; qtot -0.056179
 1680         h1     57    bbb    H18   1680 0.25637600   1.008000   ; qtot 0.200197
 1681         os     57    bbb     O1   1681 -0.20025300  16.000000   ; qtot -0.000056
; residue   58 bbb rtp bbb q -0.0
 1682         n3     58    bbb     N1   1682 -0.59685800  14.010000   ; qtot -0.596914
 1683         c3     58    bbb     C1   1683 0.10137000  12.010000   ; qtot -0.495544
 1684         h1     58    bbb     H1   1684 0.04411300   1.008000   ; qtot -0.451431
 1685         h1     58    bbb     H2   1685 0.04411300   1.008000   ; qtot -0.407318
 1686         c3     58    bbb     C2   1686 0.10137000  12.010000   ; qtot -0.305948
 1687         h1     58    bbb     H3   1687 0.04411300   1.008000   ; qtot -0.261835
 1688         h1     58    bbb     H4   1688 0.04411300   1.008000   ; qtot -0.217722
 1689         c3     58    bbb     C3   1689 -0.00195300  12.010000   ; qtot -0.219675
 1690         h1     58    bbb     H5   1690 0.05064400   1.008000   ; qtot -0.169031
 1691         h1     58    bbb     H6   1691 0.05064400   1.008000   ; qtot -0.118387
 1692         c3     58    bbb     C4   1692 -0.01612100  12.010000   ; qtot -0.134508
 1693         hc     58    bbb     H7   1693 0.04936100   1.008000   ; qtot -0.085147
 1694         hc     58    bbb     H8   1694 0.04936100   1.008000   ; qtot -0.035786
 1695         c3     58    bbb     C5   1695 0.11363000  12.010000   ; qtot 0.077844
 1696         hc     58    bbb     H9   1696 0.06265900   1.008000   ; qtot 0.140503
 1697         hc     58    bbb    H10   1697 0.06265900   1.008000   ; qtot 0.203162
 1698         c3     58    bbb     C6   1698 0.11363000  12.010000   ; qtot 0.316792
 1699         hc     58    bbb    H11   1699 0.06265900   1.008000   ; qtot 0.379451
 1700         hc     58    bbb    H12   1700 0.06265900   1.008000   ; qtot 0.442110
 1701         c3     58    bbb     C7   1701 0.05858200  12.010000   ; qtot 0.500692
 1702         h1     58    bbb    H13   1702 0.06123400   1.008000   ; qtot 0.561926
 1703         h1     58    bbb    H14   1703 0.06123400   1.008000   ; qtot 0.623160
 1704         c3     58    bbb     C8   1704 -0.72423400  12.010000   ; qtot -0.101074
 1705         h1     58    bbb    H15   1705 0.25637600   1.008000   ; qtot 0.155302
 1706         h1     58    bbb    H16   1706 0.25637600   1.008000   ; qtot 0.411678
 1707         c3     58    bbb     C9   1707 -0.72423400  12.010000   ; qtot -0.312556
 1708         h1     58    bbb    H17   1708 0.25637600   1.008000   ; qtot -0.056180
 1709         h1     58    bbb    H18   1709 0.25637600   1.008000   ; qtot 0.200196
 1710         os     58    bbb     O1   1710 -0.20025300  16.000000   ; qtot -0.000057
; residue   59 bbb rtp bbb q -0.0
 1711         n3     59    bbb     N1   1711 -0.59685800  14.010000   ; qtot -0.596915
 1712         c3     59    bbb     C1   1712 0.10137000  12.010000   ; qtot -0.495545
 1713         h1     59    bbb     H1   1713 0.04411300   1.008000   ; qtot -0.451432
 1714         h1     59    bbb     H2   1714 0.04411300   1.008000   ; qtot -0.407319
 1715         c3     59    bbb     C2   1715 0.10137000  12.010000   ; qtot -0.305949
 1716         h1     59    bbb     H3   1716 0.04411300   1.008000   ; qtot -0.261836
 1717         h1     59    bbb     H4   1717 0.04411300   1.008000   ; qtot -0.217723
 1718         c3     59    bbb     C3   1718 -0.00195300  12.010000   ; qtot -0.219676
 1719         h1     59    bbb     H5   1719 0.05064400   1.008000   ; qtot -0.169032
 1720         h1     59    bbb     H6   1720 0.05064400   1.008000   ; qtot -0.118388
 1721         c3     59    bbb     C4   1721 -0.01612100  12.010000   ; qtot -0.134509
 1722         hc     59    bbb     H7   1722 0.04936100   1.008000   ; qtot -0.085148
 1723         hc     59    bbb     H8   1723 0.04936100   1.008000   ; qtot -0.035787
 1724         c3     59    bbb     C5   1724 0.11363000  12.010000   ; qtot 0.077843
 1725         hc     59    bbb     H9   1725 0.06265900   1.008000   ; qtot 0.140502
 1726         hc     59    bbb    H10   1726 0.06265900   1.008000   ; qtot 0.203161
 1727         c3     59    bbb     C6   1727 0.11363000  12.010000   ; qtot 0.316791
 1728         hc     59    bbb    H11   1728 0.06265900   1.008000   ; qtot 0.379450
 1729         hc     59    bbb    H12   1729 0.06265900   1.008000   ; qtot 0.442109
 1730         c3     59    bbb     C7   1730 0.05858200  12.010000   ; qtot 0.500691
 1731         h1     59    bbb    H13   1731 0.06123400   1.008000   ; qtot 0.561925
 1732         h1     59    bbb    H14   1732 0.06123400   1.008000   ; qtot 0.623159
 1733         c3     59    bbb     C8   1733 -0.72423400  12.010000   ; qtot -0.101075
 1734         h1     59    bbb    H15   1734 0.25637600   1.008000   ; qtot 0.155301
 1735         h1     59    bbb    H16   1735 0.25637600   1.008000   ; qtot 0.411677
 1736         c3     59    bbb     C9   1736 -0.72423400  12.010000   ; qtot -0.312557
 1737         h1     59    bbb    H17   1737 0.25637600   1.008000   ; qtot -0.056181
 1738         h1     59    bbb    H18   1738 0.25637600   1.008000   ; qtot 0.200195
 1739         os     59    bbb     O1   1739 -0.20025300  16.000000   ; qtot -0.000058
; residue   60 bbb rtp bbb q -0.0
 1740         n3     60    bbb     N1   1740 -0.59685800  14.010000   ; qtot -0.596916
 1741         c3     60    bbb     C1   1741 0.10137000  12.010000   ; qtot -0.495546
 1742         h1     60    bbb     H1   1742 0.04411300   1.008000   ; qtot -0.451433
 1743         h1     60    bbb     H2   1743 0.04411300   1.008000   ; qtot -0.407320
 1744         c3     60    bbb     C2   1744 0.10137000  12.010000   ; qtot -0.305950
 1745         h1     60    bbb     H3   1745 0.04411300   1.008000   ; qtot -0.261837
 1746         h1     60    bbb     H4   1746 0.04411300   1.008000   ; qtot -0.217724
 1747         c3     60    bbb     C3   1747 -0.00195300  12.010000   ; qtot -0.219677
 1748         h1     60    bbb     H5   1748 0.05064400   1.008000   ; qtot -0.169033
 1749         h1     60    bbb     H6   1749 0.05064400   1.008000   ; qtot -0.118389
 1750         c3     60    bbb     C4   1750 -0.01612100  12.010000   ; qtot -0.134510
 1751         hc     60    bbb     H7   1751 0.04936100   1.008000   ; qtot -0.085149
 1752         hc     60    bbb     H8   1752 0.04936100   1.008000   ; qtot -0.035788
 1753         c3     60    bbb     C5   1753 0.11363000  12.010000   ; qtot 0.077842
 1754         hc     60    bbb     H9   1754 0.06265900   1.008000   ; qtot 0.140501
 1755         hc     60    bbb    H10   1755 0.06265900   1.008000   ; qtot 0.203160
 1756         c3     60    bbb     C6   1756 0.11363000  12.010000   ; qtot 0.316790
 1757         hc     60    bbb    H11   1757 0.06265900   1.008000   ; qtot 0.379449
 1758         hc     60    bbb    H12   1758 0.06265900   1.008000   ; qtot 0.442108
 1759         c3     60    bbb     C7   1759 0.05858200  12.010000   ; qtot 0.500690
 1760         h1     60    bbb    H13   1760 0.06123400   1.008000   ; qtot 0.561924
 1761         h1     60    bbb    H14   1761 0.06123400   1.008000   ; qtot 0.623158
 1762         c3     60    bbb     C8   1762 -0.72423400  12.010000   ; qtot -0.101076
 1763         h1     60    bbb    H15   1763 0.25637600   1.008000   ; qtot 0.155300
 1764         h1     60    bbb    H16   1764 0.25637600   1.008000   ; qtot 0.411676
 1765         c3     60    bbb     C9   1765 -0.72423400  12.010000   ; qtot -0.312558
 1766         h1     60    bbb    H17   1766 0.25637600   1.008000   ; qtot -0.056182
 1767         h1     60    bbb    H18   1767 0.25637600   1.008000   ; qtot 0.200194
 1768         os     60    bbb     O1   1768 -0.20025300  16.000000   ; qtot -0.000059
; residue   61 bbb rtp bbb q -0.0
 1769         n3     61    bbb     N1   1769 -0.59685800  14.010000   ; qtot -0.596917
 1770         c3     61    bbb     C1   1770 0.10137000  12.010000   ; qtot -0.495547
 1771         h1     61    bbb     H1   1771 0.04411300   1.008000   ; qtot -0.451434
 1772         h1     61    bbb     H2   1772 0.04411300   1.008000   ; qtot -0.407321
 1773         c3     61    bbb     C2   1773 0.10137000  12.010000   ; qtot -0.305951
 1774         h1     61    bbb     H3   1774 0.04411300   1.008000   ; qtot -0.261838
 1775         h1     61    bbb     H4   1775 0.04411300   1.008000   ; qtot -0.217725
 1776         c3     61    bbb     C3   1776 -0.00195300  12.010000   ; qtot -0.219678
 1777         h1     61    bbb     H5   1777 0.05064400   1.008000   ; qtot -0.169034
 1778         h1     61    bbb     H6   1778 0.05064400   1.008000   ; qtot -0.118390
 1779         c3     61    bbb     C4   1779 -0.01612100  12.010000   ; qtot -0.134511
 1780         hc     61    bbb     H7   1780 0.04936100   1.008000   ; qtot -0.085150
 1781         hc     61    bbb     H8   1781 0.04936100   1.008000   ; qtot -0.035789
 1782         c3     61    bbb     C5   1782 0.11363000  12.010000   ; qtot 0.077841
 1783         hc     61    bbb     H9   1783 0.06265900   1.008000   ; qtot 0.140500
 1784         hc     61    bbb    H10   1784 0.06265900   1.008000   ; qtot 0.203159
 1785         c3     61    bbb     C6   1785 0.11363000  12.010000   ; qtot 0.316789
 1786         hc     61    bbb    H11   1786 0.06265900   1.008000   ; qtot 0.379448
 1787         hc     61    bbb    H12   1787 0.06265900   1.008000   ; qtot 0.442107
 1788         c3     61    bbb     C7   1788 0.05858200  12.010000   ; qtot 0.500689
 1789         h1     61    bbb    H13   1789 0.06123400   1.008000   ; qtot 0.561923
 1790         h1     61    bbb    H14   1790 0.06123400   1.008000   ; qtot 0.623157
 1791         c3     61    bbb     C8   1791 -0.72423400  12.010000   ; qtot -0.101077
 1792         h1     61    bbb    H15   1792 0.25637600   1.008000   ; qtot 0.155299
 1793         h1     61    bbb    H16   1793 0.25637600   1.008000   ; qtot 0.411675
 1794         c3     61    bbb     C9   1794 -0.72423400  12.010000   ; qtot -0.312559
 1795         h1     61    bbb    H17   1795 0.25637600   1.008000   ; qtot -0.056183
 1796         h1     61    bbb    H18   1796 0.25637600   1.008000   ; qtot 0.200193
 1797         os     61    bbb     O1   1797 -0.20025300  16.000000   ; qtot -0.000060
; residue   62 bbb rtp bbb q -0.0
 1798         n3     62    bbb     N1   1798 -0.59685800  14.010000   ; qtot -0.596918
 1799         c3     62    bbb     C1   1799 0.10137000  12.010000   ; qtot -0.495548
 1800         h1     62    bbb     H1   1800 0.04411300   1.008000   ; qtot -0.451435
 1801         h1     62    bbb     H2   1801 0.04411300   1.008000   ; qtot -0.407322
 1802         c3     62    bbb     C2   1802 0.10137000  12.010000   ; qtot -0.305952
 1803         h1     62    bbb     H3   1803 0.04411300   1.008000   ; qtot -0.261839
 1804         h1     62    bbb     H4   1804 0.04411300   1.008000   ; qtot -0.217726
 1805         c3     62    bbb     C3   1805 -0.00195300  12.010000   ; qtot -0.219679
 1806         h1     62    bbb     H5   1806 0.05064400   1.008000   ; qtot -0.169035
 1807         h1     62    bbb     H6   1807 0.05064400   1.008000   ; qtot -0.118391
 1808         c3     62    bbb     C4   1808 -0.01612100  12.010000   ; qtot -0.134512
 1809         hc     62    bbb     H7   1809 0.04936100   1.008000   ; qtot -0.085151
 1810         hc     62    bbb     H8   1810 0.04936100   1.008000   ; qtot -0.035790
 1811         c3     62    bbb     C5   1811 0.11363000  12.010000   ; qtot 0.077840
 1812         hc     62    bbb     H9   1812 0.06265900   1.008000   ; qtot 0.140499
 1813         hc     62    bbb    H10   1813 0.06265900   1.008000   ; qtot 0.203158
 1814         c3     62    bbb     C6   1814 0.11363000  12.010000   ; qtot 0.316788
 1815         hc     62    bbb    H11   1815 0.06265900   1.008000   ; qtot 0.379447
 1816         hc     62    bbb    H12   1816 0.06265900   1.008000   ; qtot 0.442106
 1817         c3     62    bbb     C7   1817 0.05858200  12.010000   ; qtot 0.500688
 1818         h1     62    bbb    H13   1818 0.06123400   1.008000   ; qtot 0.561922
 1819         h1     62    bbb    H14   1819 0.06123400   1.008000   ; qtot 0.623156
 1820         c3     62    bbb     C8   1820 -0.72423400  12.010000   ; qtot -0.101078
 1821         h1     62    bbb    H15   1821 0.25637600   1.008000   ; qtot 0.155298
 1822         h1     62    bbb    H16   1822 0.25637600   1.008000   ; qtot 0.411674
 1823         c3     62    bbb     C9   1823 -0.72423400  12.010000   ; qtot -0.312560
 1824         h1     62    bbb    H17   1824 0.25637600   1.008000   ; qtot -0.056184
 1825         h1     62    bbb    H18   1825 0.25637600   1.008000   ; qtot 0.200192
 1826         os     62    bbb     O1   1826 -0.20025300  16.000000   ; qtot -0.000061
; residue   63 bbb rtp bbb q -0.0
 1827         n3     63    bbb     N1   1827 -0.59685800  14.010000   ; qtot -0.596919
 1828         c3     63    bbb     C1   1828 0.10137000  12.010000   ; qtot -0.495549
 1829         h1     63    bbb     H1   1829 0.04411300   1.008000   ; qtot -0.451436
 1830         h1     63    bbb     H2   1830 0.04411300   1.008000   ; qtot -0.407323
 1831         c3     63    bbb     C2   1831 0.10137000  12.010000   ; qtot -0.305953
 1832         h1     63    bbb     H3   1832 0.04411300   1.008000   ; qtot -0.261840
 1833         h1     63    bbb     H4   1833 0.04411300   1.008000   ; qtot -0.217727
 1834         c3     63    bbb     C3   1834 -0.00195300  12.010000   ; qtot -0.219680
 1835         h1     63    bbb     H5   1835 0.05064400   1.008000   ; qtot -0.169036
 1836         h1     63    bbb     H6   1836 0.05064400   1.008000   ; qtot -0.118392
 1837         c3     63    bbb     C4   1837 -0.01612100  12.010000   ; qtot -0.134513
 1838         hc     63    bbb     H7   1838 0.04936100   1.008000   ; qtot -0.085152
 1839         hc     63    bbb     H8   1839 0.04936100   1.008000   ; qtot -0.035791
 1840         c3     63    bbb     C5   1840 0.11363000  12.010000   ; qtot 0.077839
 1841         hc     63    bbb     H9   1841 0.06265900   1.008000   ; qtot 0.140498
 1842         hc     63    bbb    H10   1842 0.06265900   1.008000   ; qtot 0.203157
 1843         c3     63    bbb     C6   1843 0.11363000  12.010000   ; qtot 0.316787
 1844         hc     63    bbb    H11   1844 0.06265900   1.008000   ; qtot 0.379446
 1845         hc     63    bbb    H12   1845 0.06265900   1.008000   ; qtot 0.442105
 1846         c3     63    bbb     C7   1846 0.05858200  12.010000   ; qtot 0.500687
 1847         h1     63    bbb    H13   1847 0.06123400   1.008000   ; qtot 0.561921
 1848         h1     63    bbb    H14   1848 0.06123400   1.008000   ; qtot 0.623155
 1849         c3     63    bbb     C8   1849 -0.72423400  12.010000   ; qtot -0.101079
 1850         h1     63    bbb    H15   1850 0.25637600   1.008000   ; qtot 0.155297
 1851         h1     63    bbb    H16   1851 0.25637600   1.008000   ; qtot 0.411673
 1852         c3     63    bbb     C9   1852 -0.72423400  12.010000   ; qtot -0.312561
 1853         h1     63    bbb    H17   1853 0.25637600   1.008000   ; qtot -0.056185
 1854         h1     63    bbb    H18   1854 0.25637600   1.008000   ; qtot 0.200191
 1855         os     63    bbb     O1   1855 -0.20025300  16.000000   ; qtot -0.000062
; residue   64 bbb rtp bbb q -0.0
 1856         n3     64    bbb     N1   1856 -0.59685800  14.010000   ; qtot -0.596920
 1857         c3     64    bbb     C1   1857 0.10137000  12.010000   ; qtot -0.495550
 1858         h1     64    bbb     H1   1858 0.04411300   1.008000   ; qtot -0.451437
 1859         h1     64    bbb     H2   1859 0.04411300   1.008000   ; qtot -0.407324
 1860         c3     64    bbb     C2   1860 0.10137000  12.010000   ; qtot -0.305954
 1861         h1     64    bbb     H3   1861 0.04411300   1.008000   ; qtot -0.261841
 1862         h1     64    bbb     H4   1862 0.04411300   1.008000   ; qtot -0.217728
 1863         c3     64    bbb     C3   1863 -0.00195300  12.010000   ; qtot -0.219681
 1864         h1     64    bbb     H5   1864 0.05064400   1.008000   ; qtot -0.169037
 1865         h1     64    bbb     H6   1865 0.05064400   1.008000   ; qtot -0.118393
 1866         c3     64    bbb     C4   1866 -0.01612100  12.010000   ; qtot -0.134514
 1867         hc     64    bbb     H7   1867 0.04936100   1.008000   ; qtot -0.085153
 1868         hc     64    bbb     H8   1868 0.04936100   1.008000   ; qtot -0.035792
 1869         c3     64    bbb     C5   1869 0.11363000  12.010000   ; qtot 0.077838
 1870         hc     64    bbb     H9   1870 0.06265900   1.008000   ; qtot 0.140497
 1871         hc     64    bbb    H10   1871 0.06265900   1.008000   ; qtot 0.203156
 1872         c3     64    bbb     C6   1872 0.11363000  12.010000   ; qtot 0.316786
 1873         hc     64    bbb    H11   1873 0.06265900   1.008000   ; qtot 0.379445
 1874         hc     64    bbb    H12   1874 0.06265900   1.008000   ; qtot 0.442104
 1875         c3     64    bbb     C7   1875 0.05858200  12.010000   ; qtot 0.500686
 1876         h1     64    bbb    H13   1876 0.06123400   1.008000   ; qtot 0.561920
 1877         h1     64    bbb    H14   1877 0.06123400   1.008000   ; qtot 0.623154
 1878         c3     64    bbb     C8   1878 -0.72423400  12.010000   ; qtot -0.101080
 1879         h1     64    bbb    H15   1879 0.25637600   1.008000   ; qtot 0.155296
 1880         h1     64    bbb    H16   1880 0.25637600   1.008000   ; qtot 0.411672
 1881         c3     64    bbb     C9   1881 -0.72423400  12.010000   ; qtot -0.312562
 1882         h1     64    bbb    H17   1882 0.25637600   1.008000   ; qtot -0.056186
 1883         h1     64    bbb    H18   1883 0.25637600   1.008000   ; qtot 0.200190
 1884         os     64    bbb     O1   1884 -0.20025300  16.000000   ; qtot -0.000063
; residue   65 bbb rtp bbb q -0.0
 1885         n3     65    bbb     N1   1885 -0.59685800  14.010000   ; qtot -0.596921
 1886         c3     65    bbb     C1   1886 0.10137000  12.010000   ; qtot -0.495551
 1887         h1     65    bbb     H1   1887 0.04411300   1.008000   ; qtot -0.451438
 1888         h1     65    bbb     H2   1888 0.04411300   1.008000   ; qtot -0.407325
 1889         c3     65    bbb     C2   1889 0.10137000  12.010000   ; qtot -0.305955
 1890         h1     65    bbb     H3   1890 0.04411300   1.008000   ; qtot -0.261842
 1891         h1     65    bbb     H4   1891 0.04411300   1.008000   ; qtot -0.217729
 1892         c3     65    bbb     C3   1892 -0.00195300  12.010000   ; qtot -0.219682
 1893         h1     65    bbb     H5   1893 0.05064400   1.008000   ; qtot -0.169038
 1894         h1     65    bbb     H6   1894 0.05064400   1.008000   ; qtot -0.118394
 1895         c3     65    bbb     C4   1895 -0.01612100  12.010000   ; qtot -0.134515
 1896         hc     65    bbb     H7   1896 0.04936100   1.008000   ; qtot -0.085154
 1897         hc     65    bbb     H8   1897 0.04936100   1.008000   ; qtot -0.035793
 1898         c3     65    bbb     C5   1898 0.11363000  12.010000   ; qtot 0.077837
 1899         hc     65    bbb     H9   1899 0.06265900   1.008000   ; qtot 0.140496
 1900         hc     65    bbb    H10   1900 0.06265900   1.008000   ; qtot 0.203155
 1901         c3     65    bbb     C6   1901 0.11363000  12.010000   ; qtot 0.316785
 1902         hc     65    bbb    H11   1902 0.06265900   1.008000   ; qtot 0.379444
 1903         hc     65    bbb    H12   1903 0.06265900   1.008000   ; qtot 0.442103
 1904         c3     65    bbb     C7   1904 0.05858200  12.010000   ; qtot 0.500685
 1905         h1     65    bbb    H13   1905 0.06123400   1.008000   ; qtot 0.561919
 1906         h1     65    bbb    H14   1906 0.06123400   1.008000   ; qtot 0.623153
 1907         c3     65    bbb     C8   1907 -0.72423400  12.010000   ; qtot -0.101081
 1908         h1     65    bbb    H15   1908 0.25637600   1.008000   ; qtot 0.155295
 1909         h1     65    bbb    H16   1909 0.25637600   1.008000   ; qtot 0.411671
 1910         c3     65    bbb     C9   1910 -0.72423400  12.010000   ; qtot -0.312563
 1911         h1     65    bbb    H17   1911 0.25637600   1.008000   ; qtot -0.056187
 1912         h1     65    bbb    H18   1912 0.25637600   1.008000   ; qtot 0.200189
 1913         os     65    bbb     O1   1913 -0.20025300  16.000000   ; qtot -0.000064
; residue   66 bbb rtp bbb q -0.0
 1914         n3     66    bbb     N1   1914 -0.59685800  14.010000   ; qtot -0.596922
 1915         c3     66    bbb     C1   1915 0.10137000  12.010000   ; qtot -0.495552
 1916         h1     66    bbb     H1   1916 0.04411300   1.008000   ; qtot -0.451439
 1917         h1     66    bbb     H2   1917 0.04411300   1.008000   ; qtot -0.407326
 1918         c3     66    bbb     C2   1918 0.10137000  12.010000   ; qtot -0.305956
 1919         h1     66    bbb     H3   1919 0.04411300   1.008000   ; qtot -0.261843
 1920         h1     66    bbb     H4   1920 0.04411300   1.008000   ; qtot -0.217730
 1921         c3     66    bbb     C3   1921 -0.00195300  12.010000   ; qtot -0.219683
 1922         h1     66    bbb     H5   1922 0.05064400   1.008000   ; qtot -0.169039
 1923         h1     66    bbb     H6   1923 0.05064400   1.008000   ; qtot -0.118395
 1924         c3     66    bbb     C4   1924 -0.01612100  12.010000   ; qtot -0.134516
 1925         hc     66    bbb     H7   1925 0.04936100   1.008000   ; qtot -0.085155
 1926         hc     66    bbb     H8   1926 0.04936100   1.008000   ; qtot -0.035794
 1927         c3     66    bbb     C5   1927 0.11363000  12.010000   ; qtot 0.077836
 1928         hc     66    bbb     H9   1928 0.06265900   1.008000   ; qtot 0.140495
 1929         hc     66    bbb    H10   1929 0.06265900   1.008000   ; qtot 0.203154
 1930         c3     66    bbb     C6   1930 0.11363000  12.010000   ; qtot 0.316784
 1931         hc     66    bbb    H11   1931 0.06265900   1.008000   ; qtot 0.379443
 1932         hc     66    bbb    H12   1932 0.06265900   1.008000   ; qtot 0.442102
 1933         c3     66    bbb     C7   1933 0.05858200  12.010000   ; qtot 0.500684
 1934         h1     66    bbb    H13   1934 0.06123400   1.008000   ; qtot 0.561918
 1935         h1     66    bbb    H14   1935 0.06123400   1.008000   ; qtot 0.623152
 1936         c3     66    bbb     C8   1936 -0.72423400  12.010000   ; qtot -0.101082
 1937         h1     66    bbb    H15   1937 0.25637600   1.008000   ; qtot 0.155294
 1938         h1     66    bbb    H16   1938 0.25637600   1.008000   ; qtot 0.411670
 1939         c3     66    bbb     C9   1939 -0.72423400  12.010000   ; qtot -0.312564
 1940         h1     66    bbb    H17   1940 0.25637600   1.008000   ; qtot -0.056188
 1941         h1     66    bbb    H18   1941 0.25637600   1.008000   ; qtot 0.200188
 1942         os     66    bbb     O1   1942 -0.20025300  16.000000   ; qtot -0.000065
; residue   67 bbb rtp bbb q -0.0
 1943         n3     67    bbb     N1   1943 -0.59685800  14.010000   ; qtot -0.596923
 1944         c3     67    bbb     C1   1944 0.10137000  12.010000   ; qtot -0.495553
 1945         h1     67    bbb     H1   1945 0.04411300   1.008000   ; qtot -0.451440
 1946         h1     67    bbb     H2   1946 0.04411300   1.008000   ; qtot -0.407327
 1947         c3     67    bbb     C2   1947 0.10137000  12.010000   ; qtot -0.305957
 1948         h1     67    bbb     H3   1948 0.04411300   1.008000   ; qtot -0.261844
 1949         h1     67    bbb     H4   1949 0.04411300   1.008000   ; qtot -0.217731
 1950         c3     67    bbb     C3   1950 -0.00195300  12.010000   ; qtot -0.219684
 1951         h1     67    bbb     H5   1951 0.05064400   1.008000   ; qtot -0.169040
 1952         h1     67    bbb     H6   1952 0.05064400   1.008000   ; qtot -0.118396
 1953         c3     67    bbb     C4   1953 -0.01612100  12.010000   ; qtot -0.134517
 1954         hc     67    bbb     H7   1954 0.04936100   1.008000   ; qtot -0.085156
 1955         hc     67    bbb     H8   1955 0.04936100   1.008000   ; qtot -0.035795
 1956         c3     67    bbb     C5   1956 0.11363000  12.010000   ; qtot 0.077835
 1957         hc     67    bbb     H9   1957 0.06265900   1.008000   ; qtot 0.140494
 1958         hc     67    bbb    H10   1958 0.06265900   1.008000   ; qtot 0.203153
 1959         c3     67    bbb     C6   1959 0.11363000  12.010000   ; qtot 0.316783
 1960         hc     67    bbb    H11   1960 0.06265900   1.008000   ; qtot 0.379442
 1961         hc     67    bbb    H12   1961 0.06265900   1.008000   ; qtot 0.442101
 1962         c3     67    bbb     C7   1962 0.05858200  12.010000   ; qtot 0.500683
 1963         h1     67    bbb    H13   1963 0.06123400   1.008000   ; qtot 0.561917
 1964         h1     67    bbb    H14   1964 0.06123400   1.008000   ; qtot 0.623151
 1965         c3     67    bbb     C8   1965 -0.72423400  12.010000   ; qtot -0.101083
 1966         h1     67    bbb    H15   1966 0.25637600   1.008000   ; qtot 0.155293
 1967         h1     67    bbb    H16   1967 0.25637600   1.008000   ; qtot 0.411669
 1968         c3     67    bbb     C9   1968 -0.72423400  12.010000   ; qtot -0.312565
 1969         h1     67    bbb    H17   1969 0.25637600   1.008000   ; qtot -0.056189
 1970         h1     67    bbb    H18   1970 0.25637600   1.008000   ; qtot 0.200187
 1971         os     67    bbb     O1   1971 -0.20025300  16.000000   ; qtot -0.000066
; residue   68 bbb rtp bbb q -0.0
 1972         n3     68    bbb     N1   1972 -0.59685800  14.010000   ; qtot -0.596924
 1973         c3     68    bbb     C1   1973 0.10137000  12.010000   ; qtot -0.495554
 1974         h1     68    bbb     H1   1974 0.04411300   1.008000   ; qtot -0.451441
 1975         h1     68    bbb     H2   1975 0.04411300   1.008000   ; qtot -0.407328
 1976         c3     68    bbb     C2   1976 0.10137000  12.010000   ; qtot -0.305958
 1977         h1     68    bbb     H3   1977 0.04411300   1.008000   ; qtot -0.261845
 1978         h1     68    bbb     H4   1978 0.04411300   1.008000   ; qtot -0.217732
 1979         c3     68    bbb     C3   1979 -0.00195300  12.010000   ; qtot -0.219685
 1980         h1     68    bbb     H5   1980 0.05064400   1.008000   ; qtot -0.169041
 1981         h1     68    bbb     H6   1981 0.05064400   1.008000   ; qtot -0.118397
 1982         c3     68    bbb     C4   1982 -0.01612100  12.010000   ; qtot -0.134518
 1983         hc     68    bbb     H7   1983 0.04936100   1.008000   ; qtot -0.085157
 1984         hc     68    bbb     H8   1984 0.04936100   1.008000   ; qtot -0.035796
 1985         c3     68    bbb     C5   1985 0.11363000  12.010000   ; qtot 0.077834
 1986         hc     68    bbb     H9   1986 0.06265900   1.008000   ; qtot 0.140493
 1987         hc     68    bbb    H10   1987 0.06265900   1.008000   ; qtot 0.203152
 1988         c3     68    bbb     C6   1988 0.11363000  12.010000   ; qtot 0.316782
 1989         hc     68    bbb    H11   1989 0.06265900   1.008000   ; qtot 0.379441
 1990         hc     68    bbb    H12   1990 0.06265900   1.008000   ; qtot 0.442100
 1991         c3     68    bbb     C7   1991 0.05858200  12.010000   ; qtot 0.500682
 1992         h1     68    bbb    H13   1992 0.06123400   1.008000   ; qtot 0.561916
 1993         h1     68    bbb    H14   1993 0.06123400   1.008000   ; qtot 0.623150
 1994         c3     68    bbb     C8   1994 -0.72423400  12.010000   ; qtot -0.101084
 1995         h1     68    bbb    H15   1995 0.25637600   1.008000   ; qtot 0.155292
 1996         h1     68    bbb    H16   1996 0.25637600   1.008000   ; qtot 0.411668
 1997         c3     68    bbb     C9   1997 -0.72423400  12.010000   ; qtot -0.312566
 1998         h1     68    bbb    H17   1998 0.25637600   1.008000   ; qtot -0.056190
 1999         h1     68    bbb    H18   1999 0.25637600   1.008000   ; qtot 0.200186
 2000         os     68    bbb     O1   2000 -0.20025300  16.000000   ; qtot -0.000067
; residue   69 bbb rtp bbb q -0.0
 2001         n3     69    bbb     N1   2001 -0.59685800  14.010000   ; qtot -0.596925
 2002         c3     69    bbb     C1   2002 0.10137000  12.010000   ; qtot -0.495555
 2003         h1     69    bbb     H1   2003 0.04411300   1.008000   ; qtot -0.451442
 2004         h1     69    bbb     H2   2004 0.04411300   1.008000   ; qtot -0.407329
 2005         c3     69    bbb     C2   2005 0.10137000  12.010000   ; qtot -0.305959
 2006         h1     69    bbb     H3   2006 0.04411300   1.008000   ; qtot -0.261846
 2007         h1     69    bbb     H4   2007 0.04411300   1.008000   ; qtot -0.217733
 2008         c3     69    bbb     C3   2008 -0.00195300  12.010000   ; qtot -0.219686
 2009         h1     69    bbb     H5   2009 0.05064400   1.008000   ; qtot -0.169042
 2010         h1     69    bbb     H6   2010 0.05064400   1.008000   ; qtot -0.118398
 2011         c3     69    bbb     C4   2011 -0.01612100  12.010000   ; qtot -0.134519
 2012         hc     69    bbb     H7   2012 0.04936100   1.008000   ; qtot -0.085158
 2013         hc     69    bbb     H8   2013 0.04936100   1.008000   ; qtot -0.035797
 2014         c3     69    bbb     C5   2014 0.11363000  12.010000   ; qtot 0.077833
 2015         hc     69    bbb     H9   2015 0.06265900   1.008000   ; qtot 0.140492
 2016         hc     69    bbb    H10   2016 0.06265900   1.008000   ; qtot 0.203151
 2017         c3     69    bbb     C6   2017 0.11363000  12.010000   ; qtot 0.316781
 2018         hc     69    bbb    H11   2018 0.06265900   1.008000   ; qtot 0.379440
 2019         hc     69    bbb    H12   2019 0.06265900   1.008000   ; qtot 0.442099
 2020         c3     69    bbb     C7   2020 0.05858200  12.010000   ; qtot 0.500681
 2021         h1     69    bbb    H13   2021 0.06123400   1.008000   ; qtot 0.561915
 2022         h1     69    bbb    H14   2022 0.06123400   1.008000   ; qtot 0.623149
 2023         c3     69    bbb     C8   2023 -0.72423400  12.010000   ; qtot -0.101085
 2024         h1     69    bbb    H15   2024 0.25637600   1.008000   ; qtot 0.155291
 2025         h1     69    bbb    H16   2025 0.25637600   1.008000   ; qtot 0.411667
 2026         c3     69    bbb     C9   2026 -0.72423400  12.010000   ; qtot -0.312567
 2027         h1     69    bbb    H17   2027 0.25637600   1.008000   ; qtot -0.056191
 2028         h1     69    bbb    H18   2028 0.25637600   1.008000   ; qtot 0.200185
 2029         os     69    bbb     O1   2029 -0.20025300  16.000000   ; qtot -0.000068
; residue   70 bbb rtp bbb q -0.0
 2030         n3     70    bbb     N1   2030 -0.59685800  14.010000   ; qtot -0.596926
 2031         c3     70    bbb     C1   2031 0.10137000  12.010000   ; qtot -0.495556
 2032         h1     70    bbb     H1   2032 0.04411300   1.008000   ; qtot -0.451443
 2033         h1     70    bbb     H2   2033 0.04411300   1.008000   ; qtot -0.407330
 2034         c3     70    bbb     C2   2034 0.10137000  12.010000   ; qtot -0.305960
 2035         h1     70    bbb     H3   2035 0.04411300   1.008000   ; qtot -0.261847
 2036         h1     70    bbb     H4   2036 0.04411300   1.008000   ; qtot -0.217734
 2037         c3     70    bbb     C3   2037 -0.00195300  12.010000   ; qtot -0.219687
 2038         h1     70    bbb     H5   2038 0.05064400   1.008000   ; qtot -0.169043
 2039         h1     70    bbb     H6   2039 0.05064400   1.008000   ; qtot -0.118399
 2040         c3     70    bbb     C4   2040 -0.01612100  12.010000   ; qtot -0.134520
 2041         hc     70    bbb     H7   2041 0.04936100   1.008000   ; qtot -0.085159
 2042         hc     70    bbb     H8   2042 0.04936100   1.008000   ; qtot -0.035798
 2043         c3     70    bbb     C5   2043 0.11363000  12.010000   ; qtot 0.077832
 2044         hc     70    bbb     H9   2044 0.06265900   1.008000   ; qtot 0.140491
 2045         hc     70    bbb    H10   2045 0.06265900   1.008000   ; qtot 0.203150
 2046         c3     70    bbb     C6   2046 0.11363000  12.010000   ; qtot 0.316780
 2047         hc     70    bbb    H11   2047 0.06265900   1.008000   ; qtot 0.379439
 2048         hc     70    bbb    H12   2048 0.06265900   1.008000   ; qtot 0.442098
 2049         c3     70    bbb     C7   2049 0.05858200  12.010000   ; qtot 0.500680
 2050         h1     70    bbb    H13   2050 0.06123400   1.008000   ; qtot 0.561914
 2051         h1     70    bbb    H14   2051 0.06123400   1.008000   ; qtot 0.623148
 2052         c3     70    bbb     C8   2052 -0.72423400  12.010000   ; qtot -0.101086
 2053         h1     70    bbb    H15   2053 0.25637600   1.008000   ; qtot 0.155290
 2054         h1     70    bbb    H16   2054 0.25637600   1.008000   ; qtot 0.411666
 2055         c3     70    bbb     C9   2055 -0.72423400  12.010000   ; qtot -0.312568
 2056         h1     70    bbb    H17   2056 0.25637600   1.008000   ; qtot -0.056192
 2057         h1     70    bbb    H18   2057 0.25637600   1.008000   ; qtot 0.200184
 2058         os     70    bbb     O1   2058 -0.20025300  16.000000   ; qtot -0.000069
; residue   71 bbb rtp bbb q -0.0
 2059         n3     71    bbb     N1   2059 -0.59685800  14.010000   ; qtot -0.596927
 2060         c3     71    bbb     C1   2060 0.10137000  12.010000   ; qtot -0.495557
 2061         h1     71    bbb     H1   2061 0.04411300   1.008000   ; qtot -0.451444
 2062         h1     71    bbb     H2   2062 0.04411300   1.008000   ; qtot -0.407331
 2063         c3     71    bbb     C2   2063 0.10137000  12.010000   ; qtot -0.305961
 2064         h1     71    bbb     H3   2064 0.04411300   1.008000   ; qtot -0.261848
 2065         h1     71    bbb     H4   2065 0.04411300   1.008000   ; qtot -0.217735
 2066         c3     71    bbb     C3   2066 -0.00195300  12.010000   ; qtot -0.219688
 2067         h1     71    bbb     H5   2067 0.05064400   1.008000   ; qtot -0.169044
 2068         h1     71    bbb     H6   2068 0.05064400   1.008000   ; qtot -0.118400
 2069         c3     71    bbb     C4   2069 -0.01612100  12.010000   ; qtot -0.134521
 2070         hc     71    bbb     H7   2070 0.04936100   1.008000   ; qtot -0.085160
 2071         hc     71    bbb     H8   2071 0.04936100   1.008000   ; qtot -0.035799
 2072         c3     71    bbb     C5   2072 0.11363000  12.010000   ; qtot 0.077831
 2073         hc     71    bbb     H9   2073 0.06265900   1.008000   ; qtot 0.140490
 2074         hc     71    bbb    H10   2074 0.06265900   1.008000   ; qtot 0.203149
 2075         c3     71    bbb     C6   2075 0.11363000  12.010000   ; qtot 0.316779
 2076         hc     71    bbb    H11   2076 0.06265900   1.008000   ; qtot 0.379438
 2077         hc     71    bbb    H12   2077 0.06265900   1.008000   ; qtot 0.442097
 2078         c3     71    bbb     C7   2078 0.05858200  12.010000   ; qtot 0.500679
 2079         h1     71    bbb    H13   2079 0.06123400   1.008000   ; qtot 0.561913
 2080         h1     71    bbb    H14   2080 0.06123400   1.008000   ; qtot 0.623147
 2081         c3     71    bbb     C8   2081 -0.72423400  12.010000   ; qtot -0.101087
 2082         h1     71    bbb    H15   2082 0.25637600   1.008000   ; qtot 0.155289
 2083         h1     71    bbb    H16   2083 0.25637600   1.008000   ; qtot 0.411665
 2084         c3     71    bbb     C9   2084 -0.72423400  12.010000   ; qtot -0.312569
 2085         h1     71    bbb    H17   2085 0.25637600   1.008000   ; qtot -0.056193
 2086         h1     71    bbb    H18   2086 0.25637600   1.008000   ; qtot 0.200183
 2087         os     71    bbb     O1   2087 -0.20025300  16.000000   ; qtot -0.000070
; residue   72 bbb rtp bbb q -0.0
 2088         n3     72    bbb     N1   2088 -0.59685800  14.010000   ; qtot -0.596928
 2089         c3     72    bbb     C1   2089 0.10137000  12.010000   ; qtot -0.495558
 2090         h1     72    bbb     H1   2090 0.04411300   1.008000   ; qtot -0.451445
 2091         h1     72    bbb     H2   2091 0.04411300   1.008000   ; qtot -0.407332
 2092         c3     72    bbb     C2   2092 0.10137000  12.010000   ; qtot -0.305962
 2093         h1     72    bbb     H3   2093 0.04411300   1.008000   ; qtot -0.261849
 2094         h1     72    bbb     H4   2094 0.04411300   1.008000   ; qtot -0.217736
 2095         c3     72    bbb     C3   2095 -0.00195300  12.010000   ; qtot -0.219689
 2096         h1     72    bbb     H5   2096 0.05064400   1.008000   ; qtot -0.169045
 2097         h1     72    bbb     H6   2097 0.05064400   1.008000   ; qtot -0.118401
 2098         c3     72    bbb     C4   2098 -0.01612100  12.010000   ; qtot -0.134522
 2099         hc     72    bbb     H7   2099 0.04936100   1.008000   ; qtot -0.085161
 2100         hc     72    bbb     H8   2100 0.04936100   1.008000   ; qtot -0.035800
 2101         c3     72    bbb     C5   2101 0.11363000  12.010000   ; qtot 0.077830
 2102         hc     72    bbb     H9   2102 0.06265900   1.008000   ; qtot 0.140489
 2103         hc     72    bbb    H10   2103 0.06265900   1.008000   ; qtot 0.203148
 2104         c3     72    bbb     C6   2104 0.11363000  12.010000   ; qtot 0.316778
 2105         hc     72    bbb    H11   2105 0.06265900   1.008000   ; qtot 0.379437
 2106         hc     72    bbb    H12   2106 0.06265900   1.008000   ; qtot 0.442096
 2107         c3     72    bbb     C7   2107 0.05858200  12.010000   ; qtot 0.500678
 2108         h1     72    bbb    H13   2108 0.06123400   1.008000   ; qtot 0.561912
 2109         h1     72    bbb    H14   2109 0.06123400   1.008000   ; qtot 0.623146
 2110         c3     72    bbb     C8   2110 -0.72423400  12.010000   ; qtot -0.101088
 2111         h1     72    bbb    H15   2111 0.25637600   1.008000   ; qtot 0.155288
 2112         h1     72    bbb    H16   2112 0.25637600   1.008000   ; qtot 0.411664
 2113         c3     72    bbb     C9   2113 -0.72423400  12.010000   ; qtot -0.312570
 2114         h1     72    bbb    H17   2114 0.25637600   1.008000   ; qtot -0.056194
 2115         h1     72    bbb    H18   2115 0.25637600   1.008000   ; qtot 0.200182
 2116         os     72    bbb     O1   2116 -0.20025300  16.000000   ; qtot -0.000071
; residue   73 bbb rtp bbb q -0.0
 2117         n3     73    bbb     N1   2117 -0.59685800  14.010000   ; qtot -0.596929
 2118         c3     73    bbb     C1   2118 0.10137000  12.010000   ; qtot -0.495559
 2119         h1     73    bbb     H1   2119 0.04411300   1.008000   ; qtot -0.451446
 2120         h1     73    bbb     H2   2120 0.04411300   1.008000   ; qtot -0.407333
 2121         c3     73    bbb     C2   2121 0.10137000  12.010000   ; qtot -0.305963
 2122         h1     73    bbb     H3   2122 0.04411300   1.008000   ; qtot -0.261850
 2123         h1     73    bbb     H4   2123 0.04411300   1.008000   ; qtot -0.217737
 2124         c3     73    bbb     C3   2124 -0.00195300  12.010000   ; qtot -0.219690
 2125         h1     73    bbb     H5   2125 0.05064400   1.008000   ; qtot -0.169046
 2126         h1     73    bbb     H6   2126 0.05064400   1.008000   ; qtot -0.118402
 2127         c3     73    bbb     C4   2127 -0.01612100  12.010000   ; qtot -0.134523
 2128         hc     73    bbb     H7   2128 0.04936100   1.008000   ; qtot -0.085162
 2129         hc     73    bbb     H8   2129 0.04936100   1.008000   ; qtot -0.035801
 2130         c3     73    bbb     C5   2130 0.11363000  12.010000   ; qtot 0.077829
 2131         hc     73    bbb     H9   2131 0.06265900   1.008000   ; qtot 0.140488
 2132         hc     73    bbb    H10   2132 0.06265900   1.008000   ; qtot 0.203147
 2133         c3     73    bbb     C6   2133 0.11363000  12.010000   ; qtot 0.316777
 2134         hc     73    bbb    H11   2134 0.06265900   1.008000   ; qtot 0.379436
 2135         hc     73    bbb    H12   2135 0.06265900   1.008000   ; qtot 0.442095
 2136         c3     73    bbb     C7   2136 0.05858200  12.010000   ; qtot 0.500677
 2137         h1     73    bbb    H13   2137 0.06123400   1.008000   ; qtot 0.561911
 2138         h1     73    bbb    H14   2138 0.06123400   1.008000   ; qtot 0.623145
 2139         c3     73    bbb     C8   2139 -0.72423400  12.010000   ; qtot -0.101089
 2140         h1     73    bbb    H15   2140 0.25637600   1.008000   ; qtot 0.155287
 2141         h1     73    bbb    H16   2141 0.25637600   1.008000   ; qtot 0.411663
 2142         c3     73    bbb     C9   2142 -0.72423400  12.010000   ; qtot -0.312571
 2143         h1     73    bbb    H17   2143 0.25637600   1.008000   ; qtot -0.056195
 2144         h1     73    bbb    H18   2144 0.25637600   1.008000   ; qtot 0.200181
 2145         os     73    bbb     O1   2145 -0.20025300  16.000000   ; qtot -0.000072
; residue   74 bbb rtp bbb q -0.0
 2146         n3     74    bbb     N1   2146 -0.59685800  14.010000   ; qtot -0.596930
 2147         c3     74    bbb     C1   2147 0.10137000  12.010000   ; qtot -0.495560
 2148         h1     74    bbb     H1   2148 0.04411300   1.008000   ; qtot -0.451447
 2149         h1     74    bbb     H2   2149 0.04411300   1.008000   ; qtot -0.407334
 2150         c3     74    bbb     C2   2150 0.10137000  12.010000   ; qtot -0.305964
 2151         h1     74    bbb     H3   2151 0.04411300   1.008000   ; qtot -0.261851
 2152         h1     74    bbb     H4   2152 0.04411300   1.008000   ; qtot -0.217738
 2153         c3     74    bbb     C3   2153 -0.00195300  12.010000   ; qtot -0.219691
 2154         h1     74    bbb     H5   2154 0.05064400   1.008000   ; qtot -0.169047
 2155         h1     74    bbb     H6   2155 0.05064400   1.008000   ; qtot -0.118403
 2156         c3     74    bbb     C4   2156 -0.01612100  12.010000   ; qtot -0.134524
 2157         hc     74    bbb     H7   2157 0.04936100   1.008000   ; qtot -0.085163
 2158         hc     74    bbb     H8   2158 0.04936100   1.008000   ; qtot -0.035802
 2159         c3     74    bbb     C5   2159 0.11363000  12.010000   ; qtot 0.077828
 2160         hc     74    bbb     H9   2160 0.06265900   1.008000   ; qtot 0.140487
 2161         hc     74    bbb    H10   2161 0.06265900   1.008000   ; qtot 0.203146
 2162         c3     74    bbb     C6   2162 0.11363000  12.010000   ; qtot 0.316776
 2163         hc     74    bbb    H11   2163 0.06265900   1.008000   ; qtot 0.379435
 2164         hc     74    bbb    H12   2164 0.06265900   1.008000   ; qtot 0.442094
 2165         c3     74    bbb     C7   2165 0.05858200  12.010000   ; qtot 0.500676
 2166         h1     74    bbb    H13   2166 0.06123400   1.008000   ; qtot 0.561910
 2167         h1     74    bbb    H14   2167 0.06123400   1.008000   ; qtot 0.623144
 2168         c3     74    bbb     C8   2168 -0.72423400  12.010000   ; qtot -0.101090
 2169         h1     74    bbb    H15   2169 0.25637600   1.008000   ; qtot 0.155286
 2170         h1     74    bbb    H16   2170 0.25637600   1.008000   ; qtot 0.411662
 2171         c3     74    bbb     C9   2171 -0.72423400  12.010000   ; qtot -0.312572
 2172         h1     74    bbb    H17   2172 0.25637600   1.008000   ; qtot -0.056196
 2173         h1     74    bbb    H18   2173 0.25637600   1.008000   ; qtot 0.200180
 2174         os     74    bbb     O1   2174 -0.20025300  16.000000   ; qtot -0.000073
; residue   75 bbb rtp bbb q -0.0
 2175         n3     75    bbb     N1   2175 -0.59685800  14.010000   ; qtot -0.596931
 2176         c3     75    bbb     C1   2176 0.10137000  12.010000   ; qtot -0.495561
 2177         h1     75    bbb     H1   2177 0.04411300   1.008000   ; qtot -0.451448
 2178         h1     75    bbb     H2   2178 0.04411300   1.008000   ; qtot -0.407335
 2179         c3     75    bbb     C2   2179 0.10137000  12.010000   ; qtot -0.305965
 2180         h1     75    bbb     H3   2180 0.04411300   1.008000   ; qtot -0.261852
 2181         h1     75    bbb     H4   2181 0.04411300   1.008000   ; qtot -0.217739
 2182         c3     75    bbb     C3   2182 -0.00195300  12.010000   ; qtot -0.219692
 2183         h1     75    bbb     H5   2183 0.05064400   1.008000   ; qtot -0.169048
 2184         h1     75    bbb     H6   2184 0.05064400   1.008000   ; qtot -0.118404
 2185         c3     75    bbb     C4   2185 -0.01612100  12.010000   ; qtot -0.134525
 2186         hc     75    bbb     H7   2186 0.04936100   1.008000   ; qtot -0.085164
 2187         hc     75    bbb     H8   2187 0.04936100   1.008000   ; qtot -0.035803
 2188         c3     75    bbb     C5   2188 0.11363000  12.010000   ; qtot 0.077827
 2189         hc     75    bbb     H9   2189 0.06265900   1.008000   ; qtot 0.140486
 2190         hc     75    bbb    H10   2190 0.06265900   1.008000   ; qtot 0.203145
 2191         c3     75    bbb     C6   2191 0.11363000  12.010000   ; qtot 0.316775
 2192         hc     75    bbb    H11   2192 0.06265900   1.008000   ; qtot 0.379434
 2193         hc     75    bbb    H12   2193 0.06265900   1.008000   ; qtot 0.442093
 2194         c3     75    bbb     C7   2194 0.05858200  12.010000   ; qtot 0.500675
 2195         h1     75    bbb    H13   2195 0.06123400   1.008000   ; qtot 0.561909
 2196         h1     75    bbb    H14   2196 0.06123400   1.008000   ; qtot 0.623143
 2197         c3     75    bbb     C8   2197 -0.72423400  12.010000   ; qtot -0.101091
 2198         h1     75    bbb    H15   2198 0.25637600   1.008000   ; qtot 0.155285
 2199         h1     75    bbb    H16   2199 0.25637600   1.008000   ; qtot 0.411661
 2200         c3     75    bbb     C9   2200 -0.72423400  12.010000   ; qtot -0.312573
 2201         h1     75    bbb    H17   2201 0.25637600   1.008000   ; qtot -0.056197
 2202         h1     75    bbb    H18   2202 0.25637600   1.008000   ; qtot 0.200179
 2203         os     75    bbb     O1   2203 -0.20025300  16.000000   ; qtot -0.000074
; residue   76 bbb rtp bbb q -0.0
 2204         n3     76    bbb     N1   2204 -0.59685800  14.010000   ; qtot -0.596932
 2205         c3     76    bbb     C1   2205 0.10137000  12.010000   ; qtot -0.495562
 2206         h1     76    bbb     H1   2206 0.04411300   1.008000   ; qtot -0.451449
 2207         h1     76    bbb     H2   2207 0.04411300   1.008000   ; qtot -0.407336
 2208         c3     76    bbb     C2   2208 0.10137000  12.010000   ; qtot -0.305966
 2209         h1     76    bbb     H3   2209 0.04411300   1.008000   ; qtot -0.261853
 2210         h1     76    bbb     H4   2210 0.04411300   1.008000   ; qtot -0.217740
 2211         c3     76    bbb     C3   2211 -0.00195300  12.010000   ; qtot -0.219693
 2212         h1     76    bbb     H5   2212 0.05064400   1.008000   ; qtot -0.169049
 2213         h1     76    bbb     H6   2213 0.05064400   1.008000   ; qtot -0.118405
 2214         c3     76    bbb     C4   2214 -0.01612100  12.010000   ; qtot -0.134526
 2215         hc     76    bbb     H7   2215 0.04936100   1.008000   ; qtot -0.085165
 2216         hc     76    bbb     H8   2216 0.04936100   1.008000   ; qtot -0.035804
 2217         c3     76    bbb     C5   2217 0.11363000  12.010000   ; qtot 0.077826
 2218         hc     76    bbb     H9   2218 0.06265900   1.008000   ; qtot 0.140485
 2219         hc     76    bbb    H10   2219 0.06265900   1.008000   ; qtot 0.203144
 2220         c3     76    bbb     C6   2220 0.11363000  12.010000   ; qtot 0.316774
 2221         hc     76    bbb    H11   2221 0.06265900   1.008000   ; qtot 0.379433
 2222         hc     76    bbb    H12   2222 0.06265900   1.008000   ; qtot 0.442092
 2223         c3     76    bbb     C7   2223 0.05858200  12.010000   ; qtot 0.500674
 2224         h1     76    bbb    H13   2224 0.06123400   1.008000   ; qtot 0.561908
 2225         h1     76    bbb    H14   2225 0.06123400   1.008000   ; qtot 0.623142
 2226         c3     76    bbb     C8   2226 -0.72423400  12.010000   ; qtot -0.101092
 2227         h1     76    bbb    H15   2227 0.25637600   1.008000   ; qtot 0.155284
 2228         h1     76    bbb    H16   2228 0.25637600   1.008000   ; qtot 0.411660
 2229         c3     76    bbb     C9   2229 -0.72423400  12.010000   ; qtot -0.312574
 2230         h1     76    bbb    H17   2230 0.25637600   1.008000   ; qtot -0.056198
 2231         h1     76    bbb    H18   2231 0.25637600   1.008000   ; qtot 0.200178
 2232         os     76    bbb     O1   2232 -0.20025300  16.000000   ; qtot -0.000075
; residue   77 bbb rtp bbb q -0.0
 2233         n3     77    bbb     N1   2233 -0.59685800  14.010000   ; qtot -0.596933
 2234         c3     77    bbb     C1   2234 0.10137000  12.010000   ; qtot -0.495563
 2235         h1     77    bbb     H1   2235 0.04411300   1.008000   ; qtot -0.451450
 2236         h1     77    bbb     H2   2236 0.04411300   1.008000   ; qtot -0.407337
 2237         c3     77    bbb     C2   2237 0.10137000  12.010000   ; qtot -0.305967
 2238         h1     77    bbb     H3   2238 0.04411300   1.008000   ; qtot -0.261854
 2239         h1     77    bbb     H4   2239 0.04411300   1.008000   ; qtot -0.217741
 2240         c3     77    bbb     C3   2240 -0.00195300  12.010000   ; qtot -0.219694
 2241         h1     77    bbb     H5   2241 0.05064400   1.008000   ; qtot -0.169050
 2242         h1     77    bbb     H6   2242 0.05064400   1.008000   ; qtot -0.118406
 2243         c3     77    bbb     C4   2243 -0.01612100  12.010000   ; qtot -0.134527
 2244         hc     77    bbb     H7   2244 0.04936100   1.008000   ; qtot -0.085166
 2245         hc     77    bbb     H8   2245 0.04936100   1.008000   ; qtot -0.035805
 2246         c3     77    bbb     C5   2246 0.11363000  12.010000   ; qtot 0.077825
 2247         hc     77    bbb     H9   2247 0.06265900   1.008000   ; qtot 0.140484
 2248         hc     77    bbb    H10   2248 0.06265900   1.008000   ; qtot 0.203143
 2249         c3     77    bbb     C6   2249 0.11363000  12.010000   ; qtot 0.316773
 2250         hc     77    bbb    H11   2250 0.06265900   1.008000   ; qtot 0.379432
 2251         hc     77    bbb    H12   2251 0.06265900   1.008000   ; qtot 0.442091
 2252         c3     77    bbb     C7   2252 0.05858200  12.010000   ; qtot 0.500673
 2253         h1     77    bbb    H13   2253 0.06123400   1.008000   ; qtot 0.561907
 2254         h1     77    bbb    H14   2254 0.06123400   1.008000   ; qtot 0.623141
 2255         c3     77    bbb     C8   2255 -0.72423400  12.010000   ; qtot -0.101093
 2256         h1     77    bbb    H15   2256 0.25637600   1.008000   ; qtot 0.155283
 2257         h1     77    bbb    H16   2257 0.25637600   1.008000   ; qtot 0.411659
 2258         c3     77    bbb     C9   2258 -0.72423400  12.010000   ; qtot -0.312575
 2259         h1     77    bbb    H17   2259 0.25637600   1.008000   ; qtot -0.056199
 2260         h1     77    bbb    H18   2260 0.25637600   1.008000   ; qtot 0.200177
 2261         os     77    bbb     O1   2261 -0.20025300  16.000000   ; qtot -0.000076
; residue   78 bbb rtp bbb q -0.0
 2262         n3     78    bbb     N1   2262 -0.59685800  14.010000   ; qtot -0.596934
 2263         c3     78    bbb     C1   2263 0.10137000  12.010000   ; qtot -0.495564
 2264         h1     78    bbb     H1   2264 0.04411300   1.008000   ; qtot -0.451451
 2265         h1     78    bbb     H2   2265 0.04411300   1.008000   ; qtot -0.407338
 2266         c3     78    bbb     C2   2266 0.10137000  12.010000   ; qtot -0.305968
 2267         h1     78    bbb     H3   2267 0.04411300   1.008000   ; qtot -0.261855
 2268         h1     78    bbb     H4   2268 0.04411300   1.008000   ; qtot -0.217742
 2269         c3     78    bbb     C3   2269 -0.00195300  12.010000   ; qtot -0.219695
 2270         h1     78    bbb     H5   2270 0.05064400   1.008000   ; qtot -0.169051
 2271         h1     78    bbb     H6   2271 0.05064400   1.008000   ; qtot -0.118407
 2272         c3     78    bbb     C4   2272 -0.01612100  12.010000   ; qtot -0.134528
 2273         hc     78    bbb     H7   2273 0.04936100   1.008000   ; qtot -0.085167
 2274         hc     78    bbb     H8   2274 0.04936100   1.008000   ; qtot -0.035806
 2275         c3     78    bbb     C5   2275 0.11363000  12.010000   ; qtot 0.077824
 2276         hc     78    bbb     H9   2276 0.06265900   1.008000   ; qtot 0.140483
 2277         hc     78    bbb    H10   2277 0.06265900   1.008000   ; qtot 0.203142
 2278         c3     78    bbb     C6   2278 0.11363000  12.010000   ; qtot 0.316772
 2279         hc     78    bbb    H11   2279 0.06265900   1.008000   ; qtot 0.379431
 2280         hc     78    bbb    H12   2280 0.06265900   1.008000   ; qtot 0.442090
 2281         c3     78    bbb     C7   2281 0.05858200  12.010000   ; qtot 0.500672
 2282         h1     78    bbb    H13   2282 0.06123400   1.008000   ; qtot 0.561906
 2283         h1     78    bbb    H14   2283 0.06123400   1.008000   ; qtot 0.623140
 2284         c3     78    bbb     C8   2284 -0.72423400  12.010000   ; qtot -0.101094
 2285         h1     78    bbb    H15   2285 0.25637600   1.008000   ; qtot 0.155282
 2286         h1     78    bbb    H16   2286 0.25637600   1.008000   ; qtot 0.411658
 2287         c3     78    bbb     C9   2287 -0.72423400  12.010000   ; qtot -0.312576
 2288         h1     78    bbb    H17   2288 0.25637600   1.008000   ; qtot -0.056200
 2289         h1     78    bbb    H18   2289 0.25637600   1.008000   ; qtot 0.200176
 2290         os     78    bbb     O1   2290 -0.20025300  16.000000   ; qtot -0.000077
; residue   79 bbb rtp bbb q -0.0
 2291         n3     79    bbb     N1   2291 -0.59685800  14.010000   ; qtot -0.596935
 2292         c3     79    bbb     C1   2292 0.10137000  12.010000   ; qtot -0.495565
 2293         h1     79    bbb     H1   2293 0.04411300   1.008000   ; qtot -0.451452
 2294         h1     79    bbb     H2   2294 0.04411300   1.008000   ; qtot -0.407339
 2295         c3     79    bbb     C2   2295 0.10137000  12.010000   ; qtot -0.305969
 2296         h1     79    bbb     H3   2296 0.04411300   1.008000   ; qtot -0.261856
 2297         h1     79    bbb     H4   2297 0.04411300   1.008000   ; qtot -0.217743
 2298         c3     79    bbb     C3   2298 -0.00195300  12.010000   ; qtot -0.219696
 2299         h1     79    bbb     H5   2299 0.05064400   1.008000   ; qtot -0.169052
 2300         h1     79    bbb     H6   2300 0.05064400   1.008000   ; qtot -0.118408
 2301         c3     79    bbb     C4   2301 -0.01612100  12.010000   ; qtot -0.134529
 2302         hc     79    bbb     H7   2302 0.04936100   1.008000   ; qtot -0.085168
 2303         hc     79    bbb     H8   2303 0.04936100   1.008000   ; qtot -0.035807
 2304         c3     79    bbb     C5   2304 0.11363000  12.010000   ; qtot 0.077823
 2305         hc     79    bbb     H9   2305 0.06265900   1.008000   ; qtot 0.140482
 2306         hc     79    bbb    H10   2306 0.06265900   1.008000   ; qtot 0.203141
 2307         c3     79    bbb     C6   2307 0.11363000  12.010000   ; qtot 0.316771
 2308         hc     79    bbb    H11   2308 0.06265900   1.008000   ; qtot 0.379430
 2309         hc     79    bbb    H12   2309 0.06265900   1.008000   ; qtot 0.442089
 2310         c3     79    bbb     C7   2310 0.05858200  12.010000   ; qtot 0.500671
 2311         h1     79    bbb    H13   2311 0.06123400   1.008000   ; qtot 0.561905
 2312         h1     79    bbb    H14   2312 0.06123400   1.008000   ; qtot 0.623139
 2313         c3     79    bbb     C8   2313 -0.72423400  12.010000   ; qtot -0.101095
 2314         h1     79    bbb    H15   2314 0.25637600   1.008000   ; qtot 0.155281
 2315         h1     79    bbb    H16   2315 0.25637600   1.008000   ; qtot 0.411657
 2316         c3     79    bbb     C9   2316 -0.72423400  12.010000   ; qtot -0.312577
 2317         h1     79    bbb    H17   2317 0.25637600   1.008000   ; qtot -0.056201
 2318         h1     79    bbb    H18   2318 0.25637600   1.008000   ; qtot 0.200175
 2319         os     79    bbb     O1   2319 -0.20025300  16.000000   ; qtot -0.000078
; residue   80 bbb rtp bbb q -0.0
 2320         n3     80    bbb     N1   2320 -0.59685800  14.010000   ; qtot -0.596936
 2321         c3     80    bbb     C1   2321 0.10137000  12.010000   ; qtot -0.495566
 2322         h1     80    bbb     H1   2322 0.04411300   1.008000   ; qtot -0.451453
 2323         h1     80    bbb     H2   2323 0.04411300   1.008000   ; qtot -0.407340
 2324         c3     80    bbb     C2   2324 0.10137000  12.010000   ; qtot -0.305970
 2325         h1     80    bbb     H3   2325 0.04411300   1.008000   ; qtot -0.261857
 2326         h1     80    bbb     H4   2326 0.04411300   1.008000   ; qtot -0.217744
 2327         c3     80    bbb     C3   2327 -0.00195300  12.010000   ; qtot -0.219697
 2328         h1     80    bbb     H5   2328 0.05064400   1.008000   ; qtot -0.169053
 2329         h1     80    bbb     H6   2329 0.05064400   1.008000   ; qtot -0.118409
 2330         c3     80    bbb     C4   2330 -0.01612100  12.010000   ; qtot -0.134530
 2331         hc     80    bbb     H7   2331 0.04936100   1.008000   ; qtot -0.085169
 2332         hc     80    bbb     H8   2332 0.04936100   1.008000   ; qtot -0.035808
 2333         c3     80    bbb     C5   2333 0.11363000  12.010000   ; qtot 0.077822
 2334         hc     80    bbb     H9   2334 0.06265900   1.008000   ; qtot 0.140481
 2335         hc     80    bbb    H10   2335 0.06265900   1.008000   ; qtot 0.203140
 2336         c3     80    bbb     C6   2336 0.11363000  12.010000   ; qtot 0.316770
 2337         hc     80    bbb    H11   2337 0.06265900   1.008000   ; qtot 0.379429
 2338         hc     80    bbb    H12   2338 0.06265900   1.008000   ; qtot 0.442088
 2339         c3     80    bbb     C7   2339 0.05858200  12.010000   ; qtot 0.500670
 2340         h1     80    bbb    H13   2340 0.06123400   1.008000   ; qtot 0.561904
 2341         h1     80    bbb    H14   2341 0.06123400   1.008000   ; qtot 0.623138
 2342         c3     80    bbb     C8   2342 -0.72423400  12.010000   ; qtot -0.101096
 2343         h1     80    bbb    H15   2343 0.25637600   1.008000   ; qtot 0.155280
 2344         h1     80    bbb    H16   2344 0.25637600   1.008000   ; qtot 0.411656
 2345         c3     80    bbb     C9   2345 -0.72423400  12.010000   ; qtot -0.312578
 2346         h1     80    bbb    H17   2346 0.25637600   1.008000   ; qtot -0.056202
 2347         h1     80    bbb    H18   2347 0.25637600   1.008000   ; qtot 0.200174
 2348         os     80    bbb     O1   2348 -0.20025300  16.000000   ; qtot -0.000079
; residue   81 bbb rtp bbb q -0.0
 2349         n3     81    bbb     N1   2349 -0.59685800  14.010000   ; qtot -0.596937
 2350         c3     81    bbb     C1   2350 0.10137000  12.010000   ; qtot -0.495567
 2351         h1     81    bbb     H1   2351 0.04411300   1.008000   ; qtot -0.451454
 2352         h1     81    bbb     H2   2352 0.04411300   1.008000   ; qtot -0.407341
 2353         c3     81    bbb     C2   2353 0.10137000  12.010000   ; qtot -0.305971
 2354         h1     81    bbb     H3   2354 0.04411300   1.008000   ; qtot -0.261858
 2355         h1     81    bbb     H4   2355 0.04411300   1.008000   ; qtot -0.217745
 2356         c3     81    bbb     C3   2356 -0.00195300  12.010000   ; qtot -0.219698
 2357         h1     81    bbb     H5   2357 0.05064400   1.008000   ; qtot -0.169054
 2358         h1     81    bbb     H6   2358 0.05064400   1.008000   ; qtot -0.118410
 2359         c3     81    bbb     C4   2359 -0.01612100  12.010000   ; qtot -0.134531
 2360         hc     81    bbb     H7   2360 0.04936100   1.008000   ; qtot -0.085170
 2361         hc     81    bbb     H8   2361 0.04936100   1.008000   ; qtot -0.035809
 2362         c3     81    bbb     C5   2362 0.11363000  12.010000   ; qtot 0.077821
 2363         hc     81    bbb     H9   2363 0.06265900   1.008000   ; qtot 0.140480
 2364         hc     81    bbb    H10   2364 0.06265900   1.008000   ; qtot 0.203139
 2365         c3     81    bbb     C6   2365 0.11363000  12.010000   ; qtot 0.316769
 2366         hc     81    bbb    H11   2366 0.06265900   1.008000   ; qtot 0.379428
 2367         hc     81    bbb    H12   2367 0.06265900   1.008000   ; qtot 0.442087
 2368         c3     81    bbb     C7   2368 0.05858200  12.010000   ; qtot 0.500669
 2369         h1     81    bbb    H13   2369 0.06123400   1.008000   ; qtot 0.561903
 2370         h1     81    bbb    H14   2370 0.06123400   1.008000   ; qtot 0.623137
 2371         c3     81    bbb     C8   2371 -0.72423400  12.010000   ; qtot -0.101097
 2372         h1     81    bbb    H15   2372 0.25637600   1.008000   ; qtot 0.155279
 2373         h1     81    bbb    H16   2373 0.25637600   1.008000   ; qtot 0.411655
 2374         c3     81    bbb     C9   2374 -0.72423400  12.010000   ; qtot -0.312579
 2375         h1     81    bbb    H17   2375 0.25637600   1.008000   ; qtot -0.056203
 2376         h1     81    bbb    H18   2376 0.25637600   1.008000   ; qtot 0.200173
 2377         os     81    bbb     O1   2377 -0.20025300  16.000000   ; qtot -0.000080
; residue   82 bbb rtp bbb q -0.0
 2378         n3     82    bbb     N1   2378 -0.59685800  14.010000   ; qtot -0.596938
 2379         c3     82    bbb     C1   2379 0.10137000  12.010000   ; qtot -0.495568
 2380         h1     82    bbb     H1   2380 0.04411300   1.008000   ; qtot -0.451455
 2381         h1     82    bbb     H2   2381 0.04411300   1.008000   ; qtot -0.407342
 2382         c3     82    bbb     C2   2382 0.10137000  12.010000   ; qtot -0.305972
 2383         h1     82    bbb     H3   2383 0.04411300   1.008000   ; qtot -0.261859
 2384         h1     82    bbb     H4   2384 0.04411300   1.008000   ; qtot -0.217746
 2385         c3     82    bbb     C3   2385 -0.00195300  12.010000   ; qtot -0.219699
 2386         h1     82    bbb     H5   2386 0.05064400   1.008000   ; qtot -0.169055
 2387         h1     82    bbb     H6   2387 0.05064400   1.008000   ; qtot -0.118411
 2388         c3     82    bbb     C4   2388 -0.01612100  12.010000   ; qtot -0.134532
 2389         hc     82    bbb     H7   2389 0.04936100   1.008000   ; qtot -0.085171
 2390         hc     82    bbb     H8   2390 0.04936100   1.008000   ; qtot -0.035810
 2391         c3     82    bbb     C5   2391 0.11363000  12.010000   ; qtot 0.077820
 2392         hc     82    bbb     H9   2392 0.06265900   1.008000   ; qtot 0.140479
 2393         hc     82    bbb    H10   2393 0.06265900   1.008000   ; qtot 0.203138
 2394         c3     82    bbb     C6   2394 0.11363000  12.010000   ; qtot 0.316768
 2395         hc     82    bbb    H11   2395 0.06265900   1.008000   ; qtot 0.379427
 2396         hc     82    bbb    H12   2396 0.06265900   1.008000   ; qtot 0.442086
 2397         c3     82    bbb     C7   2397 0.05858200  12.010000   ; qtot 0.500668
 2398         h1     82    bbb    H13   2398 0.06123400   1.008000   ; qtot 0.561902
 2399         h1     82    bbb    H14   2399 0.06123400   1.008000   ; qtot 0.623136
 2400         c3     82    bbb     C8   2400 -0.72423400  12.010000   ; qtot -0.101098
 2401         h1     82    bbb    H15   2401 0.25637600   1.008000   ; qtot 0.155278
 2402         h1     82    bbb    H16   2402 0.25637600   1.008000   ; qtot 0.411654
 2403         c3     82    bbb     C9   2403 -0.72423400  12.010000   ; qtot -0.312580
 2404         h1     82    bbb    H17   2404 0.25637600   1.008000   ; qtot -0.056204
 2405         h1     82    bbb    H18   2405 0.25637600   1.008000   ; qtot 0.200172
 2406         os     82    bbb     O1   2406 -0.20025300  16.000000   ; qtot -0.000081
; residue   83 bbb rtp bbb q -0.0
 2407         n3     83    bbb     N1   2407 -0.59685800  14.010000   ; qtot -0.596939
 2408         c3     83    bbb     C1   2408 0.10137000  12.010000   ; qtot -0.495569
 2409         h1     83    bbb     H1   2409 0.04411300   1.008000   ; qtot -0.451456
 2410         h1     83    bbb     H2   2410 0.04411300   1.008000   ; qtot -0.407343
 2411         c3     83    bbb     C2   2411 0.10137000  12.010000   ; qtot -0.305973
 2412         h1     83    bbb     H3   2412 0.04411300   1.008000   ; qtot -0.261860
 2413         h1     83    bbb     H4   2413 0.04411300   1.008000   ; qtot -0.217747
 2414         c3     83    bbb     C3   2414 -0.00195300  12.010000   ; qtot -0.219700
 2415         h1     83    bbb     H5   2415 0.05064400   1.008000   ; qtot -0.169056
 2416         h1     83    bbb     H6   2416 0.05064400   1.008000   ; qtot -0.118412
 2417         c3     83    bbb     C4   2417 -0.01612100  12.010000   ; qtot -0.134533
 2418         hc     83    bbb     H7   2418 0.04936100   1.008000   ; qtot -0.085172
 2419         hc     83    bbb     H8   2419 0.04936100   1.008000   ; qtot -0.035811
 2420         c3     83    bbb     C5   2420 0.11363000  12.010000   ; qtot 0.077819
 2421         hc     83    bbb     H9   2421 0.06265900   1.008000   ; qtot 0.140478
 2422         hc     83    bbb    H10   2422 0.06265900   1.008000   ; qtot 0.203137
 2423         c3     83    bbb     C6   2423 0.11363000  12.010000   ; qtot 0.316767
 2424         hc     83    bbb    H11   2424 0.06265900   1.008000   ; qtot 0.379426
 2425         hc     83    bbb    H12   2425 0.06265900   1.008000   ; qtot 0.442085
 2426         c3     83    bbb     C7   2426 0.05858200  12.010000   ; qtot 0.500667
 2427         h1     83    bbb    H13   2427 0.06123400   1.008000   ; qtot 0.561901
 2428         h1     83    bbb    H14   2428 0.06123400   1.008000   ; qtot 0.623135
 2429         c3     83    bbb     C8   2429 -0.72423400  12.010000   ; qtot -0.101099
 2430         h1     83    bbb    H15   2430 0.25637600   1.008000   ; qtot 0.155277
 2431         h1     83    bbb    H16   2431 0.25637600   1.008000   ; qtot 0.411653
 2432         c3     83    bbb     C9   2432 -0.72423400  12.010000   ; qtot -0.312581
 2433         h1     83    bbb    H17   2433 0.25637600   1.008000   ; qtot -0.056205
 2434         h1     83    bbb    H18   2434 0.25637600   1.008000   ; qtot 0.200171
 2435         os     83    bbb     O1   2435 -0.20025300  16.000000   ; qtot -0.000082
; residue   84 bbb rtp bbb q -0.0
 2436         n3     84    bbb     N1   2436 -0.59685800  14.010000   ; qtot -0.596940
 2437         c3     84    bbb     C1   2437 0.10137000  12.010000   ; qtot -0.495570
 2438         h1     84    bbb     H1   2438 0.04411300   1.008000   ; qtot -0.451457
 2439         h1     84    bbb     H2   2439 0.04411300   1.008000   ; qtot -0.407344
 2440         c3     84    bbb     C2   2440 0.10137000  12.010000   ; qtot -0.305974
 2441         h1     84    bbb     H3   2441 0.04411300   1.008000   ; qtot -0.261861
 2442         h1     84    bbb     H4   2442 0.04411300   1.008000   ; qtot -0.217748
 2443         c3     84    bbb     C3   2443 -0.00195300  12.010000   ; qtot -0.219701
 2444         h1     84    bbb     H5   2444 0.05064400   1.008000   ; qtot -0.169057
 2445         h1     84    bbb     H6   2445 0.05064400   1.008000   ; qtot -0.118413
 2446         c3     84    bbb     C4   2446 -0.01612100  12.010000   ; qtot -0.134534
 2447         hc     84    bbb     H7   2447 0.04936100   1.008000   ; qtot -0.085173
 2448         hc     84    bbb     H8   2448 0.04936100   1.008000   ; qtot -0.035812
 2449         c3     84    bbb     C5   2449 0.11363000  12.010000   ; qtot 0.077818
 2450         hc     84    bbb     H9   2450 0.06265900   1.008000   ; qtot 0.140477
 2451         hc     84    bbb    H10   2451 0.06265900   1.008000   ; qtot 0.203136
 2452         c3     84    bbb     C6   2452 0.11363000  12.010000   ; qtot 0.316766
 2453         hc     84    bbb    H11   2453 0.06265900   1.008000   ; qtot 0.379425
 2454         hc     84    bbb    H12   2454 0.06265900   1.008000   ; qtot 0.442084
 2455         c3     84    bbb     C7   2455 0.05858200  12.010000   ; qtot 0.500666
 2456         h1     84    bbb    H13   2456 0.06123400   1.008000   ; qtot 0.561900
 2457         h1     84    bbb    H14   2457 0.06123400   1.008000   ; qtot 0.623134
 2458         c3     84    bbb     C8   2458 -0.72423400  12.010000   ; qtot -0.101100
 2459         h1     84    bbb    H15   2459 0.25637600   1.008000   ; qtot 0.155276
 2460         h1     84    bbb    H16   2460 0.25637600   1.008000   ; qtot 0.411652
 2461         c3     84    bbb     C9   2461 -0.72423400  12.010000   ; qtot -0.312582
 2462         h1     84    bbb    H17   2462 0.25637600   1.008000   ; qtot -0.056206
 2463         h1     84    bbb    H18   2463 0.25637600   1.008000   ; qtot 0.200170
 2464         os     84    bbb     O1   2464 -0.20025300  16.000000   ; qtot -0.000083
; residue   85 bbb rtp bbb q -0.0
 2465         n3     85    bbb     N1   2465 -0.59685800  14.010000   ; qtot -0.596941
 2466         c3     85    bbb     C1   2466 0.10137000  12.010000   ; qtot -0.495571
 2467         h1     85    bbb     H1   2467 0.04411300   1.008000   ; qtot -0.451458
 2468         h1     85    bbb     H2   2468 0.04411300   1.008000   ; qtot -0.407345
 2469         c3     85    bbb     C2   2469 0.10137000  12.010000   ; qtot -0.305975
 2470         h1     85    bbb     H3   2470 0.04411300   1.008000   ; qtot -0.261862
 2471         h1     85    bbb     H4   2471 0.04411300   1.008000   ; qtot -0.217749
 2472         c3     85    bbb     C3   2472 -0.00195300  12.010000   ; qtot -0.219702
 2473         h1     85    bbb     H5   2473 0.05064400   1.008000   ; qtot -0.169058
 2474         h1     85    bbb     H6   2474 0.05064400   1.008000   ; qtot -0.118414
 2475         c3     85    bbb     C4   2475 -0.01612100  12.010000   ; qtot -0.134535
 2476         hc     85    bbb     H7   2476 0.04936100   1.008000   ; qtot -0.085174
 2477         hc     85    bbb     H8   2477 0.04936100   1.008000   ; qtot -0.035813
 2478         c3     85    bbb     C5   2478 0.11363000  12.010000   ; qtot 0.077817
 2479         hc     85    bbb     H9   2479 0.06265900   1.008000   ; qtot 0.140476
 2480         hc     85    bbb    H10   2480 0.06265900   1.008000   ; qtot 0.203135
 2481         c3     85    bbb     C6   2481 0.11363000  12.010000   ; qtot 0.316765
 2482         hc     85    bbb    H11   2482 0.06265900   1.008000   ; qtot 0.379424
 2483         hc     85    bbb    H12   2483 0.06265900   1.008000   ; qtot 0.442083
 2484         c3     85    bbb     C7   2484 0.05858200  12.010000   ; qtot 0.500665
 2485         h1     85    bbb    H13   2485 0.06123400   1.008000   ; qtot 0.561899
 2486         h1     85    bbb    H14   2486 0.06123400   1.008000   ; qtot 0.623133
 2487         c3     85    bbb     C8   2487 -0.72423400  12.010000   ; qtot -0.101101
 2488         h1     85    bbb    H15   2488 0.25637600   1.008000   ; qtot 0.155275
 2489         h1     85    bbb    H16   2489 0.25637600   1.008000   ; qtot 0.411651
 2490         c3     85    bbb     C9   2490 -0.72423400  12.010000   ; qtot -0.312583
 2491         h1     85    bbb    H17   2491 0.25637600   1.008000   ; qtot -0.056207
 2492         h1     85    bbb    H18   2492 0.25637600   1.008000   ; qtot 0.200169
 2493         os     85    bbb     O1   2493 -0.20025300  16.000000   ; qtot -0.000084
; residue   86 bbb rtp bbb q -0.0
 2494         n3     86    bbb     N1   2494 -0.59685800  14.010000   ; qtot -0.596942
 2495         c3     86    bbb     C1   2495 0.10137000  12.010000   ; qtot -0.495572
 2496         h1     86    bbb     H1   2496 0.04411300   1.008000   ; qtot -0.451459
 2497         h1     86    bbb     H2   2497 0.04411300   1.008000   ; qtot -0.407346
 2498         c3     86    bbb     C2   2498 0.10137000  12.010000   ; qtot -0.305976
 2499         h1     86    bbb     H3   2499 0.04411300   1.008000   ; qtot -0.261863
 2500         h1     86    bbb     H4   2500 0.04411300   1.008000   ; qtot -0.217750
 2501         c3     86    bbb     C3   2501 -0.00195300  12.010000   ; qtot -0.219703
 2502         h1     86    bbb     H5   2502 0.05064400   1.008000   ; qtot -0.169059
 2503         h1     86    bbb     H6   2503 0.05064400   1.008000   ; qtot -0.118415
 2504         c3     86    bbb     C4   2504 -0.01612100  12.010000   ; qtot -0.134536
 2505         hc     86    bbb     H7   2505 0.04936100   1.008000   ; qtot -0.085175
 2506         hc     86    bbb     H8   2506 0.04936100   1.008000   ; qtot -0.035814
 2507         c3     86    bbb     C5   2507 0.11363000  12.010000   ; qtot 0.077816
 2508         hc     86    bbb     H9   2508 0.06265900   1.008000   ; qtot 0.140475
 2509         hc     86    bbb    H10   2509 0.06265900   1.008000   ; qtot 0.203134
 2510         c3     86    bbb     C6   2510 0.11363000  12.010000   ; qtot 0.316764
 2511         hc     86    bbb    H11   2511 0.06265900   1.008000   ; qtot 0.379423
 2512         hc     86    bbb    H12   2512 0.06265900   1.008000   ; qtot 0.442082
 2513         c3     86    bbb     C7   2513 0.05858200  12.010000   ; qtot 0.500664
 2514         h1     86    bbb    H13   2514 0.06123400   1.008000   ; qtot 0.561898
 2515         h1     86    bbb    H14   2515 0.06123400   1.008000   ; qtot 0.623132
 2516         c3     86    bbb     C8   2516 -0.72423400  12.010000   ; qtot -0.101102
 2517         h1     86    bbb    H15   2517 0.25637600   1.008000   ; qtot 0.155274
 2518         h1     86    bbb    H16   2518 0.25637600   1.008000   ; qtot 0.411650
 2519         c3     86    bbb     C9   2519 -0.72423400  12.010000   ; qtot -0.312584
 2520         h1     86    bbb    H17   2520 0.25637600   1.008000   ; qtot -0.056208
 2521         h1     86    bbb    H18   2521 0.25637600   1.008000   ; qtot 0.200168
 2522         os     86    bbb     O1   2522 -0.20025300  16.000000   ; qtot -0.000085
; residue   87 bbb rtp bbb q -0.0
 2523         n3     87    bbb     N1   2523 -0.59685800  14.010000   ; qtot -0.596943
 2524         c3     87    bbb     C1   2524 0.10137000  12.010000   ; qtot -0.495573
 2525         h1     87    bbb     H1   2525 0.04411300   1.008000   ; qtot -0.451460
 2526         h1     87    bbb     H2   2526 0.04411300   1.008000   ; qtot -0.407347
 2527         c3     87    bbb     C2   2527 0.10137000  12.010000   ; qtot -0.305977
 2528         h1     87    bbb     H3   2528 0.04411300   1.008000   ; qtot -0.261864
 2529         h1     87    bbb     H4   2529 0.04411300   1.008000   ; qtot -0.217751
 2530         c3     87    bbb     C3   2530 -0.00195300  12.010000   ; qtot -0.219704
 2531         h1     87    bbb     H5   2531 0.05064400   1.008000   ; qtot -0.169060
 2532         h1     87    bbb     H6   2532 0.05064400   1.008000   ; qtot -0.118416
 2533         c3     87    bbb     C4   2533 -0.01612100  12.010000   ; qtot -0.134537
 2534         hc     87    bbb     H7   2534 0.04936100   1.008000   ; qtot -0.085176
 2535         hc     87    bbb     H8   2535 0.04936100   1.008000   ; qtot -0.035815
 2536         c3     87    bbb     C5   2536 0.11363000  12.010000   ; qtot 0.077815
 2537         hc     87    bbb     H9   2537 0.06265900   1.008000   ; qtot 0.140474
 2538         hc     87    bbb    H10   2538 0.06265900   1.008000   ; qtot 0.203133
 2539         c3     87    bbb     C6   2539 0.11363000  12.010000   ; qtot 0.316763
 2540         hc     87    bbb    H11   2540 0.06265900   1.008000   ; qtot 0.379422
 2541         hc     87    bbb    H12   2541 0.06265900   1.008000   ; qtot 0.442081
 2542         c3     87    bbb     C7   2542 0.05858200  12.010000   ; qtot 0.500663
 2543         h1     87    bbb    H13   2543 0.06123400   1.008000   ; qtot 0.561897
 2544         h1     87    bbb    H14   2544 0.06123400   1.008000   ; qtot 0.623131
 2545         c3     87    bbb     C8   2545 -0.72423400  12.010000   ; qtot -0.101103
 2546         h1     87    bbb    H15   2546 0.25637600   1.008000   ; qtot 0.155273
 2547         h1     87    bbb    H16   2547 0.25637600   1.008000   ; qtot 0.411649
 2548         c3     87    bbb     C9   2548 -0.72423400  12.010000   ; qtot -0.312585
 2549         h1     87    bbb    H17   2549 0.25637600   1.008000   ; qtot -0.056209
 2550         h1     87    bbb    H18   2550 0.25637600   1.008000   ; qtot 0.200167
 2551         os     87    bbb     O1   2551 -0.20025300  16.000000   ; qtot -0.000086
; residue   88 bbb rtp bbb q -0.0
 2552         n3     88    bbb     N1   2552 -0.59685800  14.010000   ; qtot -0.596944
 2553         c3     88    bbb     C1   2553 0.10137000  12.010000   ; qtot -0.495574
 2554         h1     88    bbb     H1   2554 0.04411300   1.008000   ; qtot -0.451461
 2555         h1     88    bbb     H2   2555 0.04411300   1.008000   ; qtot -0.407348
 2556         c3     88    bbb     C2   2556 0.10137000  12.010000   ; qtot -0.305978
 2557         h1     88    bbb     H3   2557 0.04411300   1.008000   ; qtot -0.261865
 2558         h1     88    bbb     H4   2558 0.04411300   1.008000   ; qtot -0.217752
 2559         c3     88    bbb     C3   2559 -0.00195300  12.010000   ; qtot -0.219705
 2560         h1     88    bbb     H5   2560 0.05064400   1.008000   ; qtot -0.169061
 2561         h1     88    bbb     H6   2561 0.05064400   1.008000   ; qtot -0.118417
 2562         c3     88    bbb     C4   2562 -0.01612100  12.010000   ; qtot -0.134538
 2563         hc     88    bbb     H7   2563 0.04936100   1.008000   ; qtot -0.085177
 2564         hc     88    bbb     H8   2564 0.04936100   1.008000   ; qtot -0.035816
 2565         c3     88    bbb     C5   2565 0.11363000  12.010000   ; qtot 0.077814
 2566         hc     88    bbb     H9   2566 0.06265900   1.008000   ; qtot 0.140473
 2567         hc     88    bbb    H10   2567 0.06265900   1.008000   ; qtot 0.203132
 2568         c3     88    bbb     C6   2568 0.11363000  12.010000   ; qtot 0.316762
 2569         hc     88    bbb    H11   2569 0.06265900   1.008000   ; qtot 0.379421
 2570         hc     88    bbb    H12   2570 0.06265900   1.008000   ; qtot 0.442080
 2571         c3     88    bbb     C7   2571 0.05858200  12.010000   ; qtot 0.500662
 2572         h1     88    bbb    H13   2572 0.06123400   1.008000   ; qtot 0.561896
 2573         h1     88    bbb    H14   2573 0.06123400   1.008000   ; qtot 0.623130
 2574         c3     88    bbb     C8   2574 -0.72423400  12.010000   ; qtot -0.101104
 2575         h1     88    bbb    H15   2575 0.25637600   1.008000   ; qtot 0.155272
 2576         h1     88    bbb    H16   2576 0.25637600   1.008000   ; qtot 0.411648
 2577         c3     88    bbb     C9   2577 -0.72423400  12.010000   ; qtot -0.312586
 2578         h1     88    bbb    H17   2578 0.25637600   1.008000   ; qtot -0.056210
 2579         h1     88    bbb    H18   2579 0.25637600   1.008000   ; qtot 0.200166
 2580         os     88    bbb     O1   2580 -0.20025300  16.000000   ; qtot -0.000087
; residue   89 bbb rtp bbb q -0.0
 2581         n3     89    bbb     N1   2581 -0.59685800  14.010000   ; qtot -0.596945
 2582         c3     89    bbb     C1   2582 0.10137000  12.010000   ; qtot -0.495575
 2583         h1     89    bbb     H1   2583 0.04411300   1.008000   ; qtot -0.451462
 2584         h1     89    bbb     H2   2584 0.04411300   1.008000   ; qtot -0.407349
 2585         c3     89    bbb     C2   2585 0.10137000  12.010000   ; qtot -0.305979
 2586         h1     89    bbb     H3   2586 0.04411300   1.008000   ; qtot -0.261866
 2587         h1     89    bbb     H4   2587 0.04411300   1.008000   ; qtot -0.217753
 2588         c3     89    bbb     C3   2588 -0.00195300  12.010000   ; qtot -0.219706
 2589         h1     89    bbb     H5   2589 0.05064400   1.008000   ; qtot -0.169062
 2590         h1     89    bbb     H6   2590 0.05064400   1.008000   ; qtot -0.118418
 2591         c3     89    bbb     C4   2591 -0.01612100  12.010000   ; qtot -0.134539
 2592         hc     89    bbb     H7   2592 0.04936100   1.008000   ; qtot -0.085178
 2593         hc     89    bbb     H8   2593 0.04936100   1.008000   ; qtot -0.035817
 2594         c3     89    bbb     C5   2594 0.11363000  12.010000   ; qtot 0.077813
 2595         hc     89    bbb     H9   2595 0.06265900   1.008000   ; qtot 0.140472
 2596         hc     89    bbb    H10   2596 0.06265900   1.008000   ; qtot 0.203131
 2597         c3     89    bbb     C6   2597 0.11363000  12.010000   ; qtot 0.316761
 2598         hc     89    bbb    H11   2598 0.06265900   1.008000   ; qtot 0.379420
 2599         hc     89    bbb    H12   2599 0.06265900   1.008000   ; qtot 0.442079
 2600         c3     89    bbb     C7   2600 0.05858200  12.010000   ; qtot 0.500661
 2601         h1     89    bbb    H13   2601 0.06123400   1.008000   ; qtot 0.561895
 2602         h1     89    bbb    H14   2602 0.06123400   1.008000   ; qtot 0.623129
 2603         c3     89    bbb     C8   2603 -0.72423400  12.010000   ; qtot -0.101105
 2604         h1     89    bbb    H15   2604 0.25637600   1.008000   ; qtot 0.155271
 2605         h1     89    bbb    H16   2605 0.25637600   1.008000   ; qtot 0.411647
 2606         c3     89    bbb     C9   2606 -0.72423400  12.010000   ; qtot -0.312587
 2607         h1     89    bbb    H17   2607 0.25637600   1.008000   ; qtot -0.056211
 2608         h1     89    bbb    H18   2608 0.25637600   1.008000   ; qtot 0.200165
 2609         os     89    bbb     O1   2609 -0.20025300  16.000000   ; qtot -0.000088
; residue   90 bbb rtp bbb q -0.0
 2610         n3     90    bbb     N1   2610 -0.59685800  14.010000   ; qtot -0.596946
 2611         c3     90    bbb     C1   2611 0.10137000  12.010000   ; qtot -0.495576
 2612         h1     90    bbb     H1   2612 0.04411300   1.008000   ; qtot -0.451463
 2613         h1     90    bbb     H2   2613 0.04411300   1.008000   ; qtot -0.407350
 2614         c3     90    bbb     C2   2614 0.10137000  12.010000   ; qtot -0.305980
 2615         h1     90    bbb     H3   2615 0.04411300   1.008000   ; qtot -0.261867
 2616         h1     90    bbb     H4   2616 0.04411300   1.008000   ; qtot -0.217754
 2617         c3     90    bbb     C3   2617 -0.00195300  12.010000   ; qtot -0.219707
 2618         h1     90    bbb     H5   2618 0.05064400   1.008000   ; qtot -0.169063
 2619         h1     90    bbb     H6   2619 0.05064400   1.008000   ; qtot -0.118419
 2620         c3     90    bbb     C4   2620 -0.01612100  12.010000   ; qtot -0.134540
 2621         hc     90    bbb     H7   2621 0.04936100   1.008000   ; qtot -0.085179
 2622         hc     90    bbb     H8   2622 0.04936100   1.008000   ; qtot -0.035818
 2623         c3     90    bbb     C5   2623 0.11363000  12.010000   ; qtot 0.077812
 2624         hc     90    bbb     H9   2624 0.06265900   1.008000   ; qtot 0.140471
 2625         hc     90    bbb    H10   2625 0.06265900   1.008000   ; qtot 0.203130
 2626         c3     90    bbb     C6   2626 0.11363000  12.010000   ; qtot 0.316760
 2627         hc     90    bbb    H11   2627 0.06265900   1.008000   ; qtot 0.379419
 2628         hc     90    bbb    H12   2628 0.06265900   1.008000   ; qtot 0.442078
 2629         c3     90    bbb     C7   2629 0.05858200  12.010000   ; qtot 0.500660
 2630         h1     90    bbb    H13   2630 0.06123400   1.008000   ; qtot 0.561894
 2631         h1     90    bbb    H14   2631 0.06123400   1.008000   ; qtot 0.623128
 2632         c3     90    bbb     C8   2632 -0.72423400  12.010000   ; qtot -0.101106
 2633         h1     90    bbb    H15   2633 0.25637600   1.008000   ; qtot 0.155270
 2634         h1     90    bbb    H16   2634 0.25637600   1.008000   ; qtot 0.411646
 2635         c3     90    bbb     C9   2635 -0.72423400  12.010000   ; qtot -0.312588
 2636         h1     90    bbb    H17   2636 0.25637600   1.008000   ; qtot -0.056212
 2637         h1     90    bbb    H18   2637 0.25637600   1.008000   ; qtot 0.200164
 2638         os     90    bbb     O1   2638 -0.20025300  16.000000   ; qtot -0.000089
; residue   91 bbb rtp bbb q -0.0
 2639         n3     91    bbb     N1   2639 -0.59685800  14.010000   ; qtot -0.596947
 2640         c3     91    bbb     C1   2640 0.10137000  12.010000   ; qtot -0.495577
 2641         h1     91    bbb     H1   2641 0.04411300   1.008000   ; qtot -0.451464
 2642         h1     91    bbb     H2   2642 0.04411300   1.008000   ; qtot -0.407351
 2643         c3     91    bbb     C2   2643 0.10137000  12.010000   ; qtot -0.305981
 2644         h1     91    bbb     H3   2644 0.04411300   1.008000   ; qtot -0.261868
 2645         h1     91    bbb     H4   2645 0.04411300   1.008000   ; qtot -0.217755
 2646         c3     91    bbb     C3   2646 -0.00195300  12.010000   ; qtot -0.219708
 2647         h1     91    bbb     H5   2647 0.05064400   1.008000   ; qtot -0.169064
 2648         h1     91    bbb     H6   2648 0.05064400   1.008000   ; qtot -0.118420
 2649         c3     91    bbb     C4   2649 -0.01612100  12.010000   ; qtot -0.134541
 2650         hc     91    bbb     H7   2650 0.04936100   1.008000   ; qtot -0.085180
 2651         hc     91    bbb     H8   2651 0.04936100   1.008000   ; qtot -0.035819
 2652         c3     91    bbb     C5   2652 0.11363000  12.010000   ; qtot 0.077811
 2653         hc     91    bbb     H9   2653 0.06265900   1.008000   ; qtot 0.140470
 2654         hc     91    bbb    H10   2654 0.06265900   1.008000   ; qtot 0.203129
 2655         c3     91    bbb     C6   2655 0.11363000  12.010000   ; qtot 0.316759
 2656         hc     91    bbb    H11   2656 0.06265900   1.008000   ; qtot 0.379418
 2657         hc     91    bbb    H12   2657 0.06265900   1.008000   ; qtot 0.442077
 2658         c3     91    bbb     C7   2658 0.05858200  12.010000   ; qtot 0.500659
 2659         h1     91    bbb    H13   2659 0.06123400   1.008000   ; qtot 0.561893
 2660         h1     91    bbb    H14   2660 0.06123400   1.008000   ; qtot 0.623127
 2661         c3     91    bbb     C8   2661 -0.72423400  12.010000   ; qtot -0.101107
 2662         h1     91    bbb    H15   2662 0.25637600   1.008000   ; qtot 0.155269
 2663         h1     91    bbb    H16   2663 0.25637600   1.008000   ; qtot 0.411645
 2664         c3     91    bbb     C9   2664 -0.72423400  12.010000   ; qtot -0.312589
 2665         h1     91    bbb    H17   2665 0.25637600   1.008000   ; qtot -0.056213
 2666         h1     91    bbb    H18   2666 0.25637600   1.008000   ; qtot 0.200163
 2667         os     91    bbb     O1   2667 -0.20025300  16.000000   ; qtot -0.000090
; residue   92 bbb rtp bbb q -0.0
 2668         n3     92    bbb     N1   2668 -0.59685800  14.010000   ; qtot -0.596948
 2669         c3     92    bbb     C1   2669 0.10137000  12.010000   ; qtot -0.495578
 2670         h1     92    bbb     H1   2670 0.04411300   1.008000   ; qtot -0.451465
 2671         h1     92    bbb     H2   2671 0.04411300   1.008000   ; qtot -0.407352
 2672         c3     92    bbb     C2   2672 0.10137000  12.010000   ; qtot -0.305982
 2673         h1     92    bbb     H3   2673 0.04411300   1.008000   ; qtot -0.261869
 2674         h1     92    bbb     H4   2674 0.04411300   1.008000   ; qtot -0.217756
 2675         c3     92    bbb     C3   2675 -0.00195300  12.010000   ; qtot -0.219709
 2676         h1     92    bbb     H5   2676 0.05064400   1.008000   ; qtot -0.169065
 2677         h1     92    bbb     H6   2677 0.05064400   1.008000   ; qtot -0.118421
 2678         c3     92    bbb     C4   2678 -0.01612100  12.010000   ; qtot -0.134542
 2679         hc     92    bbb     H7   2679 0.04936100   1.008000   ; qtot -0.085181
 2680         hc     92    bbb     H8   2680 0.04936100   1.008000   ; qtot -0.035820
 2681         c3     92    bbb     C5   2681 0.11363000  12.010000   ; qtot 0.077810
 2682         hc     92    bbb     H9   2682 0.06265900   1.008000   ; qtot 0.140469
 2683         hc     92    bbb    H10   2683 0.06265900   1.008000   ; qtot 0.203128
 2684         c3     92    bbb     C6   2684 0.11363000  12.010000   ; qtot 0.316758
 2685         hc     92    bbb    H11   2685 0.06265900   1.008000   ; qtot 0.379417
 2686         hc     92    bbb    H12   2686 0.06265900   1.008000   ; qtot 0.442076
 2687         c3     92    bbb     C7   2687 0.05858200  12.010000   ; qtot 0.500658
 2688         h1     92    bbb    H13   2688 0.06123400   1.008000   ; qtot 0.561892
 2689         h1     92    bbb    H14   2689 0.06123400   1.008000   ; qtot 0.623126
 2690         c3     92    bbb     C8   2690 -0.72423400  12.010000   ; qtot -0.101108
 2691         h1     92    bbb    H15   2691 0.25637600   1.008000   ; qtot 0.155268
 2692         h1     92    bbb    H16   2692 0.25637600   1.008000   ; qtot 0.411644
 2693         c3     92    bbb     C9   2693 -0.72423400  12.010000   ; qtot -0.312590
 2694         h1     92    bbb    H17   2694 0.25637600   1.008000   ; qtot -0.056214
 2695         h1     92    bbb    H18   2695 0.25637600   1.008000   ; qtot 0.200162
 2696         os     92    bbb     O1   2696 -0.20025300  16.000000   ; qtot -0.000091
; residue   93 bbb rtp bbb q -0.0
 2697         n3     93    bbb     N1   2697 -0.59685800  14.010000   ; qtot -0.596949
 2698         c3     93    bbb     C1   2698 0.10137000  12.010000   ; qtot -0.495579
 2699         h1     93    bbb     H1   2699 0.04411300   1.008000   ; qtot -0.451466
 2700         h1     93    bbb     H2   2700 0.04411300   1.008000   ; qtot -0.407353
 2701         c3     93    bbb     C2   2701 0.10137000  12.010000   ; qtot -0.305983
 2702         h1     93    bbb     H3   2702 0.04411300   1.008000   ; qtot -0.261870
 2703         h1     93    bbb     H4   2703 0.04411300   1.008000   ; qtot -0.217757
 2704         c3     93    bbb     C3   2704 -0.00195300  12.010000   ; qtot -0.219710
 2705         h1     93    bbb     H5   2705 0.05064400   1.008000   ; qtot -0.169066
 2706         h1     93    bbb     H6   2706 0.05064400   1.008000   ; qtot -0.118422
 2707         c3     93    bbb     C4   2707 -0.01612100  12.010000   ; qtot -0.134543
 2708         hc     93    bbb     H7   2708 0.04936100   1.008000   ; qtot -0.085182
 2709         hc     93    bbb     H8   2709 0.04936100   1.008000   ; qtot -0.035821
 2710         c3     93    bbb     C5   2710 0.11363000  12.010000   ; qtot 0.077809
 2711         hc     93    bbb     H9   2711 0.06265900   1.008000   ; qtot 0.140468
 2712         hc     93    bbb    H10   2712 0.06265900   1.008000   ; qtot 0.203127
 2713         c3     93    bbb     C6   2713 0.11363000  12.010000   ; qtot 0.316757
 2714         hc     93    bbb    H11   2714 0.06265900   1.008000   ; qtot 0.379416
 2715         hc     93    bbb    H12   2715 0.06265900   1.008000   ; qtot 0.442075
 2716         c3     93    bbb     C7   2716 0.05858200  12.010000   ; qtot 0.500657
 2717         h1     93    bbb    H13   2717 0.06123400   1.008000   ; qtot 0.561891
 2718         h1     93    bbb    H14   2718 0.06123400   1.008000   ; qtot 0.623125
 2719         c3     93    bbb     C8   2719 -0.72423400  12.010000   ; qtot -0.101109
 2720         h1     93    bbb    H15   2720 0.25637600   1.008000   ; qtot 0.155267
 2721         h1     93    bbb    H16   2721 0.25637600   1.008000   ; qtot 0.411643
 2722         c3     93    bbb     C9   2722 -0.72423400  12.010000   ; qtot -0.312591
 2723         h1     93    bbb    H17   2723 0.25637600   1.008000   ; qtot -0.056215
 2724         h1     93    bbb    H18   2724 0.25637600   1.008000   ; qtot 0.200161
 2725         os     93    bbb     O1   2725 -0.20025300  16.000000   ; qtot -0.000092
; residue   94 bbb rtp bbb q -0.0
 2726         n3     94    bbb     N1   2726 -0.59685800  14.010000   ; qtot -0.596950
 2727         c3     94    bbb     C1   2727 0.10137000  12.010000   ; qtot -0.495580
 2728         h1     94    bbb     H1   2728 0.04411300   1.008000   ; qtot -0.451467
 2729         h1     94    bbb     H2   2729 0.04411300   1.008000   ; qtot -0.407354
 2730         c3     94    bbb     C2   2730 0.10137000  12.010000   ; qtot -0.305984
 2731         h1     94    bbb     H3   2731 0.04411300   1.008000   ; qtot -0.261871
 2732         h1     94    bbb     H4   2732 0.04411300   1.008000   ; qtot -0.217758
 2733         c3     94    bbb     C3   2733 -0.00195300  12.010000   ; qtot -0.219711
 2734         h1     94    bbb     H5   2734 0.05064400   1.008000   ; qtot -0.169067
 2735         h1     94    bbb     H6   2735 0.05064400   1.008000   ; qtot -0.118423
 2736         c3     94    bbb     C4   2736 -0.01612100  12.010000   ; qtot -0.134544
 2737         hc     94    bbb     H7   2737 0.04936100   1.008000   ; qtot -0.085183
 2738         hc     94    bbb     H8   2738 0.04936100   1.008000   ; qtot -0.035822
 2739         c3     94    bbb     C5   2739 0.11363000  12.010000   ; qtot 0.077808
 2740         hc     94    bbb     H9   2740 0.06265900   1.008000   ; qtot 0.140467
 2741         hc     94    bbb    H10   2741 0.06265900   1.008000   ; qtot 0.203126
 2742         c3     94    bbb     C6   2742 0.11363000  12.010000   ; qtot 0.316756
 2743         hc     94    bbb    H11   2743 0.06265900   1.008000   ; qtot 0.379415
 2744         hc     94    bbb    H12   2744 0.06265900   1.008000   ; qtot 0.442074
 2745         c3     94    bbb     C7   2745 0.05858200  12.010000   ; qtot 0.500656
 2746         h1     94    bbb    H13   2746 0.06123400   1.008000   ; qtot 0.561890
 2747         h1     94    bbb    H14   2747 0.06123400   1.008000   ; qtot 0.623124
 2748         c3     94    bbb     C8   2748 -0.72423400  12.010000   ; qtot -0.101110
 2749         h1     94    bbb    H15   2749 0.25637600   1.008000   ; qtot 0.155266
 2750         h1     94    bbb    H16   2750 0.25637600   1.008000   ; qtot 0.411642
 2751         c3     94    bbb     C9   2751 -0.72423400  12.010000   ; qtot -0.312592
 2752         h1     94    bbb    H17   2752 0.25637600   1.008000   ; qtot -0.056216
 2753         h1     94    bbb    H18   2753 0.25637600   1.008000   ; qtot 0.200160
 2754         os     94    bbb     O1   2754 -0.20025300  16.000000   ; qtot -0.000093
; residue   95 bbb rtp bbb q -0.0
 2755         n3     95    bbb     N1   2755 -0.59685800  14.010000   ; qtot -0.596951
 2756         c3     95    bbb     C1   2756 0.10137000  12.010000   ; qtot -0.495581
 2757         h1     95    bbb     H1   2757 0.04411300   1.008000   ; qtot -0.451468
 2758         h1     95    bbb     H2   2758 0.04411300   1.008000   ; qtot -0.407355
 2759         c3     95    bbb     C2   2759 0.10137000  12.010000   ; qtot -0.305985
 2760         h1     95    bbb     H3   2760 0.04411300   1.008000   ; qtot -0.261872
 2761         h1     95    bbb     H4   2761 0.04411300   1.008000   ; qtot -0.217759
 2762         c3     95    bbb     C3   2762 -0.00195300  12.010000   ; qtot -0.219712
 2763         h1     95    bbb     H5   2763 0.05064400   1.008000   ; qtot -0.169068
 2764         h1     95    bbb     H6   2764 0.05064400   1.008000   ; qtot -0.118424
 2765         c3     95    bbb     C4   2765 -0.01612100  12.010000   ; qtot -0.134545
 2766         hc     95    bbb     H7   2766 0.04936100   1.008000   ; qtot -0.085184
 2767         hc     95    bbb     H8   2767 0.04936100   1.008000   ; qtot -0.035823
 2768         c3     95    bbb     C5   2768 0.11363000  12.010000   ; qtot 0.077807
 2769         hc     95    bbb     H9   2769 0.06265900   1.008000   ; qtot 0.140466
 2770         hc     95    bbb    H10   2770 0.06265900   1.008000   ; qtot 0.203125
 2771         c3     95    bbb     C6   2771 0.11363000  12.010000   ; qtot 0.316755
 2772         hc     95    bbb    H11   2772 0.06265900   1.008000   ; qtot 0.379414
 2773         hc     95    bbb    H12   2773 0.06265900   1.008000   ; qtot 0.442073
 2774         c3     95    bbb     C7   2774 0.05858200  12.010000   ; qtot 0.500655
 2775         h1     95    bbb    H13   2775 0.06123400   1.008000   ; qtot 0.561889
 2776         h1     95    bbb    H14   2776 0.06123400   1.008000   ; qtot 0.623123
 2777         c3     95    bbb     C8   2777 -0.72423400  12.010000   ; qtot -0.101111
 2778         h1     95    bbb    H15   2778 0.25637600   1.008000   ; qtot 0.155265
 2779         h1     95    bbb    H16   2779 0.25637600   1.008000   ; qtot 0.411641
 2780         c3     95    bbb     C9   2780 -0.72423400  12.010000   ; qtot -0.312593
 2781         h1     95    bbb    H17   2781 0.25637600   1.008000   ; qtot -0.056217
 2782         h1     95    bbb    H18   2782 0.25637600   1.008000   ; qtot 0.200159
 2783         os     95    bbb     O1   2783 -0.20025300  16.000000   ; qtot -0.000094
; residue   96 bbb rtp bbb q -0.0
 2784         n3     96    bbb     N1   2784 -0.59685800  14.010000   ; qtot -0.596952
 2785         c3     96    bbb     C1   2785 0.10137000  12.010000   ; qtot -0.495582
 2786         h1     96    bbb     H1   2786 0.04411300   1.008000   ; qtot -0.451469
 2787         h1     96    bbb     H2   2787 0.04411300   1.008000   ; qtot -0.407356
 2788         c3     96    bbb     C2   2788 0.10137000  12.010000   ; qtot -0.305986
 2789         h1     96    bbb     H3   2789 0.04411300   1.008000   ; qtot -0.261873
 2790         h1     96    bbb     H4   2790 0.04411300   1.008000   ; qtot -0.217760
 2791         c3     96    bbb     C3   2791 -0.00195300  12.010000   ; qtot -0.219713
 2792         h1     96    bbb     H5   2792 0.05064400   1.008000   ; qtot -0.169069
 2793         h1     96    bbb     H6   2793 0.05064400   1.008000   ; qtot -0.118425
 2794         c3     96    bbb     C4   2794 -0.01612100  12.010000   ; qtot -0.134546
 2795         hc     96    bbb     H7   2795 0.04936100   1.008000   ; qtot -0.085185
 2796         hc     96    bbb     H8   2796 0.04936100   1.008000   ; qtot -0.035824
 2797         c3     96    bbb     C5   2797 0.11363000  12.010000   ; qtot 0.077806
 2798         hc     96    bbb     H9   2798 0.06265900   1.008000   ; qtot 0.140465
 2799         hc     96    bbb    H10   2799 0.06265900   1.008000   ; qtot 0.203124
 2800         c3     96    bbb     C6   2800 0.11363000  12.010000   ; qtot 0.316754
 2801         hc     96    bbb    H11   2801 0.06265900   1.008000   ; qtot 0.379413
 2802         hc     96    bbb    H12   2802 0.06265900   1.008000   ; qtot 0.442072
 2803         c3     96    bbb     C7   2803 0.05858200  12.010000   ; qtot 0.500654
 2804         h1     96    bbb    H13   2804 0.06123400   1.008000   ; qtot 0.561888
 2805         h1     96    bbb    H14   2805 0.06123400   1.008000   ; qtot 0.623122
 2806         c3     96    bbb     C8   2806 -0.72423400  12.010000   ; qtot -0.101112
 2807         h1     96    bbb    H15   2807 0.25637600   1.008000   ; qtot 0.155264
 2808         h1     96    bbb    H16   2808 0.25637600   1.008000   ; qtot 0.411640
 2809         c3     96    bbb     C9   2809 -0.72423400  12.010000   ; qtot -0.312594
 2810         h1     96    bbb    H17   2810 0.25637600   1.008000   ; qtot -0.056218
 2811         h1     96    bbb    H18   2811 0.25637600   1.008000   ; qtot 0.200158
 2812         os     96    bbb     O1   2812 -0.20025300  16.000000   ; qtot -0.000095
; residue   97 bbb rtp bbb q -0.0
 2813         n3     97    bbb     N1   2813 -0.59685800  14.010000   ; qtot -0.596953
 2814         c3     97    bbb     C1   2814 0.10137000  12.010000   ; qtot -0.495583
 2815         h1     97    bbb     H1   2815 0.04411300   1.008000   ; qtot -0.451470
 2816         h1     97    bbb     H2   2816 0.04411300   1.008000   ; qtot -0.407357
 2817         c3     97    bbb     C2   2817 0.10137000  12.010000   ; qtot -0.305987
 2818         h1     97    bbb     H3   2818 0.04411300   1.008000   ; qtot -0.261874
 2819         h1     97    bbb     H4   2819 0.04411300   1.008000   ; qtot -0.217761
 2820         c3     97    bbb     C3   2820 -0.00195300  12.010000   ; qtot -0.219714
 2821         h1     97    bbb     H5   2821 0.05064400   1.008000   ; qtot -0.169070
 2822         h1     97    bbb     H6   2822 0.05064400   1.008000   ; qtot -0.118426
 2823         c3     97    bbb     C4   2823 -0.01612100  12.010000   ; qtot -0.134547
 2824         hc     97    bbb     H7   2824 0.04936100   1.008000   ; qtot -0.085186
 2825         hc     97    bbb     H8   2825 0.04936100   1.008000   ; qtot -0.035825
 2826         c3     97    bbb     C5   2826 0.11363000  12.010000   ; qtot 0.077805
 2827         hc     97    bbb     H9   2827 0.06265900   1.008000   ; qtot 0.140464
 2828         hc     97    bbb    H10   2828 0.06265900   1.008000   ; qtot 0.203123
 2829         c3     97    bbb     C6   2829 0.11363000  12.010000   ; qtot 0.316753
 2830         hc     97    bbb    H11   2830 0.06265900   1.008000   ; qtot 0.379412
 2831         hc     97    bbb    H12   2831 0.06265900   1.008000   ; qtot 0.442071
 2832         c3     97    bbb     C7   2832 0.05858200  12.010000   ; qtot 0.500653
 2833         h1     97    bbb    H13   2833 0.06123400   1.008000   ; qtot 0.561887
 2834         h1     97    bbb    H14   2834 0.06123400   1.008000   ; qtot 0.623121
 2835         c3     97    bbb     C8   2835 -0.72423400  12.010000   ; qtot -0.101113
 2836         h1     97    bbb    H15   2836 0.25637600   1.008000   ; qtot 0.155263
 2837         h1     97    bbb    H16   2837 0.25637600   1.008000   ; qtot 0.411639
 2838         c3     97    bbb     C9   2838 -0.72423400  12.010000   ; qtot -0.312595
 2839         h1     97    bbb    H17   2839 0.25637600   1.008000   ; qtot -0.056219
 2840         h1     97    bbb    H18   2840 0.25637600   1.008000   ; qtot 0.200157
 2841         os     97    bbb     O1   2841 -0.20025300  16.000000   ; qtot -0.000096
; residue   98 bbb rtp bbb q -0.0
 2842         n3     98    bbb     N1   2842 -0.59685800  14.010000   ; qtot -0.596954
 2843         c3     98    bbb     C1   2843 0.10137000  12.010000   ; qtot -0.495584
 2844         h1     98    bbb     H1   2844 0.04411300   1.008000   ; qtot -0.451471
 2845         h1     98    bbb     H2   2845 0.04411300   1.008000   ; qtot -0.407358
 2846         c3     98    bbb     C2   2846 0.10137000  12.010000   ; qtot -0.305988
 2847         h1     98    bbb     H3   2847 0.04411300   1.008000   ; qtot -0.261875
 2848         h1     98    bbb     H4   2848 0.04411300   1.008000   ; qtot -0.217762
 2849         c3     98    bbb     C3   2849 -0.00195300  12.010000   ; qtot -0.219715
 2850         h1     98    bbb     H5   2850 0.05064400   1.008000   ; qtot -0.169071
 2851         h1     98    bbb     H6   2851 0.05064400   1.008000   ; qtot -0.118427
 2852         c3     98    bbb     C4   2852 -0.01612100  12.010000   ; qtot -0.134548
 2853         hc     98    bbb     H7   2853 0.04936100   1.008000   ; qtot -0.085187
 2854         hc     98    bbb     H8   2854 0.04936100   1.008000   ; qtot -0.035826
 2855         c3     98    bbb     C5   2855 0.11363000  12.010000   ; qtot 0.077804
 2856         hc     98    bbb     H9   2856 0.06265900   1.008000   ; qtot 0.140463
 2857         hc     98    bbb    H10   2857 0.06265900   1.008000   ; qtot 0.203122
 2858         c3     98    bbb     C6   2858 0.11363000  12.010000   ; qtot 0.316752
 2859         hc     98    bbb    H11   2859 0.06265900   1.008000   ; qtot 0.379411
 2860         hc     98    bbb    H12   2860 0.06265900   1.008000   ; qtot 0.442070
 2861         c3     98    bbb     C7   2861 0.05858200  12.010000   ; qtot 0.500652
 2862         h1     98    bbb    H13   2862 0.06123400   1.008000   ; qtot 0.561886
 2863         h1     98    bbb    H14   2863 0.06123400   1.008000   ; qtot 0.623120
 2864         c3     98    bbb     C8   2864 -0.72423400  12.010000   ; qtot -0.101114
 2865         h1     98    bbb    H15   2865 0.25637600   1.008000   ; qtot 0.155262
 2866         h1     98    bbb    H16   2866 0.25637600   1.008000   ; qtot 0.411638
 2867         c3     98    bbb     C9   2867 -0.72423400  12.010000   ; qtot -0.312596
 2868         h1     98    bbb    H17   2868 0.25637600   1.008000   ; qtot -0.056220
 2869         h1     98    bbb    H18   2869 0.25637600   1.008000   ; qtot 0.200156
 2870         os     98    bbb     O1   2870 -0.20025300  16.000000   ; qtot -0.000097
; residue   99 bbb rtp bbb q -0.0
 2871         n3     99    bbb     N1   2871 -0.59685800  14.010000   ; qtot -0.596955
 2872         c3     99    bbb     C1   2872 0.10137000  12.010000   ; qtot -0.495585
 2873         h1     99    bbb     H1   2873 0.04411300   1.008000   ; qtot -0.451472
 2874         h1     99    bbb     H2   2874 0.04411300   1.008000   ; qtot -0.407359
 2875         c3     99    bbb     C2   2875 0.10137000  12.010000   ; qtot -0.305989
 2876         h1     99    bbb     H3   2876 0.04411300   1.008000   ; qtot -0.261876
 2877         h1     99    bbb     H4   2877 0.04411300   1.008000   ; qtot -0.217763
 2878         c3     99    bbb     C3   2878 -0.00195300  12.010000   ; qtot -0.219716
 2879         h1     99    bbb     H5   2879 0.05064400   1.008000   ; qtot -0.169072
 2880         h1     99    bbb     H6   2880 0.05064400   1.008000   ; qtot -0.118428
 2881         c3     99    bbb     C4   2881 -0.01612100  12.010000   ; qtot -0.134549
 2882         hc     99    bbb     H7   2882 0.04936100   1.008000   ; qtot -0.085188
 2883         hc     99    bbb     H8   2883 0.04936100   1.008000   ; qtot -0.035827
 2884         c3     99    bbb     C5   2884 0.11363000  12.010000   ; qtot 0.077803
 2885         hc     99    bbb     H9   2885 0.06265900   1.008000   ; qtot 0.140462
 2886         hc     99    bbb    H10   2886 0.06265900   1.008000   ; qtot 0.203121
 2887         c3     99    bbb     C6   2887 0.11363000  12.010000   ; qtot 0.316751
 2888         hc     99    bbb    H11   2888 0.06265900   1.008000   ; qtot 0.379410
 2889         hc     99    bbb    H12   2889 0.06265900   1.008000   ; qtot 0.442069
 2890         c3     99    bbb     C7   2890 0.05858200  12.010000   ; qtot 0.500651
 2891         h1     99    bbb    H13   2891 0.06123400   1.008000   ; qtot 0.561885
 2892         h1     99    bbb    H14   2892 0.06123400   1.008000   ; qtot 0.623119
 2893         c3     99    bbb     C8   2893 -0.72423400  12.010000   ; qtot -0.101115
 2894         h1     99    bbb    H15   2894 0.25637600   1.008000   ; qtot 0.155261
 2895         h1     99    bbb    H16   2895 0.25637600   1.008000   ; qtot 0.411637
 2896         c3     99    bbb     C9   2896 -0.72423400  12.010000   ; qtot -0.312597
 2897         h1     99    bbb    H17   2897 0.25637600   1.008000   ; qtot -0.056221
 2898         h1     99    bbb    H18   2898 0.25637600   1.008000   ; qtot 0.200155
 2899         os     99    bbb     O1   2899 -0.20025300  16.000000   ; qtot -0.000098
; residue  100 bbb rtp bbb q -0.0
 2900         n3    100    bbb     N1   2900 -0.59685800  14.010000   ; qtot -0.596956
 2901         c3    100    bbb     C1   2901 0.10137000  12.010000   ; qtot -0.495586
 2902         h1    100    bbb     H1   2902 0.04411300   1.008000   ; qtot -0.451473
 2903         h1    100    bbb     H2   2903 0.04411300   1.008000   ; qtot -0.407360
 2904         c3    100    bbb     C2   2904 0.10137000  12.010000   ; qtot -0.305990
 2905         h1    100    bbb     H3   2905 0.04411300   1.008000   ; qtot -0.261877
 2906         h1    100    bbb     H4   2906 0.04411300   1.008000   ; qtot -0.217764
 2907         c3    100    bbb     C3   2907 -0.00195300  12.010000   ; qtot -0.219717
 2908         h1    100    bbb     H5   2908 0.05064400   1.008000   ; qtot -0.169073
 2909         h1    100    bbb     H6   2909 0.05064400   1.008000   ; qtot -0.118429
 2910         c3    100    bbb     C4   2910 -0.01612100  12.010000   ; qtot -0.134550
 2911         hc    100    bbb     H7   2911 0.04936100   1.008000   ; qtot -0.085189
 2912         hc    100    bbb     H8   2912 0.04936100   1.008000   ; qtot -0.035828
 2913         c3    100    bbb     C5   2913 0.11363000  12.010000   ; qtot 0.077802
 2914         hc    100    bbb     H9   2914 0.06265900   1.008000   ; qtot 0.140461
 2915         hc    100    bbb    H10   2915 0.06265900   1.008000   ; qtot 0.203120
 2916         c3    100    bbb     C6   2916 0.11363000  12.010000   ; qtot 0.316750
 2917         hc    100    bbb    H11   2917 0.06265900   1.008000   ; qtot 0.379409
 2918         hc    100    bbb    H12   2918 0.06265900   1.008000   ; qtot 0.442068
 2919         c3    100    bbb     C7   2919 0.05858200  12.010000   ; qtot 0.500650
 2920         h1    100    bbb    H13   2920 0.06123400   1.008000   ; qtot 0.561884
 2921         h1    100    bbb    H14   2921 0.06123400   1.008000   ; qtot 0.623118
 2922         c3    100    bbb     C8   2922 -0.72423400  12.010000   ; qtot -0.101116
 2923         h1    100    bbb    H15   2923 0.25637600   1.008000   ; qtot 0.155260
 2924         h1    100    bbb    H16   2924 0.25637600   1.008000   ; qtot 0.411636
 2925         c3    100    bbb     C9   2925 -0.72423400  12.010000   ; qtot -0.312598
 2926         h1    100    bbb    H17   2926 0.25637600   1.008000   ; qtot -0.056222
 2927         h1    100    bbb    H18   2927 0.25637600   1.008000   ; qtot 0.200154
 2928         os    100    bbb     O1   2928 -0.20025300  16.000000   ; qtot -0.000099
; residue  101 bbb rtp bbb q -0.0
 2929         n3    101    bbb     N1   2929 -0.59685800  14.010000   ; qtot -0.596957
 2930         c3    101    bbb     C1   2930 0.10137000  12.010000   ; qtot -0.495587
 2931         h1    101    bbb     H1   2931 0.04411300   1.008000   ; qtot -0.451474
 2932         h1    101    bbb     H2   2932 0.04411300   1.008000   ; qtot -0.407361
 2933         c3    101    bbb     C2   2933 0.10137000  12.010000   ; qtot -0.305991
 2934         h1    101    bbb     H3   2934 0.04411300   1.008000   ; qtot -0.261878
 2935         h1    101    bbb     H4   2935 0.04411300   1.008000   ; qtot -0.217765
 2936         c3    101    bbb     C3   2936 -0.00195300  12.010000   ; qtot -0.219718
 2937         h1    101    bbb     H5   2937 0.05064400   1.008000   ; qtot -0.169074
 2938         h1    101    bbb     H6   2938 0.05064400   1.008000   ; qtot -0.118430
 2939         c3    101    bbb     C4   2939 -0.01612100  12.010000   ; qtot -0.134551
 2940         hc    101    bbb     H7   2940 0.04936100   1.008000   ; qtot -0.085190
 2941         hc    101    bbb     H8   2941 0.04936100   1.008000   ; qtot -0.035829
 2942         c3    101    bbb     C5   2942 0.11363000  12.010000   ; qtot 0.077801
 2943         hc    101    bbb     H9   2943 0.06265900   1.008000   ; qtot 0.140460
 2944         hc    101    bbb    H10   2944 0.06265900   1.008000   ; qtot 0.203119
 2945         c3    101    bbb     C6   2945 0.11363000  12.010000   ; qtot 0.316749
 2946         hc    101    bbb    H11   2946 0.06265900   1.008000   ; qtot 0.379408
 2947         hc    101    bbb    H12   2947 0.06265900   1.008000   ; qtot 0.442067
 2948         c3    101    bbb     C7   2948 0.05858200  12.010000   ; qtot 0.500649
 2949         h1    101    bbb    H13   2949 0.06123400   1.008000   ; qtot 0.561883
 2950         h1    101    bbb    H14   2950 0.06123400   1.008000   ; qtot 0.623117
 2951         c3    101    bbb     C8   2951 -0.72423400  12.010000   ; qtot -0.101117
 2952         h1    101    bbb    H15   2952 0.25637600   1.008000   ; qtot 0.155259
 2953         h1    101    bbb    H16   2953 0.25637600   1.008000   ; qtot 0.411635
 2954         c3    101    bbb     C9   2954 -0.72423400  12.010000   ; qtot -0.312599
 2955         h1    101    bbb    H17   2955 0.25637600   1.008000   ; qtot -0.056223
 2956         h1    101    bbb    H18   2956 0.25637600   1.008000   ; qtot 0.200153
 2957         os    101    bbb     O1   2957 -0.20025300  16.000000   ; qtot -0.000100
; residue  102 bbb rtp bbb q -0.0
 2958         n3    102    bbb     N1   2958 -0.59685800  14.010000   ; qtot -0.596958
 2959         c3    102    bbb     C1   2959 0.10137000  12.010000   ; qtot -0.495588
 2960         h1    102    bbb     H1   2960 0.04411300   1.008000   ; qtot -0.451475
 2961         h1    102    bbb     H2   2961 0.04411300   1.008000   ; qtot -0.407362
 2962         c3    102    bbb     C2   2962 0.10137000  12.010000   ; qtot -0.305992
 2963         h1    102    bbb     H3   2963 0.04411300   1.008000   ; qtot -0.261879
 2964         h1    102    bbb     H4   2964 0.04411300   1.008000   ; qtot -0.217766
 2965         c3    102    bbb     C3   2965 -0.00195300  12.010000   ; qtot -0.219719
 2966         h1    102    bbb     H5   2966 0.05064400   1.008000   ; qtot -0.169075
 2967         h1    102    bbb     H6   2967 0.05064400   1.008000   ; qtot -0.118431
 2968         c3    102    bbb     C4   2968 -0.01612100  12.010000   ; qtot -0.134552
 2969         hc    102    bbb     H7   2969 0.04936100   1.008000   ; qtot -0.085191
 2970         hc    102    bbb     H8   2970 0.04936100   1.008000   ; qtot -0.035830
 2971         c3    102    bbb     C5   2971 0.11363000  12.010000   ; qtot 0.077800
 2972         hc    102    bbb     H9   2972 0.06265900   1.008000   ; qtot 0.140459
 2973         hc    102    bbb    H10   2973 0.06265900   1.008000   ; qtot 0.203118
 2974         c3    102    bbb     C6   2974 0.11363000  12.010000   ; qtot 0.316748
 2975         hc    102    bbb    H11   2975 0.06265900   1.008000   ; qtot 0.379407
 2976         hc    102    bbb    H12   2976 0.06265900   1.008000   ; qtot 0.442066
 2977         c3    102    bbb     C7   2977 0.05858200  12.010000   ; qtot 0.500648
 2978         h1    102    bbb    H13   2978 0.06123400   1.008000   ; qtot 0.561882
 2979         h1    102    bbb    H14   2979 0.06123400   1.008000   ; qtot 0.623116
 2980         c3    102    bbb     C8   2980 -0.72423400  12.010000   ; qtot -0.101118
 2981         h1    102    bbb    H15   2981 0.25637600   1.008000   ; qtot 0.155258
 2982         h1    102    bbb    H16   2982 0.25637600   1.008000   ; qtot 0.411634
 2983         c3    102    bbb     C9   2983 -0.72423400  12.010000   ; qtot -0.312600
 2984         h1    102    bbb    H17   2984 0.25637600   1.008000   ; qtot -0.056224
 2985         h1    102    bbb    H18   2985 0.25637600   1.008000   ; qtot 0.200152
 2986         os    102    bbb     O1   2986 -0.20025300  16.000000   ; qtot -0.000101
; residue  103 bbb rtp bbb q -0.0
 2987         n3    103    bbb     N1   2987 -0.59685800  14.010000   ; qtot -0.596959
 2988         c3    103    bbb     C1   2988 0.10137000  12.010000   ; qtot -0.495589
 2989         h1    103    bbb     H1   2989 0.04411300   1.008000   ; qtot -0.451476
 2990         h1    103    bbb     H2   2990 0.04411300   1.008000   ; qtot -0.407363
 2991         c3    103    bbb     C2   2991 0.10137000  12.010000   ; qtot -0.305993
 2992         h1    103    bbb     H3   2992 0.04411300   1.008000   ; qtot -0.261880
 2993         h1    103    bbb     H4   2993 0.04411300   1.008000   ; qtot -0.217767
 2994         c3    103    bbb     C3   2994 -0.00195300  12.010000   ; qtot -0.219720
 2995         h1    103    bbb     H5   2995 0.05064400   1.008000   ; qtot -0.169076
 2996         h1    103    bbb     H6   2996 0.05064400   1.008000   ; qtot -0.118432
 2997         c3    103    bbb     C4   2997 -0.01612100  12.010000   ; qtot -0.134553
 2998         hc    103    bbb     H7   2998 0.04936100   1.008000   ; qtot -0.085192
 2999         hc    103    bbb     H8   2999 0.04936100   1.008000   ; qtot -0.035831
 3000         c3    103    bbb     C5   3000 0.11363000  12.010000   ; qtot 0.077799
 3001         hc    103    bbb     H9   3001 0.06265900   1.008000   ; qtot 0.140458
 3002         hc    103    bbb    H10   3002 0.06265900   1.008000   ; qtot 0.203117
 3003         c3    103    bbb     C6   3003 0.11363000  12.010000   ; qtot 0.316747
 3004         hc    103    bbb    H11   3004 0.06265900   1.008000   ; qtot 0.379406
 3005         hc    103    bbb    H12   3005 0.06265900   1.008000   ; qtot 0.442065
 3006         c3    103    bbb     C7   3006 0.05858200  12.010000   ; qtot 0.500647
 3007         h1    103    bbb    H13   3007 0.06123400   1.008000   ; qtot 0.561881
 3008         h1    103    bbb    H14   3008 0.06123400   1.008000   ; qtot 0.623115
 3009         c3    103    bbb     C8   3009 -0.72423400  12.010000   ; qtot -0.101119
 3010         h1    103    bbb    H15   3010 0.25637600   1.008000   ; qtot 0.155257
 3011         h1    103    bbb    H16   3011 0.25637600   1.008000   ; qtot 0.411633
 3012         c3    103    bbb     C9   3012 -0.72423400  12.010000   ; qtot -0.312601
 3013         h1    103    bbb    H17   3013 0.25637600   1.008000   ; qtot -0.056225
 3014         h1    103    bbb    H18   3014 0.25637600   1.008000   ; qtot 0.200151
 3015         os    103    bbb     O1   3015 -0.20025300  16.000000   ; qtot -0.000102
; residue  104 bbb rtp bbb q -0.0
 3016         n3    104    bbb     N1   3016 -0.59685800  14.010000   ; qtot -0.596960
 3017         c3    104    bbb     C1   3017 0.10137000  12.010000   ; qtot -0.495590
 3018         h1    104    bbb     H1   3018 0.04411300   1.008000   ; qtot -0.451477
 3019         h1    104    bbb     H2   3019 0.04411300   1.008000   ; qtot -0.407364
 3020         c3    104    bbb     C2   3020 0.10137000  12.010000   ; qtot -0.305994
 3021         h1    104    bbb     H3   3021 0.04411300   1.008000   ; qtot -0.261881
 3022         h1    104    bbb     H4   3022 0.04411300   1.008000   ; qtot -0.217768
 3023         c3    104    bbb     C3   3023 -0.00195300  12.010000   ; qtot -0.219721
 3024         h1    104    bbb     H5   3024 0.05064400   1.008000   ; qtot -0.169077
 3025         h1    104    bbb     H6   3025 0.05064400   1.008000   ; qtot -0.118433
 3026         c3    104    bbb     C4   3026 -0.01612100  12.010000   ; qtot -0.134554
 3027         hc    104    bbb     H7   3027 0.04936100   1.008000   ; qtot -0.085193
 3028         hc    104    bbb     H8   3028 0.04936100   1.008000   ; qtot -0.035832
 3029         c3    104    bbb     C5   3029 0.11363000  12.010000   ; qtot 0.077798
 3030         hc    104    bbb     H9   3030 0.06265900   1.008000   ; qtot 0.140457
 3031         hc    104    bbb    H10   3031 0.06265900   1.008000   ; qtot 0.203116
 3032         c3    104    bbb     C6   3032 0.11363000  12.010000   ; qtot 0.316746
 3033         hc    104    bbb    H11   3033 0.06265900   1.008000   ; qtot 0.379405
 3034         hc    104    bbb    H12   3034 0.06265900   1.008000   ; qtot 0.442064
 3035         c3    104    bbb     C7   3035 0.05858200  12.010000   ; qtot 0.500646
 3036         h1    104    bbb    H13   3036 0.06123400   1.008000   ; qtot 0.561880
 3037         h1    104    bbb    H14   3037 0.06123400   1.008000   ; qtot 0.623114
 3038         c3    104    bbb     C8   3038 -0.72423400  12.010000   ; qtot -0.101120
 3039         h1    104    bbb    H15   3039 0.25637600   1.008000   ; qtot 0.155256
 3040         h1    104    bbb    H16   3040 0.25637600   1.008000   ; qtot 0.411632
 3041         c3    104    bbb     C9   3041 -0.72423400  12.010000   ; qtot -0.312602
 3042         h1    104    bbb    H17   3042 0.25637600   1.008000   ; qtot -0.056226
 3043         h1    104    bbb    H18   3043 0.25637600   1.008000   ; qtot 0.200150
 3044         os    104    bbb     O1   3044 -0.20025300  16.000000   ; qtot -0.000103
; residue  105 bbb rtp bbb q -0.0
 3045         n3    105    bbb     N1   3045 -0.59685800  14.010000   ; qtot -0.596961
 3046         c3    105    bbb     C1   3046 0.10137000  12.010000   ; qtot -0.495591
 3047         h1    105    bbb     H1   3047 0.04411300   1.008000   ; qtot -0.451478
 3048         h1    105    bbb     H2   3048 0.04411300   1.008000   ; qtot -0.407365
 3049         c3    105    bbb     C2   3049 0.10137000  12.010000   ; qtot -0.305995
 3050         h1    105    bbb     H3   3050 0.04411300   1.008000   ; qtot -0.261882
 3051         h1    105    bbb     H4   3051 0.04411300   1.008000   ; qtot -0.217769
 3052         c3    105    bbb     C3   3052 -0.00195300  12.010000   ; qtot -0.219722
 3053         h1    105    bbb     H5   3053 0.05064400   1.008000   ; qtot -0.169078
 3054         h1    105    bbb     H6   3054 0.05064400   1.008000   ; qtot -0.118434
 3055         c3    105    bbb     C4   3055 -0.01612100  12.010000   ; qtot -0.134555
 3056         hc    105    bbb     H7   3056 0.04936100   1.008000   ; qtot -0.085194
 3057         hc    105    bbb     H8   3057 0.04936100   1.008000   ; qtot -0.035833
 3058         c3    105    bbb     C5   3058 0.11363000  12.010000   ; qtot 0.077797
 3059         hc    105    bbb     H9   3059 0.06265900   1.008000   ; qtot 0.140456
 3060         hc    105    bbb    H10   3060 0.06265900   1.008000   ; qtot 0.203115
 3061         c3    105    bbb     C6   3061 0.11363000  12.010000   ; qtot 0.316745
 3062         hc    105    bbb    H11   3062 0.06265900   1.008000   ; qtot 0.379404
 3063         hc    105    bbb    H12   3063 0.06265900   1.008000   ; qtot 0.442063
 3064         c3    105    bbb     C7   3064 0.05858200  12.010000   ; qtot 0.500645
 3065         h1    105    bbb    H13   3065 0.06123400   1.008000   ; qtot 0.561879
 3066         h1    105    bbb    H14   3066 0.06123400   1.008000   ; qtot 0.623113
 3067         c3    105    bbb     C8   3067 -0.72423400  12.010000   ; qtot -0.101121
 3068         h1    105    bbb    H15   3068 0.25637600   1.008000   ; qtot 0.155255
 3069         h1    105    bbb    H16   3069 0.25637600   1.008000   ; qtot 0.411631
 3070         c3    105    bbb     C9   3070 -0.72423400  12.010000   ; qtot -0.312603
 3071         h1    105    bbb    H17   3071 0.25637600   1.008000   ; qtot -0.056227
 3072         h1    105    bbb    H18   3072 0.25637600   1.008000   ; qtot 0.200149
 3073         os    105    bbb     O1   3073 -0.20025300  16.000000   ; qtot -0.000104
; residue  106 bbb rtp bbb q -0.0
 3074         n3    106    bbb     N1   3074 -0.59685800  14.010000   ; qtot -0.596962
 3075         c3    106    bbb     C1   3075 0.10137000  12.010000   ; qtot -0.495592
 3076         h1    106    bbb     H1   3076 0.04411300   1.008000   ; qtot -0.451479
 3077         h1    106    bbb     H2   3077 0.04411300   1.008000   ; qtot -0.407366
 3078         c3    106    bbb     C2   3078 0.10137000  12.010000   ; qtot -0.305996
 3079         h1    106    bbb     H3   3079 0.04411300   1.008000   ; qtot -0.261883
 3080         h1    106    bbb     H4   3080 0.04411300   1.008000   ; qtot -0.217770
 3081         c3    106    bbb     C3   3081 -0.00195300  12.010000   ; qtot -0.219723
 3082         h1    106    bbb     H5   3082 0.05064400   1.008000   ; qtot -0.169079
 3083         h1    106    bbb     H6   3083 0.05064400   1.008000   ; qtot -0.118435
 3084         c3    106    bbb     C4   3084 -0.01612100  12.010000   ; qtot -0.134556
 3085         hc    106    bbb     H7   3085 0.04936100   1.008000   ; qtot -0.085195
 3086         hc    106    bbb     H8   3086 0.04936100   1.008000   ; qtot -0.035834
 3087         c3    106    bbb     C5   3087 0.11363000  12.010000   ; qtot 0.077796
 3088         hc    106    bbb     H9   3088 0.06265900   1.008000   ; qtot 0.140455
 3089         hc    106    bbb    H10   3089 0.06265900   1.008000   ; qtot 0.203114
 3090         c3    106    bbb     C6   3090 0.11363000  12.010000   ; qtot 0.316744
 3091         hc    106    bbb    H11   3091 0.06265900   1.008000   ; qtot 0.379403
 3092         hc    106    bbb    H12   3092 0.06265900   1.008000   ; qtot 0.442062
 3093         c3    106    bbb     C7   3093 0.05858200  12.010000   ; qtot 0.500644
 3094         h1    106    bbb    H13   3094 0.06123400   1.008000   ; qtot 0.561878
 3095         h1    106    bbb    H14   3095 0.06123400   1.008000   ; qtot 0.623112
 3096         c3    106    bbb     C8   3096 -0.72423400  12.010000   ; qtot -0.101122
 3097         h1    106    bbb    H15   3097 0.25637600   1.008000   ; qtot 0.155254
 3098         h1    106    bbb    H16   3098 0.25637600   1.008000   ; qtot 0.411630
 3099         c3    106    bbb     C9   3099 -0.72423400  12.010000   ; qtot -0.312604
 3100         h1    106    bbb    H17   3100 0.25637600   1.008000   ; qtot -0.056228
 3101         h1    106    bbb    H18   3101 0.25637600   1.008000   ; qtot 0.200148
 3102         os    106    bbb     O1   3102 -0.20025300  16.000000   ; qtot -0.000105
; residue  107 bbb rtp bbb q -0.0
 3103         n3    107    bbb     N1   3103 -0.59685800  14.010000   ; qtot -0.596963
 3104         c3    107    bbb     C1   3104 0.10137000  12.010000   ; qtot -0.495593
 3105         h1    107    bbb     H1   3105 0.04411300   1.008000   ; qtot -0.451480
 3106         h1    107    bbb     H2   3106 0.04411300   1.008000   ; qtot -0.407367
 3107         c3    107    bbb     C2   3107 0.10137000  12.010000   ; qtot -0.305997
 3108         h1    107    bbb     H3   3108 0.04411300   1.008000   ; qtot -0.261884
 3109         h1    107    bbb     H4   3109 0.04411300   1.008000   ; qtot -0.217771
 3110         c3    107    bbb     C3   3110 -0.00195300  12.010000   ; qtot -0.219724
 3111         h1    107    bbb     H5   3111 0.05064400   1.008000   ; qtot -0.169080
 3112         h1    107    bbb     H6   3112 0.05064400   1.008000   ; qtot -0.118436
 3113         c3    107    bbb     C4   3113 -0.01612100  12.010000   ; qtot -0.134557
 3114         hc    107    bbb     H7   3114 0.04936100   1.008000   ; qtot -0.085196
 3115         hc    107    bbb     H8   3115 0.04936100   1.008000   ; qtot -0.035835
 3116         c3    107    bbb     C5   3116 0.11363000  12.010000   ; qtot 0.077795
 3117         hc    107    bbb     H9   3117 0.06265900   1.008000   ; qtot 0.140454
 3118         hc    107    bbb    H10   3118 0.06265900   1.008000   ; qtot 0.203113
 3119         c3    107    bbb     C6   3119 0.11363000  12.010000   ; qtot 0.316743
 3120         hc    107    bbb    H11   3120 0.06265900   1.008000   ; qtot 0.379402
 3121         hc    107    bbb    H12   3121 0.06265900   1.008000   ; qtot 0.442061
 3122         c3    107    bbb     C7   3122 0.05858200  12.010000   ; qtot 0.500643
 3123         h1    107    bbb    H13   3123 0.06123400   1.008000   ; qtot 0.561877
 3124         h1    107    bbb    H14   3124 0.06123400   1.008000   ; qtot 0.623111
 3125         c3    107    bbb     C8   3125 -0.72423400  12.010000   ; qtot -0.101123
 3126         h1    107    bbb    H15   3126 0.25637600   1.008000   ; qtot 0.155253
 3127         h1    107    bbb    H16   3127 0.25637600   1.008000   ; qtot 0.411629
 3128         c3    107    bbb     C9   3128 -0.72423400  12.010000   ; qtot -0.312605
 3129         h1    107    bbb    H17   3129 0.25637600   1.008000   ; qtot -0.056229
 3130         h1    107    bbb    H18   3130 0.25637600   1.008000   ; qtot 0.200147
 3131         os    107    bbb     O1   3131 -0.20025300  16.000000   ; qtot -0.000106
; residue  108 bbb rtp bbb q -0.0
 3132         n3    108    bbb     N1   3132 -0.59685800  14.010000   ; qtot -0.596964
 3133         c3    108    bbb     C1   3133 0.10137000  12.010000   ; qtot -0.495594
 3134         h1    108    bbb     H1   3134 0.04411300   1.008000   ; qtot -0.451481
 3135         h1    108    bbb     H2   3135 0.04411300   1.008000   ; qtot -0.407368
 3136         c3    108    bbb     C2   3136 0.10137000  12.010000   ; qtot -0.305998
 3137         h1    108    bbb     H3   3137 0.04411300   1.008000   ; qtot -0.261885
 3138         h1    108    bbb     H4   3138 0.04411300   1.008000   ; qtot -0.217772
 3139         c3    108    bbb     C3   3139 -0.00195300  12.010000   ; qtot -0.219725
 3140         h1    108    bbb     H5   3140 0.05064400   1.008000   ; qtot -0.169081
 3141         h1    108    bbb     H6   3141 0.05064400   1.008000   ; qtot -0.118437
 3142         c3    108    bbb     C4   3142 -0.01612100  12.010000   ; qtot -0.134558
 3143         hc    108    bbb     H7   3143 0.04936100   1.008000   ; qtot -0.085197
 3144         hc    108    bbb     H8   3144 0.04936100   1.008000   ; qtot -0.035836
 3145         c3    108    bbb     C5   3145 0.11363000  12.010000   ; qtot 0.077794
 3146         hc    108    bbb     H9   3146 0.06265900   1.008000   ; qtot 0.140453
 3147         hc    108    bbb    H10   3147 0.06265900   1.008000   ; qtot 0.203112
 3148         c3    108    bbb     C6   3148 0.11363000  12.010000   ; qtot 0.316742
 3149         hc    108    bbb    H11   3149 0.06265900   1.008000   ; qtot 0.379401
 3150         hc    108    bbb    H12   3150 0.06265900   1.008000   ; qtot 0.442060
 3151         c3    108    bbb     C7   3151 0.05858200  12.010000   ; qtot 0.500642
 3152         h1    108    bbb    H13   3152 0.06123400   1.008000   ; qtot 0.561876
 3153         h1    108    bbb    H14   3153 0.06123400   1.008000   ; qtot 0.623110
 3154         c3    108    bbb     C8   3154 -0.72423400  12.010000   ; qtot -0.101124
 3155         h1    108    bbb    H15   3155 0.25637600   1.008000   ; qtot 0.155252
 3156         h1    108    bbb    H16   3156 0.25637600   1.008000   ; qtot 0.411628
 3157         c3    108    bbb     C9   3157 -0.72423400  12.010000   ; qtot -0.312606
 3158         h1    108    bbb    H17   3158 0.25637600   1.008000   ; qtot -0.056230
 3159         h1    108    bbb    H18   3159 0.25637600   1.008000   ; qtot 0.200146
 3160         os    108    bbb     O1   3160 -0.20025300  16.000000   ; qtot -0.000107
; residue  109 bbb rtp bbb q -0.0
 3161         n3    109    bbb     N1   3161 -0.59685800  14.010000   ; qtot -0.596965
 3162         c3    109    bbb     C1   3162 0.10137000  12.010000   ; qtot -0.495595
 3163         h1    109    bbb     H1   3163 0.04411300   1.008000   ; qtot -0.451482
 3164         h1    109    bbb     H2   3164 0.04411300   1.008000   ; qtot -0.407369
 3165         c3    109    bbb     C2   3165 0.10137000  12.010000   ; qtot -0.305999
 3166         h1    109    bbb     H3   3166 0.04411300   1.008000   ; qtot -0.261886
 3167         h1    109    bbb     H4   3167 0.04411300   1.008000   ; qtot -0.217773
 3168         c3    109    bbb     C3   3168 -0.00195300  12.010000   ; qtot -0.219726
 3169         h1    109    bbb     H5   3169 0.05064400   1.008000   ; qtot -0.169082
 3170         h1    109    bbb     H6   3170 0.05064400   1.008000   ; qtot -0.118438
 3171         c3    109    bbb     C4   3171 -0.01612100  12.010000   ; qtot -0.134559
 3172         hc    109    bbb     H7   3172 0.04936100   1.008000   ; qtot -0.085198
 3173         hc    109    bbb     H8   3173 0.04936100   1.008000   ; qtot -0.035837
 3174         c3    109    bbb     C5   3174 0.11363000  12.010000   ; qtot 0.077793
 3175         hc    109    bbb     H9   3175 0.06265900   1.008000   ; qtot 0.140452
 3176         hc    109    bbb    H10   3176 0.06265900   1.008000   ; qtot 0.203111
 3177         c3    109    bbb     C6   3177 0.11363000  12.010000   ; qtot 0.316741
 3178         hc    109    bbb    H11   3178 0.06265900   1.008000   ; qtot 0.379400
 3179         hc    109    bbb    H12   3179 0.06265900   1.008000   ; qtot 0.442059
 3180         c3    109    bbb     C7   3180 0.05858200  12.010000   ; qtot 0.500641
 3181         h1    109    bbb    H13   3181 0.06123400   1.008000   ; qtot 0.561875
 3182         h1    109    bbb    H14   3182 0.06123400   1.008000   ; qtot 0.623109
 3183         c3    109    bbb     C8   3183 -0.72423400  12.010000   ; qtot -0.101125
 3184         h1    109    bbb    H15   3184 0.25637600   1.008000   ; qtot 0.155251
 3185         h1    109    bbb    H16   3185 0.25637600   1.008000   ; qtot 0.411627
 3186         c3    109    bbb     C9   3186 -0.72423400  12.010000   ; qtot -0.312607
 3187         h1    109    bbb    H17   3187 0.25637600   1.008000   ; qtot -0.056231
 3188         h1    109    bbb    H18   3188 0.25637600   1.008000   ; qtot 0.200145
 3189         os    109    bbb     O1   3189 -0.20025300  16.000000   ; qtot -0.000108
; residue  110 bbb rtp bbb q -0.0
 3190         n3    110    bbb     N1   3190 -0.59685800  14.010000   ; qtot -0.596966
 3191         c3    110    bbb     C1   3191 0.10137000  12.010000   ; qtot -0.495596
 3192         h1    110    bbb     H1   3192 0.04411300   1.008000   ; qtot -0.451483
 3193         h1    110    bbb     H2   3193 0.04411300   1.008000   ; qtot -0.407370
 3194         c3    110    bbb     C2   3194 0.10137000  12.010000   ; qtot -0.306000
 3195         h1    110    bbb     H3   3195 0.04411300   1.008000   ; qtot -0.261887
 3196         h1    110    bbb     H4   3196 0.04411300   1.008000   ; qtot -0.217774
 3197         c3    110    bbb     C3   3197 -0.00195300  12.010000   ; qtot -0.219727
 3198         h1    110    bbb     H5   3198 0.05064400   1.008000   ; qtot -0.169083
 3199         h1    110    bbb     H6   3199 0.05064400   1.008000   ; qtot -0.118439
 3200         c3    110    bbb     C4   3200 -0.01612100  12.010000   ; qtot -0.134560
 3201         hc    110    bbb     H7   3201 0.04936100   1.008000   ; qtot -0.085199
 3202         hc    110    bbb     H8   3202 0.04936100   1.008000   ; qtot -0.035838
 3203         c3    110    bbb     C5   3203 0.11363000  12.010000   ; qtot 0.077792
 3204         hc    110    bbb     H9   3204 0.06265900   1.008000   ; qtot 0.140451
 3205         hc    110    bbb    H10   3205 0.06265900   1.008000   ; qtot 0.203110
 3206         c3    110    bbb     C6   3206 0.11363000  12.010000   ; qtot 0.316740
 3207         hc    110    bbb    H11   3207 0.06265900   1.008000   ; qtot 0.379399
 3208         hc    110    bbb    H12   3208 0.06265900   1.008000   ; qtot 0.442058
 3209         c3    110    bbb     C7   3209 0.05858200  12.010000   ; qtot 0.500640
 3210         h1    110    bbb    H13   3210 0.06123400   1.008000   ; qtot 0.561874
 3211         h1    110    bbb    H14   3211 0.06123400   1.008000   ; qtot 0.623108
 3212         c3    110    bbb     C8   3212 -0.72423400  12.010000   ; qtot -0.101126
 3213         h1    110    bbb    H15   3213 0.25637600   1.008000   ; qtot 0.155250
 3214         h1    110    bbb    H16   3214 0.25637600   1.008000   ; qtot 0.411626
 3215         c3    110    bbb     C9   3215 -0.72423400  12.010000   ; qtot -0.312608
 3216         h1    110    bbb    H17   3216 0.25637600   1.008000   ; qtot -0.056232
 3217         h1    110    bbb    H18   3217 0.25637600   1.008000   ; qtot 0.200144
 3218         os    110    bbb     O1   3218 -0.20025300  16.000000   ; qtot -0.000109
; residue  111 bbb rtp bbb q -0.0
 3219         n3    111    bbb     N1   3219 -0.59685800  14.010000   ; qtot -0.596967
 3220         c3    111    bbb     C1   3220 0.10137000  12.010000   ; qtot -0.495597
 3221         h1    111    bbb     H1   3221 0.04411300   1.008000   ; qtot -0.451484
 3222         h1    111    bbb     H2   3222 0.04411300   1.008000   ; qtot -0.407371
 3223         c3    111    bbb     C2   3223 0.10137000  12.010000   ; qtot -0.306001
 3224         h1    111    bbb     H3   3224 0.04411300   1.008000   ; qtot -0.261888
 3225         h1    111    bbb     H4   3225 0.04411300   1.008000   ; qtot -0.217775
 3226         c3    111    bbb     C3   3226 -0.00195300  12.010000   ; qtot -0.219728
 3227         h1    111    bbb     H5   3227 0.05064400   1.008000   ; qtot -0.169084
 3228         h1    111    bbb     H6   3228 0.05064400   1.008000   ; qtot -0.118440
 3229         c3    111    bbb     C4   3229 -0.01612100  12.010000   ; qtot -0.134561
 3230         hc    111    bbb     H7   3230 0.04936100   1.008000   ; qtot -0.085200
 3231         hc    111    bbb     H8   3231 0.04936100   1.008000   ; qtot -0.035839
 3232         c3    111    bbb     C5   3232 0.11363000  12.010000   ; qtot 0.077791
 3233         hc    111    bbb     H9   3233 0.06265900   1.008000   ; qtot 0.140450
 3234         hc    111    bbb    H10   3234 0.06265900   1.008000   ; qtot 0.203109
 3235         c3    111    bbb     C6   3235 0.11363000  12.010000   ; qtot 0.316739
 3236         hc    111    bbb    H11   3236 0.06265900   1.008000   ; qtot 0.379398
 3237         hc    111    bbb    H12   3237 0.06265900   1.008000   ; qtot 0.442057
 3238         c3    111    bbb     C7   3238 0.05858200  12.010000   ; qtot 0.500639
 3239         h1    111    bbb    H13   3239 0.06123400   1.008000   ; qtot 0.561873
 3240         h1    111    bbb    H14   3240 0.06123400   1.008000   ; qtot 0.623107
 3241         c3    111    bbb     C8   3241 -0.72423400  12.010000   ; qtot -0.101127
 3242         h1    111    bbb    H15   3242 0.25637600   1.008000   ; qtot 0.155249
 3243         h1    111    bbb    H16   3243 0.25637600   1.008000   ; qtot 0.411625
 3244         c3    111    bbb     C9   3244 -0.72423400  12.010000   ; qtot -0.312609
 3245         h1    111    bbb    H17   3245 0.25637600   1.008000   ; qtot -0.056233
 3246         h1    111    bbb    H18   3246 0.25637600   1.008000   ; qtot 0.200143
 3247         os    111    bbb     O1   3247 -0.20025300  16.000000   ; qtot -0.000110
; residue  112 bbb rtp bbb q -0.0
 3248         n3    112    bbb     N1   3248 -0.59685800  14.010000   ; qtot -0.596968
 3249         c3    112    bbb     C1   3249 0.10137000  12.010000   ; qtot -0.495598
 3250         h1    112    bbb     H1   3250 0.04411300   1.008000   ; qtot -0.451485
 3251         h1    112    bbb     H2   3251 0.04411300   1.008000   ; qtot -0.407372
 3252         c3    112    bbb     C2   3252 0.10137000  12.010000   ; qtot -0.306002
 3253         h1    112    bbb     H3   3253 0.04411300   1.008000   ; qtot -0.261889
 3254         h1    112    bbb     H4   3254 0.04411300   1.008000   ; qtot -0.217776
 3255         c3    112    bbb     C3   3255 -0.00195300  12.010000   ; qtot -0.219729
 3256         h1    112    bbb     H5   3256 0.05064400   1.008000   ; qtot -0.169085
 3257         h1    112    bbb     H6   3257 0.05064400   1.008000   ; qtot -0.118441
 3258         c3    112    bbb     C4   3258 -0.01612100  12.010000   ; qtot -0.134562
 3259         hc    112    bbb     H7   3259 0.04936100   1.008000   ; qtot -0.085201
 3260         hc    112    bbb     H8   3260 0.04936100   1.008000   ; qtot -0.035840
 3261         c3    112    bbb     C5   3261 0.11363000  12.010000   ; qtot 0.077790
 3262         hc    112    bbb     H9   3262 0.06265900   1.008000   ; qtot 0.140449
 3263         hc    112    bbb    H10   3263 0.06265900   1.008000   ; qtot 0.203108
 3264         c3    112    bbb     C6   3264 0.11363000  12.010000   ; qtot 0.316738
 3265         hc    112    bbb    H11   3265 0.06265900   1.008000   ; qtot 0.379397
 3266         hc    112    bbb    H12   3266 0.06265900   1.008000   ; qtot 0.442056
 3267         c3    112    bbb     C7   3267 0.05858200  12.010000   ; qtot 0.500638
 3268         h1    112    bbb    H13   3268 0.06123400   1.008000   ; qtot 0.561872
 3269         h1    112    bbb    H14   3269 0.06123400   1.008000   ; qtot 0.623106
 3270         c3    112    bbb     C8   3270 -0.72423400  12.010000   ; qtot -0.101128
 3271         h1    112    bbb    H15   3271 0.25637600   1.008000   ; qtot 0.155248
 3272         h1    112    bbb    H16   3272 0.25637600   1.008000   ; qtot 0.411624
 3273         c3    112    bbb     C9   3273 -0.72423400  12.010000   ; qtot -0.312610
 3274         h1    112    bbb    H17   3274 0.25637600   1.008000   ; qtot -0.056234
 3275         h1    112    bbb    H18   3275 0.25637600   1.008000   ; qtot 0.200142
 3276         os    112    bbb     O1   3276 -0.20025300  16.000000   ; qtot -0.000111
; residue  113 bbb rtp bbb q -0.0
 3277         n3    113    bbb     N1   3277 -0.59685800  14.010000   ; qtot -0.596969
 3278         c3    113    bbb     C1   3278 0.10137000  12.010000   ; qtot -0.495599
 3279         h1    113    bbb     H1   3279 0.04411300   1.008000   ; qtot -0.451486
 3280         h1    113    bbb     H2   3280 0.04411300   1.008000   ; qtot -0.407373
 3281         c3    113    bbb     C2   3281 0.10137000  12.010000   ; qtot -0.306003
 3282         h1    113    bbb     H3   3282 0.04411300   1.008000   ; qtot -0.261890
 3283         h1    113    bbb     H4   3283 0.04411300   1.008000   ; qtot -0.217777
 3284         c3    113    bbb     C3   3284 -0.00195300  12.010000   ; qtot -0.219730
 3285         h1    113    bbb     H5   3285 0.05064400   1.008000   ; qtot -0.169086
 3286         h1    113    bbb     H6   3286 0.05064400   1.008000   ; qtot -0.118442
 3287         c3    113    bbb     C4   3287 -0.01612100  12.010000   ; qtot -0.134563
 3288         hc    113    bbb     H7   3288 0.04936100   1.008000   ; qtot -0.085202
 3289         hc    113    bbb     H8   3289 0.04936100   1.008000   ; qtot -0.035841
 3290         c3    113    bbb     C5   3290 0.11363000  12.010000   ; qtot 0.077789
 3291         hc    113    bbb     H9   3291 0.06265900   1.008000   ; qtot 0.140448
 3292         hc    113    bbb    H10   3292 0.06265900   1.008000   ; qtot 0.203107
 3293         c3    113    bbb     C6   3293 0.11363000  12.010000   ; qtot 0.316737
 3294         hc    113    bbb    H11   3294 0.06265900   1.008000   ; qtot 0.379396
 3295         hc    113    bbb    H12   3295 0.06265900   1.008000   ; qtot 0.442055
 3296         c3    113    bbb     C7   3296 0.05858200  12.010000   ; qtot 0.500637
 3297         h1    113    bbb    H13   3297 0.06123400   1.008000   ; qtot 0.561871
 3298         h1    113    bbb    H14   3298 0.06123400   1.008000   ; qtot 0.623105
 3299         c3    113    bbb     C8   3299 -0.72423400  12.010000   ; qtot -0.101129
 3300         h1    113    bbb    H15   3300 0.25637600   1.008000   ; qtot 0.155247
 3301         h1    113    bbb    H16   3301 0.25637600   1.008000   ; qtot 0.411623
 3302         c3    113    bbb     C9   3302 -0.72423400  12.010000   ; qtot -0.312611
 3303         h1    113    bbb    H17   3303 0.25637600   1.008000   ; qtot -0.056235
 3304         h1    113    bbb    H18   3304 0.25637600   1.008000   ; qtot 0.200141
 3305         os    113    bbb     O1   3305 -0.20025300  16.000000   ; qtot -0.000112
; residue  114 bbb rtp bbb q -0.0
 3306         n3    114    bbb     N1   3306 -0.59685800  14.010000   ; qtot -0.596970
 3307         c3    114    bbb     C1   3307 0.10137000  12.010000   ; qtot -0.495600
 3308         h1    114    bbb     H1   3308 0.04411300   1.008000   ; qtot -0.451487
 3309         h1    114    bbb     H2   3309 0.04411300   1.008000   ; qtot -0.407374
 3310         c3    114    bbb     C2   3310 0.10137000  12.010000   ; qtot -0.306004
 3311         h1    114    bbb     H3   3311 0.04411300   1.008000   ; qtot -0.261891
 3312         h1    114    bbb     H4   3312 0.04411300   1.008000   ; qtot -0.217778
 3313         c3    114    bbb     C3   3313 -0.00195300  12.010000   ; qtot -0.219731
 3314         h1    114    bbb     H5   3314 0.05064400   1.008000   ; qtot -0.169087
 3315         h1    114    bbb     H6   3315 0.05064400   1.008000   ; qtot -0.118443
 3316         c3    114    bbb     C4   3316 -0.01612100  12.010000   ; qtot -0.134564
 3317         hc    114    bbb     H7   3317 0.04936100   1.008000   ; qtot -0.085203
 3318         hc    114    bbb     H8   3318 0.04936100   1.008000   ; qtot -0.035842
 3319         c3    114    bbb     C5   3319 0.11363000  12.010000   ; qtot 0.077788
 3320         hc    114    bbb     H9   3320 0.06265900   1.008000   ; qtot 0.140447
 3321         hc    114    bbb    H10   3321 0.06265900   1.008000   ; qtot 0.203106
 3322         c3    114    bbb     C6   3322 0.11363000  12.010000   ; qtot 0.316736
 3323         hc    114    bbb    H11   3323 0.06265900   1.008000   ; qtot 0.379395
 3324         hc    114    bbb    H12   3324 0.06265900   1.008000   ; qtot 0.442054
 3325         c3    114    bbb     C7   3325 0.05858200  12.010000   ; qtot 0.500636
 3326         h1    114    bbb    H13   3326 0.06123400   1.008000   ; qtot 0.561870
 3327         h1    114    bbb    H14   3327 0.06123400   1.008000   ; qtot 0.623104
 3328         c3    114    bbb     C8   3328 -0.72423400  12.010000   ; qtot -0.101130
 3329         h1    114    bbb    H15   3329 0.25637600   1.008000   ; qtot 0.155246
 3330         h1    114    bbb    H16   3330 0.25637600   1.008000   ; qtot 0.411622
 3331         c3    114    bbb     C9   3331 -0.72423400  12.010000   ; qtot -0.312612
 3332         h1    114    bbb    H17   3332 0.25637600   1.008000   ; qtot -0.056236
 3333         h1    114    bbb    H18   3333 0.25637600   1.008000   ; qtot 0.200140
 3334         os    114    bbb     O1   3334 -0.20025300  16.000000   ; qtot -0.000113
; residue  115 bbb rtp bbb q -0.0
 3335         n3    115    bbb     N1   3335 -0.59685800  14.010000   ; qtot -0.596971
 3336         c3    115    bbb     C1   3336 0.10137000  12.010000   ; qtot -0.495601
 3337         h1    115    bbb     H1   3337 0.04411300   1.008000   ; qtot -0.451488
 3338         h1    115    bbb     H2   3338 0.04411300   1.008000   ; qtot -0.407375
 3339         c3    115    bbb     C2   3339 0.10137000  12.010000   ; qtot -0.306005
 3340         h1    115    bbb     H3   3340 0.04411300   1.008000   ; qtot -0.261892
 3341         h1    115    bbb     H4   3341 0.04411300   1.008000   ; qtot -0.217779
 3342         c3    115    bbb     C3   3342 -0.00195300  12.010000   ; qtot -0.219732
 3343         h1    115    bbb     H5   3343 0.05064400   1.008000   ; qtot -0.169088
 3344         h1    115    bbb     H6   3344 0.05064400   1.008000   ; qtot -0.118444
 3345         c3    115    bbb     C4   3345 -0.01612100  12.010000   ; qtot -0.134565
 3346         hc    115    bbb     H7   3346 0.04936100   1.008000   ; qtot -0.085204
 3347         hc    115    bbb     H8   3347 0.04936100   1.008000   ; qtot -0.035843
 3348         c3    115    bbb     C5   3348 0.11363000  12.010000   ; qtot 0.077787
 3349         hc    115    bbb     H9   3349 0.06265900   1.008000   ; qtot 0.140446
 3350         hc    115    bbb    H10   3350 0.06265900   1.008000   ; qtot 0.203105
 3351         c3    115    bbb     C6   3351 0.11363000  12.010000   ; qtot 0.316735
 3352         hc    115    bbb    H11   3352 0.06265900   1.008000   ; qtot 0.379394
 3353         hc    115    bbb    H12   3353 0.06265900   1.008000   ; qtot 0.442053
 3354         c3    115    bbb     C7   3354 0.05858200  12.010000   ; qtot 0.500635
 3355         h1    115    bbb    H13   3355 0.06123400   1.008000   ; qtot 0.561869
 3356         h1    115    bbb    H14   3356 0.06123400   1.008000   ; qtot 0.623103
 3357         c3    115    bbb     C8   3357 -0.72423400  12.010000   ; qtot -0.101131
 3358         h1    115    bbb    H15   3358 0.25637600   1.008000   ; qtot 0.155245
 3359         h1    115    bbb    H16   3359 0.25637600   1.008000   ; qtot 0.411621
 3360         c3    115    bbb     C9   3360 -0.72423400  12.010000   ; qtot -0.312613
 3361         h1    115    bbb    H17   3361 0.25637600   1.008000   ; qtot -0.056237
 3362         h1    115    bbb    H18   3362 0.25637600   1.008000   ; qtot 0.200139
 3363         os    115    bbb     O1   3363 -0.20025300  16.000000   ; qtot -0.000114
; residue  116 bbb rtp bbb q -0.0
 3364         n3    116    bbb     N1   3364 -0.59685800  14.010000   ; qtot -0.596972
 3365         c3    116    bbb     C1   3365 0.10137000  12.010000   ; qtot -0.495602
 3366         h1    116    bbb     H1   3366 0.04411300   1.008000   ; qtot -0.451489
 3367         h1    116    bbb     H2   3367 0.04411300   1.008000   ; qtot -0.407376
 3368         c3    116    bbb     C2   3368 0.10137000  12.010000   ; qtot -0.306006
 3369         h1    116    bbb     H3   3369 0.04411300   1.008000   ; qtot -0.261893
 3370         h1    116    bbb     H4   3370 0.04411300   1.008000   ; qtot -0.217780
 3371         c3    116    bbb     C3   3371 -0.00195300  12.010000   ; qtot -0.219733
 3372         h1    116    bbb     H5   3372 0.05064400   1.008000   ; qtot -0.169089
 3373         h1    116    bbb     H6   3373 0.05064400   1.008000   ; qtot -0.118445
 3374         c3    116    bbb     C4   3374 -0.01612100  12.010000   ; qtot -0.134566
 3375         hc    116    bbb     H7   3375 0.04936100   1.008000   ; qtot -0.085205
 3376         hc    116    bbb     H8   3376 0.04936100   1.008000   ; qtot -0.035844
 3377         c3    116    bbb     C5   3377 0.11363000  12.010000   ; qtot 0.077786
 3378         hc    116    bbb     H9   3378 0.06265900   1.008000   ; qtot 0.140445
 3379         hc    116    bbb    H10   3379 0.06265900   1.008000   ; qtot 0.203104
 3380         c3    116    bbb     C6   3380 0.11363000  12.010000   ; qtot 0.316734
 3381         hc    116    bbb    H11   3381 0.06265900   1.008000   ; qtot 0.379393
 3382         hc    116    bbb    H12   3382 0.06265900   1.008000   ; qtot 0.442052
 3383         c3    116    bbb     C7   3383 0.05858200  12.010000   ; qtot 0.500634
 3384         h1    116    bbb    H13   3384 0.06123400   1.008000   ; qtot 0.561868
 3385         h1    116    bbb    H14   3385 0.06123400   1.008000   ; qtot 0.623102
 3386         c3    116    bbb     C8   3386 -0.72423400  12.010000   ; qtot -0.101132
 3387         h1    116    bbb    H15   3387 0.25637600   1.008000   ; qtot 0.155244
 3388         h1    116    bbb    H16   3388 0.25637600   1.008000   ; qtot 0.411620
 3389         c3    116    bbb     C9   3389 -0.72423400  12.010000   ; qtot -0.312614
 3390         h1    116    bbb    H17   3390 0.25637600   1.008000   ; qtot -0.056238
 3391         h1    116    bbb    H18   3391 0.25637600   1.008000   ; qtot 0.200138
 3392         os    116    bbb     O1   3392 -0.20025300  16.000000   ; qtot -0.000115
; residue  117 bbb rtp bbb q -0.0
 3393         n3    117    bbb     N1   3393 -0.59685800  14.010000   ; qtot -0.596973
 3394         c3    117    bbb     C1   3394 0.10137000  12.010000   ; qtot -0.495603
 3395         h1    117    bbb     H1   3395 0.04411300   1.008000   ; qtot -0.451490
 3396         h1    117    bbb     H2   3396 0.04411300   1.008000   ; qtot -0.407377
 3397         c3    117    bbb     C2   3397 0.10137000  12.010000   ; qtot -0.306007
 3398         h1    117    bbb     H3   3398 0.04411300   1.008000   ; qtot -0.261894
 3399         h1    117    bbb     H4   3399 0.04411300   1.008000   ; qtot -0.217781
 3400         c3    117    bbb     C3   3400 -0.00195300  12.010000   ; qtot -0.219734
 3401         h1    117    bbb     H5   3401 0.05064400   1.008000   ; qtot -0.169090
 3402         h1    117    bbb     H6   3402 0.05064400   1.008000   ; qtot -0.118446
 3403         c3    117    bbb     C4   3403 -0.01612100  12.010000   ; qtot -0.134567
 3404         hc    117    bbb     H7   3404 0.04936100   1.008000   ; qtot -0.085206
 3405         hc    117    bbb     H8   3405 0.04936100   1.008000   ; qtot -0.035845
 3406         c3    117    bbb     C5   3406 0.11363000  12.010000   ; qtot 0.077785
 3407         hc    117    bbb     H9   3407 0.06265900   1.008000   ; qtot 0.140444
 3408         hc    117    bbb    H10   3408 0.06265900   1.008000   ; qtot 0.203103
 3409         c3    117    bbb     C6   3409 0.11363000  12.010000   ; qtot 0.316733
 3410         hc    117    bbb    H11   3410 0.06265900   1.008000   ; qtot 0.379392
 3411         hc    117    bbb    H12   3411 0.06265900   1.008000   ; qtot 0.442051
 3412         c3    117    bbb     C7   3412 0.05858200  12.010000   ; qtot 0.500633
 3413         h1    117    bbb    H13   3413 0.06123400   1.008000   ; qtot 0.561867
 3414         h1    117    bbb    H14   3414 0.06123400   1.008000   ; qtot 0.623101
 3415         c3    117    bbb     C8   3415 -0.72423400  12.010000   ; qtot -0.101133
 3416         h1    117    bbb    H15   3416 0.25637600   1.008000   ; qtot 0.155243
 3417         h1    117    bbb    H16   3417 0.25637600   1.008000   ; qtot 0.411619
 3418         c3    117    bbb     C9   3418 -0.72423400  12.010000   ; qtot -0.312615
 3419         h1    117    bbb    H17   3419 0.25637600   1.008000   ; qtot -0.056239
 3420         h1    117    bbb    H18   3420 0.25637600   1.008000   ; qtot 0.200137
 3421         os    117    bbb     O1   3421 -0.20025300  16.000000   ; qtot -0.000116
; residue  118 bbb rtp bbb q -0.0
 3422         n3    118    bbb     N1   3422 -0.59685800  14.010000   ; qtot -0.596974
 3423         c3    118    bbb     C1   3423 0.10137000  12.010000   ; qtot -0.495604
 3424         h1    118    bbb     H1   3424 0.04411300   1.008000   ; qtot -0.451491
 3425         h1    118    bbb     H2   3425 0.04411300   1.008000   ; qtot -0.407378
 3426         c3    118    bbb     C2   3426 0.10137000  12.010000   ; qtot -0.306008
 3427         h1    118    bbb     H3   3427 0.04411300   1.008000   ; qtot -0.261895
 3428         h1    118    bbb     H4   3428 0.04411300   1.008000   ; qtot -0.217782
 3429         c3    118    bbb     C3   3429 -0.00195300  12.010000   ; qtot -0.219735
 3430         h1    118    bbb     H5   3430 0.05064400   1.008000   ; qtot -0.169091
 3431         h1    118    bbb     H6   3431 0.05064400   1.008000   ; qtot -0.118447
 3432         c3    118    bbb     C4   3432 -0.01612100  12.010000   ; qtot -0.134568
 3433         hc    118    bbb     H7   3433 0.04936100   1.008000   ; qtot -0.085207
 3434         hc    118    bbb     H8   3434 0.04936100   1.008000   ; qtot -0.035846
 3435         c3    118    bbb     C5   3435 0.11363000  12.010000   ; qtot 0.077784
 3436         hc    118    bbb     H9   3436 0.06265900   1.008000   ; qtot 0.140443
 3437         hc    118    bbb    H10   3437 0.06265900   1.008000   ; qtot 0.203102
 3438         c3    118    bbb     C6   3438 0.11363000  12.010000   ; qtot 0.316732
 3439         hc    118    bbb    H11   3439 0.06265900   1.008000   ; qtot 0.379391
 3440         hc    118    bbb    H12   3440 0.06265900   1.008000   ; qtot 0.442050
 3441         c3    118    bbb     C7   3441 0.05858200  12.010000   ; qtot 0.500632
 3442         h1    118    bbb    H13   3442 0.06123400   1.008000   ; qtot 0.561866
 3443         h1    118    bbb    H14   3443 0.06123400   1.008000   ; qtot 0.623100
 3444         c3    118    bbb     C8   3444 -0.72423400  12.010000   ; qtot -0.101134
 3445         h1    118    bbb    H15   3445 0.25637600   1.008000   ; qtot 0.155242
 3446         h1    118    bbb    H16   3446 0.25637600   1.008000   ; qtot 0.411618
 3447         c3    118    bbb     C9   3447 -0.72423400  12.010000   ; qtot -0.312616
 3448         h1    118    bbb    H17   3448 0.25637600   1.008000   ; qtot -0.056240
 3449         h1    118    bbb    H18   3449 0.25637600   1.008000   ; qtot 0.200136
 3450         os    118    bbb     O1   3450 -0.20025300  16.000000   ; qtot -0.000117
; residue  119 bbb rtp bbb q -0.0
 3451         n3    119    bbb     N1   3451 -0.59685800  14.010000   ; qtot -0.596975
 3452         c3    119    bbb     C1   3452 0.10137000  12.010000   ; qtot -0.495605
 3453         h1    119    bbb     H1   3453 0.04411300   1.008000   ; qtot -0.451492
 3454         h1    119    bbb     H2   3454 0.04411300   1.008000   ; qtot -0.407379
 3455         c3    119    bbb     C2   3455 0.10137000  12.010000   ; qtot -0.306009
 3456         h1    119    bbb     H3   3456 0.04411300   1.008000   ; qtot -0.261896
 3457         h1    119    bbb     H4   3457 0.04411300   1.008000   ; qtot -0.217783
 3458         c3    119    bbb     C3   3458 -0.00195300  12.010000   ; qtot -0.219736
 3459         h1    119    bbb     H5   3459 0.05064400   1.008000   ; qtot -0.169092
 3460         h1    119    bbb     H6   3460 0.05064400   1.008000   ; qtot -0.118448
 3461         c3    119    bbb     C4   3461 -0.01612100  12.010000   ; qtot -0.134569
 3462         hc    119    bbb     H7   3462 0.04936100   1.008000   ; qtot -0.085208
 3463         hc    119    bbb     H8   3463 0.04936100   1.008000   ; qtot -0.035847
 3464         c3    119    bbb     C5   3464 0.11363000  12.010000   ; qtot 0.077783
 3465         hc    119    bbb     H9   3465 0.06265900   1.008000   ; qtot 0.140442
 3466         hc    119    bbb    H10   3466 0.06265900   1.008000   ; qtot 0.203101
 3467         c3    119    bbb     C6   3467 0.11363000  12.010000   ; qtot 0.316731
 3468         hc    119    bbb    H11   3468 0.06265900   1.008000   ; qtot 0.379390
 3469         hc    119    bbb    H12   3469 0.06265900   1.008000   ; qtot 0.442049
 3470         c3    119    bbb     C7   3470 0.05858200  12.010000   ; qtot 0.500631
 3471         h1    119    bbb    H13   3471 0.06123400   1.008000   ; qtot 0.561865
 3472         h1    119    bbb    H14   3472 0.06123400   1.008000   ; qtot 0.623099
 3473         c3    119    bbb     C8   3473 -0.72423400  12.010000   ; qtot -0.101135
 3474         h1    119    bbb    H15   3474 0.25637600   1.008000   ; qtot 0.155241
 3475         h1    119    bbb    H16   3475 0.25637600   1.008000   ; qtot 0.411617
 3476         c3    119    bbb     C9   3476 -0.72423400  12.010000   ; qtot -0.312617
 3477         h1    119    bbb    H17   3477 0.25637600   1.008000   ; qtot -0.056241
 3478         h1    119    bbb    H18   3478 0.25637600   1.008000   ; qtot 0.200135
 3479         os    119    bbb     O1   3479 -0.20025300  16.000000   ; qtot -0.000118
; residue  120 bbb rtp bbb q -0.0
 3480         n3    120    bbb     N1   3480 -0.59685800  14.010000   ; qtot -0.596976
 3481         c3    120    bbb     C1   3481 0.10137000  12.010000   ; qtot -0.495606
 3482         h1    120    bbb     H1   3482 0.04411300   1.008000   ; qtot -0.451493
 3483         h1    120    bbb     H2   3483 0.04411300   1.008000   ; qtot -0.407380
 3484         c3    120    bbb     C2   3484 0.10137000  12.010000   ; qtot -0.306010
 3485         h1    120    bbb     H3   3485 0.04411300   1.008000   ; qtot -0.261897
 3486         h1    120    bbb     H4   3486 0.04411300   1.008000   ; qtot -0.217784
 3487         c3    120    bbb     C3   3487 -0.00195300  12.010000   ; qtot -0.219737
 3488         h1    120    bbb     H5   3488 0.05064400   1.008000   ; qtot -0.169093
 3489         h1    120    bbb     H6   3489 0.05064400   1.008000   ; qtot -0.118449
 3490         c3    120    bbb     C4   3490 -0.01612100  12.010000   ; qtot -0.134570
 3491         hc    120    bbb     H7   3491 0.04936100   1.008000   ; qtot -0.085209
 3492         hc    120    bbb     H8   3492 0.04936100   1.008000   ; qtot -0.035848
 3493         c3    120    bbb     C5   3493 0.11363000  12.010000   ; qtot 0.077782
 3494         hc    120    bbb     H9   3494 0.06265900   1.008000   ; qtot 0.140441
 3495         hc    120    bbb    H10   3495 0.06265900   1.008000   ; qtot 0.203100
 3496         c3    120    bbb     C6   3496 0.11363000  12.010000   ; qtot 0.316730
 3497         hc    120    bbb    H11   3497 0.06265900   1.008000   ; qtot 0.379389
 3498         hc    120    bbb    H12   3498 0.06265900   1.008000   ; qtot 0.442048
 3499         c3    120    bbb     C7   3499 0.05858200  12.010000   ; qtot 0.500630
 3500         h1    120    bbb    H13   3500 0.06123400   1.008000   ; qtot 0.561864
 3501         h1    120    bbb    H14   3501 0.06123400   1.008000   ; qtot 0.623098
 3502         c3    120    bbb     C8   3502 -0.72423400  12.010000   ; qtot -0.101136
 3503         h1    120    bbb    H15   3503 0.25637600   1.008000   ; qtot 0.155240
 3504         h1    120    bbb    H16   3504 0.25637600   1.008000   ; qtot 0.411616
 3505         c3    120    bbb     C9   3505 -0.72423400  12.010000   ; qtot -0.312618
 3506         h1    120    bbb    H17   3506 0.25637600   1.008000   ; qtot -0.056242
 3507         h1    120    bbb    H18   3507 0.25637600   1.008000   ; qtot 0.200134
 3508         os    120    bbb     O1   3508 -0.20025300  16.000000   ; qtot -0.000119
; residue  121 bbb rtp bbb q -0.0
 3509         n3    121    bbb     N1   3509 -0.59685800  14.010000   ; qtot -0.596977
 3510         c3    121    bbb     C1   3510 0.10137000  12.010000   ; qtot -0.495607
 3511         h1    121    bbb     H1   3511 0.04411300   1.008000   ; qtot -0.451494
 3512         h1    121    bbb     H2   3512 0.04411300   1.008000   ; qtot -0.407381
 3513         c3    121    bbb     C2   3513 0.10137000  12.010000   ; qtot -0.306011
 3514         h1    121    bbb     H3   3514 0.04411300   1.008000   ; qtot -0.261898
 3515         h1    121    bbb     H4   3515 0.04411300   1.008000   ; qtot -0.217785
 3516         c3    121    bbb     C3   3516 -0.00195300  12.010000   ; qtot -0.219738
 3517         h1    121    bbb     H5   3517 0.05064400   1.008000   ; qtot -0.169094
 3518         h1    121    bbb     H6   3518 0.05064400   1.008000   ; qtot -0.118450
 3519         c3    121    bbb     C4   3519 -0.01612100  12.010000   ; qtot -0.134571
 3520         hc    121    bbb     H7   3520 0.04936100   1.008000   ; qtot -0.085210
 3521         hc    121    bbb     H8   3521 0.04936100   1.008000   ; qtot -0.035849
 3522         c3    121    bbb     C5   3522 0.11363000  12.010000   ; qtot 0.077781
 3523         hc    121    bbb     H9   3523 0.06265900   1.008000   ; qtot 0.140440
 3524         hc    121    bbb    H10   3524 0.06265900   1.008000   ; qtot 0.203099
 3525         c3    121    bbb     C6   3525 0.11363000  12.010000   ; qtot 0.316729
 3526         hc    121    bbb    H11   3526 0.06265900   1.008000   ; qtot 0.379388
 3527         hc    121    bbb    H12   3527 0.06265900   1.008000   ; qtot 0.442047
 3528         c3    121    bbb     C7   3528 0.05858200  12.010000   ; qtot 0.500629
 3529         h1    121    bbb    H13   3529 0.06123400   1.008000   ; qtot 0.561863
 3530         h1    121    bbb    H14   3530 0.06123400   1.008000   ; qtot 0.623097
 3531         c3    121    bbb     C8   3531 -0.72423400  12.010000   ; qtot -0.101137
 3532         h1    121    bbb    H15   3532 0.25637600   1.008000   ; qtot 0.155239
 3533         h1    121    bbb    H16   3533 0.25637600   1.008000   ; qtot 0.411615
 3534         c3    121    bbb     C9   3534 -0.72423400  12.010000   ; qtot -0.312619
 3535         h1    121    bbb    H17   3535 0.25637600   1.008000   ; qtot -0.056243
 3536         h1    121    bbb    H18   3536 0.25637600   1.008000   ; qtot 0.200133
 3537         os    121    bbb     O1   3537 -0.20025300  16.000000   ; qtot -0.000120
; residue  122 bbb rtp bbb q -0.0
 3538         n3    122    bbb     N1   3538 -0.59685800  14.010000   ; qtot -0.596978
 3539         c3    122    bbb     C1   3539 0.10137000  12.010000   ; qtot -0.495608
 3540         h1    122    bbb     H1   3540 0.04411300   1.008000   ; qtot -0.451495
 3541         h1    122    bbb     H2   3541 0.04411300   1.008000   ; qtot -0.407382
 3542         c3    122    bbb     C2   3542 0.10137000  12.010000   ; qtot -0.306012
 3543         h1    122    bbb     H3   3543 0.04411300   1.008000   ; qtot -0.261899
 3544         h1    122    bbb     H4   3544 0.04411300   1.008000   ; qtot -0.217786
 3545         c3    122    bbb     C3   3545 -0.00195300  12.010000   ; qtot -0.219739
 3546         h1    122    bbb     H5   3546 0.05064400   1.008000   ; qtot -0.169095
 3547         h1    122    bbb     H6   3547 0.05064400   1.008000   ; qtot -0.118451
 3548         c3    122    bbb     C4   3548 -0.01612100  12.010000   ; qtot -0.134572
 3549         hc    122    bbb     H7   3549 0.04936100   1.008000   ; qtot -0.085211
 3550         hc    122    bbb     H8   3550 0.04936100   1.008000   ; qtot -0.035850
 3551         c3    122    bbb     C5   3551 0.11363000  12.010000   ; qtot 0.077780
 3552         hc    122    bbb     H9   3552 0.06265900   1.008000   ; qtot 0.140439
 3553         hc    122    bbb    H10   3553 0.06265900   1.008000   ; qtot 0.203098
 3554         c3    122    bbb     C6   3554 0.11363000  12.010000   ; qtot 0.316728
 3555         hc    122    bbb    H11   3555 0.06265900   1.008000   ; qtot 0.379387
 3556         hc    122    bbb    H12   3556 0.06265900   1.008000   ; qtot 0.442046
 3557         c3    122    bbb     C7   3557 0.05858200  12.010000   ; qtot 0.500628
 3558         h1    122    bbb    H13   3558 0.06123400   1.008000   ; qtot 0.561862
 3559         h1    122    bbb    H14   3559 0.06123400   1.008000   ; qtot 0.623096
 3560         c3    122    bbb     C8   3560 -0.72423400  12.010000   ; qtot -0.101138
 3561         h1    122    bbb    H15   3561 0.25637600   1.008000   ; qtot 0.155238
 3562         h1    122    bbb    H16   3562 0.25637600   1.008000   ; qtot 0.411614
 3563         c3    122    bbb     C9   3563 -0.72423400  12.010000   ; qtot -0.312620
 3564         h1    122    bbb    H17   3564 0.25637600   1.008000   ; qtot -0.056244
 3565         h1    122    bbb    H18   3565 0.25637600   1.008000   ; qtot 0.200132
 3566         os    122    bbb     O1   3566 -0.20025300  16.000000   ; qtot -0.000121
; residue  123 bbb rtp bbb q -0.0
 3567         n3    123    bbb     N1   3567 -0.59685800  14.010000   ; qtot -0.596979
 3568         c3    123    bbb     C1   3568 0.10137000  12.010000   ; qtot -0.495609
 3569         h1    123    bbb     H1   3569 0.04411300   1.008000   ; qtot -0.451496
 3570         h1    123    bbb     H2   3570 0.04411300   1.008000   ; qtot -0.407383
 3571         c3    123    bbb     C2   3571 0.10137000  12.010000   ; qtot -0.306013
 3572         h1    123    bbb     H3   3572 0.04411300   1.008000   ; qtot -0.261900
 3573         h1    123    bbb     H4   3573 0.04411300   1.008000   ; qtot -0.217787
 3574         c3    123    bbb     C3   3574 -0.00195300  12.010000   ; qtot -0.219740
 3575         h1    123    bbb     H5   3575 0.05064400   1.008000   ; qtot -0.169096
 3576         h1    123    bbb     H6   3576 0.05064400   1.008000   ; qtot -0.118452
 3577         c3    123    bbb     C4   3577 -0.01612100  12.010000   ; qtot -0.134573
 3578         hc    123    bbb     H7   3578 0.04936100   1.008000   ; qtot -0.085212
 3579         hc    123    bbb     H8   3579 0.04936100   1.008000   ; qtot -0.035851
 3580         c3    123    bbb     C5   3580 0.11363000  12.010000   ; qtot 0.077779
 3581         hc    123    bbb     H9   3581 0.06265900   1.008000   ; qtot 0.140438
 3582         hc    123    bbb    H10   3582 0.06265900   1.008000   ; qtot 0.203097
 3583         c3    123    bbb     C6   3583 0.11363000  12.010000   ; qtot 0.316727
 3584         hc    123    bbb    H11   3584 0.06265900   1.008000   ; qtot 0.379386
 3585         hc    123    bbb    H12   3585 0.06265900   1.008000   ; qtot 0.442045
 3586         c3    123    bbb     C7   3586 0.05858200  12.010000   ; qtot 0.500627
 3587         h1    123    bbb    H13   3587 0.06123400   1.008000   ; qtot 0.561861
 3588         h1    123    bbb    H14   3588 0.06123400   1.008000   ; qtot 0.623095
 3589         c3    123    bbb     C8   3589 -0.72423400  12.010000   ; qtot -0.101139
 3590         h1    123    bbb    H15   3590 0.25637600   1.008000   ; qtot 0.155237
 3591         h1    123    bbb    H16   3591 0.25637600   1.008000   ; qtot 0.411613
 3592         c3    123    bbb     C9   3592 -0.72423400  12.010000   ; qtot -0.312621
 3593         h1    123    bbb    H17   3593 0.25637600   1.008000   ; qtot -0.056245
 3594         h1    123    bbb    H18   3594 0.25637600   1.008000   ; qtot 0.200131
 3595         os    123    bbb     O1   3595 -0.20025300  16.000000   ; qtot -0.000122
; residue  124 bbb rtp bbb q -0.0
 3596         n3    124    bbb     N1   3596 -0.59685800  14.010000   ; qtot -0.596980
 3597         c3    124    bbb     C1   3597 0.10137000  12.010000   ; qtot -0.495610
 3598         h1    124    bbb     H1   3598 0.04411300   1.008000   ; qtot -0.451497
 3599         h1    124    bbb     H2   3599 0.04411300   1.008000   ; qtot -0.407384
 3600         c3    124    bbb     C2   3600 0.10137000  12.010000   ; qtot -0.306014
 3601         h1    124    bbb     H3   3601 0.04411300   1.008000   ; qtot -0.261901
 3602         h1    124    bbb     H4   3602 0.04411300   1.008000   ; qtot -0.217788
 3603         c3    124    bbb     C3   3603 -0.00195300  12.010000   ; qtot -0.219741
 3604         h1    124    bbb     H5   3604 0.05064400   1.008000   ; qtot -0.169097
 3605         h1    124    bbb     H6   3605 0.05064400   1.008000   ; qtot -0.118453
 3606         c3    124    bbb     C4   3606 -0.01612100  12.010000   ; qtot -0.134574
 3607         hc    124    bbb     H7   3607 0.04936100   1.008000   ; qtot -0.085213
 3608         hc    124    bbb     H8   3608 0.04936100   1.008000   ; qtot -0.035852
 3609         c3    124    bbb     C5   3609 0.11363000  12.010000   ; qtot 0.077778
 3610         hc    124    bbb     H9   3610 0.06265900   1.008000   ; qtot 0.140437
 3611         hc    124    bbb    H10   3611 0.06265900   1.008000   ; qtot 0.203096
 3612         c3    124    bbb     C6   3612 0.11363000  12.010000   ; qtot 0.316726
 3613         hc    124    bbb    H11   3613 0.06265900   1.008000   ; qtot 0.379385
 3614         hc    124    bbb    H12   3614 0.06265900   1.008000   ; qtot 0.442044
 3615         c3    124    bbb     C7   3615 0.05858200  12.010000   ; qtot 0.500626
 3616         h1    124    bbb    H13   3616 0.06123400   1.008000   ; qtot 0.561860
 3617         h1    124    bbb    H14   3617 0.06123400   1.008000   ; qtot 0.623094
 3618         c3    124    bbb     C8   3618 -0.72423400  12.010000   ; qtot -0.101139
 3619         h1    124    bbb    H15   3619 0.25637600   1.008000   ; qtot 0.155237
 3620         h1    124    bbb    H16   3620 0.25637600   1.008000   ; qtot 0.411613
 3621         c3    124    bbb     C9   3621 -0.72423400  12.010000   ; qtot -0.312621
 3622         h1    124    bbb    H17   3622 0.25637600   1.008000   ; qtot -0.056245
 3623         h1    124    bbb    H18   3623 0.25637600   1.008000   ; qtot 0.200131
 3624         os    124    bbb     O1   3624 -0.20025300  16.000000   ; qtot -0.000122
; residue  125 bbb rtp bbb q -0.0
 3625         n3    125    bbb     N1   3625 -0.59685800  14.010000   ; qtot -0.596980
 3626         c3    125    bbb     C1   3626 0.10137000  12.010000   ; qtot -0.495610
 3627         h1    125    bbb     H1   3627 0.04411300   1.008000   ; qtot -0.451497
 3628         h1    125    bbb     H2   3628 0.04411300   1.008000   ; qtot -0.407384
 3629         c3    125    bbb     C2   3629 0.10137000  12.010000   ; qtot -0.306014
 3630         h1    125    bbb     H3   3630 0.04411300   1.008000   ; qtot -0.261901
 3631         h1    125    bbb     H4   3631 0.04411300   1.008000   ; qtot -0.217788
 3632         c3    125    bbb     C3   3632 -0.00195300  12.010000   ; qtot -0.219741
 3633         h1    125    bbb     H5   3633 0.05064400   1.008000   ; qtot -0.169097
 3634         h1    125    bbb     H6   3634 0.05064400   1.008000   ; qtot -0.118453
 3635         c3    125    bbb     C4   3635 -0.01612100  12.010000   ; qtot -0.134574
 3636         hc    125    bbb     H7   3636 0.04936100   1.008000   ; qtot -0.085213
 3637         hc    125    bbb     H8   3637 0.04936100   1.008000   ; qtot -0.035852
 3638         c3    125    bbb     C5   3638 0.11363000  12.010000   ; qtot 0.077778
 3639         hc    125    bbb     H9   3639 0.06265900   1.008000   ; qtot 0.140437
 3640         hc    125    bbb    H10   3640 0.06265900   1.008000   ; qtot 0.203096
 3641         c3    125    bbb     C6   3641 0.11363000  12.010000   ; qtot 0.316726
 3642         hc    125    bbb    H11   3642 0.06265900   1.008000   ; qtot 0.379385
 3643         hc    125    bbb    H12   3643 0.06265900   1.008000   ; qtot 0.442044
 3644         c3    125    bbb     C7   3644 0.05858200  12.010000   ; qtot 0.500626
 3645         h1    125    bbb    H13   3645 0.06123400   1.008000   ; qtot 0.561860
 3646         h1    125    bbb    H14   3646 0.06123400   1.008000   ; qtot 0.623094
 3647         c3    125    bbb     C8   3647 -0.72423400  12.010000   ; qtot -0.101140
 3648         h1    125    bbb    H15   3648 0.25637600   1.008000   ; qtot 0.155236
 3649         h1    125    bbb    H16   3649 0.25637600   1.008000   ; qtot 0.411612
 3650         c3    125    bbb     C9   3650 -0.72423400  12.010000   ; qtot -0.312622
 3651         h1    125    bbb    H17   3651 0.25637600   1.008000   ; qtot -0.056246
 3652         h1    125    bbb    H18   3652 0.25637600   1.008000   ; qtot 0.200130
 3653         os    125    bbb     O1   3653 -0.20025300  16.000000   ; qtot -0.000123
; residue  126 ccc rtp ccc q -2.0
 3654         c3    126    ccc     C3   3654 -0.04070000  12.010000   ; qtot -0.040823
 3655         h1    126    ccc     H5   3655 0.04610000   1.008000   ; qtot 0.005277
 3656         h1    126    ccc     H6   3656 0.04610000   1.008000   ; qtot 0.051377
 3657         c3    126    ccc     C2   3657 -0.02540000  12.010000   ; qtot 0.025977
 3658         hc    126    ccc     H3   3658 0.00850000   1.008000   ; qtot 0.034477
 3659         hc    126    ccc     H4   3659 0.00850000   1.008000   ; qtot 0.042977
 3660         c3    126    ccc     C1   3660 0.60210000  12.010000   ; qtot 0.645077
 3661         h1    126    ccc     H1   3661 -0.09250000   1.008000   ; qtot 0.552577
 3662         h1    126    ccc     H2   3662 -0.09250000   1.008000   ; qtot 0.460077
 3663         n3    126    ccc     N1   3663 -0.59700000  14.010000   ; qtot -0.136923
 3664         c3    126    ccc     C4   3664 0.32800000  12.010000   ; qtot 0.191077
 3665         h1    126    ccc     H7   3665 -0.07120000   1.008000   ; qtot 0.119877
 3666         h1    126    ccc     H8   3666 -0.07120000   1.008000   ; qtot 0.048677
 3667         c3    126    ccc     C5   3667 -0.39330000  12.010000   ; qtot -0.344623
 3668         hc    126    ccc     H9   3668 0.08130000   1.008000   ; qtot -0.263323
 3669         hc    126    ccc    H10   3669 0.08130000   1.008000   ; qtot -0.182023
 3670          c    126    ccc     C6   3670 1.08970000  12.010000   ; qtot 0.907677
 3671          o    126    ccc     O2   3671 -0.96050000  16.000000   ; qtot -0.052824
 3672          o    126    ccc     O3   3672 -0.96050000  16.000000   ; qtot -1.013324
 3673         c3    126    ccc     C7   3673 0.32800000  12.010000   ; qtot -0.685324
 3674         h1    126    ccc    H11   3674 -0.07120000   1.008000   ; qtot -0.756524
 3675         h1    126    ccc    H12   3675 -0.07120000   1.008000   ; qtot -0.827724
 3676         c3    126    ccc     C8   3676 -0.39330000  12.010000   ; qtot -1.221024
 3677         hc    126    ccc    H13   3677 0.08130000   1.008000   ; qtot -1.139724
 3678         hc    126    ccc    H14   3678 0.08130000   1.008000   ; qtot -1.058424
 3679          c    126    ccc     C9   3679 1.08970000  12.010000   ; qtot 0.031276
 3680          o    126    ccc     O4   3680 -0.96050000  16.000000   ; qtot -0.929224
 3681          o    126    ccc     O5   3681 -0.96050000  16.000000   ; qtot -1.889724
 3682         os    126    ccc     O1   3682 -0.11060000  16.000000   ; qtot -2.000324
; residue  127 ccc rtp ccc q -2.0
 3683         c3    127    ccc     C3   3683 -0.04070000  12.010000   ; qtot -2.041024
 3684         h1    127    ccc     H5   3684 0.04610000   1.008000   ; qtot -1.994924
 3685         h1    127    ccc     H6   3685 0.04610000   1.008000   ; qtot -1.948824
 3686         c3    127    ccc     C2   3686 -0.02540000  12.010000   ; qtot -1.974224
 3687         hc    127    ccc     H3   3687 0.00850000   1.008000   ; qtot -1.965724
 3688         hc    127    ccc     H4   3688 0.00850000   1.008000   ; qtot -1.957224
 3689         c3    127    ccc     C1   3689 0.60210000  12.010000   ; qtot -1.355124
 3690         h1    127    ccc     H1   3690 -0.09250000   1.008000   ; qtot -1.447624
 3691         h1    127    ccc     H2   3691 -0.09250000   1.008000   ; qtot -1.540124
 3692         n3    127    ccc     N1   3692 -0.59700000  14.010000   ; qtot -2.137124
 3693         c3    127    ccc     C4   3693 0.32800000  12.010000   ; qtot -1.809124
 3694         h1    127    ccc     H7   3694 -0.07120000   1.008000   ; qtot -1.880324
 3695         h1    127    ccc     H8   3695 -0.07120000   1.008000   ; qtot -1.951524
 3696         c3    127    ccc     C5   3696 -0.39330000  12.010000   ; qtot -2.344824
 3697         hc    127    ccc     H9   3697 0.08130000   1.008000   ; qtot -2.263524
 3698         hc    127    ccc    H10   3698 0.08130000   1.008000   ; qtot -2.182224
 3699          c    127    ccc     C6   3699 1.08970000  12.010000   ; qtot -1.092524
 3700          o    127    ccc     O2   3700 -0.96050000  16.000000   ; qtot -2.053024
 3701          o    127    ccc     O3   3701 -0.96050000  16.000000   ; qtot -3.013524
 3702         c3    127    ccc     C7   3702 0.32800000  12.010000   ; qtot -2.685524
 3703         h1    127    ccc    H11   3703 -0.07120000   1.008000   ; qtot -2.756724
 3704         h1    127    ccc    H12   3704 -0.07120000   1.008000   ; qtot -2.827924
 3705         c3    127    ccc     C8   3705 -0.39330000  12.010000   ; qtot -3.221224
 3706         hc    127    ccc    H13   3706 0.08130000   1.008000   ; qtot -3.139924
 3707         hc    127    ccc    H14   3707 0.08130000   1.008000   ; qtot -3.058624
 3708          c    127    ccc     C9   3708 1.08970000  12.010000   ; qtot -1.968924
 3709          o    127    ccc     O4   3709 -0.96050000  16.000000   ; qtot -2.929424
 3710          o    127    ccc     O5   3710 -0.96050000  16.000000   ; qtot -3.889924
 3711         os    127    ccc     O1   3711 -0.11060000  16.000000   ; qtot -4.000524
; residue  128 ccc rtp ccc q -2.0
 3712         c3    128    ccc     C3   3712 -0.04070000  12.010000   ; qtot -4.041224
 3713         h1    128    ccc     H5   3713 0.04610000   1.008000   ; qtot -3.995124
 3714         h1    128    ccc     H6   3714 0.04610000   1.008000   ; qtot -3.949024
 3715         c3    128    ccc     C2   3715 -0.02540000  12.010000   ; qtot -3.974424
 3716         hc    128    ccc     H3   3716 0.00850000   1.008000   ; qtot -3.965924
 3717         hc    128    ccc     H4   3717 0.00850000   1.008000   ; qtot -3.957424
 3718         c3    128    ccc     C1   3718 0.60210000  12.010000   ; qtot -3.355324
 3719         h1    128    ccc     H1   3719 -0.09250000   1.008000   ; qtot -3.447824
 3720         h1    128    ccc     H2   3720 -0.09250000   1.008000   ; qtot -3.540324
 3721         n3    128    ccc     N1   3721 -0.59700000  14.010000   ; qtot -4.137324
 3722         c3    128    ccc     C4   3722 0.32800000  12.010000   ; qtot -3.809324
 3723         h1    128    ccc     H7   3723 -0.07120000   1.008000   ; qtot -3.880524
 3724         h1    128    ccc     H8   3724 -0.07120000   1.008000   ; qtot -3.951724
 3725         c3    128    ccc     C5   3725 -0.39330000  12.010000   ; qtot -4.345024
 3726         hc    128    ccc     H9   3726 0.08130000   1.008000   ; qtot -4.263724
 3727         hc    128    ccc    H10   3727 0.08130000   1.008000   ; qtot -4.182424
 3728          c    128    ccc     C6   3728 1.08970000  12.010000   ; qtot -3.092724
 3729          o    128    ccc     O2   3729 -0.96050000  16.000000   ; qtot -4.053224
 3730          o    128    ccc     O3   3730 -0.96050000  16.000000   ; qtot -5.013724
 3731         c3    128    ccc     C7   3731 0.32800000  12.010000   ; qtot -4.685724
 3732         h1    128    ccc    H11   3732 -0.07120000   1.008000   ; qtot -4.756924
 3733         h1    128    ccc    H12   3733 -0.07120000   1.008000   ; qtot -4.828124
 3734         c3    128    ccc     C8   3734 -0.39330000  12.010000   ; qtot -5.221424
 3735         hc    128    ccc    H13   3735 0.08130000   1.008000   ; qtot -5.140124
 3736         hc    128    ccc    H14   3736 0.08130000   1.008000   ; qtot -5.058824
 3737          c    128    ccc     C9   3737 1.08970000  12.010000   ; qtot -3.969124
 3738          o    128    ccc     O4   3738 -0.96050000  16.000000   ; qtot -4.929624
 3739          o    128    ccc     O5   3739 -0.96050000  16.000000   ; qtot -5.890124
 3740         os    128    ccc     O1   3740 -0.11060000  16.000000   ; qtot -6.000724
; residue  129 ccc rtp ccc q -2.0
 3741         c3    129    ccc     C3   3741 -0.04070000  12.010000   ; qtot -6.041424
 3742         h1    129    ccc     H5   3742 0.04610000   1.008000   ; qtot -5.995324
 3743         h1    129    ccc     H6   3743 0.04610000   1.008000   ; qtot -5.949224
 3744         c3    129    ccc     C2   3744 -0.02540000  12.010000   ; qtot -5.974624
 3745         hc    129    ccc     H3   3745 0.00850000   1.008000   ; qtot -5.966124
 3746         hc    129    ccc     H4   3746 0.00850000   1.008000   ; qtot -5.957624
 3747         c3    129    ccc     C1   3747 0.60210000  12.010000   ; qtot -5.355524
 3748         h1    129    ccc     H1   3748 -0.09250000   1.008000   ; qtot -5.448024
 3749         h1    129    ccc     H2   3749 -0.09250000   1.008000   ; qtot -5.540524
 3750         n3    129    ccc     N1   3750 -0.59700000  14.010000   ; qtot -6.137524
 3751         c3    129    ccc     C4   3751 0.32800000  12.010000   ; qtot -5.809524
 3752         h1    129    ccc     H7   3752 -0.07120000   1.008000   ; qtot -5.880724
 3753         h1    129    ccc     H8   3753 -0.07120000   1.008000   ; qtot -5.951924
 3754         c3    129    ccc     C5   3754 -0.39330000  12.010000   ; qtot -6.345224
 3755         hc    129    ccc     H9   3755 0.08130000   1.008000   ; qtot -6.263924
 3756         hc    129    ccc    H10   3756 0.08130000   1.008000   ; qtot -6.182624
 3757          c    129    ccc     C6   3757 1.08970000  12.010000   ; qtot -5.092924
 3758          o    129    ccc     O2   3758 -0.96050000  16.000000   ; qtot -6.053424
 3759          o    129    ccc     O3   3759 -0.96050000  16.000000   ; qtot -7.013924
 3760         c3    129    ccc     C7   3760 0.32800000  12.010000   ; qtot -6.685924
 3761         h1    129    ccc    H11   3761 -0.07120000   1.008000   ; qtot -6.757124
 3762         h1    129    ccc    H12   3762 -0.07120000   1.008000   ; qtot -6.828324
 3763         c3    129    ccc     C8   3763 -0.39330000  12.010000   ; qtot -7.221624
 3764         hc    129    ccc    H13   3764 0.08130000   1.008000   ; qtot -7.140324
 3765         hc    129    ccc    H14   3765 0.08130000   1.008000   ; qtot -7.059024
 3766          c    129    ccc     C9   3766 1.08970000  12.010000   ; qtot -5.969324
 3767          o    129    ccc     O4   3767 -0.96050000  16.000000   ; qtot -6.929824
 3768          o    129    ccc     O5   3768 -0.96050000  16.000000   ; qtot -7.890324
 3769         os    129    ccc     O1   3769 -0.11060000  16.000000   ; qtot -8.000924
; residue  130 ccc rtp ccc q -2.0
 3770         c3    130    ccc     C3   3770 -0.04070000  12.010000   ; qtot -8.041624
 3771         h1    130    ccc     H5   3771 0.04610000   1.008000   ; qtot -7.995524
 3772         h1    130    ccc     H6   3772 0.04610000   1.008000   ; qtot -7.949424
 3773         c3    130    ccc     C2   3773 -0.02540000  12.010000   ; qtot -7.974824
 3774         hc    130    ccc     H3   3774 0.00850000   1.008000   ; qtot -7.966324
 3775         hc    130    ccc     H4   3775 0.00850000   1.008000   ; qtot -7.957824
 3776         c3    130    ccc     C1   3776 0.60210000  12.010000   ; qtot -7.355724
 3777         h1    130    ccc     H1   3777 -0.09250000   1.008000   ; qtot -7.448224
 3778         h1    130    ccc     H2   3778 -0.09250000   1.008000   ; qtot -7.540724
 3779         n3    130    ccc     N1   3779 -0.59700000  14.010000   ; qtot -8.137724
 3780         c3    130    ccc     C4   3780 0.32800000  12.010000   ; qtot -7.809724
 3781         h1    130    ccc     H7   3781 -0.07120000   1.008000   ; qtot -7.880924
 3782         h1    130    ccc     H8   3782 -0.07120000   1.008000   ; qtot -7.952124
 3783         c3    130    ccc     C5   3783 -0.39330000  12.010000   ; qtot -8.345424
 3784         hc    130    ccc     H9   3784 0.08130000   1.008000   ; qtot -8.264124
 3785         hc    130    ccc    H10   3785 0.08130000   1.008000   ; qtot -8.182824
 3786          c    130    ccc     C6   3786 1.08970000  12.010000   ; qtot -7.093124
 3787          o    130    ccc     O2   3787 -0.96050000  16.000000   ; qtot -8.053624
 3788          o    130    ccc     O3   3788 -0.96050000  16.000000   ; qtot -9.014124
 3789         c3    130    ccc     C7   3789 0.32800000  12.010000   ; qtot -8.686124
 3790         h1    130    ccc    H11   3790 -0.07120000   1.008000   ; qtot -8.757324
 3791         h1    130    ccc    H12   3791 -0.07120000   1.008000   ; qtot -8.828524
 3792         c3    130    ccc     C8   3792 -0.39330000  12.010000   ; qtot -9.221824
 3793         hc    130    ccc    H13   3793 0.08130000   1.008000   ; qtot -9.140524
 3794         hc    130    ccc    H14   3794 0.08130000   1.008000   ; qtot -9.059224
 3795          c    130    ccc     C9   3795 1.08970000  12.010000   ; qtot -7.969524
 3796          o    130    ccc     O4   3796 -0.96050000  16.000000   ; qtot -8.930024
 3797          o    130    ccc     O5   3797 -0.96050000  16.000000   ; qtot -9.890524
 3798         os    130    ccc     O1   3798 -0.11060000  16.000000   ; qtot -10.001124
; residue  131 ccc rtp ccc q -2.0
 3799         c3    131    ccc     C3   3799 -0.04070000  12.010000   ; qtot -10.041824
 3800         h1    131    ccc     H5   3800 0.04610000   1.008000   ; qtot -9.995724
 3801         h1    131    ccc     H6   3801 0.04610000   1.008000   ; qtot -9.949624
 3802         c3    131    ccc     C2   3802 -0.02540000  12.010000   ; qtot -9.975024
 3803         hc    131    ccc     H3   3803 0.00850000   1.008000   ; qtot -9.966524
 3804         hc    131    ccc     H4   3804 0.00850000   1.008000   ; qtot -9.958024
 3805         c3    131    ccc     C1   3805 0.60210000  12.010000   ; qtot -9.355924
 3806         h1    131    ccc     H1   3806 -0.09250000   1.008000   ; qtot -9.448424
 3807         h1    131    ccc     H2   3807 -0.09250000   1.008000   ; qtot -9.540924
 3808         n3    131    ccc     N1   3808 -0.59700000  14.010000   ; qtot -10.137924
 3809         c3    131    ccc     C4   3809 0.32800000  12.010000   ; qtot -9.809924
 3810         h1    131    ccc     H7   3810 -0.07120000   1.008000   ; qtot -9.881124
 3811         h1    131    ccc     H8   3811 -0.07120000   1.008000   ; qtot -9.952324
 3812         c3    131    ccc     C5   3812 -0.39330000  12.010000   ; qtot -10.345624
 3813         hc    131    ccc     H9   3813 0.08130000   1.008000   ; qtot -10.264324
 3814         hc    131    ccc    H10   3814 0.08130000   1.008000   ; qtot -10.183024
 3815          c    131    ccc     C6   3815 1.08970000  12.010000   ; qtot -9.093324
 3816          o    131    ccc     O2   3816 -0.96050000  16.000000   ; qtot -10.053824
 3817          o    131    ccc     O3   3817 -0.96050000  16.000000   ; qtot -11.014324
 3818         c3    131    ccc     C7   3818 0.32800000  12.010000   ; qtot -10.686324
 3819         h1    131    ccc    H11   3819 -0.07120000   1.008000   ; qtot -10.757524
 3820         h1    131    ccc    H12   3820 -0.07120000   1.008000   ; qtot -10.828724
 3821         c3    131    ccc     C8   3821 -0.39330000  12.010000   ; qtot -11.222024
 3822         hc    131    ccc    H13   3822 0.08130000   1.008000   ; qtot -11.140724
 3823         hc    131    ccc    H14   3823 0.08130000   1.008000   ; qtot -11.059424
 3824          c    131    ccc     C9   3824 1.08970000  12.010000   ; qtot -9.969724
 3825          o    131    ccc     O4   3825 -0.96050000  16.000000   ; qtot -10.930224
 3826          o    131    ccc     O5   3826 -0.96050000  16.000000   ; qtot -11.890724
 3827         os    131    ccc     O1   3827 -0.11060000  16.000000   ; qtot -12.001324
; residue  132 ccc rtp ccc q -2.0
 3828         c3    132    ccc     C3   3828 -0.04070000  12.010000   ; qtot -12.042024
 3829         h1    132    ccc     H5   3829 0.04610000   1.008000   ; qtot -11.995924
 3830         h1    132    ccc     H6   3830 0.04610000   1.008000   ; qtot -11.949824
 3831         c3    132    ccc     C2   3831 -0.02540000  12.010000   ; qtot -11.975224
 3832         hc    132    ccc     H3   3832 0.00850000   1.008000   ; qtot -11.966724
 3833         hc    132    ccc     H4   3833 0.00850000   1.008000   ; qtot -11.958224
 3834         c3    132    ccc     C1   3834 0.60210000  12.010000   ; qtot -11.356124
 3835         h1    132    ccc     H1   3835 -0.09250000   1.008000   ; qtot -11.448624
 3836         h1    132    ccc     H2   3836 -0.09250000   1.008000   ; qtot -11.541124
 3837         n3    132    ccc     N1   3837 -0.59700000  14.010000   ; qtot -12.138124
 3838         c3    132    ccc     C4   3838 0.32800000  12.010000   ; qtot -11.810124
 3839         h1    132    ccc     H7   3839 -0.07120000   1.008000   ; qtot -11.881324
 3840         h1    132    ccc     H8   3840 -0.07120000   1.008000   ; qtot -11.952524
 3841         c3    132    ccc     C5   3841 -0.39330000  12.010000   ; qtot -12.345824
 3842         hc    132    ccc     H9   3842 0.08130000   1.008000   ; qtot -12.264524
 3843         hc    132    ccc    H10   3843 0.08130000   1.008000   ; qtot -12.183224
 3844          c    132    ccc     C6   3844 1.08970000  12.010000   ; qtot -11.093524
 3845          o    132    ccc     O2   3845 -0.96050000  16.000000   ; qtot -12.054024
 3846          o    132    ccc     O3   3846 -0.96050000  16.000000   ; qtot -13.014524
 3847         c3    132    ccc     C7   3847 0.32800000  12.010000   ; qtot -12.686524
 3848         h1    132    ccc    H11   3848 -0.07120000   1.008000   ; qtot -12.757724
 3849         h1    132    ccc    H12   3849 -0.07120000   1.008000   ; qtot -12.828924
 3850         c3    132    ccc     C8   3850 -0.39330000  12.010000   ; qtot -13.222224
 3851         hc    132    ccc    H13   3851 0.08130000   1.008000   ; qtot -13.140924
 3852         hc    132    ccc    H14   3852 0.08130000   1.008000   ; qtot -13.059624
 3853          c    132    ccc     C9   3853 1.08970000  12.010000   ; qtot -11.969924
 3854          o    132    ccc     O4   3854 -0.96050000  16.000000   ; qtot -12.930424
 3855          o    132    ccc     O5   3855 -0.96050000  16.000000   ; qtot -13.890924
 3856         os    132    ccc     O1   3856 -0.11060000  16.000000   ; qtot -14.001524
; residue  133 ccc rtp ccc q -2.0
 3857         c3    133    ccc     C3   3857 -0.04070000  12.010000   ; qtot -14.042224
 3858         h1    133    ccc     H5   3858 0.04610000   1.008000   ; qtot -13.996124
 3859         h1    133    ccc     H6   3859 0.04610000   1.008000   ; qtot -13.950024
 3860         c3    133    ccc     C2   3860 -0.02540000  12.010000   ; qtot -13.975424
 3861         hc    133    ccc     H3   3861 0.00850000   1.008000   ; qtot -13.966924
 3862         hc    133    ccc     H4   3862 0.00850000   1.008000   ; qtot -13.958424
 3863         c3    133    ccc     C1   3863 0.60210000  12.010000   ; qtot -13.356324
 3864         h1    133    ccc     H1   3864 -0.09250000   1.008000   ; qtot -13.448824
 3865         h1    133    ccc     H2   3865 -0.09250000   1.008000   ; qtot -13.541324
 3866         n3    133    ccc     N1   3866 -0.59700000  14.010000   ; qtot -14.138324
 3867         c3    133    ccc     C4   3867 0.32800000  12.010000   ; qtot -13.810324
 3868         h1    133    ccc     H7   3868 -0.07120000   1.008000   ; qtot -13.881524
 3869         h1    133    ccc     H8   3869 -0.07120000   1.008000   ; qtot -13.952724
 3870         c3    133    ccc     C5   3870 -0.39330000  12.010000   ; qtot -14.346024
 3871         hc    133    ccc     H9   3871 0.08130000   1.008000   ; qtot -14.264724
 3872         hc    133    ccc    H10   3872 0.08130000   1.008000   ; qtot -14.183424
 3873          c    133    ccc     C6   3873 1.08970000  12.010000   ; qtot -13.093724
 3874          o    133    ccc     O2   3874 -0.96050000  16.000000   ; qtot -14.054224
 3875          o    133    ccc     O3   3875 -0.96050000  16.000000   ; qtot -15.014724
 3876         c3    133    ccc     C7   3876 0.32800000  12.010000   ; qtot -14.686724
 3877         h1    133    ccc    H11   3877 -0.07120000   1.008000   ; qtot -14.757924
 3878         h1    133    ccc    H12   3878 -0.07120000   1.008000   ; qtot -14.829124
 3879         c3    133    ccc     C8   3879 -0.39330000  12.010000   ; qtot -15.222424
 3880         hc    133    ccc    H13   3880 0.08130000   1.008000   ; qtot -15.141124
 3881         hc    133    ccc    H14   3881 0.08130000   1.008000   ; qtot -15.059824
 3882          c    133    ccc     C9   3882 1.08970000  12.010000   ; qtot -13.970124
 3883          o    133    ccc     O4   3883 -0.96050000  16.000000   ; qtot -14.930624
 3884          o    133    ccc     O5   3884 -0.96050000  16.000000   ; qtot -15.891124
 3885         os    133    ccc     O1   3885 -0.11060000  16.000000   ; qtot -16.001724
; residue  134 ccc rtp ccc q -2.0
 3886         c3    134    ccc     C3   3886 -0.04070000  12.010000   ; qtot -16.042424
 3887         h1    134    ccc     H5   3887 0.04610000   1.008000   ; qtot -15.996324
 3888         h1    134    ccc     H6   3888 0.04610000   1.008000   ; qtot -15.950224
 3889         c3    134    ccc     C2   3889 -0.02540000  12.010000   ; qtot -15.975624
 3890         hc    134    ccc     H3   3890 0.00850000   1.008000   ; qtot -15.967124
 3891         hc    134    ccc     H4   3891 0.00850000   1.008000   ; qtot -15.958624
 3892         c3    134    ccc     C1   3892 0.60210000  12.010000   ; qtot -15.356524
 3893         h1    134    ccc     H1   3893 -0.09250000   1.008000   ; qtot -15.449024
 3894         h1    134    ccc     H2   3894 -0.09250000   1.008000   ; qtot -15.541524
 3895         n3    134    ccc     N1   3895 -0.59700000  14.010000   ; qtot -16.138524
 3896         c3    134    ccc     C4   3896 0.32800000  12.010000   ; qtot -15.810524
 3897         h1    134    ccc     H7   3897 -0.07120000   1.008000   ; qtot -15.881724
 3898         h1    134    ccc     H8   3898 -0.07120000   1.008000   ; qtot -15.952924
 3899         c3    134    ccc     C5   3899 -0.39330000  12.010000   ; qtot -16.346224
 3900         hc    134    ccc     H9   3900 0.08130000   1.008000   ; qtot -16.264924
 3901         hc    134    ccc    H10   3901 0.08130000   1.008000   ; qtot -16.183624
 3902          c    134    ccc     C6   3902 1.08970000  12.010000   ; qtot -15.093924
 3903          o    134    ccc     O2   3903 -0.96050000  16.000000   ; qtot -16.054424
 3904          o    134    ccc     O3   3904 -0.96050000  16.000000   ; qtot -17.014924
 3905         c3    134    ccc     C7   3905 0.32800000  12.010000   ; qtot -16.686924
 3906         h1    134    ccc    H11   3906 -0.07120000   1.008000   ; qtot -16.758124
 3907         h1    134    ccc    H12   3907 -0.07120000   1.008000   ; qtot -16.829324
 3908         c3    134    ccc     C8   3908 -0.39330000  12.010000   ; qtot -17.222624
 3909         hc    134    ccc    H13   3909 0.08130000   1.008000   ; qtot -17.141324
 3910         hc    134    ccc    H14   3910 0.08130000   1.008000   ; qtot -17.060024
 3911          c    134    ccc     C9   3911 1.08970000  12.010000   ; qtot -15.970324
 3912          o    134    ccc     O4   3912 -0.96050000  16.000000   ; qtot -16.930824
 3913          o    134    ccc     O5   3913 -0.96050000  16.000000   ; qtot -17.891324
 3914         os    134    ccc     O1   3914 -0.11060000  16.000000   ; qtot -18.001924
; residue  135 ccc rtp ccc q -2.0
 3915         c3    135    ccc     C3   3915 -0.04070000  12.010000   ; qtot -18.042624
 3916         h1    135    ccc     H5   3916 0.04610000   1.008000   ; qtot -17.996524
 3917         h1    135    ccc     H6   3917 0.04610000   1.008000   ; qtot -17.950424
 3918         c3    135    ccc     C2   3918 -0.02540000  12.010000   ; qtot -17.975824
 3919         hc    135    ccc     H3   3919 0.00850000   1.008000   ; qtot -17.967324
 3920         hc    135    ccc     H4   3920 0.00850000   1.008000   ; qtot -17.958824
 3921         c3    135    ccc     C1   3921 0.60210000  12.010000   ; qtot -17.356724
 3922         h1    135    ccc     H1   3922 -0.09250000   1.008000   ; qtot -17.449224
 3923         h1    135    ccc     H2   3923 -0.09250000   1.008000   ; qtot -17.541724
 3924         n3    135    ccc     N1   3924 -0.59700000  14.010000   ; qtot -18.138724
 3925         c3    135    ccc     C4   3925 0.32800000  12.010000   ; qtot -17.810724
 3926         h1    135    ccc     H7   3926 -0.07120000   1.008000   ; qtot -17.881924
 3927         h1    135    ccc     H8   3927 -0.07120000   1.008000   ; qtot -17.953124
 3928         c3    135    ccc     C5   3928 -0.39330000  12.010000   ; qtot -18.346424
 3929         hc    135    ccc     H9   3929 0.08130000   1.008000   ; qtot -18.265124
 3930         hc    135    ccc    H10   3930 0.08130000   1.008000   ; qtot -18.183824
 3931          c    135    ccc     C6   3931 1.08970000  12.010000   ; qtot -17.094124
 3932          o    135    ccc     O2   3932 -0.96050000  16.000000   ; qtot -18.054624
 3933          o    135    ccc     O3   3933 -0.96050000  16.000000   ; qtot -19.015124
 3934         c3    135    ccc     C7   3934 0.32800000  12.010000   ; qtot -18.687124
 3935         h1    135    ccc    H11   3935 -0.07120000   1.008000   ; qtot -18.758324
 3936         h1    135    ccc    H12   3936 -0.07120000   1.008000   ; qtot -18.829524
 3937         c3    135    ccc     C8   3937 -0.39330000  12.010000   ; qtot -19.222824
 3938         hc    135    ccc    H13   3938 0.08130000   1.008000   ; qtot -19.141524
 3939         hc    135    ccc    H14   3939 0.08130000   1.008000   ; qtot -19.060224
 3940          c    135    ccc     C9   3940 1.08970000  12.010000   ; qtot -17.970524
 3941          o    135    ccc     O4   3941 -0.96050000  16.000000   ; qtot -18.931024
 3942          o    135    ccc     O5   3942 -0.96050000  16.000000   ; qtot -19.891524
 3943         os    135    ccc     O1   3943 -0.11060000  16.000000   ; qtot -20.002124
; residue  136 ccc rtp ccc q -2.0
 3944         c3    136    ccc     C3   3944 -0.04070000  12.010000   ; qtot -20.042824
 3945         h1    136    ccc     H5   3945 0.04610000   1.008000   ; qtot -19.996724
 3946         h1    136    ccc     H6   3946 0.04610000   1.008000   ; qtot -19.950624
 3947         c3    136    ccc     C2   3947 -0.02540000  12.010000   ; qtot -19.976024
 3948         hc    136    ccc     H3   3948 0.00850000   1.008000   ; qtot -19.967524
 3949         hc    136    ccc     H4   3949 0.00850000   1.008000   ; qtot -19.959024
 3950         c3    136    ccc     C1   3950 0.60210000  12.010000   ; qtot -19.356924
 3951         h1    136    ccc     H1   3951 -0.09250000   1.008000   ; qtot -19.449424
 3952         h1    136    ccc     H2   3952 -0.09250000   1.008000   ; qtot -19.541924
 3953         n3    136    ccc     N1   3953 -0.59700000  14.010000   ; qtot -20.138924
 3954         c3    136    ccc     C4   3954 0.32800000  12.010000   ; qtot -19.810924
 3955         h1    136    ccc     H7   3955 -0.07120000   1.008000   ; qtot -19.882124
 3956         h1    136    ccc     H8   3956 -0.07120000   1.008000   ; qtot -19.953324
 3957         c3    136    ccc     C5   3957 -0.39330000  12.010000   ; qtot -20.346624
 3958         hc    136    ccc     H9   3958 0.08130000   1.008000   ; qtot -20.265324
 3959         hc    136    ccc    H10   3959 0.08130000   1.008000   ; qtot -20.184024
 3960          c    136    ccc     C6   3960 1.08970000  12.010000   ; qtot -19.094324
 3961          o    136    ccc     O2   3961 -0.96050000  16.000000   ; qtot -20.054824
 3962          o    136    ccc     O3   3962 -0.96050000  16.000000   ; qtot -21.015324
 3963         c3    136    ccc     C7   3963 0.32800000  12.010000   ; qtot -20.687324
 3964         h1    136    ccc    H11   3964 -0.07120000   1.008000   ; qtot -20.758524
 3965         h1    136    ccc    H12   3965 -0.07120000   1.008000   ; qtot -20.829724
 3966         c3    136    ccc     C8   3966 -0.39330000  12.010000   ; qtot -21.223024
 3967         hc    136    ccc    H13   3967 0.08130000   1.008000   ; qtot -21.141724
 3968         hc    136    ccc    H14   3968 0.08130000   1.008000   ; qtot -21.060424
 3969          c    136    ccc     C9   3969 1.08970000  12.010000   ; qtot -19.970724
 3970          o    136    ccc     O4   3970 -0.96050000  16.000000   ; qtot -20.931224
 3971          o    136    ccc     O5   3971 -0.96050000  16.000000   ; qtot -21.891724
 3972         os    136    ccc     O1   3972 -0.11060000  16.000000   ; qtot -22.002324
; residue  137 ccc rtp ccc q -2.0
 3973         c3    137    ccc     C3   3973 -0.04070000  12.010000   ; qtot -22.043024
 3974         h1    137    ccc     H5   3974 0.04610000   1.008000   ; qtot -21.996924
 3975         h1    137    ccc     H6   3975 0.04610000   1.008000   ; qtot -21.950824
 3976         c3    137    ccc     C2   3976 -0.02540000  12.010000   ; qtot -21.976224
 3977         hc    137    ccc     H3   3977 0.00850000   1.008000   ; qtot -21.967724
 3978         hc    137    ccc     H4   3978 0.00850000   1.008000   ; qtot -21.959224
 3979         c3    137    ccc     C1   3979 0.60210000  12.010000   ; qtot -21.357124
 3980         h1    137    ccc     H1   3980 -0.09250000   1.008000   ; qtot -21.449624
 3981         h1    137    ccc     H2   3981 -0.09250000   1.008000   ; qtot -21.542124
 3982         n3    137    ccc     N1   3982 -0.59700000  14.010000   ; qtot -22.139124
 3983         c3    137    ccc     C4   3983 0.32800000  12.010000   ; qtot -21.811124
 3984         h1    137    ccc     H7   3984 -0.07120000   1.008000   ; qtot -21.882324
 3985         h1    137    ccc     H8   3985 -0.07120000   1.008000   ; qtot -21.953524
 3986         c3    137    ccc     C5   3986 -0.39330000  12.010000   ; qtot -22.346824
 3987         hc    137    ccc     H9   3987 0.08130000   1.008000   ; qtot -22.265524
 3988         hc    137    ccc    H10   3988 0.08130000   1.008000   ; qtot -22.184224
 3989          c    137    ccc     C6   3989 1.08970000  12.010000   ; qtot -21.094524
 3990          o    137    ccc     O2   3990 -0.96050000  16.000000   ; qtot -22.055024
 3991          o    137    ccc     O3   3991 -0.96050000  16.000000   ; qtot -23.015524
 3992         c3    137    ccc     C7   3992 0.32800000  12.010000   ; qtot -22.687524
 3993         h1    137    ccc    H11   3993 -0.07120000   1.008000   ; qtot -22.758724
 3994         h1    137    ccc    H12   3994 -0.07120000   1.008000   ; qtot -22.829924
 3995         c3    137    ccc     C8   3995 -0.39330000  12.010000   ; qtot -23.223224
 3996         hc    137    ccc    H13   3996 0.08130000   1.008000   ; qtot -23.141924
 3997         hc    137    ccc    H14   3997 0.08130000   1.008000   ; qtot -23.060624
 3998          c    137    ccc     C9   3998 1.08970000  12.010000   ; qtot -21.970924
 3999          o    137    ccc     O4   3999 -0.96050000  16.000000   ; qtot -22.931424
 4000          o    137    ccc     O5   4000 -0.96050000  16.000000   ; qtot -23.891924
 4001         os    137    ccc     O1   4001 -0.11060000  16.000000   ; qtot -24.002524
; residue  138 ccc rtp ccc q -2.0
 4002         c3    138    ccc     C3   4002 -0.04070000  12.010000   ; qtot -24.043224
 4003         h1    138    ccc     H5   4003 0.04610000   1.008000   ; qtot -23.997124
 4004         h1    138    ccc     H6   4004 0.04610000   1.008000   ; qtot -23.951024
 4005         c3    138    ccc     C2   4005 -0.02540000  12.010000   ; qtot -23.976424
 4006         hc    138    ccc     H3   4006 0.00850000   1.008000   ; qtot -23.967924
 4007         hc    138    ccc     H4   4007 0.00850000   1.008000   ; qtot -23.959424
 4008         c3    138    ccc     C1   4008 0.60210000  12.010000   ; qtot -23.357324
 4009         h1    138    ccc     H1   4009 -0.09250000   1.008000   ; qtot -23.449824
 4010         h1    138    ccc     H2   4010 -0.09250000   1.008000   ; qtot -23.542324
 4011         n3    138    ccc     N1   4011 -0.59700000  14.010000   ; qtot -24.139324
 4012         c3    138    ccc     C4   4012 0.32800000  12.010000   ; qtot -23.811324
 4013         h1    138    ccc     H7   4013 -0.07120000   1.008000   ; qtot -23.882524
 4014         h1    138    ccc     H8   4014 -0.07120000   1.008000   ; qtot -23.953724
 4015         c3    138    ccc     C5   4015 -0.39330000  12.010000   ; qtot -24.347024
 4016         hc    138    ccc     H9   4016 0.08130000   1.008000   ; qtot -24.265724
 4017         hc    138    ccc    H10   4017 0.08130000   1.008000   ; qtot -24.184424
 4018          c    138    ccc     C6   4018 1.08970000  12.010000   ; qtot -23.094724
 4019          o    138    ccc     O2   4019 -0.96050000  16.000000   ; qtot -24.055224
 4020          o    138    ccc     O3   4020 -0.96050000  16.000000   ; qtot -25.015724
 4021         c3    138    ccc     C7   4021 0.32800000  12.010000   ; qtot -24.687724
 4022         h1    138    ccc    H11   4022 -0.07120000   1.008000   ; qtot -24.758924
 4023         h1    138    ccc    H12   4023 -0.07120000   1.008000   ; qtot -24.830124
 4024         c3    138    ccc     C8   4024 -0.39330000  12.010000   ; qtot -25.223424
 4025         hc    138    ccc    H13   4025 0.08130000   1.008000   ; qtot -25.142124
 4026         hc    138    ccc    H14   4026 0.08130000   1.008000   ; qtot -25.060824
 4027          c    138    ccc     C9   4027 1.08970000  12.010000   ; qtot -23.971124
 4028          o    138    ccc     O4   4028 -0.96050000  16.000000   ; qtot -24.931624
 4029          o    138    ccc     O5   4029 -0.96050000  16.000000   ; qtot -25.892124
 4030         os    138    ccc     O1   4030 -0.11060000  16.000000   ; qtot -26.002724
; residue  139 ccc rtp ccc q -2.0
 4031         c3    139    ccc     C3   4031 -0.04070000  12.010000   ; qtot -26.043424
 4032         h1    139    ccc     H5   4032 0.04610000   1.008000   ; qtot -25.997324
 4033         h1    139    ccc     H6   4033 0.04610000   1.008000   ; qtot -25.951224
 4034         c3    139    ccc     C2   4034 -0.02540000  12.010000   ; qtot -25.976624
 4035         hc    139    ccc     H3   4035 0.00850000   1.008000   ; qtot -25.968124
 4036         hc    139    ccc     H4   4036 0.00850000   1.008000   ; qtot -25.959624
 4037         c3    139    ccc     C1   4037 0.60210000  12.010000   ; qtot -25.357524
 4038         h1    139    ccc     H1   4038 -0.09250000   1.008000   ; qtot -25.450024
 4039         h1    139    ccc     H2   4039 -0.09250000   1.008000   ; qtot -25.542524
 4040         n3    139    ccc     N1   4040 -0.59700000  14.010000   ; qtot -26.139524
 4041         c3    139    ccc     C4   4041 0.32800000  12.010000   ; qtot -25.811524
 4042         h1    139    ccc     H7   4042 -0.07120000   1.008000   ; qtot -25.882724
 4043         h1    139    ccc     H8   4043 -0.07120000   1.008000   ; qtot -25.953924
 4044         c3    139    ccc     C5   4044 -0.39330000  12.010000   ; qtot -26.347224
 4045         hc    139    ccc     H9   4045 0.08130000   1.008000   ; qtot -26.265924
 4046         hc    139    ccc    H10   4046 0.08130000   1.008000   ; qtot -26.184624
 4047          c    139    ccc     C6   4047 1.08970000  12.010000   ; qtot -25.094924
 4048          o    139    ccc     O2   4048 -0.96050000  16.000000   ; qtot -26.055424
 4049          o    139    ccc     O3   4049 -0.96050000  16.000000   ; qtot -27.015924
 4050         c3    139    ccc     C7   4050 0.32800000  12.010000   ; qtot -26.687924
 4051         h1    139    ccc    H11   4051 -0.07120000   1.008000   ; qtot -26.759124
 4052         h1    139    ccc    H12   4052 -0.07120000   1.008000   ; qtot -26.830324
 4053         c3    139    ccc     C8   4053 -0.39330000  12.010000   ; qtot -27.223624
 4054         hc    139    ccc    H13   4054 0.08130000   1.008000   ; qtot -27.142324
 4055         hc    139    ccc    H14   4055 0.08130000   1.008000   ; qtot -27.061024
 4056          c    139    ccc     C9   4056 1.08970000  12.010000   ; qtot -25.971324
 4057          o    139    ccc     O4   4057 -0.96050000  16.000000   ; qtot -26.931824
 4058          o    139    ccc     O5   4058 -0.96050000  16.000000   ; qtot -27.892324
 4059         os    139    ccc     O1   4059 -0.11060000  16.000000   ; qtot -28.002924
; residue  140 ccc rtp ccc q -2.0
 4060         c3    140    ccc     C3   4060 -0.04070000  12.010000   ; qtot -28.043624
 4061         h1    140    ccc     H5   4061 0.04610000   1.008000   ; qtot -27.997524
 4062         h1    140    ccc     H6   4062 0.04610000   1.008000   ; qtot -27.951424
 4063         c3    140    ccc     C2   4063 -0.02540000  12.010000   ; qtot -27.976824
 4064         hc    140    ccc     H3   4064 0.00850000   1.008000   ; qtot -27.968324
 4065         hc    140    ccc     H4   4065 0.00850000   1.008000   ; qtot -27.959824
 4066         c3    140    ccc     C1   4066 0.60210000  12.010000   ; qtot -27.357724
 4067         h1    140    ccc     H1   4067 -0.09250000   1.008000   ; qtot -27.450224
 4068         h1    140    ccc     H2   4068 -0.09250000   1.008000   ; qtot -27.542724
 4069         n3    140    ccc     N1   4069 -0.59700000  14.010000   ; qtot -28.139724
 4070         c3    140    ccc     C4   4070 0.32800000  12.010000   ; qtot -27.811724
 4071         h1    140    ccc     H7   4071 -0.07120000   1.008000   ; qtot -27.882924
 4072         h1    140    ccc     H8   4072 -0.07120000   1.008000   ; qtot -27.954124
 4073         c3    140    ccc     C5   4073 -0.39330000  12.010000   ; qtot -28.347424
 4074         hc    140    ccc     H9   4074 0.08130000   1.008000   ; qtot -28.266124
 4075         hc    140    ccc    H10   4075 0.08130000   1.008000   ; qtot -28.184824
 4076          c    140    ccc     C6   4076 1.08970000  12.010000   ; qtot -27.095124
 4077          o    140    ccc     O2   4077 -0.96050000  16.000000   ; qtot -28.055624
 4078          o    140    ccc     O3   4078 -0.96050000  16.000000   ; qtot -29.016124
 4079         c3    140    ccc     C7   4079 0.32800000  12.010000   ; qtot -28.688124
 4080         h1    140    ccc    H11   4080 -0.07120000   1.008000   ; qtot -28.759324
 4081         h1    140    ccc    H12   4081 -0.07120000   1.008000   ; qtot -28.830524
 4082         c3    140    ccc     C8   4082 -0.39330000  12.010000   ; qtot -29.223824
 4083         hc    140    ccc    H13   4083 0.08130000   1.008000   ; qtot -29.142524
 4084         hc    140    ccc    H14   4084 0.08130000   1.008000   ; qtot -29.061224
 4085          c    140    ccc     C9   4085 1.08970000  12.010000   ; qtot -27.971524
 4086          o    140    ccc     O4   4086 -0.96050000  16.000000   ; qtot -28.932024
 4087          o    140    ccc     O5   4087 -0.96050000  16.000000   ; qtot -29.892524
 4088         os    140    ccc     O1   4088 -0.11060000  16.000000   ; qtot -30.003124
; residue  141 ccc rtp ccc q -2.0
 4089         c3    141    ccc     C3   4089 -0.04070000  12.010000   ; qtot -30.043824
 4090         h1    141    ccc     H5   4090 0.04610000   1.008000   ; qtot -29.997724
 4091         h1    141    ccc     H6   4091 0.04610000   1.008000   ; qtot -29.951624
 4092         c3    141    ccc     C2   4092 -0.02540000  12.010000   ; qtot -29.977024
 4093         hc    141    ccc     H3   4093 0.00850000   1.008000   ; qtot -29.968524
 4094         hc    141    ccc     H4   4094 0.00850000   1.008000   ; qtot -29.960024
 4095         c3    141    ccc     C1   4095 0.60210000  12.010000   ; qtot -29.357924
 4096         h1    141    ccc     H1   4096 -0.09250000   1.008000   ; qtot -29.450424
 4097         h1    141    ccc     H2   4097 -0.09250000   1.008000   ; qtot -29.542924
 4098         n3    141    ccc     N1   4098 -0.59700000  14.010000   ; qtot -30.139924
 4099         c3    141    ccc     C4   4099 0.32800000  12.010000   ; qtot -29.811924
 4100         h1    141    ccc     H7   4100 -0.07120000   1.008000   ; qtot -29.883124
 4101         h1    141    ccc     H8   4101 -0.07120000   1.008000   ; qtot -29.954324
 4102         c3    141    ccc     C5   4102 -0.39330000  12.010000   ; qtot -30.347624
 4103         hc    141    ccc     H9   4103 0.08130000   1.008000   ; qtot -30.266324
 4104         hc    141    ccc    H10   4104 0.08130000   1.008000   ; qtot -30.185024
 4105          c    141    ccc     C6   4105 1.08970000  12.010000   ; qtot -29.095324
 4106          o    141    ccc     O2   4106 -0.96050000  16.000000   ; qtot -30.055824
 4107          o    141    ccc     O3   4107 -0.96050000  16.000000   ; qtot -31.016324
 4108         c3    141    ccc     C7   4108 0.32800000  12.010000   ; qtot -30.688324
 4109         h1    141    ccc    H11   4109 -0.07120000   1.008000   ; qtot -30.759524
 4110         h1    141    ccc    H12   4110 -0.07120000   1.008000   ; qtot -30.830724
 4111         c3    141    ccc     C8   4111 -0.39330000  12.010000   ; qtot -31.224024
 4112         hc    141    ccc    H13   4112 0.08130000   1.008000   ; qtot -31.142724
 4113         hc    141    ccc    H14   4113 0.08130000   1.008000   ; qtot -31.061424
 4114          c    141    ccc     C9   4114 1.08970000  12.010000   ; qtot -29.971724
 4115          o    141    ccc     O4   4115 -0.96050000  16.000000   ; qtot -30.932224
 4116          o    141    ccc     O5   4116 -0.96050000  16.000000   ; qtot -31.892724
 4117         os    141    ccc     O1   4117 -0.11060000  16.000000   ; qtot -32.003324
; residue  142 ccc rtp ccc q -2.0
 4118         c3    142    ccc     C3   4118 -0.04070000  12.010000   ; qtot -32.044024
 4119         h1    142    ccc     H5   4119 0.04610000   1.008000   ; qtot -31.997924
 4120         h1    142    ccc     H6   4120 0.04610000   1.008000   ; qtot -31.951824
 4121         c3    142    ccc     C2   4121 -0.02540000  12.010000   ; qtot -31.977224
 4122         hc    142    ccc     H3   4122 0.00850000   1.008000   ; qtot -31.968724
 4123         hc    142    ccc     H4   4123 0.00850000   1.008000   ; qtot -31.960224
 4124         c3    142    ccc     C1   4124 0.60210000  12.010000   ; qtot -31.358124
 4125         h1    142    ccc     H1   4125 -0.09250000   1.008000   ; qtot -31.450624
 4126         h1    142    ccc     H2   4126 -0.09250000   1.008000   ; qtot -31.543124
 4127         n3    142    ccc     N1   4127 -0.59700000  14.010000   ; qtot -32.140124
 4128         c3    142    ccc     C4   4128 0.32800000  12.010000   ; qtot -31.812124
 4129         h1    142    ccc     H7   4129 -0.07120000   1.008000   ; qtot -31.883324
 4130         h1    142    ccc     H8   4130 -0.07120000   1.008000   ; qtot -31.954524
 4131         c3    142    ccc     C5   4131 -0.39330000  12.010000   ; qtot -32.347824
 4132         hc    142    ccc     H9   4132 0.08130000   1.008000   ; qtot -32.266524
 4133         hc    142    ccc    H10   4133 0.08130000   1.008000   ; qtot -32.185224
 4134          c    142    ccc     C6   4134 1.08970000  12.010000   ; qtot -31.095524
 4135          o    142    ccc     O2   4135 -0.96050000  16.000000   ; qtot -32.056024
 4136          o    142    ccc     O3   4136 -0.96050000  16.000000   ; qtot -33.016524
 4137         c3    142    ccc     C7   4137 0.32800000  12.010000   ; qtot -32.688524
 4138         h1    142    ccc    H11   4138 -0.07120000   1.008000   ; qtot -32.759724
 4139         h1    142    ccc    H12   4139 -0.07120000   1.008000   ; qtot -32.830924
 4140         c3    142    ccc     C8   4140 -0.39330000  12.010000   ; qtot -33.224224
 4141         hc    142    ccc    H13   4141 0.08130000   1.008000   ; qtot -33.142924
 4142         hc    142    ccc    H14   4142 0.08130000   1.008000   ; qtot -33.061624
 4143          c    142    ccc     C9   4143 1.08970000  12.010000   ; qtot -31.971924
 4144          o    142    ccc     O4   4144 -0.96050000  16.000000   ; qtot -32.932424
 4145          o    142    ccc     O5   4145 -0.96050000  16.000000   ; qtot -33.892924
 4146         os    142    ccc     O1   4146 -0.11060000  16.000000   ; qtot -34.003524
; residue  143 ccc rtp ccc q -2.0
 4147         c3    143    ccc     C3   4147 -0.04070000  12.010000   ; qtot -34.044224
 4148         h1    143    ccc     H5   4148 0.04610000   1.008000   ; qtot -33.998124
 4149         h1    143    ccc     H6   4149 0.04610000   1.008000   ; qtot -33.952024
 4150         c3    143    ccc     C2   4150 -0.02540000  12.010000   ; qtot -33.977424
 4151         hc    143    ccc     H3   4151 0.00850000   1.008000   ; qtot -33.968924
 4152         hc    143    ccc     H4   4152 0.00850000   1.008000   ; qtot -33.960424
 4153         c3    143    ccc     C1   4153 0.60210000  12.010000   ; qtot -33.358324
 4154         h1    143    ccc     H1   4154 -0.09250000   1.008000   ; qtot -33.450824
 4155         h1    143    ccc     H2   4155 -0.09250000   1.008000   ; qtot -33.543324
 4156         n3    143    ccc     N1   4156 -0.59700000  14.010000   ; qtot -34.140324
 4157         c3    143    ccc     C4   4157 0.32800000  12.010000   ; qtot -33.812324
 4158         h1    143    ccc     H7   4158 -0.07120000   1.008000   ; qtot -33.883524
 4159         h1    143    ccc     H8   4159 -0.07120000   1.008000   ; qtot -33.954724
 4160         c3    143    ccc     C5   4160 -0.39330000  12.010000   ; qtot -34.348024
 4161         hc    143    ccc     H9   4161 0.08130000   1.008000   ; qtot -34.266724
 4162         hc    143    ccc    H10   4162 0.08130000   1.008000   ; qtot -34.185424
 4163          c    143    ccc     C6   4163 1.08970000  12.010000   ; qtot -33.095724
 4164          o    143    ccc     O2   4164 -0.96050000  16.000000   ; qtot -34.056224
 4165          o    143    ccc     O3   4165 -0.96050000  16.000000   ; qtot -35.016724
 4166         c3    143    ccc     C7   4166 0.32800000  12.010000   ; qtot -34.688724
 4167         h1    143    ccc    H11   4167 -0.07120000   1.008000   ; qtot -34.759924
 4168         h1    143    ccc    H12   4168 -0.07120000   1.008000   ; qtot -34.831124
 4169         c3    143    ccc     C8   4169 -0.39330000  12.010000   ; qtot -35.224424
 4170         hc    143    ccc    H13   4170 0.08130000   1.008000   ; qtot -35.143124
 4171         hc    143    ccc    H14   4171 0.08130000   1.008000   ; qtot -35.061824
 4172          c    143    ccc     C9   4172 1.08970000  12.010000   ; qtot -33.972124
 4173          o    143    ccc     O4   4173 -0.96050000  16.000000   ; qtot -34.932624
 4174          o    143    ccc     O5   4174 -0.96050000  16.000000   ; qtot -35.893124
 4175         os    143    ccc     O1   4175 -0.11060000  16.000000   ; qtot -36.003724
; residue  144 ccc rtp ccc q -2.0
 4176         c3    144    ccc     C3   4176 -0.04070000  12.010000   ; qtot -36.044424
 4177         h1    144    ccc     H5   4177 0.04610000   1.008000   ; qtot -35.998324
 4178         h1    144    ccc     H6   4178 0.04610000   1.008000   ; qtot -35.952224
 4179         c3    144    ccc     C2   4179 -0.02540000  12.010000   ; qtot -35.977624
 4180         hc    144    ccc     H3   4180 0.00850000   1.008000   ; qtot -35.969124
 4181         hc    144    ccc     H4   4181 0.00850000   1.008000   ; qtot -35.960624
 4182         c3    144    ccc     C1   4182 0.60210000  12.010000   ; qtot -35.358524
 4183         h1    144    ccc     H1   4183 -0.09250000   1.008000   ; qtot -35.451024
 4184         h1    144    ccc     H2   4184 -0.09250000   1.008000   ; qtot -35.543524
 4185         n3    144    ccc     N1   4185 -0.59700000  14.010000   ; qtot -36.140524
 4186         c3    144    ccc     C4   4186 0.32800000  12.010000   ; qtot -35.812524
 4187         h1    144    ccc     H7   4187 -0.07120000   1.008000   ; qtot -35.883724
 4188         h1    144    ccc     H8   4188 -0.07120000   1.008000   ; qtot -35.954924
 4189         c3    144    ccc     C5   4189 -0.39330000  12.010000   ; qtot -36.348224
 4190         hc    144    ccc     H9   4190 0.08130000   1.008000   ; qtot -36.266924
 4191         hc    144    ccc    H10   4191 0.08130000   1.008000   ; qtot -36.185624
 4192          c    144    ccc     C6   4192 1.08970000  12.010000   ; qtot -35.095924
 4193          o    144    ccc     O2   4193 -0.96050000  16.000000   ; qtot -36.056424
 4194          o    144    ccc     O3   4194 -0.96050000  16.000000   ; qtot -37.016924
 4195         c3    144    ccc     C7   4195 0.32800000  12.010000   ; qtot -36.688924
 4196         h1    144    ccc    H11   4196 -0.07120000   1.008000   ; qtot -36.760124
 4197         h1    144    ccc    H12   4197 -0.07120000   1.008000   ; qtot -36.831324
 4198         c3    144    ccc     C8   4198 -0.39330000  12.010000   ; qtot -37.224624
 4199         hc    144    ccc    H13   4199 0.08130000   1.008000   ; qtot -37.143324
 4200         hc    144    ccc    H14   4200 0.08130000   1.008000   ; qtot -37.062024
 4201          c    144    ccc     C9   4201 1.08970000  12.010000   ; qtot -35.972324
 4202          o    144    ccc     O4   4202 -0.96050000  16.000000   ; qtot -36.932824
 4203          o    144    ccc     O5   4203 -0.96050000  16.000000   ; qtot -37.893324
 4204         os    144    ccc     O1   4204 -0.11060000  16.000000   ; qtot -38.003924
; residue  145 ccc rtp ccc q -2.0
 4205         c3    145    ccc     C3   4205 -0.04070000  12.010000   ; qtot -38.044624
 4206         h1    145    ccc     H5   4206 0.04610000   1.008000   ; qtot -37.998524
 4207         h1    145    ccc     H6   4207 0.04610000   1.008000   ; qtot -37.952424
 4208         c3    145    ccc     C2   4208 -0.02540000  12.010000   ; qtot -37.977824
 4209         hc    145    ccc     H3   4209 0.00850000   1.008000   ; qtot -37.969324
 4210         hc    145    ccc     H4   4210 0.00850000   1.008000   ; qtot -37.960824
 4211         c3    145    ccc     C1   4211 0.60210000  12.010000   ; qtot -37.358724
 4212         h1    145    ccc     H1   4212 -0.09250000   1.008000   ; qtot -37.451224
 4213         h1    145    ccc     H2   4213 -0.09250000   1.008000   ; qtot -37.543724
 4214         n3    145    ccc     N1   4214 -0.59700000  14.010000   ; qtot -38.140724
 4215         c3    145    ccc     C4   4215 0.32800000  12.010000   ; qtot -37.812724
 4216         h1    145    ccc     H7   4216 -0.07120000   1.008000   ; qtot -37.883924
 4217         h1    145    ccc     H8   4217 -0.07120000   1.008000   ; qtot -37.955124
 4218         c3    145    ccc     C5   4218 -0.39330000  12.010000   ; qtot -38.348424
 4219         hc    145    ccc     H9   4219 0.08130000   1.008000   ; qtot -38.267124
 4220         hc    145    ccc    H10   4220 0.08130000   1.008000   ; qtot -38.185824
 4221          c    145    ccc     C6   4221 1.08970000  12.010000   ; qtot -37.096124
 4222          o    145    ccc     O2   4222 -0.96050000  16.000000   ; qtot -38.056624
 4223          o    145    ccc     O3   4223 -0.96050000  16.000000   ; qtot -39.017124
 4224         c3    145    ccc     C7   4224 0.32800000  12.010000   ; qtot -38.689124
 4225         h1    145    ccc    H11   4225 -0.07120000   1.008000   ; qtot -38.760324
 4226         h1    145    ccc    H12   4226 -0.07120000   1.008000   ; qtot -38.831524
 4227         c3    145    ccc     C8   4227 -0.39330000  12.010000   ; qtot -39.224824
 4228         hc    145    ccc    H13   4228 0.08130000   1.008000   ; qtot -39.143524
 4229         hc    145    ccc    H14   4229 0.08130000   1.008000   ; qtot -39.062224
 4230          c    145    ccc     C9   4230 1.08970000  12.010000   ; qtot -37.972524
 4231          o    145    ccc     O4   4231 -0.96050000  16.000000   ; qtot -38.933024
 4232          o    145    ccc     O5   4232 -0.96050000  16.000000   ; qtot -39.893524
 4233         os    145    ccc     O1   4233 -0.11060000  16.000000   ; qtot -40.004124
; residue  146 ccc rtp ccc q -2.0
 4234         c3    146    ccc     C3   4234 -0.04070000  12.010000   ; qtot -40.044824
 4235         h1    146    ccc     H5   4235 0.04610000   1.008000   ; qtot -39.998724
 4236         h1    146    ccc     H6   4236 0.04610000   1.008000   ; qtot -39.952624
 4237         c3    146    ccc     C2   4237 -0.02540000  12.010000   ; qtot -39.978024
 4238         hc    146    ccc     H3   4238 0.00850000   1.008000   ; qtot -39.969524
 4239         hc    146    ccc     H4   4239 0.00850000   1.008000   ; qtot -39.961024
 4240         c3    146    ccc     C1   4240 0.60210000  12.010000   ; qtot -39.358924
 4241         h1    146    ccc     H1   4241 -0.09250000   1.008000   ; qtot -39.451424
 4242         h1    146    ccc     H2   4242 -0.09250000   1.008000   ; qtot -39.543924
 4243         n3    146    ccc     N1   4243 -0.59700000  14.010000   ; qtot -40.140924
 4244         c3    146    ccc     C4   4244 0.32800000  12.010000   ; qtot -39.812924
 4245         h1    146    ccc     H7   4245 -0.07120000   1.008000   ; qtot -39.884124
 4246         h1    146    ccc     H8   4246 -0.07120000   1.008000   ; qtot -39.955324
 4247         c3    146    ccc     C5   4247 -0.39330000  12.010000   ; qtot -40.348624
 4248         hc    146    ccc     H9   4248 0.08130000   1.008000   ; qtot -40.267324
 4249         hc    146    ccc    H10   4249 0.08130000   1.008000   ; qtot -40.186024
 4250          c    146    ccc     C6   4250 1.08970000  12.010000   ; qtot -39.096324
 4251          o    146    ccc     O2   4251 -0.96050000  16.000000   ; qtot -40.056824
 4252          o    146    ccc     O3   4252 -0.96050000  16.000000   ; qtot -41.017324
 4253         c3    146    ccc     C7   4253 0.32800000  12.010000   ; qtot -40.689324
 4254         h1    146    ccc    H11   4254 -0.07120000   1.008000   ; qtot -40.760524
 4255         h1    146    ccc    H12   4255 -0.07120000   1.008000   ; qtot -40.831724
 4256         c3    146    ccc     C8   4256 -0.39330000  12.010000   ; qtot -41.225024
 4257         hc    146    ccc    H13   4257 0.08130000   1.008000   ; qtot -41.143724
 4258         hc    146    ccc    H14   4258 0.08130000   1.008000   ; qtot -41.062424
 4259          c    146    ccc     C9   4259 1.08970000  12.010000   ; qtot -39.972724
 4260          o    146    ccc     O4   4260 -0.96050000  16.000000   ; qtot -40.933224
 4261          o    146    ccc     O5   4261 -0.96050000  16.000000   ; qtot -41.893724
 4262         os    146    ccc     O1   4262 -0.11060000  16.000000   ; qtot -42.004324
; residue  147 ccc rtp ccc q -2.0
 4263         c3    147    ccc     C3   4263 -0.04070000  12.010000   ; qtot -42.045024
 4264         h1    147    ccc     H5   4264 0.04610000   1.008000   ; qtot -41.998924
 4265         h1    147    ccc     H6   4265 0.04610000   1.008000   ; qtot -41.952824
 4266         c3    147    ccc     C2   4266 -0.02540000  12.010000   ; qtot -41.978224
 4267         hc    147    ccc     H3   4267 0.00850000   1.008000   ; qtot -41.969724
 4268         hc    147    ccc     H4   4268 0.00850000   1.008000   ; qtot -41.961224
 4269         c3    147    ccc     C1   4269 0.60210000  12.010000   ; qtot -41.359124
 4270         h1    147    ccc     H1   4270 -0.09250000   1.008000   ; qtot -41.451624
 4271         h1    147    ccc     H2   4271 -0.09250000   1.008000   ; qtot -41.544124
 4272         n3    147    ccc     N1   4272 -0.59700000  14.010000   ; qtot -42.141124
 4273         c3    147    ccc     C4   4273 0.32800000  12.010000   ; qtot -41.813124
 4274         h1    147    ccc     H7   4274 -0.07120000   1.008000   ; qtot -41.884324
 4275         h1    147    ccc     H8   4275 -0.07120000   1.008000   ; qtot -41.955524
 4276         c3    147    ccc     C5   4276 -0.39330000  12.010000   ; qtot -42.348824
 4277         hc    147    ccc     H9   4277 0.08130000   1.008000   ; qtot -42.267524
 4278         hc    147    ccc    H10   4278 0.08130000   1.008000   ; qtot -42.186224
 4279          c    147    ccc     C6   4279 1.08970000  12.010000   ; qtot -41.096524
 4280          o    147    ccc     O2   4280 -0.96050000  16.000000   ; qtot -42.057024
 4281          o    147    ccc     O3   4281 -0.96050000  16.000000   ; qtot -43.017524
 4282         c3    147    ccc     C7   4282 0.32800000  12.010000   ; qtot -42.689524
 4283         h1    147    ccc    H11   4283 -0.07120000   1.008000   ; qtot -42.760724
 4284         h1    147    ccc    H12   4284 -0.07120000   1.008000   ; qtot -42.831924
 4285         c3    147    ccc     C8   4285 -0.39330000  12.010000   ; qtot -43.225224
 4286         hc    147    ccc    H13   4286 0.08130000   1.008000   ; qtot -43.143924
 4287         hc    147    ccc    H14   4287 0.08130000   1.008000   ; qtot -43.062624
 4288          c    147    ccc     C9   4288 1.08970000  12.010000   ; qtot -41.972924
 4289          o    147    ccc     O4   4289 -0.96050000  16.000000   ; qtot -42.933424
 4290          o    147    ccc     O5   4290 -0.96050000  16.000000   ; qtot -43.893924
 4291         os    147    ccc     O1   4291 -0.11060000  16.000000   ; qtot -44.004524
; residue  148 ccc rtp ccc q -2.0
 4292         c3    148    ccc     C3   4292 -0.04070000  12.010000   ; qtot -44.045224
 4293         h1    148    ccc     H5   4293 0.04610000   1.008000   ; qtot -43.999124
 4294         h1    148    ccc     H6   4294 0.04610000   1.008000   ; qtot -43.953024
 4295         c3    148    ccc     C2   4295 -0.02540000  12.010000   ; qtot -43.978424
 4296         hc    148    ccc     H3   4296 0.00850000   1.008000   ; qtot -43.969924
 4297         hc    148    ccc     H4   4297 0.00850000   1.008000   ; qtot -43.961424
 4298         c3    148    ccc     C1   4298 0.60210000  12.010000   ; qtot -43.359324
 4299         h1    148    ccc     H1   4299 -0.09250000   1.008000   ; qtot -43.451824
 4300         h1    148    ccc     H2   4300 -0.09250000   1.008000   ; qtot -43.544324
 4301         n3    148    ccc     N1   4301 -0.59700000  14.010000   ; qtot -44.141324
 4302         c3    148    ccc     C4   4302 0.32800000  12.010000   ; qtot -43.813324
 4303         h1    148    ccc     H7   4303 -0.07120000   1.008000   ; qtot -43.884524
 4304         h1    148    ccc     H8   4304 -0.07120000   1.008000   ; qtot -43.955724
 4305         c3    148    ccc     C5   4305 -0.39330000  12.010000   ; qtot -44.349024
 4306         hc    148    ccc     H9   4306 0.08130000   1.008000   ; qtot -44.267724
 4307         hc    148    ccc    H10   4307 0.08130000   1.008000   ; qtot -44.186424
 4308          c    148    ccc     C6   4308 1.08970000  12.010000   ; qtot -43.096724
 4309          o    148    ccc     O2   4309 -0.96050000  16.000000   ; qtot -44.057224
 4310          o    148    ccc     O3   4310 -0.96050000  16.000000   ; qtot -45.017724
 4311         c3    148    ccc     C7   4311 0.32800000  12.010000   ; qtot -44.689724
 4312         h1    148    ccc    H11   4312 -0.07120000   1.008000   ; qtot -44.760924
 4313         h1    148    ccc    H12   4313 -0.07120000   1.008000   ; qtot -44.832124
 4314         c3    148    ccc     C8   4314 -0.39330000  12.010000   ; qtot -45.225424
 4315         hc    148    ccc    H13   4315 0.08130000   1.008000   ; qtot -45.144124
 4316         hc    148    ccc    H14   4316 0.08130000   1.008000   ; qtot -45.062824
 4317          c    148    ccc     C9   4317 1.08970000  12.010000   ; qtot -43.973124
 4318          o    148    ccc     O4   4318 -0.96050000  16.000000   ; qtot -44.933624
 4319          o    148    ccc     O5   4319 -0.96050000  16.000000   ; qtot -45.894124
 4320         os    148    ccc     O1   4320 -0.11060000  16.000000   ; qtot -46.004724
; residue  149 ccc rtp ccc q -2.0
 4321         c3    149    ccc     C3   4321 -0.04070000  12.010000   ; qtot -46.045424
 4322         h1    149    ccc     H5   4322 0.04610000   1.008000   ; qtot -45.999324
 4323         h1    149    ccc     H6   4323 0.04610000   1.008000   ; qtot -45.953224
 4324         c3    149    ccc     C2   4324 -0.02540000  12.010000   ; qtot -45.978624
 4325         hc    149    ccc     H3   4325 0.00850000   1.008000   ; qtot -45.970124
 4326         hc    149    ccc     H4   4326 0.00850000   1.008000   ; qtot -45.961624
 4327         c3    149    ccc     C1   4327 0.60210000  12.010000   ; qtot -45.359524
 4328         h1    149    ccc     H1   4328 -0.09250000   1.008000   ; qtot -45.452024
 4329         h1    149    ccc     H2   4329 -0.09250000   1.008000   ; qtot -45.544524
 4330         n3    149    ccc     N1   4330 -0.59700000  14.010000   ; qtot -46.141524
 4331         c3    149    ccc     C4   4331 0.32800000  12.010000   ; qtot -45.813524
 4332         h1    149    ccc     H7   4332 -0.07120000   1.008000   ; qtot -45.884724
 4333         h1    149    ccc     H8   4333 -0.07120000   1.008000   ; qtot -45.955924
 4334         c3    149    ccc     C5   4334 -0.39330000  12.010000   ; qtot -46.349224
 4335         hc    149    ccc     H9   4335 0.08130000   1.008000   ; qtot -46.267924
 4336         hc    149    ccc    H10   4336 0.08130000   1.008000   ; qtot -46.186624
 4337          c    149    ccc     C6   4337 1.08970000  12.010000   ; qtot -45.096924
 4338          o    149    ccc     O2   4338 -0.96050000  16.000000   ; qtot -46.057424
 4339          o    149    ccc     O3   4339 -0.96050000  16.000000   ; qtot -47.017924
 4340         c3    149    ccc     C7   4340 0.32800000  12.010000   ; qtot -46.689924
 4341         h1    149    ccc    H11   4341 -0.07120000   1.008000   ; qtot -46.761124
 4342         h1    149    ccc    H12   4342 -0.07120000   1.008000   ; qtot -46.832324
 4343         c3    149    ccc     C8   4343 -0.39330000  12.010000   ; qtot -47.225624
 4344         hc    149    ccc    H13   4344 0.08130000   1.008000   ; qtot -47.144324
 4345         hc    149    ccc    H14   4345 0.08130000   1.008000   ; qtot -47.063024
 4346          c    149    ccc     C9   4346 1.08970000  12.010000   ; qtot -45.973324
 4347          o    149    ccc     O4   4347 -0.96050000  16.000000   ; qtot -46.933824
 4348          o    149    ccc     O5   4348 -0.96050000  16.000000   ; qtot -47.894324
 4349         os    149    ccc     O1   4349 -0.11060000  16.000000   ; qtot -48.004924
; residue  150 ccc rtp ccc q -2.0
 4350         c3    150    ccc     C3   4350 -0.04070000  12.010000   ; qtot -48.045624
 4351         h1    150    ccc     H5   4351 0.04610000   1.008000   ; qtot -47.999524
 4352         h1    150    ccc     H6   4352 0.04610000   1.008000   ; qtot -47.953424
 4353         c3    150    ccc     C2   4353 -0.02540000  12.010000   ; qtot -47.978824
 4354         hc    150    ccc     H3   4354 0.00850000   1.008000   ; qtot -47.970324
 4355         hc    150    ccc     H4   4355 0.00850000   1.008000   ; qtot -47.961824
 4356         c3    150    ccc     C1   4356 0.60210000  12.010000   ; qtot -47.359724
 4357         h1    150    ccc     H1   4357 -0.09250000   1.008000   ; qtot -47.452224
 4358         h1    150    ccc     H2   4358 -0.09250000   1.008000   ; qtot -47.544724
 4359         n3    150    ccc     N1   4359 -0.59700000  14.010000   ; qtot -48.141724
 4360         c3    150    ccc     C4   4360 0.32800000  12.010000   ; qtot -47.813724
 4361         h1    150    ccc     H7   4361 -0.07120000   1.008000   ; qtot -47.884924
 4362         h1    150    ccc     H8   4362 -0.07120000   1.008000   ; qtot -47.956124
 4363         c3    150    ccc     C5   4363 -0.39330000  12.010000   ; qtot -48.349424
 4364         hc    150    ccc     H9   4364 0.08130000   1.008000   ; qtot -48.268124
 4365         hc    150    ccc    H10   4365 0.08130000   1.008000   ; qtot -48.186824
 4366          c    150    ccc     C6   4366 1.08970000  12.010000   ; qtot -47.097124
 4367          o    150    ccc     O2   4367 -0.96050000  16.000000   ; qtot -48.057624
 4368          o    150    ccc     O3   4368 -0.96050000  16.000000   ; qtot -49.018124
 4369         c3    150    ccc     C7   4369 0.32800000  12.010000   ; qtot -48.690124
 4370         h1    150    ccc    H11   4370 -0.07120000   1.008000   ; qtot -48.761324
 4371         h1    150    ccc    H12   4371 -0.07120000   1.008000   ; qtot -48.832524
 4372         c3    150    ccc     C8   4372 -0.39330000  12.010000   ; qtot -49.225824
 4373         hc    150    ccc    H13   4373 0.08130000   1.008000   ; qtot -49.144524
 4374         hc    150    ccc    H14   4374 0.08130000   1.008000   ; qtot -49.063224
 4375          c    150    ccc     C9   4375 1.08970000  12.010000   ; qtot -47.973524
 4376          o    150    ccc     O4   4376 -0.96050000  16.000000   ; qtot -48.934024
 4377          o    150    ccc     O5   4377 -0.96050000  16.000000   ; qtot -49.894524
 4378         os    150    ccc     O1   4378 -0.11060000  16.000000   ; qtot -50.005124
; residue  151 ccc rtp ccc q -2.0
 4379         c3    151    ccc     C3   4379 -0.04070000  12.010000   ; qtot -50.045824
 4380         h1    151    ccc     H5   4380 0.04610000   1.008000   ; qtot -49.999724
 4381         h1    151    ccc     H6   4381 0.04610000   1.008000   ; qtot -49.953624
 4382         c3    151    ccc     C2   4382 -0.02540000  12.010000   ; qtot -49.979024
 4383         hc    151    ccc     H3   4383 0.00850000   1.008000   ; qtot -49.970524
 4384         hc    151    ccc     H4   4384 0.00850000   1.008000   ; qtot -49.962024
 4385         c3    151    ccc     C1   4385 0.60210000  12.010000   ; qtot -49.359924
 4386         h1    151    ccc     H1   4386 -0.09250000   1.008000   ; qtot -49.452424
 4387         h1    151    ccc     H2   4387 -0.09250000   1.008000   ; qtot -49.544924
 4388         n3    151    ccc     N1   4388 -0.59700000  14.010000   ; qtot -50.141924
 4389         c3    151    ccc     C4   4389 0.32800000  12.010000   ; qtot -49.813924
 4390         h1    151    ccc     H7   4390 -0.07120000   1.008000   ; qtot -49.885124
 4391         h1    151    ccc     H8   4391 -0.07120000   1.008000   ; qtot -49.956324
 4392         c3    151    ccc     C5   4392 -0.39330000  12.010000   ; qtot -50.349624
 4393         hc    151    ccc     H9   4393 0.08130000   1.008000   ; qtot -50.268324
 4394         hc    151    ccc    H10   4394 0.08130000   1.008000   ; qtot -50.187024
 4395          c    151    ccc     C6   4395 1.08970000  12.010000   ; qtot -49.097324
 4396          o    151    ccc     O2   4396 -0.96050000  16.000000   ; qtot -50.057824
 4397          o    151    ccc     O3   4397 -0.96050000  16.000000   ; qtot -51.018324
 4398         c3    151    ccc     C7   4398 0.32800000  12.010000   ; qtot -50.690324
 4399         h1    151    ccc    H11   4399 -0.07120000   1.008000   ; qtot -50.761524
 4400         h1    151    ccc    H12   4400 -0.07120000   1.008000   ; qtot -50.832724
 4401         c3    151    ccc     C8   4401 -0.39330000  12.010000   ; qtot -51.226024
 4402         hc    151    ccc    H13   4402 0.08130000   1.008000   ; qtot -51.144724
 4403         hc    151    ccc    H14   4403 0.08130000   1.008000   ; qtot -51.063424
 4404          c    151    ccc     C9   4404 1.08970000  12.010000   ; qtot -49.973724
 4405          o    151    ccc     O4   4405 -0.96050000  16.000000   ; qtot -50.934224
 4406          o    151    ccc     O5   4406 -0.96050000  16.000000   ; qtot -51.894724
 4407         os    151    ccc     O1   4407 -0.11060000  16.000000   ; qtot -52.005324
; residue  152 ccc rtp ccc q -2.0
 4408         c3    152    ccc     C3   4408 -0.04070000  12.010000   ; qtot -52.046024
 4409         h1    152    ccc     H5   4409 0.04610000   1.008000   ; qtot -51.999924
 4410         h1    152    ccc     H6   4410 0.04610000   1.008000   ; qtot -51.953824
 4411         c3    152    ccc     C2   4411 -0.02540000  12.010000   ; qtot -51.979224
 4412         hc    152    ccc     H3   4412 0.00850000   1.008000   ; qtot -51.970724
 4413         hc    152    ccc     H4   4413 0.00850000   1.008000   ; qtot -51.962224
 4414         c3    152    ccc     C1   4414 0.60210000  12.010000   ; qtot -51.360124
 4415         h1    152    ccc     H1   4415 -0.09250000   1.008000   ; qtot -51.452624
 4416         h1    152    ccc     H2   4416 -0.09250000   1.008000   ; qtot -51.545124
 4417         n3    152    ccc     N1   4417 -0.59700000  14.010000   ; qtot -52.142124
 4418         c3    152    ccc     C4   4418 0.32800000  12.010000   ; qtot -51.814124
 4419         h1    152    ccc     H7   4419 -0.07120000   1.008000   ; qtot -51.885324
 4420         h1    152    ccc     H8   4420 -0.07120000   1.008000   ; qtot -51.956524
 4421         c3    152    ccc     C5   4421 -0.39330000  12.010000   ; qtot -52.349824
 4422         hc    152    ccc     H9   4422 0.08130000   1.008000   ; qtot -52.268524
 4423         hc    152    ccc    H10   4423 0.08130000   1.008000   ; qtot -52.187224
 4424          c    152    ccc     C6   4424 1.08970000  12.010000   ; qtot -51.097524
 4425          o    152    ccc     O2   4425 -0.96050000  16.000000   ; qtot -52.058024
 4426          o    152    ccc     O3   4426 -0.96050000  16.000000   ; qtot -53.018524
 4427         c3    152    ccc     C7   4427 0.32800000  12.010000   ; qtot -52.690524
 4428         h1    152    ccc    H11   4428 -0.07120000   1.008000   ; qtot -52.761724
 4429         h1    152    ccc    H12   4429 -0.07120000   1.008000   ; qtot -52.832924
 4430         c3    152    ccc     C8   4430 -0.39330000  12.010000   ; qtot -53.226224
 4431         hc    152    ccc    H13   4431 0.08130000   1.008000   ; qtot -53.144924
 4432         hc    152    ccc    H14   4432 0.08130000   1.008000   ; qtot -53.063624
 4433          c    152    ccc     C9   4433 1.08970000  12.010000   ; qtot -51.973924
 4434          o    152    ccc     O4   4434 -0.96050000  16.000000   ; qtot -52.934424
 4435          o    152    ccc     O5   4435 -0.96050000  16.000000   ; qtot -53.894924
 4436         os    152    ccc     O1   4436 -0.11060000  16.000000   ; qtot -54.005524
; residue  153 ccc rtp ccc q -2.0
 4437         c3    153    ccc     C3   4437 -0.04070000  12.010000   ; qtot -54.046224
 4438         h1    153    ccc     H5   4438 0.04610000   1.008000   ; qtot -54.000124
 4439         h1    153    ccc     H6   4439 0.04610000   1.008000   ; qtot -53.954024
 4440         c3    153    ccc     C2   4440 -0.02540000  12.010000   ; qtot -53.979424
 4441         hc    153    ccc     H3   4441 0.00850000   1.008000   ; qtot -53.970924
 4442         hc    153    ccc     H4   4442 0.00850000   1.008000   ; qtot -53.962424
 4443         c3    153    ccc     C1   4443 0.60210000  12.010000   ; qtot -53.360324
 4444         h1    153    ccc     H1   4444 -0.09250000   1.008000   ; qtot -53.452824
 4445         h1    153    ccc     H2   4445 -0.09250000   1.008000   ; qtot -53.545324
 4446         n3    153    ccc     N1   4446 -0.59700000  14.010000   ; qtot -54.142324
 4447         c3    153    ccc     C4   4447 0.32800000  12.010000   ; qtot -53.814324
 4448         h1    153    ccc     H7   4448 -0.07120000   1.008000   ; qtot -53.885524
 4449         h1    153    ccc     H8   4449 -0.07120000   1.008000   ; qtot -53.956724
 4450         c3    153    ccc     C5   4450 -0.39330000  12.010000   ; qtot -54.350024
 4451         hc    153    ccc     H9   4451 0.08130000   1.008000   ; qtot -54.268724
 4452         hc    153    ccc    H10   4452 0.08130000   1.008000   ; qtot -54.187424
 4453          c    153    ccc     C6   4453 1.08970000  12.010000   ; qtot -53.097724
 4454          o    153    ccc     O2   4454 -0.96050000  16.000000   ; qtot -54.058224
 4455          o    153    ccc     O3   4455 -0.96050000  16.000000   ; qtot -55.018724
 4456         c3    153    ccc     C7   4456 0.32800000  12.010000   ; qtot -54.690724
 4457         h1    153    ccc    H11   4457 -0.07120000   1.008000   ; qtot -54.761924
 4458         h1    153    ccc    H12   4458 -0.07120000   1.008000   ; qtot -54.833124
 4459         c3    153    ccc     C8   4459 -0.39330000  12.010000   ; qtot -55.226424
 4460         hc    153    ccc    H13   4460 0.08130000   1.008000   ; qtot -55.145124
 4461         hc    153    ccc    H14   4461 0.08130000   1.008000   ; qtot -55.063824
 4462          c    153    ccc     C9   4462 1.08970000  12.010000   ; qtot -53.974124
 4463          o    153    ccc     O4   4463 -0.96050000  16.000000   ; qtot -54.934624
 4464          o    153    ccc     O5   4464 -0.96050000  16.000000   ; qtot -55.895124
 4465         os    153    ccc     O1   4465 -0.11060000  16.000000   ; qtot -56.005724
; residue  154 ccc rtp ccc q -2.0
 4466         c3    154    ccc     C3   4466 -0.04070000  12.010000   ; qtot -56.046424
 4467         h1    154    ccc     H5   4467 0.04610000   1.008000   ; qtot -56.000324
 4468         h1    154    ccc     H6   4468 0.04610000   1.008000   ; qtot -55.954224
 4469         c3    154    ccc     C2   4469 -0.02540000  12.010000   ; qtot -55.979624
 4470         hc    154    ccc     H3   4470 0.00850000   1.008000   ; qtot -55.971124
 4471         hc    154    ccc     H4   4471 0.00850000   1.008000   ; qtot -55.962624
 4472         c3    154    ccc     C1   4472 0.60210000  12.010000   ; qtot -55.360524
 4473         h1    154    ccc     H1   4473 -0.09250000   1.008000   ; qtot -55.453024
 4474         h1    154    ccc     H2   4474 -0.09250000   1.008000   ; qtot -55.545524
 4475         n3    154    ccc     N1   4475 -0.59700000  14.010000   ; qtot -56.142524
 4476         c3    154    ccc     C4   4476 0.32800000  12.010000   ; qtot -55.814524
 4477         h1    154    ccc     H7   4477 -0.07120000   1.008000   ; qtot -55.885724
 4478         h1    154    ccc     H8   4478 -0.07120000   1.008000   ; qtot -55.956924
 4479         c3    154    ccc     C5   4479 -0.39330000  12.010000   ; qtot -56.350224
 4480         hc    154    ccc     H9   4480 0.08130000   1.008000   ; qtot -56.268924
 4481         hc    154    ccc    H10   4481 0.08130000   1.008000   ; qtot -56.187624
 4482          c    154    ccc     C6   4482 1.08970000  12.010000   ; qtot -55.097924
 4483          o    154    ccc     O2   4483 -0.96050000  16.000000   ; qtot -56.058424
 4484          o    154    ccc     O3   4484 -0.96050000  16.000000   ; qtot -57.018924
 4485         c3    154    ccc     C7   4485 0.32800000  12.010000   ; qtot -56.690924
 4486         h1    154    ccc    H11   4486 -0.07120000   1.008000   ; qtot -56.762124
 4487         h1    154    ccc    H12   4487 -0.07120000   1.008000   ; qtot -56.833324
 4488         c3    154    ccc     C8   4488 -0.39330000  12.010000   ; qtot -57.226624
 4489         hc    154    ccc    H13   4489 0.08130000   1.008000   ; qtot -57.145324
 4490         hc    154    ccc    H14   4490 0.08130000   1.008000   ; qtot -57.064024
 4491          c    154    ccc     C9   4491 1.08970000  12.010000   ; qtot -55.974324
 4492          o    154    ccc     O4   4492 -0.96050000  16.000000   ; qtot -56.934824
 4493          o    154    ccc     O5   4493 -0.96050000  16.000000   ; qtot -57.895324
 4494         os    154    ccc     O1   4494 -0.11060000  16.000000   ; qtot -58.005924
; residue  155 ccc rtp ccc q -2.0
 4495         c3    155    ccc     C3   4495 -0.04070000  12.010000   ; qtot -58.046624
 4496         h1    155    ccc     H5   4496 0.04610000   1.008000   ; qtot -58.000524
 4497         h1    155    ccc     H6   4497 0.04610000   1.008000   ; qtot -57.954424
 4498         c3    155    ccc     C2   4498 -0.02540000  12.010000   ; qtot -57.979824
 4499         hc    155    ccc     H3   4499 0.00850000   1.008000   ; qtot -57.971324
 4500         hc    155    ccc     H4   4500 0.00850000   1.008000   ; qtot -57.962824
 4501         c3    155    ccc     C1   4501 0.60210000  12.010000   ; qtot -57.360724
 4502         h1    155    ccc     H1   4502 -0.09250000   1.008000   ; qtot -57.453224
 4503         h1    155    ccc     H2   4503 -0.09250000   1.008000   ; qtot -57.545724
 4504         n3    155    ccc     N1   4504 -0.59700000  14.010000   ; qtot -58.142724
 4505         c3    155    ccc     C4   4505 0.32800000  12.010000   ; qtot -57.814724
 4506         h1    155    ccc     H7   4506 -0.07120000   1.008000   ; qtot -57.885924
 4507         h1    155    ccc     H8   4507 -0.07120000   1.008000   ; qtot -57.957124
 4508         c3    155    ccc     C5   4508 -0.39330000  12.010000   ; qtot -58.350424
 4509         hc    155    ccc     H9   4509 0.08130000   1.008000   ; qtot -58.269124
 4510         hc    155    ccc    H10   4510 0.08130000   1.008000   ; qtot -58.187824
 4511          c    155    ccc     C6   4511 1.08970000  12.010000   ; qtot -57.098124
 4512          o    155    ccc     O2   4512 -0.96050000  16.000000   ; qtot -58.058624
 4513          o    155    ccc     O3   4513 -0.96050000  16.000000   ; qtot -59.019124
 4514         c3    155    ccc     C7   4514 0.32800000  12.010000   ; qtot -58.691124
 4515         h1    155    ccc    H11   4515 -0.07120000   1.008000   ; qtot -58.762324
 4516         h1    155    ccc    H12   4516 -0.07120000   1.008000   ; qtot -58.833524
 4517         c3    155    ccc     C8   4517 -0.39330000  12.010000   ; qtot -59.226824
 4518         hc    155    ccc    H13   4518 0.08130000   1.008000   ; qtot -59.145524
 4519         hc    155    ccc    H14   4519 0.08130000   1.008000   ; qtot -59.064224
 4520          c    155    ccc     C9   4520 1.08970000  12.010000   ; qtot -57.974524
 4521          o    155    ccc     O4   4521 -0.96050000  16.000000   ; qtot -58.935024
 4522          o    155    ccc     O5   4522 -0.96050000  16.000000   ; qtot -59.895524
 4523         os    155    ccc     O1   4523 -0.11060000  16.000000   ; qtot -60.006124
; residue  156 ccc rtp ccc q -2.0
 4524         c3    156    ccc     C3   4524 -0.04070000  12.010000   ; qtot -60.046824
 4525         h1    156    ccc     H5   4525 0.04610000   1.008000   ; qtot -60.000724
 4526         h1    156    ccc     H6   4526 0.04610000   1.008000   ; qtot -59.954624
 4527         c3    156    ccc     C2   4527 -0.02540000  12.010000   ; qtot -59.980024
 4528         hc    156    ccc     H3   4528 0.00850000   1.008000   ; qtot -59.971524
 4529         hc    156    ccc     H4   4529 0.00850000   1.008000   ; qtot -59.963024
 4530         c3    156    ccc     C1   4530 0.60210000  12.010000   ; qtot -59.360924
 4531         h1    156    ccc     H1   4531 -0.09250000   1.008000   ; qtot -59.453424
 4532         h1    156    ccc     H2   4532 -0.09250000   1.008000   ; qtot -59.545924
 4533         n3    156    ccc     N1   4533 -0.59700000  14.010000   ; qtot -60.142924
 4534         c3    156    ccc     C4   4534 0.32800000  12.010000   ; qtot -59.814924
 4535         h1    156    ccc     H7   4535 -0.07120000   1.008000   ; qtot -59.886124
 4536         h1    156    ccc     H8   4536 -0.07120000   1.008000   ; qtot -59.957324
 4537         c3    156    ccc     C5   4537 -0.39330000  12.010000   ; qtot -60.350624
 4538         hc    156    ccc     H9   4538 0.08130000   1.008000   ; qtot -60.269324
 4539         hc    156    ccc    H10   4539 0.08130000   1.008000   ; qtot -60.188024
 4540          c    156    ccc     C6   4540 1.08970000  12.010000   ; qtot -59.098324
 4541          o    156    ccc     O2   4541 -0.96050000  16.000000   ; qtot -60.058824
 4542          o    156    ccc     O3   4542 -0.96050000  16.000000   ; qtot -61.019324
 4543         c3    156    ccc     C7   4543 0.32800000  12.010000   ; qtot -60.691324
 4544         h1    156    ccc    H11   4544 -0.07120000   1.008000   ; qtot -60.762524
 4545         h1    156    ccc    H12   4545 -0.07120000   1.008000   ; qtot -60.833724
 4546         c3    156    ccc     C8   4546 -0.39330000  12.010000   ; qtot -61.227024
 4547         hc    156    ccc    H13   4547 0.08130000   1.008000   ; qtot -61.145724
 4548         hc    156    ccc    H14   4548 0.08130000   1.008000   ; qtot -61.064424
 4549          c    156    ccc     C9   4549 1.08970000  12.010000   ; qtot -59.974724
 4550          o    156    ccc     O4   4550 -0.96050000  16.000000   ; qtot -60.935224
 4551          o    156    ccc     O5   4551 -0.96050000  16.000000   ; qtot -61.895724
 4552         os    156    ccc     O1   4552 -0.11060000  16.000000   ; qtot -62.006324
; residue  157 ccc rtp ccc q -2.0
 4553         c3    157    ccc     C3   4553 -0.04070000  12.010000   ; qtot -62.047024
 4554         h1    157    ccc     H5   4554 0.04610000   1.008000   ; qtot -62.000924
 4555         h1    157    ccc     H6   4555 0.04610000   1.008000   ; qtot -61.954824
 4556         c3    157    ccc     C2   4556 -0.02540000  12.010000   ; qtot -61.980224
 4557         hc    157    ccc     H3   4557 0.00850000   1.008000   ; qtot -61.971724
 4558         hc    157    ccc     H4   4558 0.00850000   1.008000   ; qtot -61.963224
 4559         c3    157    ccc     C1   4559 0.60210000  12.010000   ; qtot -61.361124
 4560         h1    157    ccc     H1   4560 -0.09250000   1.008000   ; qtot -61.453624
 4561         h1    157    ccc     H2   4561 -0.09250000   1.008000   ; qtot -61.546124
 4562         n3    157    ccc     N1   4562 -0.59700000  14.010000   ; qtot -62.143124
 4563         c3    157    ccc     C4   4563 0.32800000  12.010000   ; qtot -61.815124
 4564         h1    157    ccc     H7   4564 -0.07120000   1.008000   ; qtot -61.886324
 4565         h1    157    ccc     H8   4565 -0.07120000   1.008000   ; qtot -61.957524
 4566         c3    157    ccc     C5   4566 -0.39330000  12.010000   ; qtot -62.350824
 4567         hc    157    ccc     H9   4567 0.08130000   1.008000   ; qtot -62.269524
 4568         hc    157    ccc    H10   4568 0.08130000   1.008000   ; qtot -62.188224
 4569          c    157    ccc     C6   4569 1.08970000  12.010000   ; qtot -61.098524
 4570          o    157    ccc     O2   4570 -0.96050000  16.000000   ; qtot -62.059024
 4571          o    157    ccc     O3   4571 -0.96050000  16.000000   ; qtot -63.019524
 4572         c3    157    ccc     C7   4572 0.32800000  12.010000   ; qtot -62.691524
 4573         h1    157    ccc    H11   4573 -0.07120000   1.008000   ; qtot -62.762724
 4574         h1    157    ccc    H12   4574 -0.07120000   1.008000   ; qtot -62.833924
 4575         c3    157    ccc     C8   4575 -0.39330000  12.010000   ; qtot -63.227224
 4576         hc    157    ccc    H13   4576 0.08130000   1.008000   ; qtot -63.145924
 4577         hc    157    ccc    H14   4577 0.08130000   1.008000   ; qtot -63.064624
 4578          c    157    ccc     C9   4578 1.08970000  12.010000   ; qtot -61.974924
 4579          o    157    ccc     O4   4579 -0.96050000  16.000000   ; qtot -62.935424
 4580          o    157    ccc     O5   4580 -0.96050000  16.000000   ; qtot -63.895924
 4581         os    157    ccc     O1   4581 -0.11060000  16.000000   ; qtot -64.006524
; residue  158 ccc rtp ccc q -2.0
 4582         c3    158    ccc     C3   4582 -0.04070000  12.010000   ; qtot -64.047224
 4583         h1    158    ccc     H5   4583 0.04610000   1.008000   ; qtot -64.001124
 4584         h1    158    ccc     H6   4584 0.04610000   1.008000   ; qtot -63.955024
 4585         c3    158    ccc     C2   4585 -0.02540000  12.010000   ; qtot -63.980424
 4586         hc    158    ccc     H3   4586 0.00850000   1.008000   ; qtot -63.971924
 4587         hc    158    ccc     H4   4587 0.00850000   1.008000   ; qtot -63.963424
 4588         c3    158    ccc     C1   4588 0.60210000  12.010000   ; qtot -63.361324
 4589         h1    158    ccc     H1   4589 -0.09250000   1.008000   ; qtot -63.453824
 4590         h1    158    ccc     H2   4590 -0.09250000   1.008000   ; qtot -63.546324
 4591         n3    158    ccc     N1   4591 -0.59700000  14.010000   ; qtot -64.143324
 4592         c3    158    ccc     C4   4592 0.32800000  12.010000   ; qtot -63.815324
 4593         h1    158    ccc     H7   4593 -0.07120000   1.008000   ; qtot -63.886524
 4594         h1    158    ccc     H8   4594 -0.07120000   1.008000   ; qtot -63.957724
 4595         c3    158    ccc     C5   4595 -0.39330000  12.010000   ; qtot -64.351024
 4596         hc    158    ccc     H9   4596 0.08130000   1.008000   ; qtot -64.269724
 4597         hc    158    ccc    H10   4597 0.08130000   1.008000   ; qtot -64.188424
 4598          c    158    ccc     C6   4598 1.08970000  12.010000   ; qtot -63.098724
 4599          o    158    ccc     O2   4599 -0.96050000  16.000000   ; qtot -64.059224
 4600          o    158    ccc     O3   4600 -0.96050000  16.000000   ; qtot -65.019724
 4601         c3    158    ccc     C7   4601 0.32800000  12.010000   ; qtot -64.691724
 4602         h1    158    ccc    H11   4602 -0.07120000   1.008000   ; qtot -64.762924
 4603         h1    158    ccc    H12   4603 -0.07120000   1.008000   ; qtot -64.834124
 4604         c3    158    ccc     C8   4604 -0.39330000  12.010000   ; qtot -65.227424
 4605         hc    158    ccc    H13   4605 0.08130000   1.008000   ; qtot -65.146124
 4606         hc    158    ccc    H14   4606 0.08130000   1.008000   ; qtot -65.064824
 4607          c    158    ccc     C9   4607 1.08970000  12.010000   ; qtot -63.975124
 4608          o    158    ccc     O4   4608 -0.96050000  16.000000   ; qtot -64.935624
 4609          o    158    ccc     O5   4609 -0.96050000  16.000000   ; qtot -65.896124
 4610         os    158    ccc     O1   4610 -0.11060000  16.000000   ; qtot -66.006724
; residue  159 ccc rtp ccc q -2.0
 4611         c3    159    ccc     C3   4611 -0.04070000  12.010000   ; qtot -66.047424
 4612         h1    159    ccc     H5   4612 0.04610000   1.008000   ; qtot -66.001324
 4613         h1    159    ccc     H6   4613 0.04610000   1.008000   ; qtot -65.955224
 4614         c3    159    ccc     C2   4614 -0.02540000  12.010000   ; qtot -65.980624
 4615         hc    159    ccc     H3   4615 0.00850000   1.008000   ; qtot -65.972124
 4616         hc    159    ccc     H4   4616 0.00850000   1.008000   ; qtot -65.963624
 4617         c3    159    ccc     C1   4617 0.60210000  12.010000   ; qtot -65.361524
 4618         h1    159    ccc     H1   4618 -0.09250000   1.008000   ; qtot -65.454024
 4619         h1    159    ccc     H2   4619 -0.09250000   1.008000   ; qtot -65.546524
 4620         n3    159    ccc     N1   4620 -0.59700000  14.010000   ; qtot -66.143524
 4621         c3    159    ccc     C4   4621 0.32800000  12.010000   ; qtot -65.815524
 4622         h1    159    ccc     H7   4622 -0.07120000   1.008000   ; qtot -65.886724
 4623         h1    159    ccc     H8   4623 -0.07120000   1.008000   ; qtot -65.957924
 4624         c3    159    ccc     C5   4624 -0.39330000  12.010000   ; qtot -66.351224
 4625         hc    159    ccc     H9   4625 0.08130000   1.008000   ; qtot -66.269924
 4626         hc    159    ccc    H10   4626 0.08130000   1.008000   ; qtot -66.188624
 4627          c    159    ccc     C6   4627 1.08970000  12.010000   ; qtot -65.098924
 4628          o    159    ccc     O2   4628 -0.96050000  16.000000   ; qtot -66.059424
 4629          o    159    ccc     O3   4629 -0.96050000  16.000000   ; qtot -67.019924
 4630         c3    159    ccc     C7   4630 0.32800000  12.010000   ; qtot -66.691924
 4631         h1    159    ccc    H11   4631 -0.07120000   1.008000   ; qtot -66.763124
 4632         h1    159    ccc    H12   4632 -0.07120000   1.008000   ; qtot -66.834324
 4633         c3    159    ccc     C8   4633 -0.39330000  12.010000   ; qtot -67.227624
 4634         hc    159    ccc    H13   4634 0.08130000   1.008000   ; qtot -67.146324
 4635         hc    159    ccc    H14   4635 0.08130000   1.008000   ; qtot -67.065024
 4636          c    159    ccc     C9   4636 1.08970000  12.010000   ; qtot -65.975324
 4637          o    159    ccc     O4   4637 -0.96050000  16.000000   ; qtot -66.935824
 4638          o    159    ccc     O5   4638 -0.96050000  16.000000   ; qtot -67.896324
 4639         os    159    ccc     O1   4639 -0.11060000  16.000000   ; qtot -68.006924
; residue  160 ccc rtp ccc q -2.0
 4640         c3    160    ccc     C3   4640 -0.04070000  12.010000   ; qtot -68.047624
 4641         h1    160    ccc     H5   4641 0.04610000   1.008000   ; qtot -68.001524
 4642         h1    160    ccc     H6   4642 0.04610000   1.008000   ; qtot -67.955424
 4643         c3    160    ccc     C2   4643 -0.02540000  12.010000   ; qtot -67.980824
 4644         hc    160    ccc     H3   4644 0.00850000   1.008000   ; qtot -67.972324
 4645         hc    160    ccc     H4   4645 0.00850000   1.008000   ; qtot -67.963824
 4646         c3    160    ccc     C1   4646 0.60210000  12.010000   ; qtot -67.361724
 4647         h1    160    ccc     H1   4647 -0.09250000   1.008000   ; qtot -67.454224
 4648         h1    160    ccc     H2   4648 -0.09250000   1.008000   ; qtot -67.546724
 4649         n3    160    ccc     N1   4649 -0.59700000  14.010000   ; qtot -68.143724
 4650         c3    160    ccc     C4   4650 0.32800000  12.010000   ; qtot -67.815724
 4651         h1    160    ccc     H7   4651 -0.07120000   1.008000   ; qtot -67.886924
 4652         h1    160    ccc     H8   4652 -0.07120000   1.008000   ; qtot -67.958124
 4653         c3    160    ccc     C5   4653 -0.39330000  12.010000   ; qtot -68.351424
 4654         hc    160    ccc     H9   4654 0.08130000   1.008000   ; qtot -68.270124
 4655         hc    160    ccc    H10   4655 0.08130000   1.008000   ; qtot -68.188824
 4656          c    160    ccc     C6   4656 1.08970000  12.010000   ; qtot -67.099124
 4657          o    160    ccc     O2   4657 -0.96050000  16.000000   ; qtot -68.059624
 4658          o    160    ccc     O3   4658 -0.96050000  16.000000   ; qtot -69.020124
 4659         c3    160    ccc     C7   4659 0.32800000  12.010000   ; qtot -68.692124
 4660         h1    160    ccc    H11   4660 -0.07120000   1.008000   ; qtot -68.763324
 4661         h1    160    ccc    H12   4661 -0.07120000   1.008000   ; qtot -68.834524
 4662         c3    160    ccc     C8   4662 -0.39330000  12.010000   ; qtot -69.227824
 4663         hc    160    ccc    H13   4663 0.08130000   1.008000   ; qtot -69.146524
 4664         hc    160    ccc    H14   4664 0.08130000   1.008000   ; qtot -69.065224
 4665          c    160    ccc     C9   4665 1.08970000  12.010000   ; qtot -67.975524
 4666          o    160    ccc     O4   4666 -0.96050000  16.000000   ; qtot -68.936024
 4667          o    160    ccc     O5   4667 -0.96050000  16.000000   ; qtot -69.896524
 4668         os    160    ccc     O1   4668 -0.11060000  16.000000   ; qtot -70.007124
; residue  161 ccc rtp ccc q -2.0
 4669         c3    161    ccc     C3   4669 -0.04070000  12.010000   ; qtot -70.047824
 4670         h1    161    ccc     H5   4670 0.04610000   1.008000   ; qtot -70.001724
 4671         h1    161    ccc     H6   4671 0.04610000   1.008000   ; qtot -69.955624
 4672         c3    161    ccc     C2   4672 -0.02540000  12.010000   ; qtot -69.981024
 4673         hc    161    ccc     H3   4673 0.00850000   1.008000   ; qtot -69.972524
 4674         hc    161    ccc     H4   4674 0.00850000   1.008000   ; qtot -69.964024
 4675         c3    161    ccc     C1   4675 0.60210000  12.010000   ; qtot -69.361924
 4676         h1    161    ccc     H1   4676 -0.09250000   1.008000   ; qtot -69.454424
 4677         h1    161    ccc     H2   4677 -0.09250000   1.008000   ; qtot -69.546924
 4678         n3    161    ccc     N1   4678 -0.59700000  14.010000   ; qtot -70.143924
 4679         c3    161    ccc     C4   4679 0.32800000  12.010000   ; qtot -69.815924
 4680         h1    161    ccc     H7   4680 -0.07120000   1.008000   ; qtot -69.887124
 4681         h1    161    ccc     H8   4681 -0.07120000   1.008000   ; qtot -69.958324
 4682         c3    161    ccc     C5   4682 -0.39330000  12.010000   ; qtot -70.351624
 4683         hc    161    ccc     H9   4683 0.08130000   1.008000   ; qtot -70.270324
 4684         hc    161    ccc    H10   4684 0.08130000   1.008000   ; qtot -70.189024
 4685          c    161    ccc     C6   4685 1.08970000  12.010000   ; qtot -69.099324
 4686          o    161    ccc     O2   4686 -0.96050000  16.000000   ; qtot -70.059824
 4687          o    161    ccc     O3   4687 -0.96050000  16.000000   ; qtot -71.020324
 4688         c3    161    ccc     C7   4688 0.32800000  12.010000   ; qtot -70.692324
 4689         h1    161    ccc    H11   4689 -0.07120000   1.008000   ; qtot -70.763524
 4690         h1    161    ccc    H12   4690 -0.07120000   1.008000   ; qtot -70.834724
 4691         c3    161    ccc     C8   4691 -0.39330000  12.010000   ; qtot -71.228024
 4692         hc    161    ccc    H13   4692 0.08130000   1.008000   ; qtot -71.146724
 4693         hc    161    ccc    H14   4693 0.08130000   1.008000   ; qtot -71.065424
 4694          c    161    ccc     C9   4694 1.08970000  12.010000   ; qtot -69.975724
 4695          o    161    ccc     O4   4695 -0.96050000  16.000000   ; qtot -70.936224
 4696          o    161    ccc     O5   4696 -0.96050000  16.000000   ; qtot -71.896724
 4697         os    161    ccc     O1   4697 -0.11060000  16.000000   ; qtot -72.007324
; residue  162 ccc rtp ccc q -2.0
 4698         c3    162    ccc     C3   4698 -0.04070000  12.010000   ; qtot -72.048024
 4699         h1    162    ccc     H5   4699 0.04610000   1.008000   ; qtot -72.001924
 4700         h1    162    ccc     H6   4700 0.04610000   1.008000   ; qtot -71.955824
 4701         c3    162    ccc     C2   4701 -0.02540000  12.010000   ; qtot -71.981224
 4702         hc    162    ccc     H3   4702 0.00850000   1.008000   ; qtot -71.972724
 4703         hc    162    ccc     H4   4703 0.00850000   1.008000   ; qtot -71.964224
 4704         c3    162    ccc     C1   4704 0.60210000  12.010000   ; qtot -71.362124
 4705         h1    162    ccc     H1   4705 -0.09250000   1.008000   ; qtot -71.454624
 4706         h1    162    ccc     H2   4706 -0.09250000   1.008000   ; qtot -71.547124
 4707         n3    162    ccc     N1   4707 -0.59700000  14.010000   ; qtot -72.144124
 4708         c3    162    ccc     C4   4708 0.32800000  12.010000   ; qtot -71.816124
 4709         h1    162    ccc     H7   4709 -0.07120000   1.008000   ; qtot -71.887324
 4710         h1    162    ccc     H8   4710 -0.07120000   1.008000   ; qtot -71.958524
 4711         c3    162    ccc     C5   4711 -0.39330000  12.010000   ; qtot -72.351824
 4712         hc    162    ccc     H9   4712 0.08130000   1.008000   ; qtot -72.270524
 4713         hc    162    ccc    H10   4713 0.08130000   1.008000   ; qtot -72.189224
 4714          c    162    ccc     C6   4714 1.08970000  12.010000   ; qtot -71.099524
 4715          o    162    ccc     O2   4715 -0.96050000  16.000000   ; qtot -72.060024
 4716          o    162    ccc     O3   4716 -0.96050000  16.000000   ; qtot -73.020524
 4717         c3    162    ccc     C7   4717 0.32800000  12.010000   ; qtot -72.692524
 4718         h1    162    ccc    H11   4718 -0.07120000   1.008000   ; qtot -72.763724
 4719         h1    162    ccc    H12   4719 -0.07120000   1.008000   ; qtot -72.834924
 4720         c3    162    ccc     C8   4720 -0.39330000  12.010000   ; qtot -73.228224
 4721         hc    162    ccc    H13   4721 0.08130000   1.008000   ; qtot -73.146924
 4722         hc    162    ccc    H14   4722 0.08130000   1.008000   ; qtot -73.065624
 4723          c    162    ccc     C9   4723 1.08970000  12.010000   ; qtot -71.975924
 4724          o    162    ccc     O4   4724 -0.96050000  16.000000   ; qtot -72.936424
 4725          o    162    ccc     O5   4725 -0.96050000  16.000000   ; qtot -73.896924
 4726         os    162    ccc     O1   4726 -0.11060000  16.000000   ; qtot -74.007524
; residue  163 ccc rtp ccc q -2.0
 4727         c3    163    ccc     C3   4727 -0.04070000  12.010000   ; qtot -74.048224
 4728         h1    163    ccc     H5   4728 0.04610000   1.008000   ; qtot -74.002124
 4729         h1    163    ccc     H6   4729 0.04610000   1.008000   ; qtot -73.956024
 4730         c3    163    ccc     C2   4730 -0.02540000  12.010000   ; qtot -73.981424
 4731         hc    163    ccc     H3   4731 0.00850000   1.008000   ; qtot -73.972924
 4732         hc    163    ccc     H4   4732 0.00850000   1.008000   ; qtot -73.964424
 4733         c3    163    ccc     C1   4733 0.60210000  12.010000   ; qtot -73.362324
 4734         h1    163    ccc     H1   4734 -0.09250000   1.008000   ; qtot -73.454824
 4735         h1    163    ccc     H2   4735 -0.09250000   1.008000   ; qtot -73.547324
 4736         n3    163    ccc     N1   4736 -0.59700000  14.010000   ; qtot -74.144324
 4737         c3    163    ccc     C4   4737 0.32800000  12.010000   ; qtot -73.816324
 4738         h1    163    ccc     H7   4738 -0.07120000   1.008000   ; qtot -73.887524
 4739         h1    163    ccc     H8   4739 -0.07120000   1.008000   ; qtot -73.958724
 4740         c3    163    ccc     C5   4740 -0.39330000  12.010000   ; qtot -74.352024
 4741         hc    163    ccc     H9   4741 0.08130000   1.008000   ; qtot -74.270724
 4742         hc    163    ccc    H10   4742 0.08130000   1.008000   ; qtot -74.189424
 4743          c    163    ccc     C6   4743 1.08970000  12.010000   ; qtot -73.099724
 4744          o    163    ccc     O2   4744 -0.96050000  16.000000   ; qtot -74.060224
 4745          o    163    ccc     O3   4745 -0.96050000  16.000000   ; qtot -75.020724
 4746         c3    163    ccc     C7   4746 0.32800000  12.010000   ; qtot -74.692724
 4747         h1    163    ccc    H11   4747 -0.07120000   1.008000   ; qtot -74.763924
 4748         h1    163    ccc    H12   4748 -0.07120000   1.008000   ; qtot -74.835124
 4749         c3    163    ccc     C8   4749 -0.39330000  12.010000   ; qtot -75.228424
 4750         hc    163    ccc    H13   4750 0.08130000   1.008000   ; qtot -75.147124
 4751         hc    163    ccc    H14   4751 0.08130000   1.008000   ; qtot -75.065824
 4752          c    163    ccc     C9   4752 1.08970000  12.010000   ; qtot -73.976124
 4753          o    163    ccc     O4   4753 -0.96050000  16.000000   ; qtot -74.936624
 4754          o    163    ccc     O5   4754 -0.96050000  16.000000   ; qtot -75.897124
 4755         os    163    ccc     O1   4755 -0.11060000  16.000000   ; qtot -76.007724
; residue  164 ccc rtp ccc q -2.0
 4756         c3    164    ccc     C3   4756 -0.04070000  12.010000   ; qtot -76.048424
 4757         h1    164    ccc     H5   4757 0.04610000   1.008000   ; qtot -76.002324
 4758         h1    164    ccc     H6   4758 0.04610000   1.008000   ; qtot -75.956224
 4759         c3    164    ccc     C2   4759 -0.02540000  12.010000   ; qtot -75.981624
 4760         hc    164    ccc     H3   4760 0.00850000   1.008000   ; qtot -75.973124
 4761         hc    164    ccc     H4   4761 0.00850000   1.008000   ; qtot -75.964624
 4762         c3    164    ccc     C1   4762 0.60210000  12.010000   ; qtot -75.362524
 4763         h1    164    ccc     H1   4763 -0.09250000   1.008000   ; qtot -75.455024
 4764         h1    164    ccc     H2   4764 -0.09250000   1.008000   ; qtot -75.547524
 4765         n3    164    ccc     N1   4765 -0.59700000  14.010000   ; qtot -76.144524
 4766         c3    164    ccc     C4   4766 0.32800000  12.010000   ; qtot -75.816524
 4767         h1    164    ccc     H7   4767 -0.07120000   1.008000   ; qtot -75.887724
 4768         h1    164    ccc     H8   4768 -0.07120000   1.008000   ; qtot -75.958924
 4769         c3    164    ccc     C5   4769 -0.39330000  12.010000   ; qtot -76.352224
 4770         hc    164    ccc     H9   4770 0.08130000   1.008000   ; qtot -76.270924
 4771         hc    164    ccc    H10   4771 0.08130000   1.008000   ; qtot -76.189624
 4772          c    164    ccc     C6   4772 1.08970000  12.010000   ; qtot -75.099924
 4773          o    164    ccc     O2   4773 -0.96050000  16.000000   ; qtot -76.060424
 4774          o    164    ccc     O3   4774 -0.96050000  16.000000   ; qtot -77.020924
 4775         c3    164    ccc     C7   4775 0.32800000  12.010000   ; qtot -76.692924
 4776         h1    164    ccc    H11   4776 -0.07120000   1.008000   ; qtot -76.764124
 4777         h1    164    ccc    H12   4777 -0.07120000   1.008000   ; qtot -76.835324
 4778         c3    164    ccc     C8   4778 -0.39330000  12.010000   ; qtot -77.228624
 4779         hc    164    ccc    H13   4779 0.08130000   1.008000   ; qtot -77.147324
 4780         hc    164    ccc    H14   4780 0.08130000   1.008000   ; qtot -77.066024
 4781          c    164    ccc     C9   4781 1.08970000  12.010000   ; qtot -75.976324
 4782          o    164    ccc     O4   4782 -0.96050000  16.000000   ; qtot -76.936824
 4783          o    164    ccc     O5   4783 -0.96050000  16.000000   ; qtot -77.897324
 4784         os    164    ccc     O1   4784 -0.11060000  16.000000   ; qtot -78.007924
; residue  165 ccc rtp ccc q -2.0
 4785         c3    165    ccc     C3   4785 -0.04070000  12.010000   ; qtot -78.048624
 4786         h1    165    ccc     H5   4786 0.04610000   1.008000   ; qtot -78.002524
 4787         h1    165    ccc     H6   4787 0.04610000   1.008000   ; qtot -77.956424
 4788         c3    165    ccc     C2   4788 -0.02540000  12.010000   ; qtot -77.981824
 4789         hc    165    ccc     H3   4789 0.00850000   1.008000   ; qtot -77.973324
 4790         hc    165    ccc     H4   4790 0.00850000   1.008000   ; qtot -77.964824
 4791         c3    165    ccc     C1   4791 0.60210000  12.010000   ; qtot -77.362724
 4792         h1    165    ccc     H1   4792 -0.09250000   1.008000   ; qtot -77.455224
 4793         h1    165    ccc     H2   4793 -0.09250000   1.008000   ; qtot -77.547724
 4794         n3    165    ccc     N1   4794 -0.59700000  14.010000   ; qtot -78.144724
 4795         c3    165    ccc     C4   4795 0.32800000  12.010000   ; qtot -77.816724
 4796         h1    165    ccc     H7   4796 -0.07120000   1.008000   ; qtot -77.887924
 4797         h1    165    ccc     H8   4797 -0.07120000   1.008000   ; qtot -77.959124
 4798         c3    165    ccc     C5   4798 -0.39330000  12.010000   ; qtot -78.352424
 4799         hc    165    ccc     H9   4799 0.08130000   1.008000   ; qtot -78.271124
 4800         hc    165    ccc    H10   4800 0.08130000   1.008000   ; qtot -78.189824
 4801          c    165    ccc     C6   4801 1.08970000  12.010000   ; qtot -77.100124
 4802          o    165    ccc     O2   4802 -0.96050000  16.000000   ; qtot -78.060624
 4803          o    165    ccc     O3   4803 -0.96050000  16.000000   ; qtot -79.021124
 4804         c3    165    ccc     C7   4804 0.32800000  12.010000   ; qtot -78.693124
 4805         h1    165    ccc    H11   4805 -0.07120000   1.008000   ; qtot -78.764324
 4806         h1    165    ccc    H12   4806 -0.07120000   1.008000   ; qtot -78.835524
 4807         c3    165    ccc     C8   4807 -0.39330000  12.010000   ; qtot -79.228824
 4808         hc    165    ccc    H13   4808 0.08130000   1.008000   ; qtot -79.147524
 4809         hc    165    ccc    H14   4809 0.08130000   1.008000   ; qtot -79.066224
 4810          c    165    ccc     C9   4810 1.08970000  12.010000   ; qtot -77.976524
 4811          o    165    ccc     O4   4811 -0.96050000  16.000000   ; qtot -78.937024
 4812          o    165    ccc     O5   4812 -0.96050000  16.000000   ; qtot -79.897524
 4813         os    165    ccc     O1   4813 -0.11060000  16.000000   ; qtot -80.008124
; residue  166 ccc rtp ccc q -2.0
 4814         c3    166    ccc     C3   4814 -0.04070000  12.010000   ; qtot -80.048824
 4815         h1    166    ccc     H5   4815 0.04610000   1.008000   ; qtot -80.002724
 4816         h1    166    ccc     H6   4816 0.04610000   1.008000   ; qtot -79.956624
 4817         c3    166    ccc     C2   4817 -0.02540000  12.010000   ; qtot -79.982024
 4818         hc    166    ccc     H3   4818 0.00850000   1.008000   ; qtot -79.973524
 4819         hc    166    ccc     H4   4819 0.00850000   1.008000   ; qtot -79.965024
 4820         c3    166    ccc     C1   4820 0.60210000  12.010000   ; qtot -79.362924
 4821         h1    166    ccc     H1   4821 -0.09250000   1.008000   ; qtot -79.455424
 4822         h1    166    ccc     H2   4822 -0.09250000   1.008000   ; qtot -79.547924
 4823         n3    166    ccc     N1   4823 -0.59700000  14.010000   ; qtot -80.144924
 4824         c3    166    ccc     C4   4824 0.32800000  12.010000   ; qtot -79.816924
 4825         h1    166    ccc     H7   4825 -0.07120000   1.008000   ; qtot -79.888124
 4826         h1    166    ccc     H8   4826 -0.07120000   1.008000   ; qtot -79.959324
 4827         c3    166    ccc     C5   4827 -0.39330000  12.010000   ; qtot -80.352624
 4828         hc    166    ccc     H9   4828 0.08130000   1.008000   ; qtot -80.271324
 4829         hc    166    ccc    H10   4829 0.08130000   1.008000   ; qtot -80.190024
 4830          c    166    ccc     C6   4830 1.08970000  12.010000   ; qtot -79.100324
 4831          o    166    ccc     O2   4831 -0.96050000  16.000000   ; qtot -80.060824
 4832          o    166    ccc     O3   4832 -0.96050000  16.000000   ; qtot -81.021324
 4833         c3    166    ccc     C7   4833 0.32800000  12.010000   ; qtot -80.693324
 4834         h1    166    ccc    H11   4834 -0.07120000   1.008000   ; qtot -80.764524
 4835         h1    166    ccc    H12   4835 -0.07120000   1.008000   ; qtot -80.835724
 4836         c3    166    ccc     C8   4836 -0.39330000  12.010000   ; qtot -81.229024
 4837         hc    166    ccc    H13   4837 0.08130000   1.008000   ; qtot -81.147724
 4838         hc    166    ccc    H14   4838 0.08130000   1.008000   ; qtot -81.066424
 4839          c    166    ccc     C9   4839 1.08970000  12.010000   ; qtot -79.976724
 4840          o    166    ccc     O4   4840 -0.96050000  16.000000   ; qtot -80.937224
 4841          o    166    ccc     O5   4841 -0.96050000  16.000000   ; qtot -81.897724
 4842         os    166    ccc     O1   4842 -0.11060000  16.000000   ; qtot -82.008324
; residue  167 ccc rtp ccc q -2.0
 4843         c3    167    ccc     C3   4843 -0.04070000  12.010000   ; qtot -82.049024
 4844         h1    167    ccc     H5   4844 0.04610000   1.008000   ; qtot -82.002924
 4845         h1    167    ccc     H6   4845 0.04610000   1.008000   ; qtot -81.956824
 4846         c3    167    ccc     C2   4846 -0.02540000  12.010000   ; qtot -81.982224
 4847         hc    167    ccc     H3   4847 0.00850000   1.008000   ; qtot -81.973724
 4848         hc    167    ccc     H4   4848 0.00850000   1.008000   ; qtot -81.965224
 4849         c3    167    ccc     C1   4849 0.60210000  12.010000   ; qtot -81.363124
 4850         h1    167    ccc     H1   4850 -0.09250000   1.008000   ; qtot -81.455624
 4851         h1    167    ccc     H2   4851 -0.09250000   1.008000   ; qtot -81.548124
 4852         n3    167    ccc     N1   4852 -0.59700000  14.010000   ; qtot -82.145124
 4853         c3    167    ccc     C4   4853 0.32800000  12.010000   ; qtot -81.817124
 4854         h1    167    ccc     H7   4854 -0.07120000   1.008000   ; qtot -81.888324
 4855         h1    167    ccc     H8   4855 -0.07120000   1.008000   ; qtot -81.959524
 4856         c3    167    ccc     C5   4856 -0.39330000  12.010000   ; qtot -82.352824
 4857         hc    167    ccc     H9   4857 0.08130000   1.008000   ; qtot -82.271524
 4858         hc    167    ccc    H10   4858 0.08130000   1.008000   ; qtot -82.190224
 4859          c    167    ccc     C6   4859 1.08970000  12.010000   ; qtot -81.100524
 4860          o    167    ccc     O2   4860 -0.96050000  16.000000   ; qtot -82.061024
 4861          o    167    ccc     O3   4861 -0.96050000  16.000000   ; qtot -83.021524
 4862         c3    167    ccc     C7   4862 0.32800000  12.010000   ; qtot -82.693524
 4863         h1    167    ccc    H11   4863 -0.07120000   1.008000   ; qtot -82.764724
 4864         h1    167    ccc    H12   4864 -0.07120000   1.008000   ; qtot -82.835924
 4865         c3    167    ccc     C8   4865 -0.39330000  12.010000   ; qtot -83.229224
 4866         hc    167    ccc    H13   4866 0.08130000   1.008000   ; qtot -83.147924
 4867         hc    167    ccc    H14   4867 0.08130000   1.008000   ; qtot -83.066624
 4868          c    167    ccc     C9   4868 1.08970000  12.010000   ; qtot -81.976924
 4869          o    167    ccc     O4   4869 -0.96050000  16.000000   ; qtot -82.937424
 4870          o    167    ccc     O5   4870 -0.96050000  16.000000   ; qtot -83.897924
 4871         os    167    ccc     O1   4871 -0.11060000  16.000000   ; qtot -84.008524
; residue  168 ccc rtp ccc q -2.0
 4872         c3    168    ccc     C3   4872 -0.04070000  12.010000   ; qtot -84.049224
 4873         h1    168    ccc     H5   4873 0.04610000   1.008000   ; qtot -84.003124
 4874         h1    168    ccc     H6   4874 0.04610000   1.008000   ; qtot -83.957024
 4875         c3    168    ccc     C2   4875 -0.02540000  12.010000   ; qtot -83.982424
 4876         hc    168    ccc     H3   4876 0.00850000   1.008000   ; qtot -83.973924
 4877         hc    168    ccc     H4   4877 0.00850000   1.008000   ; qtot -83.965424
 4878         c3    168    ccc     C1   4878 0.60210000  12.010000   ; qtot -83.363324
 4879         h1    168    ccc     H1   4879 -0.09250000   1.008000   ; qtot -83.455824
 4880         h1    168    ccc     H2   4880 -0.09250000   1.008000   ; qtot -83.548324
 4881         n3    168    ccc     N1   4881 -0.59700000  14.010000   ; qtot -84.145324
 4882         c3    168    ccc     C4   4882 0.32800000  12.010000   ; qtot -83.817324
 4883         h1    168    ccc     H7   4883 -0.07120000   1.008000   ; qtot -83.888524
 4884         h1    168    ccc     H8   4884 -0.07120000   1.008000   ; qtot -83.959724
 4885         c3    168    ccc     C5   4885 -0.39330000  12.010000   ; qtot -84.353024
 4886         hc    168    ccc     H9   4886 0.08130000   1.008000   ; qtot -84.271724
 4887         hc    168    ccc    H10   4887 0.08130000   1.008000   ; qtot -84.190424
 4888          c    168    ccc     C6   4888 1.08970000  12.010000   ; qtot -83.100724
 4889          o    168    ccc     O2   4889 -0.96050000  16.000000   ; qtot -84.061224
 4890          o    168    ccc     O3   4890 -0.96050000  16.000000   ; qtot -85.021724
 4891         c3    168    ccc     C7   4891 0.32800000  12.010000   ; qtot -84.693724
 4892         h1    168    ccc    H11   4892 -0.07120000   1.008000   ; qtot -84.764924
 4893         h1    168    ccc    H12   4893 -0.07120000   1.008000   ; qtot -84.836124
 4894         c3    168    ccc     C8   4894 -0.39330000  12.010000   ; qtot -85.229424
 4895         hc    168    ccc    H13   4895 0.08130000   1.008000   ; qtot -85.148124
 4896         hc    168    ccc    H14   4896 0.08130000   1.008000   ; qtot -85.066824
 4897          c    168    ccc     C9   4897 1.08970000  12.010000   ; qtot -83.977124
 4898          o    168    ccc     O4   4898 -0.96050000  16.000000   ; qtot -84.937624
 4899          o    168    ccc     O5   4899 -0.96050000  16.000000   ; qtot -85.898124
 4900         os    168    ccc     O1   4900 -0.11060000  16.000000   ; qtot -86.008724
; residue  169 ccc rtp ccc q -2.0
 4901         c3    169    ccc     C3   4901 -0.04070000  12.010000   ; qtot -86.049424
 4902         h1    169    ccc     H5   4902 0.04610000   1.008000   ; qtot -86.003324
 4903         h1    169    ccc     H6   4903 0.04610000   1.008000   ; qtot -85.957224
 4904         c3    169    ccc     C2   4904 -0.02540000  12.010000   ; qtot -85.982624
 4905         hc    169    ccc     H3   4905 0.00850000   1.008000   ; qtot -85.974124
 4906         hc    169    ccc     H4   4906 0.00850000   1.008000   ; qtot -85.965624
 4907         c3    169    ccc     C1   4907 0.60210000  12.010000   ; qtot -85.363524
 4908         h1    169    ccc     H1   4908 -0.09250000   1.008000   ; qtot -85.456024
 4909         h1    169    ccc     H2   4909 -0.09250000   1.008000   ; qtot -85.548524
 4910         n3    169    ccc     N1   4910 -0.59700000  14.010000   ; qtot -86.145524
 4911         c3    169    ccc     C4   4911 0.32800000  12.010000   ; qtot -85.817524
 4912         h1    169    ccc     H7   4912 -0.07120000   1.008000   ; qtot -85.888724
 4913         h1    169    ccc     H8   4913 -0.07120000   1.008000   ; qtot -85.959924
 4914         c3    169    ccc     C5   4914 -0.39330000  12.010000   ; qtot -86.353224
 4915         hc    169    ccc     H9   4915 0.08130000   1.008000   ; qtot -86.271924
 4916         hc    169    ccc    H10   4916 0.08130000   1.008000   ; qtot -86.190624
 4917          c    169    ccc     C6   4917 1.08970000  12.010000   ; qtot -85.100924
 4918          o    169    ccc     O2   4918 -0.96050000  16.000000   ; qtot -86.061424
 4919          o    169    ccc     O3   4919 -0.96050000  16.000000   ; qtot -87.021924
 4920         c3    169    ccc     C7   4920 0.32800000  12.010000   ; qtot -86.693924
 4921         h1    169    ccc    H11   4921 -0.07120000   1.008000   ; qtot -86.765124
 4922         h1    169    ccc    H12   4922 -0.07120000   1.008000   ; qtot -86.836324
 4923         c3    169    ccc     C8   4923 -0.39330000  12.010000   ; qtot -87.229624
 4924         hc    169    ccc    H13   4924 0.08130000   1.008000   ; qtot -87.148324
 4925         hc    169    ccc    H14   4925 0.08130000   1.008000   ; qtot -87.067024
 4926          c    169    ccc     C9   4926 1.08970000  12.010000   ; qtot -85.977324
 4927          o    169    ccc     O4   4927 -0.96050000  16.000000   ; qtot -86.937824
 4928          o    169    ccc     O5   4928 -0.96050000  16.000000   ; qtot -87.898324
 4929         os    169    ccc     O1   4929 -0.11060000  16.000000   ; qtot -88.008924
; residue  170 ccc rtp ccc q -2.0
 4930         c3    170    ccc     C3   4930 -0.04070000  12.010000   ; qtot -88.049624
 4931         h1    170    ccc     H5   4931 0.04610000   1.008000   ; qtot -88.003524
 4932         h1    170    ccc     H6   4932 0.04610000   1.008000   ; qtot -87.957424
 4933         c3    170    ccc     C2   4933 -0.02540000  12.010000   ; qtot -87.982824
 4934         hc    170    ccc     H3   4934 0.00850000   1.008000   ; qtot -87.974324
 4935         hc    170    ccc     H4   4935 0.00850000   1.008000   ; qtot -87.965824
 4936         c3    170    ccc     C1   4936 0.60210000  12.010000   ; qtot -87.363724
 4937         h1    170    ccc     H1   4937 -0.09250000   1.008000   ; qtot -87.456224
 4938         h1    170    ccc     H2   4938 -0.09250000   1.008000   ; qtot -87.548724
 4939         n3    170    ccc     N1   4939 -0.59700000  14.010000   ; qtot -88.145724
 4940         c3    170    ccc     C4   4940 0.32800000  12.010000   ; qtot -87.817724
 4941         h1    170    ccc     H7   4941 -0.07120000   1.008000   ; qtot -87.888924
 4942         h1    170    ccc     H8   4942 -0.07120000   1.008000   ; qtot -87.960124
 4943         c3    170    ccc     C5   4943 -0.39330000  12.010000   ; qtot -88.353424
 4944         hc    170    ccc     H9   4944 0.08130000   1.008000   ; qtot -88.272124
 4945         hc    170    ccc    H10   4945 0.08130000   1.008000   ; qtot -88.190824
 4946          c    170    ccc     C6   4946 1.08970000  12.010000   ; qtot -87.101124
 4947          o    170    ccc     O2   4947 -0.96050000  16.000000   ; qtot -88.061624
 4948          o    170    ccc     O3   4948 -0.96050000  16.000000   ; qtot -89.022124
 4949         c3    170    ccc     C7   4949 0.32800000  12.010000   ; qtot -88.694124
 4950         h1    170    ccc    H11   4950 -0.07120000   1.008000   ; qtot -88.765324
 4951         h1    170    ccc    H12   4951 -0.07120000   1.008000   ; qtot -88.836524
 4952         c3    170    ccc     C8   4952 -0.39330000  12.010000   ; qtot -89.229824
 4953         hc    170    ccc    H13   4953 0.08130000   1.008000   ; qtot -89.148524
 4954         hc    170    ccc    H14   4954 0.08130000   1.008000   ; qtot -89.067224
 4955          c    170    ccc     C9   4955 1.08970000  12.010000   ; qtot -87.977524
 4956          o    170    ccc     O4   4956 -0.96050000  16.000000   ; qtot -88.938024
 4957          o    170    ccc     O5   4957 -0.96050000  16.000000   ; qtot -89.898524
 4958         os    170    ccc     O1   4958 -0.11060000  16.000000   ; qtot -90.009124
; residue  171 ccc rtp ccc q -2.0
 4959         c3    171    ccc     C3   4959 -0.04070000  12.010000   ; qtot -90.049824
 4960         h1    171    ccc     H5   4960 0.04610000   1.008000   ; qtot -90.003724
 4961         h1    171    ccc     H6   4961 0.04610000   1.008000   ; qtot -89.957624
 4962         c3    171    ccc     C2   4962 -0.02540000  12.010000   ; qtot -89.983024
 4963         hc    171    ccc     H3   4963 0.00850000   1.008000   ; qtot -89.974524
 4964         hc    171    ccc     H4   4964 0.00850000   1.008000   ; qtot -89.966024
 4965         c3    171    ccc     C1   4965 0.60210000  12.010000   ; qtot -89.363924
 4966         h1    171    ccc     H1   4966 -0.09250000   1.008000   ; qtot -89.456424
 4967         h1    171    ccc     H2   4967 -0.09250000   1.008000   ; qtot -89.548924
 4968         n3    171    ccc     N1   4968 -0.59700000  14.010000   ; qtot -90.145924
 4969         c3    171    ccc     C4   4969 0.32800000  12.010000   ; qtot -89.817924
 4970         h1    171    ccc     H7   4970 -0.07120000   1.008000   ; qtot -89.889124
 4971         h1    171    ccc     H8   4971 -0.07120000   1.008000   ; qtot -89.960324
 4972         c3    171    ccc     C5   4972 -0.39330000  12.010000   ; qtot -90.353624
 4973         hc    171    ccc     H9   4973 0.08130000   1.008000   ; qtot -90.272324
 4974         hc    171    ccc    H10   4974 0.08130000   1.008000   ; qtot -90.191024
 4975          c    171    ccc     C6   4975 1.08970000  12.010000   ; qtot -89.101324
 4976          o    171    ccc     O2   4976 -0.96050000  16.000000   ; qtot -90.061824
 4977          o    171    ccc     O3   4977 -0.96050000  16.000000   ; qtot -91.022324
 4978         c3    171    ccc     C7   4978 0.32800000  12.010000   ; qtot -90.694324
 4979         h1    171    ccc    H11   4979 -0.07120000   1.008000   ; qtot -90.765524
 4980         h1    171    ccc    H12   4980 -0.07120000   1.008000   ; qtot -90.836724
 4981         c3    171    ccc     C8   4981 -0.39330000  12.010000   ; qtot -91.230024
 4982         hc    171    ccc    H13   4982 0.08130000   1.008000   ; qtot -91.148724
 4983         hc    171    ccc    H14   4983 0.08130000   1.008000   ; qtot -91.067424
 4984          c    171    ccc     C9   4984 1.08970000  12.010000   ; qtot -89.977724
 4985          o    171    ccc     O4   4985 -0.96050000  16.000000   ; qtot -90.938224
 4986          o    171    ccc     O5   4986 -0.96050000  16.000000   ; qtot -91.898724
 4987         os    171    ccc     O1   4987 -0.11060000  16.000000   ; qtot -92.009324
; residue  172 ccc rtp ccc q -2.0
 4988         c3    172    ccc     C3   4988 -0.04070000  12.010000   ; qtot -92.050024
 4989         h1    172    ccc     H5   4989 0.04610000   1.008000   ; qtot -92.003924
 4990         h1    172    ccc     H6   4990 0.04610000   1.008000   ; qtot -91.957824
 4991         c3    172    ccc     C2   4991 -0.02540000  12.010000   ; qtot -91.983224
 4992         hc    172    ccc     H3   4992 0.00850000   1.008000   ; qtot -91.974724
 4993         hc    172    ccc     H4   4993 0.00850000   1.008000   ; qtot -91.966224
 4994         c3    172    ccc     C1   4994 0.60210000  12.010000   ; qtot -91.364124
 4995         h1    172    ccc     H1   4995 -0.09250000   1.008000   ; qtot -91.456624
 4996         h1    172    ccc     H2   4996 -0.09250000   1.008000   ; qtot -91.549124
 4997         n3    172    ccc     N1   4997 -0.59700000  14.010000   ; qtot -92.146124
 4998         c3    172    ccc     C4   4998 0.32800000  12.010000   ; qtot -91.818124
 4999         h1    172    ccc     H7   4999 -0.07120000   1.008000   ; qtot -91.889324
 5000         h1    172    ccc     H8   5000 -0.07120000   1.008000   ; qtot -91.960524
 5001         c3    172    ccc     C5   5001 -0.39330000  12.010000   ; qtot -92.353824
 5002         hc    172    ccc     H9   5002 0.08130000   1.008000   ; qtot -92.272524
 5003         hc    172    ccc    H10   5003 0.08130000   1.008000   ; qtot -92.191224
 5004          c    172    ccc     C6   5004 1.08970000  12.010000   ; qtot -91.101524
 5005          o    172    ccc     O2   5005 -0.96050000  16.000000   ; qtot -92.062024
 5006          o    172    ccc     O3   5006 -0.96050000  16.000000   ; qtot -93.022524
 5007         c3    172    ccc     C7   5007 0.32800000  12.010000   ; qtot -92.694524
 5008         h1    172    ccc    H11   5008 -0.07120000   1.008000   ; qtot -92.765724
 5009         h1    172    ccc    H12   5009 -0.07120000   1.008000   ; qtot -92.836924
 5010         c3    172    ccc     C8   5010 -0.39330000  12.010000   ; qtot -93.230224
 5011         hc    172    ccc    H13   5011 0.08130000   1.008000   ; qtot -93.148924
 5012         hc    172    ccc    H14   5012 0.08130000   1.008000   ; qtot -93.067624
 5013          c    172    ccc     C9   5013 1.08970000  12.010000   ; qtot -91.977924
 5014          o    172    ccc     O4   5014 -0.96050000  16.000000   ; qtot -92.938424
 5015          o    172    ccc     O5   5015 -0.96050000  16.000000   ; qtot -93.898924
 5016         os    172    ccc     O1   5016 -0.11060000  16.000000   ; qtot -94.009524
; residue  173 ccc rtp ccc q -2.0
 5017         c3    173    ccc     C3   5017 -0.04070000  12.010000   ; qtot -94.050224
 5018         h1    173    ccc     H5   5018 0.04610000   1.008000   ; qtot -94.004124
 5019         h1    173    ccc     H6   5019 0.04610000   1.008000   ; qtot -93.958024
 5020         c3    173    ccc     C2   5020 -0.02540000  12.010000   ; qtot -93.983424
 5021         hc    173    ccc     H3   5021 0.00850000   1.008000   ; qtot -93.974924
 5022         hc    173    ccc     H4   5022 0.00850000   1.008000   ; qtot -93.966424
 5023         c3    173    ccc     C1   5023 0.60210000  12.010000   ; qtot -93.364324
 5024         h1    173    ccc     H1   5024 -0.09250000   1.008000   ; qtot -93.456824
 5025         h1    173    ccc     H2   5025 -0.09250000   1.008000   ; qtot -93.549324
 5026         n3    173    ccc     N1   5026 -0.59700000  14.010000   ; qtot -94.146324
 5027         c3    173    ccc     C4   5027 0.32800000  12.010000   ; qtot -93.818324
 5028         h1    173    ccc     H7   5028 -0.07120000   1.008000   ; qtot -93.889524
 5029         h1    173    ccc     H8   5029 -0.07120000   1.008000   ; qtot -93.960724
 5030         c3    173    ccc     C5   5030 -0.39330000  12.010000   ; qtot -94.354024
 5031         hc    173    ccc     H9   5031 0.08130000   1.008000   ; qtot -94.272724
 5032         hc    173    ccc    H10   5032 0.08130000   1.008000   ; qtot -94.191424
 5033          c    173    ccc     C6   5033 1.08970000  12.010000   ; qtot -93.101724
 5034          o    173    ccc     O2   5034 -0.96050000  16.000000   ; qtot -94.062224
 5035          o    173    ccc     O3   5035 -0.96050000  16.000000   ; qtot -95.022724
 5036         c3    173    ccc     C7   5036 0.32800000  12.010000   ; qtot -94.694724
 5037         h1    173    ccc    H11   5037 -0.07120000   1.008000   ; qtot -94.765924
 5038         h1    173    ccc    H12   5038 -0.07120000   1.008000   ; qtot -94.837124
 5039         c3    173    ccc     C8   5039 -0.39330000  12.010000   ; qtot -95.230424
 5040         hc    173    ccc    H13   5040 0.08130000   1.008000   ; qtot -95.149124
 5041         hc    173    ccc    H14   5041 0.08130000   1.008000   ; qtot -95.067824
 5042          c    173    ccc     C9   5042 1.08970000  12.010000   ; qtot -93.978124
 5043          o    173    ccc     O4   5043 -0.96050000  16.000000   ; qtot -94.938624
 5044          o    173    ccc     O5   5044 -0.96050000  16.000000   ; qtot -95.899124
 5045         os    173    ccc     O1   5045 -0.11060000  16.000000   ; qtot -96.009724
; residue  174 ccc rtp ccc q -2.0
 5046         c3    174    ccc     C3   5046 -0.04070000  12.010000   ; qtot -96.050424
 5047         h1    174    ccc     H5   5047 0.04610000   1.008000   ; qtot -96.004324
 5048         h1    174    ccc     H6   5048 0.04610000   1.008000   ; qtot -95.958224
 5049         c3    174    ccc     C2   5049 -0.02540000  12.010000   ; qtot -95.983624
 5050         hc    174    ccc     H3   5050 0.00850000   1.008000   ; qtot -95.975124
 5051         hc    174    ccc     H4   5051 0.00850000   1.008000   ; qtot -95.966624
 5052         c3    174    ccc     C1   5052 0.60210000  12.010000   ; qtot -95.364524
 5053         h1    174    ccc     H1   5053 -0.09250000   1.008000   ; qtot -95.457024
 5054         h1    174    ccc     H2   5054 -0.09250000   1.008000   ; qtot -95.549524
 5055         n3    174    ccc     N1   5055 -0.59700000  14.010000   ; qtot -96.146524
 5056         c3    174    ccc     C4   5056 0.32800000  12.010000   ; qtot -95.818524
 5057         h1    174    ccc     H7   5057 -0.07120000   1.008000   ; qtot -95.889724
 5058         h1    174    ccc     H8   5058 -0.07120000   1.008000   ; qtot -95.960924
 5059         c3    174    ccc     C5   5059 -0.39330000  12.010000   ; qtot -96.354224
 5060         hc    174    ccc     H9   5060 0.08130000   1.008000   ; qtot -96.272924
 5061         hc    174    ccc    H10   5061 0.08130000   1.008000   ; qtot -96.191624
 5062          c    174    ccc     C6   5062 1.08970000  12.010000   ; qtot -95.101924
 5063          o    174    ccc     O2   5063 -0.96050000  16.000000   ; qtot -96.062424
 5064          o    174    ccc     O3   5064 -0.96050000  16.000000   ; qtot -97.022924
 5065         c3    174    ccc     C7   5065 0.32800000  12.010000   ; qtot -96.694924
 5066         h1    174    ccc    H11   5066 -0.07120000   1.008000   ; qtot -96.766124
 5067         h1    174    ccc    H12   5067 -0.07120000   1.008000   ; qtot -96.837324
 5068         c3    174    ccc     C8   5068 -0.39330000  12.010000   ; qtot -97.230624
 5069         hc    174    ccc    H13   5069 0.08130000   1.008000   ; qtot -97.149324
 5070         hc    174    ccc    H14   5070 0.08130000   1.008000   ; qtot -97.068024
 5071          c    174    ccc     C9   5071 1.08970000  12.010000   ; qtot -95.978324
 5072          o    174    ccc     O4   5072 -0.96050000  16.000000   ; qtot -96.938824
 5073          o    174    ccc     O5   5073 -0.96050000  16.000000   ; qtot -97.899324
 5074         os    174    ccc     O1   5074 -0.11060000  16.000000   ; qtot -98.009924
; residue  175 ccc rtp ccc q -2.0
 5075         c3    175    ccc     C3   5075 -0.04070000  12.010000   ; qtot -98.050624
 5076         h1    175    ccc     H5   5076 0.04610000   1.008000   ; qtot -98.004524
 5077         h1    175    ccc     H6   5077 0.04610000   1.008000   ; qtot -97.958424
 5078         c3    175    ccc     C2   5078 -0.02540000  12.010000   ; qtot -97.983824
 5079         hc    175    ccc     H3   5079 0.00850000   1.008000   ; qtot -97.975324
 5080         hc    175    ccc     H4   5080 0.00850000   1.008000   ; qtot -97.966824
 5081         c3    175    ccc     C1   5081 0.60210000  12.010000   ; qtot -97.364724
 5082         h1    175    ccc     H1   5082 -0.09250000   1.008000   ; qtot -97.457224
 5083         h1    175    ccc     H2   5083 -0.09250000   1.008000   ; qtot -97.549724
 5084         n3    175    ccc     N1   5084 -0.59700000  14.010000   ; qtot -98.146724
 5085         c3    175    ccc     C4   5085 0.32800000  12.010000   ; qtot -97.818724
 5086         h1    175    ccc     H7   5086 -0.07120000   1.008000   ; qtot -97.889924
 5087         h1    175    ccc     H8   5087 -0.07120000   1.008000   ; qtot -97.961124
 5088         c3    175    ccc     C5   5088 -0.39330000  12.010000   ; qtot -98.354424
 5089         hc    175    ccc     H9   5089 0.08130000   1.008000   ; qtot -98.273124
 5090         hc    175    ccc    H10   5090 0.08130000   1.008000   ; qtot -98.191824
 5091          c    175    ccc     C6   5091 1.08970000  12.010000   ; qtot -97.102124
 5092          o    175    ccc     O2   5092 -0.96050000  16.000000   ; qtot -98.062624
 5093          o    175    ccc     O3   5093 -0.96050000  16.000000   ; qtot -99.023124
 5094         c3    175    ccc     C7   5094 0.32800000  12.010000   ; qtot -98.695124
 5095         h1    175    ccc    H11   5095 -0.07120000   1.008000   ; qtot -98.766324
 5096         h1    175    ccc    H12   5096 -0.07120000   1.008000   ; qtot -98.837524
 5097         c3    175    ccc     C8   5097 -0.39330000  12.010000   ; qtot -99.230824
 5098         hc    175    ccc    H13   5098 0.08130000   1.008000   ; qtot -99.149524
 5099         hc    175    ccc    H14   5099 0.08130000   1.008000   ; qtot -99.068224
 5100          c    175    ccc     C9   5100 1.08970000  12.010000   ; qtot -97.978524
 5101          o    175    ccc     O4   5101 -0.96050000  16.000000   ; qtot -98.939024
 5102          o    175    ccc     O5   5102 -0.96050000  16.000000   ; qtot -99.899524
 5103         os    175    ccc     O1   5103 -0.11060000  16.000000   ; qtot -100.010124
; residue  176 ccc rtp ccc q -2.0
 5104         c3    176    ccc     C3   5104 -0.04070000  12.010000   ; qtot -100.050824
 5105         h1    176    ccc     H5   5105 0.04610000   1.008000   ; qtot -100.004724
 5106         h1    176    ccc     H6   5106 0.04610000   1.008000   ; qtot -99.958624
 5107         c3    176    ccc     C2   5107 -0.02540000  12.010000   ; qtot -99.984024
 5108         hc    176    ccc     H3   5108 0.00850000   1.008000   ; qtot -99.975524
 5109         hc    176    ccc     H4   5109 0.00850000   1.008000   ; qtot -99.967024
 5110         c3    176    ccc     C1   5110 0.60210000  12.010000   ; qtot -99.364924
 5111         h1    176    ccc     H1   5111 -0.09250000   1.008000   ; qtot -99.457424
 5112         h1    176    ccc     H2   5112 -0.09250000   1.008000   ; qtot -99.549924
 5113         n3    176    ccc     N1   5113 -0.59700000  14.010000   ; qtot -100.146924
 5114         c3    176    ccc     C4   5114 0.32800000  12.010000   ; qtot -99.818924
 5115         h1    176    ccc     H7   5115 -0.07120000   1.008000   ; qtot -99.890124
 5116         h1    176    ccc     H8   5116 -0.07120000   1.008000   ; qtot -99.961324
 5117         c3    176    ccc     C5   5117 -0.39330000  12.010000   ; qtot -100.354624
 5118         hc    176    ccc     H9   5118 0.08130000   1.008000   ; qtot -100.273324
 5119         hc    176    ccc    H10   5119 0.08130000   1.008000   ; qtot -100.192024
 5120          c    176    ccc     C6   5120 1.08970000  12.010000   ; qtot -99.102324
 5121          o    176    ccc     O2   5121 -0.96050000  16.000000   ; qtot -100.062824
 5122          o    176    ccc     O3   5122 -0.96050000  16.000000   ; qtot -101.023324
 5123         c3    176    ccc     C7   5123 0.32800000  12.010000   ; qtot -100.695324
 5124         h1    176    ccc    H11   5124 -0.07120000   1.008000   ; qtot -100.766524
 5125         h1    176    ccc    H12   5125 -0.07120000   1.008000   ; qtot -100.837724
 5126         c3    176    ccc     C8   5126 -0.39330000  12.010000   ; qtot -101.231024
 5127         hc    176    ccc    H13   5127 0.08130000   1.008000   ; qtot -101.149724
 5128         hc    176    ccc    H14   5128 0.08130000   1.008000   ; qtot -101.068424
 5129          c    176    ccc     C9   5129 1.08970000  12.010000   ; qtot -99.978724
 5130          o    176    ccc     O4   5130 -0.96050000  16.000000   ; qtot -100.939224
 5131          o    176    ccc     O5   5131 -0.96050000  16.000000   ; qtot -101.899724
 5132         os    176    ccc     O1   5132 -0.11060000  16.000000   ; qtot -102.010324
; residue  177 ccc rtp ccc q -2.0
 5133         c3    177    ccc     C3   5133 -0.04070000  12.010000   ; qtot -102.051024
 5134         h1    177    ccc     H5   5134 0.04610000   1.008000   ; qtot -102.004924
 5135         h1    177    ccc     H6   5135 0.04610000   1.008000   ; qtot -101.958824
 5136         c3    177    ccc     C2   5136 -0.02540000  12.010000   ; qtot -101.984224
 5137         hc    177    ccc     H3   5137 0.00850000   1.008000   ; qtot -101.975724
 5138         hc    177    ccc     H4   5138 0.00850000   1.008000   ; qtot -101.967224
 5139         c3    177    ccc     C1   5139 0.60210000  12.010000   ; qtot -101.365124
 5140         h1    177    ccc     H1   5140 -0.09250000   1.008000   ; qtot -101.457624
 5141         h1    177    ccc     H2   5141 -0.09250000   1.008000   ; qtot -101.550124
 5142         n3    177    ccc     N1   5142 -0.59700000  14.010000   ; qtot -102.147124
 5143         c3    177    ccc     C4   5143 0.32800000  12.010000   ; qtot -101.819124
 5144         h1    177    ccc     H7   5144 -0.07120000   1.008000   ; qtot -101.890324
 5145         h1    177    ccc     H8   5145 -0.07120000   1.008000   ; qtot -101.961524
 5146         c3    177    ccc     C5   5146 -0.39330000  12.010000   ; qtot -102.354824
 5147         hc    177    ccc     H9   5147 0.08130000   1.008000   ; qtot -102.273524
 5148         hc    177    ccc    H10   5148 0.08130000   1.008000   ; qtot -102.192224
 5149          c    177    ccc     C6   5149 1.08970000  12.010000   ; qtot -101.102524
 5150          o    177    ccc     O2   5150 -0.96050000  16.000000   ; qtot -102.063024
 5151          o    177    ccc     O3   5151 -0.96050000  16.000000   ; qtot -103.023524
 5152         c3    177    ccc     C7   5152 0.32800000  12.010000   ; qtot -102.695524
 5153         h1    177    ccc    H11   5153 -0.07120000   1.008000   ; qtot -102.766724
 5154         h1    177    ccc    H12   5154 -0.07120000   1.008000   ; qtot -102.837924
 5155         c3    177    ccc     C8   5155 -0.39330000  12.010000   ; qtot -103.231224
 5156         hc    177    ccc    H13   5156 0.08130000   1.008000   ; qtot -103.149924
 5157         hc    177    ccc    H14   5157 0.08130000   1.008000   ; qtot -103.068624
 5158          c    177    ccc     C9   5158 1.08970000  12.010000   ; qtot -101.978924
 5159          o    177    ccc     O4   5159 -0.96050000  16.000000   ; qtot -102.939424
 5160          o    177    ccc     O5   5160 -0.96050000  16.000000   ; qtot -103.899924
 5161         os    177    ccc     O1   5161 -0.11060000  16.000000   ; qtot -104.010524
; residue  178 ccc rtp ccc q -2.0
 5162         c3    178    ccc     C3   5162 -0.04070000  12.010000   ; qtot -104.051224
 5163         h1    178    ccc     H5   5163 0.04610000   1.008000   ; qtot -104.005124
 5164         h1    178    ccc     H6   5164 0.04610000   1.008000   ; qtot -103.959024
 5165         c3    178    ccc     C2   5165 -0.02540000  12.010000   ; qtot -103.984424
 5166         hc    178    ccc     H3   5166 0.00850000   1.008000   ; qtot -103.975924
 5167         hc    178    ccc     H4   5167 0.00850000   1.008000   ; qtot -103.967424
 5168         c3    178    ccc     C1   5168 0.60210000  12.010000   ; qtot -103.365324
 5169         h1    178    ccc     H1   5169 -0.09250000   1.008000   ; qtot -103.457824
 5170         h1    178    ccc     H2   5170 -0.09250000   1.008000   ; qtot -103.550324
 5171         n3    178    ccc     N1   5171 -0.59700000  14.010000   ; qtot -104.147324
 5172         c3    178    ccc     C4   5172 0.32800000  12.010000   ; qtot -103.819324
 5173         h1    178    ccc     H7   5173 -0.07120000   1.008000   ; qtot -103.890524
 5174         h1    178    ccc     H8   5174 -0.07120000   1.008000   ; qtot -103.961724
 5175         c3    178    ccc     C5   5175 -0.39330000  12.010000   ; qtot -104.355024
 5176         hc    178    ccc     H9   5176 0.08130000   1.008000   ; qtot -104.273724
 5177         hc    178    ccc    H10   5177 0.08130000   1.008000   ; qtot -104.192424
 5178          c    178    ccc     C6   5178 1.08970000  12.010000   ; qtot -103.102724
 5179          o    178    ccc     O2   5179 -0.96050000  16.000000   ; qtot -104.063224
 5180          o    178    ccc     O3   5180 -0.96050000  16.000000   ; qtot -105.023724
 5181         c3    178    ccc     C7   5181 0.32800000  12.010000   ; qtot -104.695724
 5182         h1    178    ccc    H11   5182 -0.07120000   1.008000   ; qtot -104.766924
 5183         h1    178    ccc    H12   5183 -0.07120000   1.008000   ; qtot -104.838124
 5184         c3    178    ccc     C8   5184 -0.39330000  12.010000   ; qtot -105.231424
 5185         hc    178    ccc    H13   5185 0.08130000   1.008000   ; qtot -105.150124
 5186         hc    178    ccc    H14   5186 0.08130000   1.008000   ; qtot -105.068824
 5187          c    178    ccc     C9   5187 1.08970000  12.010000   ; qtot -103.979124
 5188          o    178    ccc     O4   5188 -0.96050000  16.000000   ; qtot -104.939624
 5189          o    178    ccc     O5   5189 -0.96050000  16.000000   ; qtot -105.900124
 5190         os    178    ccc     O1   5190 -0.11060000  16.000000   ; qtot -106.010724
; residue  179 ccc rtp ccc q -2.0
 5191         c3    179    ccc     C3   5191 -0.04070000  12.010000   ; qtot -106.051424
 5192         h1    179    ccc     H5   5192 0.04610000   1.008000   ; qtot -106.005324
 5193         h1    179    ccc     H6   5193 0.04610000   1.008000   ; qtot -105.959224
 5194         c3    179    ccc     C2   5194 -0.02540000  12.010000   ; qtot -105.984624
 5195         hc    179    ccc     H3   5195 0.00850000   1.008000   ; qtot -105.976124
 5196         hc    179    ccc     H4   5196 0.00850000   1.008000   ; qtot -105.967624
 5197         c3    179    ccc     C1   5197 0.60210000  12.010000   ; qtot -105.365524
 5198         h1    179    ccc     H1   5198 -0.09250000   1.008000   ; qtot -105.458024
 5199         h1    179    ccc     H2   5199 -0.09250000   1.008000   ; qtot -105.550524
 5200         n3    179    ccc     N1   5200 -0.59700000  14.010000   ; qtot -106.147524
 5201         c3    179    ccc     C4   5201 0.32800000  12.010000   ; qtot -105.819524
 5202         h1    179    ccc     H7   5202 -0.07120000   1.008000   ; qtot -105.890724
 5203         h1    179    ccc     H8   5203 -0.07120000   1.008000   ; qtot -105.961924
 5204         c3    179    ccc     C5   5204 -0.39330000  12.010000   ; qtot -106.355224
 5205         hc    179    ccc     H9   5205 0.08130000   1.008000   ; qtot -106.273924
 5206         hc    179    ccc    H10   5206 0.08130000   1.008000   ; qtot -106.192624
 5207          c    179    ccc     C6   5207 1.08970000  12.010000   ; qtot -105.102924
 5208          o    179    ccc     O2   5208 -0.96050000  16.000000   ; qtot -106.063424
 5209          o    179    ccc     O3   5209 -0.96050000  16.000000   ; qtot -107.023924
 5210         c3    179    ccc     C7   5210 0.32800000  12.010000   ; qtot -106.695924
 5211         h1    179    ccc    H11   5211 -0.07120000   1.008000   ; qtot -106.767124
 5212         h1    179    ccc    H12   5212 -0.07120000   1.008000   ; qtot -106.838324
 5213         c3    179    ccc     C8   5213 -0.39330000  12.010000   ; qtot -107.231624
 5214         hc    179    ccc    H13   5214 0.08130000   1.008000   ; qtot -107.150324
 5215         hc    179    ccc    H14   5215 0.08130000   1.008000   ; qtot -107.069024
 5216          c    179    ccc     C9   5216 1.08970000  12.010000   ; qtot -105.979324
 5217          o    179    ccc     O4   5217 -0.96050000  16.000000   ; qtot -106.939824
 5218          o    179    ccc     O5   5218 -0.96050000  16.000000   ; qtot -107.900324
 5219         os    179    ccc     O1   5219 -0.11060000  16.000000   ; qtot -108.010924
; residue  180 ccc rtp ccc q -2.0
 5220         c3    180    ccc     C3   5220 -0.04070000  12.010000   ; qtot -108.051624
 5221         h1    180    ccc     H5   5221 0.04610000   1.008000   ; qtot -108.005524
 5222         h1    180    ccc     H6   5222 0.04610000   1.008000   ; qtot -107.959424
 5223         c3    180    ccc     C2   5223 -0.02540000  12.010000   ; qtot -107.984824
 5224         hc    180    ccc     H3   5224 0.00850000   1.008000   ; qtot -107.976324
 5225         hc    180    ccc     H4   5225 0.00850000   1.008000   ; qtot -107.967824
 5226         c3    180    ccc     C1   5226 0.60210000  12.010000   ; qtot -107.365724
 5227         h1    180    ccc     H1   5227 -0.09250000   1.008000   ; qtot -107.458224
 5228         h1    180    ccc     H2   5228 -0.09250000   1.008000   ; qtot -107.550724
 5229         n3    180    ccc     N1   5229 -0.59700000  14.010000   ; qtot -108.147724
 5230         c3    180    ccc     C4   5230 0.32800000  12.010000   ; qtot -107.819724
 5231         h1    180    ccc     H7   5231 -0.07120000   1.008000   ; qtot -107.890924
 5232         h1    180    ccc     H8   5232 -0.07120000   1.008000   ; qtot -107.962124
 5233         c3    180    ccc     C5   5233 -0.39330000  12.010000   ; qtot -108.355424
 5234         hc    180    ccc     H9   5234 0.08130000   1.008000   ; qtot -108.274124
 5235         hc    180    ccc    H10   5235 0.08130000   1.008000   ; qtot -108.192824
 5236          c    180    ccc     C6   5236 1.08970000  12.010000   ; qtot -107.103124
 5237          o    180    ccc     O2   5237 -0.96050000  16.000000   ; qtot -108.063624
 5238          o    180    ccc     O3   5238 -0.96050000  16.000000   ; qtot -109.024124
 5239         c3    180    ccc     C7   5239 0.32800000  12.010000   ; qtot -108.696124
 5240         h1    180    ccc    H11   5240 -0.07120000   1.008000   ; qtot -108.767324
 5241         h1    180    ccc    H12   5241 -0.07120000   1.008000   ; qtot -108.838524
 5242         c3    180    ccc     C8   5242 -0.39330000  12.010000   ; qtot -109.231824
 5243         hc    180    ccc    H13   5243 0.08130000   1.008000   ; qtot -109.150524
 5244         hc    180    ccc    H14   5244 0.08130000   1.008000   ; qtot -109.069224
 5245          c    180    ccc     C9   5245 1.08970000  12.010000   ; qtot -107.979524
 5246          o    180    ccc     O4   5246 -0.96050000  16.000000   ; qtot -108.940024
 5247          o    180    ccc     O5   5247 -0.96050000  16.000000   ; qtot -109.900524
 5248         os    180    ccc     O1   5248 -0.11060000  16.000000   ; qtot -110.011124
; residue  181 ccc rtp ccc q -2.0
 5249         c3    181    ccc     C3   5249 -0.04070000  12.010000   ; qtot -110.051824
 5250         h1    181    ccc     H5   5250 0.04610000   1.008000   ; qtot -110.005724
 5251         h1    181    ccc     H6   5251 0.04610000   1.008000   ; qtot -109.959624
 5252         c3    181    ccc     C2   5252 -0.02540000  12.010000   ; qtot -109.985024
 5253         hc    181    ccc     H3   5253 0.00850000   1.008000   ; qtot -109.976524
 5254         hc    181    ccc     H4   5254 0.00850000   1.008000   ; qtot -109.968024
 5255         c3    181    ccc     C1   5255 0.60210000  12.010000   ; qtot -109.365924
 5256         h1    181    ccc     H1   5256 -0.09250000   1.008000   ; qtot -109.458424
 5257         h1    181    ccc     H2   5257 -0.09250000   1.008000   ; qtot -109.550924
 5258         n3    181    ccc     N1   5258 -0.59700000  14.010000   ; qtot -110.147924
 5259         c3    181    ccc     C4   5259 0.32800000  12.010000   ; qtot -109.819924
 5260         h1    181    ccc     H7   5260 -0.07120000   1.008000   ; qtot -109.891124
 5261         h1    181    ccc     H8   5261 -0.07120000   1.008000   ; qtot -109.962324
 5262         c3    181    ccc     C5   5262 -0.39330000  12.010000   ; qtot -110.355624
 5263         hc    181    ccc     H9   5263 0.08130000   1.008000   ; qtot -110.274324
 5264         hc    181    ccc    H10   5264 0.08130000   1.008000   ; qtot -110.193024
 5265          c    181    ccc     C6   5265 1.08970000  12.010000   ; qtot -109.103324
 5266          o    181    ccc     O2   5266 -0.96050000  16.000000   ; qtot -110.063824
 5267          o    181    ccc     O3   5267 -0.96050000  16.000000   ; qtot -111.024324
 5268         c3    181    ccc     C7   5268 0.32800000  12.010000   ; qtot -110.696324
 5269         h1    181    ccc    H11   5269 -0.07120000   1.008000   ; qtot -110.767524
 5270         h1    181    ccc    H12   5270 -0.07120000   1.008000   ; qtot -110.838724
 5271         c3    181    ccc     C8   5271 -0.39330000  12.010000   ; qtot -111.232024
 5272         hc    181    ccc    H13   5272 0.08130000   1.008000   ; qtot -111.150724
 5273         hc    181    ccc    H14   5273 0.08130000   1.008000   ; qtot -111.069424
 5274          c    181    ccc     C9   5274 1.08970000  12.010000   ; qtot -109.979724
 5275          o    181    ccc     O4   5275 -0.96050000  16.000000   ; qtot -110.940224
 5276          o    181    ccc     O5   5276 -0.96050000  16.000000   ; qtot -111.900724
 5277         os    181    ccc     O1   5277 -0.11060000  16.000000   ; qtot -112.011324
; residue  182 ccc rtp ccc q -2.0
 5278         c3    182    ccc     C3   5278 -0.04070000  12.010000   ; qtot -112.052024
 5279         h1    182    ccc     H5   5279 0.04610000   1.008000   ; qtot -112.005924
 5280         h1    182    ccc     H6   5280 0.04610000   1.008000   ; qtot -111.959824
 5281         c3    182    ccc     C2   5281 -0.02540000  12.010000   ; qtot -111.985224
 5282         hc    182    ccc     H3   5282 0.00850000   1.008000   ; qtot -111.976724
 5283         hc    182    ccc     H4   5283 0.00850000   1.008000   ; qtot -111.968224
 5284         c3    182    ccc     C1   5284 0.60210000  12.010000   ; qtot -111.366124
 5285         h1    182    ccc     H1   5285 -0.09250000   1.008000   ; qtot -111.458624
 5286         h1    182    ccc     H2   5286 -0.09250000   1.008000   ; qtot -111.551124
 5287         n3    182    ccc     N1   5287 -0.59700000  14.010000   ; qtot -112.148124
 5288         c3    182    ccc     C4   5288 0.32800000  12.010000   ; qtot -111.820124
 5289         h1    182    ccc     H7   5289 -0.07120000   1.008000   ; qtot -111.891324
 5290         h1    182    ccc     H8   5290 -0.07120000   1.008000   ; qtot -111.962524
 5291         c3    182    ccc     C5   5291 -0.39330000  12.010000   ; qtot -112.355824
 5292         hc    182    ccc     H9   5292 0.08130000   1.008000   ; qtot -112.274524
 5293         hc    182    ccc    H10   5293 0.08130000   1.008000   ; qtot -112.193224
 5294          c    182    ccc     C6   5294 1.08970000  12.010000   ; qtot -111.103524
 5295          o    182    ccc     O2   5295 -0.96050000  16.000000   ; qtot -112.064024
 5296          o    182    ccc     O3   5296 -0.96050000  16.000000   ; qtot -113.024524
 5297         c3    182    ccc     C7   5297 0.32800000  12.010000   ; qtot -112.696524
 5298         h1    182    ccc    H11   5298 -0.07120000   1.008000   ; qtot -112.767724
 5299         h1    182    ccc    H12   5299 -0.07120000   1.008000   ; qtot -112.838924
 5300         c3    182    ccc     C8   5300 -0.39330000  12.010000   ; qtot -113.232224
 5301         hc    182    ccc    H13   5301 0.08130000   1.008000   ; qtot -113.150924
 5302         hc    182    ccc    H14   5302 0.08130000   1.008000   ; qtot -113.069624
 5303          c    182    ccc     C9   5303 1.08970000  12.010000   ; qtot -111.979924
 5304          o    182    ccc     O4   5304 -0.96050000  16.000000   ; qtot -112.940424
 5305          o    182    ccc     O5   5305 -0.96050000  16.000000   ; qtot -113.900924
 5306         os    182    ccc     O1   5306 -0.11060000  16.000000   ; qtot -114.011524
; residue  183 ccc rtp ccc q -2.0
 5307         c3    183    ccc     C3   5307 -0.04070000  12.010000   ; qtot -114.052224
 5308         h1    183    ccc     H5   5308 0.04610000   1.008000   ; qtot -114.006124
 5309         h1    183    ccc     H6   5309 0.04610000   1.008000   ; qtot -113.960024
 5310         c3    183    ccc     C2   5310 -0.02540000  12.010000   ; qtot -113.985424
 5311         hc    183    ccc     H3   5311 0.00850000   1.008000   ; qtot -113.976924
 5312         hc    183    ccc     H4   5312 0.00850000   1.008000   ; qtot -113.968424
 5313         c3    183    ccc     C1   5313 0.60210000  12.010000   ; qtot -113.366324
 5314         h1    183    ccc     H1   5314 -0.09250000   1.008000   ; qtot -113.458824
 5315         h1    183    ccc     H2   5315 -0.09250000   1.008000   ; qtot -113.551324
 5316         n3    183    ccc     N1   5316 -0.59700000  14.010000   ; qtot -114.148324
 5317         c3    183    ccc     C4   5317 0.32800000  12.010000   ; qtot -113.820324
 5318         h1    183    ccc     H7   5318 -0.07120000   1.008000   ; qtot -113.891524
 5319         h1    183    ccc     H8   5319 -0.07120000   1.008000   ; qtot -113.962724
 5320         c3    183    ccc     C5   5320 -0.39330000  12.010000   ; qtot -114.356024
 5321         hc    183    ccc     H9   5321 0.08130000   1.008000   ; qtot -114.274724
 5322         hc    183    ccc    H10   5322 0.08130000   1.008000   ; qtot -114.193424
 5323          c    183    ccc     C6   5323 1.08970000  12.010000   ; qtot -113.103724
 5324          o    183    ccc     O2   5324 -0.96050000  16.000000   ; qtot -114.064224
 5325          o    183    ccc     O3   5325 -0.96050000  16.000000   ; qtot -115.024724
 5326         c3    183    ccc     C7   5326 0.32800000  12.010000   ; qtot -114.696724
 5327         h1    183    ccc    H11   5327 -0.07120000   1.008000   ; qtot -114.767924
 5328         h1    183    ccc    H12   5328 -0.07120000   1.008000   ; qtot -114.839124
 5329         c3    183    ccc     C8   5329 -0.39330000  12.010000   ; qtot -115.232424
 5330         hc    183    ccc    H13   5330 0.08130000   1.008000   ; qtot -115.151124
 5331         hc    183    ccc    H14   5331 0.08130000   1.008000   ; qtot -115.069824
 5332          c    183    ccc     C9   5332 1.08970000  12.010000   ; qtot -113.980124
 5333          o    183    ccc     O4   5333 -0.96050000  16.000000   ; qtot -114.940624
 5334          o    183    ccc     O5   5334 -0.96050000  16.000000   ; qtot -115.901124
 5335         os    183    ccc     O1   5335 -0.11060000  16.000000   ; qtot -116.011724
; residue  184 ccc rtp ccc q -2.0
 5336         c3    184    ccc     C3   5336 -0.04070000  12.010000   ; qtot -116.052424
 5337         h1    184    ccc     H5   5337 0.04610000   1.008000   ; qtot -116.006324
 5338         h1    184    ccc     H6   5338 0.04610000   1.008000   ; qtot -115.960224
 5339         c3    184    ccc     C2   5339 -0.02540000  12.010000   ; qtot -115.985624
 5340         hc    184    ccc     H3   5340 0.00850000   1.008000   ; qtot -115.977124
 5341         hc    184    ccc     H4   5341 0.00850000   1.008000   ; qtot -115.968624
 5342         c3    184    ccc     C1   5342 0.60210000  12.010000   ; qtot -115.366524
 5343         h1    184    ccc     H1   5343 -0.09250000   1.008000   ; qtot -115.459024
 5344         h1    184    ccc     H2   5344 -0.09250000   1.008000   ; qtot -115.551524
 5345         n3    184    ccc     N1   5345 -0.59700000  14.010000   ; qtot -116.148524
 5346         c3    184    ccc     C4   5346 0.32800000  12.010000   ; qtot -115.820524
 5347         h1    184    ccc     H7   5347 -0.07120000   1.008000   ; qtot -115.891724
 5348         h1    184    ccc     H8   5348 -0.07120000   1.008000   ; qtot -115.962924
 5349         c3    184    ccc     C5   5349 -0.39330000  12.010000   ; qtot -116.356224
 5350         hc    184    ccc     H9   5350 0.08130000   1.008000   ; qtot -116.274924
 5351         hc    184    ccc    H10   5351 0.08130000   1.008000   ; qtot -116.193624
 5352          c    184    ccc     C6   5352 1.08970000  12.010000   ; qtot -115.103924
 5353          o    184    ccc     O2   5353 -0.96050000  16.000000   ; qtot -116.064424
 5354          o    184    ccc     O3   5354 -0.96050000  16.000000   ; qtot -117.024924
 5355         c3    184    ccc     C7   5355 0.32800000  12.010000   ; qtot -116.696924
 5356         h1    184    ccc    H11   5356 -0.07120000   1.008000   ; qtot -116.768124
 5357         h1    184    ccc    H12   5357 -0.07120000   1.008000   ; qtot -116.839324
 5358         c3    184    ccc     C8   5358 -0.39330000  12.010000   ; qtot -117.232624
 5359         hc    184    ccc    H13   5359 0.08130000   1.008000   ; qtot -117.151324
 5360         hc    184    ccc    H14   5360 0.08130000   1.008000   ; qtot -117.070024
 5361          c    184    ccc     C9   5361 1.08970000  12.010000   ; qtot -115.980324
 5362          o    184    ccc     O4   5362 -0.96050000  16.000000   ; qtot -116.940824
 5363          o    184    ccc     O5   5363 -0.96050000  16.000000   ; qtot -117.901324
 5364         os    184    ccc     O1   5364 -0.11060000  16.000000   ; qtot -118.011924
; residue  185 ccc rtp ccc q -2.0
 5365         c3    185    ccc     C3   5365 -0.04070000  12.010000   ; qtot -118.052624
 5366         h1    185    ccc     H5   5366 0.04610000   1.008000   ; qtot -118.006524
 5367         h1    185    ccc     H6   5367 0.04610000   1.008000   ; qtot -117.960424
 5368         c3    185    ccc     C2   5368 -0.02540000  12.010000   ; qtot -117.985824
 5369         hc    185    ccc     H3   5369 0.00850000   1.008000   ; qtot -117.977324
 5370         hc    185    ccc     H4   5370 0.00850000   1.008000   ; qtot -117.968824
 5371         c3    185    ccc     C1   5371 0.60210000  12.010000   ; qtot -117.366724
 5372         h1    185    ccc     H1   5372 -0.09250000   1.008000   ; qtot -117.459224
 5373         h1    185    ccc     H2   5373 -0.09250000   1.008000   ; qtot -117.551724
 5374         n3    185    ccc     N1   5374 -0.59700000  14.010000   ; qtot -118.148724
 5375         c3    185    ccc     C4   5375 0.32800000  12.010000   ; qtot -117.820724
 5376         h1    185    ccc     H7   5376 -0.07120000   1.008000   ; qtot -117.891924
 5377         h1    185    ccc     H8   5377 -0.07120000   1.008000   ; qtot -117.963124
 5378         c3    185    ccc     C5   5378 -0.39330000  12.010000   ; qtot -118.356424
 5379         hc    185    ccc     H9   5379 0.08130000   1.008000   ; qtot -118.275124
 5380         hc    185    ccc    H10   5380 0.08130000   1.008000   ; qtot -118.193824
 5381          c    185    ccc     C6   5381 1.08970000  12.010000   ; qtot -117.104124
 5382          o    185    ccc     O2   5382 -0.96050000  16.000000   ; qtot -118.064624
 5383          o    185    ccc     O3   5383 -0.96050000  16.000000   ; qtot -119.025124
 5384         c3    185    ccc     C7   5384 0.32800000  12.010000   ; qtot -118.697124
 5385         h1    185    ccc    H11   5385 -0.07120000   1.008000   ; qtot -118.768324
 5386         h1    185    ccc    H12   5386 -0.07120000   1.008000   ; qtot -118.839524
 5387         c3    185    ccc     C8   5387 -0.39330000  12.010000   ; qtot -119.232824
 5388         hc    185    ccc    H13   5388 0.08130000   1.008000   ; qtot -119.151524
 5389         hc    185    ccc    H14   5389 0.08130000   1.008000   ; qtot -119.070224
 5390          c    185    ccc     C9   5390 1.08970000  12.010000   ; qtot -117.980524
 5391          o    185    ccc     O4   5391 -0.96050000  16.000000   ; qtot -118.941024
 5392          o    185    ccc     O5   5392 -0.96050000  16.000000   ; qtot -119.901524
 5393         os    185    ccc     O1   5393 -0.11060000  16.000000   ; qtot -120.012124
; residue  186 ccc rtp ccc q -2.0
 5394         c3    186    ccc     C3   5394 -0.04070000  12.010000   ; qtot -120.052824
 5395         h1    186    ccc     H5   5395 0.04610000   1.008000   ; qtot -120.006724
 5396         h1    186    ccc     H6   5396 0.04610000   1.008000   ; qtot -119.960624
 5397         c3    186    ccc     C2   5397 -0.02540000  12.010000   ; qtot -119.986024
 5398         hc    186    ccc     H3   5398 0.00850000   1.008000   ; qtot -119.977524
 5399         hc    186    ccc     H4   5399 0.00850000   1.008000   ; qtot -119.969024
 5400         c3    186    ccc     C1   5400 0.60210000  12.010000   ; qtot -119.366924
 5401         h1    186    ccc     H1   5401 -0.09250000   1.008000   ; qtot -119.459424
 5402         h1    186    ccc     H2   5402 -0.09250000   1.008000   ; qtot -119.551924
 5403         n3    186    ccc     N1   5403 -0.59700000  14.010000   ; qtot -120.148924
 5404         c3    186    ccc     C4   5404 0.32800000  12.010000   ; qtot -119.820924
 5405         h1    186    ccc     H7   5405 -0.07120000   1.008000   ; qtot -119.892124
 5406         h1    186    ccc     H8   5406 -0.07120000   1.008000   ; qtot -119.963324
 5407         c3    186    ccc     C5   5407 -0.39330000  12.010000   ; qtot -120.356624
 5408         hc    186    ccc     H9   5408 0.08130000   1.008000   ; qtot -120.275324
 5409         hc    186    ccc    H10   5409 0.08130000   1.008000   ; qtot -120.194024
 5410          c    186    ccc     C6   5410 1.08970000  12.010000   ; qtot -119.104324
 5411          o    186    ccc     O2   5411 -0.96050000  16.000000   ; qtot -120.064824
 5412          o    186    ccc     O3   5412 -0.96050000  16.000000   ; qtot -121.025324
 5413         c3    186    ccc     C7   5413 0.32800000  12.010000   ; qtot -120.697324
 5414         h1    186    ccc    H11   5414 -0.07120000   1.008000   ; qtot -120.768524
 5415         h1    186    ccc    H12   5415 -0.07120000   1.008000   ; qtot -120.839724
 5416         c3    186    ccc     C8   5416 -0.39330000  12.010000   ; qtot -121.233024
 5417         hc    186    ccc    H13   5417 0.08130000   1.008000   ; qtot -121.151724
 5418         hc    186    ccc    H14   5418 0.08130000   1.008000   ; qtot -121.070424
 5419          c    186    ccc     C9   5419 1.08970000  12.010000   ; qtot -119.980724
 5420          o    186    ccc     O4   5420 -0.96050000  16.000000   ; qtot -120.941224
 5421          o    186    ccc     O5   5421 -0.96050000  16.000000   ; qtot -121.901724
 5422         os    186    ccc     O1   5422 -0.11060000  16.000000   ; qtot -122.012324
; residue  187 ccc rtp ccc q -2.0
 5423         c3    187    ccc     C3   5423 -0.04070000  12.010000   ; qtot -122.053024
 5424         h1    187    ccc     H5   5424 0.04610000   1.008000   ; qtot -122.006924
 5425         h1    187    ccc     H6   5425 0.04610000   1.008000   ; qtot -121.960824
 5426         c3    187    ccc     C2   5426 -0.02540000  12.010000   ; qtot -121.986224
 5427         hc    187    ccc     H3   5427 0.00850000   1.008000   ; qtot -121.977724
 5428         hc    187    ccc     H4   5428 0.00850000   1.008000   ; qtot -121.969224
 5429         c3    187    ccc     C1   5429 0.60210000  12.010000   ; qtot -121.367124
 5430         h1    187    ccc     H1   5430 -0.09250000   1.008000   ; qtot -121.459624
 5431         h1    187    ccc     H2   5431 -0.09250000   1.008000   ; qtot -121.552124
 5432         n3    187    ccc     N1   5432 -0.59700000  14.010000   ; qtot -122.149124
 5433         c3    187    ccc     C4   5433 0.32800000  12.010000   ; qtot -121.821124
 5434         h1    187    ccc     H7   5434 -0.07120000   1.008000   ; qtot -121.892324
 5435         h1    187    ccc     H8   5435 -0.07120000   1.008000   ; qtot -121.963524
 5436         c3    187    ccc     C5   5436 -0.39330000  12.010000   ; qtot -122.356824
 5437         hc    187    ccc     H9   5437 0.08130000   1.008000   ; qtot -122.275524
 5438         hc    187    ccc    H10   5438 0.08130000   1.008000   ; qtot -122.194224
 5439          c    187    ccc     C6   5439 1.08970000  12.010000   ; qtot -121.104524
 5440          o    187    ccc     O2   5440 -0.96050000  16.000000   ; qtot -122.065024
 5441          o    187    ccc     O3   5441 -0.96050000  16.000000   ; qtot -123.025524
 5442         c3    187    ccc     C7   5442 0.32800000  12.010000   ; qtot -122.697524
 5443         h1    187    ccc    H11   5443 -0.07120000   1.008000   ; qtot -122.768724
 5444         h1    187    ccc    H12   5444 -0.07120000   1.008000   ; qtot -122.839924
 5445         c3    187    ccc     C8   5445 -0.39330000  12.010000   ; qtot -123.233224
 5446         hc    187    ccc    H13   5446 0.08130000   1.008000   ; qtot -123.151924
 5447         hc    187    ccc    H14   5447 0.08130000   1.008000   ; qtot -123.070624
 5448          c    187    ccc     C9   5448 1.08970000  12.010000   ; qtot -121.980924
 5449          o    187    ccc     O4   5449 -0.96050000  16.000000   ; qtot -122.941424
 5450          o    187    ccc     O5   5450 -0.96050000  16.000000   ; qtot -123.901924
 5451         os    187    ccc     O1   5451 -0.11060000  16.000000   ; qtot -124.012524
; residue  188 ccc rtp ccc q -2.0
 5452         c3    188    ccc     C3   5452 -0.04070000  12.010000   ; qtot -124.053224
 5453         h1    188    ccc     H5   5453 0.04610000   1.008000   ; qtot -124.007124
 5454         h1    188    ccc     H6   5454 0.04610000   1.008000   ; qtot -123.961024
 5455         c3    188    ccc     C2   5455 -0.02540000  12.010000   ; qtot -123.986424
 5456         hc    188    ccc     H3   5456 0.00850000   1.008000   ; qtot -123.977924
 5457         hc    188    ccc     H4   5457 0.00850000   1.008000   ; qtot -123.969424
 5458         c3    188    ccc     C1   5458 0.60210000  12.010000   ; qtot -123.367324
 5459         h1    188    ccc     H1   5459 -0.09250000   1.008000   ; qtot -123.459824
 5460         h1    188    ccc     H2   5460 -0.09250000   1.008000   ; qtot -123.552324
 5461         n3    188    ccc     N1   5461 -0.59700000  14.010000   ; qtot -124.149324
 5462         c3    188    ccc     C4   5462 0.32800000  12.010000   ; qtot -123.821324
 5463         h1    188    ccc     H7   5463 -0.07120000   1.008000   ; qtot -123.892524
 5464         h1    188    ccc     H8   5464 -0.07120000   1.008000   ; qtot -123.963724
 5465         c3    188    ccc     C5   5465 -0.39330000  12.010000   ; qtot -124.357024
 5466         hc    188    ccc     H9   5466 0.08130000   1.008000   ; qtot -124.275724
 5467         hc    188    ccc    H10   5467 0.08130000   1.008000   ; qtot -124.194424
 5468          c    188    ccc     C6   5468 1.08970000  12.010000   ; qtot -123.104724
 5469          o    188    ccc     O2   5469 -0.96050000  16.000000   ; qtot -124.065224
 5470          o    188    ccc     O3   5470 -0.96050000  16.000000   ; qtot -125.025724
 5471         c3    188    ccc     C7   5471 0.32800000  12.010000   ; qtot -124.697724
 5472         h1    188    ccc    H11   5472 -0.07120000   1.008000   ; qtot -124.768924
 5473         h1    188    ccc    H12   5473 -0.07120000   1.008000   ; qtot -124.840124
 5474         c3    188    ccc     C8   5474 -0.39330000  12.010000   ; qtot -125.233424
 5475         hc    188    ccc    H13   5475 0.08130000   1.008000   ; qtot -125.152124
 5476         hc    188    ccc    H14   5476 0.08130000   1.008000   ; qtot -125.070824
 5477          c    188    ccc     C9   5477 1.08970000  12.010000   ; qtot -123.981124
 5478          o    188    ccc     O4   5478 -0.96050000  16.000000   ; qtot -124.941624
 5479          o    188    ccc     O5   5479 -0.96050000  16.000000   ; qtot -125.902124
 5480         os    188    ccc     O1   5480 -0.11060000  16.000000   ; qtot -126.012724
; residue  189 ccc rtp ccc q -2.0
 5481         c3    189    ccc     C3   5481 -0.04070000  12.010000   ; qtot -126.053424
 5482         h1    189    ccc     H5   5482 0.04610000   1.008000   ; qtot -126.007324
 5483         h1    189    ccc     H6   5483 0.04610000   1.008000   ; qtot -125.961224
 5484         c3    189    ccc     C2   5484 -0.02540000  12.010000   ; qtot -125.986624
 5485         hc    189    ccc     H3   5485 0.00850000   1.008000   ; qtot -125.978124
 5486         hc    189    ccc     H4   5486 0.00850000   1.008000   ; qtot -125.969624
 5487         c3    189    ccc     C1   5487 0.60210000  12.010000   ; qtot -125.367524
 5488         h1    189    ccc     H1   5488 -0.09250000   1.008000   ; qtot -125.460024
 5489         h1    189    ccc     H2   5489 -0.09250000   1.008000   ; qtot -125.552524
 5490         n3    189    ccc     N1   5490 -0.59700000  14.010000   ; qtot -126.149524
 5491         c3    189    ccc     C4   5491 0.32800000  12.010000   ; qtot -125.821524
 5492         h1    189    ccc     H7   5492 -0.07120000   1.008000   ; qtot -125.892724
 5493         h1    189    ccc     H8   5493 -0.07120000   1.008000   ; qtot -125.963924
 5494         c3    189    ccc     C5   5494 -0.39330000  12.010000   ; qtot -126.357224
 5495         hc    189    ccc     H9   5495 0.08130000   1.008000   ; qtot -126.275924
 5496         hc    189    ccc    H10   5496 0.08130000   1.008000   ; qtot -126.194624
 5497          c    189    ccc     C6   5497 1.08970000  12.010000   ; qtot -125.104924
 5498          o    189    ccc     O2   5498 -0.96050000  16.000000   ; qtot -126.065424
 5499          o    189    ccc     O3   5499 -0.96050000  16.000000   ; qtot -127.025924
 5500         c3    189    ccc     C7   5500 0.32800000  12.010000   ; qtot -126.697924
 5501         h1    189    ccc    H11   5501 -0.07120000   1.008000   ; qtot -126.769124
 5502         h1    189    ccc    H12   5502 -0.07120000   1.008000   ; qtot -126.840324
 5503         c3    189    ccc     C8   5503 -0.39330000  12.010000   ; qtot -127.233624
 5504         hc    189    ccc    H13   5504 0.08130000   1.008000   ; qtot -127.152324
 5505         hc    189    ccc    H14   5505 0.08130000   1.008000   ; qtot -127.071024
 5506          c    189    ccc     C9   5506 1.08970000  12.010000   ; qtot -125.981324
 5507          o    189    ccc     O4   5507 -0.96050000  16.000000   ; qtot -126.941824
 5508          o    189    ccc     O5   5508 -0.96050000  16.000000   ; qtot -127.902324
 5509         os    189    ccc     O1   5509 -0.11060000  16.000000   ; qtot -128.012924
; residue  190 ccc rtp ccc q -2.0
 5510         c3    190    ccc     C3   5510 -0.04070000  12.010000   ; qtot -128.053624
 5511         h1    190    ccc     H5   5511 0.04610000   1.008000   ; qtot -128.007524
 5512         h1    190    ccc     H6   5512 0.04610000   1.008000   ; qtot -127.961424
 5513         c3    190    ccc     C2   5513 -0.02540000  12.010000   ; qtot -127.986824
 5514         hc    190    ccc     H3   5514 0.00850000   1.008000   ; qtot -127.978324
 5515         hc    190    ccc     H4   5515 0.00850000   1.008000   ; qtot -127.969824
 5516         c3    190    ccc     C1   5516 0.60210000  12.010000   ; qtot -127.367724
 5517         h1    190    ccc     H1   5517 -0.09250000   1.008000   ; qtot -127.460224
 5518         h1    190    ccc     H2   5518 -0.09250000   1.008000   ; qtot -127.552724
 5519         n3    190    ccc     N1   5519 -0.59700000  14.010000   ; qtot -128.149724
 5520         c3    190    ccc     C4   5520 0.32800000  12.010000   ; qtot -127.821724
 5521         h1    190    ccc     H7   5521 -0.07120000   1.008000   ; qtot -127.892924
 5522         h1    190    ccc     H8   5522 -0.07120000   1.008000   ; qtot -127.964124
 5523         c3    190    ccc     C5   5523 -0.39330000  12.010000   ; qtot -128.357424
 5524         hc    190    ccc     H9   5524 0.08130000   1.008000   ; qtot -128.276124
 5525         hc    190    ccc    H10   5525 0.08130000   1.008000   ; qtot -128.194824
 5526          c    190    ccc     C6   5526 1.08970000  12.010000   ; qtot -127.105124
 5527          o    190    ccc     O2   5527 -0.96050000  16.000000   ; qtot -128.065624
 5528          o    190    ccc     O3   5528 -0.96050000  16.000000   ; qtot -129.026124
 5529         c3    190    ccc     C7   5529 0.32800000  12.010000   ; qtot -128.698124
 5530         h1    190    ccc    H11   5530 -0.07120000   1.008000   ; qtot -128.769324
 5531         h1    190    ccc    H12   5531 -0.07120000   1.008000   ; qtot -128.840524
 5532         c3    190    ccc     C8   5532 -0.39330000  12.010000   ; qtot -129.233824
 5533         hc    190    ccc    H13   5533 0.08130000   1.008000   ; qtot -129.152524
 5534         hc    190    ccc    H14   5534 0.08130000   1.008000   ; qtot -129.071224
 5535          c    190    ccc     C9   5535 1.08970000  12.010000   ; qtot -127.981524
 5536          o    190    ccc     O4   5536 -0.96050000  16.000000   ; qtot -128.942024
 5537          o    190    ccc     O5   5537 -0.96050000  16.000000   ; qtot -129.902524
 5538         os    190    ccc     O1   5538 -0.11060000  16.000000   ; qtot -130.013124
; residue  191 ccc rtp ccc q -2.0
 5539         c3    191    ccc     C3   5539 -0.04070000  12.010000   ; qtot -130.053824
 5540         h1    191    ccc     H5   5540 0.04610000   1.008000   ; qtot -130.007724
 5541         h1    191    ccc     H6   5541 0.04610000   1.008000   ; qtot -129.961624
 5542         c3    191    ccc     C2   5542 -0.02540000  12.010000   ; qtot -129.987024
 5543         hc    191    ccc     H3   5543 0.00850000   1.008000   ; qtot -129.978524
 5544         hc    191    ccc     H4   5544 0.00850000   1.008000   ; qtot -129.970024
 5545         c3    191    ccc     C1   5545 0.60210000  12.010000   ; qtot -129.367924
 5546         h1    191    ccc     H1   5546 -0.09250000   1.008000   ; qtot -129.460424
 5547         h1    191    ccc     H2   5547 -0.09250000   1.008000   ; qtot -129.552924
 5548         n3    191    ccc     N1   5548 -0.59700000  14.010000   ; qtot -130.149924
 5549         c3    191    ccc     C4   5549 0.32800000  12.010000   ; qtot -129.821924
 5550         h1    191    ccc     H7   5550 -0.07120000   1.008000   ; qtot -129.893124
 5551         h1    191    ccc     H8   5551 -0.07120000   1.008000   ; qtot -129.964324
 5552         c3    191    ccc     C5   5552 -0.39330000  12.010000   ; qtot -130.357624
 5553         hc    191    ccc     H9   5553 0.08130000   1.008000   ; qtot -130.276324
 5554         hc    191    ccc    H10   5554 0.08130000   1.008000   ; qtot -130.195024
 5555          c    191    ccc     C6   5555 1.08970000  12.010000   ; qtot -129.105324
 5556          o    191    ccc     O2   5556 -0.96050000  16.000000   ; qtot -130.065824
 5557          o    191    ccc     O3   5557 -0.96050000  16.000000   ; qtot -131.026324
 5558         c3    191    ccc     C7   5558 0.32800000  12.010000   ; qtot -130.698324
 5559         h1    191    ccc    H11   5559 -0.07120000   1.008000   ; qtot -130.769524
 5560         h1    191    ccc    H12   5560 -0.07120000   1.008000   ; qtot -130.840724
 5561         c3    191    ccc     C8   5561 -0.39330000  12.010000   ; qtot -131.234024
 5562         hc    191    ccc    H13   5562 0.08130000   1.008000   ; qtot -131.152724
 5563         hc    191    ccc    H14   5563 0.08130000   1.008000   ; qtot -131.071424
 5564          c    191    ccc     C9   5564 1.08970000  12.010000   ; qtot -129.981724
 5565          o    191    ccc     O4   5565 -0.96050000  16.000000   ; qtot -130.942224
 5566          o    191    ccc     O5   5566 -0.96050000  16.000000   ; qtot -131.902724
 5567         os    191    ccc     O1   5567 -0.11060000  16.000000   ; qtot -132.013324
; residue  192 ccc rtp ccc q -2.0
 5568         c3    192    ccc     C3   5568 -0.04070000  12.010000   ; qtot -132.054024
 5569         h1    192    ccc     H5   5569 0.04610000   1.008000   ; qtot -132.007924
 5570         h1    192    ccc     H6   5570 0.04610000   1.008000   ; qtot -131.961824
 5571         c3    192    ccc     C2   5571 -0.02540000  12.010000   ; qtot -131.987224
 5572         hc    192    ccc     H3   5572 0.00850000   1.008000   ; qtot -131.978724
 5573         hc    192    ccc     H4   5573 0.00850000   1.008000   ; qtot -131.970224
 5574         c3    192    ccc     C1   5574 0.60210000  12.010000   ; qtot -131.368124
 5575         h1    192    ccc     H1   5575 -0.09250000   1.008000   ; qtot -131.460624
 5576         h1    192    ccc     H2   5576 -0.09250000   1.008000   ; qtot -131.553124
 5577         n3    192    ccc     N1   5577 -0.59700000  14.010000   ; qtot -132.150124
 5578         c3    192    ccc     C4   5578 0.32800000  12.010000   ; qtot -131.822124
 5579         h1    192    ccc     H7   5579 -0.07120000   1.008000   ; qtot -131.893324
 5580         h1    192    ccc     H8   5580 -0.07120000   1.008000   ; qtot -131.964524
 5581         c3    192    ccc     C5   5581 -0.39330000  12.010000   ; qtot -132.357824
 5582         hc    192    ccc     H9   5582 0.08130000   1.008000   ; qtot -132.276524
 5583         hc    192    ccc    H10   5583 0.08130000   1.008000   ; qtot -132.195224
 5584          c    192    ccc     C6   5584 1.08970000  12.010000   ; qtot -131.105524
 5585          o    192    ccc     O2   5585 -0.96050000  16.000000   ; qtot -132.066024
 5586          o    192    ccc     O3   5586 -0.96050000  16.000000   ; qtot -133.026524
 5587         c3    192    ccc     C7   5587 0.32800000  12.010000   ; qtot -132.698524
 5588         h1    192    ccc    H11   5588 -0.07120000   1.008000   ; qtot -132.769724
 5589         h1    192    ccc    H12   5589 -0.07120000   1.008000   ; qtot -132.840924
 5590         c3    192    ccc     C8   5590 -0.39330000  12.010000   ; qtot -133.234224
 5591         hc    192    ccc    H13   5591 0.08130000   1.008000   ; qtot -133.152924
 5592         hc    192    ccc    H14   5592 0.08130000   1.008000   ; qtot -133.071624
 5593          c    192    ccc     C9   5593 1.08970000  12.010000   ; qtot -131.981924
 5594          o    192    ccc     O4   5594 -0.96050000  16.000000   ; qtot -132.942424
 5595          o    192    ccc     O5   5595 -0.96050000  16.000000   ; qtot -133.902924
 5596         os    192    ccc     O1   5596 -0.11060000  16.000000   ; qtot -134.013524
; residue  193 ccc rtp ccc q -2.0
 5597         c3    193    ccc     C3   5597 -0.04070000  12.010000   ; qtot -134.054224
 5598         h1    193    ccc     H5   5598 0.04610000   1.008000   ; qtot -134.008124
 5599         h1    193    ccc     H6   5599 0.04610000   1.008000   ; qtot -133.962024
 5600         c3    193    ccc     C2   5600 -0.02540000  12.010000   ; qtot -133.987424
 5601         hc    193    ccc     H3   5601 0.00850000   1.008000   ; qtot -133.978924
 5602         hc    193    ccc     H4   5602 0.00850000   1.008000   ; qtot -133.970424
 5603         c3    193    ccc     C1   5603 0.60210000  12.010000   ; qtot -133.368324
 5604         h1    193    ccc     H1   5604 -0.09250000   1.008000   ; qtot -133.460824
 5605         h1    193    ccc     H2   5605 -0.09250000   1.008000   ; qtot -133.553324
 5606         n3    193    ccc     N1   5606 -0.59700000  14.010000   ; qtot -134.150324
 5607         c3    193    ccc     C4   5607 0.32800000  12.010000   ; qtot -133.822324
 5608         h1    193    ccc     H7   5608 -0.07120000   1.008000   ; qtot -133.893524
 5609         h1    193    ccc     H8   5609 -0.07120000   1.008000   ; qtot -133.964724
 5610         c3    193    ccc     C5   5610 -0.39330000  12.010000   ; qtot -134.358024
 5611         hc    193    ccc     H9   5611 0.08130000   1.008000   ; qtot -134.276724
 5612         hc    193    ccc    H10   5612 0.08130000   1.008000   ; qtot -134.195424
 5613          c    193    ccc     C6   5613 1.08970000  12.010000   ; qtot -133.105724
 5614          o    193    ccc     O2   5614 -0.96050000  16.000000   ; qtot -134.066224
 5615          o    193    ccc     O3   5615 -0.96050000  16.000000   ; qtot -135.026724
 5616         c3    193    ccc     C7   5616 0.32800000  12.010000   ; qtot -134.698724
 5617         h1    193    ccc    H11   5617 -0.07120000   1.008000   ; qtot -134.769924
 5618         h1    193    ccc    H12   5618 -0.07120000   1.008000   ; qtot -134.841124
 5619         c3    193    ccc     C8   5619 -0.39330000  12.010000   ; qtot -135.234424
 5620         hc    193    ccc    H13   5620 0.08130000   1.008000   ; qtot -135.153124
 5621         hc    193    ccc    H14   5621 0.08130000   1.008000   ; qtot -135.071824
 5622          c    193    ccc     C9   5622 1.08970000  12.010000   ; qtot -133.982124
 5623          o    193    ccc     O4   5623 -0.96050000  16.000000   ; qtot -134.942624
 5624          o    193    ccc     O5   5624 -0.96050000  16.000000   ; qtot -135.903124
 5625         os    193    ccc     O1   5625 -0.11060000  16.000000   ; qtot -136.013724
; residue  194 ccc rtp ccc q -2.0
 5626         c3    194    ccc     C3   5626 -0.04070000  12.010000   ; qtot -136.054424
 5627         h1    194    ccc     H5   5627 0.04610000   1.008000   ; qtot -136.008324
 5628         h1    194    ccc     H6   5628 0.04610000   1.008000   ; qtot -135.962224
 5629         c3    194    ccc     C2   5629 -0.02540000  12.010000   ; qtot -135.987624
 5630         hc    194    ccc     H3   5630 0.00850000   1.008000   ; qtot -135.979124
 5631         hc    194    ccc     H4   5631 0.00850000   1.008000   ; qtot -135.970624
 5632         c3    194    ccc     C1   5632 0.60210000  12.010000   ; qtot -135.368524
 5633         h1    194    ccc     H1   5633 -0.09250000   1.008000   ; qtot -135.461024
 5634         h1    194    ccc     H2   5634 -0.09250000   1.008000   ; qtot -135.553524
 5635         n3    194    ccc     N1   5635 -0.59700000  14.010000   ; qtot -136.150524
 5636         c3    194    ccc     C4   5636 0.32800000  12.010000   ; qtot -135.822524
 5637         h1    194    ccc     H7   5637 -0.07120000   1.008000   ; qtot -135.893724
 5638         h1    194    ccc     H8   5638 -0.07120000   1.008000   ; qtot -135.964924
 5639         c3    194    ccc     C5   5639 -0.39330000  12.010000   ; qtot -136.358224
 5640         hc    194    ccc     H9   5640 0.08130000   1.008000   ; qtot -136.276924
 5641         hc    194    ccc    H10   5641 0.08130000   1.008000   ; qtot -136.195624
 5642          c    194    ccc     C6   5642 1.08970000  12.010000   ; qtot -135.105924
 5643          o    194    ccc     O2   5643 -0.96050000  16.000000   ; qtot -136.066424
 5644          o    194    ccc     O3   5644 -0.96050000  16.000000   ; qtot -137.026924
 5645         c3    194    ccc     C7   5645 0.32800000  12.010000   ; qtot -136.698924
 5646         h1    194    ccc    H11   5646 -0.07120000   1.008000   ; qtot -136.770124
 5647         h1    194    ccc    H12   5647 -0.07120000   1.008000   ; qtot -136.841324
 5648         c3    194    ccc     C8   5648 -0.39330000  12.010000   ; qtot -137.234624
 5649         hc    194    ccc    H13   5649 0.08130000   1.008000   ; qtot -137.153324
 5650         hc    194    ccc    H14   5650 0.08130000   1.008000   ; qtot -137.072024
 5651          c    194    ccc     C9   5651 1.08970000  12.010000   ; qtot -135.982324
 5652          o    194    ccc     O4   5652 -0.96050000  16.000000   ; qtot -136.942824
 5653          o    194    ccc     O5   5653 -0.96050000  16.000000   ; qtot -137.903324
 5654         os    194    ccc     O1   5654 -0.11060000  16.000000   ; qtot -138.013924
; residue  195 ccc rtp ccc q -2.0
 5655         c3    195    ccc     C3   5655 -0.04070000  12.010000   ; qtot -138.054624
 5656         h1    195    ccc     H5   5656 0.04610000   1.008000   ; qtot -138.008524
 5657         h1    195    ccc     H6   5657 0.04610000   1.008000   ; qtot -137.962424
 5658         c3    195    ccc     C2   5658 -0.02540000  12.010000   ; qtot -137.987824
 5659         hc    195    ccc     H3   5659 0.00850000   1.008000   ; qtot -137.979324
 5660         hc    195    ccc     H4   5660 0.00850000   1.008000   ; qtot -137.970824
 5661         c3    195    ccc     C1   5661 0.60210000  12.010000   ; qtot -137.368724
 5662         h1    195    ccc     H1   5662 -0.09250000   1.008000   ; qtot -137.461224
 5663         h1    195    ccc     H2   5663 -0.09250000   1.008000   ; qtot -137.553724
 5664         n3    195    ccc     N1   5664 -0.59700000  14.010000   ; qtot -138.150724
 5665         c3    195    ccc     C4   5665 0.32800000  12.010000   ; qtot -137.822724
 5666         h1    195    ccc     H7   5666 -0.07120000   1.008000   ; qtot -137.893924
 5667         h1    195    ccc     H8   5667 -0.07120000   1.008000   ; qtot -137.965124
 5668         c3    195    ccc     C5   5668 -0.39330000  12.010000   ; qtot -138.358424
 5669         hc    195    ccc     H9   5669 0.08130000   1.008000   ; qtot -138.277124
 5670         hc    195    ccc    H10   5670 0.08130000   1.008000   ; qtot -138.195824
 5671          c    195    ccc     C6   5671 1.08970000  12.010000   ; qtot -137.106124
 5672          o    195    ccc     O2   5672 -0.96050000  16.000000   ; qtot -138.066624
 5673          o    195    ccc     O3   5673 -0.96050000  16.000000   ; qtot -139.027124
 5674         c3    195    ccc     C7   5674 0.32800000  12.010000   ; qtot -138.699124
 5675         h1    195    ccc    H11   5675 -0.07120000   1.008000   ; qtot -138.770324
 5676         h1    195    ccc    H12   5676 -0.07120000   1.008000   ; qtot -138.841524
 5677         c3    195    ccc     C8   5677 -0.39330000  12.010000   ; qtot -139.234824
 5678         hc    195    ccc    H13   5678 0.08130000   1.008000   ; qtot -139.153524
 5679         hc    195    ccc    H14   5679 0.08130000   1.008000   ; qtot -139.072224
 5680          c    195    ccc     C9   5680 1.08970000  12.010000   ; qtot -137.982524
 5681          o    195    ccc     O4   5681 -0.96050000  16.000000   ; qtot -138.943024
 5682          o    195    ccc     O5   5682 -0.96050000  16.000000   ; qtot -139.903524
 5683         os    195    ccc     O1   5683 -0.11060000  16.000000   ; qtot -140.014124
; residue  196 ccc rtp ccc q -2.0
 5684         c3    196    ccc     C3   5684 -0.04070000  12.010000   ; qtot -140.054824
 5685         h1    196    ccc     H5   5685 0.04610000   1.008000   ; qtot -140.008724
 5686         h1    196    ccc     H6   5686 0.04610000   1.008000   ; qtot -139.962624
 5687         c3    196    ccc     C2   5687 -0.02540000  12.010000   ; qtot -139.988024
 5688         hc    196    ccc     H3   5688 0.00850000   1.008000   ; qtot -139.979524
 5689         hc    196    ccc     H4   5689 0.00850000   1.008000   ; qtot -139.971024
 5690         c3    196    ccc     C1   5690 0.60210000  12.010000   ; qtot -139.368924
 5691         h1    196    ccc     H1   5691 -0.09250000   1.008000   ; qtot -139.461424
 5692         h1    196    ccc     H2   5692 -0.09250000   1.008000   ; qtot -139.553924
 5693         n3    196    ccc     N1   5693 -0.59700000  14.010000   ; qtot -140.150924
 5694         c3    196    ccc     C4   5694 0.32800000  12.010000   ; qtot -139.822924
 5695         h1    196    ccc     H7   5695 -0.07120000   1.008000   ; qtot -139.894124
 5696         h1    196    ccc     H8   5696 -0.07120000   1.008000   ; qtot -139.965324
 5697         c3    196    ccc     C5   5697 -0.39330000  12.010000   ; qtot -140.358624
 5698         hc    196    ccc     H9   5698 0.08130000   1.008000   ; qtot -140.277324
 5699         hc    196    ccc    H10   5699 0.08130000   1.008000   ; qtot -140.196024
 5700          c    196    ccc     C6   5700 1.08970000  12.010000   ; qtot -139.106324
 5701          o    196    ccc     O2   5701 -0.96050000  16.000000   ; qtot -140.066824
 5702          o    196    ccc     O3   5702 -0.96050000  16.000000   ; qtot -141.027324
 5703         c3    196    ccc     C7   5703 0.32800000  12.010000   ; qtot -140.699324
 5704         h1    196    ccc    H11   5704 -0.07120000   1.008000   ; qtot -140.770524
 5705         h1    196    ccc    H12   5705 -0.07120000   1.008000   ; qtot -140.841724
 5706         c3    196    ccc     C8   5706 -0.39330000  12.010000   ; qtot -141.235024
 5707         hc    196    ccc    H13   5707 0.08130000   1.008000   ; qtot -141.153724
 5708         hc    196    ccc    H14   5708 0.08130000   1.008000   ; qtot -141.072424
 5709          c    196    ccc     C9   5709 1.08970000  12.010000   ; qtot -139.982724
 5710          o    196    ccc     O4   5710 -0.96050000  16.000000   ; qtot -140.943224
 5711          o    196    ccc     O5   5711 -0.96050000  16.000000   ; qtot -141.903724
 5712         os    196    ccc     O1   5712 -0.11060000  16.000000   ; qtot -142.014324
; residue  197 ccc rtp ccc q -2.0
 5713         c3    197    ccc     C3   5713 -0.04070000  12.010000   ; qtot -142.055024
 5714         h1    197    ccc     H5   5714 0.04610000   1.008000   ; qtot -142.008924
 5715         h1    197    ccc     H6   5715 0.04610000   1.008000   ; qtot -141.962824
 5716         c3    197    ccc     C2   5716 -0.02540000  12.010000   ; qtot -141.988224
 5717         hc    197    ccc     H3   5717 0.00850000   1.008000   ; qtot -141.979724
 5718         hc    197    ccc     H4   5718 0.00850000   1.008000   ; qtot -141.971224
 5719         c3    197    ccc     C1   5719 0.60210000  12.010000   ; qtot -141.369124
 5720         h1    197    ccc     H1   5720 -0.09250000   1.008000   ; qtot -141.461624
 5721         h1    197    ccc     H2   5721 -0.09250000   1.008000   ; qtot -141.554124
 5722         n3    197    ccc     N1   5722 -0.59700000  14.010000   ; qtot -142.151124
 5723         c3    197    ccc     C4   5723 0.32800000  12.010000   ; qtot -141.823124
 5724         h1    197    ccc     H7   5724 -0.07120000   1.008000   ; qtot -141.894324
 5725         h1    197    ccc     H8   5725 -0.07120000   1.008000   ; qtot -141.965524
 5726         c3    197    ccc     C5   5726 -0.39330000  12.010000   ; qtot -142.358824
 5727         hc    197    ccc     H9   5727 0.08130000   1.008000   ; qtot -142.277524
 5728         hc    197    ccc    H10   5728 0.08130000   1.008000   ; qtot -142.196224
 5729          c    197    ccc     C6   5729 1.08970000  12.010000   ; qtot -141.106524
 5730          o    197    ccc     O2   5730 -0.96050000  16.000000   ; qtot -142.067024
 5731          o    197    ccc     O3   5731 -0.96050000  16.000000   ; qtot -143.027524
 5732         c3    197    ccc     C7   5732 0.32800000  12.010000   ; qtot -142.699524
 5733         h1    197    ccc    H11   5733 -0.07120000   1.008000   ; qtot -142.770724
 5734         h1    197    ccc    H12   5734 -0.07120000   1.008000   ; qtot -142.841924
 5735         c3    197    ccc     C8   5735 -0.39330000  12.010000   ; qtot -143.235224
 5736         hc    197    ccc    H13   5736 0.08130000   1.008000   ; qtot -143.153924
 5737         hc    197    ccc    H14   5737 0.08130000   1.008000   ; qtot -143.072624
 5738          c    197    ccc     C9   5738 1.08970000  12.010000   ; qtot -141.982924
 5739          o    197    ccc     O4   5739 -0.96050000  16.000000   ; qtot -142.943424
 5740          o    197    ccc     O5   5740 -0.96050000  16.000000   ; qtot -143.903924
 5741         os    197    ccc     O1   5741 -0.11060000  16.000000   ; qtot -144.014524
; residue  198 ccc rtp ccc q -2.0
 5742         c3    198    ccc     C3   5742 -0.04070000  12.010000   ; qtot -144.055224
 5743         h1    198    ccc     H5   5743 0.04610000   1.008000   ; qtot -144.009124
 5744         h1    198    ccc     H6   5744 0.04610000   1.008000   ; qtot -143.963024
 5745         c3    198    ccc     C2   5745 -0.02540000  12.010000   ; qtot -143.988424
 5746         hc    198    ccc     H3   5746 0.00850000   1.008000   ; qtot -143.979924
 5747         hc    198    ccc     H4   5747 0.00850000   1.008000   ; qtot -143.971424
 5748         c3    198    ccc     C1   5748 0.60210000  12.010000   ; qtot -143.369324
 5749         h1    198    ccc     H1   5749 -0.09250000   1.008000   ; qtot -143.461824
 5750         h1    198    ccc     H2   5750 -0.09250000   1.008000   ; qtot -143.554324
 5751         n3    198    ccc     N1   5751 -0.59700000  14.010000   ; qtot -144.151324
 5752         c3    198    ccc     C4   5752 0.32800000  12.010000   ; qtot -143.823324
 5753         h1    198    ccc     H7   5753 -0.07120000   1.008000   ; qtot -143.894524
 5754         h1    198    ccc     H8   5754 -0.07120000   1.008000   ; qtot -143.965724
 5755         c3    198    ccc     C5   5755 -0.39330000  12.010000   ; qtot -144.359024
 5756         hc    198    ccc     H9   5756 0.08130000   1.008000   ; qtot -144.277724
 5757         hc    198    ccc    H10   5757 0.08130000   1.008000   ; qtot -144.196424
 5758          c    198    ccc     C6   5758 1.08970000  12.010000   ; qtot -143.106724
 5759          o    198    ccc     O2   5759 -0.96050000  16.000000   ; qtot -144.067224
 5760          o    198    ccc     O3   5760 -0.96050000  16.000000   ; qtot -145.027724
 5761         c3    198    ccc     C7   5761 0.32800000  12.010000   ; qtot -144.699724
 5762         h1    198    ccc    H11   5762 -0.07120000   1.008000   ; qtot -144.770924
 5763         h1    198    ccc    H12   5763 -0.07120000   1.008000   ; qtot -144.842124
 5764         c3    198    ccc     C8   5764 -0.39330000  12.010000   ; qtot -145.235424
 5765         hc    198    ccc    H13   5765 0.08130000   1.008000   ; qtot -145.154124
 5766         hc    198    ccc    H14   5766 0.08130000   1.008000   ; qtot -145.072824
 5767          c    198    ccc     C9   5767 1.08970000  12.010000   ; qtot -143.983124
 5768          o    198    ccc     O4   5768 -0.96050000  16.000000   ; qtot -144.943624
 5769          o    198    ccc     O5   5769 -0.96050000  16.000000   ; qtot -145.904124
 5770         os    198    ccc     O1   5770 -0.11060000  16.000000   ; qtot -146.014724
; residue  199 ccc rtp ccc q -2.0
 5771         c3    199    ccc     C3   5771 -0.04070000  12.010000   ; qtot -146.055424
 5772         h1    199    ccc     H5   5772 0.04610000   1.008000   ; qtot -146.009324
 5773         h1    199    ccc     H6   5773 0.04610000   1.008000   ; qtot -145.963224
 5774         c3    199    ccc     C2   5774 -0.02540000  12.010000   ; qtot -145.988624
 5775         hc    199    ccc     H3   5775 0.00850000   1.008000   ; qtot -145.980124
 5776         hc    199    ccc     H4   5776 0.00850000   1.008000   ; qtot -145.971624
 5777         c3    199    ccc     C1   5777 0.60210000  12.010000   ; qtot -145.369524
 5778         h1    199    ccc     H1   5778 -0.09250000   1.008000   ; qtot -145.462024
 5779         h1    199    ccc     H2   5779 -0.09250000   1.008000   ; qtot -145.554524
 5780         n3    199    ccc     N1   5780 -0.59700000  14.010000   ; qtot -146.151524
 5781         c3    199    ccc     C4   5781 0.32800000  12.010000   ; qtot -145.823524
 5782         h1    199    ccc     H7   5782 -0.07120000   1.008000   ; qtot -145.894724
 5783         h1    199    ccc     H8   5783 -0.07120000   1.008000   ; qtot -145.965924
 5784         c3    199    ccc     C5   5784 -0.39330000  12.010000   ; qtot -146.359224
 5785         hc    199    ccc     H9   5785 0.08130000   1.008000   ; qtot -146.277924
 5786         hc    199    ccc    H10   5786 0.08130000   1.008000   ; qtot -146.196624
 5787          c    199    ccc     C6   5787 1.08970000  12.010000   ; qtot -145.106924
 5788          o    199    ccc     O2   5788 -0.96050000  16.000000   ; qtot -146.067425
 5789          o    199    ccc     O3   5789 -0.96050000  16.000000   ; qtot -147.027925
 5790         c3    199    ccc     C7   5790 0.32800000  12.010000   ; qtot -146.699925
 5791         h1    199    ccc    H11   5791 -0.07120000   1.008000   ; qtot -146.771125
 5792         h1    199    ccc    H12   5792 -0.07120000   1.008000   ; qtot -146.842325
 5793         c3    199    ccc     C8   5793 -0.39330000  12.010000   ; qtot -147.235625
 5794         hc    199    ccc    H13   5794 0.08130000   1.008000   ; qtot -147.154325
 5795         hc    199    ccc    H14   5795 0.08130000   1.008000   ; qtot -147.073025
 5796          c    199    ccc     C9   5796 1.08970000  12.010000   ; qtot -145.983325
 5797          o    199    ccc     O4   5797 -0.96050000  16.000000   ; qtot -146.943825
 5798          o    199    ccc     O5   5798 -0.96050000  16.000000   ; qtot -147.904325
 5799         os    199    ccc     O1   5799 -0.11060000  16.000000   ; qtot -148.014925
; residue  200 ccc rtp ccc q -2.0
 5800         c3    200    ccc     C3   5800 -0.04070000  12.010000   ; qtot -148.055625
 5801         h1    200    ccc     H5   5801 0.04610000   1.008000   ; qtot -148.009525
 5802         h1    200    ccc     H6   5802 0.04610000   1.008000   ; qtot -147.963425
 5803         c3    200    ccc     C2   5803 -0.02540000  12.010000   ; qtot -147.988825
 5804         hc    200    ccc     H3   5804 0.00850000   1.008000   ; qtot -147.980325
 5805         hc    200    ccc     H4   5805 0.00850000   1.008000   ; qtot -147.971825
 5806         c3    200    ccc     C1   5806 0.60210000  12.010000   ; qtot -147.369725
 5807         h1    200    ccc     H1   5807 -0.09250000   1.008000   ; qtot -147.462225
 5808         h1    200    ccc     H2   5808 -0.09250000   1.008000   ; qtot -147.554725
 5809         n3    200    ccc     N1   5809 -0.59700000  14.010000   ; qtot -148.151725
 5810         c3    200    ccc     C4   5810 0.32800000  12.010000   ; qtot -147.823725
 5811         h1    200    ccc     H7   5811 -0.07120000   1.008000   ; qtot -147.894925
 5812         h1    200    ccc     H8   5812 -0.07120000   1.008000   ; qtot -147.966125
 5813         c3    200    ccc     C5   5813 -0.39330000  12.010000   ; qtot -148.359425
 5814         hc    200    ccc     H9   5814 0.08130000   1.008000   ; qtot -148.278125
 5815         hc    200    ccc    H10   5815 0.08130000   1.008000   ; qtot -148.196825
 5816          c    200    ccc     C6   5816 1.08970000  12.010000   ; qtot -147.107125
 5817          o    200    ccc     O2   5817 -0.96050000  16.000000   ; qtot -148.067625
 5818          o    200    ccc     O3   5818 -0.96050000  16.000000   ; qtot -149.028125
 5819         c3    200    ccc     C7   5819 0.32800000  12.010000   ; qtot -148.700125
 5820         h1    200    ccc    H11   5820 -0.07120000   1.008000   ; qtot -148.771325
 5821         h1    200    ccc    H12   5821 -0.07120000   1.008000   ; qtot -148.842525
 5822         c3    200    ccc     C8   5822 -0.39330000  12.010000   ; qtot -149.235825
 5823         hc    200    ccc    H13   5823 0.08130000   1.008000   ; qtot -149.154525
 5824         hc    200    ccc    H14   5824 0.08130000   1.008000   ; qtot -149.073225
 5825          c    200    ccc     C9   5825 1.08970000  12.010000   ; qtot -147.983525
 5826          o    200    ccc     O4   5826 -0.96050000  16.000000   ; qtot -148.944025
 5827          o    200    ccc     O5   5827 -0.96050000  16.000000   ; qtot -149.904525
 5828         os    200    ccc     O1   5828 -0.11060000  16.000000   ; qtot -150.015125
; residue  201 ccc rtp ccc q -2.0
 5829         c3    201    ccc     C3   5829 -0.04070000  12.010000   ; qtot -150.055825
 5830         h1    201    ccc     H5   5830 0.04610000   1.008000   ; qtot -150.009725
 5831         h1    201    ccc     H6   5831 0.04610000   1.008000   ; qtot -149.963625
 5832         c3    201    ccc     C2   5832 -0.02540000  12.010000   ; qtot -149.989025
 5833         hc    201    ccc     H3   5833 0.00850000   1.008000   ; qtot -149.980525
 5834         hc    201    ccc     H4   5834 0.00850000   1.008000   ; qtot -149.972025
 5835         c3    201    ccc     C1   5835 0.60210000  12.010000   ; qtot -149.369925
 5836         h1    201    ccc     H1   5836 -0.09250000   1.008000   ; qtot -149.462425
 5837         h1    201    ccc     H2   5837 -0.09250000   1.008000   ; qtot -149.554925
 5838         n3    201    ccc     N1   5838 -0.59700000  14.010000   ; qtot -150.151925
 5839         c3    201    ccc     C4   5839 0.32800000  12.010000   ; qtot -149.823925
 5840         h1    201    ccc     H7   5840 -0.07120000   1.008000   ; qtot -149.895125
 5841         h1    201    ccc     H8   5841 -0.07120000   1.008000   ; qtot -149.966325
 5842         c3    201    ccc     C5   5842 -0.39330000  12.010000   ; qtot -150.359625
 5843         hc    201    ccc     H9   5843 0.08130000   1.008000   ; qtot -150.278325
 5844         hc    201    ccc    H10   5844 0.08130000   1.008000   ; qtot -150.197025
 5845          c    201    ccc     C6   5845 1.08970000  12.010000   ; qtot -149.107325
 5846          o    201    ccc     O2   5846 -0.96050000  16.000000   ; qtot -150.067825
 5847          o    201    ccc     O3   5847 -0.96050000  16.000000   ; qtot -151.028325
 5848         c3    201    ccc     C7   5848 0.32800000  12.010000   ; qtot -150.700325
 5849         h1    201    ccc    H11   5849 -0.07120000   1.008000   ; qtot -150.771525
 5850         h1    201    ccc    H12   5850 -0.07120000   1.008000   ; qtot -150.842725
 5851         c3    201    ccc     C8   5851 -0.39330000  12.010000   ; qtot -151.236025
 5852         hc    201    ccc    H13   5852 0.08130000   1.008000   ; qtot -151.154725
 5853         hc    201    ccc    H14   5853 0.08130000   1.008000   ; qtot -151.073425
 5854          c    201    ccc     C9   5854 1.08970000  12.010000   ; qtot -149.983725
 5855          o    201    ccc     O4   5855 -0.96050000  16.000000   ; qtot -150.944225
 5856          o    201    ccc     O5   5856 -0.96050000  16.000000   ; qtot -151.904725
 5857         os    201    ccc     O1   5857 -0.11060000  16.000000   ; qtot -152.015325
; residue  202 ccc rtp ccc q -2.0
 5858         c3    202    ccc     C3   5858 -0.04070000  12.010000   ; qtot -152.056025
 5859         h1    202    ccc     H5   5859 0.04610000   1.008000   ; qtot -152.009925
 5860         h1    202    ccc     H6   5860 0.04610000   1.008000   ; qtot -151.963825
 5861         c3    202    ccc     C2   5861 -0.02540000  12.010000   ; qtot -151.989225
 5862         hc    202    ccc     H3   5862 0.00850000   1.008000   ; qtot -151.980725
 5863         hc    202    ccc     H4   5863 0.00850000   1.008000   ; qtot -151.972225
 5864         c3    202    ccc     C1   5864 0.60210000  12.010000   ; qtot -151.370125
 5865         h1    202    ccc     H1   5865 -0.09250000   1.008000   ; qtot -151.462625
 5866         h1    202    ccc     H2   5866 -0.09250000   1.008000   ; qtot -151.555125
 5867         n3    202    ccc     N1   5867 -0.59700000  14.010000   ; qtot -152.152125
 5868         c3    202    ccc     C4   5868 0.32800000  12.010000   ; qtot -151.824125
 5869         h1    202    ccc     H7   5869 -0.07120000   1.008000   ; qtot -151.895325
 5870         h1    202    ccc     H8   5870 -0.07120000   1.008000   ; qtot -151.966525
 5871         c3    202    ccc     C5   5871 -0.39330000  12.010000   ; qtot -152.359825
 5872         hc    202    ccc     H9   5872 0.08130000   1.008000   ; qtot -152.278525
 5873         hc    202    ccc    H10   5873 0.08130000   1.008000   ; qtot -152.197225
 5874          c    202    ccc     C6   5874 1.08970000  12.010000   ; qtot -151.107525
 5875          o    202    ccc     O2   5875 -0.96050000  16.000000   ; qtot -152.068025
 5876          o    202    ccc     O3   5876 -0.96050000  16.000000   ; qtot -153.028525
 5877         c3    202    ccc     C7   5877 0.32800000  12.010000   ; qtot -152.700525
 5878         h1    202    ccc    H11   5878 -0.07120000   1.008000   ; qtot -152.771725
 5879         h1    202    ccc    H12   5879 -0.07120000   1.008000   ; qtot -152.842925
 5880         c3    202    ccc     C8   5880 -0.39330000  12.010000   ; qtot -153.236225
 5881         hc    202    ccc    H13   5881 0.08130000   1.008000   ; qtot -153.154925
 5882         hc    202    ccc    H14   5882 0.08130000   1.008000   ; qtot -153.073625
 5883          c    202    ccc     C9   5883 1.08970000  12.010000   ; qtot -151.983925
 5884          o    202    ccc     O4   5884 -0.96050000  16.000000   ; qtot -152.944425
 5885          o    202    ccc     O5   5885 -0.96050000  16.000000   ; qtot -153.904925
 5886         os    202    ccc     O1   5886 -0.11060000  16.000000   ; qtot -154.015525
; residue  203 ccc rtp ccc q -2.0
 5887         c3    203    ccc     C3   5887 -0.04070000  12.010000   ; qtot -154.056225
 5888         h1    203    ccc     H5   5888 0.04610000   1.008000   ; qtot -154.010125
 5889         h1    203    ccc     H6   5889 0.04610000   1.008000   ; qtot -153.964025
 5890         c3    203    ccc     C2   5890 -0.02540000  12.010000   ; qtot -153.989425
 5891         hc    203    ccc     H3   5891 0.00850000   1.008000   ; qtot -153.980925
 5892         hc    203    ccc     H4   5892 0.00850000   1.008000   ; qtot -153.972425
 5893         c3    203    ccc     C1   5893 0.60210000  12.010000   ; qtot -153.370325
 5894         h1    203    ccc     H1   5894 -0.09250000   1.008000   ; qtot -153.462825
 5895         h1    203    ccc     H2   5895 -0.09250000   1.008000   ; qtot -153.555325
 5896         n3    203    ccc     N1   5896 -0.59700000  14.010000   ; qtot -154.152325
 5897         c3    203    ccc     C4   5897 0.32800000  12.010000   ; qtot -153.824325
 5898         h1    203    ccc     H7   5898 -0.07120000   1.008000   ; qtot -153.895525
 5899         h1    203    ccc     H8   5899 -0.07120000   1.008000   ; qtot -153.966725
 5900         c3    203    ccc     C5   5900 -0.39330000  12.010000   ; qtot -154.360025
 5901         hc    203    ccc     H9   5901 0.08130000   1.008000   ; qtot -154.278725
 5902         hc    203    ccc    H10   5902 0.08130000   1.008000   ; qtot -154.197425
 5903          c    203    ccc     C6   5903 1.08970000  12.010000   ; qtot -153.107725
 5904          o    203    ccc     O2   5904 -0.96050000  16.000000   ; qtot -154.068225
 5905          o    203    ccc     O3   5905 -0.96050000  16.000000   ; qtot -155.028725
 5906         c3    203    ccc     C7   5906 0.32800000  12.010000   ; qtot -154.700725
 5907         h1    203    ccc    H11   5907 -0.07120000   1.008000   ; qtot -154.771925
 5908         h1    203    ccc    H12   5908 -0.07120000   1.008000   ; qtot -154.843125
 5909         c3    203    ccc     C8   5909 -0.39330000  12.010000   ; qtot -155.236425
 5910         hc    203    ccc    H13   5910 0.08130000   1.008000   ; qtot -155.155125
 5911         hc    203    ccc    H14   5911 0.08130000   1.008000   ; qtot -155.073825
 5912          c    203    ccc     C9   5912 1.08970000  12.010000   ; qtot -153.984125
 5913          o    203    ccc     O4   5913 -0.96050000  16.000000   ; qtot -154.944625
 5914          o    203    ccc     O5   5914 -0.96050000  16.000000   ; qtot -155.905125
 5915         os    203    ccc     O1   5915 -0.11060000  16.000000   ; qtot -156.015725
; residue  204 ccc rtp ccc q -2.0
 5916         c3    204    ccc     C3   5916 -0.04070000  12.010000   ; qtot -156.056425
 5917         h1    204    ccc     H5   5917 0.04610000   1.008000   ; qtot -156.010325
 5918         h1    204    ccc     H6   5918 0.04610000   1.008000   ; qtot -155.964225
 5919         c3    204    ccc     C2   5919 -0.02540000  12.010000   ; qtot -155.989625
 5920         hc    204    ccc     H3   5920 0.00850000   1.008000   ; qtot -155.981125
 5921         hc    204    ccc     H4   5921 0.00850000   1.008000   ; qtot -155.972625
 5922         c3    204    ccc     C1   5922 0.60210000  12.010000   ; qtot -155.370525
 5923         h1    204    ccc     H1   5923 -0.09250000   1.008000   ; qtot -155.463025
 5924         h1    204    ccc     H2   5924 -0.09250000   1.008000   ; qtot -155.555525
 5925         n3    204    ccc     N1   5925 -0.59700000  14.010000   ; qtot -156.152525
 5926         c3    204    ccc     C4   5926 0.32800000  12.010000   ; qtot -155.824525
 5927         h1    204    ccc     H7   5927 -0.07120000   1.008000   ; qtot -155.895725
 5928         h1    204    ccc     H8   5928 -0.07120000   1.008000   ; qtot -155.966925
 5929         c3    204    ccc     C5   5929 -0.39330000  12.010000   ; qtot -156.360225
 5930         hc    204    ccc     H9   5930 0.08130000   1.008000   ; qtot -156.278925
 5931         hc    204    ccc    H10   5931 0.08130000   1.008000   ; qtot -156.197625
 5932          c    204    ccc     C6   5932 1.08970000  12.010000   ; qtot -155.107925
 5933          o    204    ccc     O2   5933 -0.96050000  16.000000   ; qtot -156.068425
 5934          o    204    ccc     O3   5934 -0.96050000  16.000000   ; qtot -157.028925
 5935         c3    204    ccc     C7   5935 0.32800000  12.010000   ; qtot -156.700925
 5936         h1    204    ccc    H11   5936 -0.07120000   1.008000   ; qtot -156.772125
 5937         h1    204    ccc    H12   5937 -0.07120000   1.008000   ; qtot -156.843325
 5938         c3    204    ccc     C8   5938 -0.39330000  12.010000   ; qtot -157.236625
 5939         hc    204    ccc    H13   5939 0.08130000   1.008000   ; qtot -157.155325
 5940         hc    204    ccc    H14   5940 0.08130000   1.008000   ; qtot -157.074025
 5941          c    204    ccc     C9   5941 1.08970000  12.010000   ; qtot -155.984325
 5942          o    204    ccc     O4   5942 -0.96050000  16.000000   ; qtot -156.944825
 5943          o    204    ccc     O5   5943 -0.96050000  16.000000   ; qtot -157.905325
 5944         os    204    ccc     O1   5944 -0.11060000  16.000000   ; qtot -158.015925
; residue  205 ccc rtp ccc q -2.0
 5945         c3    205    ccc     C3   5945 -0.04070000  12.010000   ; qtot -158.056625
 5946         h1    205    ccc     H5   5946 0.04610000   1.008000   ; qtot -158.010525
 5947         h1    205    ccc     H6   5947 0.04610000   1.008000   ; qtot -157.964425
 5948         c3    205    ccc     C2   5948 -0.02540000  12.010000   ; qtot -157.989825
 5949         hc    205    ccc     H3   5949 0.00850000   1.008000   ; qtot -157.981325
 5950         hc    205    ccc     H4   5950 0.00850000   1.008000   ; qtot -157.972825
 5951         c3    205    ccc     C1   5951 0.60210000  12.010000   ; qtot -157.370725
 5952         h1    205    ccc     H1   5952 -0.09250000   1.008000   ; qtot -157.463225
 5953         h1    205    ccc     H2   5953 -0.09250000   1.008000   ; qtot -157.555725
 5954         n3    205    ccc     N1   5954 -0.59700000  14.010000   ; qtot -158.152725
 5955         c3    205    ccc     C4   5955 0.32800000  12.010000   ; qtot -157.824725
 5956         h1    205    ccc     H7   5956 -0.07120000   1.008000   ; qtot -157.895925
 5957         h1    205    ccc     H8   5957 -0.07120000   1.008000   ; qtot -157.967125
 5958         c3    205    ccc     C5   5958 -0.39330000  12.010000   ; qtot -158.360425
 5959         hc    205    ccc     H9   5959 0.08130000   1.008000   ; qtot -158.279125
 5960         hc    205    ccc    H10   5960 0.08130000   1.008000   ; qtot -158.197825
 5961          c    205    ccc     C6   5961 1.08970000  12.010000   ; qtot -157.108125
 5962          o    205    ccc     O2   5962 -0.96050000  16.000000   ; qtot -158.068625
 5963          o    205    ccc     O3   5963 -0.96050000  16.000000   ; qtot -159.029125
 5964         c3    205    ccc     C7   5964 0.32800000  12.010000   ; qtot -158.701125
 5965         h1    205    ccc    H11   5965 -0.07120000   1.008000   ; qtot -158.772325
 5966         h1    205    ccc    H12   5966 -0.07120000   1.008000   ; qtot -158.843525
 5967         c3    205    ccc     C8   5967 -0.39330000  12.010000   ; qtot -159.236825
 5968         hc    205    ccc    H13   5968 0.08130000   1.008000   ; qtot -159.155525
 5969         hc    205    ccc    H14   5969 0.08130000   1.008000   ; qtot -159.074225
 5970          c    205    ccc     C9   5970 1.08970000  12.010000   ; qtot -157.984525
 5971          o    205    ccc     O4   5971 -0.96050000  16.000000   ; qtot -158.945025
 5972          o    205    ccc     O5   5972 -0.96050000  16.000000   ; qtot -159.905525
 5973         os    205    ccc     O1   5973 -0.11060000  16.000000   ; qtot -160.016125
; residue  206 ccc rtp ccc q -2.0
 5974         c3    206    ccc     C3   5974 -0.04070000  12.010000   ; qtot -160.056825
 5975         h1    206    ccc     H5   5975 0.04610000   1.008000   ; qtot -160.010725
 5976         h1    206    ccc     H6   5976 0.04610000   1.008000   ; qtot -159.964625
 5977         c3    206    ccc     C2   5977 -0.02540000  12.010000   ; qtot -159.990025
 5978         hc    206    ccc     H3   5978 0.00850000   1.008000   ; qtot -159.981525
 5979         hc    206    ccc     H4   5979 0.00850000   1.008000   ; qtot -159.973025
 5980         c3    206    ccc     C1   5980 0.60210000  12.010000   ; qtot -159.370925
 5981         h1    206    ccc     H1   5981 -0.09250000   1.008000   ; qtot -159.463425
 5982         h1    206    ccc     H2   5982 -0.09250000   1.008000   ; qtot -159.555925
 5983         n3    206    ccc     N1   5983 -0.59700000  14.010000   ; qtot -160.152925
 5984         c3    206    ccc     C4   5984 0.32800000  12.010000   ; qtot -159.824925
 5985         h1    206    ccc     H7   5985 -0.07120000   1.008000   ; qtot -159.896125
 5986         h1    206    ccc     H8   5986 -0.07120000   1.008000   ; qtot -159.967325
 5987         c3    206    ccc     C5   5987 -0.39330000  12.010000   ; qtot -160.360625
 5988         hc    206    ccc     H9   5988 0.08130000   1.008000   ; qtot -160.279325
 5989         hc    206    ccc    H10   5989 0.08130000   1.008000   ; qtot -160.198025
 5990          c    206    ccc     C6   5990 1.08970000  12.010000   ; qtot -159.108325
 5991          o    206    ccc     O2   5991 -0.96050000  16.000000   ; qtot -160.068825
 5992          o    206    ccc     O3   5992 -0.96050000  16.000000   ; qtot -161.029325
 5993         c3    206    ccc     C7   5993 0.32800000  12.010000   ; qtot -160.701325
 5994         h1    206    ccc    H11   5994 -0.07120000   1.008000   ; qtot -160.772525
 5995         h1    206    ccc    H12   5995 -0.07120000   1.008000   ; qtot -160.843725
 5996         c3    206    ccc     C8   5996 -0.39330000  12.010000   ; qtot -161.237025
 5997         hc    206    ccc    H13   5997 0.08130000   1.008000   ; qtot -161.155725
 5998         hc    206    ccc    H14   5998 0.08130000   1.008000   ; qtot -161.074425
 5999          c    206    ccc     C9   5999 1.08970000  12.010000   ; qtot -159.984725
 6000          o    206    ccc     O4   6000 -0.96050000  16.000000   ; qtot -160.945225
 6001          o    206    ccc     O5   6001 -0.96050000  16.000000   ; qtot -161.905725
 6002         os    206    ccc     O1   6002 -0.11060000  16.000000   ; qtot -162.016325
; residue  207 ccc rtp ccc q -2.0
 6003         c3    207    ccc     C3   6003 -0.04070000  12.010000   ; qtot -162.057025
 6004         h1    207    ccc     H5   6004 0.04610000   1.008000   ; qtot -162.010925
 6005         h1    207    ccc     H6   6005 0.04610000   1.008000   ; qtot -161.964825
 6006         c3    207    ccc     C2   6006 -0.02540000  12.010000   ; qtot -161.990225
 6007         hc    207    ccc     H3   6007 0.00850000   1.008000   ; qtot -161.981725
 6008         hc    207    ccc     H4   6008 0.00850000   1.008000   ; qtot -161.973225
 6009         c3    207    ccc     C1   6009 0.60210000  12.010000   ; qtot -161.371125
 6010         h1    207    ccc     H1   6010 -0.09250000   1.008000   ; qtot -161.463625
 6011         h1    207    ccc     H2   6011 -0.09250000   1.008000   ; qtot -161.556125
 6012         n3    207    ccc     N1   6012 -0.59700000  14.010000   ; qtot -162.153125
 6013         c3    207    ccc     C4   6013 0.32800000  12.010000   ; qtot -161.825125
 6014         h1    207    ccc     H7   6014 -0.07120000   1.008000   ; qtot -161.896325
 6015         h1    207    ccc     H8   6015 -0.07120000   1.008000   ; qtot -161.967525
 6016         c3    207    ccc     C5   6016 -0.39330000  12.010000   ; qtot -162.360825
 6017         hc    207    ccc     H9   6017 0.08130000   1.008000   ; qtot -162.279525
 6018         hc    207    ccc    H10   6018 0.08130000   1.008000   ; qtot -162.198225
 6019          c    207    ccc     C6   6019 1.08970000  12.010000   ; qtot -161.108525
 6020          o    207    ccc     O2   6020 -0.96050000  16.000000   ; qtot -162.069025
 6021          o    207    ccc     O3   6021 -0.96050000  16.000000   ; qtot -163.029525
 6022         c3    207    ccc     C7   6022 0.32800000  12.010000   ; qtot -162.701525
 6023         h1    207    ccc    H11   6023 -0.07120000   1.008000   ; qtot -162.772725
 6024         h1    207    ccc    H12   6024 -0.07120000   1.008000   ; qtot -162.843925
 6025         c3    207    ccc     C8   6025 -0.39330000  12.010000   ; qtot -163.237225
 6026         hc    207    ccc    H13   6026 0.08130000   1.008000   ; qtot -163.155925
 6027         hc    207    ccc    H14   6027 0.08130000   1.008000   ; qtot -163.074625
 6028          c    207    ccc     C9   6028 1.08970000  12.010000   ; qtot -161.984925
 6029          o    207    ccc     O4   6029 -0.96050000  16.000000   ; qtot -162.945425
 6030          o    207    ccc     O5   6030 -0.96050000  16.000000   ; qtot -163.905925
 6031         os    207    ccc     O1   6031 -0.11060000  16.000000   ; qtot -164.016525
; residue  208 ccc rtp ccc q -2.0
 6032         c3    208    ccc     C3   6032 -0.04070000  12.010000   ; qtot -164.057225
 6033         h1    208    ccc     H5   6033 0.04610000   1.008000   ; qtot -164.011125
 6034         h1    208    ccc     H6   6034 0.04610000   1.008000   ; qtot -163.965025
 6035         c3    208    ccc     C2   6035 -0.02540000  12.010000   ; qtot -163.990425
 6036         hc    208    ccc     H3   6036 0.00850000   1.008000   ; qtot -163.981925
 6037         hc    208    ccc     H4   6037 0.00850000   1.008000   ; qtot -163.973425
 6038         c3    208    ccc     C1   6038 0.60210000  12.010000   ; qtot -163.371325
 6039         h1    208    ccc     H1   6039 -0.09250000   1.008000   ; qtot -163.463825
 6040         h1    208    ccc     H2   6040 -0.09250000   1.008000   ; qtot -163.556325
 6041         n3    208    ccc     N1   6041 -0.59700000  14.010000   ; qtot -164.153325
 6042         c3    208    ccc     C4   6042 0.32800000  12.010000   ; qtot -163.825325
 6043         h1    208    ccc     H7   6043 -0.07120000   1.008000   ; qtot -163.896525
 6044         h1    208    ccc     H8   6044 -0.07120000   1.008000   ; qtot -163.967725
 6045         c3    208    ccc     C5   6045 -0.39330000  12.010000   ; qtot -164.361025
 6046         hc    208    ccc     H9   6046 0.08130000   1.008000   ; qtot -164.279725
 6047         hc    208    ccc    H10   6047 0.08130000   1.008000   ; qtot -164.198425
 6048          c    208    ccc     C6   6048 1.08970000  12.010000   ; qtot -163.108725
 6049          o    208    ccc     O2   6049 -0.96050000  16.000000   ; qtot -164.069225
 6050          o    208    ccc     O3   6050 -0.96050000  16.000000   ; qtot -165.029725
 6051         c3    208    ccc     C7   6051 0.32800000  12.010000   ; qtot -164.701725
 6052         h1    208    ccc    H11   6052 -0.07120000   1.008000   ; qtot -164.772925
 6053         h1    208    ccc    H12   6053 -0.07120000   1.008000   ; qtot -164.844125
 6054         c3    208    ccc     C8   6054 -0.39330000  12.010000   ; qtot -165.237425
 6055         hc    208    ccc    H13   6055 0.08130000   1.008000   ; qtot -165.156125
 6056         hc    208    ccc    H14   6056 0.08130000   1.008000   ; qtot -165.074825
 6057          c    208    ccc     C9   6057 1.08970000  12.010000   ; qtot -163.985125
 6058          o    208    ccc     O4   6058 -0.96050000  16.000000   ; qtot -164.945625
 6059          o    208    ccc     O5   6059 -0.96050000  16.000000   ; qtot -165.906125
 6060         os    208    ccc     O1   6060 -0.11060000  16.000000   ; qtot -166.016725
; residue  209 ccc rtp ccc q -2.0
 6061         c3    209    ccc     C3   6061 -0.04070000  12.010000   ; qtot -166.057425
 6062         h1    209    ccc     H5   6062 0.04610000   1.008000   ; qtot -166.011325
 6063         h1    209    ccc     H6   6063 0.04610000   1.008000   ; qtot -165.965225
 6064         c3    209    ccc     C2   6064 -0.02540000  12.010000   ; qtot -165.990625
 6065         hc    209    ccc     H3   6065 0.00850000   1.008000   ; qtot -165.982125
 6066         hc    209    ccc     H4   6066 0.00850000   1.008000   ; qtot -165.973625
 6067         c3    209    ccc     C1   6067 0.60210000  12.010000   ; qtot -165.371525
 6068         h1    209    ccc     H1   6068 -0.09250000   1.008000   ; qtot -165.464025
 6069         h1    209    ccc     H2   6069 -0.09250000   1.008000   ; qtot -165.556525
 6070         n3    209    ccc     N1   6070 -0.59700000  14.010000   ; qtot -166.153525
 6071         c3    209    ccc     C4   6071 0.32800000  12.010000   ; qtot -165.825525
 6072         h1    209    ccc     H7   6072 -0.07120000   1.008000   ; qtot -165.896725
 6073         h1    209    ccc     H8   6073 -0.07120000   1.008000   ; qtot -165.967925
 6074         c3    209    ccc     C5   6074 -0.39330000  12.010000   ; qtot -166.361225
 6075         hc    209    ccc     H9   6075 0.08130000   1.008000   ; qtot -166.279925
 6076         hc    209    ccc    H10   6076 0.08130000   1.008000   ; qtot -166.198625
 6077          c    209    ccc     C6   6077 1.08970000  12.010000   ; qtot -165.108925
 6078          o    209    ccc     O2   6078 -0.96050000  16.000000   ; qtot -166.069425
 6079          o    209    ccc     O3   6079 -0.96050000  16.000000   ; qtot -167.029925
 6080         c3    209    ccc     C7   6080 0.32800000  12.010000   ; qtot -166.701925
 6081         h1    209    ccc    H11   6081 -0.07120000   1.008000   ; qtot -166.773125
 6082         h1    209    ccc    H12   6082 -0.07120000   1.008000   ; qtot -166.844325
 6083         c3    209    ccc     C8   6083 -0.39330000  12.010000   ; qtot -167.237625
 6084         hc    209    ccc    H13   6084 0.08130000   1.008000   ; qtot -167.156325
 6085         hc    209    ccc    H14   6085 0.08130000   1.008000   ; qtot -167.075025
 6086          c    209    ccc     C9   6086 1.08970000  12.010000   ; qtot -165.985325
 6087          o    209    ccc     O4   6087 -0.96050000  16.000000   ; qtot -166.945825
 6088          o    209    ccc     O5   6088 -0.96050000  16.000000   ; qtot -167.906325
 6089         os    209    ccc     O1   6089 -0.11060000  16.000000   ; qtot -168.016925
; residue  210 ccc rtp ccc q -2.0
 6090         c3    210    ccc     C3   6090 -0.04070000  12.010000   ; qtot -168.057625
 6091         h1    210    ccc     H5   6091 0.04610000   1.008000   ; qtot -168.011525
 6092         h1    210    ccc     H6   6092 0.04610000   1.008000   ; qtot -167.965425
 6093         c3    210    ccc     C2   6093 -0.02540000  12.010000   ; qtot -167.990825
 6094         hc    210    ccc     H3   6094 0.00850000   1.008000   ; qtot -167.982325
 6095         hc    210    ccc     H4   6095 0.00850000   1.008000   ; qtot -167.973825
 6096         c3    210    ccc     C1   6096 0.60210000  12.010000   ; qtot -167.371725
 6097         h1    210    ccc     H1   6097 -0.09250000   1.008000   ; qtot -167.464225
 6098         h1    210    ccc     H2   6098 -0.09250000   1.008000   ; qtot -167.556725
 6099         n3    210    ccc     N1   6099 -0.59700000  14.010000   ; qtot -168.153725
 6100         c3    210    ccc     C4   6100 0.32800000  12.010000   ; qtot -167.825725
 6101         h1    210    ccc     H7   6101 -0.07120000   1.008000   ; qtot -167.896925
 6102         h1    210    ccc     H8   6102 -0.07120000   1.008000   ; qtot -167.968125
 6103         c3    210    ccc     C5   6103 -0.39330000  12.010000   ; qtot -168.361425
 6104         hc    210    ccc     H9   6104 0.08130000   1.008000   ; qtot -168.280125
 6105         hc    210    ccc    H10   6105 0.08130000   1.008000   ; qtot -168.198825
 6106          c    210    ccc     C6   6106 1.08970000  12.010000   ; qtot -167.109125
 6107          o    210    ccc     O2   6107 -0.96050000  16.000000   ; qtot -168.069625
 6108          o    210    ccc     O3   6108 -0.96050000  16.000000   ; qtot -169.030125
 6109         c3    210    ccc     C7   6109 0.32800000  12.010000   ; qtot -168.702125
 6110         h1    210    ccc    H11   6110 -0.07120000   1.008000   ; qtot -168.773325
 6111         h1    210    ccc    H12   6111 -0.07120000   1.008000   ; qtot -168.844525
 6112         c3    210    ccc     C8   6112 -0.39330000  12.010000   ; qtot -169.237825
 6113         hc    210    ccc    H13   6113 0.08130000   1.008000   ; qtot -169.156525
 6114         hc    210    ccc    H14   6114 0.08130000   1.008000   ; qtot -169.075225
 6115          c    210    ccc     C9   6115 1.08970000  12.010000   ; qtot -167.985525
 6116          o    210    ccc     O4   6116 -0.96050000  16.000000   ; qtot -168.946025
 6117          o    210    ccc     O5   6117 -0.96050000  16.000000   ; qtot -169.906525
 6118         os    210    ccc     O1   6118 -0.11060000  16.000000   ; qtot -170.017125
; residue  211 ccc rtp ccc q -2.0
 6119         c3    211    ccc     C3   6119 -0.04070000  12.010000   ; qtot -170.057825
 6120         h1    211    ccc     H5   6120 0.04610000   1.008000   ; qtot -170.011725
 6121         h1    211    ccc     H6   6121 0.04610000   1.008000   ; qtot -169.965625
 6122         c3    211    ccc     C2   6122 -0.02540000  12.010000   ; qtot -169.991025
 6123         hc    211    ccc     H3   6123 0.00850000   1.008000   ; qtot -169.982525
 6124         hc    211    ccc     H4   6124 0.00850000   1.008000   ; qtot -169.974025
 6125         c3    211    ccc     C1   6125 0.60210000  12.010000   ; qtot -169.371925
 6126         h1    211    ccc     H1   6126 -0.09250000   1.008000   ; qtot -169.464425
 6127         h1    211    ccc     H2   6127 -0.09250000   1.008000   ; qtot -169.556925
 6128         n3    211    ccc     N1   6128 -0.59700000  14.010000   ; qtot -170.153925
 6129         c3    211    ccc     C4   6129 0.32800000  12.010000   ; qtot -169.825925
 6130         h1    211    ccc     H7   6130 -0.07120000   1.008000   ; qtot -169.897125
 6131         h1    211    ccc     H8   6131 -0.07120000   1.008000   ; qtot -169.968325
 6132         c3    211    ccc     C5   6132 -0.39330000  12.010000   ; qtot -170.361625
 6133         hc    211    ccc     H9   6133 0.08130000   1.008000   ; qtot -170.280325
 6134         hc    211    ccc    H10   6134 0.08130000   1.008000   ; qtot -170.199025
 6135          c    211    ccc     C6   6135 1.08970000  12.010000   ; qtot -169.109325
 6136          o    211    ccc     O2   6136 -0.96050000  16.000000   ; qtot -170.069825
 6137          o    211    ccc     O3   6137 -0.96050000  16.000000   ; qtot -171.030325
 6138         c3    211    ccc     C7   6138 0.32800000  12.010000   ; qtot -170.702325
 6139         h1    211    ccc    H11   6139 -0.07120000   1.008000   ; qtot -170.773525
 6140         h1    211    ccc    H12   6140 -0.07120000   1.008000   ; qtot -170.844725
 6141         c3    211    ccc     C8   6141 -0.39330000  12.010000   ; qtot -171.238025
 6142         hc    211    ccc    H13   6142 0.08130000   1.008000   ; qtot -171.156725
 6143         hc    211    ccc    H14   6143 0.08130000   1.008000   ; qtot -171.075425
 6144          c    211    ccc     C9   6144 1.08970000  12.010000   ; qtot -169.985725
 6145          o    211    ccc     O4   6145 -0.96050000  16.000000   ; qtot -170.946225
 6146          o    211    ccc     O5   6146 -0.96050000  16.000000   ; qtot -171.906725
 6147         os    211    ccc     O1   6147 -0.11060000  16.000000   ; qtot -172.017325
; residue  212 ccc rtp ccc q -2.0
 6148         c3    212    ccc     C3   6148 -0.04070000  12.010000   ; qtot -172.058025
 6149         h1    212    ccc     H5   6149 0.04610000   1.008000   ; qtot -172.011925
 6150         h1    212    ccc     H6   6150 0.04610000   1.008000   ; qtot -171.965825
 6151         c3    212    ccc     C2   6151 -0.02540000  12.010000   ; qtot -171.991225
 6152         hc    212    ccc     H3   6152 0.00850000   1.008000   ; qtot -171.982725
 6153         hc    212    ccc     H4   6153 0.00850000   1.008000   ; qtot -171.974225
 6154         c3    212    ccc     C1   6154 0.60210000  12.010000   ; qtot -171.372125
 6155         h1    212    ccc     H1   6155 -0.09250000   1.008000   ; qtot -171.464625
 6156         h1    212    ccc     H2   6156 -0.09250000   1.008000   ; qtot -171.557125
 6157         n3    212    ccc     N1   6157 -0.59700000  14.010000   ; qtot -172.154125
 6158         c3    212    ccc     C4   6158 0.32800000  12.010000   ; qtot -171.826125
 6159         h1    212    ccc     H7   6159 -0.07120000   1.008000   ; qtot -171.897325
 6160         h1    212    ccc     H8   6160 -0.07120000   1.008000   ; qtot -171.968525
 6161         c3    212    ccc     C5   6161 -0.39330000  12.010000   ; qtot -172.361825
 6162         hc    212    ccc     H9   6162 0.08130000   1.008000   ; qtot -172.280525
 6163         hc    212    ccc    H10   6163 0.08130000   1.008000   ; qtot -172.199225
 6164          c    212    ccc     C6   6164 1.08970000  12.010000   ; qtot -171.109525
 6165          o    212    ccc     O2   6165 -0.96050000  16.000000   ; qtot -172.070025
 6166          o    212    ccc     O3   6166 -0.96050000  16.000000   ; qtot -173.030525
 6167         c3    212    ccc     C7   6167 0.32800000  12.010000   ; qtot -172.702525
 6168         h1    212    ccc    H11   6168 -0.07120000   1.008000   ; qtot -172.773725
 6169         h1    212    ccc    H12   6169 -0.07120000   1.008000   ; qtot -172.844925
 6170         c3    212    ccc     C8   6170 -0.39330000  12.010000   ; qtot -173.238225
 6171         hc    212    ccc    H13   6171 0.08130000   1.008000   ; qtot -173.156925
 6172         hc    212    ccc    H14   6172 0.08130000   1.008000   ; qtot -173.075625
 6173          c    212    ccc     C9   6173 1.08970000  12.010000   ; qtot -171.985925
 6174          o    212    ccc     O4   6174 -0.96050000  16.000000   ; qtot -172.946425
 6175          o    212    ccc     O5   6175 -0.96050000  16.000000   ; qtot -173.906925
 6176         os    212    ccc     O1   6176 -0.11060000  16.000000   ; qtot -174.017525
; residue  213 ccc rtp ccc q -2.0
 6177         c3    213    ccc     C3   6177 -0.04070000  12.010000   ; qtot -174.058225
 6178         h1    213    ccc     H5   6178 0.04610000   1.008000   ; qtot -174.012125
 6179         h1    213    ccc     H6   6179 0.04610000   1.008000   ; qtot -173.966025
 6180         c3    213    ccc     C2   6180 -0.02540000  12.010000   ; qtot -173.991425
 6181         hc    213    ccc     H3   6181 0.00850000   1.008000   ; qtot -173.982925
 6182         hc    213    ccc     H4   6182 0.00850000   1.008000   ; qtot -173.974425
 6183         c3    213    ccc     C1   6183 0.60210000  12.010000   ; qtot -173.372325
 6184         h1    213    ccc     H1   6184 -0.09250000   1.008000   ; qtot -173.464825
 6185         h1    213    ccc     H2   6185 -0.09250000   1.008000   ; qtot -173.557325
 6186         n3    213    ccc     N1   6186 -0.59700000  14.010000   ; qtot -174.154325
 6187         c3    213    ccc     C4   6187 0.32800000  12.010000   ; qtot -173.826325
 6188         h1    213    ccc     H7   6188 -0.07120000   1.008000   ; qtot -173.897525
 6189         h1    213    ccc     H8   6189 -0.07120000   1.008000   ; qtot -173.968725
 6190         c3    213    ccc     C5   6190 -0.39330000  12.010000   ; qtot -174.362025
 6191         hc    213    ccc     H9   6191 0.08130000   1.008000   ; qtot -174.280725
 6192         hc    213    ccc    H10   6192 0.08130000   1.008000   ; qtot -174.199425
 6193          c    213    ccc     C6   6193 1.08970000  12.010000   ; qtot -173.109725
 6194          o    213    ccc     O2   6194 -0.96050000  16.000000   ; qtot -174.070225
 6195          o    213    ccc     O3   6195 -0.96050000  16.000000   ; qtot -175.030725
 6196         c3    213    ccc     C7   6196 0.32800000  12.010000   ; qtot -174.702725
 6197         h1    213    ccc    H11   6197 -0.07120000   1.008000   ; qtot -174.773925
 6198         h1    213    ccc    H12   6198 -0.07120000   1.008000   ; qtot -174.845125
 6199         c3    213    ccc     C8   6199 -0.39330000  12.010000   ; qtot -175.238425
 6200         hc    213    ccc    H13   6200 0.08130000   1.008000   ; qtot -175.157125
 6201         hc    213    ccc    H14   6201 0.08130000   1.008000   ; qtot -175.075825
 6202          c    213    ccc     C9   6202 1.08970000  12.010000   ; qtot -173.986125
 6203          o    213    ccc     O4   6203 -0.96050000  16.000000   ; qtot -174.946625
 6204          o    213    ccc     O5   6204 -0.96050000  16.000000   ; qtot -175.907125
 6205         os    213    ccc     O1   6205 -0.11060000  16.000000   ; qtot -176.017725
; residue  214 ccc rtp ccc q -2.0
 6206         c3    214    ccc     C3   6206 -0.04070000  12.010000   ; qtot -176.058425
 6207         h1    214    ccc     H5   6207 0.04610000   1.008000   ; qtot -176.012325
 6208         h1    214    ccc     H6   6208 0.04610000   1.008000   ; qtot -175.966225
 6209         c3    214    ccc     C2   6209 -0.02540000  12.010000   ; qtot -175.991625
 6210         hc    214    ccc     H3   6210 0.00850000   1.008000   ; qtot -175.983125
 6211         hc    214    ccc     H4   6211 0.00850000   1.008000   ; qtot -175.974625
 6212         c3    214    ccc     C1   6212 0.60210000  12.010000   ; qtot -175.372525
 6213         h1    214    ccc     H1   6213 -0.09250000   1.008000   ; qtot -175.465025
 6214         h1    214    ccc     H2   6214 -0.09250000   1.008000   ; qtot -175.557525
 6215         n3    214    ccc     N1   6215 -0.59700000  14.010000   ; qtot -176.154525
 6216         c3    214    ccc     C4   6216 0.32800000  12.010000   ; qtot -175.826525
 6217         h1    214    ccc     H7   6217 -0.07120000   1.008000   ; qtot -175.897725
 6218         h1    214    ccc     H8   6218 -0.07120000   1.008000   ; qtot -175.968925
 6219         c3    214    ccc     C5   6219 -0.39330000  12.010000   ; qtot -176.362225
 6220         hc    214    ccc     H9   6220 0.08130000   1.008000   ; qtot -176.280925
 6221         hc    214    ccc    H10   6221 0.08130000   1.008000   ; qtot -176.199625
 6222          c    214    ccc     C6   6222 1.08970000  12.010000   ; qtot -175.109925
 6223          o    214    ccc     O2   6223 -0.96050000  16.000000   ; qtot -176.070425
 6224          o    214    ccc     O3   6224 -0.96050000  16.000000   ; qtot -177.030925
 6225         c3    214    ccc     C7   6225 0.32800000  12.010000   ; qtot -176.702925
 6226         h1    214    ccc    H11   6226 -0.07120000   1.008000   ; qtot -176.774125
 6227         h1    214    ccc    H12   6227 -0.07120000   1.008000   ; qtot -176.845325
 6228         c3    214    ccc     C8   6228 -0.39330000  12.010000   ; qtot -177.238625
 6229         hc    214    ccc    H13   6229 0.08130000   1.008000   ; qtot -177.157325
 6230         hc    214    ccc    H14   6230 0.08130000   1.008000   ; qtot -177.076025
 6231          c    214    ccc     C9   6231 1.08970000  12.010000   ; qtot -175.986325
 6232          o    214    ccc     O4   6232 -0.96050000  16.000000   ; qtot -176.946825
 6233          o    214    ccc     O5   6233 -0.96050000  16.000000   ; qtot -177.907325
 6234         os    214    ccc     O1   6234 -0.11060000  16.000000   ; qtot -178.017925
; residue  215 ccc rtp ccc q -2.0
 6235         c3    215    ccc     C3   6235 -0.04070000  12.010000   ; qtot -178.058625
 6236         h1    215    ccc     H5   6236 0.04610000   1.008000   ; qtot -178.012525
 6237         h1    215    ccc     H6   6237 0.04610000   1.008000   ; qtot -177.966425
 6238         c3    215    ccc     C2   6238 -0.02540000  12.010000   ; qtot -177.991825
 6239         hc    215    ccc     H3   6239 0.00850000   1.008000   ; qtot -177.983325
 6240         hc    215    ccc     H4   6240 0.00850000   1.008000   ; qtot -177.974825
 6241         c3    215    ccc     C1   6241 0.60210000  12.010000   ; qtot -177.372725
 6242         h1    215    ccc     H1   6242 -0.09250000   1.008000   ; qtot -177.465225
 6243         h1    215    ccc     H2   6243 -0.09250000   1.008000   ; qtot -177.557725
 6244         n3    215    ccc     N1   6244 -0.59700000  14.010000   ; qtot -178.154725
 6245         c3    215    ccc     C4   6245 0.32800000  12.010000   ; qtot -177.826725
 6246         h1    215    ccc     H7   6246 -0.07120000   1.008000   ; qtot -177.897925
 6247         h1    215    ccc     H8   6247 -0.07120000   1.008000   ; qtot -177.969125
 6248         c3    215    ccc     C5   6248 -0.39330000  12.010000   ; qtot -178.362425
 6249         hc    215    ccc     H9   6249 0.08130000   1.008000   ; qtot -178.281125
 6250         hc    215    ccc    H10   6250 0.08130000   1.008000   ; qtot -178.199825
 6251          c    215    ccc     C6   6251 1.08970000  12.010000   ; qtot -177.110125
 6252          o    215    ccc     O2   6252 -0.96050000  16.000000   ; qtot -178.070625
 6253          o    215    ccc     O3   6253 -0.96050000  16.000000   ; qtot -179.031125
 6254         c3    215    ccc     C7   6254 0.32800000  12.010000   ; qtot -178.703125
 6255         h1    215    ccc    H11   6255 -0.07120000   1.008000   ; qtot -178.774325
 6256         h1    215    ccc    H12   6256 -0.07120000   1.008000   ; qtot -178.845525
 6257         c3    215    ccc     C8   6257 -0.39330000  12.010000   ; qtot -179.238825
 6258         hc    215    ccc    H13   6258 0.08130000   1.008000   ; qtot -179.157525
 6259         hc    215    ccc    H14   6259 0.08130000   1.008000   ; qtot -179.076225
 6260          c    215    ccc     C9   6260 1.08970000  12.010000   ; qtot -177.986525
 6261          o    215    ccc     O4   6261 -0.96050000  16.000000   ; qtot -178.947025
 6262          o    215    ccc     O5   6262 -0.96050000  16.000000   ; qtot -179.907525
 6263         os    215    ccc     O1   6263 -0.11060000  16.000000   ; qtot -180.018125
; residue  216 ccc rtp ccc q -2.0
 6264         c3    216    ccc     C3   6264 -0.04070000  12.010000   ; qtot -180.058825
 6265         h1    216    ccc     H5   6265 0.04610000   1.008000   ; qtot -180.012725
 6266         h1    216    ccc     H6   6266 0.04610000   1.008000   ; qtot -179.966625
 6267         c3    216    ccc     C2   6267 -0.02540000  12.010000   ; qtot -179.992025
 6268         hc    216    ccc     H3   6268 0.00850000   1.008000   ; qtot -179.983525
 6269         hc    216    ccc     H4   6269 0.00850000   1.008000   ; qtot -179.975025
 6270         c3    216    ccc     C1   6270 0.60210000  12.010000   ; qtot -179.372925
 6271         h1    216    ccc     H1   6271 -0.09250000   1.008000   ; qtot -179.465425
 6272         h1    216    ccc     H2   6272 -0.09250000   1.008000   ; qtot -179.557925
 6273         n3    216    ccc     N1   6273 -0.59700000  14.010000   ; qtot -180.154925
 6274         c3    216    ccc     C4   6274 0.32800000  12.010000   ; qtot -179.826925
 6275         h1    216    ccc     H7   6275 -0.07120000   1.008000   ; qtot -179.898125
 6276         h1    216    ccc     H8   6276 -0.07120000   1.008000   ; qtot -179.969325
 6277         c3    216    ccc     C5   6277 -0.39330000  12.010000   ; qtot -180.362625
 6278         hc    216    ccc     H9   6278 0.08130000   1.008000   ; qtot -180.281325
 6279         hc    216    ccc    H10   6279 0.08130000   1.008000   ; qtot -180.200025
 6280          c    216    ccc     C6   6280 1.08970000  12.010000   ; qtot -179.110325
 6281          o    216    ccc     O2   6281 -0.96050000  16.000000   ; qtot -180.070825
 6282          o    216    ccc     O3   6282 -0.96050000  16.000000   ; qtot -181.031325
 6283         c3    216    ccc     C7   6283 0.32800000  12.010000   ; qtot -180.703325
 6284         h1    216    ccc    H11   6284 -0.07120000   1.008000   ; qtot -180.774525
 6285         h1    216    ccc    H12   6285 -0.07120000   1.008000   ; qtot -180.845725
 6286         c3    216    ccc     C8   6286 -0.39330000  12.010000   ; qtot -181.239025
 6287         hc    216    ccc    H13   6287 0.08130000   1.008000   ; qtot -181.157725
 6288         hc    216    ccc    H14   6288 0.08130000   1.008000   ; qtot -181.076425
 6289          c    216    ccc     C9   6289 1.08970000  12.010000   ; qtot -179.986725
 6290          o    216    ccc     O4   6290 -0.96050000  16.000000   ; qtot -180.947225
 6291          o    216    ccc     O5   6291 -0.96050000  16.000000   ; qtot -181.907725
 6292         os    216    ccc     O1   6292 -0.11060000  16.000000   ; qtot -182.018325
; residue  217 ccc rtp ccc q -2.0
 6293         c3    217    ccc     C3   6293 -0.04070000  12.010000   ; qtot -182.059025
 6294         h1    217    ccc     H5   6294 0.04610000   1.008000   ; qtot -182.012925
 6295         h1    217    ccc     H6   6295 0.04610000   1.008000   ; qtot -181.966825
 6296         c3    217    ccc     C2   6296 -0.02540000  12.010000   ; qtot -181.992225
 6297         hc    217    ccc     H3   6297 0.00850000   1.008000   ; qtot -181.983725
 6298         hc    217    ccc     H4   6298 0.00850000   1.008000   ; qtot -181.975225
 6299         c3    217    ccc     C1   6299 0.60210000  12.010000   ; qtot -181.373125
 6300         h1    217    ccc     H1   6300 -0.09250000   1.008000   ; qtot -181.465625
 6301         h1    217    ccc     H2   6301 -0.09250000   1.008000   ; qtot -181.558125
 6302         n3    217    ccc     N1   6302 -0.59700000  14.010000   ; qtot -182.155125
 6303         c3    217    ccc     C4   6303 0.32800000  12.010000   ; qtot -181.827125
 6304         h1    217    ccc     H7   6304 -0.07120000   1.008000   ; qtot -181.898325
 6305         h1    217    ccc     H8   6305 -0.07120000   1.008000   ; qtot -181.969525
 6306         c3    217    ccc     C5   6306 -0.39330000  12.010000   ; qtot -182.362825
 6307         hc    217    ccc     H9   6307 0.08130000   1.008000   ; qtot -182.281525
 6308         hc    217    ccc    H10   6308 0.08130000   1.008000   ; qtot -182.200225
 6309          c    217    ccc     C6   6309 1.08970000  12.010000   ; qtot -181.110525
 6310          o    217    ccc     O2   6310 -0.96050000  16.000000   ; qtot -182.071025
 6311          o    217    ccc     O3   6311 -0.96050000  16.000000   ; qtot -183.031525
 6312         c3    217    ccc     C7   6312 0.32800000  12.010000   ; qtot -182.703525
 6313         h1    217    ccc    H11   6313 -0.07120000   1.008000   ; qtot -182.774725
 6314         h1    217    ccc    H12   6314 -0.07120000   1.008000   ; qtot -182.845925
 6315         c3    217    ccc     C8   6315 -0.39330000  12.010000   ; qtot -183.239225
 6316         hc    217    ccc    H13   6316 0.08130000   1.008000   ; qtot -183.157925
 6317         hc    217    ccc    H14   6317 0.08130000   1.008000   ; qtot -183.076625
 6318          c    217    ccc     C9   6318 1.08970000  12.010000   ; qtot -181.986925
 6319          o    217    ccc     O4   6319 -0.96050000  16.000000   ; qtot -182.947425
 6320          o    217    ccc     O5   6320 -0.96050000  16.000000   ; qtot -183.907925
 6321         os    217    ccc     O1   6321 -0.11060000  16.000000   ; qtot -184.018525
; residue  218 ccc rtp ccc q -2.0
 6322         c3    218    ccc     C3   6322 -0.04070000  12.010000   ; qtot -184.059225
 6323         h1    218    ccc     H5   6323 0.04610000   1.008000   ; qtot -184.013125
 6324         h1    218    ccc     H6   6324 0.04610000   1.008000   ; qtot -183.967025
 6325         c3    218    ccc     C2   6325 -0.02540000  12.010000   ; qtot -183.992425
 6326         hc    218    ccc     H3   6326 0.00850000   1.008000   ; qtot -183.983925
 6327         hc    218    ccc     H4   6327 0.00850000   1.008000   ; qtot -183.975425
 6328         c3    218    ccc     C1   6328 0.60210000  12.010000   ; qtot -183.373325
 6329         h1    218    ccc     H1   6329 -0.09250000   1.008000   ; qtot -183.465825
 6330         h1    218    ccc     H2   6330 -0.09250000   1.008000   ; qtot -183.558325
 6331         n3    218    ccc     N1   6331 -0.59700000  14.010000   ; qtot -184.155325
 6332         c3    218    ccc     C4   6332 0.32800000  12.010000   ; qtot -183.827325
 6333         h1    218    ccc     H7   6333 -0.07120000   1.008000   ; qtot -183.898525
 6334         h1    218    ccc     H8   6334 -0.07120000   1.008000   ; qtot -183.969725
 6335         c3    218    ccc     C5   6335 -0.39330000  12.010000   ; qtot -184.363025
 6336         hc    218    ccc     H9   6336 0.08130000   1.008000   ; qtot -184.281725
 6337         hc    218    ccc    H10   6337 0.08130000   1.008000   ; qtot -184.200425
 6338          c    218    ccc     C6   6338 1.08970000  12.010000   ; qtot -183.110725
 6339          o    218    ccc     O2   6339 -0.96050000  16.000000   ; qtot -184.071225
 6340          o    218    ccc     O3   6340 -0.96050000  16.000000   ; qtot -185.031725
 6341         c3    218    ccc     C7   6341 0.32800000  12.010000   ; qtot -184.703725
 6342         h1    218    ccc    H11   6342 -0.07120000   1.008000   ; qtot -184.774925
 6343         h1    218    ccc    H12   6343 -0.07120000   1.008000   ; qtot -184.846125
 6344         c3    218    ccc     C8   6344 -0.39330000  12.010000   ; qtot -185.239425
 6345         hc    218    ccc    H13   6345 0.08130000   1.008000   ; qtot -185.158125
 6346         hc    218    ccc    H14   6346 0.08130000   1.008000   ; qtot -185.076825
 6347          c    218    ccc     C9   6347 1.08970000  12.010000   ; qtot -183.987125
 6348          o    218    ccc     O4   6348 -0.96050000  16.000000   ; qtot -184.947625
 6349          o    218    ccc     O5   6349 -0.96050000  16.000000   ; qtot -185.908125
 6350         os    218    ccc     O1   6350 -0.11060000  16.000000   ; qtot -186.018725
; residue  219 ccc rtp ccc q -2.0
 6351         c3    219    ccc     C3   6351 -0.04070000  12.010000   ; qtot -186.059425
 6352         h1    219    ccc     H5   6352 0.04610000   1.008000   ; qtot -186.013325
 6353         h1    219    ccc     H6   6353 0.04610000   1.008000   ; qtot -185.967225
 6354         c3    219    ccc     C2   6354 -0.02540000  12.010000   ; qtot -185.992625
 6355         hc    219    ccc     H3   6355 0.00850000   1.008000   ; qtot -185.984125
 6356         hc    219    ccc     H4   6356 0.00850000   1.008000   ; qtot -185.975625
 6357         c3    219    ccc     C1   6357 0.60210000  12.010000   ; qtot -185.373525
 6358         h1    219    ccc     H1   6358 -0.09250000   1.008000   ; qtot -185.466025
 6359         h1    219    ccc     H2   6359 -0.09250000   1.008000   ; qtot -185.558525
 6360         n3    219    ccc     N1   6360 -0.59700000  14.010000   ; qtot -186.155525
 6361         c3    219    ccc     C4   6361 0.32800000  12.010000   ; qtot -185.827525
 6362         h1    219    ccc     H7   6362 -0.07120000   1.008000   ; qtot -185.898725
 6363         h1    219    ccc     H8   6363 -0.07120000   1.008000   ; qtot -185.969925
 6364         c3    219    ccc     C5   6364 -0.39330000  12.010000   ; qtot -186.363225
 6365         hc    219    ccc     H9   6365 0.08130000   1.008000   ; qtot -186.281925
 6366         hc    219    ccc    H10   6366 0.08130000   1.008000   ; qtot -186.200625
 6367          c    219    ccc     C6   6367 1.08970000  12.010000   ; qtot -185.110925
 6368          o    219    ccc     O2   6368 -0.96050000  16.000000   ; qtot -186.071425
 6369          o    219    ccc     O3   6369 -0.96050000  16.000000   ; qtot -187.031925
 6370         c3    219    ccc     C7   6370 0.32800000  12.010000   ; qtot -186.703925
 6371         h1    219    ccc    H11   6371 -0.07120000   1.008000   ; qtot -186.775125
 6372         h1    219    ccc    H12   6372 -0.07120000   1.008000   ; qtot -186.846325
 6373         c3    219    ccc     C8   6373 -0.39330000  12.010000   ; qtot -187.239625
 6374         hc    219    ccc    H13   6374 0.08130000   1.008000   ; qtot -187.158325
 6375         hc    219    ccc    H14   6375 0.08130000   1.008000   ; qtot -187.077025
 6376          c    219    ccc     C9   6376 1.08970000  12.010000   ; qtot -185.987325
 6377          o    219    ccc     O4   6377 -0.96050000  16.000000   ; qtot -186.947825
 6378          o    219    ccc     O5   6378 -0.96050000  16.000000   ; qtot -187.908325
 6379         os    219    ccc     O1   6379 -0.11060000  16.000000   ; qtot -188.018925
; residue  220 ccc rtp ccc q -2.0
 6380         c3    220    ccc     C3   6380 -0.04070000  12.010000   ; qtot -188.059625
 6381         h1    220    ccc     H5   6381 0.04610000   1.008000   ; qtot -188.013525
 6382         h1    220    ccc     H6   6382 0.04610000   1.008000   ; qtot -187.967425
 6383         c3    220    ccc     C2   6383 -0.02540000  12.010000   ; qtot -187.992825
 6384         hc    220    ccc     H3   6384 0.00850000   1.008000   ; qtot -187.984325
 6385         hc    220    ccc     H4   6385 0.00850000   1.008000   ; qtot -187.975825
 6386         c3    220    ccc     C1   6386 0.60210000  12.010000   ; qtot -187.373725
 6387         h1    220    ccc     H1   6387 -0.09250000   1.008000   ; qtot -187.466225
 6388         h1    220    ccc     H2   6388 -0.09250000   1.008000   ; qtot -187.558725
 6389         n3    220    ccc     N1   6389 -0.59700000  14.010000   ; qtot -188.155725
 6390         c3    220    ccc     C4   6390 0.32800000  12.010000   ; qtot -187.827725
 6391         h1    220    ccc     H7   6391 -0.07120000   1.008000   ; qtot -187.898925
 6392         h1    220    ccc     H8   6392 -0.07120000   1.008000   ; qtot -187.970125
 6393         c3    220    ccc     C5   6393 -0.39330000  12.010000   ; qtot -188.363425
 6394         hc    220    ccc     H9   6394 0.08130000   1.008000   ; qtot -188.282125
 6395         hc    220    ccc    H10   6395 0.08130000   1.008000   ; qtot -188.200825
 6396          c    220    ccc     C6   6396 1.08970000  12.010000   ; qtot -187.111125
 6397          o    220    ccc     O2   6397 -0.96050000  16.000000   ; qtot -188.071625
 6398          o    220    ccc     O3   6398 -0.96050000  16.000000   ; qtot -189.032125
 6399         c3    220    ccc     C7   6399 0.32800000  12.010000   ; qtot -188.704125
 6400         h1    220    ccc    H11   6400 -0.07120000   1.008000   ; qtot -188.775325
 6401         h1    220    ccc    H12   6401 -0.07120000   1.008000   ; qtot -188.846525
 6402         c3    220    ccc     C8   6402 -0.39330000  12.010000   ; qtot -189.239825
 6403         hc    220    ccc    H13   6403 0.08130000   1.008000   ; qtot -189.158525
 6404         hc    220    ccc    H14   6404 0.08130000   1.008000   ; qtot -189.077225
 6405          c    220    ccc     C9   6405 1.08970000  12.010000   ; qtot -187.987525
 6406          o    220    ccc     O4   6406 -0.96050000  16.000000   ; qtot -188.948025
 6407          o    220    ccc     O5   6407 -0.96050000  16.000000   ; qtot -189.908525
 6408         os    220    ccc     O1   6408 -0.11060000  16.000000   ; qtot -190.019125
; residue  221 ccc rtp ccc q -2.0
 6409         c3    221    ccc     C3   6409 -0.04070000  12.010000   ; qtot -190.059825
 6410         h1    221    ccc     H5   6410 0.04610000   1.008000   ; qtot -190.013725
 6411         h1    221    ccc     H6   6411 0.04610000   1.008000   ; qtot -189.967625
 6412         c3    221    ccc     C2   6412 -0.02540000  12.010000   ; qtot -189.993025
 6413         hc    221    ccc     H3   6413 0.00850000   1.008000   ; qtot -189.984525
 6414         hc    221    ccc     H4   6414 0.00850000   1.008000   ; qtot -189.976025
 6415         c3    221    ccc     C1   6415 0.60210000  12.010000   ; qtot -189.373925
 6416         h1    221    ccc     H1   6416 -0.09250000   1.008000   ; qtot -189.466425
 6417         h1    221    ccc     H2   6417 -0.09250000   1.008000   ; qtot -189.558925
 6418         n3    221    ccc     N1   6418 -0.59700000  14.010000   ; qtot -190.155925
 6419         c3    221    ccc     C4   6419 0.32800000  12.010000   ; qtot -189.827925
 6420         h1    221    ccc     H7   6420 -0.07120000   1.008000   ; qtot -189.899125
 6421         h1    221    ccc     H8   6421 -0.07120000   1.008000   ; qtot -189.970325
 6422         c3    221    ccc     C5   6422 -0.39330000  12.010000   ; qtot -190.363625
 6423         hc    221    ccc     H9   6423 0.08130000   1.008000   ; qtot -190.282325
 6424         hc    221    ccc    H10   6424 0.08130000   1.008000   ; qtot -190.201025
 6425          c    221    ccc     C6   6425 1.08970000  12.010000   ; qtot -189.111325
 6426          o    221    ccc     O2   6426 -0.96050000  16.000000   ; qtot -190.071825
 6427          o    221    ccc     O3   6427 -0.96050000  16.000000   ; qtot -191.032325
 6428         c3    221    ccc     C7   6428 0.32800000  12.010000   ; qtot -190.704325
 6429         h1    221    ccc    H11   6429 -0.07120000   1.008000   ; qtot -190.775525
 6430         h1    221    ccc    H12   6430 -0.07120000   1.008000   ; qtot -190.846725
 6431         c3    221    ccc     C8   6431 -0.39330000  12.010000   ; qtot -191.240025
 6432         hc    221    ccc    H13   6432 0.08130000   1.008000   ; qtot -191.158725
 6433         hc    221    ccc    H14   6433 0.08130000   1.008000   ; qtot -191.077425
 6434          c    221    ccc     C9   6434 1.08970000  12.010000   ; qtot -189.987725
 6435          o    221    ccc     O4   6435 -0.96050000  16.000000   ; qtot -190.948225
 6436          o    221    ccc     O5   6436 -0.96050000  16.000000   ; qtot -191.908725
 6437         os    221    ccc     O1   6437 -0.11060000  16.000000   ; qtot -192.019325
; residue  222 ccc rtp ccc q -2.0
 6438         c3    222    ccc     C3   6438 -0.04070000  12.010000   ; qtot -192.060025
 6439         h1    222    ccc     H5   6439 0.04610000   1.008000   ; qtot -192.013925
 6440         h1    222    ccc     H6   6440 0.04610000   1.008000   ; qtot -191.967825
 6441         c3    222    ccc     C2   6441 -0.02540000  12.010000   ; qtot -191.993225
 6442         hc    222    ccc     H3   6442 0.00850000   1.008000   ; qtot -191.984725
 6443         hc    222    ccc     H4   6443 0.00850000   1.008000   ; qtot -191.976225
 6444         c3    222    ccc     C1   6444 0.60210000  12.010000   ; qtot -191.374125
 6445         h1    222    ccc     H1   6445 -0.09250000   1.008000   ; qtot -191.466625
 6446         h1    222    ccc     H2   6446 -0.09250000   1.008000   ; qtot -191.559125
 6447         n3    222    ccc     N1   6447 -0.59700000  14.010000   ; qtot -192.156125
 6448         c3    222    ccc     C4   6448 0.32800000  12.010000   ; qtot -191.828125
 6449         h1    222    ccc     H7   6449 -0.07120000   1.008000   ; qtot -191.899325
 6450         h1    222    ccc     H8   6450 -0.07120000   1.008000   ; qtot -191.970525
 6451         c3    222    ccc     C5   6451 -0.39330000  12.010000   ; qtot -192.363825
 6452         hc    222    ccc     H9   6452 0.08130000   1.008000   ; qtot -192.282525
 6453         hc    222    ccc    H10   6453 0.08130000   1.008000   ; qtot -192.201225
 6454          c    222    ccc     C6   6454 1.08970000  12.010000   ; qtot -191.111525
 6455          o    222    ccc     O2   6455 -0.96050000  16.000000   ; qtot -192.072025
 6456          o    222    ccc     O3   6456 -0.96050000  16.000000   ; qtot -193.032525
 6457         c3    222    ccc     C7   6457 0.32800000  12.010000   ; qtot -192.704525
 6458         h1    222    ccc    H11   6458 -0.07120000   1.008000   ; qtot -192.775725
 6459         h1    222    ccc    H12   6459 -0.07120000   1.008000   ; qtot -192.846925
 6460         c3    222    ccc     C8   6460 -0.39330000  12.010000   ; qtot -193.240225
 6461         hc    222    ccc    H13   6461 0.08130000   1.008000   ; qtot -193.158925
 6462         hc    222    ccc    H14   6462 0.08130000   1.008000   ; qtot -193.077625
 6463          c    222    ccc     C9   6463 1.08970000  12.010000   ; qtot -191.987925
 6464          o    222    ccc     O4   6464 -0.96050000  16.000000   ; qtot -192.948425
 6465          o    222    ccc     O5   6465 -0.96050000  16.000000   ; qtot -193.908925
 6466         os    222    ccc     O1   6466 -0.11060000  16.000000   ; qtot -194.019525
; residue  223 ccc rtp ccc q -2.0
 6467         c3    223    ccc     C3   6467 -0.04070000  12.010000   ; qtot -194.060225
 6468         h1    223    ccc     H5   6468 0.04610000   1.008000   ; qtot -194.014125
 6469         h1    223    ccc     H6   6469 0.04610000   1.008000   ; qtot -193.968025
 6470         c3    223    ccc     C2   6470 -0.02540000  12.010000   ; qtot -193.993425
 6471         hc    223    ccc     H3   6471 0.00850000   1.008000   ; qtot -193.984925
 6472         hc    223    ccc     H4   6472 0.00850000   1.008000   ; qtot -193.976425
 6473         c3    223    ccc     C1   6473 0.60210000  12.010000   ; qtot -193.374325
 6474         h1    223    ccc     H1   6474 -0.09250000   1.008000   ; qtot -193.466825
 6475         h1    223    ccc     H2   6475 -0.09250000   1.008000   ; qtot -193.559325
 6476         n3    223    ccc     N1   6476 -0.59700000  14.010000   ; qtot -194.156325
 6477         c3    223    ccc     C4   6477 0.32800000  12.010000   ; qtot -193.828325
 6478         h1    223    ccc     H7   6478 -0.07120000   1.008000   ; qtot -193.899525
 6479         h1    223    ccc     H8   6479 -0.07120000   1.008000   ; qtot -193.970725
 6480         c3    223    ccc     C5   6480 -0.39330000  12.010000   ; qtot -194.364025
 6481         hc    223    ccc     H9   6481 0.08130000   1.008000   ; qtot -194.282725
 6482         hc    223    ccc    H10   6482 0.08130000   1.008000   ; qtot -194.201425
 6483          c    223    ccc     C6   6483 1.08970000  12.010000   ; qtot -193.111725
 6484          o    223    ccc     O2   6484 -0.96050000  16.000000   ; qtot -194.072225
 6485          o    223    ccc     O3   6485 -0.96050000  16.000000   ; qtot -195.032725
 6486         c3    223    ccc     C7   6486 0.32800000  12.010000   ; qtot -194.704725
 6487         h1    223    ccc    H11   6487 -0.07120000   1.008000   ; qtot -194.775925
 6488         h1    223    ccc    H12   6488 -0.07120000   1.008000   ; qtot -194.847125
 6489         c3    223    ccc     C8   6489 -0.39330000  12.010000   ; qtot -195.240425
 6490         hc    223    ccc    H13   6490 0.08130000   1.008000   ; qtot -195.159125
 6491         hc    223    ccc    H14   6491 0.08130000   1.008000   ; qtot -195.077825
 6492          c    223    ccc     C9   6492 1.08970000  12.010000   ; qtot -193.988125
 6493          o    223    ccc     O4   6493 -0.96050000  16.000000   ; qtot -194.948625
 6494          o    223    ccc     O5   6494 -0.96050000  16.000000   ; qtot -195.909125
 6495         os    223    ccc     O1   6495 -0.11060000  16.000000   ; qtot -196.019725
; residue  224 ccc rtp ccc q -2.0
 6496         c3    224    ccc     C3   6496 -0.04070000  12.010000   ; qtot -196.060425
 6497         h1    224    ccc     H5   6497 0.04610000   1.008000   ; qtot -196.014325
 6498         h1    224    ccc     H6   6498 0.04610000   1.008000   ; qtot -195.968225
 6499         c3    224    ccc     C2   6499 -0.02540000  12.010000   ; qtot -195.993625
 6500         hc    224    ccc     H3   6500 0.00850000   1.008000   ; qtot -195.985125
 6501         hc    224    ccc     H4   6501 0.00850000   1.008000   ; qtot -195.976625
 6502         c3    224    ccc     C1   6502 0.60210000  12.010000   ; qtot -195.374525
 6503         h1    224    ccc     H1   6503 -0.09250000   1.008000   ; qtot -195.467025
 6504         h1    224    ccc     H2   6504 -0.09250000   1.008000   ; qtot -195.559525
 6505         n3    224    ccc     N1   6505 -0.59700000  14.010000   ; qtot -196.156525
 6506         c3    224    ccc     C4   6506 0.32800000  12.010000   ; qtot -195.828525
 6507         h1    224    ccc     H7   6507 -0.07120000   1.008000   ; qtot -195.899725
 6508         h1    224    ccc     H8   6508 -0.07120000   1.008000   ; qtot -195.970925
 6509         c3    224    ccc     C5   6509 -0.39330000  12.010000   ; qtot -196.364225
 6510         hc    224    ccc     H9   6510 0.08130000   1.008000   ; qtot -196.282925
 6511         hc    224    ccc    H10   6511 0.08130000   1.008000   ; qtot -196.201625
 6512          c    224    ccc     C6   6512 1.08970000  12.010000   ; qtot -195.111925
 6513          o    224    ccc     O2   6513 -0.96050000  16.000000   ; qtot -196.072425
 6514          o    224    ccc     O3   6514 -0.96050000  16.000000   ; qtot -197.032925
 6515         c3    224    ccc     C7   6515 0.32800000  12.010000   ; qtot -196.704925
 6516         h1    224    ccc    H11   6516 -0.07120000   1.008000   ; qtot -196.776125
 6517         h1    224    ccc    H12   6517 -0.07120000   1.008000   ; qtot -196.847325
 6518         c3    224    ccc     C8   6518 -0.39330000  12.010000   ; qtot -197.240625
 6519         hc    224    ccc    H13   6519 0.08130000   1.008000   ; qtot -197.159325
 6520         hc    224    ccc    H14   6520 0.08130000   1.008000   ; qtot -197.078025
 6521          c    224    ccc     C9   6521 1.08970000  12.010000   ; qtot -195.988325
 6522          o    224    ccc     O4   6522 -0.96050000  16.000000   ; qtot -196.948825
 6523          o    224    ccc     O5   6523 -0.96050000  16.000000   ; qtot -197.909325
 6524         os    224    ccc     O1   6524 -0.11060000  16.000000   ; qtot -198.019925
; residue  225 ccc rtp ccc q -2.0
 6525         c3    225    ccc     C3   6525 -0.04070000  12.010000   ; qtot -198.060625
 6526         h1    225    ccc     H5   6526 0.04610000   1.008000   ; qtot -198.014525
 6527         h1    225    ccc     H6   6527 0.04610000   1.008000   ; qtot -197.968425
 6528         c3    225    ccc     C2   6528 -0.02540000  12.010000   ; qtot -197.993825
 6529         hc    225    ccc     H3   6529 0.00850000   1.008000   ; qtot -197.985325
 6530         hc    225    ccc     H4   6530 0.00850000   1.008000   ; qtot -197.976825
 6531         c3    225    ccc     C1   6531 0.60210000  12.010000   ; qtot -197.374725
 6532         h1    225    ccc     H1   6532 -0.09250000   1.008000   ; qtot -197.467225
 6533         h1    225    ccc     H2   6533 -0.09250000   1.008000   ; qtot -197.559725
 6534         n3    225    ccc     N1   6534 -0.59700000  14.010000   ; qtot -198.156725
 6535         c3    225    ccc     C4   6535 0.32800000  12.010000   ; qtot -197.828725
 6536         h1    225    ccc     H7   6536 -0.07120000   1.008000   ; qtot -197.899925
 6537         h1    225    ccc     H8   6537 -0.07120000   1.008000   ; qtot -197.971125
 6538         c3    225    ccc     C5   6538 -0.39330000  12.010000   ; qtot -198.364425
 6539         hc    225    ccc     H9   6539 0.08130000   1.008000   ; qtot -198.283125
 6540         hc    225    ccc    H10   6540 0.08130000   1.008000   ; qtot -198.201825
 6541          c    225    ccc     C6   6541 1.08970000  12.010000   ; qtot -197.112125
 6542          o    225    ccc     O2   6542 -0.96050000  16.000000   ; qtot -198.072625
 6543          o    225    ccc     O3   6543 -0.96050000  16.000000   ; qtot -199.033125
 6544         c3    225    ccc     C7   6544 0.32800000  12.010000   ; qtot -198.705125
 6545         h1    225    ccc    H11   6545 -0.07120000   1.008000   ; qtot -198.776325
 6546         h1    225    ccc    H12   6546 -0.07120000   1.008000   ; qtot -198.847525
 6547         c3    225    ccc     C8   6547 -0.39330000  12.010000   ; qtot -199.240825
 6548         hc    225    ccc    H13   6548 0.08130000   1.008000   ; qtot -199.159525
 6549         hc    225    ccc    H14   6549 0.08130000   1.008000   ; qtot -199.078225
 6550          c    225    ccc     C9   6550 1.08970000  12.010000   ; qtot -197.988525
 6551          o    225    ccc     O4   6551 -0.96050000  16.000000   ; qtot -198.949025
 6552          o    225    ccc     O5   6552 -0.96050000  16.000000   ; qtot -199.909525
 6553         os    225    ccc     O1   6553 -0.11060000  16.000000   ; qtot -200.020125
; residue  226 ccc rtp ccc q -2.0
 6554         c3    226    ccc     C3   6554 -0.04070000  12.010000   ; qtot -200.060825
 6555         h1    226    ccc     H5   6555 0.04610000   1.008000   ; qtot -200.014725
 6556         h1    226    ccc     H6   6556 0.04610000   1.008000   ; qtot -199.968625
 6557         c3    226    ccc     C2   6557 -0.02540000  12.010000   ; qtot -199.994025
 6558         hc    226    ccc     H3   6558 0.00850000   1.008000   ; qtot -199.985525
 6559         hc    226    ccc     H4   6559 0.00850000   1.008000   ; qtot -199.977025
 6560         c3    226    ccc     C1   6560 0.60210000  12.010000   ; qtot -199.374925
 6561         h1    226    ccc     H1   6561 -0.09250000   1.008000   ; qtot -199.467425
 6562         h1    226    ccc     H2   6562 -0.09250000   1.008000   ; qtot -199.559925
 6563         n3    226    ccc     N1   6563 -0.59700000  14.010000   ; qtot -200.156925
 6564         c3    226    ccc     C4   6564 0.32800000  12.010000   ; qtot -199.828925
 6565         h1    226    ccc     H7   6565 -0.07120000   1.008000   ; qtot -199.900125
 6566         h1    226    ccc     H8   6566 -0.07120000   1.008000   ; qtot -199.971325
 6567         c3    226    ccc     C5   6567 -0.39330000  12.010000   ; qtot -200.364625
 6568         hc    226    ccc     H9   6568 0.08130000   1.008000   ; qtot -200.283325
 6569         hc    226    ccc    H10   6569 0.08130000   1.008000   ; qtot -200.202025
 6570          c    226    ccc     C6   6570 1.08970000  12.010000   ; qtot -199.112325
 6571          o    226    ccc     O2   6571 -0.96050000  16.000000   ; qtot -200.072825
 6572          o    226    ccc     O3   6572 -0.96050000  16.000000   ; qtot -201.033325
 6573         c3    226    ccc     C7   6573 0.32800000  12.010000   ; qtot -200.705325
 6574         h1    226    ccc    H11   6574 -0.07120000   1.008000   ; qtot -200.776525
 6575         h1    226    ccc    H12   6575 -0.07120000   1.008000   ; qtot -200.847725
 6576         c3    226    ccc     C8   6576 -0.39330000  12.010000   ; qtot -201.241025
 6577         hc    226    ccc    H13   6577 0.08130000   1.008000   ; qtot -201.159725
 6578         hc    226    ccc    H14   6578 0.08130000   1.008000   ; qtot -201.078425
 6579          c    226    ccc     C9   6579 1.08970000  12.010000   ; qtot -199.988725
 6580          o    226    ccc     O4   6580 -0.96050000  16.000000   ; qtot -200.949225
 6581          o    226    ccc     O5   6581 -0.96050000  16.000000   ; qtot -201.909725
 6582         os    226    ccc     O1   6582 -0.11060000  16.000000   ; qtot -202.020325
; residue  227 ccc rtp ccc q -2.0
 6583         c3    227    ccc     C3   6583 -0.04070000  12.010000   ; qtot -202.061025
 6584         h1    227    ccc     H5   6584 0.04610000   1.008000   ; qtot -202.014925
 6585         h1    227    ccc     H6   6585 0.04610000   1.008000   ; qtot -201.968825
 6586         c3    227    ccc     C2   6586 -0.02540000  12.010000   ; qtot -201.994225
 6587         hc    227    ccc     H3   6587 0.00850000   1.008000   ; qtot -201.985725
 6588         hc    227    ccc     H4   6588 0.00850000   1.008000   ; qtot -201.977225
 6589         c3    227    ccc     C1   6589 0.60210000  12.010000   ; qtot -201.375125
 6590         h1    227    ccc     H1   6590 -0.09250000   1.008000   ; qtot -201.467625
 6591         h1    227    ccc     H2   6591 -0.09250000   1.008000   ; qtot -201.560125
 6592         n3    227    ccc     N1   6592 -0.59700000  14.010000   ; qtot -202.157125
 6593         c3    227    ccc     C4   6593 0.32800000  12.010000   ; qtot -201.829125
 6594         h1    227    ccc     H7   6594 -0.07120000   1.008000   ; qtot -201.900325
 6595         h1    227    ccc     H8   6595 -0.07120000   1.008000   ; qtot -201.971525
 6596         c3    227    ccc     C5   6596 -0.39330000  12.010000   ; qtot -202.364825
 6597         hc    227    ccc     H9   6597 0.08130000   1.008000   ; qtot -202.283525
 6598         hc    227    ccc    H10   6598 0.08130000   1.008000   ; qtot -202.202225
 6599          c    227    ccc     C6   6599 1.08970000  12.010000   ; qtot -201.112525
 6600          o    227    ccc     O2   6600 -0.96050000  16.000000   ; qtot -202.073025
 6601          o    227    ccc     O3   6601 -0.96050000  16.000000   ; qtot -203.033525
 6602         c3    227    ccc     C7   6602 0.32800000  12.010000   ; qtot -202.705525
 6603         h1    227    ccc    H11   6603 -0.07120000   1.008000   ; qtot -202.776725
 6604         h1    227    ccc    H12   6604 -0.07120000   1.008000   ; qtot -202.847925
 6605         c3    227    ccc     C8   6605 -0.39330000  12.010000   ; qtot -203.241225
 6606         hc    227    ccc    H13   6606 0.08130000   1.008000   ; qtot -203.159925
 6607         hc    227    ccc    H14   6607 0.08130000   1.008000   ; qtot -203.078625
 6608          c    227    ccc     C9   6608 1.08970000  12.010000   ; qtot -201.988925
 6609          o    227    ccc     O4   6609 -0.96050000  16.000000   ; qtot -202.949425
 6610          o    227    ccc     O5   6610 -0.96050000  16.000000   ; qtot -203.909925
 6611         os    227    ccc     O1   6611 -0.11060000  16.000000   ; qtot -204.020525
; residue  228 ccc rtp ccc q -2.0
 6612         c3    228    ccc     C3   6612 -0.04070000  12.010000   ; qtot -204.061225
 6613         h1    228    ccc     H5   6613 0.04610000   1.008000   ; qtot -204.015125
 6614         h1    228    ccc     H6   6614 0.04610000   1.008000   ; qtot -203.969025
 6615         c3    228    ccc     C2   6615 -0.02540000  12.010000   ; qtot -203.994425
 6616         hc    228    ccc     H3   6616 0.00850000   1.008000   ; qtot -203.985925
 6617         hc    228    ccc     H4   6617 0.00850000   1.008000   ; qtot -203.977425
 6618         c3    228    ccc     C1   6618 0.60210000  12.010000   ; qtot -203.375325
 6619         h1    228    ccc     H1   6619 -0.09250000   1.008000   ; qtot -203.467825
 6620         h1    228    ccc     H2   6620 -0.09250000   1.008000   ; qtot -203.560325
 6621         n3    228    ccc     N1   6621 -0.59700000  14.010000   ; qtot -204.157325
 6622         c3    228    ccc     C4   6622 0.32800000  12.010000   ; qtot -203.829325
 6623         h1    228    ccc     H7   6623 -0.07120000   1.008000   ; qtot -203.900525
 6624         h1    228    ccc     H8   6624 -0.07120000   1.008000   ; qtot -203.971725
 6625         c3    228    ccc     C5   6625 -0.39330000  12.010000   ; qtot -204.365025
 6626         hc    228    ccc     H9   6626 0.08130000   1.008000   ; qtot -204.283725
 6627         hc    228    ccc    H10   6627 0.08130000   1.008000   ; qtot -204.202425
 6628          c    228    ccc     C6   6628 1.08970000  12.010000   ; qtot -203.112725
 6629          o    228    ccc     O2   6629 -0.96050000  16.000000   ; qtot -204.073225
 6630          o    228    ccc     O3   6630 -0.96050000  16.000000   ; qtot -205.033725
 6631         c3    228    ccc     C7   6631 0.32800000  12.010000   ; qtot -204.705725
 6632         h1    228    ccc    H11   6632 -0.07120000   1.008000   ; qtot -204.776925
 6633         h1    228    ccc    H12   6633 -0.07120000   1.008000   ; qtot -204.848125
 6634         c3    228    ccc     C8   6634 -0.39330000  12.010000   ; qtot -205.241425
 6635         hc    228    ccc    H13   6635 0.08130000   1.008000   ; qtot -205.160125
 6636         hc    228    ccc    H14   6636 0.08130000   1.008000   ; qtot -205.078825
 6637          c    228    ccc     C9   6637 1.08970000  12.010000   ; qtot -203.989125
 6638          o    228    ccc     O4   6638 -0.96050000  16.000000   ; qtot -204.949625
 6639          o    228    ccc     O5   6639 -0.96050000  16.000000   ; qtot -205.910125
 6640         os    228    ccc     O1   6640 -0.11060000  16.000000   ; qtot -206.020725
; residue  229 ccc rtp ccc q -2.0
 6641         c3    229    ccc     C3   6641 -0.04070000  12.010000   ; qtot -206.061425
 6642         h1    229    ccc     H5   6642 0.04610000   1.008000   ; qtot -206.015325
 6643         h1    229    ccc     H6   6643 0.04610000   1.008000   ; qtot -205.969225
 6644         c3    229    ccc     C2   6644 -0.02540000  12.010000   ; qtot -205.994625
 6645         hc    229    ccc     H3   6645 0.00850000   1.008000   ; qtot -205.986125
 6646         hc    229    ccc     H4   6646 0.00850000   1.008000   ; qtot -205.977625
 6647         c3    229    ccc     C1   6647 0.60210000  12.010000   ; qtot -205.375525
 6648         h1    229    ccc     H1   6648 -0.09250000   1.008000   ; qtot -205.468025
 6649         h1    229    ccc     H2   6649 -0.09250000   1.008000   ; qtot -205.560525
 6650         n3    229    ccc     N1   6650 -0.59700000  14.010000   ; qtot -206.157525
 6651         c3    229    ccc     C4   6651 0.32800000  12.010000   ; qtot -205.829525
 6652         h1    229    ccc     H7   6652 -0.07120000   1.008000   ; qtot -205.900725
 6653         h1    229    ccc     H8   6653 -0.07120000   1.008000   ; qtot -205.971925
 6654         c3    229    ccc     C5   6654 -0.39330000  12.010000   ; qtot -206.365225
 6655         hc    229    ccc     H9   6655 0.08130000   1.008000   ; qtot -206.283925
 6656         hc    229    ccc    H10   6656 0.08130000   1.008000   ; qtot -206.202625
 6657          c    229    ccc     C6   6657 1.08970000  12.010000   ; qtot -205.112925
 6658          o    229    ccc     O2   6658 -0.96050000  16.000000   ; qtot -206.073425
 6659          o    229    ccc     O3   6659 -0.96050000  16.000000   ; qtot -207.033925
 6660         c3    229    ccc     C7   6660 0.32800000  12.010000   ; qtot -206.705925
 6661         h1    229    ccc    H11   6661 -0.07120000   1.008000   ; qtot -206.777125
 6662         h1    229    ccc    H12   6662 -0.07120000   1.008000   ; qtot -206.848325
 6663         c3    229    ccc     C8   6663 -0.39330000  12.010000   ; qtot -207.241625
 6664         hc    229    ccc    H13   6664 0.08130000   1.008000   ; qtot -207.160325
 6665         hc    229    ccc    H14   6665 0.08130000   1.008000   ; qtot -207.079025
 6666          c    229    ccc     C9   6666 1.08970000  12.010000   ; qtot -205.989325
 6667          o    229    ccc     O4   6667 -0.96050000  16.000000   ; qtot -206.949825
 6668          o    229    ccc     O5   6668 -0.96050000  16.000000   ; qtot -207.910325
 6669         os    229    ccc     O1   6669 -0.11060000  16.000000   ; qtot -208.020925
; residue  230 ccc rtp ccc q -2.0
 6670         c3    230    ccc     C3   6670 -0.04070000  12.010000   ; qtot -208.061625
 6671         h1    230    ccc     H5   6671 0.04610000   1.008000   ; qtot -208.015525
 6672         h1    230    ccc     H6   6672 0.04610000   1.008000   ; qtot -207.969425
 6673         c3    230    ccc     C2   6673 -0.02540000  12.010000   ; qtot -207.994825
 6674         hc    230    ccc     H3   6674 0.00850000   1.008000   ; qtot -207.986325
 6675         hc    230    ccc     H4   6675 0.00850000   1.008000   ; qtot -207.977825
 6676         c3    230    ccc     C1   6676 0.60210000  12.010000   ; qtot -207.375725
 6677         h1    230    ccc     H1   6677 -0.09250000   1.008000   ; qtot -207.468225
 6678         h1    230    ccc     H2   6678 -0.09250000   1.008000   ; qtot -207.560725
 6679         n3    230    ccc     N1   6679 -0.59700000  14.010000   ; qtot -208.157725
 6680         c3    230    ccc     C4   6680 0.32800000  12.010000   ; qtot -207.829725
 6681         h1    230    ccc     H7   6681 -0.07120000   1.008000   ; qtot -207.900925
 6682         h1    230    ccc     H8   6682 -0.07120000   1.008000   ; qtot -207.972125
 6683         c3    230    ccc     C5   6683 -0.39330000  12.010000   ; qtot -208.365425
 6684         hc    230    ccc     H9   6684 0.08130000   1.008000   ; qtot -208.284125
 6685         hc    230    ccc    H10   6685 0.08130000   1.008000   ; qtot -208.202825
 6686          c    230    ccc     C6   6686 1.08970000  12.010000   ; qtot -207.113125
 6687          o    230    ccc     O2   6687 -0.96050000  16.000000   ; qtot -208.073625
 6688          o    230    ccc     O3   6688 -0.96050000  16.000000   ; qtot -209.034125
 6689         c3    230    ccc     C7   6689 0.32800000  12.010000   ; qtot -208.706125
 6690         h1    230    ccc    H11   6690 -0.07120000   1.008000   ; qtot -208.777325
 6691         h1    230    ccc    H12   6691 -0.07120000   1.008000   ; qtot -208.848525
 6692         c3    230    ccc     C8   6692 -0.39330000  12.010000   ; qtot -209.241825
 6693         hc    230    ccc    H13   6693 0.08130000   1.008000   ; qtot -209.160525
 6694         hc    230    ccc    H14   6694 0.08130000   1.008000   ; qtot -209.079225
 6695          c    230    ccc     C9   6695 1.08970000  12.010000   ; qtot -207.989525
 6696          o    230    ccc     O4   6696 -0.96050000  16.000000   ; qtot -208.950025
 6697          o    230    ccc     O5   6697 -0.96050000  16.000000   ; qtot -209.910525
 6698         os    230    ccc     O1   6698 -0.11060000  16.000000   ; qtot -210.021125
; residue  231 ccc rtp ccc q -2.0
 6699         c3    231    ccc     C3   6699 -0.04070000  12.010000   ; qtot -210.061825
 6700         h1    231    ccc     H5   6700 0.04610000   1.008000   ; qtot -210.015725
 6701         h1    231    ccc     H6   6701 0.04610000   1.008000   ; qtot -209.969625
 6702         c3    231    ccc     C2   6702 -0.02540000  12.010000   ; qtot -209.995025
 6703         hc    231    ccc     H3   6703 0.00850000   1.008000   ; qtot -209.986525
 6704         hc    231    ccc     H4   6704 0.00850000   1.008000   ; qtot -209.978025
 6705         c3    231    ccc     C1   6705 0.60210000  12.010000   ; qtot -209.375925
 6706         h1    231    ccc     H1   6706 -0.09250000   1.008000   ; qtot -209.468425
 6707         h1    231    ccc     H2   6707 -0.09250000   1.008000   ; qtot -209.560925
 6708         n3    231    ccc     N1   6708 -0.59700000  14.010000   ; qtot -210.157925
 6709         c3    231    ccc     C4   6709 0.32800000  12.010000   ; qtot -209.829925
 6710         h1    231    ccc     H7   6710 -0.07120000   1.008000   ; qtot -209.901125
 6711         h1    231    ccc     H8   6711 -0.07120000   1.008000   ; qtot -209.972325
 6712         c3    231    ccc     C5   6712 -0.39330000  12.010000   ; qtot -210.365625
 6713         hc    231    ccc     H9   6713 0.08130000   1.008000   ; qtot -210.284325
 6714         hc    231    ccc    H10   6714 0.08130000   1.008000   ; qtot -210.203025
 6715          c    231    ccc     C6   6715 1.08970000  12.010000   ; qtot -209.113325
 6716          o    231    ccc     O2   6716 -0.96050000  16.000000   ; qtot -210.073825
 6717          o    231    ccc     O3   6717 -0.96050000  16.000000   ; qtot -211.034325
 6718         c3    231    ccc     C7   6718 0.32800000  12.010000   ; qtot -210.706325
 6719         h1    231    ccc    H11   6719 -0.07120000   1.008000   ; qtot -210.777525
 6720         h1    231    ccc    H12   6720 -0.07120000   1.008000   ; qtot -210.848725
 6721         c3    231    ccc     C8   6721 -0.39330000  12.010000   ; qtot -211.242025
 6722         hc    231    ccc    H13   6722 0.08130000   1.008000   ; qtot -211.160725
 6723         hc    231    ccc    H14   6723 0.08130000   1.008000   ; qtot -211.079425
 6724          c    231    ccc     C9   6724 1.08970000  12.010000   ; qtot -209.989725
 6725          o    231    ccc     O4   6725 -0.96050000  16.000000   ; qtot -210.950225
 6726          o    231    ccc     O5   6726 -0.96050000  16.000000   ; qtot -211.910725
 6727         os    231    ccc     O1   6727 -0.11060000  16.000000   ; qtot -212.021325
; residue  232 ccc rtp ccc q -2.0
 6728         c3    232    ccc     C3   6728 -0.04070000  12.010000   ; qtot -212.062025
 6729         h1    232    ccc     H5   6729 0.04610000   1.008000   ; qtot -212.015925
 6730         h1    232    ccc     H6   6730 0.04610000   1.008000   ; qtot -211.969825
 6731         c3    232    ccc     C2   6731 -0.02540000  12.010000   ; qtot -211.995225
 6732         hc    232    ccc     H3   6732 0.00850000   1.008000   ; qtot -211.986725
 6733         hc    232    ccc     H4   6733 0.00850000   1.008000   ; qtot -211.978225
 6734         c3    232    ccc     C1   6734 0.60210000  12.010000   ; qtot -211.376125
 6735         h1    232    ccc     H1   6735 -0.09250000   1.008000   ; qtot -211.468625
 6736         h1    232    ccc     H2   6736 -0.09250000   1.008000   ; qtot -211.561125
 6737         n3    232    ccc     N1   6737 -0.59700000  14.010000   ; qtot -212.158125
 6738         c3    232    ccc     C4   6738 0.32800000  12.010000   ; qtot -211.830125
 6739         h1    232    ccc     H7   6739 -0.07120000   1.008000   ; qtot -211.901325
 6740         h1    232    ccc     H8   6740 -0.07120000   1.008000   ; qtot -211.972525
 6741         c3    232    ccc     C5   6741 -0.39330000  12.010000   ; qtot -212.365825
 6742         hc    232    ccc     H9   6742 0.08130000   1.008000   ; qtot -212.284525
 6743         hc    232    ccc    H10   6743 0.08130000   1.008000   ; qtot -212.203225
 6744          c    232    ccc     C6   6744 1.08970000  12.010000   ; qtot -211.113525
 6745          o    232    ccc     O2   6745 -0.96050000  16.000000   ; qtot -212.074025
 6746          o    232    ccc     O3   6746 -0.96050000  16.000000   ; qtot -213.034525
 6747         c3    232    ccc     C7   6747 0.32800000  12.010000   ; qtot -212.706525
 6748         h1    232    ccc    H11   6748 -0.07120000   1.008000   ; qtot -212.777725
 6749         h1    232    ccc    H12   6749 -0.07120000   1.008000   ; qtot -212.848925
 6750         c3    232    ccc     C8   6750 -0.39330000  12.010000   ; qtot -213.242225
 6751         hc    232    ccc    H13   6751 0.08130000   1.008000   ; qtot -213.160925
 6752         hc    232    ccc    H14   6752 0.08130000   1.008000   ; qtot -213.079625
 6753          c    232    ccc     C9   6753 1.08970000  12.010000   ; qtot -211.989925
 6754          o    232    ccc     O4   6754 -0.96050000  16.000000   ; qtot -212.950425
 6755          o    232    ccc     O5   6755 -0.96050000  16.000000   ; qtot -213.910925
 6756         os    232    ccc     O1   6756 -0.11060000  16.000000   ; qtot -214.021525
; residue  233 ccc rtp ccc q -2.0
 6757         c3    233    ccc     C3   6757 -0.04070000  12.010000   ; qtot -214.062225
 6758         h1    233    ccc     H5   6758 0.04610000   1.008000   ; qtot -214.016125
 6759         h1    233    ccc     H6   6759 0.04610000   1.008000   ; qtot -213.970025
 6760         c3    233    ccc     C2   6760 -0.02540000  12.010000   ; qtot -213.995425
 6761         hc    233    ccc     H3   6761 0.00850000   1.008000   ; qtot -213.986925
 6762         hc    233    ccc     H4   6762 0.00850000   1.008000   ; qtot -213.978425
 6763         c3    233    ccc     C1   6763 0.60210000  12.010000   ; qtot -213.376325
 6764         h1    233    ccc     H1   6764 -0.09250000   1.008000   ; qtot -213.468825
 6765         h1    233    ccc     H2   6765 -0.09250000   1.008000   ; qtot -213.561325
 6766         n3    233    ccc     N1   6766 -0.59700000  14.010000   ; qtot -214.158325
 6767         c3    233    ccc     C4   6767 0.32800000  12.010000   ; qtot -213.830325
 6768         h1    233    ccc     H7   6768 -0.07120000   1.008000   ; qtot -213.901525
 6769         h1    233    ccc     H8   6769 -0.07120000   1.008000   ; qtot -213.972725
 6770         c3    233    ccc     C5   6770 -0.39330000  12.010000   ; qtot -214.366025
 6771         hc    233    ccc     H9   6771 0.08130000   1.008000   ; qtot -214.284725
 6772         hc    233    ccc    H10   6772 0.08130000   1.008000   ; qtot -214.203425
 6773          c    233    ccc     C6   6773 1.08970000  12.010000   ; qtot -213.113725
 6774          o    233    ccc     O2   6774 -0.96050000  16.000000   ; qtot -214.074225
 6775          o    233    ccc     O3   6775 -0.96050000  16.000000   ; qtot -215.034725
 6776         c3    233    ccc     C7   6776 0.32800000  12.010000   ; qtot -214.706725
 6777         h1    233    ccc    H11   6777 -0.07120000   1.008000   ; qtot -214.777925
 6778         h1    233    ccc    H12   6778 -0.07120000   1.008000   ; qtot -214.849125
 6779         c3    233    ccc     C8   6779 -0.39330000  12.010000   ; qtot -215.242425
 6780         hc    233    ccc    H13   6780 0.08130000   1.008000   ; qtot -215.161125
 6781         hc    233    ccc    H14   6781 0.08130000   1.008000   ; qtot -215.079825
 6782          c    233    ccc     C9   6782 1.08970000  12.010000   ; qtot -213.990125
 6783          o    233    ccc     O4   6783 -0.96050000  16.000000   ; qtot -214.950625
 6784          o    233    ccc     O5   6784 -0.96050000  16.000000   ; qtot -215.911125
 6785         os    233    ccc     O1   6785 -0.11060000  16.000000   ; qtot -216.021725
; residue  234 ccc rtp ccc q -2.0
 6786         c3    234    ccc     C3   6786 -0.04070000  12.010000   ; qtot -216.062425
 6787         h1    234    ccc     H5   6787 0.04610000   1.008000   ; qtot -216.016325
 6788         h1    234    ccc     H6   6788 0.04610000   1.008000   ; qtot -215.970225
 6789         c3    234    ccc     C2   6789 -0.02540000  12.010000   ; qtot -215.995625
 6790         hc    234    ccc     H3   6790 0.00850000   1.008000   ; qtot -215.987125
 6791         hc    234    ccc     H4   6791 0.00850000   1.008000   ; qtot -215.978625
 6792         c3    234    ccc     C1   6792 0.60210000  12.010000   ; qtot -215.376525
 6793         h1    234    ccc     H1   6793 -0.09250000   1.008000   ; qtot -215.469025
 6794         h1    234    ccc     H2   6794 -0.09250000   1.008000   ; qtot -215.561525
 6795         n3    234    ccc     N1   6795 -0.59700000  14.010000   ; qtot -216.158525
 6796         c3    234    ccc     C4   6796 0.32800000  12.010000   ; qtot -215.830525
 6797         h1    234    ccc     H7   6797 -0.07120000   1.008000   ; qtot -215.901725
 6798         h1    234    ccc     H8   6798 -0.07120000   1.008000   ; qtot -215.972925
 6799         c3    234    ccc     C5   6799 -0.39330000  12.010000   ; qtot -216.366225
 6800         hc    234    ccc     H9   6800 0.08130000   1.008000   ; qtot -216.284925
 6801         hc    234    ccc    H10   6801 0.08130000   1.008000   ; qtot -216.203625
 6802          c    234    ccc     C6   6802 1.08970000  12.010000   ; qtot -215.113925
 6803          o    234    ccc     O2   6803 -0.96050000  16.000000   ; qtot -216.074425
 6804          o    234    ccc     O3   6804 -0.96050000  16.000000   ; qtot -217.034925
 6805         c3    234    ccc     C7   6805 0.32800000  12.010000   ; qtot -216.706925
 6806         h1    234    ccc    H11   6806 -0.07120000   1.008000   ; qtot -216.778125
 6807         h1    234    ccc    H12   6807 -0.07120000   1.008000   ; qtot -216.849325
 6808         c3    234    ccc     C8   6808 -0.39330000  12.010000   ; qtot -217.242625
 6809         hc    234    ccc    H13   6809 0.08130000   1.008000   ; qtot -217.161325
 6810         hc    234    ccc    H14   6810 0.08130000   1.008000   ; qtot -217.080025
 6811          c    234    ccc     C9   6811 1.08970000  12.010000   ; qtot -215.990325
 6812          o    234    ccc     O4   6812 -0.96050000  16.000000   ; qtot -216.950825
 6813          o    234    ccc     O5   6813 -0.96050000  16.000000   ; qtot -217.911325
 6814         os    234    ccc     O1   6814 -0.11060000  16.000000   ; qtot -218.021925
; residue  235 ccc rtp ccc q -2.0
 6815         c3    235    ccc     C3   6815 -0.04070000  12.010000   ; qtot -218.062625
 6816         h1    235    ccc     H5   6816 0.04610000   1.008000   ; qtot -218.016525
 6817         h1    235    ccc     H6   6817 0.04610000   1.008000   ; qtot -217.970425
 6818         c3    235    ccc     C2   6818 -0.02540000  12.010000   ; qtot -217.995825
 6819         hc    235    ccc     H3   6819 0.00850000   1.008000   ; qtot -217.987325
 6820         hc    235    ccc     H4   6820 0.00850000   1.008000   ; qtot -217.978825
 6821         c3    235    ccc     C1   6821 0.60210000  12.010000   ; qtot -217.376725
 6822         h1    235    ccc     H1   6822 -0.09250000   1.008000   ; qtot -217.469225
 6823         h1    235    ccc     H2   6823 -0.09250000   1.008000   ; qtot -217.561725
 6824         n3    235    ccc     N1   6824 -0.59700000  14.010000   ; qtot -218.158725
 6825         c3    235    ccc     C4   6825 0.32800000  12.010000   ; qtot -217.830725
 6826         h1    235    ccc     H7   6826 -0.07120000   1.008000   ; qtot -217.901925
 6827         h1    235    ccc     H8   6827 -0.07120000   1.008000   ; qtot -217.973125
 6828         c3    235    ccc     C5   6828 -0.39330000  12.010000   ; qtot -218.366425
 6829         hc    235    ccc     H9   6829 0.08130000   1.008000   ; qtot -218.285125
 6830         hc    235    ccc    H10   6830 0.08130000   1.008000   ; qtot -218.203825
 6831          c    235    ccc     C6   6831 1.08970000  12.010000   ; qtot -217.114125
 6832          o    235    ccc     O2   6832 -0.96050000  16.000000   ; qtot -218.074625
 6833          o    235    ccc     O3   6833 -0.96050000  16.000000   ; qtot -219.035125
 6834         c3    235    ccc     C7   6834 0.32800000  12.010000   ; qtot -218.707125
 6835         h1    235    ccc    H11   6835 -0.07120000   1.008000   ; qtot -218.778325
 6836         h1    235    ccc    H12   6836 -0.07120000   1.008000   ; qtot -218.849525
 6837         c3    235    ccc     C8   6837 -0.39330000  12.010000   ; qtot -219.242825
 6838         hc    235    ccc    H13   6838 0.08130000   1.008000   ; qtot -219.161525
 6839         hc    235    ccc    H14   6839 0.08130000   1.008000   ; qtot -219.080225
 6840          c    235    ccc     C9   6840 1.08970000  12.010000   ; qtot -217.990525
 6841          o    235    ccc     O4   6841 -0.96050000  16.000000   ; qtot -218.951025
 6842          o    235    ccc     O5   6842 -0.96050000  16.000000   ; qtot -219.911525
 6843         os    235    ccc     O1   6843 -0.11060000  16.000000   ; qtot -220.022125
; residue  236 ccc rtp ccc q -2.0
 6844         c3    236    ccc     C3   6844 -0.04070000  12.010000   ; qtot -220.062825
 6845         h1    236    ccc     H5   6845 0.04610000   1.008000   ; qtot -220.016725
 6846         h1    236    ccc     H6   6846 0.04610000   1.008000   ; qtot -219.970625
 6847         c3    236    ccc     C2   6847 -0.02540000  12.010000   ; qtot -219.996025
 6848         hc    236    ccc     H3   6848 0.00850000   1.008000   ; qtot -219.987525
 6849         hc    236    ccc     H4   6849 0.00850000   1.008000   ; qtot -219.979025
 6850         c3    236    ccc     C1   6850 0.60210000  12.010000   ; qtot -219.376925
 6851         h1    236    ccc     H1   6851 -0.09250000   1.008000   ; qtot -219.469425
 6852         h1    236    ccc     H2   6852 -0.09250000   1.008000   ; qtot -219.561925
 6853         n3    236    ccc     N1   6853 -0.59700000  14.010000   ; qtot -220.158925
 6854         c3    236    ccc     C4   6854 0.32800000  12.010000   ; qtot -219.830925
 6855         h1    236    ccc     H7   6855 -0.07120000   1.008000   ; qtot -219.902125
 6856         h1    236    ccc     H8   6856 -0.07120000   1.008000   ; qtot -219.973325
 6857         c3    236    ccc     C5   6857 -0.39330000  12.010000   ; qtot -220.366625
 6858         hc    236    ccc     H9   6858 0.08130000   1.008000   ; qtot -220.285325
 6859         hc    236    ccc    H10   6859 0.08130000   1.008000   ; qtot -220.204025
 6860          c    236    ccc     C6   6860 1.08970000  12.010000   ; qtot -219.114325
 6861          o    236    ccc     O2   6861 -0.96050000  16.000000   ; qtot -220.074825
 6862          o    236    ccc     O3   6862 -0.96050000  16.000000   ; qtot -221.035325
 6863         c3    236    ccc     C7   6863 0.32800000  12.010000   ; qtot -220.707325
 6864         h1    236    ccc    H11   6864 -0.07120000   1.008000   ; qtot -220.778525
 6865         h1    236    ccc    H12   6865 -0.07120000   1.008000   ; qtot -220.849725
 6866         c3    236    ccc     C8   6866 -0.39330000  12.010000   ; qtot -221.243025
 6867         hc    236    ccc    H13   6867 0.08130000   1.008000   ; qtot -221.161725
 6868         hc    236    ccc    H14   6868 0.08130000   1.008000   ; qtot -221.080425
 6869          c    236    ccc     C9   6869 1.08970000  12.010000   ; qtot -219.990725
 6870          o    236    ccc     O4   6870 -0.96050000  16.000000   ; qtot -220.951225
 6871          o    236    ccc     O5   6871 -0.96050000  16.000000   ; qtot -221.911725
 6872         os    236    ccc     O1   6872 -0.11060000  16.000000   ; qtot -222.022325
; residue  237 ccc rtp ccc q -2.0
 6873         c3    237    ccc     C3   6873 -0.04070000  12.010000   ; qtot -222.063025
 6874         h1    237    ccc     H5   6874 0.04610000   1.008000   ; qtot -222.016925
 6875         h1    237    ccc     H6   6875 0.04610000   1.008000   ; qtot -221.970825
 6876         c3    237    ccc     C2   6876 -0.02540000  12.010000   ; qtot -221.996225
 6877         hc    237    ccc     H3   6877 0.00850000   1.008000   ; qtot -221.987725
 6878         hc    237    ccc     H4   6878 0.00850000   1.008000   ; qtot -221.979225
 6879         c3    237    ccc     C1   6879 0.60210000  12.010000   ; qtot -221.377125
 6880         h1    237    ccc     H1   6880 -0.09250000   1.008000   ; qtot -221.469625
 6881         h1    237    ccc     H2   6881 -0.09250000   1.008000   ; qtot -221.562125
 6882         n3    237    ccc     N1   6882 -0.59700000  14.010000   ; qtot -222.159125
 6883         c3    237    ccc     C4   6883 0.32800000  12.010000   ; qtot -221.831125
 6884         h1    237    ccc     H7   6884 -0.07120000   1.008000   ; qtot -221.902325
 6885         h1    237    ccc     H8   6885 -0.07120000   1.008000   ; qtot -221.973525
 6886         c3    237    ccc     C5   6886 -0.39330000  12.010000   ; qtot -222.366825
 6887         hc    237    ccc     H9   6887 0.08130000   1.008000   ; qtot -222.285525
 6888         hc    237    ccc    H10   6888 0.08130000   1.008000   ; qtot -222.204225
 6889          c    237    ccc     C6   6889 1.08970000  12.010000   ; qtot -221.114525
 6890          o    237    ccc     O2   6890 -0.96050000  16.000000   ; qtot -222.075025
 6891          o    237    ccc     O3   6891 -0.96050000  16.000000   ; qtot -223.035525
 6892         c3    237    ccc     C7   6892 0.32800000  12.010000   ; qtot -222.707525
 6893         h1    237    ccc    H11   6893 -0.07120000   1.008000   ; qtot -222.778725
 6894         h1    237    ccc    H12   6894 -0.07120000   1.008000   ; qtot -222.849925
 6895         c3    237    ccc     C8   6895 -0.39330000  12.010000   ; qtot -223.243225
 6896         hc    237    ccc    H13   6896 0.08130000   1.008000   ; qtot -223.161925
 6897         hc    237    ccc    H14   6897 0.08130000   1.008000   ; qtot -223.080625
 6898          c    237    ccc     C9   6898 1.08970000  12.010000   ; qtot -221.990925
 6899          o    237    ccc     O4   6899 -0.96050000  16.000000   ; qtot -222.951425
 6900          o    237    ccc     O5   6900 -0.96050000  16.000000   ; qtot -223.911925
 6901         os    237    ccc     O1   6901 -0.11060000  16.000000   ; qtot -224.022525
; residue  238 ccc rtp ccc q -2.0
 6902         c3    238    ccc     C3   6902 -0.04070000  12.010000   ; qtot -224.063225
 6903         h1    238    ccc     H5   6903 0.04610000   1.008000   ; qtot -224.017125
 6904         h1    238    ccc     H6   6904 0.04610000   1.008000   ; qtot -223.971025
 6905         c3    238    ccc     C2   6905 -0.02540000  12.010000   ; qtot -223.996425
 6906         hc    238    ccc     H3   6906 0.00850000   1.008000   ; qtot -223.987925
 6907         hc    238    ccc     H4   6907 0.00850000   1.008000   ; qtot -223.979425
 6908         c3    238    ccc     C1   6908 0.60210000  12.010000   ; qtot -223.377325
 6909         h1    238    ccc     H1   6909 -0.09250000   1.008000   ; qtot -223.469825
 6910         h1    238    ccc     H2   6910 -0.09250000   1.008000   ; qtot -223.562325
 6911         n3    238    ccc     N1   6911 -0.59700000  14.010000   ; qtot -224.159325
 6912         c3    238    ccc     C4   6912 0.32800000  12.010000   ; qtot -223.831325
 6913         h1    238    ccc     H7   6913 -0.07120000   1.008000   ; qtot -223.902525
 6914         h1    238    ccc     H8   6914 -0.07120000   1.008000   ; qtot -223.973725
 6915         c3    238    ccc     C5   6915 -0.39330000  12.010000   ; qtot -224.367025
 6916         hc    238    ccc     H9   6916 0.08130000   1.008000   ; qtot -224.285725
 6917         hc    238    ccc    H10   6917 0.08130000   1.008000   ; qtot -224.204425
 6918          c    238    ccc     C6   6918 1.08970000  12.010000   ; qtot -223.114725
 6919          o    238    ccc     O2   6919 -0.96050000  16.000000   ; qtot -224.075225
 6920          o    238    ccc     O3   6920 -0.96050000  16.000000   ; qtot -225.035725
 6921         c3    238    ccc     C7   6921 0.32800000  12.010000   ; qtot -224.707725
 6922         h1    238    ccc    H11   6922 -0.07120000   1.008000   ; qtot -224.778925
 6923         h1    238    ccc    H12   6923 -0.07120000   1.008000   ; qtot -224.850125
 6924         c3    238    ccc     C8   6924 -0.39330000  12.010000   ; qtot -225.243425
 6925         hc    238    ccc    H13   6925 0.08130000   1.008000   ; qtot -225.162125
 6926         hc    238    ccc    H14   6926 0.08130000   1.008000   ; qtot -225.080825
 6927          c    238    ccc     C9   6927 1.08970000  12.010000   ; qtot -223.991125
 6928          o    238    ccc     O4   6928 -0.96050000  16.000000   ; qtot -224.951625
 6929          o    238    ccc     O5   6929 -0.96050000  16.000000   ; qtot -225.912125
 6930         os    238    ccc     O1   6930 -0.11060000  16.000000   ; qtot -226.022725
; residue  239 ccc rtp ccc q -2.0
 6931         c3    239    ccc     C3   6931 -0.04070000  12.010000   ; qtot -226.063425
 6932         h1    239    ccc     H5   6932 0.04610000   1.008000   ; qtot -226.017325
 6933         h1    239    ccc     H6   6933 0.04610000   1.008000   ; qtot -225.971225
 6934         c3    239    ccc     C2   6934 -0.02540000  12.010000   ; qtot -225.996625
 6935         hc    239    ccc     H3   6935 0.00850000   1.008000   ; qtot -225.988125
 6936         hc    239    ccc     H4   6936 0.00850000   1.008000   ; qtot -225.979625
 6937         c3    239    ccc     C1   6937 0.60210000  12.010000   ; qtot -225.377525
 6938         h1    239    ccc     H1   6938 -0.09250000   1.008000   ; qtot -225.470025
 6939         h1    239    ccc     H2   6939 -0.09250000   1.008000   ; qtot -225.562525
 6940         n3    239    ccc     N1   6940 -0.59700000  14.010000   ; qtot -226.159525
 6941         c3    239    ccc     C4   6941 0.32800000  12.010000   ; qtot -225.831525
 6942         h1    239    ccc     H7   6942 -0.07120000   1.008000   ; qtot -225.902725
 6943         h1    239    ccc     H8   6943 -0.07120000   1.008000   ; qtot -225.973925
 6944         c3    239    ccc     C5   6944 -0.39330000  12.010000   ; qtot -226.367225
 6945         hc    239    ccc     H9   6945 0.08130000   1.008000   ; qtot -226.285925
 6946         hc    239    ccc    H10   6946 0.08130000   1.008000   ; qtot -226.204625
 6947          c    239    ccc     C6   6947 1.08970000  12.010000   ; qtot -225.114925
 6948          o    239    ccc     O2   6948 -0.96050000  16.000000   ; qtot -226.075425
 6949          o    239    ccc     O3   6949 -0.96050000  16.000000   ; qtot -227.035925
 6950         c3    239    ccc     C7   6950 0.32800000  12.010000   ; qtot -226.707925
 6951         h1    239    ccc    H11   6951 -0.07120000   1.008000   ; qtot -226.779125
 6952         h1    239    ccc    H12   6952 -0.07120000   1.008000   ; qtot -226.850325
 6953         c3    239    ccc     C8   6953 -0.39330000  12.010000   ; qtot -227.243625
 6954         hc    239    ccc    H13   6954 0.08130000   1.008000   ; qtot -227.162325
 6955         hc    239    ccc    H14   6955 0.08130000   1.008000   ; qtot -227.081025
 6956          c    239    ccc     C9   6956 1.08970000  12.010000   ; qtot -225.991325
 6957          o    239    ccc     O4   6957 -0.96050000  16.000000   ; qtot -226.951825
 6958          o    239    ccc     O5   6958 -0.96050000  16.000000   ; qtot -227.912325
 6959         os    239    ccc     O1   6959 -0.11060000  16.000000   ; qtot -228.022925
; residue  240 ccc rtp ccc q -2.0
 6960         c3    240    ccc     C3   6960 -0.04070000  12.010000   ; qtot -228.063625
 6961         h1    240    ccc     H5   6961 0.04610000   1.008000   ; qtot -228.017525
 6962         h1    240    ccc     H6   6962 0.04610000   1.008000   ; qtot -227.971425
 6963         c3    240    ccc     C2   6963 -0.02540000  12.010000   ; qtot -227.996825
 6964         hc    240    ccc     H3   6964 0.00850000   1.008000   ; qtot -227.988325
 6965         hc    240    ccc     H4   6965 0.00850000   1.008000   ; qtot -227.979825
 6966         c3    240    ccc     C1   6966 0.60210000  12.010000   ; qtot -227.377725
 6967         h1    240    ccc     H1   6967 -0.09250000   1.008000   ; qtot -227.470225
 6968         h1    240    ccc     H2   6968 -0.09250000   1.008000   ; qtot -227.562725
 6969         n3    240    ccc     N1   6969 -0.59700000  14.010000   ; qtot -228.159725
 6970         c3    240    ccc     C4   6970 0.32800000  12.010000   ; qtot -227.831725
 6971         h1    240    ccc     H7   6971 -0.07120000   1.008000   ; qtot -227.902925
 6972         h1    240    ccc     H8   6972 -0.07120000   1.008000   ; qtot -227.974125
 6973         c3    240    ccc     C5   6973 -0.39330000  12.010000   ; qtot -228.367425
 6974         hc    240    ccc     H9   6974 0.08130000   1.008000   ; qtot -228.286125
 6975         hc    240    ccc    H10   6975 0.08130000   1.008000   ; qtot -228.204825
 6976          c    240    ccc     C6   6976 1.08970000  12.010000   ; qtot -227.115125
 6977          o    240    ccc     O2   6977 -0.96050000  16.000000   ; qtot -228.075625
 6978          o    240    ccc     O3   6978 -0.96050000  16.000000   ; qtot -229.036125
 6979         c3    240    ccc     C7   6979 0.32800000  12.010000   ; qtot -228.708125
 6980         h1    240    ccc    H11   6980 -0.07120000   1.008000   ; qtot -228.779325
 6981         h1    240    ccc    H12   6981 -0.07120000   1.008000   ; qtot -228.850525
 6982         c3    240    ccc     C8   6982 -0.39330000  12.010000   ; qtot -229.243825
 6983         hc    240    ccc    H13   6983 0.08130000   1.008000   ; qtot -229.162525
 6984         hc    240    ccc    H14   6984 0.08130000   1.008000   ; qtot -229.081225
 6985          c    240    ccc     C9   6985 1.08970000  12.010000   ; qtot -227.991525
 6986          o    240    ccc     O4   6986 -0.96050000  16.000000   ; qtot -228.952025
 6987          o    240    ccc     O5   6987 -0.96050000  16.000000   ; qtot -229.912525
 6988         os    240    ccc     O1   6988 -0.11060000  16.000000   ; qtot -230.023125
; residue  241 ccc rtp ccc q -2.0
 6989         c3    241    ccc     C3   6989 -0.04070000  12.010000   ; qtot -230.063825
 6990         h1    241    ccc     H5   6990 0.04610000   1.008000   ; qtot -230.017725
 6991         h1    241    ccc     H6   6991 0.04610000   1.008000   ; qtot -229.971625
 6992         c3    241    ccc     C2   6992 -0.02540000  12.010000   ; qtot -229.997025
 6993         hc    241    ccc     H3   6993 0.00850000   1.008000   ; qtot -229.988525
 6994         hc    241    ccc     H4   6994 0.00850000   1.008000   ; qtot -229.980025
 6995         c3    241    ccc     C1   6995 0.60210000  12.010000   ; qtot -229.377925
 6996         h1    241    ccc     H1   6996 -0.09250000   1.008000   ; qtot -229.470425
 6997         h1    241    ccc     H2   6997 -0.09250000   1.008000   ; qtot -229.562925
 6998         n3    241    ccc     N1   6998 -0.59700000  14.010000   ; qtot -230.159925
 6999         c3    241    ccc     C4   6999 0.32800000  12.010000   ; qtot -229.831925
 7000         h1    241    ccc     H7   7000 -0.07120000   1.008000   ; qtot -229.903125
 7001         h1    241    ccc     H8   7001 -0.07120000   1.008000   ; qtot -229.974325
 7002         c3    241    ccc     C5   7002 -0.39330000  12.010000   ; qtot -230.367625
 7003         hc    241    ccc     H9   7003 0.08130000   1.008000   ; qtot -230.286325
 7004         hc    241    ccc    H10   7004 0.08130000   1.008000   ; qtot -230.205025
 7005          c    241    ccc     C6   7005 1.08970000  12.010000   ; qtot -229.115325
 7006          o    241    ccc     O2   7006 -0.96050000  16.000000   ; qtot -230.075825
 7007          o    241    ccc     O3   7007 -0.96050000  16.000000   ; qtot -231.036325
 7008         c3    241    ccc     C7   7008 0.32800000  12.010000   ; qtot -230.708325
 7009         h1    241    ccc    H11   7009 -0.07120000   1.008000   ; qtot -230.779525
 7010         h1    241    ccc    H12   7010 -0.07120000   1.008000   ; qtot -230.850725
 7011         c3    241    ccc     C8   7011 -0.39330000  12.010000   ; qtot -231.244025
 7012         hc    241    ccc    H13   7012 0.08130000   1.008000   ; qtot -231.162725
 7013         hc    241    ccc    H14   7013 0.08130000   1.008000   ; qtot -231.081425
 7014          c    241    ccc     C9   7014 1.08970000  12.010000   ; qtot -229.991725
 7015          o    241    ccc     O4   7015 -0.96050000  16.000000   ; qtot -230.952225
 7016          o    241    ccc     O5   7016 -0.96050000  16.000000   ; qtot -231.912725
 7017         os    241    ccc     O1   7017 -0.11060000  16.000000   ; qtot -232.023325
; residue  242 ccc rtp ccc q -2.0
 7018         c3    242    ccc     C3   7018 -0.04070000  12.010000   ; qtot -232.064025
 7019         h1    242    ccc     H5   7019 0.04610000   1.008000   ; qtot -232.017925
 7020         h1    242    ccc     H6   7020 0.04610000   1.008000   ; qtot -231.971825
 7021         c3    242    ccc     C2   7021 -0.02540000  12.010000   ; qtot -231.997225
 7022         hc    242    ccc     H3   7022 0.00850000   1.008000   ; qtot -231.988725
 7023         hc    242    ccc     H4   7023 0.00850000   1.008000   ; qtot -231.980225
 7024         c3    242    ccc     C1   7024 0.60210000  12.010000   ; qtot -231.378125
 7025         h1    242    ccc     H1   7025 -0.09250000   1.008000   ; qtot -231.470625
 7026         h1    242    ccc     H2   7026 -0.09250000   1.008000   ; qtot -231.563125
 7027         n3    242    ccc     N1   7027 -0.59700000  14.010000   ; qtot -232.160125
 7028         c3    242    ccc     C4   7028 0.32800000  12.010000   ; qtot -231.832125
 7029         h1    242    ccc     H7   7029 -0.07120000   1.008000   ; qtot -231.903325
 7030         h1    242    ccc     H8   7030 -0.07120000   1.008000   ; qtot -231.974525
 7031         c3    242    ccc     C5   7031 -0.39330000  12.010000   ; qtot -232.367825
 7032         hc    242    ccc     H9   7032 0.08130000   1.008000   ; qtot -232.286525
 7033         hc    242    ccc    H10   7033 0.08130000   1.008000   ; qtot -232.205225
 7034          c    242    ccc     C6   7034 1.08970000  12.010000   ; qtot -231.115525
 7035          o    242    ccc     O2   7035 -0.96050000  16.000000   ; qtot -232.076025
 7036          o    242    ccc     O3   7036 -0.96050000  16.000000   ; qtot -233.036525
 7037         c3    242    ccc     C7   7037 0.32800000  12.010000   ; qtot -232.708525
 7038         h1    242    ccc    H11   7038 -0.07120000   1.008000   ; qtot -232.779725
 7039         h1    242    ccc    H12   7039 -0.07120000   1.008000   ; qtot -232.850925
 7040         c3    242    ccc     C8   7040 -0.39330000  12.010000   ; qtot -233.244225
 7041         hc    242    ccc    H13   7041 0.08130000   1.008000   ; qtot -233.162925
 7042         hc    242    ccc    H14   7042 0.08130000   1.008000   ; qtot -233.081625
 7043          c    242    ccc     C9   7043 1.08970000  12.010000   ; qtot -231.991925
 7044          o    242    ccc     O4   7044 -0.96050000  16.000000   ; qtot -232.952425
 7045          o    242    ccc     O5   7045 -0.96050000  16.000000   ; qtot -233.912925
 7046         os    242    ccc     O1   7046 -0.11060000  16.000000   ; qtot -234.023525
; residue  243 ccc rtp ccc q -2.0
 7047         c3    243    ccc     C3   7047 -0.04070000  12.010000   ; qtot -234.064225
 7048         h1    243    ccc     H5   7048 0.04610000   1.008000   ; qtot -234.018125
 7049         h1    243    ccc     H6   7049 0.04610000   1.008000   ; qtot -233.972025
 7050         c3    243    ccc     C2   7050 -0.02540000  12.010000   ; qtot -233.997425
 7051         hc    243    ccc     H3   7051 0.00850000   1.008000   ; qtot -233.988925
 7052         hc    243    ccc     H4   7052 0.00850000   1.008000   ; qtot -233.980425
 7053         c3    243    ccc     C1   7053 0.60210000  12.010000   ; qtot -233.378325
 7054         h1    243    ccc     H1   7054 -0.09250000   1.008000   ; qtot -233.470825
 7055         h1    243    ccc     H2   7055 -0.09250000   1.008000   ; qtot -233.563325
 7056         n3    243    ccc     N1   7056 -0.59700000  14.010000   ; qtot -234.160325
 7057         c3    243    ccc     C4   7057 0.32800000  12.010000   ; qtot -233.832325
 7058         h1    243    ccc     H7   7058 -0.07120000   1.008000   ; qtot -233.903525
 7059         h1    243    ccc     H8   7059 -0.07120000   1.008000   ; qtot -233.974725
 7060         c3    243    ccc     C5   7060 -0.39330000  12.010000   ; qtot -234.368025
 7061         hc    243    ccc     H9   7061 0.08130000   1.008000   ; qtot -234.286725
 7062         hc    243    ccc    H10   7062 0.08130000   1.008000   ; qtot -234.205425
 7063          c    243    ccc     C6   7063 1.08970000  12.010000   ; qtot -233.115725
 7064          o    243    ccc     O2   7064 -0.96050000  16.000000   ; qtot -234.076225
 7065          o    243    ccc     O3   7065 -0.96050000  16.000000   ; qtot -235.036725
 7066         c3    243    ccc     C7   7066 0.32800000  12.010000   ; qtot -234.708725
 7067         h1    243    ccc    H11   7067 -0.07120000   1.008000   ; qtot -234.779925
 7068         h1    243    ccc    H12   7068 -0.07120000   1.008000   ; qtot -234.851125
 7069         c3    243    ccc     C8   7069 -0.39330000  12.010000   ; qtot -235.244425
 7070         hc    243    ccc    H13   7070 0.08130000   1.008000   ; qtot -235.163125
 7071         hc    243    ccc    H14   7071 0.08130000   1.008000   ; qtot -235.081825
 7072          c    243    ccc     C9   7072 1.08970000  12.010000   ; qtot -233.992125
 7073          o    243    ccc     O4   7073 -0.96050000  16.000000   ; qtot -234.952625
 7074          o    243    ccc     O5   7074 -0.96050000  16.000000   ; qtot -235.913125
 7075         os    243    ccc     O1   7075 -0.11060000  16.000000   ; qtot -236.023725
; residue  244 ccc rtp ccc q -2.0
 7076         c3    244    ccc     C3   7076 -0.04070000  12.010000   ; qtot -236.064425
 7077         h1    244    ccc     H5   7077 0.04610000   1.008000   ; qtot -236.018325
 7078         h1    244    ccc     H6   7078 0.04610000   1.008000   ; qtot -235.972225
 7079         c3    244    ccc     C2   7079 -0.02540000  12.010000   ; qtot -235.997625
 7080         hc    244    ccc     H3   7080 0.00850000   1.008000   ; qtot -235.989125
 7081         hc    244    ccc     H4   7081 0.00850000   1.008000   ; qtot -235.980625
 7082         c3    244    ccc     C1   7082 0.60210000  12.010000   ; qtot -235.378525
 7083         h1    244    ccc     H1   7083 -0.09250000   1.008000   ; qtot -235.471025
 7084         h1    244    ccc     H2   7084 -0.09250000   1.008000   ; qtot -235.563525
 7085         n3    244    ccc     N1   7085 -0.59700000  14.010000   ; qtot -236.160525
 7086         c3    244    ccc     C4   7086 0.32800000  12.010000   ; qtot -235.832525
 7087         h1    244    ccc     H7   7087 -0.07120000   1.008000   ; qtot -235.903725
 7088         h1    244    ccc     H8   7088 -0.07120000   1.008000   ; qtot -235.974925
 7089         c3    244    ccc     C5   7089 -0.39330000  12.010000   ; qtot -236.368225
 7090         hc    244    ccc     H9   7090 0.08130000   1.008000   ; qtot -236.286925
 7091         hc    244    ccc    H10   7091 0.08130000   1.008000   ; qtot -236.205625
 7092          c    244    ccc     C6   7092 1.08970000  12.010000   ; qtot -235.115925
 7093          o    244    ccc     O2   7093 -0.96050000  16.000000   ; qtot -236.076425
 7094          o    244    ccc     O3   7094 -0.96050000  16.000000   ; qtot -237.036925
 7095         c3    244    ccc     C7   7095 0.32800000  12.010000   ; qtot -236.708925
 7096         h1    244    ccc    H11   7096 -0.07120000   1.008000   ; qtot -236.780125
 7097         h1    244    ccc    H12   7097 -0.07120000   1.008000   ; qtot -236.851325
 7098         c3    244    ccc     C8   7098 -0.39330000  12.010000   ; qtot -237.244625
 7099         hc    244    ccc    H13   7099 0.08130000   1.008000   ; qtot -237.163325
 7100         hc    244    ccc    H14   7100 0.08130000   1.008000   ; qtot -237.082025
 7101          c    244    ccc     C9   7101 1.08970000  12.010000   ; qtot -235.992325
 7102          o    244    ccc     O4   7102 -0.96050000  16.000000   ; qtot -236.952825
 7103          o    244    ccc     O5   7103 -0.96050000  16.000000   ; qtot -237.913325
 7104         os    244    ccc     O1   7104 -0.11060000  16.000000   ; qtot -238.023925
; residue  245 ccc rtp ccc q -2.0
 7105         c3    245    ccc     C3   7105 -0.04070000  12.010000   ; qtot -238.064625
 7106         h1    245    ccc     H5   7106 0.04610000   1.008000   ; qtot -238.018525
 7107         h1    245    ccc     H6   7107 0.04610000   1.008000   ; qtot -237.972425
 7108         c3    245    ccc     C2   7108 -0.02540000  12.010000   ; qtot -237.997825
 7109         hc    245    ccc     H3   7109 0.00850000   1.008000   ; qtot -237.989325
 7110         hc    245    ccc     H4   7110 0.00850000   1.008000   ; qtot -237.980825
 7111         c3    245    ccc     C1   7111 0.60210000  12.010000   ; qtot -237.378725
 7112         h1    245    ccc     H1   7112 -0.09250000   1.008000   ; qtot -237.471225
 7113         h1    245    ccc     H2   7113 -0.09250000   1.008000   ; qtot -237.563725
 7114         n3    245    ccc     N1   7114 -0.59700000  14.010000   ; qtot -238.160725
 7115         c3    245    ccc     C4   7115 0.32800000  12.010000   ; qtot -237.832725
 7116         h1    245    ccc     H7   7116 -0.07120000   1.008000   ; qtot -237.903925
 7117         h1    245    ccc     H8   7117 -0.07120000   1.008000   ; qtot -237.975125
 7118         c3    245    ccc     C5   7118 -0.39330000  12.010000   ; qtot -238.368425
 7119         hc    245    ccc     H9   7119 0.08130000   1.008000   ; qtot -238.287125
 7120         hc    245    ccc    H10   7120 0.08130000   1.008000   ; qtot -238.205825
 7121          c    245    ccc     C6   7121 1.08970000  12.010000   ; qtot -237.116125
 7122          o    245    ccc     O2   7122 -0.96050000  16.000000   ; qtot -238.076625
 7123          o    245    ccc     O3   7123 -0.96050000  16.000000   ; qtot -239.037125
 7124         c3    245    ccc     C7   7124 0.32800000  12.010000   ; qtot -238.709125
 7125         h1    245    ccc    H11   7125 -0.07120000   1.008000   ; qtot -238.780325
 7126         h1    245    ccc    H12   7126 -0.07120000   1.008000   ; qtot -238.851525
 7127         c3    245    ccc     C8   7127 -0.39330000  12.010000   ; qtot -239.244825
 7128         hc    245    ccc    H13   7128 0.08130000   1.008000   ; qtot -239.163525
 7129         hc    245    ccc    H14   7129 0.08130000   1.008000   ; qtot -239.082225
 7130          c    245    ccc     C9   7130 1.08970000  12.010000   ; qtot -237.992525
 7131          o    245    ccc     O4   7131 -0.96050000  16.000000   ; qtot -238.953025
 7132          o    245    ccc     O5   7132 -0.96050000  16.000000   ; qtot -239.913525
 7133         os    245    ccc     O1   7133 -0.11060000  16.000000   ; qtot -240.024125
; residue  246 ccc rtp ccc q -2.0
 7134         c3    246    ccc     C3   7134 -0.04070000  12.010000   ; qtot -240.064825
 7135         h1    246    ccc     H5   7135 0.04610000   1.008000   ; qtot -240.018725
 7136         h1    246    ccc     H6   7136 0.04610000   1.008000   ; qtot -239.972625
 7137         c3    246    ccc     C2   7137 -0.02540000  12.010000   ; qtot -239.998025
 7138         hc    246    ccc     H3   7138 0.00850000   1.008000   ; qtot -239.989525
 7139         hc    246    ccc     H4   7139 0.00850000   1.008000   ; qtot -239.981025
 7140         c3    246    ccc     C1   7140 0.60210000  12.010000   ; qtot -239.378925
 7141         h1    246    ccc     H1   7141 -0.09250000   1.008000   ; qtot -239.471425
 7142         h1    246    ccc     H2   7142 -0.09250000   1.008000   ; qtot -239.563925
 7143         n3    246    ccc     N1   7143 -0.59700000  14.010000   ; qtot -240.160925
 7144         c3    246    ccc     C4   7144 0.32800000  12.010000   ; qtot -239.832925
 7145         h1    246    ccc     H7   7145 -0.07120000   1.008000   ; qtot -239.904125
 7146         h1    246    ccc     H8   7146 -0.07120000   1.008000   ; qtot -239.975325
 7147         c3    246    ccc     C5   7147 -0.39330000  12.010000   ; qtot -240.368625
 7148         hc    246    ccc     H9   7148 0.08130000   1.008000   ; qtot -240.287325
 7149         hc    246    ccc    H10   7149 0.08130000   1.008000   ; qtot -240.206025
 7150          c    246    ccc     C6   7150 1.08970000  12.010000   ; qtot -239.116325
 7151          o    246    ccc     O2   7151 -0.96050000  16.000000   ; qtot -240.076825
 7152          o    246    ccc     O3   7152 -0.96050000  16.000000   ; qtot -241.037325
 7153         c3    246    ccc     C7   7153 0.32800000  12.010000   ; qtot -240.709325
 7154         h1    246    ccc    H11   7154 -0.07120000   1.008000   ; qtot -240.780525
 7155         h1    246    ccc    H12   7155 -0.07120000   1.008000   ; qtot -240.851725
 7156         c3    246    ccc     C8   7156 -0.39330000  12.010000   ; qtot -241.245025
 7157         hc    246    ccc    H13   7157 0.08130000   1.008000   ; qtot -241.163725
 7158         hc    246    ccc    H14   7158 0.08130000   1.008000   ; qtot -241.082425
 7159          c    246    ccc     C9   7159 1.08970000  12.010000   ; qtot -239.992725
 7160          o    246    ccc     O4   7160 -0.96050000  16.000000   ; qtot -240.953225
 7161          o    246    ccc     O5   7161 -0.96050000  16.000000   ; qtot -241.913725
 7162         os    246    ccc     O1   7162 -0.11060000  16.000000   ; qtot -242.024325
; residue  247 ccc rtp ccc q -2.0
 7163         c3    247    ccc     C3   7163 -0.04070000  12.010000   ; qtot -242.065025
 7164         h1    247    ccc     H5   7164 0.04610000   1.008000   ; qtot -242.018925
 7165         h1    247    ccc     H6   7165 0.04610000   1.008000   ; qtot -241.972825
 7166         c3    247    ccc     C2   7166 -0.02540000  12.010000   ; qtot -241.998225
 7167         hc    247    ccc     H3   7167 0.00850000   1.008000   ; qtot -241.989725
 7168         hc    247    ccc     H4   7168 0.00850000   1.008000   ; qtot -241.981225
 7169         c3    247    ccc     C1   7169 0.60210000  12.010000   ; qtot -241.379125
 7170         h1    247    ccc     H1   7170 -0.09250000   1.008000   ; qtot -241.471625
 7171         h1    247    ccc     H2   7171 -0.09250000   1.008000   ; qtot -241.564125
 7172         n3    247    ccc     N1   7172 -0.59700000  14.010000   ; qtot -242.161125
 7173         c3    247    ccc     C4   7173 0.32800000  12.010000   ; qtot -241.833125
 7174         h1    247    ccc     H7   7174 -0.07120000   1.008000   ; qtot -241.904325
 7175         h1    247    ccc     H8   7175 -0.07120000   1.008000   ; qtot -241.975525
 7176         c3    247    ccc     C5   7176 -0.39330000  12.010000   ; qtot -242.368825
 7177         hc    247    ccc     H9   7177 0.08130000   1.008000   ; qtot -242.287525
 7178         hc    247    ccc    H10   7178 0.08130000   1.008000   ; qtot -242.206225
 7179          c    247    ccc     C6   7179 1.08970000  12.010000   ; qtot -241.116525
 7180          o    247    ccc     O2   7180 -0.96050000  16.000000   ; qtot -242.077025
 7181          o    247    ccc     O3   7181 -0.96050000  16.000000   ; qtot -243.037525
 7182         c3    247    ccc     C7   7182 0.32800000  12.010000   ; qtot -242.709525
 7183         h1    247    ccc    H11   7183 -0.07120000   1.008000   ; qtot -242.780725
 7184         h1    247    ccc    H12   7184 -0.07120000   1.008000   ; qtot -242.851925
 7185         c3    247    ccc     C8   7185 -0.39330000  12.010000   ; qtot -243.245225
 7186         hc    247    ccc    H13   7186 0.08130000   1.008000   ; qtot -243.163925
 7187         hc    247    ccc    H14   7187 0.08130000   1.008000   ; qtot -243.082625
 7188          c    247    ccc     C9   7188 1.08970000  12.010000   ; qtot -241.992925
 7189          o    247    ccc     O4   7189 -0.96050000  16.000000   ; qtot -242.953425
 7190          o    247    ccc     O5   7190 -0.96050000  16.000000   ; qtot -243.913925
 7191         os    247    ccc     O1   7191 -0.11060000  16.000000   ; qtot -244.024525
; residue  248 ccc rtp ccc q -2.0
 7192         c3    248    ccc     C3   7192 -0.04070000  12.010000   ; qtot -244.065225
 7193         h1    248    ccc     H5   7193 0.04610000   1.008000   ; qtot -244.019125
 7194         h1    248    ccc     H6   7194 0.04610000   1.008000   ; qtot -243.973025
 7195         c3    248    ccc     C2   7195 -0.02540000  12.010000   ; qtot -243.998425
 7196         hc    248    ccc     H3   7196 0.00850000   1.008000   ; qtot -243.989925
 7197         hc    248    ccc     H4   7197 0.00850000   1.008000   ; qtot -243.981425
 7198         c3    248    ccc     C1   7198 0.60210000  12.010000   ; qtot -243.379325
 7199         h1    248    ccc     H1   7199 -0.09250000   1.008000   ; qtot -243.471825
 7200         h1    248    ccc     H2   7200 -0.09250000   1.008000   ; qtot -243.564325
 7201         n3    248    ccc     N1   7201 -0.59700000  14.010000   ; qtot -244.161325
 7202         c3    248    ccc     C4   7202 0.32800000  12.010000   ; qtot -243.833325
 7203         h1    248    ccc     H7   7203 -0.07120000   1.008000   ; qtot -243.904525
 7204         h1    248    ccc     H8   7204 -0.07120000   1.008000   ; qtot -243.975725
 7205         c3    248    ccc     C5   7205 -0.39330000  12.010000   ; qtot -244.369025
 7206         hc    248    ccc     H9   7206 0.08130000   1.008000   ; qtot -244.287725
 7207         hc    248    ccc    H10   7207 0.08130000   1.008000   ; qtot -244.206425
 7208          c    248    ccc     C6   7208 1.08970000  12.010000   ; qtot -243.116725
 7209          o    248    ccc     O2   7209 -0.96050000  16.000000   ; qtot -244.077225
 7210          o    248    ccc     O3   7210 -0.96050000  16.000000   ; qtot -245.037725
 7211         c3    248    ccc     C7   7211 0.32800000  12.010000   ; qtot -244.709725
 7212         h1    248    ccc    H11   7212 -0.07120000   1.008000   ; qtot -244.780925
 7213         h1    248    ccc    H12   7213 -0.07120000   1.008000   ; qtot -244.852125
 7214         c3    248    ccc     C8   7214 -0.39330000  12.010000   ; qtot -245.245425
 7215         hc    248    ccc    H13   7215 0.08130000   1.008000   ; qtot -245.164125
 7216         hc    248    ccc    H14   7216 0.08130000   1.008000   ; qtot -245.082825
 7217          c    248    ccc     C9   7217 1.08970000  12.010000   ; qtot -243.993125
 7218          o    248    ccc     O4   7218 -0.96050000  16.000000   ; qtot -244.953625
 7219          o    248    ccc     O5   7219 -0.96050000  16.000000   ; qtot -245.914125
 7220         os    248    ccc     O1   7220 -0.11060000  16.000000   ; qtot -246.024725
; residue  249 ccc rtp ccc q -2.0
 7221         c3    249    ccc     C3   7221 -0.04070000  12.010000   ; qtot -246.065425
 7222         h1    249    ccc     H5   7222 0.04610000   1.008000   ; qtot -246.019325
 7223         h1    249    ccc     H6   7223 0.04610000   1.008000   ; qtot -245.973225
 7224         c3    249    ccc     C2   7224 -0.02540000  12.010000   ; qtot -245.998625
 7225         hc    249    ccc     H3   7225 0.00850000   1.008000   ; qtot -245.990125
 7226         hc    249    ccc     H4   7226 0.00850000   1.008000   ; qtot -245.981625
 7227         c3    249    ccc     C1   7227 0.60210000  12.010000   ; qtot -245.379525
 7228         h1    249    ccc     H1   7228 -0.09250000   1.008000   ; qtot -245.472025
 7229         h1    249    ccc     H2   7229 -0.09250000   1.008000   ; qtot -245.564525
 7230         n3    249    ccc     N1   7230 -0.59700000  14.010000   ; qtot -246.161525
 7231         c3    249    ccc     C4   7231 0.32800000  12.010000   ; qtot -245.833525
 7232         h1    249    ccc     H7   7232 -0.07120000   1.008000   ; qtot -245.904725
 7233         h1    249    ccc     H8   7233 -0.07120000   1.008000   ; qtot -245.975925
 7234         c3    249    ccc     C5   7234 -0.39330000  12.010000   ; qtot -246.369225
 7235         hc    249    ccc     H9   7235 0.08130000   1.008000   ; qtot -246.287925
 7236         hc    249    ccc    H10   7236 0.08130000   1.008000   ; qtot -246.206625
 7237          c    249    ccc     C6   7237 1.08970000  12.010000   ; qtot -245.116925
 7238          o    249    ccc     O2   7238 -0.96050000  16.000000   ; qtot -246.077425
 7239          o    249    ccc     O3   7239 -0.96050000  16.000000   ; qtot -247.037925
 7240         c3    249    ccc     C7   7240 0.32800000  12.010000   ; qtot -246.709925
 7241         h1    249    ccc    H11   7241 -0.07120000   1.008000   ; qtot -246.781125
 7242         h1    249    ccc    H12   7242 -0.07120000   1.008000   ; qtot -246.852325
 7243         c3    249    ccc     C8   7243 -0.39330000  12.010000   ; qtot -247.245625
 7244         hc    249    ccc    H13   7244 0.08130000   1.008000   ; qtot -247.164325
 7245         hc    249    ccc    H14   7245 0.08130000   1.008000   ; qtot -247.083025
 7246          c    249    ccc     C9   7246 1.08970000  12.010000   ; qtot -245.993325
 7247          o    249    ccc     O4   7247 -0.96050000  16.000000   ; qtot -246.953825
 7248          o    249    ccc     O5   7248 -0.96050000  16.000000   ; qtot -247.914325
 7249         os    249    ccc     O1   7249 -0.11060000  16.000000   ; qtot -248.024925
; residue  250 ccc rtp ccc q -2.0
 7250         c3    250    ccc     C3   7250 -0.04070000  12.010000   ; qtot -248.065625
 7251         h1    250    ccc     H5   7251 0.04610000   1.008000   ; qtot -248.019525
 7252         h1    250    ccc     H6   7252 0.04610000   1.008000   ; qtot -247.973425
 7253         c3    250    ccc     C2   7253 -0.02540000  12.010000   ; qtot -247.998825
 7254         hc    250    ccc     H3   7254 0.00850000   1.008000   ; qtot -247.990325
 7255         hc    250    ccc     H4   7255 0.00850000   1.008000   ; qtot -247.981825
 7256         c3    250    ccc     C1   7256 0.60210000  12.010000   ; qtot -247.379725
 7257         h1    250    ccc     H1   7257 -0.09250000   1.008000   ; qtot -247.472225
 7258         h1    250    ccc     H2   7258 -0.09250000   1.008000   ; qtot -247.564725
 7259         n3    250    ccc     N1   7259 -0.59700000  14.010000   ; qtot -248.161725
 7260         c3    250    ccc     C4   7260 0.32800000  12.010000   ; qtot -247.833725
 7261         h1    250    ccc     H7   7261 -0.07120000   1.008000   ; qtot -247.904925
 7262         h1    250    ccc     H8   7262 -0.07120000   1.008000   ; qtot -247.976125
 7263         c3    250    ccc     C5   7263 -0.39330000  12.010000   ; qtot -248.369425
 7264         hc    250    ccc     H9   7264 0.08130000   1.008000   ; qtot -248.288125
 7265         hc    250    ccc    H10   7265 0.08130000   1.008000   ; qtot -248.206825
 7266          c    250    ccc     C6   7266 1.08970000  12.010000   ; qtot -247.117125
 7267          o    250    ccc     O2   7267 -0.96050000  16.000000   ; qtot -248.077625
 7268          o    250    ccc     O3   7268 -0.96050000  16.000000   ; qtot -249.038125
 7269         c3    250    ccc     C7   7269 0.32800000  12.010000   ; qtot -248.710125
 7270         h1    250    ccc    H11   7270 -0.07120000   1.008000   ; qtot -248.781325
 7271         h1    250    ccc    H12   7271 -0.07120000   1.008000   ; qtot -248.852525
 7272         c3    250    ccc     C8   7272 -0.39330000  12.010000   ; qtot -249.245825
 7273         hc    250    ccc    H13   7273 0.08130000   1.008000   ; qtot -249.164525
 7274         hc    250    ccc    H14   7274 0.08130000   1.008000   ; qtot -249.083225
 7275          c    250    ccc     C9   7275 1.08970000  12.010000   ; qtot -247.993525
 7276          o    250    ccc     O4   7276 -0.96050000  16.000000   ; qtot -248.954025
 7277          o    250    ccc     O5   7277 -0.96050000  16.000000   ; qtot -249.914525
 7278         os    250    ccc     O1   7278 -0.11060000  16.000000   ; qtot -250.025125
; residue  251 ccc rtp ccc q -2.0
 7279         c3    251    ccc     C3   7279 -0.04070000  12.010000   ; qtot -250.065825
 7280         h1    251    ccc     H5   7280 0.04610000   1.008000   ; qtot -250.019725
 7281         h1    251    ccc     H6   7281 0.04610000   1.008000   ; qtot -249.973625
 7282         c3    251    ccc     C2   7282 -0.02540000  12.010000   ; qtot -249.999025
 7283         hc    251    ccc     H3   7283 0.00850000   1.008000   ; qtot -249.990525
 7284         hc    251    ccc     H4   7284 0.00850000   1.008000   ; qtot -249.982025
 7285         c3    251    ccc     C1   7285 0.60210000  12.010000   ; qtot -249.379925
 7286         h1    251    ccc     H1   7286 -0.09250000   1.008000   ; qtot -249.472425
 7287         h1    251    ccc     H2   7287 -0.09250000   1.008000   ; qtot -249.564925
 7288         n3    251    ccc     N1   7288 -0.59700000  14.010000   ; qtot -250.161925
 7289         c3    251    ccc     C4   7289 0.32800000  12.010000   ; qtot -249.833925
 7290         h1    251    ccc     H7   7290 -0.07120000   1.008000   ; qtot -249.905125
 7291         h1    251    ccc     H8   7291 -0.07120000   1.008000   ; qtot -249.976325
 7292         c3    251    ccc     C5   7292 -0.39330000  12.010000   ; qtot -250.369625
 7293         hc    251    ccc     H9   7293 0.08130000   1.008000   ; qtot -250.288325
 7294         hc    251    ccc    H10   7294 0.08130000   1.008000   ; qtot -250.207025
 7295          c    251    ccc     C6   7295 1.08970000  12.010000   ; qtot -249.117325
 7296          o    251    ccc     O2   7296 -0.96050000  16.000000   ; qtot -250.077825
 7297          o    251    ccc     O3   7297 -0.96050000  16.000000   ; qtot -251.038325
 7298         c3    251    ccc     C7   7298 0.32800000  12.010000   ; qtot -250.710325
 7299         h1    251    ccc    H11   7299 -0.07120000   1.008000   ; qtot -250.781525
 7300         h1    251    ccc    H12   7300 -0.07120000   1.008000   ; qtot -250.852725
 7301         c3    251    ccc     C8   7301 -0.39330000  12.010000   ; qtot -251.246025
 7302         hc    251    ccc    H13   7302 0.08130000   1.008000   ; qtot -251.164725
 7303         hc    251    ccc    H14   7303 0.08130000   1.008000   ; qtot -251.083425
 7304          c    251    ccc     C9   7304 1.08970000  12.010000   ; qtot -249.993725
 7305          o    251    ccc     O4   7305 -0.96050000  16.000000   ; qtot -250.954225
 7306          o    251    ccc     O5   7306 -0.96050000  16.000000   ; qtot -251.914725
 7307         os    251    ccc     O1   7307 -0.11060000  16.000000   ; qtot -252.025325
; residue  252 ccc rtp ccc q -2.0
 7308         c3    252    ccc     C3   7308 -0.04070000  12.010000   ; qtot -252.066025
 7309         h1    252    ccc     H5   7309 0.04610000   1.008000   ; qtot -252.019925
 7310         h1    252    ccc     H6   7310 0.04610000   1.008000   ; qtot -251.973825
 7311         c3    252    ccc     C2   7311 -0.02540000  12.010000   ; qtot -251.999225
 7312         hc    252    ccc     H3   7312 0.00850000   1.008000   ; qtot -251.990725
 7313         hc    252    ccc     H4   7313 0.00850000   1.008000   ; qtot -251.982225
 7314         c3    252    ccc     C1   7314 0.60210000  12.010000   ; qtot -251.380125
 7315         h1    252    ccc     H1   7315 -0.09250000   1.008000   ; qtot -251.472625
 7316         h1    252    ccc     H2   7316 -0.09250000   1.008000   ; qtot -251.565125
 7317         n3    252    ccc     N1   7317 -0.59700000  14.010000   ; qtot -252.162125
 7318         c3    252    ccc     C4   7318 0.32800000  12.010000   ; qtot -251.834125
 7319         h1    252    ccc     H7   7319 -0.07120000   1.008000   ; qtot -251.905325
 7320         h1    252    ccc     H8   7320 -0.07120000   1.008000   ; qtot -251.976525
 7321         c3    252    ccc     C5   7321 -0.39330000  12.010000   ; qtot -252.369825
 7322         hc    252    ccc     H9   7322 0.08130000   1.008000   ; qtot -252.288525
 7323         hc    252    ccc    H10   7323 0.08130000   1.008000   ; qtot -252.207225
 7324          c    252    ccc     C6   7324 1.08970000  12.010000   ; qtot -251.117525
 7325          o    252    ccc     O2   7325 -0.96050000  16.000000   ; qtot -252.078025
 7326          o    252    ccc     O3   7326 -0.96050000  16.000000   ; qtot -253.038525
 7327         c3    252    ccc     C7   7327 0.32800000  12.010000   ; qtot -252.710525
 7328         h1    252    ccc    H11   7328 -0.07120000   1.008000   ; qtot -252.781725
 7329         h1    252    ccc    H12   7329 -0.07120000   1.008000   ; qtot -252.852925
 7330         c3    252    ccc     C8   7330 -0.39330000  12.010000   ; qtot -253.246225
 7331         hc    252    ccc    H13   7331 0.08130000   1.008000   ; qtot -253.164925
 7332         hc    252    ccc    H14   7332 0.08130000   1.008000   ; qtot -253.083625
 7333          c    252    ccc     C9   7333 1.08970000  12.010000   ; qtot -251.993925
 7334          o    252    ccc     O4   7334 -0.96050000  16.000000   ; qtot -252.954425
 7335          o    252    ccc     O5   7335 -0.96050000  16.000000   ; qtot -253.914925
 7336         os    252    ccc     O1   7336 -0.11060000  16.000000   ; qtot -254.025525
; residue  253 ccc rtp ccc q -2.0
 7337         c3    253    ccc     C3   7337 -0.04070000  12.010000   ; qtot -254.066225
 7338         h1    253    ccc     H5   7338 0.04610000   1.008000   ; qtot -254.020125
 7339         h1    253    ccc     H6   7339 0.04610000   1.008000   ; qtot -253.974025
 7340         c3    253    ccc     C2   7340 -0.02540000  12.010000   ; qtot -253.999425
 7341         hc    253    ccc     H3   7341 0.00850000   1.008000   ; qtot -253.990925
 7342         hc    253    ccc     H4   7342 0.00850000   1.008000   ; qtot -253.982425
 7343         c3    253    ccc     C1   7343 0.60210000  12.010000   ; qtot -253.380325
 7344         h1    253    ccc     H1   7344 -0.09250000   1.008000   ; qtot -253.472825
 7345         h1    253    ccc     H2   7345 -0.09250000   1.008000   ; qtot -253.565325
 7346         n3    253    ccc     N1   7346 -0.59700000  14.010000   ; qtot -254.162325
 7347         c3    253    ccc     C4   7347 0.32800000  12.010000   ; qtot -253.834325
 7348         h1    253    ccc     H7   7348 -0.07120000   1.008000   ; qtot -253.905525
 7349         h1    253    ccc     H8   7349 -0.07120000   1.008000   ; qtot -253.976725
 7350         c3    253    ccc     C5   7350 -0.39330000  12.010000   ; qtot -254.370025
 7351         hc    253    ccc     H9   7351 0.08130000   1.008000   ; qtot -254.288725
 7352         hc    253    ccc    H10   7352 0.08130000   1.008000   ; qtot -254.207425
 7353          c    253    ccc     C6   7353 1.08970000  12.010000   ; qtot -253.117725
 7354          o    253    ccc     O2   7354 -0.96050000  16.000000   ; qtot -254.078225
 7355          o    253    ccc     O3   7355 -0.96050000  16.000000   ; qtot -255.038725
 7356         c3    253    ccc     C7   7356 0.32800000  12.010000   ; qtot -254.710725
 7357         h1    253    ccc    H11   7357 -0.07120000   1.008000   ; qtot -254.781925
 7358         h1    253    ccc    H12   7358 -0.07120000   1.008000   ; qtot -254.853125
 7359         c3    253    ccc     C8   7359 -0.39330000  12.010000   ; qtot -255.246425
 7360         hc    253    ccc    H13   7360 0.08130000   1.008000   ; qtot -255.165125
 7361         hc    253    ccc    H14   7361 0.08130000   1.008000   ; qtot -255.083825
 7362          c    253    ccc     C9   7362 1.08970000  12.010000   ; qtot -253.994125
 7363          o    253    ccc     O4   7363 -0.96050000  16.000000   ; qtot -254.954625
 7364          o    253    ccc     O5   7364 -0.96050000  16.000000   ; qtot -255.915125
 7365         os    253    ccc     O1   7365 -0.11060000  16.000000   ; qtot -256.025725

[ bonds ]
;    ai     aj funct         c0         c1         c2         c3
      1      2     1   0.14316 258236.480000
      1      5     1   0.14316 258236.480000
      2      8     1   0.15375 251793.120000
      5     11     1   0.15375 251793.120000
      8     14     1   0.15375 251793.120000
     11     17     1   0.15375 251793.120000
     14     20     1   0.14647 272713.120000
     17     21     1   0.14647 272713.120000
     20     28     1   0.14647 272713.120000
     20     31     1   0.14647 272713.120000
     21     22     1   0.14647 272713.120000
     21     25     1   0.14647 272713.120000
     22     34     1   0.15375 251793.120000
     25     37     1   0.15375 251793.120000
     28     40     1   0.15375 251793.120000
     31     43     1   0.15375 251793.120000
     34     55     1   0.15375 251793.120000
     37     52     1   0.15375 251793.120000
     40     49     1   0.15375 251793.120000
     43     46     1   0.15375 251793.120000
     46     86     1   0.14316 258236.480000
     49    115     1   0.14316 258236.480000
     52    144     1   0.14316 258236.480000
     55    173     1   0.14316 258236.480000
     58     59     1   0.14647 272713.120000
     58     62     1   0.14647 272713.120000
     58     65     1   0.14647 272713.120000
     59     71     1   0.15375 251793.120000
     62     74     1   0.15375 251793.120000
     65     68     1   0.15375 251793.120000
     68     77     1   0.15375 251793.120000
     71     83     1   0.15375 251793.120000
     74     80     1   0.15375 251793.120000
     77     86     1   0.14316 258236.480000
     80    202     1   0.14316 258236.480000
     83    231     1   0.14316 258236.480000
     87     88     1   0.14647 272713.120000
     87     91     1   0.14647 272713.120000
     87     94     1   0.14647 272713.120000
     88    100     1   0.15375 251793.120000
     91    103     1   0.15375 251793.120000
     94     97     1   0.15375 251793.120000
     97    106     1   0.15375 251793.120000
    100    112     1   0.15375 251793.120000
    103    109     1   0.15375 251793.120000
    106    115     1   0.14316 258236.480000
    109    260     1   0.14316 258236.480000
    112    289     1   0.14316 258236.480000
    116    117     1   0.14647 272713.120000
    116    120     1   0.14647 272713.120000
    116    123     1   0.14647 272713.120000
    117    129     1   0.15375 251793.120000
    120    132     1   0.15375 251793.120000
    123    126     1   0.15375 251793.120000
    126    135     1   0.15375 251793.120000
    129    141     1   0.15375 251793.120000
    132    138     1   0.15375 251793.120000
    135    144     1   0.14316 258236.480000
    138    318     1   0.14316 258236.480000
    141    347     1   0.14316 258236.480000
    145    146     1   0.14647 272713.120000
    145    149     1   0.14647 272713.120000
    145    152     1   0.14647 272713.120000
    146    158     1   0.15375 251793.120000
    149    161     1   0.15375 251793.120000
    152    155     1   0.15375 251793.120000
    155    164     1   0.15375 251793.120000
    158    170     1   0.15375 251793.120000
    161    167     1   0.15375 251793.120000
    164    173     1   0.14316 258236.480000
    167    376     1   0.14316 258236.480000
    170    405     1   0.14316 258236.480000
    174    175     1   0.14647 272713.120000
    174    178     1   0.14647 272713.120000
    174    181     1   0.14647 272713.120000
    175    187     1   0.15375 251793.120000
    178    190     1   0.15375 251793.120000
    181    184     1   0.15375 251793.120000
    184    193     1   0.15375 251793.120000
    187    199     1   0.15375 251793.120000
    190    196     1   0.15375 251793.120000
    193    202     1   0.14316 258236.480000
    196    434     1   0.14316 258236.480000
    199    463     1   0.14316 258236.480000
    203    204     1   0.14647 272713.120000
    203    207     1   0.14647 272713.120000
    203    210     1   0.14647 272713.120000
    204    216     1   0.15375 251793.120000
    207    219     1   0.15375 251793.120000
    210    213     1   0.15375 251793.120000
    213    222     1   0.15375 251793.120000
    216    228     1   0.15375 251793.120000
    219    225     1   0.15375 251793.120000
    222    231     1   0.14316 258236.480000
    225    492     1   0.14316 258236.480000
    228    521     1   0.14316 258236.480000
    232    233     1   0.14647 272713.120000
    232    236     1   0.14647 272713.120000
    232    239     1   0.14647 272713.120000
    233    245     1   0.15375 251793.120000
    236    248     1   0.15375 251793.120000
    239    242     1   0.15375 251793.120000
    242    251     1   0.15375 251793.120000
    245    257     1   0.15375 251793.120000
    248    254     1   0.15375 251793.120000
    251    260     1   0.14316 258236.480000
    254    550     1   0.14316 258236.480000
    257    579     1   0.14316 258236.480000
    261    262     1   0.14647 272713.120000
    261    265     1   0.14647 272713.120000
    261    268     1   0.14647 272713.120000
    262    274     1   0.15375 251793.120000
    265    277     1   0.15375 251793.120000
    268    271     1   0.15375 251793.120000
    271    280     1   0.15375 251793.120000
    274    286     1   0.15375 251793.120000
    277    283     1   0.15375 251793.120000
    280    289     1   0.14316 258236.480000
    283    608     1   0.14316 258236.480000
    286    637     1   0.14316 258236.480000
    290    291     1   0.14647 272713.120000
    290    294     1   0.14647 272713.120000
    290    297     1   0.14647 272713.120000
    291    303     1   0.15375 251793.120000
    294    306     1   0.15375 251793.120000
    297    300     1   0.15375 251793.120000
    300    309     1   0.15375 251793.120000
    303    315     1   0.15375 251793.120000
    306    312     1   0.15375 251793.120000
    309    318     1   0.14316 258236.480000
    312    666     1   0.14316 258236.480000
    315    695     1   0.14316 258236.480000
    319    320     1   0.14647 272713.120000
    319    323     1   0.14647 272713.120000
    319    326     1   0.14647 272713.120000
    320    332     1   0.15375 251793.120000
    323    335     1   0.15375 251793.120000
    326    329     1   0.15375 251793.120000
    329    338     1   0.15375 251793.120000
    332    344     1   0.15375 251793.120000
    335    341     1   0.15375 251793.120000
    338    347     1   0.14316 258236.480000
    341    724     1   0.14316 258236.480000
    344    753     1   0.14316 258236.480000
    348    349     1   0.14647 272713.120000
    348    352     1   0.14647 272713.120000
    348    355     1   0.14647 272713.120000
    349    361     1   0.15375 251793.120000
    352    364     1   0.15375 251793.120000
    355    358     1   0.15375 251793.120000
    358    367     1   0.15375 251793.120000
    361    373     1   0.15375 251793.120000
    364    370     1   0.15375 251793.120000
    367    376     1   0.14316 258236.480000
    370    782     1   0.14316 258236.480000
    373    811     1   0.14316 258236.480000
    377    378     1   0.14647 272713.120000
    377    381     1   0.14647 272713.120000
    377    384     1   0.14647 272713.120000
    378    390     1   0.15375 251793.120000
    381    393     1   0.15375 251793.120000
    384    387     1   0.15375 251793.120000
    387    396     1   0.15375 251793.120000
    390    402     1   0.15375 251793.120000
    393    399     1   0.15375 251793.120000
    396    405     1   0.14316 258236.480000
    399    840     1   0.14316 258236.480000
    402    869     1   0.14316 258236.480000
    406    407     1   0.14647 272713.120000
    406    410     1   0.14647 272713.120000
    406    413     1   0.14647 272713.120000
    407    419     1   0.15375 251793.120000
    410    422     1   0.15375 251793.120000
    413    416     1   0.15375 251793.120000
    416    425     1   0.15375 251793.120000
    419    431     1   0.15375 251793.120000
    422    428     1   0.15375 251793.120000
    425    434     1   0.14316 258236.480000
    428    898     1   0.14316 258236.480000
    431    927     1   0.14316 258236.480000
    435    436     1   0.14647 272713.120000
    435    439     1   0.14647 272713.120000
    435    442     1   0.14647 272713.120000
    436    448     1   0.15375 251793.120000
    439    451     1   0.15375 251793.120000
    442    445     1   0.15375 251793.120000
    445    454     1   0.15375 251793.120000
    448    460     1   0.15375 251793.120000
    451    457     1   0.15375 251793.120000
    454    463     1   0.14316 258236.480000
    457    956     1   0.14316 258236.480000
    460    985     1   0.14316 258236.480000
    464    465     1   0.14647 272713.120000
    464    468     1   0.14647 272713.120000
    464    471     1   0.14647 272713.120000
    465    477     1   0.15375 251793.120000
    468    480     1   0.15375 251793.120000
    471    474     1   0.15375 251793.120000
    474    483     1   0.15375 251793.120000
    477    489     1   0.15375 251793.120000
    480    486     1   0.15375 251793.120000
    483    492     1   0.14316 258236.480000
    486   1014     1   0.14316 258236.480000
    489   1043     1   0.14316 258236.480000
    493    494     1   0.14647 272713.120000
    493    497     1   0.14647 272713.120000
    493    500     1   0.14647 272713.120000
    494    506     1   0.15375 251793.120000
    497    509     1   0.15375 251793.120000
    500    503     1   0.15375 251793.120000
    503    512     1   0.15375 251793.120000
    506    518     1   0.15375 251793.120000
    509    515     1   0.15375 251793.120000
    512    521     1   0.14316 258236.480000
    515   1072     1   0.14316 258236.480000
    518   1101     1   0.14316 258236.480000
    522    523     1   0.14647 272713.120000
    522    526     1   0.14647 272713.120000
    522    529     1   0.14647 272713.120000
    523    535     1   0.15375 251793.120000
    526    538     1   0.15375 251793.120000
    529    532     1   0.15375 251793.120000
    532    541     1   0.15375 251793.120000
    535    547     1   0.15375 251793.120000
    538    544     1   0.15375 251793.120000
    541    550     1   0.14316 258236.480000
    544   1130     1   0.14316 258236.480000
    547   1159     1   0.14316 258236.480000
    551    552     1   0.14647 272713.120000
    551    555     1   0.14647 272713.120000
    551    558     1   0.14647 272713.120000
    552    564     1   0.15375 251793.120000
    555    567     1   0.15375 251793.120000
    558    561     1   0.15375 251793.120000
    561    570     1   0.15375 251793.120000
    564    576     1   0.15375 251793.120000
    567    573     1   0.15375 251793.120000
    570    579     1   0.14316 258236.480000
    573   1188     1   0.14316 258236.480000
    576   1217     1   0.14316 258236.480000
    580    581     1   0.14647 272713.120000
    580    584     1   0.14647 272713.120000
    580    587     1   0.14647 272713.120000
    581    593     1   0.15375 251793.120000
    584    596     1   0.15375 251793.120000
    587    590     1   0.15375 251793.120000
    590    599     1   0.15375 251793.120000
    593    605     1   0.15375 251793.120000
    596    602     1   0.15375 251793.120000
    599    608     1   0.14316 258236.480000
    602   1246     1   0.14316 258236.480000
    605   1275     1   0.14316 258236.480000
    609    610     1   0.14647 272713.120000
    609    613     1   0.14647 272713.120000
    609    616     1   0.14647 272713.120000
    610    622     1   0.15375 251793.120000
    613    625     1   0.15375 251793.120000
    616    619     1   0.15375 251793.120000
    619    628     1   0.15375 251793.120000
    622    634     1   0.15375 251793.120000
    625    631     1   0.15375 251793.120000
    628    637     1   0.14316 258236.480000
    631   1304     1   0.14316 258236.480000
    634   1333     1   0.14316 258236.480000
    638    639     1   0.14647 272713.120000
    638    642     1   0.14647 272713.120000
    638    645     1   0.14647 272713.120000
    639    651     1   0.15375 251793.120000
    642    654     1   0.15375 251793.120000
    645    648     1   0.15375 251793.120000
    648    657     1   0.15375 251793.120000
    651    663     1   0.15375 251793.120000
    654    660     1   0.15375 251793.120000
    657    666     1   0.14316 258236.480000
    660   1362     1   0.14316 258236.480000
    663   1391     1   0.14316 258236.480000
    667    668     1   0.14647 272713.120000
    667    671     1   0.14647 272713.120000
    667    674     1   0.14647 272713.120000
    668    680     1   0.15375 251793.120000
    671    683     1   0.15375 251793.120000
    674    677     1   0.15375 251793.120000
    677    686     1   0.15375 251793.120000
    680    692     1   0.15375 251793.120000
    683    689     1   0.15375 251793.120000
    686    695     1   0.14316 258236.480000
    689   1420     1   0.14316 258236.480000
    692   1449     1   0.14316 258236.480000
    696    697     1   0.14647 272713.120000
    696    700     1   0.14647 272713.120000
    696    703     1   0.14647 272713.120000
    697    709     1   0.15375 251793.120000
    700    712     1   0.15375 251793.120000
    703    706     1   0.15375 251793.120000
    706    715     1   0.15375 251793.120000
    709    721     1   0.15375 251793.120000
    712    718     1   0.15375 251793.120000
    715    724     1   0.14316 258236.480000
    718   1478     1   0.14316 258236.480000
    721   1507     1   0.14316 258236.480000
    725    726     1   0.14647 272713.120000
    725    729     1   0.14647 272713.120000
    725    732     1   0.14647 272713.120000
    726    738     1   0.15375 251793.120000
    729    741     1   0.15375 251793.120000
    732    735     1   0.15375 251793.120000
    735    744     1   0.15375 251793.120000
    738    750     1   0.15375 251793.120000
    741    747     1   0.15375 251793.120000
    744    753     1   0.14316 258236.480000
    747   1536     1   0.14316 258236.480000
    750   1565     1   0.14316 258236.480000
    754    755     1   0.14647 272713.120000
    754    758     1   0.14647 272713.120000
    754    761     1   0.14647 272713.120000
    755    767     1   0.15375 251793.120000
    758    770     1   0.15375 251793.120000
    761    764     1   0.15375 251793.120000
    764    773     1   0.15375 251793.120000
    767    779     1   0.15375 251793.120000
    770    776     1   0.15375 251793.120000
    773    782     1   0.14316 258236.480000
    776   1594     1   0.14316 258236.480000
    779   1623     1   0.14316 258236.480000
    783    784     1   0.14647 272713.120000
    783    787     1   0.14647 272713.120000
    783    790     1   0.14647 272713.120000
    784    796     1   0.15375 251793.120000
    787    799     1   0.15375 251793.120000
    790    793     1   0.15375 251793.120000
    793    802     1   0.15375 251793.120000
    796    808     1   0.15375 251793.120000
    799    805     1   0.15375 251793.120000
    802    811     1   0.14316 258236.480000
    805   1652     1   0.14316 258236.480000
    808   1681     1   0.14316 258236.480000
    812    813     1   0.14647 272713.120000
    812    816     1   0.14647 272713.120000
    812    819     1   0.14647 272713.120000
    813    825     1   0.15375 251793.120000
    816    828     1   0.15375 251793.120000
    819    822     1   0.15375 251793.120000
    822    831     1   0.15375 251793.120000
    825    837     1   0.15375 251793.120000
    828    834     1   0.15375 251793.120000
    831    840     1   0.14316 258236.480000
    834   1710     1   0.14316 258236.480000
    837   1739     1   0.14316 258236.480000
    841    842     1   0.14647 272713.120000
    841    845     1   0.14647 272713.120000
    841    848     1   0.14647 272713.120000
    842    854     1   0.15375 251793.120000
    845    857     1   0.15375 251793.120000
    848    851     1   0.15375 251793.120000
    851    860     1   0.15375 251793.120000
    854    866     1   0.15375 251793.120000
    857    863     1   0.15375 251793.120000
    860    869     1   0.14316 258236.480000
    863   1768     1   0.14316 258236.480000
    866   1797     1   0.14316 258236.480000
    870    871     1   0.14647 272713.120000
    870    874     1   0.14647 272713.120000
    870    877     1   0.14647 272713.120000
    871    883     1   0.15375 251793.120000
    874    886     1   0.15375 251793.120000
    877    880     1   0.15375 251793.120000
    880    889     1   0.15375 251793.120000
    883    895     1   0.15375 251793.120000
    886    892     1   0.15375 251793.120000
    889    898     1   0.14316 258236.480000
    892   1826     1   0.14316 258236.480000
    895   1855     1   0.14316 258236.480000
    899    900     1   0.14647 272713.120000
    899    903     1   0.14647 272713.120000
    899    906     1   0.14647 272713.120000
    900    912     1   0.15375 251793.120000
    903    915     1   0.15375 251793.120000
    906    909     1   0.15375 251793.120000
    909    918     1   0.15375 251793.120000
    912    924     1   0.15375 251793.120000
    915    921     1   0.15375 251793.120000
    918    927     1   0.14316 258236.480000
    921   1884     1   0.14316 258236.480000
    924   1913     1   0.14316 258236.480000
    928    929     1   0.14647 272713.120000
    928    932     1   0.14647 272713.120000
    928    935     1   0.14647 272713.120000
    929    941     1   0.15375 251793.120000
    932    944     1   0.15375 251793.120000
    935    938     1   0.15375 251793.120000
    938    947     1   0.15375 251793.120000
    941    953     1   0.15375 251793.120000
    944    950     1   0.15375 251793.120000
    947    956     1   0.14316 258236.480000
    950   1942     1   0.14316 258236.480000
    953   1971     1   0.14316 258236.480000
    957    958     1   0.14647 272713.120000
    957    961     1   0.14647 272713.120000
    957    964     1   0.14647 272713.120000
    958    970     1   0.15375 251793.120000
    961    973     1   0.15375 251793.120000
    964    967     1   0.15375 251793.120000
    967    976     1   0.15375 251793.120000
    970    982     1   0.15375 251793.120000
    973    979     1   0.15375 251793.120000
    976    985     1   0.14316 258236.480000
    979   2000     1   0.14316 258236.480000
    982   2029     1   0.14316 258236.480000
    986    987     1   0.14647 272713.120000
    986    990     1   0.14647 272713.120000
    986    993     1   0.14647 272713.120000
    987    999     1   0.15375 251793.120000
    990   1002     1   0.15375 251793.120000
    993    996     1   0.15375 251793.120000
    996   1005     1   0.15375 251793.120000
    999   1011     1   0.15375 251793.120000
   1002   1008     1   0.15375 251793.120000
   1005   1014     1   0.14316 258236.480000
   1008   2058     1   0.14316 258236.480000
   1011   2087     1   0.14316 258236.480000
   1015   1016     1   0.14647 272713.120000
   1015   1019     1   0.14647 272713.120000
   1015   1022     1   0.14647 272713.120000
   1016   1028     1   0.15375 251793.120000
   1019   1031     1   0.15375 251793.120000
   1022   1025     1   0.15375 251793.120000
   1025   1034     1   0.15375 251793.120000
   1028   1040     1   0.15375 251793.120000
   1031   1037     1   0.15375 251793.120000
   1034   1043     1   0.14316 258236.480000
   1037   2116     1   0.14316 258236.480000
   1040   2145     1   0.14316 258236.480000
   1044   1045     1   0.14647 272713.120000
   1044   1048     1   0.14647 272713.120000
   1044   1051     1   0.14647 272713.120000
   1045   1057     1   0.15375 251793.120000
   1048   1060     1   0.15375 251793.120000
   1051   1054     1   0.15375 251793.120000
   1054   1063     1   0.15375 251793.120000
   1057   1069     1   0.15375 251793.120000
   1060   1066     1   0.15375 251793.120000
   1063   1072     1   0.14316 258236.480000
   1066   2174     1   0.14316 258236.480000
   1069   2203     1   0.14316 258236.480000
   1073   1074     1   0.14647 272713.120000
   1073   1077     1   0.14647 272713.120000
   1073   1080     1   0.14647 272713.120000
   1074   1086     1   0.15375 251793.120000
   1077   1089     1   0.15375 251793.120000
   1080   1083     1   0.15375 251793.120000
   1083   1092     1   0.15375 251793.120000
   1086   1098     1   0.15375 251793.120000
   1089   1095     1   0.15375 251793.120000
   1092   1101     1   0.14316 258236.480000
   1095   2232     1   0.14316 258236.480000
   1098   2261     1   0.14316 258236.480000
   1102   1103     1   0.14647 272713.120000
   1102   1106     1   0.14647 272713.120000
   1102   1109     1   0.14647 272713.120000
   1103   1115     1   0.15375 251793.120000
   1106   1118     1   0.15375 251793.120000
   1109   1112     1   0.15375 251793.120000
   1112   1121     1   0.15375 251793.120000
   1115   1127     1   0.15375 251793.120000
   1118   1124     1   0.15375 251793.120000
   1121   1130     1   0.14316 258236.480000
   1124   2290     1   0.14316 258236.480000
   1127   2319     1   0.14316 258236.480000
   1131   1132     1   0.14647 272713.120000
   1131   1135     1   0.14647 272713.120000
   1131   1138     1   0.14647 272713.120000
   1132   1144     1   0.15375 251793.120000
   1135   1147     1   0.15375 251793.120000
   1138   1141     1   0.15375 251793.120000
   1141   1150     1   0.15375 251793.120000
   1144   1156     1   0.15375 251793.120000
   1147   1153     1   0.15375 251793.120000
   1150   1159     1   0.14316 258236.480000
   1153   2348     1   0.14316 258236.480000
   1156   2377     1   0.14316 258236.480000
   1160   1161     1   0.14647 272713.120000
   1160   1164     1   0.14647 272713.120000
   1160   1167     1   0.14647 272713.120000
   1161   1173     1   0.15375 251793.120000
   1164   1176     1   0.15375 251793.120000
   1167   1170     1   0.15375 251793.120000
   1170   1179     1   0.15375 251793.120000
   1173   1185     1   0.15375 251793.120000
   1176   1182     1   0.15375 251793.120000
   1179   1188     1   0.14316 258236.480000
   1182   2406     1   0.14316 258236.480000
   1185   2435     1   0.14316 258236.480000
   1189   1190     1   0.14647 272713.120000
   1189   1193     1   0.14647 272713.120000
   1189   1196     1   0.14647 272713.120000
   1190   1202     1   0.15375 251793.120000
   1193   1205     1   0.15375 251793.120000
   1196   1199     1   0.15375 251793.120000
   1199   1208     1   0.15375 251793.120000
   1202   1214     1   0.15375 251793.120000
   1205   1211     1   0.15375 251793.120000
   1208   1217     1   0.14316 258236.480000
   1211   2464     1   0.14316 258236.480000
   1214   2493     1   0.14316 258236.480000
   1218   1219     1   0.14647 272713.120000
   1218   1222     1   0.14647 272713.120000
   1218   1225     1   0.14647 272713.120000
   1219   1231     1   0.15375 251793.120000
   1222   1234     1   0.15375 251793.120000
   1225   1228     1   0.15375 251793.120000
   1228   1237     1   0.15375 251793.120000
   1231   1243     1   0.15375 251793.120000
   1234   1240     1   0.15375 251793.120000
   1237   1246     1   0.14316 258236.480000
   1240   2522     1   0.14316 258236.480000
   1243   2551     1   0.14316 258236.480000
   1247   1248     1   0.14647 272713.120000
   1247   1251     1   0.14647 272713.120000
   1247   1254     1   0.14647 272713.120000
   1248   1260     1   0.15375 251793.120000
   1251   1263     1   0.15375 251793.120000
   1254   1257     1   0.15375 251793.120000
   1257   1266     1   0.15375 251793.120000
   1260   1272     1   0.15375 251793.120000
   1263   1269     1   0.15375 251793.120000
   1266   1275     1   0.14316 258236.480000
   1269   2580     1   0.14316 258236.480000
   1272   2609     1   0.14316 258236.480000
   1276   1277     1   0.14647 272713.120000
   1276   1280     1   0.14647 272713.120000
   1276   1283     1   0.14647 272713.120000
   1277   1289     1   0.15375 251793.120000
   1280   1292     1   0.15375 251793.120000
   1283   1286     1   0.15375 251793.120000
   1286   1295     1   0.15375 251793.120000
   1289   1301     1   0.15375 251793.120000
   1292   1298     1   0.15375 251793.120000
   1295   1304     1   0.14316 258236.480000
   1298   2638     1   0.14316 258236.480000
   1301   2667     1   0.14316 258236.480000
   1305   1306     1   0.14647 272713.120000
   1305   1309     1   0.14647 272713.120000
   1305   1312     1   0.14647 272713.120000
   1306   1318     1   0.15375 251793.120000
   1309   1321     1   0.15375 251793.120000
   1312   1315     1   0.15375 251793.120000
   1315   1324     1   0.15375 251793.120000
   1318   1330     1   0.15375 251793.120000
   1321   1327     1   0.15375 251793.120000
   1324   1333     1   0.14316 258236.480000
   1327   2696     1   0.14316 258236.480000
   1330   2725     1   0.14316 258236.480000
   1334   1335     1   0.14647 272713.120000
   1334   1338     1   0.14647 272713.120000
   1334   1341     1   0.14647 272713.120000
   1335   1347     1   0.15375 251793.120000
   1338   1350     1   0.15375 251793.120000
   1341   1344     1   0.15375 251793.120000
   1344   1353     1   0.15375 251793.120000
   1347   1359     1   0.15375 251793.120000
   1350   1356     1   0.15375 251793.120000
   1353   1362     1   0.14316 258236.480000
   1356   2754     1   0.14316 258236.480000
   1359   2783     1   0.14316 258236.480000
   1363   1364     1   0.14647 272713.120000
   1363   1367     1   0.14647 272713.120000
   1363   1370     1   0.14647 272713.120000
   1364   1376     1   0.15375 251793.120000
   1367   1379     1   0.15375 251793.120000
   1370   1373     1   0.15375 251793.120000
   1373   1382     1   0.15375 251793.120000
   1376   1388     1   0.15375 251793.120000
   1379   1385     1   0.15375 251793.120000
   1382   1391     1   0.14316 258236.480000
   1385   2812     1   0.14316 258236.480000
   1388   2841     1   0.14316 258236.480000
   1392   1393     1   0.14647 272713.120000
   1392   1396     1   0.14647 272713.120000
   1392   1399     1   0.14647 272713.120000
   1393   1405     1   0.15375 251793.120000
   1396   1408     1   0.15375 251793.120000
   1399   1402     1   0.15375 251793.120000
   1402   1411     1   0.15375 251793.120000
   1405   1417     1   0.15375 251793.120000
   1408   1414     1   0.15375 251793.120000
   1411   1420     1   0.14316 258236.480000
   1414   2870     1   0.14316 258236.480000
   1417   2899     1   0.14316 258236.480000
   1421   1422     1   0.14647 272713.120000
   1421   1425     1   0.14647 272713.120000
   1421   1428     1   0.14647 272713.120000
   1422   1434     1   0.15375 251793.120000
   1425   1437     1   0.15375 251793.120000
   1428   1431     1   0.15375 251793.120000
   1431   1440     1   0.15375 251793.120000
   1434   1446     1   0.15375 251793.120000
   1437   1443     1   0.15375 251793.120000
   1440   1449     1   0.14316 258236.480000
   1443   2928     1   0.14316 258236.480000
   1446   2957     1   0.14316 258236.480000
   1450   1451     1   0.14647 272713.120000
   1450   1454     1   0.14647 272713.120000
   1450   1457     1   0.14647 272713.120000
   1451   1463     1   0.15375 251793.120000
   1454   1466     1   0.15375 251793.120000
   1457   1460     1   0.15375 251793.120000
   1460   1469     1   0.15375 251793.120000
   1463   1475     1   0.15375 251793.120000
   1466   1472     1   0.15375 251793.120000
   1469   1478     1   0.14316 258236.480000
   1472   2986     1   0.14316 258236.480000
   1475   3015     1   0.14316 258236.480000
   1479   1480     1   0.14647 272713.120000
   1479   1483     1   0.14647 272713.120000
   1479   1486     1   0.14647 272713.120000
   1480   1492     1   0.15375 251793.120000
   1483   1495     1   0.15375 251793.120000
   1486   1489     1   0.15375 251793.120000
   1489   1498     1   0.15375 251793.120000
   1492   1504     1   0.15375 251793.120000
   1495   1501     1   0.15375 251793.120000
   1498   1507     1   0.14316 258236.480000
   1501   3044     1   0.14316 258236.480000
   1504   3073     1   0.14316 258236.480000
   1508   1509     1   0.14647 272713.120000
   1508   1512     1   0.14647 272713.120000
   1508   1515     1   0.14647 272713.120000
   1509   1521     1   0.15375 251793.120000
   1512   1524     1   0.15375 251793.120000
   1515   1518     1   0.15375 251793.120000
   1518   1527     1   0.15375 251793.120000
   1521   1533     1   0.15375 251793.120000
   1524   1530     1   0.15375 251793.120000
   1527   1536     1   0.14316 258236.480000
   1530   3102     1   0.14316 258236.480000
   1533   3131     1   0.14316 258236.480000
   1537   1538     1   0.14647 272713.120000
   1537   1541     1   0.14647 272713.120000
   1537   1544     1   0.14647 272713.120000
   1538   1550     1   0.15375 251793.120000
   1541   1553     1   0.15375 251793.120000
   1544   1547     1   0.15375 251793.120000
   1547   1556     1   0.15375 251793.120000
   1550   1562     1   0.15375 251793.120000
   1553   1559     1   0.15375 251793.120000
   1556   1565     1   0.14316 258236.480000
   1559   3160     1   0.14316 258236.480000
   1562   3189     1   0.14316 258236.480000
   1566   1567     1   0.14647 272713.120000
   1566   1570     1   0.14647 272713.120000
   1566   1573     1   0.14647 272713.120000
   1567   1579     1   0.15375 251793.120000
   1570   1582     1   0.15375 251793.120000
   1573   1576     1   0.15375 251793.120000
   1576   1585     1   0.15375 251793.120000
   1579   1591     1   0.15375 251793.120000
   1582   1588     1   0.15375 251793.120000
   1585   1594     1   0.14316 258236.480000
   1588   3218     1   0.14316 258236.480000
   1591   3247     1   0.14316 258236.480000
   1595   1596     1   0.14647 272713.120000
   1595   1599     1   0.14647 272713.120000
   1595   1602     1   0.14647 272713.120000
   1596   1608     1   0.15375 251793.120000
   1599   1611     1   0.15375 251793.120000
   1602   1605     1   0.15375 251793.120000
   1605   1614     1   0.15375 251793.120000
   1608   1620     1   0.15375 251793.120000
   1611   1617     1   0.15375 251793.120000
   1614   1623     1   0.14316 258236.480000
   1617   3276     1   0.14316 258236.480000
   1620   3305     1   0.14316 258236.480000
   1624   1625     1   0.14647 272713.120000
   1624   1628     1   0.14647 272713.120000
   1624   1631     1   0.14647 272713.120000
   1625   1637     1   0.15375 251793.120000
   1628   1640     1   0.15375 251793.120000
   1631   1634     1   0.15375 251793.120000
   1634   1643     1   0.15375 251793.120000
   1637   1649     1   0.15375 251793.120000
   1640   1646     1   0.15375 251793.120000
   1643   1652     1   0.14316 258236.480000
   1646   3334     1   0.14316 258236.480000
   1649   3363     1   0.14316 258236.480000
   1653   1654     1   0.14647 272713.120000
   1653   1657     1   0.14647 272713.120000
   1653   1660     1   0.14647 272713.120000
   1654   1666     1   0.15375 251793.120000
   1657   1669     1   0.15375 251793.120000
   1660   1663     1   0.15375 251793.120000
   1663   1672     1   0.15375 251793.120000
   1666   1678     1   0.15375 251793.120000
   1669   1675     1   0.15375 251793.120000
   1672   1681     1   0.14316 258236.480000
   1675   3392     1   0.14316 258236.480000
   1678   3421     1   0.14316 258236.480000
   1682   1683     1   0.14647 272713.120000
   1682   1686     1   0.14647 272713.120000
   1682   1689     1   0.14647 272713.120000
   1683   1695     1   0.15375 251793.120000
   1686   1698     1   0.15375 251793.120000
   1689   1692     1   0.15375 251793.120000
   1692   1701     1   0.15375 251793.120000
   1695   1707     1   0.15375 251793.120000
   1698   1704     1   0.15375 251793.120000
   1701   1710     1   0.14316 258236.480000
   1704   3450     1   0.14316 258236.480000
   1707   3479     1   0.14316 258236.480000
   1711   1712     1   0.14647 272713.120000
   1711   1715     1   0.14647 272713.120000
   1711   1718     1   0.14647 272713.120000
   1712   1724     1   0.15375 251793.120000
   1715   1727     1   0.15375 251793.120000
   1718   1721     1   0.15375 251793.120000
   1721   1730     1   0.15375 251793.120000
   1724   1736     1   0.15375 251793.120000
   1727   1733     1   0.15375 251793.120000
   1730   1739     1   0.14316 258236.480000
   1733   3508     1   0.14316 258236.480000
   1736   3537     1   0.14316 258236.480000
   1740   1741     1   0.14647 272713.120000
   1740   1744     1   0.14647 272713.120000
   1740   1747     1   0.14647 272713.120000
   1741   1753     1   0.15375 251793.120000
   1744   1756     1   0.15375 251793.120000
   1747   1750     1   0.15375 251793.120000
   1750   1759     1   0.15375 251793.120000
   1753   1765     1   0.15375 251793.120000
   1756   1762     1   0.15375 251793.120000
   1759   1768     1   0.14316 258236.480000
   1762   3566     1   0.14316 258236.480000
   1765   3595     1   0.14316 258236.480000
   1769   1770     1   0.14647 272713.120000
   1769   1773     1   0.14647 272713.120000
   1769   1776     1   0.14647 272713.120000
   1770   1782     1   0.15375 251793.120000
   1773   1785     1   0.15375 251793.120000
   1776   1779     1   0.15375 251793.120000
   1779   1788     1   0.15375 251793.120000
   1782   1794     1   0.15375 251793.120000
   1785   1791     1   0.15375 251793.120000
   1788   1797     1   0.14316 258236.480000
   1791   3624     1   0.14316 258236.480000
   1794   3653     1   0.14316 258236.480000
   1798   1799     1   0.14647 272713.120000
   1798   1802     1   0.14647 272713.120000
   1798   1805     1   0.14647 272713.120000
   1799   1811     1   0.15375 251793.120000
   1802   1814     1   0.15375 251793.120000
   1805   1808     1   0.15375 251793.120000
   1808   1817     1   0.15375 251793.120000
   1811   1823     1   0.15375 251793.120000
   1814   1820     1   0.15375 251793.120000
   1817   1826     1   0.14316 258236.480000
   1820   3682     1   0.14316 258236.480000
   1823   3711     1   0.14316 258236.480000
   1827   1828     1   0.14647 272713.120000
   1827   1831     1   0.14647 272713.120000
   1827   1834     1   0.14647 272713.120000
   1828   1840     1   0.15375 251793.120000
   1831   1843     1   0.15375 251793.120000
   1834   1837     1   0.15375 251793.120000
   1837   1846     1   0.15375 251793.120000
   1840   1852     1   0.15375 251793.120000
   1843   1849     1   0.15375 251793.120000
   1846   1855     1   0.14316 258236.480000
   1849   3740     1   0.14316 258236.480000
   1852   3769     1   0.14316 258236.480000
   1856   1857     1   0.14647 272713.120000
   1856   1860     1   0.14647 272713.120000
   1856   1863     1   0.14647 272713.120000
   1857   1869     1   0.15375 251793.120000
   1860   1872     1   0.15375 251793.120000
   1863   1866     1   0.15375 251793.120000
   1866   1875     1   0.15375 251793.120000
   1869   1881     1   0.15375 251793.120000
   1872   1878     1   0.15375 251793.120000
   1875   1884     1   0.14316 258236.480000
   1878   3798     1   0.14316 258236.480000
   1881   3827     1   0.14316 258236.480000
   1885   1886     1   0.14647 272713.120000
   1885   1889     1   0.14647 272713.120000
   1885   1892     1   0.14647 272713.120000
   1886   1898     1   0.15375 251793.120000
   1889   1901     1   0.15375 251793.120000
   1892   1895     1   0.15375 251793.120000
   1895   1904     1   0.15375 251793.120000
   1898   1910     1   0.15375 251793.120000
   1901   1907     1   0.15375 251793.120000
   1904   1913     1   0.14316 258236.480000
   1907   3856     1   0.14316 258236.480000
   1910   3885     1   0.14316 258236.480000
   1914   1915     1   0.14647 272713.120000
   1914   1918     1   0.14647 272713.120000
   1914   1921     1   0.14647 272713.120000
   1915   1927     1   0.15375 251793.120000
   1918   1930     1   0.15375 251793.120000
   1921   1924     1   0.15375 251793.120000
   1924   1933     1   0.15375 251793.120000
   1927   1939     1   0.15375 251793.120000
   1930   1936     1   0.15375 251793.120000
   1933   1942     1   0.14316 258236.480000
   1936   3914     1   0.14316 258236.480000
   1939   3943     1   0.14316 258236.480000
   1943   1944     1   0.14647 272713.120000
   1943   1947     1   0.14647 272713.120000
   1943   1950     1   0.14647 272713.120000
   1944   1956     1   0.15375 251793.120000
   1947   1959     1   0.15375 251793.120000
   1950   1953     1   0.15375 251793.120000
   1953   1962     1   0.15375 251793.120000
   1956   1968     1   0.15375 251793.120000
   1959   1965     1   0.15375 251793.120000
   1962   1971     1   0.14316 258236.480000
   1965   3972     1   0.14316 258236.480000
   1968   4001     1   0.14316 258236.480000
   1972   1973     1   0.14647 272713.120000
   1972   1976     1   0.14647 272713.120000
   1972   1979     1   0.14647 272713.120000
   1973   1985     1   0.15375 251793.120000
   1976   1988     1   0.15375 251793.120000
   1979   1982     1   0.15375 251793.120000
   1982   1991     1   0.15375 251793.120000
   1985   1997     1   0.15375 251793.120000
   1988   1994     1   0.15375 251793.120000
   1991   2000     1   0.14316 258236.480000
   1994   4030     1   0.14316 258236.480000
   1997   4059     1   0.14316 258236.480000
   2001   2002     1   0.14647 272713.120000
   2001   2005     1   0.14647 272713.120000
   2001   2008     1   0.14647 272713.120000
   2002   2014     1   0.15375 251793.120000
   2005   2017     1   0.15375 251793.120000
   2008   2011     1   0.15375 251793.120000
   2011   2020     1   0.15375 251793.120000
   2014   2026     1   0.15375 251793.120000
   2017   2023     1   0.15375 251793.120000
   2020   2029     1   0.14316 258236.480000
   2023   4088     1   0.14316 258236.480000
   2026   4117     1   0.14316 258236.480000
   2030   2031     1   0.14647 272713.120000
   2030   2034     1   0.14647 272713.120000
   2030   2037     1   0.14647 272713.120000
   2031   2043     1   0.15375 251793.120000
   2034   2046     1   0.15375 251793.120000
   2037   2040     1   0.15375 251793.120000
   2040   2049     1   0.15375 251793.120000
   2043   2055     1   0.15375 251793.120000
   2046   2052     1   0.15375 251793.120000
   2049   2058     1   0.14316 258236.480000
   2052   4146     1   0.14316 258236.480000
   2055   4175     1   0.14316 258236.480000
   2059   2060     1   0.14647 272713.120000
   2059   2063     1   0.14647 272713.120000
   2059   2066     1   0.14647 272713.120000
   2060   2072     1   0.15375 251793.120000
   2063   2075     1   0.15375 251793.120000
   2066   2069     1   0.15375 251793.120000
   2069   2078     1   0.15375 251793.120000
   2072   2084     1   0.15375 251793.120000
   2075   2081     1   0.15375 251793.120000
   2078   2087     1   0.14316 258236.480000
   2081   4204     1   0.14316 258236.480000
   2084   4233     1   0.14316 258236.480000
   2088   2089     1   0.14647 272713.120000
   2088   2092     1   0.14647 272713.120000
   2088   2095     1   0.14647 272713.120000
   2089   2101     1   0.15375 251793.120000
   2092   2104     1   0.15375 251793.120000
   2095   2098     1   0.15375 251793.120000
   2098   2107     1   0.15375 251793.120000
   2101   2113     1   0.15375 251793.120000
   2104   2110     1   0.15375 251793.120000
   2107   2116     1   0.14316 258236.480000
   2110   4262     1   0.14316 258236.480000
   2113   4291     1   0.14316 258236.480000
   2117   2118     1   0.14647 272713.120000
   2117   2121     1   0.14647 272713.120000
   2117   2124     1   0.14647 272713.120000
   2118   2130     1   0.15375 251793.120000
   2121   2133     1   0.15375 251793.120000
   2124   2127     1   0.15375 251793.120000
   2127   2136     1   0.15375 251793.120000
   2130   2142     1   0.15375 251793.120000
   2133   2139     1   0.15375 251793.120000
   2136   2145     1   0.14316 258236.480000
   2139   4320     1   0.14316 258236.480000
   2142   4349     1   0.14316 258236.480000
   2146   2147     1   0.14647 272713.120000
   2146   2150     1   0.14647 272713.120000
   2146   2153     1   0.14647 272713.120000
   2147   2159     1   0.15375 251793.120000
   2150   2162     1   0.15375 251793.120000
   2153   2156     1   0.15375 251793.120000
   2156   2165     1   0.15375 251793.120000
   2159   2171     1   0.15375 251793.120000
   2162   2168     1   0.15375 251793.120000
   2165   2174     1   0.14316 258236.480000
   2168   4378     1   0.14316 258236.480000
   2171   4407     1   0.14316 258236.480000
   2175   2176     1   0.14647 272713.120000
   2175   2179     1   0.14647 272713.120000
   2175   2182     1   0.14647 272713.120000
   2176   2188     1   0.15375 251793.120000
   2179   2191     1   0.15375 251793.120000
   2182   2185     1   0.15375 251793.120000
   2185   2194     1   0.15375 251793.120000
   2188   2200     1   0.15375 251793.120000
   2191   2197     1   0.15375 251793.120000
   2194   2203     1   0.14316 258236.480000
   2197   4436     1   0.14316 258236.480000
   2200   4465     1   0.14316 258236.480000
   2204   2205     1   0.14647 272713.120000
   2204   2208     1   0.14647 272713.120000
   2204   2211     1   0.14647 272713.120000
   2205   2217     1   0.15375 251793.120000
   2208   2220     1   0.15375 251793.120000
   2211   2214     1   0.15375 251793.120000
   2214   2223     1   0.15375 251793.120000
   2217   2229     1   0.15375 251793.120000
   2220   2226     1   0.15375 251793.120000
   2223   2232     1   0.14316 258236.480000
   2226   4494     1   0.14316 258236.480000
   2229   4523     1   0.14316 258236.480000
   2233   2234     1   0.14647 272713.120000
   2233   2237     1   0.14647 272713.120000
   2233   2240     1   0.14647 272713.120000
   2234   2246     1   0.15375 251793.120000
   2237   2249     1   0.15375 251793.120000
   2240   2243     1   0.15375 251793.120000
   2243   2252     1   0.15375 251793.120000
   2246   2258     1   0.15375 251793.120000
   2249   2255     1   0.15375 251793.120000
   2252   2261     1   0.14316 258236.480000
   2255   4552     1   0.14316 258236.480000
   2258   4581     1   0.14316 258236.480000
   2262   2263     1   0.14647 272713.120000
   2262   2266     1   0.14647 272713.120000
   2262   2269     1   0.14647 272713.120000
   2263   2275     1   0.15375 251793.120000
   2266   2278     1   0.15375 251793.120000
   2269   2272     1   0.15375 251793.120000
   2272   2281     1   0.15375 251793.120000
   2275   2287     1   0.15375 251793.120000
   2278   2284     1   0.15375 251793.120000
   2281   2290     1   0.14316 258236.480000
   2284   4610     1   0.14316 258236.480000
   2287   4639     1   0.14316 258236.480000
   2291   2292     1   0.14647 272713.120000
   2291   2295     1   0.14647 272713.120000
   2291   2298     1   0.14647 272713.120000
   2292   2304     1   0.15375 251793.120000
   2295   2307     1   0.15375 251793.120000
   2298   2301     1   0.15375 251793.120000
   2301   2310     1   0.15375 251793.120000
   2304   2316     1   0.15375 251793.120000
   2307   2313     1   0.15375 251793.120000
   2310   2319     1   0.14316 258236.480000
   2313   4668     1   0.14316 258236.480000
   2316   4697     1   0.14316 258236.480000
   2320   2321     1   0.14647 272713.120000
   2320   2324     1   0.14647 272713.120000
   2320   2327     1   0.14647 272713.120000
   2321   2333     1   0.15375 251793.120000
   2324   2336     1   0.15375 251793.120000
   2327   2330     1   0.15375 251793.120000
   2330   2339     1   0.15375 251793.120000
   2333   2345     1   0.15375 251793.120000
   2336   2342     1   0.15375 251793.120000
   2339   2348     1   0.14316 258236.480000
   2342   4726     1   0.14316 258236.480000
   2345   4755     1   0.14316 258236.480000
   2349   2350     1   0.14647 272713.120000
   2349   2353     1   0.14647 272713.120000
   2349   2356     1   0.14647 272713.120000
   2350   2362     1   0.15375 251793.120000
   2353   2365     1   0.15375 251793.120000
   2356   2359     1   0.15375 251793.120000
   2359   2368     1   0.15375 251793.120000
   2362   2374     1   0.15375 251793.120000
   2365   2371     1   0.15375 251793.120000
   2368   2377     1   0.14316 258236.480000
   2371   4784     1   0.14316 258236.480000
   2374   4813     1   0.14316 258236.480000
   2378   2379     1   0.14647 272713.120000
   2378   2382     1   0.14647 272713.120000
   2378   2385     1   0.14647 272713.120000
   2379   2391     1   0.15375 251793.120000
   2382   2394     1   0.15375 251793.120000
   2385   2388     1   0.15375 251793.120000
   2388   2397     1   0.15375 251793.120000
   2391   2403     1   0.15375 251793.120000
   2394   2400     1   0.15375 251793.120000
   2397   2406     1   0.14316 258236.480000
   2400   4842     1   0.14316 258236.480000
   2403   4871     1   0.14316 258236.480000
   2407   2408     1   0.14647 272713.120000
   2407   2411     1   0.14647 272713.120000
   2407   2414     1   0.14647 272713.120000
   2408   2420     1   0.15375 251793.120000
   2411   2423     1   0.15375 251793.120000
   2414   2417     1   0.15375 251793.120000
   2417   2426     1   0.15375 251793.120000
   2420   2432     1   0.15375 251793.120000
   2423   2429     1   0.15375 251793.120000
   2426   2435     1   0.14316 258236.480000
   2429   4900     1   0.14316 258236.480000
   2432   4929     1   0.14316 258236.480000
   2436   2437     1   0.14647 272713.120000
   2436   2440     1   0.14647 272713.120000
   2436   2443     1   0.14647 272713.120000
   2437   2449     1   0.15375 251793.120000
   2440   2452     1   0.15375 251793.120000
   2443   2446     1   0.15375 251793.120000
   2446   2455     1   0.15375 251793.120000
   2449   2461     1   0.15375 251793.120000
   2452   2458     1   0.15375 251793.120000
   2455   2464     1   0.14316 258236.480000
   2458   4958     1   0.14316 258236.480000
   2461   4987     1   0.14316 258236.480000
   2465   2466     1   0.14647 272713.120000
   2465   2469     1   0.14647 272713.120000
   2465   2472     1   0.14647 272713.120000
   2466   2478     1   0.15375 251793.120000
   2469   2481     1   0.15375 251793.120000
   2472   2475     1   0.15375 251793.120000
   2475   2484     1   0.15375 251793.120000
   2478   2490     1   0.15375 251793.120000
   2481   2487     1   0.15375 251793.120000
   2484   2493     1   0.14316 258236.480000
   2487   5016     1   0.14316 258236.480000
   2490   5045     1   0.14316 258236.480000
   2494   2495     1   0.14647 272713.120000
   2494   2498     1   0.14647 272713.120000
   2494   2501     1   0.14647 272713.120000
   2495   2507     1   0.15375 251793.120000
   2498   2510     1   0.15375 251793.120000
   2501   2504     1   0.15375 251793.120000
   2504   2513     1   0.15375 251793.120000
   2507   2519     1   0.15375 251793.120000
   2510   2516     1   0.15375 251793.120000
   2513   2522     1   0.14316 258236.480000
   2516   5074     1   0.14316 258236.480000
   2519   5103     1   0.14316 258236.480000
   2523   2524     1   0.14647 272713.120000
   2523   2527     1   0.14647 272713.120000
   2523   2530     1   0.14647 272713.120000
   2524   2536     1   0.15375 251793.120000
   2527   2539     1   0.15375 251793.120000
   2530   2533     1   0.15375 251793.120000
   2533   2542     1   0.15375 251793.120000
   2536   2548     1   0.15375 251793.120000
   2539   2545     1   0.15375 251793.120000
   2542   2551     1   0.14316 258236.480000
   2545   5132     1   0.14316 258236.480000
   2548   5161     1   0.14316 258236.480000
   2552   2553     1   0.14647 272713.120000
   2552   2556     1   0.14647 272713.120000
   2552   2559     1   0.14647 272713.120000
   2553   2565     1   0.15375 251793.120000
   2556   2568     1   0.15375 251793.120000
   2559   2562     1   0.15375 251793.120000
   2562   2571     1   0.15375 251793.120000
   2565   2577     1   0.15375 251793.120000
   2568   2574     1   0.15375 251793.120000
   2571   2580     1   0.14316 258236.480000
   2574   5190     1   0.14316 258236.480000
   2577   5219     1   0.14316 258236.480000
   2581   2582     1   0.14647 272713.120000
   2581   2585     1   0.14647 272713.120000
   2581   2588     1   0.14647 272713.120000
   2582   2594     1   0.15375 251793.120000
   2585   2597     1   0.15375 251793.120000
   2588   2591     1   0.15375 251793.120000
   2591   2600     1   0.15375 251793.120000
   2594   2606     1   0.15375 251793.120000
   2597   2603     1   0.15375 251793.120000
   2600   2609     1   0.14316 258236.480000
   2603   5248     1   0.14316 258236.480000
   2606   5277     1   0.14316 258236.480000
   2610   2611     1   0.14647 272713.120000
   2610   2614     1   0.14647 272713.120000
   2610   2617     1   0.14647 272713.120000
   2611   2623     1   0.15375 251793.120000
   2614   2626     1   0.15375 251793.120000
   2617   2620     1   0.15375 251793.120000
   2620   2629     1   0.15375 251793.120000
   2623   2635     1   0.15375 251793.120000
   2626   2632     1   0.15375 251793.120000
   2629   2638     1   0.14316 258236.480000
   2632   5306     1   0.14316 258236.480000
   2635   5335     1   0.14316 258236.480000
   2639   2640     1   0.14647 272713.120000
   2639   2643     1   0.14647 272713.120000
   2639   2646     1   0.14647 272713.120000
   2640   2652     1   0.15375 251793.120000
   2643   2655     1   0.15375 251793.120000
   2646   2649     1   0.15375 251793.120000
   2649   2658     1   0.15375 251793.120000
   2652   2664     1   0.15375 251793.120000
   2655   2661     1   0.15375 251793.120000
   2658   2667     1   0.14316 258236.480000
   2661   5364     1   0.14316 258236.480000
   2664   5393     1   0.14316 258236.480000
   2668   2669     1   0.14647 272713.120000
   2668   2672     1   0.14647 272713.120000
   2668   2675     1   0.14647 272713.120000
   2669   2681     1   0.15375 251793.120000
   2672   2684     1   0.15375 251793.120000
   2675   2678     1   0.15375 251793.120000
   2678   2687     1   0.15375 251793.120000
   2681   2693     1   0.15375 251793.120000
   2684   2690     1   0.15375 251793.120000
   2687   2696     1   0.14316 258236.480000
   2690   5422     1   0.14316 258236.480000
   2693   5451     1   0.14316 258236.480000
   2697   2698     1   0.14647 272713.120000
   2697   2701     1   0.14647 272713.120000
   2697   2704     1   0.14647 272713.120000
   2698   2710     1   0.15375 251793.120000
   2701   2713     1   0.15375 251793.120000
   2704   2707     1   0.15375 251793.120000
   2707   2716     1   0.15375 251793.120000
   2710   2722     1   0.15375 251793.120000
   2713   2719     1   0.15375 251793.120000
   2716   2725     1   0.14316 258236.480000
   2719   5480     1   0.14316 258236.480000
   2722   5509     1   0.14316 258236.480000
   2726   2727     1   0.14647 272713.120000
   2726   2730     1   0.14647 272713.120000
   2726   2733     1   0.14647 272713.120000
   2727   2739     1   0.15375 251793.120000
   2730   2742     1   0.15375 251793.120000
   2733   2736     1   0.15375 251793.120000
   2736   2745     1   0.15375 251793.120000
   2739   2751     1   0.15375 251793.120000
   2742   2748     1   0.15375 251793.120000
   2745   2754     1   0.14316 258236.480000
   2748   5538     1   0.14316 258236.480000
   2751   5567     1   0.14316 258236.480000
   2755   2756     1   0.14647 272713.120000
   2755   2759     1   0.14647 272713.120000
   2755   2762     1   0.14647 272713.120000
   2756   2768     1   0.15375 251793.120000
   2759   2771     1   0.15375 251793.120000
   2762   2765     1   0.15375 251793.120000
   2765   2774     1   0.15375 251793.120000
   2768   2780     1   0.15375 251793.120000
   2771   2777     1   0.15375 251793.120000
   2774   2783     1   0.14316 258236.480000
   2777   5596     1   0.14316 258236.480000
   2780   5625     1   0.14316 258236.480000
   2784   2785     1   0.14647 272713.120000
   2784   2788     1   0.14647 272713.120000
   2784   2791     1   0.14647 272713.120000
   2785   2797     1   0.15375 251793.120000
   2788   2800     1   0.15375 251793.120000
   2791   2794     1   0.15375 251793.120000
   2794   2803     1   0.15375 251793.120000
   2797   2809     1   0.15375 251793.120000
   2800   2806     1   0.15375 251793.120000
   2803   2812     1   0.14316 258236.480000
   2806   5654     1   0.14316 258236.480000
   2809   5683     1   0.14316 258236.480000
   2813   2814     1   0.14647 272713.120000
   2813   2817     1   0.14647 272713.120000
   2813   2820     1   0.14647 272713.120000
   2814   2826     1   0.15375 251793.120000
   2817   2829     1   0.15375 251793.120000
   2820   2823     1   0.15375 251793.120000
   2823   2832     1   0.15375 251793.120000
   2826   2838     1   0.15375 251793.120000
   2829   2835     1   0.15375 251793.120000
   2832   2841     1   0.14316 258236.480000
   2835   5712     1   0.14316 258236.480000
   2838   5741     1   0.14316 258236.480000
   2842   2843     1   0.14647 272713.120000
   2842   2846     1   0.14647 272713.120000
   2842   2849     1   0.14647 272713.120000
   2843   2855     1   0.15375 251793.120000
   2846   2858     1   0.15375 251793.120000
   2849   2852     1   0.15375 251793.120000
   2852   2861     1   0.15375 251793.120000
   2855   2867     1   0.15375 251793.120000
   2858   2864     1   0.15375 251793.120000
   2861   2870     1   0.14316 258236.480000
   2864   5770     1   0.14316 258236.480000
   2867   5799     1   0.14316 258236.480000
   2871   2872     1   0.14647 272713.120000
   2871   2875     1   0.14647 272713.120000
   2871   2878     1   0.14647 272713.120000
   2872   2884     1   0.15375 251793.120000
   2875   2887     1   0.15375 251793.120000
   2878   2881     1   0.15375 251793.120000
   2881   2890     1   0.15375 251793.120000
   2884   2896     1   0.15375 251793.120000
   2887   2893     1   0.15375 251793.120000
   2890   2899     1   0.14316 258236.480000
   2893   5828     1   0.14316 258236.480000
   2896   5857     1   0.14316 258236.480000
   2900   2901     1   0.14647 272713.120000
   2900   2904     1   0.14647 272713.120000
   2900   2907     1   0.14647 272713.120000
   2901   2913     1   0.15375 251793.120000
   2904   2916     1   0.15375 251793.120000
   2907   2910     1   0.15375 251793.120000
   2910   2919     1   0.15375 251793.120000
   2913   2925     1   0.15375 251793.120000
   2916   2922     1   0.15375 251793.120000
   2919   2928     1   0.14316 258236.480000
   2922   5886     1   0.14316 258236.480000
   2925   5915     1   0.14316 258236.480000
   2929   2930     1   0.14647 272713.120000
   2929   2933     1   0.14647 272713.120000
   2929   2936     1   0.14647 272713.120000
   2930   2942     1   0.15375 251793.120000
   2933   2945     1   0.15375 251793.120000
   2936   2939     1   0.15375 251793.120000
   2939   2948     1   0.15375 251793.120000
   2942   2954     1   0.15375 251793.120000
   2945   2951     1   0.15375 251793.120000
   2948   2957     1   0.14316 258236.480000
   2951   5944     1   0.14316 258236.480000
   2954   5973     1   0.14316 258236.480000
   2958   2959     1   0.14647 272713.120000
   2958   2962     1   0.14647 272713.120000
   2958   2965     1   0.14647 272713.120000
   2959   2971     1   0.15375 251793.120000
   2962   2974     1   0.15375 251793.120000
   2965   2968     1   0.15375 251793.120000
   2968   2977     1   0.15375 251793.120000
   2971   2983     1   0.15375 251793.120000
   2974   2980     1   0.15375 251793.120000
   2977   2986     1   0.14316 258236.480000
   2980   6002     1   0.14316 258236.480000
   2983   6031     1   0.14316 258236.480000
   2987   2988     1   0.14647 272713.120000
   2987   2991     1   0.14647 272713.120000
   2987   2994     1   0.14647 272713.120000
   2988   3000     1   0.15375 251793.120000
   2991   3003     1   0.15375 251793.120000
   2994   2997     1   0.15375 251793.120000
   2997   3006     1   0.15375 251793.120000
   3000   3012     1   0.15375 251793.120000
   3003   3009     1   0.15375 251793.120000
   3006   3015     1   0.14316 258236.480000
   3009   6060     1   0.14316 258236.480000
   3012   6089     1   0.14316 258236.480000
   3016   3017     1   0.14647 272713.120000
   3016   3020     1   0.14647 272713.120000
   3016   3023     1   0.14647 272713.120000
   3017   3029     1   0.15375 251793.120000
   3020   3032     1   0.15375 251793.120000
   3023   3026     1   0.15375 251793.120000
   3026   3035     1   0.15375 251793.120000
   3029   3041     1   0.15375 251793.120000
   3032   3038     1   0.15375 251793.120000
   3035   3044     1   0.14316 258236.480000
   3038   6118     1   0.14316 258236.480000
   3041   6147     1   0.14316 258236.480000
   3045   3046     1   0.14647 272713.120000
   3045   3049     1   0.14647 272713.120000
   3045   3052     1   0.14647 272713.120000
   3046   3058     1   0.15375 251793.120000
   3049   3061     1   0.15375 251793.120000
   3052   3055     1   0.15375 251793.120000
   3055   3064     1   0.15375 251793.120000
   3058   3070     1   0.15375 251793.120000
   3061   3067     1   0.15375 251793.120000
   3064   3073     1   0.14316 258236.480000
   3067   6176     1   0.14316 258236.480000
   3070   6205     1   0.14316 258236.480000
   3074   3075     1   0.14647 272713.120000
   3074   3078     1   0.14647 272713.120000
   3074   3081     1   0.14647 272713.120000
   3075   3087     1   0.15375 251793.120000
   3078   3090     1   0.15375 251793.120000
   3081   3084     1   0.15375 251793.120000
   3084   3093     1   0.15375 251793.120000
   3087   3099     1   0.15375 251793.120000
   3090   3096     1   0.15375 251793.120000
   3093   3102     1   0.14316 258236.480000
   3096   6234     1   0.14316 258236.480000
   3099   6263     1   0.14316 258236.480000
   3103   3104     1   0.14647 272713.120000
   3103   3107     1   0.14647 272713.120000
   3103   3110     1   0.14647 272713.120000
   3104   3116     1   0.15375 251793.120000
   3107   3119     1   0.15375 251793.120000
   3110   3113     1   0.15375 251793.120000
   3113   3122     1   0.15375 251793.120000
   3116   3128     1   0.15375 251793.120000
   3119   3125     1   0.15375 251793.120000
   3122   3131     1   0.14316 258236.480000
   3125   6292     1   0.14316 258236.480000
   3128   6321     1   0.14316 258236.480000
   3132   3133     1   0.14647 272713.120000
   3132   3136     1   0.14647 272713.120000
   3132   3139     1   0.14647 272713.120000
   3133   3145     1   0.15375 251793.120000
   3136   3148     1   0.15375 251793.120000
   3139   3142     1   0.15375 251793.120000
   3142   3151     1   0.15375 251793.120000
   3145   3157     1   0.15375 251793.120000
   3148   3154     1   0.15375 251793.120000
   3151   3160     1   0.14316 258236.480000
   3154   6350     1   0.14316 258236.480000
   3157   6379     1   0.14316 258236.480000
   3161   3162     1   0.14647 272713.120000
   3161   3165     1   0.14647 272713.120000
   3161   3168     1   0.14647 272713.120000
   3162   3174     1   0.15375 251793.120000
   3165   3177     1   0.15375 251793.120000
   3168   3171     1   0.15375 251793.120000
   3171   3180     1   0.15375 251793.120000
   3174   3186     1   0.15375 251793.120000
   3177   3183     1   0.15375 251793.120000
   3180   3189     1   0.14316 258236.480000
   3183   6408     1   0.14316 258236.480000
   3186   6437     1   0.14316 258236.480000
   3190   3191     1   0.14647 272713.120000
   3190   3194     1   0.14647 272713.120000
   3190   3197     1   0.14647 272713.120000
   3191   3203     1   0.15375 251793.120000
   3194   3206     1   0.15375 251793.120000
   3197   3200     1   0.15375 251793.120000
   3200   3209     1   0.15375 251793.120000
   3203   3215     1   0.15375 251793.120000
   3206   3212     1   0.15375 251793.120000
   3209   3218     1   0.14316 258236.480000
   3212   6466     1   0.14316 258236.480000
   3215   6495     1   0.14316 258236.480000
   3219   3220     1   0.14647 272713.120000
   3219   3223     1   0.14647 272713.120000
   3219   3226     1   0.14647 272713.120000
   3220   3232     1   0.15375 251793.120000
   3223   3235     1   0.15375 251793.120000
   3226   3229     1   0.15375 251793.120000
   3229   3238     1   0.15375 251793.120000
   3232   3244     1   0.15375 251793.120000
   3235   3241     1   0.15375 251793.120000
   3238   3247     1   0.14316 258236.480000
   3241   6524     1   0.14316 258236.480000
   3244   6553     1   0.14316 258236.480000
   3248   3249     1   0.14647 272713.120000
   3248   3252     1   0.14647 272713.120000
   3248   3255     1   0.14647 272713.120000
   3249   3261     1   0.15375 251793.120000
   3252   3264     1   0.15375 251793.120000
   3255   3258     1   0.15375 251793.120000
   3258   3267     1   0.15375 251793.120000
   3261   3273     1   0.15375 251793.120000
   3264   3270     1   0.15375 251793.120000
   3267   3276     1   0.14316 258236.480000
   3270   6582     1   0.14316 258236.480000
   3273   6611     1   0.14316 258236.480000
   3277   3278     1   0.14647 272713.120000
   3277   3281     1   0.14647 272713.120000
   3277   3284     1   0.14647 272713.120000
   3278   3290     1   0.15375 251793.120000
   3281   3293     1   0.15375 251793.120000
   3284   3287     1   0.15375 251793.120000
   3287   3296     1   0.15375 251793.120000
   3290   3302     1   0.15375 251793.120000
   3293   3299     1   0.15375 251793.120000
   3296   3305     1   0.14316 258236.480000
   3299   6640     1   0.14316 258236.480000
   3302   6669     1   0.14316 258236.480000
   3306   3307     1   0.14647 272713.120000
   3306   3310     1   0.14647 272713.120000
   3306   3313     1   0.14647 272713.120000
   3307   3319     1   0.15375 251793.120000
   3310   3322     1   0.15375 251793.120000
   3313   3316     1   0.15375 251793.120000
   3316   3325     1   0.15375 251793.120000
   3319   3331     1   0.15375 251793.120000
   3322   3328     1   0.15375 251793.120000
   3325   3334     1   0.14316 258236.480000
   3328   6698     1   0.14316 258236.480000
   3331   6727     1   0.14316 258236.480000
   3335   3336     1   0.14647 272713.120000
   3335   3339     1   0.14647 272713.120000
   3335   3342     1   0.14647 272713.120000
   3336   3348     1   0.15375 251793.120000
   3339   3351     1   0.15375 251793.120000
   3342   3345     1   0.15375 251793.120000
   3345   3354     1   0.15375 251793.120000
   3348   3360     1   0.15375 251793.120000
   3351   3357     1   0.15375 251793.120000
   3354   3363     1   0.14316 258236.480000
   3357   6756     1   0.14316 258236.480000
   3360   6785     1   0.14316 258236.480000
   3364   3365     1   0.14647 272713.120000
   3364   3368     1   0.14647 272713.120000
   3364   3371     1   0.14647 272713.120000
   3365   3377     1   0.15375 251793.120000
   3368   3380     1   0.15375 251793.120000
   3371   3374     1   0.15375 251793.120000
   3374   3383     1   0.15375 251793.120000
   3377   3389     1   0.15375 251793.120000
   3380   3386     1   0.15375 251793.120000
   3383   3392     1   0.14316 258236.480000
   3386   6814     1   0.14316 258236.480000
   3389   6843     1   0.14316 258236.480000
   3393   3394     1   0.14647 272713.120000
   3393   3397     1   0.14647 272713.120000
   3393   3400     1   0.14647 272713.120000
   3394   3406     1   0.15375 251793.120000
   3397   3409     1   0.15375 251793.120000
   3400   3403     1   0.15375 251793.120000
   3403   3412     1   0.15375 251793.120000
   3406   3418     1   0.15375 251793.120000
   3409   3415     1   0.15375 251793.120000
   3412   3421     1   0.14316 258236.480000
   3415   6872     1   0.14316 258236.480000
   3418   6901     1   0.14316 258236.480000
   3422   3423     1   0.14647 272713.120000
   3422   3426     1   0.14647 272713.120000
   3422   3429     1   0.14647 272713.120000
   3423   3435     1   0.15375 251793.120000
   3426   3438     1   0.15375 251793.120000
   3429   3432     1   0.15375 251793.120000
   3432   3441     1   0.15375 251793.120000
   3435   3447     1   0.15375 251793.120000
   3438   3444     1   0.15375 251793.120000
   3441   3450     1   0.14316 258236.480000
   3444   6930     1   0.14316 258236.480000
   3447   6959     1   0.14316 258236.480000
   3451   3452     1   0.14647 272713.120000
   3451   3455     1   0.14647 272713.120000
   3451   3458     1   0.14647 272713.120000
   3452   3464     1   0.15375 251793.120000
   3455   3467     1   0.15375 251793.120000
   3458   3461     1   0.15375 251793.120000
   3461   3470     1   0.15375 251793.120000
   3464   3476     1   0.15375 251793.120000
   3467   3473     1   0.15375 251793.120000
   3470   3479     1   0.14316 258236.480000
   3473   6988     1   0.14316 258236.480000
   3476   7017     1   0.14316 258236.480000
   3480   3481     1   0.14647 272713.120000
   3480   3484     1   0.14647 272713.120000
   3480   3487     1   0.14647 272713.120000
   3481   3493     1   0.15375 251793.120000
   3484   3496     1   0.15375 251793.120000
   3487   3490     1   0.15375 251793.120000
   3490   3499     1   0.15375 251793.120000
   3493   3505     1   0.15375 251793.120000
   3496   3502     1   0.15375 251793.120000
   3499   3508     1   0.14316 258236.480000
   3502   7046     1   0.14316 258236.480000
   3505   7075     1   0.14316 258236.480000
   3509   3510     1   0.14647 272713.120000
   3509   3513     1   0.14647 272713.120000
   3509   3516     1   0.14647 272713.120000
   3510   3522     1   0.15375 251793.120000
   3513   3525     1   0.15375 251793.120000
   3516   3519     1   0.15375 251793.120000
   3519   3528     1   0.15375 251793.120000
   3522   3534     1   0.15375 251793.120000
   3525   3531     1   0.15375 251793.120000
   3528   3537     1   0.14316 258236.480000
   3531   7104     1   0.14316 258236.480000
   3534   7133     1   0.14316 258236.480000
   3538   3539     1   0.14647 272713.120000
   3538   3542     1   0.14647 272713.120000
   3538   3545     1   0.14647 272713.120000
   3539   3551     1   0.15375 251793.120000
   3542   3554     1   0.15375 251793.120000
   3545   3548     1   0.15375 251793.120000
   3548   3557     1   0.15375 251793.120000
   3551   3563     1   0.15375 251793.120000
   3554   3560     1   0.15375 251793.120000
   3557   3566     1   0.14316 258236.480000
   3560   7162     1   0.14316 258236.480000
   3563   7191     1   0.14316 258236.480000
   3567   3568     1   0.14647 272713.120000
   3567   3571     1   0.14647 272713.120000
   3567   3574     1   0.14647 272713.120000
   3568   3580     1   0.15375 251793.120000
   3571   3583     1   0.15375 251793.120000
   3574   3577     1   0.15375 251793.120000
   3577   3586     1   0.15375 251793.120000
   3580   3592     1   0.15375 251793.120000
   3583   3589     1   0.15375 251793.120000
   3586   3595     1   0.14316 258236.480000
   3589   7220     1   0.14316 258236.480000
   3592   7249     1   0.14316 258236.480000
   3596   3597     1   0.14647 272713.120000
   3596   3600     1   0.14647 272713.120000
   3596   3603     1   0.14647 272713.120000
   3597   3609     1   0.15375 251793.120000
   3600   3612     1   0.15375 251793.120000
   3603   3606     1   0.15375 251793.120000
   3606   3615     1   0.15375 251793.120000
   3609   3621     1   0.15375 251793.120000
   3612   3618     1   0.15375 251793.120000
   3615   3624     1   0.14316 258236.480000
   3618   7278     1   0.14316 258236.480000
   3621   7307     1   0.14316 258236.480000
   3625   3626     1   0.14647 272713.120000
   3625   3629     1   0.14647 272713.120000
   3625   3632     1   0.14647 272713.120000
   3626   3638     1   0.15375 251793.120000
   3629   3641     1   0.15375 251793.120000
   3632   3635     1   0.15375 251793.120000
   3635   3644     1   0.15375 251793.120000
   3638   3650     1   0.15375 251793.120000
   3641   3647     1   0.15375 251793.120000
   3644   3653     1   0.14316 258236.480000
   3647   7336     1   0.14316 258236.480000
   3650   7365     1   0.14316 258236.480000
   3654   3657     1   0.15375 251793.120000
   3654   3682     1   0.14316 258236.480000
   3657   3660     1   0.15375 251793.120000
   3660   3663     1   0.14647 272713.120000
   3663   3664     1   0.14647 272713.120000
   3663   3673     1   0.14647 272713.120000
   3664   3667     1   0.15375 251793.120000
   3667   3670     1   0.15241 261918.400000
   3670   3671     1   0.12183 533627.360000
   3670   3672     1   0.12183 533627.360000
   3673   3676     1   0.15375 251793.120000
   3676   3679     1   0.15241 261918.400000
   3679   3680     1   0.12183 533627.360000
   3679   3681     1   0.12183 533627.360000
   3683   3686     1   0.15375 251793.120000
   3683   3711     1   0.14316 258236.480000
   3686   3689     1   0.15375 251793.120000
   3689   3692     1   0.14647 272713.120000
   3692   3693     1   0.14647 272713.120000
   3692   3702     1   0.14647 272713.120000
   3693   3696     1   0.15375 251793.120000
   3696   3699     1   0.15241 261918.400000
   3699   3700     1   0.12183 533627.360000
   3699   3701     1   0.12183 533627.360000
   3702   3705     1   0.15375 251793.120000
   3705   3708     1   0.15241 261918.400000
   3708   3709     1   0.12183 533627.360000
   3708   3710     1   0.12183 533627.360000
   3712   3715     1   0.15375 251793.120000
   3712   3740     1   0.14316 258236.480000
   3715   3718     1   0.15375 251793.120000
   3718   3721     1   0.14647 272713.120000
   3721   3722     1   0.14647 272713.120000
   3721   3731     1   0.14647 272713.120000
   3722   3725     1   0.15375 251793.120000
   3725   3728     1   0.15241 261918.400000
   3728   3729     1   0.12183 533627.360000
   3728   3730     1   0.12183 533627.360000
   3731   3734     1   0.15375 251793.120000
   3734   3737     1   0.15241 261918.400000
   3737   3738     1   0.12183 533627.360000
   3737   3739     1   0.12183 533627.360000
   3741   3744     1   0.15375 251793.120000
   3741   3769     1   0.14316 258236.480000
   3744   3747     1   0.15375 251793.120000
   3747   3750     1   0.14647 272713.120000
   3750   3751     1   0.14647 272713.120000
   3750   3760     1   0.14647 272713.120000
   3751   3754     1   0.15375 251793.120000
   3754   3757     1   0.15241 261918.400000
   3757   3758     1   0.12183 533627.360000
   3757   3759     1   0.12183 533627.360000
   3760   3763     1   0.15375 251793.120000
   3763   3766     1   0.15241 261918.400000
   3766   3767     1   0.12183 533627.360000
   3766   3768     1   0.12183 533627.360000
   3770   3773     1   0.15375 251793.120000
   3770   3798     1   0.14316 258236.480000
   3773   3776     1   0.15375 251793.120000
   3776   3779     1   0.14647 272713.120000
   3779   3780     1   0.14647 272713.120000
   3779   3789     1   0.14647 272713.120000
   3780   3783     1   0.15375 251793.120000
   3783   3786     1   0.15241 261918.400000
   3786   3787     1   0.12183 533627.360000
   3786   3788     1   0.12183 533627.360000
   3789   3792     1   0.15375 251793.120000
   3792   3795     1   0.15241 261918.400000
   3795   3796     1   0.12183 533627.360000
   3795   3797     1   0.12183 533627.360000
   3799   3802     1   0.15375 251793.120000
   3799   3827     1   0.14316 258236.480000
   3802   3805     1   0.15375 251793.120000
   3805   3808     1   0.14647 272713.120000
   3808   3809     1   0.14647 272713.120000
   3808   3818     1   0.14647 272713.120000
   3809   3812     1   0.15375 251793.120000
   3812   3815     1   0.15241 261918.400000
   3815   3816     1   0.12183 533627.360000
   3815   3817     1   0.12183 533627.360000
   3818   3821     1   0.15375 251793.120000
   3821   3824     1   0.15241 261918.400000
   3824   3825     1   0.12183 533627.360000
   3824   3826     1   0.12183 533627.360000
   3828   3831     1   0.15375 251793.120000
   3828   3856     1   0.14316 258236.480000
   3831   3834     1   0.15375 251793.120000
   3834   3837     1   0.14647 272713.120000
   3837   3838     1   0.14647 272713.120000
   3837   3847     1   0.14647 272713.120000
   3838   3841     1   0.15375 251793.120000
   3841   3844     1   0.15241 261918.400000
   3844   3845     1   0.12183 533627.360000
   3844   3846     1   0.12183 533627.360000
   3847   3850     1   0.15375 251793.120000
   3850   3853     1   0.15241 261918.400000
   3853   3854     1   0.12183 533627.360000
   3853   3855     1   0.12183 533627.360000
   3857   3860     1   0.15375 251793.120000
   3857   3885     1   0.14316 258236.480000
   3860   3863     1   0.15375 251793.120000
   3863   3866     1   0.14647 272713.120000
   3866   3867     1   0.14647 272713.120000
   3866   3876     1   0.14647 272713.120000
   3867   3870     1   0.15375 251793.120000
   3870   3873     1   0.15241 261918.400000
   3873   3874     1   0.12183 533627.360000
   3873   3875     1   0.12183 533627.360000
   3876   3879     1   0.15375 251793.120000
   3879   3882     1   0.15241 261918.400000
   3882   3883     1   0.12183 533627.360000
   3882   3884     1   0.12183 533627.360000
   3886   3889     1   0.15375 251793.120000
   3886   3914     1   0.14316 258236.480000
   3889   3892     1   0.15375 251793.120000
   3892   3895     1   0.14647 272713.120000
   3895   3896     1   0.14647 272713.120000
   3895   3905     1   0.14647 272713.120000
   3896   3899     1   0.15375 251793.120000
   3899   3902     1   0.15241 261918.400000
   3902   3903     1   0.12183 533627.360000
   3902   3904     1   0.12183 533627.360000
   3905   3908     1   0.15375 251793.120000
   3908   3911     1   0.15241 261918.400000
   3911   3912     1   0.12183 533627.360000
   3911   3913     1   0.12183 533627.360000
   3915   3918     1   0.15375 251793.120000
   3915   3943     1   0.14316 258236.480000
   3918   3921     1   0.15375 251793.120000
   3921   3924     1   0.14647 272713.120000
   3924   3925     1   0.14647 272713.120000
   3924   3934     1   0.14647 272713.120000
   3925   3928     1   0.15375 251793.120000
   3928   3931     1   0.15241 261918.400000
   3931   3932     1   0.12183 533627.360000
   3931   3933     1   0.12183 533627.360000
   3934   3937     1   0.15375 251793.120000
   3937   3940     1   0.15241 261918.400000
   3940   3941     1   0.12183 533627.360000
   3940   3942     1   0.12183 533627.360000
   3944   3947     1   0.15375 251793.120000
   3944   3972     1   0.14316 258236.480000
   3947   3950     1   0.15375 251793.120000
   3950   3953     1   0.14647 272713.120000
   3953   3954     1   0.14647 272713.120000
   3953   3963     1   0.14647 272713.120000
   3954   3957     1   0.15375 251793.120000
   3957   3960     1   0.15241 261918.400000
   3960   3961     1   0.12183 533627.360000
   3960   3962     1   0.12183 533627.360000
   3963   3966     1   0.15375 251793.120000
   3966   3969     1   0.15241 261918.400000
   3969   3970     1   0.12183 533627.360000
   3969   3971     1   0.12183 533627.360000
   3973   3976     1   0.15375 251793.120000
   3973   4001     1   0.14316 258236.480000
   3976   3979     1   0.15375 251793.120000
   3979   3982     1   0.14647 272713.120000
   3982   3983     1   0.14647 272713.120000
   3982   3992     1   0.14647 272713.120000
   3983   3986     1   0.15375 251793.120000
   3986   3989     1   0.15241 261918.400000
   3989   3990     1   0.12183 533627.360000
   3989   3991     1   0.12183 533627.360000
   3992   3995     1   0.15375 251793.120000
   3995   3998     1   0.15241 261918.400000
   3998   3999     1   0.12183 533627.360000
   3998   4000     1   0.12183 533627.360000
   4002   4005     1   0.15375 251793.120000
   4002   4030     1   0.14316 258236.480000
   4005   4008     1   0.15375 251793.120000
   4008   4011     1   0.14647 272713.120000
   4011   4012     1   0.14647 272713.120000
   4011   4021     1   0.14647 272713.120000
   4012   4015     1   0.15375 251793.120000
   4015   4018     1   0.15241 261918.400000
   4018   4019     1   0.12183 533627.360000
   4018   4020     1   0.12183 533627.360000
   4021   4024     1   0.15375 251793.120000
   4024   4027     1   0.15241 261918.400000
   4027   4028     1   0.12183 533627.360000
   4027   4029     1   0.12183 533627.360000
   4031   4034     1   0.15375 251793.120000
   4031   4059     1   0.14316 258236.480000
   4034   4037     1   0.15375 251793.120000
   4037   4040     1   0.14647 272713.120000
   4040   4041     1   0.14647 272713.120000
   4040   4050     1   0.14647 272713.120000
   4041   4044     1   0.15375 251793.120000
   4044   4047     1   0.15241 261918.400000
   4047   4048     1   0.12183 533627.360000
   4047   4049     1   0.12183 533627.360000
   4050   4053     1   0.15375 251793.120000
   4053   4056     1   0.15241 261918.400000
   4056   4057     1   0.12183 533627.360000
   4056   4058     1   0.12183 533627.360000
   4060   4063     1   0.15375 251793.120000
   4060   4088     1   0.14316 258236.480000
   4063   4066     1   0.15375 251793.120000
   4066   4069     1   0.14647 272713.120000
   4069   4070     1   0.14647 272713.120000
   4069   4079     1   0.14647 272713.120000
   4070   4073     1   0.15375 251793.120000
   4073   4076     1   0.15241 261918.400000
   4076   4077     1   0.12183 533627.360000
   4076   4078     1   0.12183 533627.360000
   4079   4082     1   0.15375 251793.120000
   4082   4085     1   0.15241 261918.400000
   4085   4086     1   0.12183 533627.360000
   4085   4087     1   0.12183 533627.360000
   4089   4092     1   0.15375 251793.120000
   4089   4117     1   0.14316 258236.480000
   4092   4095     1   0.15375 251793.120000
   4095   4098     1   0.14647 272713.120000
   4098   4099     1   0.14647 272713.120000
   4098   4108     1   0.14647 272713.120000
   4099   4102     1   0.15375 251793.120000
   4102   4105     1   0.15241 261918.400000
   4105   4106     1   0.12183 533627.360000
   4105   4107     1   0.12183 533627.360000
   4108   4111     1   0.15375 251793.120000
   4111   4114     1   0.15241 261918.400000
   4114   4115     1   0.12183 533627.360000
   4114   4116     1   0.12183 533627.360000
   4118   4121     1   0.15375 251793.120000
   4118   4146     1   0.14316 258236.480000
   4121   4124     1   0.15375 251793.120000
   4124   4127     1   0.14647 272713.120000
   4127   4128     1   0.14647 272713.120000
   4127   4137     1   0.14647 272713.120000
   4128   4131     1   0.15375 251793.120000
   4131   4134     1   0.15241 261918.400000
   4134   4135     1   0.12183 533627.360000
   4134   4136     1   0.12183 533627.360000
   4137   4140     1   0.15375 251793.120000
   4140   4143     1   0.15241 261918.400000
   4143   4144     1   0.12183 533627.360000
   4143   4145     1   0.12183 533627.360000
   4147   4150     1   0.15375 251793.120000
   4147   4175     1   0.14316 258236.480000
   4150   4153     1   0.15375 251793.120000
   4153   4156     1   0.14647 272713.120000
   4156   4157     1   0.14647 272713.120000
   4156   4166     1   0.14647 272713.120000
   4157   4160     1   0.15375 251793.120000
   4160   4163     1   0.15241 261918.400000
   4163   4164     1   0.12183 533627.360000
   4163   4165     1   0.12183 533627.360000
   4166   4169     1   0.15375 251793.120000
   4169   4172     1   0.15241 261918.400000
   4172   4173     1   0.12183 533627.360000
   4172   4174     1   0.12183 533627.360000
   4176   4179     1   0.15375 251793.120000
   4176   4204     1   0.14316 258236.480000
   4179   4182     1   0.15375 251793.120000
   4182   4185     1   0.14647 272713.120000
   4185   4186     1   0.14647 272713.120000
   4185   4195     1   0.14647 272713.120000
   4186   4189     1   0.15375 251793.120000
   4189   4192     1   0.15241 261918.400000
   4192   4193     1   0.12183 533627.360000
   4192   4194     1   0.12183 533627.360000
   4195   4198     1   0.15375 251793.120000
   4198   4201     1   0.15241 261918.400000
   4201   4202     1   0.12183 533627.360000
   4201   4203     1   0.12183 533627.360000
   4205   4208     1   0.15375 251793.120000
   4205   4233     1   0.14316 258236.480000
   4208   4211     1   0.15375 251793.120000
   4211   4214     1   0.14647 272713.120000
   4214   4215     1   0.14647 272713.120000
   4214   4224     1   0.14647 272713.120000
   4215   4218     1   0.15375 251793.120000
   4218   4221     1   0.15241 261918.400000
   4221   4222     1   0.12183 533627.360000
   4221   4223     1   0.12183 533627.360000
   4224   4227     1   0.15375 251793.120000
   4227   4230     1   0.15241 261918.400000
   4230   4231     1   0.12183 533627.360000
   4230   4232     1   0.12183 533627.360000
   4234   4237     1   0.15375 251793.120000
   4234   4262     1   0.14316 258236.480000
   4237   4240     1   0.15375 251793.120000
   4240   4243     1   0.14647 272713.120000
   4243   4244     1   0.14647 272713.120000
   4243   4253     1   0.14647 272713.120000
   4244   4247     1   0.15375 251793.120000
   4247   4250     1   0.15241 261918.400000
   4250   4251     1   0.12183 533627.360000
   4250   4252     1   0.12183 533627.360000
   4253   4256     1   0.15375 251793.120000
   4256   4259     1   0.15241 261918.400000
   4259   4260     1   0.12183 533627.360000
   4259   4261     1   0.12183 533627.360000
   4263   4266     1   0.15375 251793.120000
   4263   4291     1   0.14316 258236.480000
   4266   4269     1   0.15375 251793.120000
   4269   4272     1   0.14647 272713.120000
   4272   4273     1   0.14647 272713.120000
   4272   4282     1   0.14647 272713.120000
   4273   4276     1   0.15375 251793.120000
   4276   4279     1   0.15241 261918.400000
   4279   4280     1   0.12183 533627.360000
   4279   4281     1   0.12183 533627.360000
   4282   4285     1   0.15375 251793.120000
   4285   4288     1   0.15241 261918.400000
   4288   4289     1   0.12183 533627.360000
   4288   4290     1   0.12183 533627.360000
   4292   4295     1   0.15375 251793.120000
   4292   4320     1   0.14316 258236.480000
   4295   4298     1   0.15375 251793.120000
   4298   4301     1   0.14647 272713.120000
   4301   4302     1   0.14647 272713.120000
   4301   4311     1   0.14647 272713.120000
   4302   4305     1   0.15375 251793.120000
   4305   4308     1   0.15241 261918.400000
   4308   4309     1   0.12183 533627.360000
   4308   4310     1   0.12183 533627.360000
   4311   4314     1   0.15375 251793.120000
   4314   4317     1   0.15241 261918.400000
   4317   4318     1   0.12183 533627.360000
   4317   4319     1   0.12183 533627.360000
   4321   4324     1   0.15375 251793.120000
   4321   4349     1   0.14316 258236.480000
   4324   4327     1   0.15375 251793.120000
   4327   4330     1   0.14647 272713.120000
   4330   4331     1   0.14647 272713.120000
   4330   4340     1   0.14647 272713.120000
   4331   4334     1   0.15375 251793.120000
   4334   4337     1   0.15241 261918.400000
   4337   4338     1   0.12183 533627.360000
   4337   4339     1   0.12183 533627.360000
   4340   4343     1   0.15375 251793.120000
   4343   4346     1   0.15241 261918.400000
   4346   4347     1   0.12183 533627.360000
   4346   4348     1   0.12183 533627.360000
   4350   4353     1   0.15375 251793.120000
   4350   4378     1   0.14316 258236.480000
   4353   4356     1   0.15375 251793.120000
   4356   4359     1   0.14647 272713.120000
   4359   4360     1   0.14647 272713.120000
   4359   4369     1   0.14647 272713.120000
   4360   4363     1   0.15375 251793.120000
   4363   4366     1   0.15241 261918.400000
   4366   4367     1   0.12183 533627.360000
   4366   4368     1   0.12183 533627.360000
   4369   4372     1   0.15375 251793.120000
   4372   4375     1   0.15241 261918.400000
   4375   4376     1   0.12183 533627.360000
   4375   4377     1   0.12183 533627.360000
   4379   4382     1   0.15375 251793.120000
   4379   4407     1   0.14316 258236.480000
   4382   4385     1   0.15375 251793.120000
   4385   4388     1   0.14647 272713.120000
   4388   4389     1   0.14647 272713.120000
   4388   4398     1   0.14647 272713.120000
   4389   4392     1   0.15375 251793.120000
   4392   4395     1   0.15241 261918.400000
   4395   4396     1   0.12183 533627.360000
   4395   4397     1   0.12183 533627.360000
   4398   4401     1   0.15375 251793.120000
   4401   4404     1   0.15241 261918.400000
   4404   4405     1   0.12183 533627.360000
   4404   4406     1   0.12183 533627.360000
   4408   4411     1   0.15375 251793.120000
   4408   4436     1   0.14316 258236.480000
   4411   4414     1   0.15375 251793.120000
   4414   4417     1   0.14647 272713.120000
   4417   4418     1   0.14647 272713.120000
   4417   4427     1   0.14647 272713.120000
   4418   4421     1   0.15375 251793.120000
   4421   4424     1   0.15241 261918.400000
   4424   4425     1   0.12183 533627.360000
   4424   4426     1   0.12183 533627.360000
   4427   4430     1   0.15375 251793.120000
   4430   4433     1   0.15241 261918.400000
   4433   4434     1   0.12183 533627.360000
   4433   4435     1   0.12183 533627.360000
   4437   4440     1   0.15375 251793.120000
   4437   4465     1   0.14316 258236.480000
   4440   4443     1   0.15375 251793.120000
   4443   4446     1   0.14647 272713.120000
   4446   4447     1   0.14647 272713.120000
   4446   4456     1   0.14647 272713.120000
   4447   4450     1   0.15375 251793.120000
   4450   4453     1   0.15241 261918.400000
   4453   4454     1   0.12183 533627.360000
   4453   4455     1   0.12183 533627.360000
   4456   4459     1   0.15375 251793.120000
   4459   4462     1   0.15241 261918.400000
   4462   4463     1   0.12183 533627.360000
   4462   4464     1   0.12183 533627.360000
   4466   4469     1   0.15375 251793.120000
   4466   4494     1   0.14316 258236.480000
   4469   4472     1   0.15375 251793.120000
   4472   4475     1   0.14647 272713.120000
   4475   4476     1   0.14647 272713.120000
   4475   4485     1   0.14647 272713.120000
   4476   4479     1   0.15375 251793.120000
   4479   4482     1   0.15241 261918.400000
   4482   4483     1   0.12183 533627.360000
   4482   4484     1   0.12183 533627.360000
   4485   4488     1   0.15375 251793.120000
   4488   4491     1   0.15241 261918.400000
   4491   4492     1   0.12183 533627.360000
   4491   4493     1   0.12183 533627.360000
   4495   4498     1   0.15375 251793.120000
   4495   4523     1   0.14316 258236.480000
   4498   4501     1   0.15375 251793.120000
   4501   4504     1   0.14647 272713.120000
   4504   4505     1   0.14647 272713.120000
   4504   4514     1   0.14647 272713.120000
   4505   4508     1   0.15375 251793.120000
   4508   4511     1   0.15241 261918.400000
   4511   4512     1   0.12183 533627.360000
   4511   4513     1   0.12183 533627.360000
   4514   4517     1   0.15375 251793.120000
   4517   4520     1   0.15241 261918.400000
   4520   4521     1   0.12183 533627.360000
   4520   4522     1   0.12183 533627.360000
   4524   4527     1   0.15375 251793.120000
   4524   4552     1   0.14316 258236.480000
   4527   4530     1   0.15375 251793.120000
   4530   4533     1   0.14647 272713.120000
   4533   4534     1   0.14647 272713.120000
   4533   4543     1   0.14647 272713.120000
   4534   4537     1   0.15375 251793.120000
   4537   4540     1   0.15241 261918.400000
   4540   4541     1   0.12183 533627.360000
   4540   4542     1   0.12183 533627.360000
   4543   4546     1   0.15375 251793.120000
   4546   4549     1   0.15241 261918.400000
   4549   4550     1   0.12183 533627.360000
   4549   4551     1   0.12183 533627.360000
   4553   4556     1   0.15375 251793.120000
   4553   4581     1   0.14316 258236.480000
   4556   4559     1   0.15375 251793.120000
   4559   4562     1   0.14647 272713.120000
   4562   4563     1   0.14647 272713.120000
   4562   4572     1   0.14647 272713.120000
   4563   4566     1   0.15375 251793.120000
   4566   4569     1   0.15241 261918.400000
   4569   4570     1   0.12183 533627.360000
   4569   4571     1   0.12183 533627.360000
   4572   4575     1   0.15375 251793.120000
   4575   4578     1   0.15241 261918.400000
   4578   4579     1   0.12183 533627.360000
   4578   4580     1   0.12183 533627.360000
   4582   4585     1   0.15375 251793.120000
   4582   4610     1   0.14316 258236.480000
   4585   4588     1   0.15375 251793.120000
   4588   4591     1   0.14647 272713.120000
   4591   4592     1   0.14647 272713.120000
   4591   4601     1   0.14647 272713.120000
   4592   4595     1   0.15375 251793.120000
   4595   4598     1   0.15241 261918.400000
   4598   4599     1   0.12183 533627.360000
   4598   4600     1   0.12183 533627.360000
   4601   4604     1   0.15375 251793.120000
   4604   4607     1   0.15241 261918.400000
   4607   4608     1   0.12183 533627.360000
   4607   4609     1   0.12183 533627.360000
   4611   4614     1   0.15375 251793.120000
   4611   4639     1   0.14316 258236.480000
   4614   4617     1   0.15375 251793.120000
   4617   4620     1   0.14647 272713.120000
   4620   4621     1   0.14647 272713.120000
   4620   4630     1   0.14647 272713.120000
   4621   4624     1   0.15375 251793.120000
   4624   4627     1   0.15241 261918.400000
   4627   4628     1   0.12183 533627.360000
   4627   4629     1   0.12183 533627.360000
   4630   4633     1   0.15375 251793.120000
   4633   4636     1   0.15241 261918.400000
   4636   4637     1   0.12183 533627.360000
   4636   4638     1   0.12183 533627.360000
   4640   4643     1   0.15375 251793.120000
   4640   4668     1   0.14316 258236.480000
   4643   4646     1   0.15375 251793.120000
   4646   4649     1   0.14647 272713.120000
   4649   4650     1   0.14647 272713.120000
   4649   4659     1   0.14647 272713.120000
   4650   4653     1   0.15375 251793.120000
   4653   4656     1   0.15241 261918.400000
   4656   4657     1   0.12183 533627.360000
   4656   4658     1   0.12183 533627.360000
   4659   4662     1   0.15375 251793.120000
   4662   4665     1   0.15241 261918.400000
   4665   4666     1   0.12183 533627.360000
   4665   4667     1   0.12183 533627.360000
   4669   4672     1   0.15375 251793.120000
   4669   4697     1   0.14316 258236.480000
   4672   4675     1   0.15375 251793.120000
   4675   4678     1   0.14647 272713.120000
   4678   4679     1   0.14647 272713.120000
   4678   4688     1   0.14647 272713.120000
   4679   4682     1   0.15375 251793.120000
   4682   4685     1   0.15241 261918.400000
   4685   4686     1   0.12183 533627.360000
   4685   4687     1   0.12183 533627.360000
   4688   4691     1   0.15375 251793.120000
   4691   4694     1   0.15241 261918.400000
   4694   4695     1   0.12183 533627.360000
   4694   4696     1   0.12183 533627.360000
   4698   4701     1   0.15375 251793.120000
   4698   4726     1   0.14316 258236.480000
   4701   4704     1   0.15375 251793.120000
   4704   4707     1   0.14647 272713.120000
   4707   4708     1   0.14647 272713.120000
   4707   4717     1   0.14647 272713.120000
   4708   4711     1   0.15375 251793.120000
   4711   4714     1   0.15241 261918.400000
   4714   4715     1   0.12183 533627.360000
   4714   4716     1   0.12183 533627.360000
   4717   4720     1   0.15375 251793.120000
   4720   4723     1   0.15241 261918.400000
   4723   4724     1   0.12183 533627.360000
   4723   4725     1   0.12183 533627.360000
   4727   4730     1   0.15375 251793.120000
   4727   4755     1   0.14316 258236.480000
   4730   4733     1   0.15375 251793.120000
   4733   4736     1   0.14647 272713.120000
   4736   4737     1   0.14647 272713.120000
   4736   4746     1   0.14647 272713.120000
   4737   4740     1   0.15375 251793.120000
   4740   4743     1   0.15241 261918.400000
   4743   4744     1   0.12183 533627.360000
   4743   4745     1   0.12183 533627.360000
   4746   4749     1   0.15375 251793.120000
   4749   4752     1   0.15241 261918.400000
   4752   4753     1   0.12183 533627.360000
   4752   4754     1   0.12183 533627.360000
   4756   4759     1   0.15375 251793.120000
   4756   4784     1   0.14316 258236.480000
   4759   4762     1   0.15375 251793.120000
   4762   4765     1   0.14647 272713.120000
   4765   4766     1   0.14647 272713.120000
   4765   4775     1   0.14647 272713.120000
   4766   4769     1   0.15375 251793.120000
   4769   4772     1   0.15241 261918.400000
   4772   4773     1   0.12183 533627.360000
   4772   4774     1   0.12183 533627.360000
   4775   4778     1   0.15375 251793.120000
   4778   4781     1   0.15241 261918.400000
   4781   4782     1   0.12183 533627.360000
   4781   4783     1   0.12183 533627.360000
   4785   4788     1   0.15375 251793.120000
   4785   4813     1   0.14316 258236.480000
   4788   4791     1   0.15375 251793.120000
   4791   4794     1   0.14647 272713.120000
   4794   4795     1   0.14647 272713.120000
   4794   4804     1   0.14647 272713.120000
   4795   4798     1   0.15375 251793.120000
   4798   4801     1   0.15241 261918.400000
   4801   4802     1   0.12183 533627.360000
   4801   4803     1   0.12183 533627.360000
   4804   4807     1   0.15375 251793.120000
   4807   4810     1   0.15241 261918.400000
   4810   4811     1   0.12183 533627.360000
   4810   4812     1   0.12183 533627.360000
   4814   4817     1   0.15375 251793.120000
   4814   4842     1   0.14316 258236.480000
   4817   4820     1   0.15375 251793.120000
   4820   4823     1   0.14647 272713.120000
   4823   4824     1   0.14647 272713.120000
   4823   4833     1   0.14647 272713.120000
   4824   4827     1   0.15375 251793.120000
   4827   4830     1   0.15241 261918.400000
   4830   4831     1   0.12183 533627.360000
   4830   4832     1   0.12183 533627.360000
   4833   4836     1   0.15375 251793.120000
   4836   4839     1   0.15241 261918.400000
   4839   4840     1   0.12183 533627.360000
   4839   4841     1   0.12183 533627.360000
   4843   4846     1   0.15375 251793.120000
   4843   4871     1   0.14316 258236.480000
   4846   4849     1   0.15375 251793.120000
   4849   4852     1   0.14647 272713.120000
   4852   4853     1   0.14647 272713.120000
   4852   4862     1   0.14647 272713.120000
   4853   4856     1   0.15375 251793.120000
   4856   4859     1   0.15241 261918.400000
   4859   4860     1   0.12183 533627.360000
   4859   4861     1   0.12183 533627.360000
   4862   4865     1   0.15375 251793.120000
   4865   4868     1   0.15241 261918.400000
   4868   4869     1   0.12183 533627.360000
   4868   4870     1   0.12183 533627.360000
   4872   4875     1   0.15375 251793.120000
   4872   4900     1   0.14316 258236.480000
   4875   4878     1   0.15375 251793.120000
   4878   4881     1   0.14647 272713.120000
   4881   4882     1   0.14647 272713.120000
   4881   4891     1   0.14647 272713.120000
   4882   4885     1   0.15375 251793.120000
   4885   4888     1   0.15241 261918.400000
   4888   4889     1   0.12183 533627.360000
   4888   4890     1   0.12183 533627.360000
   4891   4894     1   0.15375 251793.120000
   4894   4897     1   0.15241 261918.400000
   4897   4898     1   0.12183 533627.360000
   4897   4899     1   0.12183 533627.360000
   4901   4904     1   0.15375 251793.120000
   4901   4929     1   0.14316 258236.480000
   4904   4907     1   0.15375 251793.120000
   4907   4910     1   0.14647 272713.120000
   4910   4911     1   0.14647 272713.120000
   4910   4920     1   0.14647 272713.120000
   4911   4914     1   0.15375 251793.120000
   4914   4917     1   0.15241 261918.400000
   4917   4918     1   0.12183 533627.360000
   4917   4919     1   0.12183 533627.360000
   4920   4923     1   0.15375 251793.120000
   4923   4926     1   0.15241 261918.400000
   4926   4927     1   0.12183 533627.360000
   4926   4928     1   0.12183 533627.360000
   4930   4933     1   0.15375 251793.120000
   4930   4958     1   0.14316 258236.480000
   4933   4936     1   0.15375 251793.120000
   4936   4939     1   0.14647 272713.120000
   4939   4940     1   0.14647 272713.120000
   4939   4949     1   0.14647 272713.120000
   4940   4943     1   0.15375 251793.120000
   4943   4946     1   0.15241 261918.400000
   4946   4947     1   0.12183 533627.360000
   4946   4948     1   0.12183 533627.360000
   4949   4952     1   0.15375 251793.120000
   4952   4955     1   0.15241 261918.400000
   4955   4956     1   0.12183 533627.360000
   4955   4957     1   0.12183 533627.360000
   4959   4962     1   0.15375 251793.120000
   4959   4987     1   0.14316 258236.480000
   4962   4965     1   0.15375 251793.120000
   4965   4968     1   0.14647 272713.120000
   4968   4969     1   0.14647 272713.120000
   4968   4978     1   0.14647 272713.120000
   4969   4972     1   0.15375 251793.120000
   4972   4975     1   0.15241 261918.400000
   4975   4976     1   0.12183 533627.360000
   4975   4977     1   0.12183 533627.360000
   4978   4981     1   0.15375 251793.120000
   4981   4984     1   0.15241 261918.400000
   4984   4985     1   0.12183 533627.360000
   4984   4986     1   0.12183 533627.360000
   4988   4991     1   0.15375 251793.120000
   4988   5016     1   0.14316 258236.480000
   4991   4994     1   0.15375 251793.120000
   4994   4997     1   0.14647 272713.120000
   4997   4998     1   0.14647 272713.120000
   4997   5007     1   0.14647 272713.120000
   4998   5001     1   0.15375 251793.120000
   5001   5004     1   0.15241 261918.400000
   5004   5005     1   0.12183 533627.360000
   5004   5006     1   0.12183 533627.360000
   5007   5010     1   0.15375 251793.120000
   5010   5013     1   0.15241 261918.400000
   5013   5014     1   0.12183 533627.360000
   5013   5015     1   0.12183 533627.360000
   5017   5020     1   0.15375 251793.120000
   5017   5045     1   0.14316 258236.480000
   5020   5023     1   0.15375 251793.120000
   5023   5026     1   0.14647 272713.120000
   5026   5027     1   0.14647 272713.120000
   5026   5036     1   0.14647 272713.120000
   5027   5030     1   0.15375 251793.120000
   5030   5033     1   0.15241 261918.400000
   5033   5034     1   0.12183 533627.360000
   5033   5035     1   0.12183 533627.360000
   5036   5039     1   0.15375 251793.120000
   5039   5042     1   0.15241 261918.400000
   5042   5043     1   0.12183 533627.360000
   5042   5044     1   0.12183 533627.360000
   5046   5049     1   0.15375 251793.120000
   5046   5074     1   0.14316 258236.480000
   5049   5052     1   0.15375 251793.120000
   5052   5055     1   0.14647 272713.120000
   5055   5056     1   0.14647 272713.120000
   5055   5065     1   0.14647 272713.120000
   5056   5059     1   0.15375 251793.120000
   5059   5062     1   0.15241 261918.400000
   5062   5063     1   0.12183 533627.360000
   5062   5064     1   0.12183 533627.360000
   5065   5068     1   0.15375 251793.120000
   5068   5071     1   0.15241 261918.400000
   5071   5072     1   0.12183 533627.360000
   5071   5073     1   0.12183 533627.360000
   5075   5078     1   0.15375 251793.120000
   5075   5103     1   0.14316 258236.480000
   5078   5081     1   0.15375 251793.120000
   5081   5084     1   0.14647 272713.120000
   5084   5085     1   0.14647 272713.120000
   5084   5094     1   0.14647 272713.120000
   5085   5088     1   0.15375 251793.120000
   5088   5091     1   0.15241 261918.400000
   5091   5092     1   0.12183 533627.360000
   5091   5093     1   0.12183 533627.360000
   5094   5097     1   0.15375 251793.120000
   5097   5100     1   0.15241 261918.400000
   5100   5101     1   0.12183 533627.360000
   5100   5102     1   0.12183 533627.360000
   5104   5107     1   0.15375 251793.120000
   5104   5132     1   0.14316 258236.480000
   5107   5110     1   0.15375 251793.120000
   5110   5113     1   0.14647 272713.120000
   5113   5114     1   0.14647 272713.120000
   5113   5123     1   0.14647 272713.120000
   5114   5117     1   0.15375 251793.120000
   5117   5120     1   0.15241 261918.400000
   5120   5121     1   0.12183 533627.360000
   5120   5122     1   0.12183 533627.360000
   5123   5126     1   0.15375 251793.120000
   5126   5129     1   0.15241 261918.400000
   5129   5130     1   0.12183 533627.360000
   5129   5131     1   0.12183 533627.360000
   5133   5136     1   0.15375 251793.120000
   5133   5161     1   0.14316 258236.480000
   5136   5139     1   0.15375 251793.120000
   5139   5142     1   0.14647 272713.120000
   5142   5143     1   0.14647 272713.120000
   5142   5152     1   0.14647 272713.120000
   5143   5146     1   0.15375 251793.120000
   5146   5149     1   0.15241 261918.400000
   5149   5150     1   0.12183 533627.360000
   5149   5151     1   0.12183 533627.360000
   5152   5155     1   0.15375 251793.120000
   5155   5158     1   0.15241 261918.400000
   5158   5159     1   0.12183 533627.360000
   5158   5160     1   0.12183 533627.360000
   5162   5165     1   0.15375 251793.120000
   5162   5190     1   0.14316 258236.480000
   5165   5168     1   0.15375 251793.120000
   5168   5171     1   0.14647 272713.120000
   5171   5172     1   0.14647 272713.120000
   5171   5181     1   0.14647 272713.120000
   5172   5175     1   0.15375 251793.120000
   5175   5178     1   0.15241 261918.400000
   5178   5179     1   0.12183 533627.360000
   5178   5180     1   0.12183 533627.360000
   5181   5184     1   0.15375 251793.120000
   5184   5187     1   0.15241 261918.400000
   5187   5188     1   0.12183 533627.360000
   5187   5189     1   0.12183 533627.360000
   5191   5194     1   0.15375 251793.120000
   5191   5219     1   0.14316 258236.480000
   5194   5197     1   0.15375 251793.120000
   5197   5200     1   0.14647 272713.120000
   5200   5201     1   0.14647 272713.120000
   5200   5210     1   0.14647 272713.120000
   5201   5204     1   0.15375 251793.120000
   5204   5207     1   0.15241 261918.400000
   5207   5208     1   0.12183 533627.360000
   5207   5209     1   0.12183 533627.360000
   5210   5213     1   0.15375 251793.120000
   5213   5216     1   0.15241 261918.400000
   5216   5217     1   0.12183 533627.360000
   5216   5218     1   0.12183 533627.360000
   5220   5223     1   0.15375 251793.120000
   5220   5248     1   0.14316 258236.480000
   5223   5226     1   0.15375 251793.120000
   5226   5229     1   0.14647 272713.120000
   5229   5230     1   0.14647 272713.120000
   5229   5239     1   0.14647 272713.120000
   5230   5233     1   0.15375 251793.120000
   5233   5236     1   0.15241 261918.400000
   5236   5237     1   0.12183 533627.360000
   5236   5238     1   0.12183 533627.360000
   5239   5242     1   0.15375 251793.120000
   5242   5245     1   0.15241 261918.400000
   5245   5246     1   0.12183 533627.360000
   5245   5247     1   0.12183 533627.360000
   5249   5252     1   0.15375 251793.120000
   5249   5277     1   0.14316 258236.480000
   5252   5255     1   0.15375 251793.120000
   5255   5258     1   0.14647 272713.120000
   5258   5259     1   0.14647 272713.120000
   5258   5268     1   0.14647 272713.120000
   5259   5262     1   0.15375 251793.120000
   5262   5265     1   0.15241 261918.400000
   5265   5266     1   0.12183 533627.360000
   5265   5267     1   0.12183 533627.360000
   5268   5271     1   0.15375 251793.120000
   5271   5274     1   0.15241 261918.400000
   5274   5275     1   0.12183 533627.360000
   5274   5276     1   0.12183 533627.360000
   5278   5281     1   0.15375 251793.120000
   5278   5306     1   0.14316 258236.480000
   5281   5284     1   0.15375 251793.120000
   5284   5287     1   0.14647 272713.120000
   5287   5288     1   0.14647 272713.120000
   5287   5297     1   0.14647 272713.120000
   5288   5291     1   0.15375 251793.120000
   5291   5294     1   0.15241 261918.400000
   5294   5295     1   0.12183 533627.360000
   5294   5296     1   0.12183 533627.360000
   5297   5300     1   0.15375 251793.120000
   5300   5303     1   0.15241 261918.400000
   5303   5304     1   0.12183 533627.360000
   5303   5305     1   0.12183 533627.360000
   5307   5310     1   0.15375 251793.120000
   5307   5335     1   0.14316 258236.480000
   5310   5313     1   0.15375 251793.120000
   5313   5316     1   0.14647 272713.120000
   5316   5317     1   0.14647 272713.120000
   5316   5326     1   0.14647 272713.120000
   5317   5320     1   0.15375 251793.120000
   5320   5323     1   0.15241 261918.400000
   5323   5324     1   0.12183 533627.360000
   5323   5325     1   0.12183 533627.360000
   5326   5329     1   0.15375 251793.120000
   5329   5332     1   0.15241 261918.400000
   5332   5333     1   0.12183 533627.360000
   5332   5334     1   0.12183 533627.360000
   5336   5339     1   0.15375 251793.120000
   5336   5364     1   0.14316 258236.480000
   5339   5342     1   0.15375 251793.120000
   5342   5345     1   0.14647 272713.120000
   5345   5346     1   0.14647 272713.120000
   5345   5355     1   0.14647 272713.120000
   5346   5349     1   0.15375 251793.120000
   5349   5352     1   0.15241 261918.400000
   5352   5353     1   0.12183 533627.360000
   5352   5354     1   0.12183 533627.360000
   5355   5358     1   0.15375 251793.120000
   5358   5361     1   0.15241 261918.400000
   5361   5362     1   0.12183 533627.360000
   5361   5363     1   0.12183 533627.360000
   5365   5368     1   0.15375 251793.120000
   5365   5393     1   0.14316 258236.480000
   5368   5371     1   0.15375 251793.120000
   5371   5374     1   0.14647 272713.120000
   5374   5375     1   0.14647 272713.120000
   5374   5384     1   0.14647 272713.120000
   5375   5378     1   0.15375 251793.120000
   5378   5381     1   0.15241 261918.400000
   5381   5382     1   0.12183 533627.360000
   5381   5383     1   0.12183 533627.360000
   5384   5387     1   0.15375 251793.120000
   5387   5390     1   0.15241 261918.400000
   5390   5391     1   0.12183 533627.360000
   5390   5392     1   0.12183 533627.360000
   5394   5397     1   0.15375 251793.120000
   5394   5422     1   0.14316 258236.480000
   5397   5400     1   0.15375 251793.120000
   5400   5403     1   0.14647 272713.120000
   5403   5404     1   0.14647 272713.120000
   5403   5413     1   0.14647 272713.120000
   5404   5407     1   0.15375 251793.120000
   5407   5410     1   0.15241 261918.400000
   5410   5411     1   0.12183 533627.360000
   5410   5412     1   0.12183 533627.360000
   5413   5416     1   0.15375 251793.120000
   5416   5419     1   0.15241 261918.400000
   5419   5420     1   0.12183 533627.360000
   5419   5421     1   0.12183 533627.360000
   5423   5426     1   0.15375 251793.120000
   5423   5451     1   0.14316 258236.480000
   5426   5429     1   0.15375 251793.120000
   5429   5432     1   0.14647 272713.120000
   5432   5433     1   0.14647 272713.120000
   5432   5442     1   0.14647 272713.120000
   5433   5436     1   0.15375 251793.120000
   5436   5439     1   0.15241 261918.400000
   5439   5440     1   0.12183 533627.360000
   5439   5441     1   0.12183 533627.360000
   5442   5445     1   0.15375 251793.120000
   5445   5448     1   0.15241 261918.400000
   5448   5449     1   0.12183 533627.360000
   5448   5450     1   0.12183 533627.360000
   5452   5455     1   0.15375 251793.120000
   5452   5480     1   0.14316 258236.480000
   5455   5458     1   0.15375 251793.120000
   5458   5461     1   0.14647 272713.120000
   5461   5462     1   0.14647 272713.120000
   5461   5471     1   0.14647 272713.120000
   5462   5465     1   0.15375 251793.120000
   5465   5468     1   0.15241 261918.400000
   5468   5469     1   0.12183 533627.360000
   5468   5470     1   0.12183 533627.360000
   5471   5474     1   0.15375 251793.120000
   5474   5477     1   0.15241 261918.400000
   5477   5478     1   0.12183 533627.360000
   5477   5479     1   0.12183 533627.360000
   5481   5484     1   0.15375 251793.120000
   5481   5509     1   0.14316 258236.480000
   5484   5487     1   0.15375 251793.120000
   5487   5490     1   0.14647 272713.120000
   5490   5491     1   0.14647 272713.120000
   5490   5500     1   0.14647 272713.120000
   5491   5494     1   0.15375 251793.120000
   5494   5497     1   0.15241 261918.400000
   5497   5498     1   0.12183 533627.360000
   5497   5499     1   0.12183 533627.360000
   5500   5503     1   0.15375 251793.120000
   5503   5506     1   0.15241 261918.400000
   5506   5507     1   0.12183 533627.360000
   5506   5508     1   0.12183 533627.360000
   5510   5513     1   0.15375 251793.120000
   5510   5538     1   0.14316 258236.480000
   5513   5516     1   0.15375 251793.120000
   5516   5519     1   0.14647 272713.120000
   5519   5520     1   0.14647 272713.120000
   5519   5529     1   0.14647 272713.120000
   5520   5523     1   0.15375 251793.120000
   5523   5526     1   0.15241 261918.400000
   5526   5527     1   0.12183 533627.360000
   5526   5528     1   0.12183 533627.360000
   5529   5532     1   0.15375 251793.120000
   5532   5535     1   0.15241 261918.400000
   5535   5536     1   0.12183 533627.360000
   5535   5537     1   0.12183 533627.360000
   5539   5542     1   0.15375 251793.120000
   5539   5567     1   0.14316 258236.480000
   5542   5545     1   0.15375 251793.120000
   5545   5548     1   0.14647 272713.120000
   5548   5549     1   0.14647 272713.120000
   5548   5558     1   0.14647 272713.120000
   5549   5552     1   0.15375 251793.120000
   5552   5555     1   0.15241 261918.400000
   5555   5556     1   0.12183 533627.360000
   5555   5557     1   0.12183 533627.360000
   5558   5561     1   0.15375 251793.120000
   5561   5564     1   0.15241 261918.400000
   5564   5565     1   0.12183 533627.360000
   5564   5566     1   0.12183 533627.360000
   5568   5571     1   0.15375 251793.120000
   5568   5596     1   0.14316 258236.480000
   5571   5574     1   0.15375 251793.120000
   5574   5577     1   0.14647 272713.120000
   5577   5578     1   0.14647 272713.120000
   5577   5587     1   0.14647 272713.120000
   5578   5581     1   0.15375 251793.120000
   5581   5584     1   0.15241 261918.400000
   5584   5585     1   0.12183 533627.360000
   5584   5586     1   0.12183 533627.360000
   5587   5590     1   0.15375 251793.120000
   5590   5593     1   0.15241 261918.400000
   5593   5594     1   0.12183 533627.360000
   5593   5595     1   0.12183 533627.360000
   5597   5600     1   0.15375 251793.120000
   5597   5625     1   0.14316 258236.480000
   5600   5603     1   0.15375 251793.120000
   5603   5606     1   0.14647 272713.120000
   5606   5607     1   0.14647 272713.120000
   5606   5616     1   0.14647 272713.120000
   5607   5610     1   0.15375 251793.120000
   5610   5613     1   0.15241 261918.400000
   5613   5614     1   0.12183 533627.360000
   5613   5615     1   0.12183 533627.360000
   5616   5619     1   0.15375 251793.120000
   5619   5622     1   0.15241 261918.400000
   5622   5623     1   0.12183 533627.360000
   5622   5624     1   0.12183 533627.360000
   5626   5629     1   0.15375 251793.120000
   5626   5654     1   0.14316 258236.480000
   5629   5632     1   0.15375 251793.120000
   5632   5635     1   0.14647 272713.120000
   5635   5636     1   0.14647 272713.120000
   5635   5645     1   0.14647 272713.120000
   5636   5639     1   0.15375 251793.120000
   5639   5642     1   0.15241 261918.400000
   5642   5643     1   0.12183 533627.360000
   5642   5644     1   0.12183 533627.360000
   5645   5648     1   0.15375 251793.120000
   5648   5651     1   0.15241 261918.400000
   5651   5652     1   0.12183 533627.360000
   5651   5653     1   0.12183 533627.360000
   5655   5658     1   0.15375 251793.120000
   5655   5683     1   0.14316 258236.480000
   5658   5661     1   0.15375 251793.120000
   5661   5664     1   0.14647 272713.120000
   5664   5665     1   0.14647 272713.120000
   5664   5674     1   0.14647 272713.120000
   5665   5668     1   0.15375 251793.120000
   5668   5671     1   0.15241 261918.400000
   5671   5672     1   0.12183 533627.360000
   5671   5673     1   0.12183 533627.360000
   5674   5677     1   0.15375 251793.120000
   5677   5680     1   0.15241 261918.400000
   5680   5681     1   0.12183 533627.360000
   5680   5682     1   0.12183 533627.360000
   5684   5687     1   0.15375 251793.120000
   5684   5712     1   0.14316 258236.480000
   5687   5690     1   0.15375 251793.120000
   5690   5693     1   0.14647 272713.120000
   5693   5694     1   0.14647 272713.120000
   5693   5703     1   0.14647 272713.120000
   5694   5697     1   0.15375 251793.120000
   5697   5700     1   0.15241 261918.400000
   5700   5701     1   0.12183 533627.360000
   5700   5702     1   0.12183 533627.360000
   5703   5706     1   0.15375 251793.120000
   5706   5709     1   0.15241 261918.400000
   5709   5710     1   0.12183 533627.360000
   5709   5711     1   0.12183 533627.360000
   5713   5716     1   0.15375 251793.120000
   5713   5741     1   0.14316 258236.480000
   5716   5719     1   0.15375 251793.120000
   5719   5722     1   0.14647 272713.120000
   5722   5723     1   0.14647 272713.120000
   5722   5732     1   0.14647 272713.120000
   5723   5726     1   0.15375 251793.120000
   5726   5729     1   0.15241 261918.400000
   5729   5730     1   0.12183 533627.360000
   5729   5731     1   0.12183 533627.360000
   5732   5735     1   0.15375 251793.120000
   5735   5738     1   0.15241 261918.400000
   5738   5739     1   0.12183 533627.360000
   5738   5740     1   0.12183 533627.360000
   5742   5745     1   0.15375 251793.120000
   5742   5770     1   0.14316 258236.480000
   5745   5748     1   0.15375 251793.120000
   5748   5751     1   0.14647 272713.120000
   5751   5752     1   0.14647 272713.120000
   5751   5761     1   0.14647 272713.120000
   5752   5755     1   0.15375 251793.120000
   5755   5758     1   0.15241 261918.400000
   5758   5759     1   0.12183 533627.360000
   5758   5760     1   0.12183 533627.360000
   5761   5764     1   0.15375 251793.120000
   5764   5767     1   0.15241 261918.400000
   5767   5768     1   0.12183 533627.360000
   5767   5769     1   0.12183 533627.360000
   5771   5774     1   0.15375 251793.120000
   5771   5799     1   0.14316 258236.480000
   5774   5777     1   0.15375 251793.120000
   5777   5780     1   0.14647 272713.120000
   5780   5781     1   0.14647 272713.120000
   5780   5790     1   0.14647 272713.120000
   5781   5784     1   0.15375 251793.120000
   5784   5787     1   0.15241 261918.400000
   5787   5788     1   0.12183 533627.360000
   5787   5789     1   0.12183 533627.360000
   5790   5793     1   0.15375 251793.120000
   5793   5796     1   0.15241 261918.400000
   5796   5797     1   0.12183 533627.360000
   5796   5798     1   0.12183 533627.360000
   5800   5803     1   0.15375 251793.120000
   5800   5828     1   0.14316 258236.480000
   5803   5806     1   0.15375 251793.120000
   5806   5809     1   0.14647 272713.120000
   5809   5810     1   0.14647 272713.120000
   5809   5819     1   0.14647 272713.120000
   5810   5813     1   0.15375 251793.120000
   5813   5816     1   0.15241 261918.400000
   5816   5817     1   0.12183 533627.360000
   5816   5818     1   0.12183 533627.360000
   5819   5822     1   0.15375 251793.120000
   5822   5825     1   0.15241 261918.400000
   5825   5826     1   0.12183 533627.360000
   5825   5827     1   0.12183 533627.360000
   5829   5832     1   0.15375 251793.120000
   5829   5857     1   0.14316 258236.480000
   5832   5835     1   0.15375 251793.120000
   5835   5838     1   0.14647 272713.120000
   5838   5839     1   0.14647 272713.120000
   5838   5848     1   0.14647 272713.120000
   5839   5842     1   0.15375 251793.120000
   5842   5845     1   0.15241 261918.400000
   5845   5846     1   0.12183 533627.360000
   5845   5847     1   0.12183 533627.360000
   5848   5851     1   0.15375 251793.120000
   5851   5854     1   0.15241 261918.400000
   5854   5855     1   0.12183 533627.360000
   5854   5856     1   0.12183 533627.360000
   5858   5861     1   0.15375 251793.120000
   5858   5886     1   0.14316 258236.480000
   5861   5864     1   0.15375 251793.120000
   5864   5867     1   0.14647 272713.120000
   5867   5868     1   0.14647 272713.120000
   5867   5877     1   0.14647 272713.120000
   5868   5871     1   0.15375 251793.120000
   5871   5874     1   0.15241 261918.400000
   5874   5875     1   0.12183 533627.360000
   5874   5876     1   0.12183 533627.360000
   5877   5880     1   0.15375 251793.120000
   5880   5883     1   0.15241 261918.400000
   5883   5884     1   0.12183 533627.360000
   5883   5885     1   0.12183 533627.360000
   5887   5890     1   0.15375 251793.120000
   5887   5915     1   0.14316 258236.480000
   5890   5893     1   0.15375 251793.120000
   5893   5896     1   0.14647 272713.120000
   5896   5897     1   0.14647 272713.120000
   5896   5906     1   0.14647 272713.120000
   5897   5900     1   0.15375 251793.120000
   5900   5903     1   0.15241 261918.400000
   5903   5904     1   0.12183 533627.360000
   5903   5905     1   0.12183 533627.360000
   5906   5909     1   0.15375 251793.120000
   5909   5912     1   0.15241 261918.400000
   5912   5913     1   0.12183 533627.360000
   5912   5914     1   0.12183 533627.360000
   5916   5919     1   0.15375 251793.120000
   5916   5944     1   0.14316 258236.480000
   5919   5922     1   0.15375 251793.120000
   5922   5925     1   0.14647 272713.120000
   5925   5926     1   0.14647 272713.120000
   5925   5935     1   0.14647 272713.120000
   5926   5929     1   0.15375 251793.120000
   5929   5932     1   0.15241 261918.400000
   5932   5933     1   0.12183 533627.360000
   5932   5934     1   0.12183 533627.360000
   5935   5938     1   0.15375 251793.120000
   5938   5941     1   0.15241 261918.400000
   5941   5942     1   0.12183 533627.360000
   5941   5943     1   0.12183 533627.360000
   5945   5948     1   0.15375 251793.120000
   5945   5973     1   0.14316 258236.480000
   5948   5951     1   0.15375 251793.120000
   5951   5954     1   0.14647 272713.120000
   5954   5955     1   0.14647 272713.120000
   5954   5964     1   0.14647 272713.120000
   5955   5958     1   0.15375 251793.120000
   5958   5961     1   0.15241 261918.400000
   5961   5962     1   0.12183 533627.360000
   5961   5963     1   0.12183 533627.360000
   5964   5967     1   0.15375 251793.120000
   5967   5970     1   0.15241 261918.400000
   5970   5971     1   0.12183 533627.360000
   5970   5972     1   0.12183 533627.360000
   5974   5977     1   0.15375 251793.120000
   5974   6002     1   0.14316 258236.480000
   5977   5980     1   0.15375 251793.120000
   5980   5983     1   0.14647 272713.120000
   5983   5984     1   0.14647 272713.120000
   5983   5993     1   0.14647 272713.120000
   5984   5987     1   0.15375 251793.120000
   5987   5990     1   0.15241 261918.400000
   5990   5991     1   0.12183 533627.360000
   5990   5992     1   0.12183 533627.360000
   5993   5996     1   0.15375 251793.120000
   5996   5999     1   0.15241 261918.400000
   5999   6000     1   0.12183 533627.360000
   5999   6001     1   0.12183 533627.360000
   6003   6006     1   0.15375 251793.120000
   6003   6031     1   0.14316 258236.480000
   6006   6009     1   0.15375 251793.120000
   6009   6012     1   0.14647 272713.120000
   6012   6013     1   0.14647 272713.120000
   6012   6022     1   0.14647 272713.120000
   6013   6016     1   0.15375 251793.120000
   6016   6019     1   0.15241 261918.400000
   6019   6020     1   0.12183 533627.360000
   6019   6021     1   0.12183 533627.360000
   6022   6025     1   0.15375 251793.120000
   6025   6028     1   0.15241 261918.400000
   6028   6029     1   0.12183 533627.360000
   6028   6030     1   0.12183 533627.360000
   6032   6035     1   0.15375 251793.120000
   6032   6060     1   0.14316 258236.480000
   6035   6038     1   0.15375 251793.120000
   6038   6041     1   0.14647 272713.120000
   6041   6042     1   0.14647 272713.120000
   6041   6051     1   0.14647 272713.120000
   6042   6045     1   0.15375 251793.120000
   6045   6048     1   0.15241 261918.400000
   6048   6049     1   0.12183 533627.360000
   6048   6050     1   0.12183 533627.360000
   6051   6054     1   0.15375 251793.120000
   6054   6057     1   0.15241 261918.400000
   6057   6058     1   0.12183 533627.360000
   6057   6059     1   0.12183 533627.360000
   6061   6064     1   0.15375 251793.120000
   6061   6089     1   0.14316 258236.480000
   6064   6067     1   0.15375 251793.120000
   6067   6070     1   0.14647 272713.120000
   6070   6071     1   0.14647 272713.120000
   6070   6080     1   0.14647 272713.120000
   6071   6074     1   0.15375 251793.120000
   6074   6077     1   0.15241 261918.400000
   6077   6078     1   0.12183 533627.360000
   6077   6079     1   0.12183 533627.360000
   6080   6083     1   0.15375 251793.120000
   6083   6086     1   0.15241 261918.400000
   6086   6087     1   0.12183 533627.360000
   6086   6088     1   0.12183 533627.360000
   6090   6093     1   0.15375 251793.120000
   6090   6118     1   0.14316 258236.480000
   6093   6096     1   0.15375 251793.120000
   6096   6099     1   0.14647 272713.120000
   6099   6100     1   0.14647 272713.120000
   6099   6109     1   0.14647 272713.120000
   6100   6103     1   0.15375 251793.120000
   6103   6106     1   0.15241 261918.400000
   6106   6107     1   0.12183 533627.360000
   6106   6108     1   0.12183 533627.360000
   6109   6112     1   0.15375 251793.120000
   6112   6115     1   0.15241 261918.400000
   6115   6116     1   0.12183 533627.360000
   6115   6117     1   0.12183 533627.360000
   6119   6122     1   0.15375 251793.120000
   6119   6147     1   0.14316 258236.480000
   6122   6125     1   0.15375 251793.120000
   6125   6128     1   0.14647 272713.120000
   6128   6129     1   0.14647 272713.120000
   6128   6138     1   0.14647 272713.120000
   6129   6132     1   0.15375 251793.120000
   6132   6135     1   0.15241 261918.400000
   6135   6136     1   0.12183 533627.360000
   6135   6137     1   0.12183 533627.360000
   6138   6141     1   0.15375 251793.120000
   6141   6144     1   0.15241 261918.400000
   6144   6145     1   0.12183 533627.360000
   6144   6146     1   0.12183 533627.360000
   6148   6151     1   0.15375 251793.120000
   6148   6176     1   0.14316 258236.480000
   6151   6154     1   0.15375 251793.120000
   6154   6157     1   0.14647 272713.120000
   6157   6158     1   0.14647 272713.120000
   6157   6167     1   0.14647 272713.120000
   6158   6161     1   0.15375 251793.120000
   6161   6164     1   0.15241 261918.400000
   6164   6165     1   0.12183 533627.360000
   6164   6166     1   0.12183 533627.360000
   6167   6170     1   0.15375 251793.120000
   6170   6173     1   0.15241 261918.400000
   6173   6174     1   0.12183 533627.360000
   6173   6175     1   0.12183 533627.360000
   6177   6180     1   0.15375 251793.120000
   6177   6205     1   0.14316 258236.480000
   6180   6183     1   0.15375 251793.120000
   6183   6186     1   0.14647 272713.120000
   6186   6187     1   0.14647 272713.120000
   6186   6196     1   0.14647 272713.120000
   6187   6190     1   0.15375 251793.120000
   6190   6193     1   0.15241 261918.400000
   6193   6194     1   0.12183 533627.360000
   6193   6195     1   0.12183 533627.360000
   6196   6199     1   0.15375 251793.120000
   6199   6202     1   0.15241 261918.400000
   6202   6203     1   0.12183 533627.360000
   6202   6204     1   0.12183 533627.360000
   6206   6209     1   0.15375 251793.120000
   6206   6234     1   0.14316 258236.480000
   6209   6212     1   0.15375 251793.120000
   6212   6215     1   0.14647 272713.120000
   6215   6216     1   0.14647 272713.120000
   6215   6225     1   0.14647 272713.120000
   6216   6219     1   0.15375 251793.120000
   6219   6222     1   0.15241 261918.400000
   6222   6223     1   0.12183 533627.360000
   6222   6224     1   0.12183 533627.360000
   6225   6228     1   0.15375 251793.120000
   6228   6231     1   0.15241 261918.400000
   6231   6232     1   0.12183 533627.360000
   6231   6233     1   0.12183 533627.360000
   6235   6238     1   0.15375 251793.120000
   6235   6263     1   0.14316 258236.480000
   6238   6241     1   0.15375 251793.120000
   6241   6244     1   0.14647 272713.120000
   6244   6245     1   0.14647 272713.120000
   6244   6254     1   0.14647 272713.120000
   6245   6248     1   0.15375 251793.120000
   6248   6251     1   0.15241 261918.400000
   6251   6252     1   0.12183 533627.360000
   6251   6253     1   0.12183 533627.360000
   6254   6257     1   0.15375 251793.120000
   6257   6260     1   0.15241 261918.400000
   6260   6261     1   0.12183 533627.360000
   6260   6262     1   0.12183 533627.360000
   6264   6267     1   0.15375 251793.120000
   6264   6292     1   0.14316 258236.480000
   6267   6270     1   0.15375 251793.120000
   6270   6273     1   0.14647 272713.120000
   6273   6274     1   0.14647 272713.120000
   6273   6283     1   0.14647 272713.120000
   6274   6277     1   0.15375 251793.120000
   6277   6280     1   0.15241 261918.400000
   6280   6281     1   0.12183 533627.360000
   6280   6282     1   0.12183 533627.360000
   6283   6286     1   0.15375 251793.120000
   6286   6289     1   0.15241 261918.400000
   6289   6290     1   0.12183 533627.360000
   6289   6291     1   0.12183 533627.360000
   6293   6296     1   0.15375 251793.120000
   6293   6321     1   0.14316 258236.480000
   6296   6299     1   0.15375 251793.120000
   6299   6302     1   0.14647 272713.120000
   6302   6303     1   0.14647 272713.120000
   6302   6312     1   0.14647 272713.120000
   6303   6306     1   0.15375 251793.120000
   6306   6309     1   0.15241 261918.400000
   6309   6310     1   0.12183 533627.360000
   6309   6311     1   0.12183 533627.360000
   6312   6315     1   0.15375 251793.120000
   6315   6318     1   0.15241 261918.400000
   6318   6319     1   0.12183 533627.360000
   6318   6320     1   0.12183 533627.360000
   6322   6325     1   0.15375 251793.120000
   6322   6350     1   0.14316 258236.480000
   6325   6328     1   0.15375 251793.120000
   6328   6331     1   0.14647 272713.120000
   6331   6332     1   0.14647 272713.120000
   6331   6341     1   0.14647 272713.120000
   6332   6335     1   0.15375 251793.120000
   6335   6338     1   0.15241 261918.400000
   6338   6339     1   0.12183 533627.360000
   6338   6340     1   0.12183 533627.360000
   6341   6344     1   0.15375 251793.120000
   6344   6347     1   0.15241 261918.400000
   6347   6348     1   0.12183 533627.360000
   6347   6349     1   0.12183 533627.360000
   6351   6354     1   0.15375 251793.120000
   6351   6379     1   0.14316 258236.480000
   6354   6357     1   0.15375 251793.120000
   6357   6360     1   0.14647 272713.120000
   6360   6361     1   0.14647 272713.120000
   6360   6370     1   0.14647 272713.120000
   6361   6364     1   0.15375 251793.120000
   6364   6367     1   0.15241 261918.400000
   6367   6368     1   0.12183 533627.360000
   6367   6369     1   0.12183 533627.360000
   6370   6373     1   0.15375 251793.120000
   6373   6376     1   0.15241 261918.400000
   6376   6377     1   0.12183 533627.360000
   6376   6378     1   0.12183 533627.360000
   6380   6383     1   0.15375 251793.120000
   6380   6408     1   0.14316 258236.480000
   6383   6386     1   0.15375 251793.120000
   6386   6389     1   0.14647 272713.120000
   6389   6390     1   0.14647 272713.120000
   6389   6399     1   0.14647 272713.120000
   6390   6393     1   0.15375 251793.120000
   6393   6396     1   0.15241 261918.400000
   6396   6397     1   0.12183 533627.360000
   6396   6398     1   0.12183 533627.360000
   6399   6402     1   0.15375 251793.120000
   6402   6405     1   0.15241 261918.400000
   6405   6406     1   0.12183 533627.360000
   6405   6407     1   0.12183 533627.360000
   6409   6412     1   0.15375 251793.120000
   6409   6437     1   0.14316 258236.480000
   6412   6415     1   0.15375 251793.120000
   6415   6418     1   0.14647 272713.120000
   6418   6419     1   0.14647 272713.120000
   6418   6428     1   0.14647 272713.120000
   6419   6422     1   0.15375 251793.120000
   6422   6425     1   0.15241 261918.400000
   6425   6426     1   0.12183 533627.360000
   6425   6427     1   0.12183 533627.360000
   6428   6431     1   0.15375 251793.120000
   6431   6434     1   0.15241 261918.400000
   6434   6435     1   0.12183 533627.360000
   6434   6436     1   0.12183 533627.360000
   6438   6441     1   0.15375 251793.120000
   6438   6466     1   0.14316 258236.480000
   6441   6444     1   0.15375 251793.120000
   6444   6447     1   0.14647 272713.120000
   6447   6448     1   0.14647 272713.120000
   6447   6457     1   0.14647 272713.120000
   6448   6451     1   0.15375 251793.120000
   6451   6454     1   0.15241 261918.400000
   6454   6455     1   0.12183 533627.360000
   6454   6456     1   0.12183 533627.360000
   6457   6460     1   0.15375 251793.120000
   6460   6463     1   0.15241 261918.400000
   6463   6464     1   0.12183 533627.360000
   6463   6465     1   0.12183 533627.360000
   6467   6470     1   0.15375 251793.120000
   6467   6495     1   0.14316 258236.480000
   6470   6473     1   0.15375 251793.120000
   6473   6476     1   0.14647 272713.120000
   6476   6477     1   0.14647 272713.120000
   6476   6486     1   0.14647 272713.120000
   6477   6480     1   0.15375 251793.120000
   6480   6483     1   0.15241 261918.400000
   6483   6484     1   0.12183 533627.360000
   6483   6485     1   0.12183 533627.360000
   6486   6489     1   0.15375 251793.120000
   6489   6492     1   0.15241 261918.400000
   6492   6493     1   0.12183 533627.360000
   6492   6494     1   0.12183 533627.360000
   6496   6499     1   0.15375 251793.120000
   6496   6524     1   0.14316 258236.480000
   6499   6502     1   0.15375 251793.120000
   6502   6505     1   0.14647 272713.120000
   6505   6506     1   0.14647 272713.120000
   6505   6515     1   0.14647 272713.120000
   6506   6509     1   0.15375 251793.120000
   6509   6512     1   0.15241 261918.400000
   6512   6513     1   0.12183 533627.360000
   6512   6514     1   0.12183 533627.360000
   6515   6518     1   0.15375 251793.120000
   6518   6521     1   0.15241 261918.400000
   6521   6522     1   0.12183 533627.360000
   6521   6523     1   0.12183 533627.360000
   6525   6528     1   0.15375 251793.120000
   6525   6553     1   0.14316 258236.480000
   6528   6531     1   0.15375 251793.120000
   6531   6534     1   0.14647 272713.120000
   6534   6535     1   0.14647 272713.120000
   6534   6544     1   0.14647 272713.120000
   6535   6538     1   0.15375 251793.120000
   6538   6541     1   0.15241 261918.400000
   6541   6542     1   0.12183 533627.360000
   6541   6543     1   0.12183 533627.360000
   6544   6547     1   0.15375 251793.120000
   6547   6550     1   0.15241 261918.400000
   6550   6551     1   0.12183 533627.360000
   6550   6552     1   0.12183 533627.360000
   6554   6557     1   0.15375 251793.120000
   6554   6582     1   0.14316 258236.480000
   6557   6560     1   0.15375 251793.120000
   6560   6563     1   0.14647 272713.120000
   6563   6564     1   0.14647 272713.120000
   6563   6573     1   0.14647 272713.120000
   6564   6567     1   0.15375 251793.120000
   6567   6570     1   0.15241 261918.400000
   6570   6571     1   0.12183 533627.360000
   6570   6572     1   0.12183 533627.360000
   6573   6576     1   0.15375 251793.120000
   6576   6579     1   0.15241 261918.400000
   6579   6580     1   0.12183 533627.360000
   6579   6581     1   0.12183 533627.360000
   6583   6586     1   0.15375 251793.120000
   6583   6611     1   0.14316 258236.480000
   6586   6589     1   0.15375 251793.120000
   6589   6592     1   0.14647 272713.120000
   6592   6593     1   0.14647 272713.120000
   6592   6602     1   0.14647 272713.120000
   6593   6596     1   0.15375 251793.120000
   6596   6599     1   0.15241 261918.400000
   6599   6600     1   0.12183 533627.360000
   6599   6601     1   0.12183 533627.360000
   6602   6605     1   0.15375 251793.120000
   6605   6608     1   0.15241 261918.400000
   6608   6609     1   0.12183 533627.360000
   6608   6610     1   0.12183 533627.360000
   6612   6615     1   0.15375 251793.120000
   6612   6640     1   0.14316 258236.480000
   6615   6618     1   0.15375 251793.120000
   6618   6621     1   0.14647 272713.120000
   6621   6622     1   0.14647 272713.120000
   6621   6631     1   0.14647 272713.120000
   6622   6625     1   0.15375 251793.120000
   6625   6628     1   0.15241 261918.400000
   6628   6629     1   0.12183 533627.360000
   6628   6630     1   0.12183 533627.360000
   6631   6634     1   0.15375 251793.120000
   6634   6637     1   0.15241 261918.400000
   6637   6638     1   0.12183 533627.360000
   6637   6639     1   0.12183 533627.360000
   6641   6644     1   0.15375 251793.120000
   6641   6669     1   0.14316 258236.480000
   6644   6647     1   0.15375 251793.120000
   6647   6650     1   0.14647 272713.120000
   6650   6651     1   0.14647 272713.120000
   6650   6660     1   0.14647 272713.120000
   6651   6654     1   0.15375 251793.120000
   6654   6657     1   0.15241 261918.400000
   6657   6658     1   0.12183 533627.360000
   6657   6659     1   0.12183 533627.360000
   6660   6663     1   0.15375 251793.120000
   6663   6666     1   0.15241 261918.400000
   6666   6667     1   0.12183 533627.360000
   6666   6668     1   0.12183 533627.360000
   6670   6673     1   0.15375 251793.120000
   6670   6698     1   0.14316 258236.480000
   6673   6676     1   0.15375 251793.120000
   6676   6679     1   0.14647 272713.120000
   6679   6680     1   0.14647 272713.120000
   6679   6689     1   0.14647 272713.120000
   6680   6683     1   0.15375 251793.120000
   6683   6686     1   0.15241 261918.400000
   6686   6687     1   0.12183 533627.360000
   6686   6688     1   0.12183 533627.360000
   6689   6692     1   0.15375 251793.120000
   6692   6695     1   0.15241 261918.400000
   6695   6696     1   0.12183 533627.360000
   6695   6697     1   0.12183 533627.360000
   6699   6702     1   0.15375 251793.120000
   6699   6727     1   0.14316 258236.480000
   6702   6705     1   0.15375 251793.120000
   6705   6708     1   0.14647 272713.120000
   6708   6709     1   0.14647 272713.120000
   6708   6718     1   0.14647 272713.120000
   6709   6712     1   0.15375 251793.120000
   6712   6715     1   0.15241 261918.400000
   6715   6716     1   0.12183 533627.360000
   6715   6717     1   0.12183 533627.360000
   6718   6721     1   0.15375 251793.120000
   6721   6724     1   0.15241 261918.400000
   6724   6725     1   0.12183 533627.360000
   6724   6726     1   0.12183 533627.360000
   6728   6731     1   0.15375 251793.120000
   6728   6756     1   0.14316 258236.480000
   6731   6734     1   0.15375 251793.120000
   6734   6737     1   0.14647 272713.120000
   6737   6738     1   0.14647 272713.120000
   6737   6747     1   0.14647 272713.120000
   6738   6741     1   0.15375 251793.120000
   6741   6744     1   0.15241 261918.400000
   6744   6745     1   0.12183 533627.360000
   6744   6746     1   0.12183 533627.360000
   6747   6750     1   0.15375 251793.120000
   6750   6753     1   0.15241 261918.400000
   6753   6754     1   0.12183 533627.360000
   6753   6755     1   0.12183 533627.360000
   6757   6760     1   0.15375 251793.120000
   6757   6785     1   0.14316 258236.480000
   6760   6763     1   0.15375 251793.120000
   6763   6766     1   0.14647 272713.120000
   6766   6767     1   0.14647 272713.120000
   6766   6776     1   0.14647 272713.120000
   6767   6770     1   0.15375 251793.120000
   6770   6773     1   0.15241 261918.400000
   6773   6774     1   0.12183 533627.360000
   6773   6775     1   0.12183 533627.360000
   6776   6779     1   0.15375 251793.120000
   6779   6782     1   0.15241 261918.400000
   6782   6783     1   0.12183 533627.360000
   6782   6784     1   0.12183 533627.360000
   6786   6789     1   0.15375 251793.120000
   6786   6814     1   0.14316 258236.480000
   6789   6792     1   0.15375 251793.120000
   6792   6795     1   0.14647 272713.120000
   6795   6796     1   0.14647 272713.120000
   6795   6805     1   0.14647 272713.120000
   6796   6799     1   0.15375 251793.120000
   6799   6802     1   0.15241 261918.400000
   6802   6803     1   0.12183 533627.360000
   6802   6804     1   0.12183 533627.360000
   6805   6808     1   0.15375 251793.120000
   6808   6811     1   0.15241 261918.400000
   6811   6812     1   0.12183 533627.360000
   6811   6813     1   0.12183 533627.360000
   6815   6818     1   0.15375 251793.120000
   6815   6843     1   0.14316 258236.480000
   6818   6821     1   0.15375 251793.120000
   6821   6824     1   0.14647 272713.120000
   6824   6825     1   0.14647 272713.120000
   6824   6834     1   0.14647 272713.120000
   6825   6828     1   0.15375 251793.120000
   6828   6831     1   0.15241 261918.400000
   6831   6832     1   0.12183 533627.360000
   6831   6833     1   0.12183 533627.360000
   6834   6837     1   0.15375 251793.120000
   6837   6840     1   0.15241 261918.400000
   6840   6841     1   0.12183 533627.360000
   6840   6842     1   0.12183 533627.360000
   6844   6847     1   0.15375 251793.120000
   6844   6872     1   0.14316 258236.480000
   6847   6850     1   0.15375 251793.120000
   6850   6853     1   0.14647 272713.120000
   6853   6854     1   0.14647 272713.120000
   6853   6863     1   0.14647 272713.120000
   6854   6857     1   0.15375 251793.120000
   6857   6860     1   0.15241 261918.400000
   6860   6861     1   0.12183 533627.360000
   6860   6862     1   0.12183 533627.360000
   6863   6866     1   0.15375 251793.120000
   6866   6869     1   0.15241 261918.400000
   6869   6870     1   0.12183 533627.360000
   6869   6871     1   0.12183 533627.360000
   6873   6876     1   0.15375 251793.120000
   6873   6901     1   0.14316 258236.480000
   6876   6879     1   0.15375 251793.120000
   6879   6882     1   0.14647 272713.120000
   6882   6883     1   0.14647 272713.120000
   6882   6892     1   0.14647 272713.120000
   6883   6886     1   0.15375 251793.120000
   6886   6889     1   0.15241 261918.400000
   6889   6890     1   0.12183 533627.360000
   6889   6891     1   0.12183 533627.360000
   6892   6895     1   0.15375 251793.120000
   6895   6898     1   0.15241 261918.400000
   6898   6899     1   0.12183 533627.360000
   6898   6900     1   0.12183 533627.360000
   6902   6905     1   0.15375 251793.120000
   6902   6930     1   0.14316 258236.480000
   6905   6908     1   0.15375 251793.120000
   6908   6911     1   0.14647 272713.120000
   6911   6912     1   0.14647 272713.120000
   6911   6921     1   0.14647 272713.120000
   6912   6915     1   0.15375 251793.120000
   6915   6918     1   0.15241 261918.400000
   6918   6919     1   0.12183 533627.360000
   6918   6920     1   0.12183 533627.360000
   6921   6924     1   0.15375 251793.120000
   6924   6927     1   0.15241 261918.400000
   6927   6928     1   0.12183 533627.360000
   6927   6929     1   0.12183 533627.360000
   6931   6934     1   0.15375 251793.120000
   6931   6959     1   0.14316 258236.480000
   6934   6937     1   0.15375 251793.120000
   6937   6940     1   0.14647 272713.120000
   6940   6941     1   0.14647 272713.120000
   6940   6950     1   0.14647 272713.120000
   6941   6944     1   0.15375 251793.120000
   6944   6947     1   0.15241 261918.400000
   6947   6948     1   0.12183 533627.360000
   6947   6949     1   0.12183 533627.360000
   6950   6953     1   0.15375 251793.120000
   6953   6956     1   0.15241 261918.400000
   6956   6957     1   0.12183 533627.360000
   6956   6958     1   0.12183 533627.360000
   6960   6963     1   0.15375 251793.120000
   6960   6988     1   0.14316 258236.480000
   6963   6966     1   0.15375 251793.120000
   6966   6969     1   0.14647 272713.120000
   6969   6970     1   0.14647 272713.120000
   6969   6979     1   0.14647 272713.120000
   6970   6973     1   0.15375 251793.120000
   6973   6976     1   0.15241 261918.400000
   6976   6977     1   0.12183 533627.360000
   6976   6978     1   0.12183 533627.360000
   6979   6982     1   0.15375 251793.120000
   6982   6985     1   0.15241 261918.400000
   6985   6986     1   0.12183 533627.360000
   6985   6987     1   0.12183 533627.360000
   6989   6992     1   0.15375 251793.120000
   6989   7017     1   0.14316 258236.480000
   6992   6995     1   0.15375 251793.120000
   6995   6998     1   0.14647 272713.120000
   6998   6999     1   0.14647 272713.120000
   6998   7008     1   0.14647 272713.120000
   6999   7002     1   0.15375 251793.120000
   7002   7005     1   0.15241 261918.400000
   7005   7006     1   0.12183 533627.360000
   7005   7007     1   0.12183 533627.360000
   7008   7011     1   0.15375 251793.120000
   7011   7014     1   0.15241 261918.400000
   7014   7015     1   0.12183 533627.360000
   7014   7016     1   0.12183 533627.360000
   7018   7021     1   0.15375 251793.120000
   7018   7046     1   0.14316 258236.480000
   7021   7024     1   0.15375 251793.120000
   7024   7027     1   0.14647 272713.120000
   7027   7028     1   0.14647 272713.120000
   7027   7037     1   0.14647 272713.120000
   7028   7031     1   0.15375 251793.120000
   7031   7034     1   0.15241 261918.400000
   7034   7035     1   0.12183 533627.360000
   7034   7036     1   0.12183 533627.360000
   7037   7040     1   0.15375 251793.120000
   7040   7043     1   0.15241 261918.400000
   7043   7044     1   0.12183 533627.360000
   7043   7045     1   0.12183 533627.360000
   7047   7050     1   0.15375 251793.120000
   7047   7075     1   0.14316 258236.480000
   7050   7053     1   0.15375 251793.120000
   7053   7056     1   0.14647 272713.120000
   7056   7057     1   0.14647 272713.120000
   7056   7066     1   0.14647 272713.120000
   7057   7060     1   0.15375 251793.120000
   7060   7063     1   0.15241 261918.400000
   7063   7064     1   0.12183 533627.360000
   7063   7065     1   0.12183 533627.360000
   7066   7069     1   0.15375 251793.120000
   7069   7072     1   0.15241 261918.400000
   7072   7073     1   0.12183 533627.360000
   7072   7074     1   0.12183 533627.360000
   7076   7079     1   0.15375 251793.120000
   7076   7104     1   0.14316 258236.480000
   7079   7082     1   0.15375 251793.120000
   7082   7085     1   0.14647 272713.120000
   7085   7086     1   0.14647 272713.120000
   7085   7095     1   0.14647 272713.120000
   7086   7089     1   0.15375 251793.120000
   7089   7092     1   0.15241 261918.400000
   7092   7093     1   0.12183 533627.360000
   7092   7094     1   0.12183 533627.360000
   7095   7098     1   0.15375 251793.120000
   7098   7101     1   0.15241 261918.400000
   7101   7102     1   0.12183 533627.360000
   7101   7103     1   0.12183 533627.360000
   7105   7108     1   0.15375 251793.120000
   7105   7133     1   0.14316 258236.480000
   7108   7111     1   0.15375 251793.120000
   7111   7114     1   0.14647 272713.120000
   7114   7115     1   0.14647 272713.120000
   7114   7124     1   0.14647 272713.120000
   7115   7118     1   0.15375 251793.120000
   7118   7121     1   0.15241 261918.400000
   7121   7122     1   0.12183 533627.360000
   7121   7123     1   0.12183 533627.360000
   7124   7127     1   0.15375 251793.120000
   7127   7130     1   0.15241 261918.400000
   7130   7131     1   0.12183 533627.360000
   7130   7132     1   0.12183 533627.360000
   7134   7137     1   0.15375 251793.120000
   7134   7162     1   0.14316 258236.480000
   7137   7140     1   0.15375 251793.120000
   7140   7143     1   0.14647 272713.120000
   7143   7144     1   0.14647 272713.120000
   7143   7153     1   0.14647 272713.120000
   7144   7147     1   0.15375 251793.120000
   7147   7150     1   0.15241 261918.400000
   7150   7151     1   0.12183 533627.360000
   7150   7152     1   0.12183 533627.360000
   7153   7156     1   0.15375 251793.120000
   7156   7159     1   0.15241 261918.400000
   7159   7160     1   0.12183 533627.360000
   7159   7161     1   0.12183 533627.360000
   7163   7166     1   0.15375 251793.120000
   7163   7191     1   0.14316 258236.480000
   7166   7169     1   0.15375 251793.120000
   7169   7172     1   0.14647 272713.120000
   7172   7173     1   0.14647 272713.120000
   7172   7182     1   0.14647 272713.120000
   7173   7176     1   0.15375 251793.120000
   7176   7179     1   0.15241 261918.400000
   7179   7180     1   0.12183 533627.360000
   7179   7181     1   0.12183 533627.360000
   7182   7185     1   0.15375 251793.120000
   7185   7188     1   0.15241 261918.400000
   7188   7189     1   0.12183 533627.360000
   7188   7190     1   0.12183 533627.360000
   7192   7195     1   0.15375 251793.120000
   7192   7220     1   0.14316 258236.480000
   7195   7198     1   0.15375 251793.120000
   7198   7201     1   0.14647 272713.120000
   7201   7202     1   0.14647 272713.120000
   7201   7211     1   0.14647 272713.120000
   7202   7205     1   0.15375 251793.120000
   7205   7208     1   0.15241 261918.400000
   7208   7209     1   0.12183 533627.360000
   7208   7210     1   0.12183 533627.360000
   7211   7214     1   0.15375 251793.120000
   7214   7217     1   0.15241 261918.400000
   7217   7218     1   0.12183 533627.360000
   7217   7219     1   0.12183 533627.360000
   7221   7224     1   0.15375 251793.120000
   7221   7249     1   0.14316 258236.480000
   7224   7227     1   0.15375 251793.120000
   7227   7230     1   0.14647 272713.120000
   7230   7231     1   0.14647 272713.120000
   7230   7240     1   0.14647 272713.120000
   7231   7234     1   0.15375 251793.120000
   7234   7237     1   0.15241 261918.400000
   7237   7238     1   0.12183 533627.360000
   7237   7239     1   0.12183 533627.360000
   7240   7243     1   0.15375 251793.120000
   7243   7246     1   0.15241 261918.400000
   7246   7247     1   0.12183 533627.360000
   7246   7248     1   0.12183 533627.360000
   7250   7253     1   0.15375 251793.120000
   7250   7278     1   0.14316 258236.480000
   7253   7256     1   0.15375 251793.120000
   7256   7259     1   0.14647 272713.120000
   7259   7260     1   0.14647 272713.120000
   7259   7269     1   0.14647 272713.120000
   7260   7263     1   0.15375 251793.120000
   7263   7266     1   0.15241 261918.400000
   7266   7267     1   0.12183 533627.360000
   7266   7268     1   0.12183 533627.360000
   7269   7272     1   0.15375 251793.120000
   7272   7275     1   0.15241 261918.400000
   7275   7276     1   0.12183 533627.360000
   7275   7277     1   0.12183 533627.360000
   7279   7282     1   0.15375 251793.120000
   7279   7307     1   0.14316 258236.480000
   7282   7285     1   0.15375 251793.120000
   7285   7288     1   0.14647 272713.120000
   7288   7289     1   0.14647 272713.120000
   7288   7298     1   0.14647 272713.120000
   7289   7292     1   0.15375 251793.120000
   7292   7295     1   0.15241 261918.400000
   7295   7296     1   0.12183 533627.360000
   7295   7297     1   0.12183 533627.360000
   7298   7301     1   0.15375 251793.120000
   7301   7304     1   0.15241 261918.400000
   7304   7305     1   0.12183 533627.360000
   7304   7306     1   0.12183 533627.360000
   7308   7311     1   0.15375 251793.120000
   7308   7336     1   0.14316 258236.480000
   7311   7314     1   0.15375 251793.120000
   7314   7317     1   0.14647 272713.120000
   7317   7318     1   0.14647 272713.120000
   7317   7327     1   0.14647 272713.120000
   7318   7321     1   0.15375 251793.120000
   7321   7324     1   0.15241 261918.400000
   7324   7325     1   0.12183 533627.360000
   7324   7326     1   0.12183 533627.360000
   7327   7330     1   0.15375 251793.120000
   7330   7333     1   0.15241 261918.400000
   7333   7334     1   0.12183 533627.360000
   7333   7335     1   0.12183 533627.360000
   7337   7340     1   0.15375 251793.120000
   7337   7365     1   0.14316 258236.480000
   7340   7343     1   0.15375 251793.120000
   7343   7346     1   0.14647 272713.120000
   7346   7347     1   0.14647 272713.120000
   7346   7356     1   0.14647 272713.120000
   7347   7350     1   0.15375 251793.120000
   7350   7353     1   0.15241 261918.400000
   7353   7354     1   0.12183 533627.360000
   7353   7355     1   0.12183 533627.360000
   7356   7359     1   0.15375 251793.120000
   7359   7362     1   0.15241 261918.400000
   7362   7363     1   0.12183 533627.360000
   7362   7364     1   0.12183 533627.360000
      2      3     1   0.10969 276646.080000
      2      4     1   0.10969 276646.080000
      5      6     1   0.10969 276646.080000
      5      7     1   0.10969 276646.080000
      8      9     1   0.10969 276646.080000
      8     10     1   0.10969 276646.080000
     11     12     1   0.10969 276646.080000
     11     13     1   0.10969 276646.080000
     14     15     1   0.10969 276646.080000
     14     16     1   0.10969 276646.080000
     17     18     1   0.10969 276646.080000
     17     19     1   0.10969 276646.080000
     22     23     1   0.10969 276646.080000
     22     24     1   0.10969 276646.080000
     25     26     1   0.10969 276646.080000
     25     27     1   0.10969 276646.080000
     28     29     1   0.10969 276646.080000
     28     30     1   0.10969 276646.080000
     31     32     1   0.10969 276646.080000
     31     33     1   0.10969 276646.080000
     34     35     1   0.10969 276646.080000
     34     36     1   0.10969 276646.080000
     37     38     1   0.10969 276646.080000
     37     39     1   0.10969 276646.080000
     40     41     1   0.10969 276646.080000
     40     42     1   0.10969 276646.080000
     43     44     1   0.10969 276646.080000
     43     45     1   0.10969 276646.080000
     46     47     1   0.10969 276646.080000
     46     48     1   0.10969 276646.080000
     49     50     1   0.10969 276646.080000
     49     51     1   0.10969 276646.080000
     52     53     1   0.10969 276646.080000
     52     54     1   0.10969 276646.080000
     55     56     1   0.10969 276646.080000
     55     57     1   0.10969 276646.080000
     59     60     1   0.10969 276646.080000
     59     61     1   0.10969 276646.080000
     62     63     1   0.10969 276646.080000
     62     64     1   0.10969 276646.080000
     65     66     1   0.10969 276646.080000
     65     67     1   0.10969 276646.080000
     68     69     1   0.10969 276646.080000
     68     70     1   0.10969 276646.080000
     71     72     1   0.10969 276646.080000
     71     73     1   0.10969 276646.080000
     74     75     1   0.10969 276646.080000
     74     76     1   0.10969 276646.080000
     77     78     1   0.10969 276646.080000
     77     79     1   0.10969 276646.080000
     80     81     1   0.10969 276646.080000
     80     82     1   0.10969 276646.080000
     83     84     1   0.10969 276646.080000
     83     85     1   0.10969 276646.080000
     88     89     1   0.10969 276646.080000
     88     90     1   0.10969 276646.080000
     91     92     1   0.10969 276646.080000
     91     93     1   0.10969 276646.080000
     94     95     1   0.10969 276646.080000
     94     96     1   0.10969 276646.080000
     97     98     1   0.10969 276646.080000
     97     99     1   0.10969 276646.080000
    100    101     1   0.10969 276646.080000
    100    102     1   0.10969 276646.080000
    103    104     1   0.10969 276646.080000
    103    105     1   0.10969 276646.080000
    106    107     1   0.10969 276646.080000
    106    108     1   0.10969 276646.080000
    109    110     1   0.10969 276646.080000
    109    111     1   0.10969 276646.080000
    112    113     1   0.10969 276646.080000
    112    114     1   0.10969 276646.080000
    117    118     1   0.10969 276646.080000
    117    119     1   0.10969 276646.080000
    120    121     1   0.10969 276646.080000
    120    122     1   0.10969 276646.080000
    123    124     1   0.10969 276646.080000
    123    125     1   0.10969 276646.080000
    126    127     1   0.10969 276646.080000
    126    128     1   0.10969 276646.080000
    129    130     1   0.10969 276646.080000
    129    131     1   0.10969 276646.080000
    132    133     1   0.10969 276646.080000
    132    134     1   0.10969 276646.080000
    135    136     1   0.10969 276646.080000
    135    137     1   0.10969 276646.080000
    138    139     1   0.10969 276646.080000
    138    140     1   0.10969 276646.080000
    141    142     1   0.10969 276646.080000
    141    143     1   0.10969 276646.080000
    146    147     1   0.10969 276646.080000
    146    148     1   0.10969 276646.080000
    149    150     1   0.10969 276646.080000
    149    151     1   0.10969 276646.080000
    152    153     1   0.10969 276646.080000
    152    154     1   0.10969 276646.080000
    155    156     1   0.10969 276646.080000
    155    157     1   0.10969 276646.080000
    158    159     1   0.10969 276646.080000
    158    160     1   0.10969 276646.080000
    161    162     1   0.10969 276646.080000
    161    163     1   0.10969 276646.080000
    164    165     1   0.10969 276646.080000
    164    166     1   0.10969 276646.080000
    167    168     1   0.10969 276646.080000
    167    169     1   0.10969 276646.080000
    170    171     1   0.10969 276646.080000
    170    172     1   0.10969 276646.080000
    175    176     1   0.10969 276646.080000
    175    177     1   0.10969 276646.080000
    178    179     1   0.10969 276646.080000
    178    180     1   0.10969 276646.080000
    181    182     1   0.10969 276646.080000
    181    183     1   0.10969 276646.080000
    184    185     1   0.10969 276646.080000
    184    186     1   0.10969 276646.080000
    187    188     1   0.10969 276646.080000
    187    189     1   0.10969 276646.080000
    190    191     1   0.10969 276646.080000
    190    192     1   0.10969 276646.080000
    193    194     1   0.10969 276646.080000
    193    195     1   0.10969 276646.080000
    196    197     1   0.10969 276646.080000
    196    198     1   0.10969 276646.080000
    199    200     1   0.10969 276646.080000
    199    201     1   0.10969 276646.080000
    204    205     1   0.10969 276646.080000
    204    206     1   0.10969 276646.080000
    207    208     1   0.10969 276646.080000
    207    209     1   0.10969 276646.080000
    210    211     1   0.10969 276646.080000
    210    212     1   0.10969 276646.080000
    213    214     1   0.10969 276646.080000
    213    215     1   0.10969 276646.080000
    216    217     1   0.10969 276646.080000
    216    218     1   0.10969 276646.080000
    219    220     1   0.10969 276646.080000
    219    221     1   0.10969 276646.080000
    222    223     1   0.10969 276646.080000
    222    224     1   0.10969 276646.080000
    225    226     1   0.10969 276646.080000
    225    227     1   0.10969 276646.080000
    228    229     1   0.10969 276646.080000
    228    230     1   0.10969 276646.080000
    233    234     1   0.10969 276646.080000
    233    235     1   0.10969 276646.080000
    236    237     1   0.10969 276646.080000
    236    238     1   0.10969 276646.080000
    239    240     1   0.10969 276646.080000
    239    241     1   0.10969 276646.080000
    242    243     1   0.10969 276646.080000
    242    244     1   0.10969 276646.080000
    245    246     1   0.10969 276646.080000
    245    247     1   0.10969 276646.080000
    248    249     1   0.10969 276646.080000
    248    250     1   0.10969 276646.080000
    251    252     1   0.10969 276646.080000
    251    253     1   0.10969 276646.080000
    254    255     1   0.10969 276646.080000
    254    256     1   0.10969 276646.080000
    257    258     1   0.10969 276646.080000
    257    259     1   0.10969 276646.080000
    262    263     1   0.10969 276646.080000
    262    264     1   0.10969 276646.080000
    265    266     1   0.10969 276646.080000
    265    267     1   0.10969 276646.080000
    268    269     1   0.10969 276646.080000
    268    270     1   0.10969 276646.080000
    271    272     1   0.10969 276646.080000
    271    273     1   0.10969 276646.080000
    274    275     1   0.10969 276646.080000
    274    276     1   0.10969 276646.080000
    277    278     1   0.10969 276646.080000
    277    279     1   0.10969 276646.080000
    280    281     1   0.10969 276646.080000
    280    282     1   0.10969 276646.080000
    283    284     1   0.10969 276646.080000
    283    285     1   0.10969 276646.080000
    286    287     1   0.10969 276646.080000
    286    288     1   0.10969 276646.080000
    291    292     1   0.10969 276646.080000
    291    293     1   0.10969 276646.080000
    294    295     1   0.10969 276646.080000
    294    296     1   0.10969 276646.080000
    297    298     1   0.10969 276646.080000
    297    299     1   0.10969 276646.080000
    300    301     1   0.10969 276646.080000
    300    302     1   0.10969 276646.080000
    303    304     1   0.10969 276646.080000
    303    305     1   0.10969 276646.080000
    306    307     1   0.10969 276646.080000
    306    308     1   0.10969 276646.080000
    309    310     1   0.10969 276646.080000
    309    311     1   0.10969 276646.080000
    312    313     1   0.10969 276646.080000
    312    314     1   0.10969 276646.080000
    315    316     1   0.10969 276646.080000
    315    317     1   0.10969 276646.080000
    320    321     1   0.10969 276646.080000
    320    322     1   0.10969 276646.080000
    323    324     1   0.10969 276646.080000
    323    325     1   0.10969 276646.080000
    326    327     1   0.10969 276646.080000
    326    328     1   0.10969 276646.080000
    329    330     1   0.10969 276646.080000
    329    331     1   0.10969 276646.080000
    332    333     1   0.10969 276646.080000
    332    334     1   0.10969 276646.080000
    335    336     1   0.10969 276646.080000
    335    337     1   0.10969 276646.080000
    338    339     1   0.10969 276646.080000
    338    340     1   0.10969 276646.080000
    341    342     1   0.10969 276646.080000
    341    343     1   0.10969 276646.080000
    344    345     1   0.10969 276646.080000
    344    346     1   0.10969 276646.080000
    349    350     1   0.10969 276646.080000
    349    351     1   0.10969 276646.080000
    352    353     1   0.10969 276646.080000
    352    354     1   0.10969 276646.080000
    355    356     1   0.10969 276646.080000
    355    357     1   0.10969 276646.080000
    358    359     1   0.10969 276646.080000
    358    360     1   0.10969 276646.080000
    361    362     1   0.10969 276646.080000
    361    363     1   0.10969 276646.080000
    364    365     1   0.10969 276646.080000
    364    366     1   0.10969 276646.080000
    367    368     1   0.10969 276646.080000
    367    369     1   0.10969 276646.080000
    370    371     1   0.10969 276646.080000
    370    372     1   0.10969 276646.080000
    373    374     1   0.10969 276646.080000
    373    375     1   0.10969 276646.080000
    378    379     1   0.10969 276646.080000
    378    380     1   0.10969 276646.080000
    381    382     1   0.10969 276646.080000
    381    383     1   0.10969 276646.080000
    384    385     1   0.10969 276646.080000
    384    386     1   0.10969 276646.080000
    387    388     1   0.10969 276646.080000
    387    389     1   0.10969 276646.080000
    390    391     1   0.10969 276646.080000
    390    392     1   0.10969 276646.080000
    393    394     1   0.10969 276646.080000
    393    395     1   0.10969 276646.080000
    396    397     1   0.10969 276646.080000
    396    398     1   0.10969 276646.080000
    399    400     1   0.10969 276646.080000
    399    401     1   0.10969 276646.080000
    402    403     1   0.10969 276646.080000
    402    404     1   0.10969 276646.080000
    407    408     1   0.10969 276646.080000
    407    409     1   0.10969 276646.080000
    410    411     1   0.10969 276646.080000
    410    412     1   0.10969 276646.080000
    413    414     1   0.10969 276646.080000
    413    415     1   0.10969 276646.080000
    416    417     1   0.10969 276646.080000
    416    418     1   0.10969 276646.080000
    419    420     1   0.10969 276646.080000
    419    421     1   0.10969 276646.080000
    422    423     1   0.10969 276646.080000
    422    424     1   0.10969 276646.080000
    425    426     1   0.10969 276646.080000
    425    427     1   0.10969 276646.080000
    428    429     1   0.10969 276646.080000
    428    430     1   0.10969 276646.080000
    431    432     1   0.10969 276646.080000
    431    433     1   0.10969 276646.080000
    436    437     1   0.10969 276646.080000
    436    438     1   0.10969 276646.080000
    439    440     1   0.10969 276646.080000
    439    441     1   0.10969 276646.080000
    442    443     1   0.10969 276646.080000
    442    444     1   0.10969 276646.080000
    445    446     1   0.10969 276646.080000
    445    447     1   0.10969 276646.080000
    448    449     1   0.10969 276646.080000
    448    450     1   0.10969 276646.080000
    451    452     1   0.10969 276646.080000
    451    453     1   0.10969 276646.080000
    454    455     1   0.10969 276646.080000
    454    456     1   0.10969 276646.080000
    457    458     1   0.10969 276646.080000
    457    459     1   0.10969 276646.080000
    460    461     1   0.10969 276646.080000
    460    462     1   0.10969 276646.080000
    465    466     1   0.10969 276646.080000
    465    467     1   0.10969 276646.080000
    468    469     1   0.10969 276646.080000
    468    470     1   0.10969 276646.080000
    471    472     1   0.10969 276646.080000
    471    473     1   0.10969 276646.080000
    474    475     1   0.10969 276646.080000
    474    476     1   0.10969 276646.080000
    477    478     1   0.10969 276646.080000
    477    479     1   0.10969 276646.080000
    480    481     1   0.10969 276646.080000
    480    482     1   0.10969 276646.080000
    483    484     1   0.10969 276646.080000
    483    485     1   0.10969 276646.080000
    486    487     1   0.10969 276646.080000
    486    488     1   0.10969 276646.080000
    489    490     1   0.10969 276646.080000
    489    491     1   0.10969 276646.080000
    494    495     1   0.10969 276646.080000
    494    496     1   0.10969 276646.080000
    497    498     1   0.10969 276646.080000
    497    499     1   0.10969 276646.080000
    500    501     1   0.10969 276646.080000
    500    502     1   0.10969 276646.080000
    503    504     1   0.10969 276646.080000
    503    505     1   0.10969 276646.080000
    506    507     1   0.10969 276646.080000
    506    508     1   0.10969 276646.080000
    509    510     1   0.10969 276646.080000
    509    511     1   0.10969 276646.080000
    512    513     1   0.10969 276646.080000
    512    514     1   0.10969 276646.080000
    515    516     1   0.10969 276646.080000
    515    517     1   0.10969 276646.080000
    518    519     1   0.10969 276646.080000
    518    520     1   0.10969 276646.080000
    523    524     1   0.10969 276646.080000
    523    525     1   0.10969 276646.080000
    526    527     1   0.10969 276646.080000
    526    528     1   0.10969 276646.080000
    529    530     1   0.10969 276646.080000
    529    531     1   0.10969 276646.080000
    532    533     1   0.10969 276646.080000
    532    534     1   0.10969 276646.080000
    535    536     1   0.10969 276646.080000
    535    537     1   0.10969 276646.080000
    538    539     1   0.10969 276646.080000
    538    540     1   0.10969 276646.080000
    541    542     1   0.10969 276646.080000
    541    543     1   0.10969 276646.080000
    544    545     1   0.10969 276646.080000
    544    546     1   0.10969 276646.080000
    547    548     1   0.10969 276646.080000
    547    549     1   0.10969 276646.080000
    552    553     1   0.10969 276646.080000
    552    554     1   0.10969 276646.080000
    555    556     1   0.10969 276646.080000
    555    557     1   0.10969 276646.080000
    558    559     1   0.10969 276646.080000
    558    560     1   0.10969 276646.080000
    561    562     1   0.10969 276646.080000
    561    563     1   0.10969 276646.080000
    564    565     1   0.10969 276646.080000
    564    566     1   0.10969 276646.080000
    567    568     1   0.10969 276646.080000
    567    569     1   0.10969 276646.080000
    570    571     1   0.10969 276646.080000
    570    572     1   0.10969 276646.080000
    573    574     1   0.10969 276646.080000
    573    575     1   0.10969 276646.080000
    576    577     1   0.10969 276646.080000
    576    578     1   0.10969 276646.080000
    581    582     1   0.10969 276646.080000
    581    583     1   0.10969 276646.080000
    584    585     1   0.10969 276646.080000
    584    586     1   0.10969 276646.080000
    587    588     1   0.10969 276646.080000
    587    589     1   0.10969 276646.080000
    590    591     1   0.10969 276646.080000
    590    592     1   0.10969 276646.080000
    593    594     1   0.10969 276646.080000
    593    595     1   0.10969 276646.080000
    596    597     1   0.10969 276646.080000
    596    598     1   0.10969 276646.080000
    599    600     1   0.10969 276646.080000
    599    601     1   0.10969 276646.080000
    602    603     1   0.10969 276646.080000
    602    604     1   0.10969 276646.080000
    605    606     1   0.10969 276646.080000
    605    607     1   0.10969 276646.080000
    610    611     1   0.10969 276646.080000
    610    612     1   0.10969 276646.080000
    613    614     1   0.10969 276646.080000
    613    615     1   0.10969 276646.080000
    616    617     1   0.10969 276646.080000
    616    618     1   0.10969 276646.080000
    619    620     1   0.10969 276646.080000
    619    621     1   0.10969 276646.080000
    622    623     1   0.10969 276646.080000
    622    624     1   0.10969 276646.080000
    625    626     1   0.10969 276646.080000
    625    627     1   0.10969 276646.080000
    628    629     1   0.10969 276646.080000
    628    630     1   0.10969 276646.080000
    631    632     1   0.10969 276646.080000
    631    633     1   0.10969 276646.080000
    634    635     1   0.10969 276646.080000
    634    636     1   0.10969 276646.080000
    639    640     1   0.10969 276646.080000
    639    641     1   0.10969 276646.080000
    642    643     1   0.10969 276646.080000
    642    644     1   0.10969 276646.080000
    645    646     1   0.10969 276646.080000
    645    647     1   0.10969 276646.080000
    648    649     1   0.10969 276646.080000
    648    650     1   0.10969 276646.080000
    651    652     1   0.10969 276646.080000
    651    653     1   0.10969 276646.080000
    654    655     1   0.10969 276646.080000
    654    656     1   0.10969 276646.080000
    657    658     1   0.10969 276646.080000
    657    659     1   0.10969 276646.080000
    660    661     1   0.10969 276646.080000
    660    662     1   0.10969 276646.080000
    663    664     1   0.10969 276646.080000
    663    665     1   0.10969 276646.080000
    668    669     1   0.10969 276646.080000
    668    670     1   0.10969 276646.080000
    671    672     1   0.10969 276646.080000
    671    673     1   0.10969 276646.080000
    674    675     1   0.10969 276646.080000
    674    676     1   0.10969 276646.080000
    677    678     1   0.10969 276646.080000
    677    679     1   0.10969 276646.080000
    680    681     1   0.10969 276646.080000
    680    682     1   0.10969 276646.080000
    683    684     1   0.10969 276646.080000
    683    685     1   0.10969 276646.080000
    686    687     1   0.10969 276646.080000
    686    688     1   0.10969 276646.080000
    689    690     1   0.10969 276646.080000
    689    691     1   0.10969 276646.080000
    692    693     1   0.10969 276646.080000
    692    694     1   0.10969 276646.080000
    697    698     1   0.10969 276646.080000
    697    699     1   0.10969 276646.080000
    700    701     1   0.10969 276646.080000
    700    702     1   0.10969 276646.080000
    703    704     1   0.10969 276646.080000
    703    705     1   0.10969 276646.080000
    706    707     1   0.10969 276646.080000
    706    708     1   0.10969 276646.080000
    709    710     1   0.10969 276646.080000
    709    711     1   0.10969 276646.080000
    712    713     1   0.10969 276646.080000
    712    714     1   0.10969 276646.080000
    715    716     1   0.10969 276646.080000
    715    717     1   0.10969 276646.080000
    718    719     1   0.10969 276646.080000
    718    720     1   0.10969 276646.080000
    721    722     1   0.10969 276646.080000
    721    723     1   0.10969 276646.080000
    726    727     1   0.10969 276646.080000
    726    728     1   0.10969 276646.080000
    729    730     1   0.10969 276646.080000
    729    731     1   0.10969 276646.080000
    732    733     1   0.10969 276646.080000
    732    734     1   0.10969 276646.080000
    735    736     1   0.10969 276646.080000
    735    737     1   0.10969 276646.080000
    738    739     1   0.10969 276646.080000
    738    740     1   0.10969 276646.080000
    741    742     1   0.10969 276646.080000
    741    743     1   0.10969 276646.080000
    744    745     1   0.10969 276646.080000
    744    746     1   0.10969 276646.080000
    747    748     1   0.10969 276646.080000
    747    749     1   0.10969 276646.080000
    750    751     1   0.10969 276646.080000
    750    752     1   0.10969 276646.080000
    755    756     1   0.10969 276646.080000
    755    757     1   0.10969 276646.080000
    758    759     1   0.10969 276646.080000
    758    760     1   0.10969 276646.080000
    761    762     1   0.10969 276646.080000
    761    763     1   0.10969 276646.080000
    764    765     1   0.10969 276646.080000
    764    766     1   0.10969 276646.080000
    767    768     1   0.10969 276646.080000
    767    769     1   0.10969 276646.080000
    770    771     1   0.10969 276646.080000
    770    772     1   0.10969 276646.080000
    773    774     1   0.10969 276646.080000
    773    775     1   0.10969 276646.080000
    776    777     1   0.10969 276646.080000
    776    778     1   0.10969 276646.080000
    779    780     1   0.10969 276646.080000
    779    781     1   0.10969 276646.080000
    784    785     1   0.10969 276646.080000
    784    786     1   0.10969 276646.080000
    787    788     1   0.10969 276646.080000
    787    789     1   0.10969 276646.080000
    790    791     1   0.10969 276646.080000
    790    792     1   0.10969 276646.080000
    793    794     1   0.10969 276646.080000
    793    795     1   0.10969 276646.080000
    796    797     1   0.10969 276646.080000
    796    798     1   0.10969 276646.080000
    799    800     1   0.10969 276646.080000
    799    801     1   0.10969 276646.080000
    802    803     1   0.10969 276646.080000
    802    804     1   0.10969 276646.080000
    805    806     1   0.10969 276646.080000
    805    807     1   0.10969 276646.080000
    808    809     1   0.10969 276646.080000
    808    810     1   0.10969 276646.080000
    813    814     1   0.10969 276646.080000
    813    815     1   0.10969 276646.080000
    816    817     1   0.10969 276646.080000
    816    818     1   0.10969 276646.080000
    819    820     1   0.10969 276646.080000
    819    821     1   0.10969 276646.080000
    822    823     1   0.10969 276646.080000
    822    824     1   0.10969 276646.080000
    825    826     1   0.10969 276646.080000
    825    827     1   0.10969 276646.080000
    828    829     1   0.10969 276646.080000
    828    830     1   0.10969 276646.080000
    831    832     1   0.10969 276646.080000
    831    833     1   0.10969 276646.080000
    834    835     1   0.10969 276646.080000
    834    836     1   0.10969 276646.080000
    837    838     1   0.10969 276646.080000
    837    839     1   0.10969 276646.080000
    842    843     1   0.10969 276646.080000
    842    844     1   0.10969 276646.080000
    845    846     1   0.10969 276646.080000
    845    847     1   0.10969 276646.080000
    848    849     1   0.10969 276646.080000
    848    850     1   0.10969 276646.080000
    851    852     1   0.10969 276646.080000
    851    853     1   0.10969 276646.080000
    854    855     1   0.10969 276646.080000
    854    856     1   0.10969 276646.080000
    857    858     1   0.10969 276646.080000
    857    859     1   0.10969 276646.080000
    860    861     1   0.10969 276646.080000
    860    862     1   0.10969 276646.080000
    863    864     1   0.10969 276646.080000
    863    865     1   0.10969 276646.080000
    866    867     1   0.10969 276646.080000
    866    868     1   0.10969 276646.080000
    871    872     1   0.10969 276646.080000
    871    873     1   0.10969 276646.080000
    874    875     1   0.10969 276646.080000
    874    876     1   0.10969 276646.080000
    877    878     1   0.10969 276646.080000
    877    879     1   0.10969 276646.080000
    880    881     1   0.10969 276646.080000
    880    882     1   0.10969 276646.080000
    883    884     1   0.10969 276646.080000
    883    885     1   0.10969 276646.080000
    886    887     1   0.10969 276646.080000
    886    888     1   0.10969 276646.080000
    889    890     1   0.10969 276646.080000
    889    891     1   0.10969 276646.080000
    892    893     1   0.10969 276646.080000
    892    894     1   0.10969 276646.080000
    895    896     1   0.10969 276646.080000
    895    897     1   0.10969 276646.080000
    900    901     1   0.10969 276646.080000
    900    902     1   0.10969 276646.080000
    903    904     1   0.10969 276646.080000
    903    905     1   0.10969 276646.080000
    906    907     1   0.10969 276646.080000
    906    908     1   0.10969 276646.080000
    909    910     1   0.10969 276646.080000
    909    911     1   0.10969 276646.080000
    912    913     1   0.10969 276646.080000
    912    914     1   0.10969 276646.080000
    915    916     1   0.10969 276646.080000
    915    917     1   0.10969 276646.080000
    918    919     1   0.10969 276646.080000
    918    920     1   0.10969 276646.080000
    921    922     1   0.10969 276646.080000
    921    923     1   0.10969 276646.080000
    924    925     1   0.10969 276646.080000
    924    926     1   0.10969 276646.080000
    929    930     1   0.10969 276646.080000
    929    931     1   0.10969 276646.080000
    932    933     1   0.10969 276646.080000
    932    934     1   0.10969 276646.080000
    935    936     1   0.10969 276646.080000
    935    937     1   0.10969 276646.080000
    938    939     1   0.10969 276646.080000
    938    940     1   0.10969 276646.080000
    941    942     1   0.10969 276646.080000
    941    943     1   0.10969 276646.080000
    944    945     1   0.10969 276646.080000
    944    946     1   0.10969 276646.080000
    947    948     1   0.10969 276646.080000
    947    949     1   0.10969 276646.080000
    950    951     1   0.10969 276646.080000
    950    952     1   0.10969 276646.080000
    953    954     1   0.10969 276646.080000
    953    955     1   0.10969 276646.080000
    958    959     1   0.10969 276646.080000
    958    960     1   0.10969 276646.080000
    961    962     1   0.10969 276646.080000
    961    963     1   0.10969 276646.080000
    964    965     1   0.10969 276646.080000
    964    966     1   0.10969 276646.080000
    967    968     1   0.10969 276646.080000
    967    969     1   0.10969 276646.080000
    970    971     1   0.10969 276646.080000
    970    972     1   0.10969 276646.080000
    973    974     1   0.10969 276646.080000
    973    975     1   0.10969 276646.080000
    976    977     1   0.10969 276646.080000
    976    978     1   0.10969 276646.080000
    979    980     1   0.10969 276646.080000
    979    981     1   0.10969 276646.080000
    982    983     1   0.10969 276646.080000
    982    984     1   0.10969 276646.080000
    987    988     1   0.10969 276646.080000
    987    989     1   0.10969 276646.080000
    990    991     1   0.10969 276646.080000
    990    992     1   0.10969 276646.080000
    993    994     1   0.10969 276646.080000
    993    995     1   0.10969 276646.080000
    996    997     1   0.10969 276646.080000
    996    998     1   0.10969 276646.080000
    999   1000     1   0.10969 276646.080000
    999   1001     1   0.10969 276646.080000
   1002   1003     1   0.10969 276646.080000
   1002   1004     1   0.10969 276646.080000
   1005   1006     1   0.10969 276646.080000
   1005   1007     1   0.10969 276646.080000
   1008   1009     1   0.10969 276646.080000
   1008   1010     1   0.10969 276646.080000
   1011   1012     1   0.10969 276646.080000
   1011   1013     1   0.10969 276646.080000
   1016   1017     1   0.10969 276646.080000
   1016   1018     1   0.10969 276646.080000
   1019   1020     1   0.10969 276646.080000
   1019   1021     1   0.10969 276646.080000
   1022   1023     1   0.10969 276646.080000
   1022   1024     1   0.10969 276646.080000
   1025   1026     1   0.10969 276646.080000
   1025   1027     1   0.10969 276646.080000
   1028   1029     1   0.10969 276646.080000
   1028   1030     1   0.10969 276646.080000
   1031   1032     1   0.10969 276646.080000
   1031   1033     1   0.10969 276646.080000
   1034   1035     1   0.10969 276646.080000
   1034   1036     1   0.10969 276646.080000
   1037   1038     1   0.10969 276646.080000
   1037   1039     1   0.10969 276646.080000
   1040   1041     1   0.10969 276646.080000
   1040   1042     1   0.10969 276646.080000
   1045   1046     1   0.10969 276646.080000
   1045   1047     1   0.10969 276646.080000
   1048   1049     1   0.10969 276646.080000
   1048   1050     1   0.10969 276646.080000
   1051   1052     1   0.10969 276646.080000
   1051   1053     1   0.10969 276646.080000
   1054   1055     1   0.10969 276646.080000
   1054   1056     1   0.10969 276646.080000
   1057   1058     1   0.10969 276646.080000
   1057   1059     1   0.10969 276646.080000
   1060   1061     1   0.10969 276646.080000
   1060   1062     1   0.10969 276646.080000
   1063   1064     1   0.10969 276646.080000
   1063   1065     1   0.10969 276646.080000
   1066   1067     1   0.10969 276646.080000
   1066   1068     1   0.10969 276646.080000
   1069   1070     1   0.10969 276646.080000
   1069   1071     1   0.10969 276646.080000
   1074   1075     1   0.10969 276646.080000
   1074   1076     1   0.10969 276646.080000
   1077   1078     1   0.10969 276646.080000
   1077   1079     1   0.10969 276646.080000
   1080   1081     1   0.10969 276646.080000
   1080   1082     1   0.10969 276646.080000
   1083   1084     1   0.10969 276646.080000
   1083   1085     1   0.10969 276646.080000
   1086   1087     1   0.10969 276646.080000
   1086   1088     1   0.10969 276646.080000
   1089   1090     1   0.10969 276646.080000
   1089   1091     1   0.10969 276646.080000
   1092   1093     1   0.10969 276646.080000
   1092   1094     1   0.10969 276646.080000
   1095   1096     1   0.10969 276646.080000
   1095   1097     1   0.10969 276646.080000
   1098   1099     1   0.10969 276646.080000
   1098   1100     1   0.10969 276646.080000
   1103   1104     1   0.10969 276646.080000
   1103   1105     1   0.10969 276646.080000
   1106   1107     1   0.10969 276646.080000
   1106   1108     1   0.10969 276646.080000
   1109   1110     1   0.10969 276646.080000
   1109   1111     1   0.10969 276646.080000
   1112   1113     1   0.10969 276646.080000
   1112   1114     1   0.10969 276646.080000
   1115   1116     1   0.10969 276646.080000
   1115   1117     1   0.10969 276646.080000
   1118   1119     1   0.10969 276646.080000
   1118   1120     1   0.10969 276646.080000
   1121   1122     1   0.10969 276646.080000
   1121   1123     1   0.10969 276646.080000
   1124   1125     1   0.10969 276646.080000
   1124   1126     1   0.10969 276646.080000
   1127   1128     1   0.10969 276646.080000
   1127   1129     1   0.10969 276646.080000
   1132   1133     1   0.10969 276646.080000
   1132   1134     1   0.10969 276646.080000
   1135   1136     1   0.10969 276646.080000
   1135   1137     1   0.10969 276646.080000
   1138   1139     1   0.10969 276646.080000
   1138   1140     1   0.10969 276646.080000
   1141   1142     1   0.10969 276646.080000
   1141   1143     1   0.10969 276646.080000
   1144   1145     1   0.10969 276646.080000
   1144   1146     1   0.10969 276646.080000
   1147   1148     1   0.10969 276646.080000
   1147   1149     1   0.10969 276646.080000
   1150   1151     1   0.10969 276646.080000
   1150   1152     1   0.10969 276646.080000
   1153   1154     1   0.10969 276646.080000
   1153   1155     1   0.10969 276646.080000
   1156   1157     1   0.10969 276646.080000
   1156   1158     1   0.10969 276646.080000
   1161   1162     1   0.10969 276646.080000
   1161   1163     1   0.10969 276646.080000
   1164   1165     1   0.10969 276646.080000
   1164   1166     1   0.10969 276646.080000
   1167   1168     1   0.10969 276646.080000
   1167   1169     1   0.10969 276646.080000
   1170   1171     1   0.10969 276646.080000
   1170   1172     1   0.10969 276646.080000
   1173   1174     1   0.10969 276646.080000
   1173   1175     1   0.10969 276646.080000
   1176   1177     1   0.10969 276646.080000
   1176   1178     1   0.10969 276646.080000
   1179   1180     1   0.10969 276646.080000
   1179   1181     1   0.10969 276646.080000
   1182   1183     1   0.10969 276646.080000
   1182   1184     1   0.10969 276646.080000
   1185   1186     1   0.10969 276646.080000
   1185   1187     1   0.10969 276646.080000
   1190   1191     1   0.10969 276646.080000
   1190   1192     1   0.10969 276646.080000
   1193   1194     1   0.10969 276646.080000
   1193   1195     1   0.10969 276646.080000
   1196   1197     1   0.10969 276646.080000
   1196   1198     1   0.10969 276646.080000
   1199   1200     1   0.10969 276646.080000
   1199   1201     1   0.10969 276646.080000
   1202   1203     1   0.10969 276646.080000
   1202   1204     1   0.10969 276646.080000
   1205   1206     1   0.10969 276646.080000
   1205   1207     1   0.10969 276646.080000
   1208   1209     1   0.10969 276646.080000
   1208   1210     1   0.10969 276646.080000
   1211   1212     1   0.10969 276646.080000
   1211   1213     1   0.10969 276646.080000
   1214   1215     1   0.10969 276646.080000
   1214   1216     1   0.10969 276646.080000
   1219   1220     1   0.10969 276646.080000
   1219   1221     1   0.10969 276646.080000
   1222   1223     1   0.10969 276646.080000
   1222   1224     1   0.10969 276646.080000
   1225   1226     1   0.10969 276646.080000
   1225   1227     1   0.10969 276646.080000
   1228   1229     1   0.10969 276646.080000
   1228   1230     1   0.10969 276646.080000
   1231   1232     1   0.10969 276646.080000
   1231   1233     1   0.10969 276646.080000
   1234   1235     1   0.10969 276646.080000
   1234   1236     1   0.10969 276646.080000
   1237   1238     1   0.10969 276646.080000
   1237   1239     1   0.10969 276646.080000
   1240   1241     1   0.10969 276646.080000
   1240   1242     1   0.10969 276646.080000
   1243   1244     1   0.10969 276646.080000
   1243   1245     1   0.10969 276646.080000
   1248   1249     1   0.10969 276646.080000
   1248   1250     1   0.10969 276646.080000
   1251   1252     1   0.10969 276646.080000
   1251   1253     1   0.10969 276646.080000
   1254   1255     1   0.10969 276646.080000
   1254   1256     1   0.10969 276646.080000
   1257   1258     1   0.10969 276646.080000
   1257   1259     1   0.10969 276646.080000
   1260   1261     1   0.10969 276646.080000
   1260   1262     1   0.10969 276646.080000
   1263   1264     1   0.10969 276646.080000
   1263   1265     1   0.10969 276646.080000
   1266   1267     1   0.10969 276646.080000
   1266   1268     1   0.10969 276646.080000
   1269   1270     1   0.10969 276646.080000
   1269   1271     1   0.10969 276646.080000
   1272   1273     1   0.10969 276646.080000
   1272   1274     1   0.10969 276646.080000
   1277   1278     1   0.10969 276646.080000
   1277   1279     1   0.10969 276646.080000
   1280   1281     1   0.10969 276646.080000
   1280   1282     1   0.10969 276646.080000
   1283   1284     1   0.10969 276646.080000
   1283   1285     1   0.10969 276646.080000
   1286   1287     1   0.10969 276646.080000
   1286   1288     1   0.10969 276646.080000
   1289   1290     1   0.10969 276646.080000
   1289   1291     1   0.10969 276646.080000
   1292   1293     1   0.10969 276646.080000
   1292   1294     1   0.10969 276646.080000
   1295   1296     1   0.10969 276646.080000
   1295   1297     1   0.10969 276646.080000
   1298   1299     1   0.10969 276646.080000
   1298   1300     1   0.10969 276646.080000
   1301   1302     1   0.10969 276646.080000
   1301   1303     1   0.10969 276646.080000
   1306   1307     1   0.10969 276646.080000
   1306   1308     1   0.10969 276646.080000
   1309   1310     1   0.10969 276646.080000
   1309   1311     1   0.10969 276646.080000
   1312   1313     1   0.10969 276646.080000
   1312   1314     1   0.10969 276646.080000
   1315   1316     1   0.10969 276646.080000
   1315   1317     1   0.10969 276646.080000
   1318   1319     1   0.10969 276646.080000
   1318   1320     1   0.10969 276646.080000
   1321   1322     1   0.10969 276646.080000
   1321   1323     1   0.10969 276646.080000
   1324   1325     1   0.10969 276646.080000
   1324   1326     1   0.10969 276646.080000
   1327   1328     1   0.10969 276646.080000
   1327   1329     1   0.10969 276646.080000
   1330   1331     1   0.10969 276646.080000
   1330   1332     1   0.10969 276646.080000
   1335   1336     1   0.10969 276646.080000
   1335   1337     1   0.10969 276646.080000
   1338   1339     1   0.10969 276646.080000
   1338   1340     1   0.10969 276646.080000
   1341   1342     1   0.10969 276646.080000
   1341   1343     1   0.10969 276646.080000
   1344   1345     1   0.10969 276646.080000
   1344   1346     1   0.10969 276646.080000
   1347   1348     1   0.10969 276646.080000
   1347   1349     1   0.10969 276646.080000
   1350   1351     1   0.10969 276646.080000
   1350   1352     1   0.10969 276646.080000
   1353   1354     1   0.10969 276646.080000
   1353   1355     1   0.10969 276646.080000
   1356   1357     1   0.10969 276646.080000
   1356   1358     1   0.10969 276646.080000
   1359   1360     1   0.10969 276646.080000
   1359   1361     1   0.10969 276646.080000
   1364   1365     1   0.10969 276646.080000
   1364   1366     1   0.10969 276646.080000
   1367   1368     1   0.10969 276646.080000
   1367   1369     1   0.10969 276646.080000
   1370   1371     1   0.10969 276646.080000
   1370   1372     1   0.10969 276646.080000
   1373   1374     1   0.10969 276646.080000
   1373   1375     1   0.10969 276646.080000
   1376   1377     1   0.10969 276646.080000
   1376   1378     1   0.10969 276646.080000
   1379   1380     1   0.10969 276646.080000
   1379   1381     1   0.10969 276646.080000
   1382   1383     1   0.10969 276646.080000
   1382   1384     1   0.10969 276646.080000
   1385   1386     1   0.10969 276646.080000
   1385   1387     1   0.10969 276646.080000
   1388   1389     1   0.10969 276646.080000
   1388   1390     1   0.10969 276646.080000
   1393   1394     1   0.10969 276646.080000
   1393   1395     1   0.10969 276646.080000
   1396   1397     1   0.10969 276646.080000
   1396   1398     1   0.10969 276646.080000
   1399   1400     1   0.10969 276646.080000
   1399   1401     1   0.10969 276646.080000
   1402   1403     1   0.10969 276646.080000
   1402   1404     1   0.10969 276646.080000
   1405   1406     1   0.10969 276646.080000
   1405   1407     1   0.10969 276646.080000
   1408   1409     1   0.10969 276646.080000
   1408   1410     1   0.10969 276646.080000
   1411   1412     1   0.10969 276646.080000
   1411   1413     1   0.10969 276646.080000
   1414   1415     1   0.10969 276646.080000
   1414   1416     1   0.10969 276646.080000
   1417   1418     1   0.10969 276646.080000
   1417   1419     1   0.10969 276646.080000
   1422   1423     1   0.10969 276646.080000
   1422   1424     1   0.10969 276646.080000
   1425   1426     1   0.10969 276646.080000
   1425   1427     1   0.10969 276646.080000
   1428   1429     1   0.10969 276646.080000
   1428   1430     1   0.10969 276646.080000
   1431   1432     1   0.10969 276646.080000
   1431   1433     1   0.10969 276646.080000
   1434   1435     1   0.10969 276646.080000
   1434   1436     1   0.10969 276646.080000
   1437   1438     1   0.10969 276646.080000
   1437   1439     1   0.10969 276646.080000
   1440   1441     1   0.10969 276646.080000
   1440   1442     1   0.10969 276646.080000
   1443   1444     1   0.10969 276646.080000
   1443   1445     1   0.10969 276646.080000
   1446   1447     1   0.10969 276646.080000
   1446   1448     1   0.10969 276646.080000
   1451   1452     1   0.10969 276646.080000
   1451   1453     1   0.10969 276646.080000
   1454   1455     1   0.10969 276646.080000
   1454   1456     1   0.10969 276646.080000
   1457   1458     1   0.10969 276646.080000
   1457   1459     1   0.10969 276646.080000
   1460   1461     1   0.10969 276646.080000
   1460   1462     1   0.10969 276646.080000
   1463   1464     1   0.10969 276646.080000
   1463   1465     1   0.10969 276646.080000
   1466   1467     1   0.10969 276646.080000
   1466   1468     1   0.10969 276646.080000
   1469   1470     1   0.10969 276646.080000
   1469   1471     1   0.10969 276646.080000
   1472   1473     1   0.10969 276646.080000
   1472   1474     1   0.10969 276646.080000
   1475   1476     1   0.10969 276646.080000
   1475   1477     1   0.10969 276646.080000
   1480   1481     1   0.10969 276646.080000
   1480   1482     1   0.10969 276646.080000
   1483   1484     1   0.10969 276646.080000
   1483   1485     1   0.10969 276646.080000
   1486   1487     1   0.10969 276646.080000
   1486   1488     1   0.10969 276646.080000
   1489   1490     1   0.10969 276646.080000
   1489   1491     1   0.10969 276646.080000
   1492   1493     1   0.10969 276646.080000
   1492   1494     1   0.10969 276646.080000
   1495   1496     1   0.10969 276646.080000
   1495   1497     1   0.10969 276646.080000
   1498   1499     1   0.10969 276646.080000
   1498   1500     1   0.10969 276646.080000
   1501   1502     1   0.10969 276646.080000
   1501   1503     1   0.10969 276646.080000
   1504   1505     1   0.10969 276646.080000
   1504   1506     1   0.10969 276646.080000
   1509   1510     1   0.10969 276646.080000
   1509   1511     1   0.10969 276646.080000
   1512   1513     1   0.10969 276646.080000
   1512   1514     1   0.10969 276646.080000
   1515   1516     1   0.10969 276646.080000
   1515   1517     1   0.10969 276646.080000
   1518   1519     1   0.10969 276646.080000
   1518   1520     1   0.10969 276646.080000
   1521   1522     1   0.10969 276646.080000
   1521   1523     1   0.10969 276646.080000
   1524   1525     1   0.10969 276646.080000
   1524   1526     1   0.10969 276646.080000
   1527   1528     1   0.10969 276646.080000
   1527   1529     1   0.10969 276646.080000
   1530   1531     1   0.10969 276646.080000
   1530   1532     1   0.10969 276646.080000
   1533   1534     1   0.10969 276646.080000
   1533   1535     1   0.10969 276646.080000
   1538   1539     1   0.10969 276646.080000
   1538   1540     1   0.10969 276646.080000
   1541   1542     1   0.10969 276646.080000
   1541   1543     1   0.10969 276646.080000
   1544   1545     1   0.10969 276646.080000
   1544   1546     1   0.10969 276646.080000
   1547   1548     1   0.10969 276646.080000
   1547   1549     1   0.10969 276646.080000
   1550   1551     1   0.10969 276646.080000
   1550   1552     1   0.10969 276646.080000
   1553   1554     1   0.10969 276646.080000
   1553   1555     1   0.10969 276646.080000
   1556   1557     1   0.10969 276646.080000
   1556   1558     1   0.10969 276646.080000
   1559   1560     1   0.10969 276646.080000
   1559   1561     1   0.10969 276646.080000
   1562   1563     1   0.10969 276646.080000
   1562   1564     1   0.10969 276646.080000
   1567   1568     1   0.10969 276646.080000
   1567   1569     1   0.10969 276646.080000
   1570   1571     1   0.10969 276646.080000
   1570   1572     1   0.10969 276646.080000
   1573   1574     1   0.10969 276646.080000
   1573   1575     1   0.10969 276646.080000
   1576   1577     1   0.10969 276646.080000
   1576   1578     1   0.10969 276646.080000
   1579   1580     1   0.10969 276646.080000
   1579   1581     1   0.10969 276646.080000
   1582   1583     1   0.10969 276646.080000
   1582   1584     1   0.10969 276646.080000
   1585   1586     1   0.10969 276646.080000
   1585   1587     1   0.10969 276646.080000
   1588   1589     1   0.10969 276646.080000
   1588   1590     1   0.10969 276646.080000
   1591   1592     1   0.10969 276646.080000
   1591   1593     1   0.10969 276646.080000
   1596   1597     1   0.10969 276646.080000
   1596   1598     1   0.10969 276646.080000
   1599   1600     1   0.10969 276646.080000
   1599   1601     1   0.10969 276646.080000
   1602   1603     1   0.10969 276646.080000
   1602   1604     1   0.10969 276646.080000
   1605   1606     1   0.10969 276646.080000
   1605   1607     1   0.10969 276646.080000
   1608   1609     1   0.10969 276646.080000
   1608   1610     1   0.10969 276646.080000
   1611   1612     1   0.10969 276646.080000
   1611   1613     1   0.10969 276646.080000
   1614   1615     1   0.10969 276646.080000
   1614   1616     1   0.10969 276646.080000
   1617   1618     1   0.10969 276646.080000
   1617   1619     1   0.10969 276646.080000
   1620   1621     1   0.10969 276646.080000
   1620   1622     1   0.10969 276646.080000
   1625   1626     1   0.10969 276646.080000
   1625   1627     1   0.10969 276646.080000
   1628   1629     1   0.10969 276646.080000
   1628   1630     1   0.10969 276646.080000
   1631   1632     1   0.10969 276646.080000
   1631   1633     1   0.10969 276646.080000
   1634   1635     1   0.10969 276646.080000
   1634   1636     1   0.10969 276646.080000
   1637   1638     1   0.10969 276646.080000
   1637   1639     1   0.10969 276646.080000
   1640   1641     1   0.10969 276646.080000
   1640   1642     1   0.10969 276646.080000
   1643   1644     1   0.10969 276646.080000
   1643   1645     1   0.10969 276646.080000
   1646   1647     1   0.10969 276646.080000
   1646   1648     1   0.10969 276646.080000
   1649   1650     1   0.10969 276646.080000
   1649   1651     1   0.10969 276646.080000
   1654   1655     1   0.10969 276646.080000
   1654   1656     1   0.10969 276646.080000
   1657   1658     1   0.10969 276646.080000
   1657   1659     1   0.10969 276646.080000
   1660   1661     1   0.10969 276646.080000
   1660   1662     1   0.10969 276646.080000
   1663   1664     1   0.10969 276646.080000
   1663   1665     1   0.10969 276646.080000
   1666   1667     1   0.10969 276646.080000
   1666   1668     1   0.10969 276646.080000
   1669   1670     1   0.10969 276646.080000
   1669   1671     1   0.10969 276646.080000
   1672   1673     1   0.10969 276646.080000
   1672   1674     1   0.10969 276646.080000
   1675   1676     1   0.10969 276646.080000
   1675   1677     1   0.10969 276646.080000
   1678   1679     1   0.10969 276646.080000
   1678   1680     1   0.10969 276646.080000
   1683   1684     1   0.10969 276646.080000
   1683   1685     1   0.10969 276646.080000
   1686   1687     1   0.10969 276646.080000
   1686   1688     1   0.10969 276646.080000
   1689   1690     1   0.10969 276646.080000
   1689   1691     1   0.10969 276646.080000
   1692   1693     1   0.10969 276646.080000
   1692   1694     1   0.10969 276646.080000
   1695   1696     1   0.10969 276646.080000
   1695   1697     1   0.10969 276646.080000
   1698   1699     1   0.10969 276646.080000
   1698   1700     1   0.10969 276646.080000
   1701   1702     1   0.10969 276646.080000
   1701   1703     1   0.10969 276646.080000
   1704   1705     1   0.10969 276646.080000
   1704   1706     1   0.10969 276646.080000
   1707   1708     1   0.10969 276646.080000
   1707   1709     1   0.10969 276646.080000
   1712   1713     1   0.10969 276646.080000
   1712   1714     1   0.10969 276646.080000
   1715   1716     1   0.10969 276646.080000
   1715   1717     1   0.10969 276646.080000
   1718   1719     1   0.10969 276646.080000
   1718   1720     1   0.10969 276646.080000
   1721   1722     1   0.10969 276646.080000
   1721   1723     1   0.10969 276646.080000
   1724   1725     1   0.10969 276646.080000
   1724   1726     1   0.10969 276646.080000
   1727   1728     1   0.10969 276646.080000
   1727   1729     1   0.10969 276646.080000
   1730   1731     1   0.10969 276646.080000
   1730   1732     1   0.10969 276646.080000
   1733   1734     1   0.10969 276646.080000
   1733   1735     1   0.10969 276646.080000
   1736   1737     1   0.10969 276646.080000
   1736   1738     1   0.10969 276646.080000
   1741   1742     1   0.10969 276646.080000
   1741   1743     1   0.10969 276646.080000
   1744   1745     1   0.10969 276646.080000
   1744   1746     1   0.10969 276646.080000
   1747   1748     1   0.10969 276646.080000
   1747   1749     1   0.10969 276646.080000
   1750   1751     1   0.10969 276646.080000
   1750   1752     1   0.10969 276646.080000
   1753   1754     1   0.10969 276646.080000
   1753   1755     1   0.10969 276646.080000
   1756   1757     1   0.10969 276646.080000
   1756   1758     1   0.10969 276646.080000
   1759   1760     1   0.10969 276646.080000
   1759   1761     1   0.10969 276646.080000
   1762   1763     1   0.10969 276646.080000
   1762   1764     1   0.10969 276646.080000
   1765   1766     1   0.10969 276646.080000
   1765   1767     1   0.10969 276646.080000
   1770   1771     1   0.10969 276646.080000
   1770   1772     1   0.10969 276646.080000
   1773   1774     1   0.10969 276646.080000
   1773   1775     1   0.10969 276646.080000
   1776   1777     1   0.10969 276646.080000
   1776   1778     1   0.10969 276646.080000
   1779   1780     1   0.10969 276646.080000
   1779   1781     1   0.10969 276646.080000
   1782   1783     1   0.10969 276646.080000
   1782   1784     1   0.10969 276646.080000
   1785   1786     1   0.10969 276646.080000
   1785   1787     1   0.10969 276646.080000
   1788   1789     1   0.10969 276646.080000
   1788   1790     1   0.10969 276646.080000
   1791   1792     1   0.10969 276646.080000
   1791   1793     1   0.10969 276646.080000
   1794   1795     1   0.10969 276646.080000
   1794   1796     1   0.10969 276646.080000
   1799   1800     1   0.10969 276646.080000
   1799   1801     1   0.10969 276646.080000
   1802   1803     1   0.10969 276646.080000
   1802   1804     1   0.10969 276646.080000
   1805   1806     1   0.10969 276646.080000
   1805   1807     1   0.10969 276646.080000
   1808   1809     1   0.10969 276646.080000
   1808   1810     1   0.10969 276646.080000
   1811   1812     1   0.10969 276646.080000
   1811   1813     1   0.10969 276646.080000
   1814   1815     1   0.10969 276646.080000
   1814   1816     1   0.10969 276646.080000
   1817   1818     1   0.10969 276646.080000
   1817   1819     1   0.10969 276646.080000
   1820   1821     1   0.10969 276646.080000
   1820   1822     1   0.10969 276646.080000
   1823   1824     1   0.10969 276646.080000
   1823   1825     1   0.10969 276646.080000
   1828   1829     1   0.10969 276646.080000
   1828   1830     1   0.10969 276646.080000
   1831   1832     1   0.10969 276646.080000
   1831   1833     1   0.10969 276646.080000
   1834   1835     1   0.10969 276646.080000
   1834   1836     1   0.10969 276646.080000
   1837   1838     1   0.10969 276646.080000
   1837   1839     1   0.10969 276646.080000
   1840   1841     1   0.10969 276646.080000
   1840   1842     1   0.10969 276646.080000
   1843   1844     1   0.10969 276646.080000
   1843   1845     1   0.10969 276646.080000
   1846   1847     1   0.10969 276646.080000
   1846   1848     1   0.10969 276646.080000
   1849   1850     1   0.10969 276646.080000
   1849   1851     1   0.10969 276646.080000
   1852   1853     1   0.10969 276646.080000
   1852   1854     1   0.10969 276646.080000
   1857   1858     1   0.10969 276646.080000
   1857   1859     1   0.10969 276646.080000
   1860   1861     1   0.10969 276646.080000
   1860   1862     1   0.10969 276646.080000
   1863   1864     1   0.10969 276646.080000
   1863   1865     1   0.10969 276646.080000
   1866   1867     1   0.10969 276646.080000
   1866   1868     1   0.10969 276646.080000
   1869   1870     1   0.10969 276646.080000
   1869   1871     1   0.10969 276646.080000
   1872   1873     1   0.10969 276646.080000
   1872   1874     1   0.10969 276646.080000
   1875   1876     1   0.10969 276646.080000
   1875   1877     1   0.10969 276646.080000
   1878   1879     1   0.10969 276646.080000
   1878   1880     1   0.10969 276646.080000
   1881   1882     1   0.10969 276646.080000
   1881   1883     1   0.10969 276646.080000
   1886   1887     1   0.10969 276646.080000
   1886   1888     1   0.10969 276646.080000
   1889   1890     1   0.10969 276646.080000
   1889   1891     1   0.10969 276646.080000
   1892   1893     1   0.10969 276646.080000
   1892   1894     1   0.10969 276646.080000
   1895   1896     1   0.10969 276646.080000
   1895   1897     1   0.10969 276646.080000
   1898   1899     1   0.10969 276646.080000
   1898   1900     1   0.10969 276646.080000
   1901   1902     1   0.10969 276646.080000
   1901   1903     1   0.10969 276646.080000
   1904   1905     1   0.10969 276646.080000
   1904   1906     1   0.10969 276646.080000
   1907   1908     1   0.10969 276646.080000
   1907   1909     1   0.10969 276646.080000
   1910   1911     1   0.10969 276646.080000
   1910   1912     1   0.10969 276646.080000
   1915   1916     1   0.10969 276646.080000
   1915   1917     1   0.10969 276646.080000
   1918   1919     1   0.10969 276646.080000
   1918   1920     1   0.10969 276646.080000
   1921   1922     1   0.10969 276646.080000
   1921   1923     1   0.10969 276646.080000
   1924   1925     1   0.10969 276646.080000
   1924   1926     1   0.10969 276646.080000
   1927   1928     1   0.10969 276646.080000
   1927   1929     1   0.10969 276646.080000
   1930   1931     1   0.10969 276646.080000
   1930   1932     1   0.10969 276646.080000
   1933   1934     1   0.10969 276646.080000
   1933   1935     1   0.10969 276646.080000
   1936   1937     1   0.10969 276646.080000
   1936   1938     1   0.10969 276646.080000
   1939   1940     1   0.10969 276646.080000
   1939   1941     1   0.10969 276646.080000
   1944   1945     1   0.10969 276646.080000
   1944   1946     1   0.10969 276646.080000
   1947   1948     1   0.10969 276646.080000
   1947   1949     1   0.10969 276646.080000
   1950   1951     1   0.10969 276646.080000
   1950   1952     1   0.10969 276646.080000
   1953   1954     1   0.10969 276646.080000
   1953   1955     1   0.10969 276646.080000
   1956   1957     1   0.10969 276646.080000
   1956   1958     1   0.10969 276646.080000
   1959   1960     1   0.10969 276646.080000
   1959   1961     1   0.10969 276646.080000
   1962   1963     1   0.10969 276646.080000
   1962   1964     1   0.10969 276646.080000
   1965   1966     1   0.10969 276646.080000
   1965   1967     1   0.10969 276646.080000
   1968   1969     1   0.10969 276646.080000
   1968   1970     1   0.10969 276646.080000
   1973   1974     1   0.10969 276646.080000
   1973   1975     1   0.10969 276646.080000
   1976   1977     1   0.10969 276646.080000
   1976   1978     1   0.10969 276646.080000
   1979   1980     1   0.10969 276646.080000
   1979   1981     1   0.10969 276646.080000
   1982   1983     1   0.10969 276646.080000
   1982   1984     1   0.10969 276646.080000
   1985   1986     1   0.10969 276646.080000
   1985   1987     1   0.10969 276646.080000
   1988   1989     1   0.10969 276646.080000
   1988   1990     1   0.10969 276646.080000
   1991   1992     1   0.10969 276646.080000
   1991   1993     1   0.10969 276646.080000
   1994   1995     1   0.10969 276646.080000
   1994   1996     1   0.10969 276646.080000
   1997   1998     1   0.10969 276646.080000
   1997   1999     1   0.10969 276646.080000
   2002   2003     1   0.10969 276646.080000
   2002   2004     1   0.10969 276646.080000
   2005   2006     1   0.10969 276646.080000
   2005   2007     1   0.10969 276646.080000
   2008   2009     1   0.10969 276646.080000
   2008   2010     1   0.10969 276646.080000
   2011   2012     1   0.10969 276646.080000
   2011   2013     1   0.10969 276646.080000
   2014   2015     1   0.10969 276646.080000
   2014   2016     1   0.10969 276646.080000
   2017   2018     1   0.10969 276646.080000
   2017   2019     1   0.10969 276646.080000
   2020   2021     1   0.10969 276646.080000
   2020   2022     1   0.10969 276646.080000
   2023   2024     1   0.10969 276646.080000
   2023   2025     1   0.10969 276646.080000
   2026   2027     1   0.10969 276646.080000
   2026   2028     1   0.10969 276646.080000
   2031   2032     1   0.10969 276646.080000
   2031   2033     1   0.10969 276646.080000
   2034   2035     1   0.10969 276646.080000
   2034   2036     1   0.10969 276646.080000
   2037   2038     1   0.10969 276646.080000
   2037   2039     1   0.10969 276646.080000
   2040   2041     1   0.10969 276646.080000
   2040   2042     1   0.10969 276646.080000
   2043   2044     1   0.10969 276646.080000
   2043   2045     1   0.10969 276646.080000
   2046   2047     1   0.10969 276646.080000
   2046   2048     1   0.10969 276646.080000
   2049   2050     1   0.10969 276646.080000
   2049   2051     1   0.10969 276646.080000
   2052   2053     1   0.10969 276646.080000
   2052   2054     1   0.10969 276646.080000
   2055   2056     1   0.10969 276646.080000
   2055   2057     1   0.10969 276646.080000
   2060   2061     1   0.10969 276646.080000
   2060   2062     1   0.10969 276646.080000
   2063   2064     1   0.10969 276646.080000
   2063   2065     1   0.10969 276646.080000
   2066   2067     1   0.10969 276646.080000
   2066   2068     1   0.10969 276646.080000
   2069   2070     1   0.10969 276646.080000
   2069   2071     1   0.10969 276646.080000
   2072   2073     1   0.10969 276646.080000
   2072   2074     1   0.10969 276646.080000
   2075   2076     1   0.10969 276646.080000
   2075   2077     1   0.10969 276646.080000
   2078   2079     1   0.10969 276646.080000
   2078   2080     1   0.10969 276646.080000
   2081   2082     1   0.10969 276646.080000
   2081   2083     1   0.10969 276646.080000
   2084   2085     1   0.10969 276646.080000
   2084   2086     1   0.10969 276646.080000
   2089   2090     1   0.10969 276646.080000
   2089   2091     1   0.10969 276646.080000
   2092   2093     1   0.10969 276646.080000
   2092   2094     1   0.10969 276646.080000
   2095   2096     1   0.10969 276646.080000
   2095   2097     1   0.10969 276646.080000
   2098   2099     1   0.10969 276646.080000
   2098   2100     1   0.10969 276646.080000
   2101   2102     1   0.10969 276646.080000
   2101   2103     1   0.10969 276646.080000
   2104   2105     1   0.10969 276646.080000
   2104   2106     1   0.10969 276646.080000
   2107   2108     1   0.10969 276646.080000
   2107   2109     1   0.10969 276646.080000
   2110   2111     1   0.10969 276646.080000
   2110   2112     1   0.10969 276646.080000
   2113   2114     1   0.10969 276646.080000
   2113   2115     1   0.10969 276646.080000
   2118   2119     1   0.10969 276646.080000
   2118   2120     1   0.10969 276646.080000
   2121   2122     1   0.10969 276646.080000
   2121   2123     1   0.10969 276646.080000
   2124   2125     1   0.10969 276646.080000
   2124   2126     1   0.10969 276646.080000
   2127   2128     1   0.10969 276646.080000
   2127   2129     1   0.10969 276646.080000
   2130   2131     1   0.10969 276646.080000
   2130   2132     1   0.10969 276646.080000
   2133   2134     1   0.10969 276646.080000
   2133   2135     1   0.10969 276646.080000
   2136   2137     1   0.10969 276646.080000
   2136   2138     1   0.10969 276646.080000
   2139   2140     1   0.10969 276646.080000
   2139   2141     1   0.10969 276646.080000
   2142   2143     1   0.10969 276646.080000
   2142   2144     1   0.10969 276646.080000
   2147   2148     1   0.10969 276646.080000
   2147   2149     1   0.10969 276646.080000
   2150   2151     1   0.10969 276646.080000
   2150   2152     1   0.10969 276646.080000
   2153   2154     1   0.10969 276646.080000
   2153   2155     1   0.10969 276646.080000
   2156   2157     1   0.10969 276646.080000
   2156   2158     1   0.10969 276646.080000
   2159   2160     1   0.10969 276646.080000
   2159   2161     1   0.10969 276646.080000
   2162   2163     1   0.10969 276646.080000
   2162   2164     1   0.10969 276646.080000
   2165   2166     1   0.10969 276646.080000
   2165   2167     1   0.10969 276646.080000
   2168   2169     1   0.10969 276646.080000
   2168   2170     1   0.10969 276646.080000
   2171   2172     1   0.10969 276646.080000
   2171   2173     1   0.10969 276646.080000
   2176   2177     1   0.10969 276646.080000
   2176   2178     1   0.10969 276646.080000
   2179   2180     1   0.10969 276646.080000
   2179   2181     1   0.10969 276646.080000
   2182   2183     1   0.10969 276646.080000
   2182   2184     1   0.10969 276646.080000
   2185   2186     1   0.10969 276646.080000
   2185   2187     1   0.10969 276646.080000
   2188   2189     1   0.10969 276646.080000
   2188   2190     1   0.10969 276646.080000
   2191   2192     1   0.10969 276646.080000
   2191   2193     1   0.10969 276646.080000
   2194   2195     1   0.10969 276646.080000
   2194   2196     1   0.10969 276646.080000
   2197   2198     1   0.10969 276646.080000
   2197   2199     1   0.10969 276646.080000
   2200   2201     1   0.10969 276646.080000
   2200   2202     1   0.10969 276646.080000
   2205   2206     1   0.10969 276646.080000
   2205   2207     1   0.10969 276646.080000
   2208   2209     1   0.10969 276646.080000
   2208   2210     1   0.10969 276646.080000
   2211   2212     1   0.10969 276646.080000
   2211   2213     1   0.10969 276646.080000
   2214   2215     1   0.10969 276646.080000
   2214   2216     1   0.10969 276646.080000
   2217   2218     1   0.10969 276646.080000
   2217   2219     1   0.10969 276646.080000
   2220   2221     1   0.10969 276646.080000
   2220   2222     1   0.10969 276646.080000
   2223   2224     1   0.10969 276646.080000
   2223   2225     1   0.10969 276646.080000
   2226   2227     1   0.10969 276646.080000
   2226   2228     1   0.10969 276646.080000
   2229   2230     1   0.10969 276646.080000
   2229   2231     1   0.10969 276646.080000
   2234   2235     1   0.10969 276646.080000
   2234   2236     1   0.10969 276646.080000
   2237   2238     1   0.10969 276646.080000
   2237   2239     1   0.10969 276646.080000
   2240   2241     1   0.10969 276646.080000
   2240   2242     1   0.10969 276646.080000
   2243   2244     1   0.10969 276646.080000
   2243   2245     1   0.10969 276646.080000
   2246   2247     1   0.10969 276646.080000
   2246   2248     1   0.10969 276646.080000
   2249   2250     1   0.10969 276646.080000
   2249   2251     1   0.10969 276646.080000
   2252   2253     1   0.10969 276646.080000
   2252   2254     1   0.10969 276646.080000
   2255   2256     1   0.10969 276646.080000
   2255   2257     1   0.10969 276646.080000
   2258   2259     1   0.10969 276646.080000
   2258   2260     1   0.10969 276646.080000
   2263   2264     1   0.10969 276646.080000
   2263   2265     1   0.10969 276646.080000
   2266   2267     1   0.10969 276646.080000
   2266   2268     1   0.10969 276646.080000
   2269   2270     1   0.10969 276646.080000
   2269   2271     1   0.10969 276646.080000
   2272   2273     1   0.10969 276646.080000
   2272   2274     1   0.10969 276646.080000
   2275   2276     1   0.10969 276646.080000
   2275   2277     1   0.10969 276646.080000
   2278   2279     1   0.10969 276646.080000
   2278   2280     1   0.10969 276646.080000
   2281   2282     1   0.10969 276646.080000
   2281   2283     1   0.10969 276646.080000
   2284   2285     1   0.10969 276646.080000
   2284   2286     1   0.10969 276646.080000
   2287   2288     1   0.10969 276646.080000
   2287   2289     1   0.10969 276646.080000
   2292   2293     1   0.10969 276646.080000
   2292   2294     1   0.10969 276646.080000
   2295   2296     1   0.10969 276646.080000
   2295   2297     1   0.10969 276646.080000
   2298   2299     1   0.10969 276646.080000
   2298   2300     1   0.10969 276646.080000
   2301   2302     1   0.10969 276646.080000
   2301   2303     1   0.10969 276646.080000
   2304   2305     1   0.10969 276646.080000
   2304   2306     1   0.10969 276646.080000
   2307   2308     1   0.10969 276646.080000
   2307   2309     1   0.10969 276646.080000
   2310   2311     1   0.10969 276646.080000
   2310   2312     1   0.10969 276646.080000
   2313   2314     1   0.10969 276646.080000
   2313   2315     1   0.10969 276646.080000
   2316   2317     1   0.10969 276646.080000
   2316   2318     1   0.10969 276646.080000
   2321   2322     1   0.10969 276646.080000
   2321   2323     1   0.10969 276646.080000
   2324   2325     1   0.10969 276646.080000
   2324   2326     1   0.10969 276646.080000
   2327   2328     1   0.10969 276646.080000
   2327   2329     1   0.10969 276646.080000
   2330   2331     1   0.10969 276646.080000
   2330   2332     1   0.10969 276646.080000
   2333   2334     1   0.10969 276646.080000
   2333   2335     1   0.10969 276646.080000
   2336   2337     1   0.10969 276646.080000
   2336   2338     1   0.10969 276646.080000
   2339   2340     1   0.10969 276646.080000
   2339   2341     1   0.10969 276646.080000
   2342   2343     1   0.10969 276646.080000
   2342   2344     1   0.10969 276646.080000
   2345   2346     1   0.10969 276646.080000
   2345   2347     1   0.10969 276646.080000
   2350   2351     1   0.10969 276646.080000
   2350   2352     1   0.10969 276646.080000
   2353   2354     1   0.10969 276646.080000
   2353   2355     1   0.10969 276646.080000
   2356   2357     1   0.10969 276646.080000
   2356   2358     1   0.10969 276646.080000
   2359   2360     1   0.10969 276646.080000
   2359   2361     1   0.10969 276646.080000
   2362   2363     1   0.10969 276646.080000
   2362   2364     1   0.10969 276646.080000
   2365   2366     1   0.10969 276646.080000
   2365   2367     1   0.10969 276646.080000
   2368   2369     1   0.10969 276646.080000
   2368   2370     1   0.10969 276646.080000
   2371   2372     1   0.10969 276646.080000
   2371   2373     1   0.10969 276646.080000
   2374   2375     1   0.10969 276646.080000
   2374   2376     1   0.10969 276646.080000
   2379   2380     1   0.10969 276646.080000
   2379   2381     1   0.10969 276646.080000
   2382   2383     1   0.10969 276646.080000
   2382   2384     1   0.10969 276646.080000
   2385   2386     1   0.10969 276646.080000
   2385   2387     1   0.10969 276646.080000
   2388   2389     1   0.10969 276646.080000
   2388   2390     1   0.10969 276646.080000
   2391   2392     1   0.10969 276646.080000
   2391   2393     1   0.10969 276646.080000
   2394   2395     1   0.10969 276646.080000
   2394   2396     1   0.10969 276646.080000
   2397   2398     1   0.10969 276646.080000
   2397   2399     1   0.10969 276646.080000
   2400   2401     1   0.10969 276646.080000
   2400   2402     1   0.10969 276646.080000
   2403   2404     1   0.10969 276646.080000
   2403   2405     1   0.10969 276646.080000
   2408   2409     1   0.10969 276646.080000
   2408   2410     1   0.10969 276646.080000
   2411   2412     1   0.10969 276646.080000
   2411   2413     1   0.10969 276646.080000
   2414   2415     1   0.10969 276646.080000
   2414   2416     1   0.10969 276646.080000
   2417   2418     1   0.10969 276646.080000
   2417   2419     1   0.10969 276646.080000
   2420   2421     1   0.10969 276646.080000
   2420   2422     1   0.10969 276646.080000
   2423   2424     1   0.10969 276646.080000
   2423   2425     1   0.10969 276646.080000
   2426   2427     1   0.10969 276646.080000
   2426   2428     1   0.10969 276646.080000
   2429   2430     1   0.10969 276646.080000
   2429   2431     1   0.10969 276646.080000
   2432   2433     1   0.10969 276646.080000
   2432   2434     1   0.10969 276646.080000
   2437   2438     1   0.10969 276646.080000
   2437   2439     1   0.10969 276646.080000
   2440   2441     1   0.10969 276646.080000
   2440   2442     1   0.10969 276646.080000
   2443   2444     1   0.10969 276646.080000
   2443   2445     1   0.10969 276646.080000
   2446   2447     1   0.10969 276646.080000
   2446   2448     1   0.10969 276646.080000
   2449   2450     1   0.10969 276646.080000
   2449   2451     1   0.10969 276646.080000
   2452   2453     1   0.10969 276646.080000
   2452   2454     1   0.10969 276646.080000
   2455   2456     1   0.10969 276646.080000
   2455   2457     1   0.10969 276646.080000
   2458   2459     1   0.10969 276646.080000
   2458   2460     1   0.10969 276646.080000
   2461   2462     1   0.10969 276646.080000
   2461   2463     1   0.10969 276646.080000
   2466   2467     1   0.10969 276646.080000
   2466   2468     1   0.10969 276646.080000
   2469   2470     1   0.10969 276646.080000
   2469   2471     1   0.10969 276646.080000
   2472   2473     1   0.10969 276646.080000
   2472   2474     1   0.10969 276646.080000
   2475   2476     1   0.10969 276646.080000
   2475   2477     1   0.10969 276646.080000
   2478   2479     1   0.10969 276646.080000
   2478   2480     1   0.10969 276646.080000
   2481   2482     1   0.10969 276646.080000
   2481   2483     1   0.10969 276646.080000
   2484   2485     1   0.10969 276646.080000
   2484   2486     1   0.10969 276646.080000
   2487   2488     1   0.10969 276646.080000
   2487   2489     1   0.10969 276646.080000
   2490   2491     1   0.10969 276646.080000
   2490   2492     1   0.10969 276646.080000
   2495   2496     1   0.10969 276646.080000
   2495   2497     1   0.10969 276646.080000
   2498   2499     1   0.10969 276646.080000
   2498   2500     1   0.10969 276646.080000
   2501   2502     1   0.10969 276646.080000
   2501   2503     1   0.10969 276646.080000
   2504   2505     1   0.10969 276646.080000
   2504   2506     1   0.10969 276646.080000
   2507   2508     1   0.10969 276646.080000
   2507   2509     1   0.10969 276646.080000
   2510   2511     1   0.10969 276646.080000
   2510   2512     1   0.10969 276646.080000
   2513   2514     1   0.10969 276646.080000
   2513   2515     1   0.10969 276646.080000
   2516   2517     1   0.10969 276646.080000
   2516   2518     1   0.10969 276646.080000
   2519   2520     1   0.10969 276646.080000
   2519   2521     1   0.10969 276646.080000
   2524   2525     1   0.10969 276646.080000
   2524   2526     1   0.10969 276646.080000
   2527   2528     1   0.10969 276646.080000
   2527   2529     1   0.10969 276646.080000
   2530   2531     1   0.10969 276646.080000
   2530   2532     1   0.10969 276646.080000
   2533   2534     1   0.10969 276646.080000
   2533   2535     1   0.10969 276646.080000
   2536   2537     1   0.10969 276646.080000
   2536   2538     1   0.10969 276646.080000
   2539   2540     1   0.10969 276646.080000
   2539   2541     1   0.10969 276646.080000
   2542   2543     1   0.10969 276646.080000
   2542   2544     1   0.10969 276646.080000
   2545   2546     1   0.10969 276646.080000
   2545   2547     1   0.10969 276646.080000
   2548   2549     1   0.10969 276646.080000
   2548   2550     1   0.10969 276646.080000
   2553   2554     1   0.10969 276646.080000
   2553   2555     1   0.10969 276646.080000
   2556   2557     1   0.10969 276646.080000
   2556   2558     1   0.10969 276646.080000
   2559   2560     1   0.10969 276646.080000
   2559   2561     1   0.10969 276646.080000
   2562   2563     1   0.10969 276646.080000
   2562   2564     1   0.10969 276646.080000
   2565   2566     1   0.10969 276646.080000
   2565   2567     1   0.10969 276646.080000
   2568   2569     1   0.10969 276646.080000
   2568   2570     1   0.10969 276646.080000
   2571   2572     1   0.10969 276646.080000
   2571   2573     1   0.10969 276646.080000
   2574   2575     1   0.10969 276646.080000
   2574   2576     1   0.10969 276646.080000
   2577   2578     1   0.10969 276646.080000
   2577   2579     1   0.10969 276646.080000
   2582   2583     1   0.10969 276646.080000
   2582   2584     1   0.10969 276646.080000
   2585   2586     1   0.10969 276646.080000
   2585   2587     1   0.10969 276646.080000
   2588   2589     1   0.10969 276646.080000
   2588   2590     1   0.10969 276646.080000
   2591   2592     1   0.10969 276646.080000
   2591   2593     1   0.10969 276646.080000
   2594   2595     1   0.10969 276646.080000
   2594   2596     1   0.10969 276646.080000
   2597   2598     1   0.10969 276646.080000
   2597   2599     1   0.10969 276646.080000
   2600   2601     1   0.10969 276646.080000
   2600   2602     1   0.10969 276646.080000
   2603   2604     1   0.10969 276646.080000
   2603   2605     1   0.10969 276646.080000
   2606   2607     1   0.10969 276646.080000
   2606   2608     1   0.10969 276646.080000
   2611   2612     1   0.10969 276646.080000
   2611   2613     1   0.10969 276646.080000
   2614   2615     1   0.10969 276646.080000
   2614   2616     1   0.10969 276646.080000
   2617   2618     1   0.10969 276646.080000
   2617   2619     1   0.10969 276646.080000
   2620   2621     1   0.10969 276646.080000
   2620   2622     1   0.10969 276646.080000
   2623   2624     1   0.10969 276646.080000
   2623   2625     1   0.10969 276646.080000
   2626   2627     1   0.10969 276646.080000
   2626   2628     1   0.10969 276646.080000
   2629   2630     1   0.10969 276646.080000
   2629   2631     1   0.10969 276646.080000
   2632   2633     1   0.10969 276646.080000
   2632   2634     1   0.10969 276646.080000
   2635   2636     1   0.10969 276646.080000
   2635   2637     1   0.10969 276646.080000
   2640   2641     1   0.10969 276646.080000
   2640   2642     1   0.10969 276646.080000
   2643   2644     1   0.10969 276646.080000
   2643   2645     1   0.10969 276646.080000
   2646   2647     1   0.10969 276646.080000
   2646   2648     1   0.10969 276646.080000
   2649   2650     1   0.10969 276646.080000
   2649   2651     1   0.10969 276646.080000
   2652   2653     1   0.10969 276646.080000
   2652   2654     1   0.10969 276646.080000
   2655   2656     1   0.10969 276646.080000
   2655   2657     1   0.10969 276646.080000
   2658   2659     1   0.10969 276646.080000
   2658   2660     1   0.10969 276646.080000
   2661   2662     1   0.10969 276646.080000
   2661   2663     1   0.10969 276646.080000
   2664   2665     1   0.10969 276646.080000
   2664   2666     1   0.10969 276646.080000
   2669   2670     1   0.10969 276646.080000
   2669   2671     1   0.10969 276646.080000
   2672   2673     1   0.10969 276646.080000
   2672   2674     1   0.10969 276646.080000
   2675   2676     1   0.10969 276646.080000
   2675   2677     1   0.10969 276646.080000
   2678   2679     1   0.10969 276646.080000
   2678   2680     1   0.10969 276646.080000
   2681   2682     1   0.10969 276646.080000
   2681   2683     1   0.10969 276646.080000
   2684   2685     1   0.10969 276646.080000
   2684   2686     1   0.10969 276646.080000
   2687   2688     1   0.10969 276646.080000
   2687   2689     1   0.10969 276646.080000
   2690   2691     1   0.10969 276646.080000
   2690   2692     1   0.10969 276646.080000
   2693   2694     1   0.10969 276646.080000
   2693   2695     1   0.10969 276646.080000
   2698   2699     1   0.10969 276646.080000
   2698   2700     1   0.10969 276646.080000
   2701   2702     1   0.10969 276646.080000
   2701   2703     1   0.10969 276646.080000
   2704   2705     1   0.10969 276646.080000
   2704   2706     1   0.10969 276646.080000
   2707   2708     1   0.10969 276646.080000
   2707   2709     1   0.10969 276646.080000
   2710   2711     1   0.10969 276646.080000
   2710   2712     1   0.10969 276646.080000
   2713   2714     1   0.10969 276646.080000
   2713   2715     1   0.10969 276646.080000
   2716   2717     1   0.10969 276646.080000
   2716   2718     1   0.10969 276646.080000
   2719   2720     1   0.10969 276646.080000
   2719   2721     1   0.10969 276646.080000
   2722   2723     1   0.10969 276646.080000
   2722   2724     1   0.10969 276646.080000
   2727   2728     1   0.10969 276646.080000
   2727   2729     1   0.10969 276646.080000
   2730   2731     1   0.10969 276646.080000
   2730   2732     1   0.10969 276646.080000
   2733   2734     1   0.10969 276646.080000
   2733   2735     1   0.10969 276646.080000
   2736   2737     1   0.10969 276646.080000
   2736   2738     1   0.10969 276646.080000
   2739   2740     1   0.10969 276646.080000
   2739   2741     1   0.10969 276646.080000
   2742   2743     1   0.10969 276646.080000
   2742   2744     1   0.10969 276646.080000
   2745   2746     1   0.10969 276646.080000
   2745   2747     1   0.10969 276646.080000
   2748   2749     1   0.10969 276646.080000
   2748   2750     1   0.10969 276646.080000
   2751   2752     1   0.10969 276646.080000
   2751   2753     1   0.10969 276646.080000
   2756   2757     1   0.10969 276646.080000
   2756   2758     1   0.10969 276646.080000
   2759   2760     1   0.10969 276646.080000
   2759   2761     1   0.10969 276646.080000
   2762   2763     1   0.10969 276646.080000
   2762   2764     1   0.10969 276646.080000
   2765   2766     1   0.10969 276646.080000
   2765   2767     1   0.10969 276646.080000
   2768   2769     1   0.10969 276646.080000
   2768   2770     1   0.10969 276646.080000
   2771   2772     1   0.10969 276646.080000
   2771   2773     1   0.10969 276646.080000
   2774   2775     1   0.10969 276646.080000
   2774   2776     1   0.10969 276646.080000
   2777   2778     1   0.10969 276646.080000
   2777   2779     1   0.10969 276646.080000
   2780   2781     1   0.10969 276646.080000
   2780   2782     1   0.10969 276646.080000
   2785   2786     1   0.10969 276646.080000
   2785   2787     1   0.10969 276646.080000
   2788   2789     1   0.10969 276646.080000
   2788   2790     1   0.10969 276646.080000
   2791   2792     1   0.10969 276646.080000
   2791   2793     1   0.10969 276646.080000
   2794   2795     1   0.10969 276646.080000
   2794   2796     1   0.10969 276646.080000
   2797   2798     1   0.10969 276646.080000
   2797   2799     1   0.10969 276646.080000
   2800   2801     1   0.10969 276646.080000
   2800   2802     1   0.10969 276646.080000
   2803   2804     1   0.10969 276646.080000
   2803   2805     1   0.10969 276646.080000
   2806   2807     1   0.10969 276646.080000
   2806   2808     1   0.10969 276646.080000
   2809   2810     1   0.10969 276646.080000
   2809   2811     1   0.10969 276646.080000
   2814   2815     1   0.10969 276646.080000
   2814   2816     1   0.10969 276646.080000
   2817   2818     1   0.10969 276646.080000
   2817   2819     1   0.10969 276646.080000
   2820   2821     1   0.10969 276646.080000
   2820   2822     1   0.10969 276646.080000
   2823   2824     1   0.10969 276646.080000
   2823   2825     1   0.10969 276646.080000
   2826   2827     1   0.10969 276646.080000
   2826   2828     1   0.10969 276646.080000
   2829   2830     1   0.10969 276646.080000
   2829   2831     1   0.10969 276646.080000
   2832   2833     1   0.10969 276646.080000
   2832   2834     1   0.10969 276646.080000
   2835   2836     1   0.10969 276646.080000
   2835   2837     1   0.10969 276646.080000
   2838   2839     1   0.10969 276646.080000
   2838   2840     1   0.10969 276646.080000
   2843   2844     1   0.10969 276646.080000
   2843   2845     1   0.10969 276646.080000
   2846   2847     1   0.10969 276646.080000
   2846   2848     1   0.10969 276646.080000
   2849   2850     1   0.10969 276646.080000
   2849   2851     1   0.10969 276646.080000
   2852   2853     1   0.10969 276646.080000
   2852   2854     1   0.10969 276646.080000
   2855   2856     1   0.10969 276646.080000
   2855   2857     1   0.10969 276646.080000
   2858   2859     1   0.10969 276646.080000
   2858   2860     1   0.10969 276646.080000
   2861   2862     1   0.10969 276646.080000
   2861   2863     1   0.10969 276646.080000
   2864   2865     1   0.10969 276646.080000
   2864   2866     1   0.10969 276646.080000
   2867   2868     1   0.10969 276646.080000
   2867   2869     1   0.10969 276646.080000
   2872   2873     1   0.10969 276646.080000
   2872   2874     1   0.10969 276646.080000
   2875   2876     1   0.10969 276646.080000
   2875   2877     1   0.10969 276646.080000
   2878   2879     1   0.10969 276646.080000
   2878   2880     1   0.10969 276646.080000
   2881   2882     1   0.10969 276646.080000
   2881   2883     1   0.10969 276646.080000
   2884   2885     1   0.10969 276646.080000
   2884   2886     1   0.10969 276646.080000
   2887   2888     1   0.10969 276646.080000
   2887   2889     1   0.10969 276646.080000
   2890   2891     1   0.10969 276646.080000
   2890   2892     1   0.10969 276646.080000
   2893   2894     1   0.10969 276646.080000
   2893   2895     1   0.10969 276646.080000
   2896   2897     1   0.10969 276646.080000
   2896   2898     1   0.10969 276646.080000
   2901   2902     1   0.10969 276646.080000
   2901   2903     1   0.10969 276646.080000
   2904   2905     1   0.10969 276646.080000
   2904   2906     1   0.10969 276646.080000
   2907   2908     1   0.10969 276646.080000
   2907   2909     1   0.10969 276646.080000
   2910   2911     1   0.10969 276646.080000
   2910   2912     1   0.10969 276646.080000
   2913   2914     1   0.10969 276646.080000
   2913   2915     1   0.10969 276646.080000
   2916   2917     1   0.10969 276646.080000
   2916   2918     1   0.10969 276646.080000
   2919   2920     1   0.10969 276646.080000
   2919   2921     1   0.10969 276646.080000
   2922   2923     1   0.10969 276646.080000
   2922   2924     1   0.10969 276646.080000
   2925   2926     1   0.10969 276646.080000
   2925   2927     1   0.10969 276646.080000
   2930   2931     1   0.10969 276646.080000
   2930   2932     1   0.10969 276646.080000
   2933   2934     1   0.10969 276646.080000
   2933   2935     1   0.10969 276646.080000
   2936   2937     1   0.10969 276646.080000
   2936   2938     1   0.10969 276646.080000
   2939   2940     1   0.10969 276646.080000
   2939   2941     1   0.10969 276646.080000
   2942   2943     1   0.10969 276646.080000
   2942   2944     1   0.10969 276646.080000
   2945   2946     1   0.10969 276646.080000
   2945   2947     1   0.10969 276646.080000
   2948   2949     1   0.10969 276646.080000
   2948   2950     1   0.10969 276646.080000
   2951   2952     1   0.10969 276646.080000
   2951   2953     1   0.10969 276646.080000
   2954   2955     1   0.10969 276646.080000
   2954   2956     1   0.10969 276646.080000
   2959   2960     1   0.10969 276646.080000
   2959   2961     1   0.10969 276646.080000
   2962   2963     1   0.10969 276646.080000
   2962   2964     1   0.10969 276646.080000
   2965   2966     1   0.10969 276646.080000
   2965   2967     1   0.10969 276646.080000
   2968   2969     1   0.10969 276646.080000
   2968   2970     1   0.10969 276646.080000
   2971   2972     1   0.10969 276646.080000
   2971   2973     1   0.10969 276646.080000
   2974   2975     1   0.10969 276646.080000
   2974   2976     1   0.10969 276646.080000
   2977   2978     1   0.10969 276646.080000
   2977   2979     1   0.10969 276646.080000
   2980   2981     1   0.10969 276646.080000
   2980   2982     1   0.10969 276646.080000
   2983   2984     1   0.10969 276646.080000
   2983   2985     1   0.10969 276646.080000
   2988   2989     1   0.10969 276646.080000
   2988   2990     1   0.10969 276646.080000
   2991   2992     1   0.10969 276646.080000
   2991   2993     1   0.10969 276646.080000
   2994   2995     1   0.10969 276646.080000
   2994   2996     1   0.10969 276646.080000
   2997   2998     1   0.10969 276646.080000
   2997   2999     1   0.10969 276646.080000
   3000   3001     1   0.10969 276646.080000
   3000   3002     1   0.10969 276646.080000
   3003   3004     1   0.10969 276646.080000
   3003   3005     1   0.10969 276646.080000
   3006   3007     1   0.10969 276646.080000
   3006   3008     1   0.10969 276646.080000
   3009   3010     1   0.10969 276646.080000
   3009   3011     1   0.10969 276646.080000
   3012   3013     1   0.10969 276646.080000
   3012   3014     1   0.10969 276646.080000
   3017   3018     1   0.10969 276646.080000
   3017   3019     1   0.10969 276646.080000
   3020   3021     1   0.10969 276646.080000
   3020   3022     1   0.10969 276646.080000
   3023   3024     1   0.10969 276646.080000
   3023   3025     1   0.10969 276646.080000
   3026   3027     1   0.10969 276646.080000
   3026   3028     1   0.10969 276646.080000
   3029   3030     1   0.10969 276646.080000
   3029   3031     1   0.10969 276646.080000
   3032   3033     1   0.10969 276646.080000
   3032   3034     1   0.10969 276646.080000
   3035   3036     1   0.10969 276646.080000
   3035   3037     1   0.10969 276646.080000
   3038   3039     1   0.10969 276646.080000
   3038   3040     1   0.10969 276646.080000
   3041   3042     1   0.10969 276646.080000
   3041   3043     1   0.10969 276646.080000
   3046   3047     1   0.10969 276646.080000
   3046   3048     1   0.10969 276646.080000
   3049   3050     1   0.10969 276646.080000
   3049   3051     1   0.10969 276646.080000
   3052   3053     1   0.10969 276646.080000
   3052   3054     1   0.10969 276646.080000
   3055   3056     1   0.10969 276646.080000
   3055   3057     1   0.10969 276646.080000
   3058   3059     1   0.10969 276646.080000
   3058   3060     1   0.10969 276646.080000
   3061   3062     1   0.10969 276646.080000
   3061   3063     1   0.10969 276646.080000
   3064   3065     1   0.10969 276646.080000
   3064   3066     1   0.10969 276646.080000
   3067   3068     1   0.10969 276646.080000
   3067   3069     1   0.10969 276646.080000
   3070   3071     1   0.10969 276646.080000
   3070   3072     1   0.10969 276646.080000
   3075   3076     1   0.10969 276646.080000
   3075   3077     1   0.10969 276646.080000
   3078   3079     1   0.10969 276646.080000
   3078   3080     1   0.10969 276646.080000
   3081   3082     1   0.10969 276646.080000
   3081   3083     1   0.10969 276646.080000
   3084   3085     1   0.10969 276646.080000
   3084   3086     1   0.10969 276646.080000
   3087   3088     1   0.10969 276646.080000
   3087   3089     1   0.10969 276646.080000
   3090   3091     1   0.10969 276646.080000
   3090   3092     1   0.10969 276646.080000
   3093   3094     1   0.10969 276646.080000
   3093   3095     1   0.10969 276646.080000
   3096   3097     1   0.10969 276646.080000
   3096   3098     1   0.10969 276646.080000
   3099   3100     1   0.10969 276646.080000
   3099   3101     1   0.10969 276646.080000
   3104   3105     1   0.10969 276646.080000
   3104   3106     1   0.10969 276646.080000
   3107   3108     1   0.10969 276646.080000
   3107   3109     1   0.10969 276646.080000
   3110   3111     1   0.10969 276646.080000
   3110   3112     1   0.10969 276646.080000
   3113   3114     1   0.10969 276646.080000
   3113   3115     1   0.10969 276646.080000
   3116   3117     1   0.10969 276646.080000
   3116   3118     1   0.10969 276646.080000
   3119   3120     1   0.10969 276646.080000
   3119   3121     1   0.10969 276646.080000
   3122   3123     1   0.10969 276646.080000
   3122   3124     1   0.10969 276646.080000
   3125   3126     1   0.10969 276646.080000
   3125   3127     1   0.10969 276646.080000
   3128   3129     1   0.10969 276646.080000
   3128   3130     1   0.10969 276646.080000
   3133   3134     1   0.10969 276646.080000
   3133   3135     1   0.10969 276646.080000
   3136   3137     1   0.10969 276646.080000
   3136   3138     1   0.10969 276646.080000
   3139   3140     1   0.10969 276646.080000
   3139   3141     1   0.10969 276646.080000
   3142   3143     1   0.10969 276646.080000
   3142   3144     1   0.10969 276646.080000
   3145   3146     1   0.10969 276646.080000
   3145   3147     1   0.10969 276646.080000
   3148   3149     1   0.10969 276646.080000
   3148   3150     1   0.10969 276646.080000
   3151   3152     1   0.10969 276646.080000
   3151   3153     1   0.10969 276646.080000
   3154   3155     1   0.10969 276646.080000
   3154   3156     1   0.10969 276646.080000
   3157   3158     1   0.10969 276646.080000
   3157   3159     1   0.10969 276646.080000
   3162   3163     1   0.10969 276646.080000
   3162   3164     1   0.10969 276646.080000
   3165   3166     1   0.10969 276646.080000
   3165   3167     1   0.10969 276646.080000
   3168   3169     1   0.10969 276646.080000
   3168   3170     1   0.10969 276646.080000
   3171   3172     1   0.10969 276646.080000
   3171   3173     1   0.10969 276646.080000
   3174   3175     1   0.10969 276646.080000
   3174   3176     1   0.10969 276646.080000
   3177   3178     1   0.10969 276646.080000
   3177   3179     1   0.10969 276646.080000
   3180   3181     1   0.10969 276646.080000
   3180   3182     1   0.10969 276646.080000
   3183   3184     1   0.10969 276646.080000
   3183   3185     1   0.10969 276646.080000
   3186   3187     1   0.10969 276646.080000
   3186   3188     1   0.10969 276646.080000
   3191   3192     1   0.10969 276646.080000
   3191   3193     1   0.10969 276646.080000
   3194   3195     1   0.10969 276646.080000
   3194   3196     1   0.10969 276646.080000
   3197   3198     1   0.10969 276646.080000
   3197   3199     1   0.10969 276646.080000
   3200   3201     1   0.10969 276646.080000
   3200   3202     1   0.10969 276646.080000
   3203   3204     1   0.10969 276646.080000
   3203   3205     1   0.10969 276646.080000
   3206   3207     1   0.10969 276646.080000
   3206   3208     1   0.10969 276646.080000
   3209   3210     1   0.10969 276646.080000
   3209   3211     1   0.10969 276646.080000
   3212   3213     1   0.10969 276646.080000
   3212   3214     1   0.10969 276646.080000
   3215   3216     1   0.10969 276646.080000
   3215   3217     1   0.10969 276646.080000
   3220   3221     1   0.10969 276646.080000
   3220   3222     1   0.10969 276646.080000
   3223   3224     1   0.10969 276646.080000
   3223   3225     1   0.10969 276646.080000
   3226   3227     1   0.10969 276646.080000
   3226   3228     1   0.10969 276646.080000
   3229   3230     1   0.10969 276646.080000
   3229   3231     1   0.10969 276646.080000
   3232   3233     1   0.10969 276646.080000
   3232   3234     1   0.10969 276646.080000
   3235   3236     1   0.10969 276646.080000
   3235   3237     1   0.10969 276646.080000
   3238   3239     1   0.10969 276646.080000
   3238   3240     1   0.10969 276646.080000
   3241   3242     1   0.10969 276646.080000
   3241   3243     1   0.10969 276646.080000
   3244   3245     1   0.10969 276646.080000
   3244   3246     1   0.10969 276646.080000
   3249   3250     1   0.10969 276646.080000
   3249   3251     1   0.10969 276646.080000
   3252   3253     1   0.10969 276646.080000
   3252   3254     1   0.10969 276646.080000
   3255   3256     1   0.10969 276646.080000
   3255   3257     1   0.10969 276646.080000
   3258   3259     1   0.10969 276646.080000
   3258   3260     1   0.10969 276646.080000
   3261   3262     1   0.10969 276646.080000
   3261   3263     1   0.10969 276646.080000
   3264   3265     1   0.10969 276646.080000
   3264   3266     1   0.10969 276646.080000
   3267   3268     1   0.10969 276646.080000
   3267   3269     1   0.10969 276646.080000
   3270   3271     1   0.10969 276646.080000
   3270   3272     1   0.10969 276646.080000
   3273   3274     1   0.10969 276646.080000
   3273   3275     1   0.10969 276646.080000
   3278   3279     1   0.10969 276646.080000
   3278   3280     1   0.10969 276646.080000
   3281   3282     1   0.10969 276646.080000
   3281   3283     1   0.10969 276646.080000
   3284   3285     1   0.10969 276646.080000
   3284   3286     1   0.10969 276646.080000
   3287   3288     1   0.10969 276646.080000
   3287   3289     1   0.10969 276646.080000
   3290   3291     1   0.10969 276646.080000
   3290   3292     1   0.10969 276646.080000
   3293   3294     1   0.10969 276646.080000
   3293   3295     1   0.10969 276646.080000
   3296   3297     1   0.10969 276646.080000
   3296   3298     1   0.10969 276646.080000
   3299   3300     1   0.10969 276646.080000
   3299   3301     1   0.10969 276646.080000
   3302   3303     1   0.10969 276646.080000
   3302   3304     1   0.10969 276646.080000
   3307   3308     1   0.10969 276646.080000
   3307   3309     1   0.10969 276646.080000
   3310   3311     1   0.10969 276646.080000
   3310   3312     1   0.10969 276646.080000
   3313   3314     1   0.10969 276646.080000
   3313   3315     1   0.10969 276646.080000
   3316   3317     1   0.10969 276646.080000
   3316   3318     1   0.10969 276646.080000
   3319   3320     1   0.10969 276646.080000
   3319   3321     1   0.10969 276646.080000
   3322   3323     1   0.10969 276646.080000
   3322   3324     1   0.10969 276646.080000
   3325   3326     1   0.10969 276646.080000
   3325   3327     1   0.10969 276646.080000
   3328   3329     1   0.10969 276646.080000
   3328   3330     1   0.10969 276646.080000
   3331   3332     1   0.10969 276646.080000
   3331   3333     1   0.10969 276646.080000
   3336   3337     1   0.10969 276646.080000
   3336   3338     1   0.10969 276646.080000
   3339   3340     1   0.10969 276646.080000
   3339   3341     1   0.10969 276646.080000
   3342   3343     1   0.10969 276646.080000
   3342   3344     1   0.10969 276646.080000
   3345   3346     1   0.10969 276646.080000
   3345   3347     1   0.10969 276646.080000
   3348   3349     1   0.10969 276646.080000
   3348   3350     1   0.10969 276646.080000
   3351   3352     1   0.10969 276646.080000
   3351   3353     1   0.10969 276646.080000
   3354   3355     1   0.10969 276646.080000
   3354   3356     1   0.10969 276646.080000
   3357   3358     1   0.10969 276646.080000
   3357   3359     1   0.10969 276646.080000
   3360   3361     1   0.10969 276646.080000
   3360   3362     1   0.10969 276646.080000
   3365   3366     1   0.10969 276646.080000
   3365   3367     1   0.10969 276646.080000
   3368   3369     1   0.10969 276646.080000
   3368   3370     1   0.10969 276646.080000
   3371   3372     1   0.10969 276646.080000
   3371   3373     1   0.10969 276646.080000
   3374   3375     1   0.10969 276646.080000
   3374   3376     1   0.10969 276646.080000
   3377   3378     1   0.10969 276646.080000
   3377   3379     1   0.10969 276646.080000
   3380   3381     1   0.10969 276646.080000
   3380   3382     1   0.10969 276646.080000
   3383   3384     1   0.10969 276646.080000
   3383   3385     1   0.10969 276646.080000
   3386   3387     1   0.10969 276646.080000
   3386   3388     1   0.10969 276646.080000
   3389   3390     1   0.10969 276646.080000
   3389   3391     1   0.10969 276646.080000
   3394   3395     1   0.10969 276646.080000
   3394   3396     1   0.10969 276646.080000
   3397   3398     1   0.10969 276646.080000
   3397   3399     1   0.10969 276646.080000
   3400   3401     1   0.10969 276646.080000
   3400   3402     1   0.10969 276646.080000
   3403   3404     1   0.10969 276646.080000
   3403   3405     1   0.10969 276646.080000
   3406   3407     1   0.10969 276646.080000
   3406   3408     1   0.10969 276646.080000
   3409   3410     1   0.10969 276646.080000
   3409   3411     1   0.10969 276646.080000
   3412   3413     1   0.10969 276646.080000
   3412   3414     1   0.10969 276646.080000
   3415   3416     1   0.10969 276646.080000
   3415   3417     1   0.10969 276646.080000
   3418   3419     1   0.10969 276646.080000
   3418   3420     1   0.10969 276646.080000
   3423   3424     1   0.10969 276646.080000
   3423   3425     1   0.10969 276646.080000
   3426   3427     1   0.10969 276646.080000
   3426   3428     1   0.10969 276646.080000
   3429   3430     1   0.10969 276646.080000
   3429   3431     1   0.10969 276646.080000
   3432   3433     1   0.10969 276646.080000
   3432   3434     1   0.10969 276646.080000
   3435   3436     1   0.10969 276646.080000
   3435   3437     1   0.10969 276646.080000
   3438   3439     1   0.10969 276646.080000
   3438   3440     1   0.10969 276646.080000
   3441   3442     1   0.10969 276646.080000
   3441   3443     1   0.10969 276646.080000
   3444   3445     1   0.10969 276646.080000
   3444   3446     1   0.10969 276646.080000
   3447   3448     1   0.10969 276646.080000
   3447   3449     1   0.10969 276646.080000
   3452   3453     1   0.10969 276646.080000
   3452   3454     1   0.10969 276646.080000
   3455   3456     1   0.10969 276646.080000
   3455   3457     1   0.10969 276646.080000
   3458   3459     1   0.10969 276646.080000
   3458   3460     1   0.10969 276646.080000
   3461   3462     1   0.10969 276646.080000
   3461   3463     1   0.10969 276646.080000
   3464   3465     1   0.10969 276646.080000
   3464   3466     1   0.10969 276646.080000
   3467   3468     1   0.10969 276646.080000
   3467   3469     1   0.10969 276646.080000
   3470   3471     1   0.10969 276646.080000
   3470   3472     1   0.10969 276646.080000
   3473   3474     1   0.10969 276646.080000
   3473   3475     1   0.10969 276646.080000
   3476   3477     1   0.10969 276646.080000
   3476   3478     1   0.10969 276646.080000
   3481   3482     1   0.10969 276646.080000
   3481   3483     1   0.10969 276646.080000
   3484   3485     1   0.10969 276646.080000
   3484   3486     1   0.10969 276646.080000
   3487   3488     1   0.10969 276646.080000
   3487   3489     1   0.10969 276646.080000
   3490   3491     1   0.10969 276646.080000
   3490   3492     1   0.10969 276646.080000
   3493   3494     1   0.10969 276646.080000
   3493   3495     1   0.10969 276646.080000
   3496   3497     1   0.10969 276646.080000
   3496   3498     1   0.10969 276646.080000
   3499   3500     1   0.10969 276646.080000
   3499   3501     1   0.10969 276646.080000
   3502   3503     1   0.10969 276646.080000
   3502   3504     1   0.10969 276646.080000
   3505   3506     1   0.10969 276646.080000
   3505   3507     1   0.10969 276646.080000
   3510   3511     1   0.10969 276646.080000
   3510   3512     1   0.10969 276646.080000
   3513   3514     1   0.10969 276646.080000
   3513   3515     1   0.10969 276646.080000
   3516   3517     1   0.10969 276646.080000
   3516   3518     1   0.10969 276646.080000
   3519   3520     1   0.10969 276646.080000
   3519   3521     1   0.10969 276646.080000
   3522   3523     1   0.10969 276646.080000
   3522   3524     1   0.10969 276646.080000
   3525   3526     1   0.10969 276646.080000
   3525   3527     1   0.10969 276646.080000
   3528   3529     1   0.10969 276646.080000
   3528   3530     1   0.10969 276646.080000
   3531   3532     1   0.10969 276646.080000
   3531   3533     1   0.10969 276646.080000
   3534   3535     1   0.10969 276646.080000
   3534   3536     1   0.10969 276646.080000
   3539   3540     1   0.10969 276646.080000
   3539   3541     1   0.10969 276646.080000
   3542   3543     1   0.10969 276646.080000
   3542   3544     1   0.10969 276646.080000
   3545   3546     1   0.10969 276646.080000
   3545   3547     1   0.10969 276646.080000
   3548   3549     1   0.10969 276646.080000
   3548   3550     1   0.10969 276646.080000
   3551   3552     1   0.10969 276646.080000
   3551   3553     1   0.10969 276646.080000
   3554   3555     1   0.10969 276646.080000
   3554   3556     1   0.10969 276646.080000
   3557   3558     1   0.10969 276646.080000
   3557   3559     1   0.10969 276646.080000
   3560   3561     1   0.10969 276646.080000
   3560   3562     1   0.10969 276646.080000
   3563   3564     1   0.10969 276646.080000
   3563   3565     1   0.10969 276646.080000
   3568   3569     1   0.10969 276646.080000
   3568   3570     1   0.10969 276646.080000
   3571   3572     1   0.10969 276646.080000
   3571   3573     1   0.10969 276646.080000
   3574   3575     1   0.10969 276646.080000
   3574   3576     1   0.10969 276646.080000
   3577   3578     1   0.10969 276646.080000
   3577   3579     1   0.10969 276646.080000
   3580   3581     1   0.10969 276646.080000
   3580   3582     1   0.10969 276646.080000
   3583   3584     1   0.10969 276646.080000
   3583   3585     1   0.10969 276646.080000
   3586   3587     1   0.10969 276646.080000
   3586   3588     1   0.10969 276646.080000
   3589   3590     1   0.10969 276646.080000
   3589   3591     1   0.10969 276646.080000
   3592   3593     1   0.10969 276646.080000
   3592   3594     1   0.10969 276646.080000
   3597   3598     1   0.10969 276646.080000
   3597   3599     1   0.10969 276646.080000
   3600   3601     1   0.10969 276646.080000
   3600   3602     1   0.10969 276646.080000
   3603   3604     1   0.10969 276646.080000
   3603   3605     1   0.10969 276646.080000
   3606   3607     1   0.10969 276646.080000
   3606   3608     1   0.10969 276646.080000
   3609   3610     1   0.10969 276646.080000
   3609   3611     1   0.10969 276646.080000
   3612   3613     1   0.10969 276646.080000
   3612   3614     1   0.10969 276646.080000
   3615   3616     1   0.10969 276646.080000
   3615   3617     1   0.10969 276646.080000
   3618   3619     1   0.10969 276646.080000
   3618   3620     1   0.10969 276646.080000
   3621   3622     1   0.10969 276646.080000
   3621   3623     1   0.10969 276646.080000
   3626   3627     1   0.10969 276646.080000
   3626   3628     1   0.10969 276646.080000
   3629   3630     1   0.10969 276646.080000
   3629   3631     1   0.10969 276646.080000
   3632   3633     1   0.10969 276646.080000
   3632   3634     1   0.10969 276646.080000
   3635   3636     1   0.10969 276646.080000
   3635   3637     1   0.10969 276646.080000
   3638   3639     1   0.10969 276646.080000
   3638   3640     1   0.10969 276646.080000
   3641   3642     1   0.10969 276646.080000
   3641   3643     1   0.10969 276646.080000
   3644   3645     1   0.10969 276646.080000
   3644   3646     1   0.10969 276646.080000
   3647   3648     1   0.10969 276646.080000
   3647   3649     1   0.10969 276646.080000
   3650   3651     1   0.10969 276646.080000
   3650   3652     1   0.10969 276646.080000
   3654   3655     1   0.10969 276646.080000
   3654   3656     1   0.10969 276646.080000
   3657   3658     1   0.10969 276646.080000
   3657   3659     1   0.10969 276646.080000
   3660   3661     1   0.10969 276646.080000
   3660   3662     1   0.10969 276646.080000
   3664   3665     1   0.10969 276646.080000
   3664   3666     1   0.10969 276646.080000
   3667   3668     1   0.10969 276646.080000
   3667   3669     1   0.10969 276646.080000
   3673   3674     1   0.10969 276646.080000
   3673   3675     1   0.10969 276646.080000
   3676   3677     1   0.10969 276646.080000
   3676   3678     1   0.10969 276646.080000
   3683   3684     1   0.10969 276646.080000
   3683   3685     1   0.10969 276646.080000
   3686   3687     1   0.10969 276646.080000
   3686   3688     1   0.10969 276646.080000
   3689   3690     1   0.10969 276646.080000
   3689   3691     1   0.10969 276646.080000
   3693   3694     1   0.10969 276646.080000
   3693   3695     1   0.10969 276646.080000
   3696   3697     1   0.10969 276646.080000
   3696   3698     1   0.10969 276646.080000
   3702   3703     1   0.10969 276646.080000
   3702   3704     1   0.10969 276646.080000
   3705   3706     1   0.10969 276646.080000
   3705   3707     1   0.10969 276646.080000
   3712   3713     1   0.10969 276646.080000
   3712   3714     1   0.10969 276646.080000
   3715   3716     1   0.10969 276646.080000
   3715   3717     1   0.10969 276646.080000
   3718   3719     1   0.10969 276646.080000
   3718   3720     1   0.10969 276646.080000
   3722   3723     1   0.10969 276646.080000
   3722   3724     1   0.10969 276646.080000
   3725   3726     1   0.10969 276646.080000
   3725   3727     1   0.10969 276646.080000
   3731   3732     1   0.10969 276646.080000
   3731   3733     1   0.10969 276646.080000
   3734   3735     1   0.10969 276646.080000
   3734   3736     1   0.10969 276646.080000
   3741   3742     1   0.10969 276646.080000
   3741   3743     1   0.10969 276646.080000
   3744   3745     1   0.10969 276646.080000
   3744   3746     1   0.10969 276646.080000
   3747   3748     1   0.10969 276646.080000
   3747   3749     1   0.10969 276646.080000
   3751   3752     1   0.10969 276646.080000
   3751   3753     1   0.10969 276646.080000
   3754   3755     1   0.10969 276646.080000
   3754   3756     1   0.10969 276646.080000
   3760   3761     1   0.10969 276646.080000
   3760   3762     1   0.10969 276646.080000
   3763   3764     1   0.10969 276646.080000
   3763   3765     1   0.10969 276646.080000
   3770   3771     1   0.10969 276646.080000
   3770   3772     1   0.10969 276646.080000
   3773   3774     1   0.10969 276646.080000
   3773   3775     1   0.10969 276646.080000
   3776   3777     1   0.10969 276646.080000
   3776   3778     1   0.10969 276646.080000
   3780   3781     1   0.10969 276646.080000
   3780   3782     1   0.10969 276646.080000
   3783   3784     1   0.10969 276646.080000
   3783   3785     1   0.10969 276646.080000
   3789   3790     1   0.10969 276646.080000
   3789   3791     1   0.10969 276646.080000
   3792   3793     1   0.10969 276646.080000
   3792   3794     1   0.10969 276646.080000
   3799   3800     1   0.10969 276646.080000
   3799   3801     1   0.10969 276646.080000
   3802   3803     1   0.10969 276646.080000
   3802   3804     1   0.10969 276646.080000
   3805   3806     1   0.10969 276646.080000
   3805   3807     1   0.10969 276646.080000
   3809   3810     1   0.10969 276646.080000
   3809   3811     1   0.10969 276646.080000
   3812   3813     1   0.10969 276646.080000
   3812   3814     1   0.10969 276646.080000
   3818   3819     1   0.10969 276646.080000
   3818   3820     1   0.10969 276646.080000
   3821   3822     1   0.10969 276646.080000
   3821   3823     1   0.10969 276646.080000
   3828   3829     1   0.10969 276646.080000
   3828   3830     1   0.10969 276646.080000
   3831   3832     1   0.10969 276646.080000
   3831   3833     1   0.10969 276646.080000
   3834   3835     1   0.10969 276646.080000
   3834   3836     1   0.10969 276646.080000
   3838   3839     1   0.10969 276646.080000
   3838   3840     1   0.10969 276646.080000
   3841   3842     1   0.10969 276646.080000
   3841   3843     1   0.10969 276646.080000
   3847   3848     1   0.10969 276646.080000
   3847   3849     1   0.10969 276646.080000
   3850   3851     1   0.10969 276646.080000
   3850   3852     1   0.10969 276646.080000
   3857   3858     1   0.10969 276646.080000
   3857   3859     1   0.10969 276646.080000
   3860   3861     1   0.10969 276646.080000
   3860   3862     1   0.10969 276646.080000
   3863   3864     1   0.10969 276646.080000
   3863   3865     1   0.10969 276646.080000
   3867   3868     1   0.10969 276646.080000
   3867   3869     1   0.10969 276646.080000
   3870   3871     1   0.10969 276646.080000
   3870   3872     1   0.10969 276646.080000
   3876   3877     1   0.10969 276646.080000
   3876   3878     1   0.10969 276646.080000
   3879   3880     1   0.10969 276646.080000
   3879   3881     1   0.10969 276646.080000
   3886   3887     1   0.10969 276646.080000
   3886   3888     1   0.10969 276646.080000
   3889   3890     1   0.10969 276646.080000
   3889   3891     1   0.10969 276646.080000
   3892   3893     1   0.10969 276646.080000
   3892   3894     1   0.10969 276646.080000
   3896   3897     1   0.10969 276646.080000
   3896   3898     1   0.10969 276646.080000
   3899   3900     1   0.10969 276646.080000
   3899   3901     1   0.10969 276646.080000
   3905   3906     1   0.10969 276646.080000
   3905   3907     1   0.10969 276646.080000
   3908   3909     1   0.10969 276646.080000
   3908   3910     1   0.10969 276646.080000
   3915   3916     1   0.10969 276646.080000
   3915   3917     1   0.10969 276646.080000
   3918   3919     1   0.10969 276646.080000
   3918   3920     1   0.10969 276646.080000
   3921   3922     1   0.10969 276646.080000
   3921   3923     1   0.10969 276646.080000
   3925   3926     1   0.10969 276646.080000
   3925   3927     1   0.10969 276646.080000
   3928   3929     1   0.10969 276646.080000
   3928   3930     1   0.10969 276646.080000
   3934   3935     1   0.10969 276646.080000
   3934   3936     1   0.10969 276646.080000
   3937   3938     1   0.10969 276646.080000
   3937   3939     1   0.10969 276646.080000
   3944   3945     1   0.10969 276646.080000
   3944   3946     1   0.10969 276646.080000
   3947   3948     1   0.10969 276646.080000
   3947   3949     1   0.10969 276646.080000
   3950   3951     1   0.10969 276646.080000
   3950   3952     1   0.10969 276646.080000
   3954   3955     1   0.10969 276646.080000
   3954   3956     1   0.10969 276646.080000
   3957   3958     1   0.10969 276646.080000
   3957   3959     1   0.10969 276646.080000
   3963   3964     1   0.10969 276646.080000
   3963   3965     1   0.10969 276646.080000
   3966   3967     1   0.10969 276646.080000
   3966   3968     1   0.10969 276646.080000
   3973   3974     1   0.10969 276646.080000
   3973   3975     1   0.10969 276646.080000
   3976   3977     1   0.10969 276646.080000
   3976   3978     1   0.10969 276646.080000
   3979   3980     1   0.10969 276646.080000
   3979   3981     1   0.10969 276646.080000
   3983   3984     1   0.10969 276646.080000
   3983   3985     1   0.10969 276646.080000
   3986   3987     1   0.10969 276646.080000
   3986   3988     1   0.10969 276646.080000
   3992   3993     1   0.10969 276646.080000
   3992   3994     1   0.10969 276646.080000
   3995   3996     1   0.10969 276646.080000
   3995   3997     1   0.10969 276646.080000
   4002   4003     1   0.10969 276646.080000
   4002   4004     1   0.10969 276646.080000
   4005   4006     1   0.10969 276646.080000
   4005   4007     1   0.10969 276646.080000
   4008   4009     1   0.10969 276646.080000
   4008   4010     1   0.10969 276646.080000
   4012   4013     1   0.10969 276646.080000
   4012   4014     1   0.10969 276646.080000
   4015   4016     1   0.10969 276646.080000
   4015   4017     1   0.10969 276646.080000
   4021   4022     1   0.10969 276646.080000
   4021   4023     1   0.10969 276646.080000
   4024   4025     1   0.10969 276646.080000
   4024   4026     1   0.10969 276646.080000
   4031   4032     1   0.10969 276646.080000
   4031   4033     1   0.10969 276646.080000
   4034   4035     1   0.10969 276646.080000
   4034   4036     1   0.10969 276646.080000
   4037   4038     1   0.10969 276646.080000
   4037   4039     1   0.10969 276646.080000
   4041   4042     1   0.10969 276646.080000
   4041   4043     1   0.10969 276646.080000
   4044   4045     1   0.10969 276646.080000
   4044   4046     1   0.10969 276646.080000
   4050   4051     1   0.10969 276646.080000
   4050   4052     1   0.10969 276646.080000
   4053   4054     1   0.10969 276646.080000
   4053   4055     1   0.10969 276646.080000
   4060   4061     1   0.10969 276646.080000
   4060   4062     1   0.10969 276646.080000
   4063   4064     1   0.10969 276646.080000
   4063   4065     1   0.10969 276646.080000
   4066   4067     1   0.10969 276646.080000
   4066   4068     1   0.10969 276646.080000
   4070   4071     1   0.10969 276646.080000
   4070   4072     1   0.10969 276646.080000
   4073   4074     1   0.10969 276646.080000
   4073   4075     1   0.10969 276646.080000
   4079   4080     1   0.10969 276646.080000
   4079   4081     1   0.10969 276646.080000
   4082   4083     1   0.10969 276646.080000
   4082   4084     1   0.10969 276646.080000
   4089   4090     1   0.10969 276646.080000
   4089   4091     1   0.10969 276646.080000
   4092   4093     1   0.10969 276646.080000
   4092   4094     1   0.10969 276646.080000
   4095   4096     1   0.10969 276646.080000
   4095   4097     1   0.10969 276646.080000
   4099   4100     1   0.10969 276646.080000
   4099   4101     1   0.10969 276646.080000
   4102   4103     1   0.10969 276646.080000
   4102   4104     1   0.10969 276646.080000
   4108   4109     1   0.10969 276646.080000
   4108   4110     1   0.10969 276646.080000
   4111   4112     1   0.10969 276646.080000
   4111   4113     1   0.10969 276646.080000
   4118   4119     1   0.10969 276646.080000
   4118   4120     1   0.10969 276646.080000
   4121   4122     1   0.10969 276646.080000
   4121   4123     1   0.10969 276646.080000
   4124   4125     1   0.10969 276646.080000
   4124   4126     1   0.10969 276646.080000
   4128   4129     1   0.10969 276646.080000
   4128   4130     1   0.10969 276646.080000
   4131   4132     1   0.10969 276646.080000
   4131   4133     1   0.10969 276646.080000
   4137   4138     1   0.10969 276646.080000
   4137   4139     1   0.10969 276646.080000
   4140   4141     1   0.10969 276646.080000
   4140   4142     1   0.10969 276646.080000
   4147   4148     1   0.10969 276646.080000
   4147   4149     1   0.10969 276646.080000
   4150   4151     1   0.10969 276646.080000
   4150   4152     1   0.10969 276646.080000
   4153   4154     1   0.10969 276646.080000
   4153   4155     1   0.10969 276646.080000
   4157   4158     1   0.10969 276646.080000
   4157   4159     1   0.10969 276646.080000
   4160   4161     1   0.10969 276646.080000
   4160   4162     1   0.10969 276646.080000
   4166   4167     1   0.10969 276646.080000
   4166   4168     1   0.10969 276646.080000
   4169   4170     1   0.10969 276646.080000
   4169   4171     1   0.10969 276646.080000
   4176   4177     1   0.10969 276646.080000
   4176   4178     1   0.10969 276646.080000
   4179   4180     1   0.10969 276646.080000
   4179   4181     1   0.10969 276646.080000
   4182   4183     1   0.10969 276646.080000
   4182   4184     1   0.10969 276646.080000
   4186   4187     1   0.10969 276646.080000
   4186   4188     1   0.10969 276646.080000
   4189   4190     1   0.10969 276646.080000
   4189   4191     1   0.10969 276646.080000
   4195   4196     1   0.10969 276646.080000
   4195   4197     1   0.10969 276646.080000
   4198   4199     1   0.10969 276646.080000
   4198   4200     1   0.10969 276646.080000
   4205   4206     1   0.10969 276646.080000
   4205   4207     1   0.10969 276646.080000
   4208   4209     1   0.10969 276646.080000
   4208   4210     1   0.10969 276646.080000
   4211   4212     1   0.10969 276646.080000
   4211   4213     1   0.10969 276646.080000
   4215   4216     1   0.10969 276646.080000
   4215   4217     1   0.10969 276646.080000
   4218   4219     1   0.10969 276646.080000
   4218   4220     1   0.10969 276646.080000
   4224   4225     1   0.10969 276646.080000
   4224   4226     1   0.10969 276646.080000
   4227   4228     1   0.10969 276646.080000
   4227   4229     1   0.10969 276646.080000
   4234   4235     1   0.10969 276646.080000
   4234   4236     1   0.10969 276646.080000
   4237   4238     1   0.10969 276646.080000
   4237   4239     1   0.10969 276646.080000
   4240   4241     1   0.10969 276646.080000
   4240   4242     1   0.10969 276646.080000
   4244   4245     1   0.10969 276646.080000
   4244   4246     1   0.10969 276646.080000
   4247   4248     1   0.10969 276646.080000
   4247   4249     1   0.10969 276646.080000
   4253   4254     1   0.10969 276646.080000
   4253   4255     1   0.10969 276646.080000
   4256   4257     1   0.10969 276646.080000
   4256   4258     1   0.10969 276646.080000
   4263   4264     1   0.10969 276646.080000
   4263   4265     1   0.10969 276646.080000
   4266   4267     1   0.10969 276646.080000
   4266   4268     1   0.10969 276646.080000
   4269   4270     1   0.10969 276646.080000
   4269   4271     1   0.10969 276646.080000
   4273   4274     1   0.10969 276646.080000
   4273   4275     1   0.10969 276646.080000
   4276   4277     1   0.10969 276646.080000
   4276   4278     1   0.10969 276646.080000
   4282   4283     1   0.10969 276646.080000
   4282   4284     1   0.10969 276646.080000
   4285   4286     1   0.10969 276646.080000
   4285   4287     1   0.10969 276646.080000
   4292   4293     1   0.10969 276646.080000
   4292   4294     1   0.10969 276646.080000
   4295   4296     1   0.10969 276646.080000
   4295   4297     1   0.10969 276646.080000
   4298   4299     1   0.10969 276646.080000
   4298   4300     1   0.10969 276646.080000
   4302   4303     1   0.10969 276646.080000
   4302   4304     1   0.10969 276646.080000
   4305   4306     1   0.10969 276646.080000
   4305   4307     1   0.10969 276646.080000
   4311   4312     1   0.10969 276646.080000
   4311   4313     1   0.10969 276646.080000
   4314   4315     1   0.10969 276646.080000
   4314   4316     1   0.10969 276646.080000
   4321   4322     1   0.10969 276646.080000
   4321   4323     1   0.10969 276646.080000
   4324   4325     1   0.10969 276646.080000
   4324   4326     1   0.10969 276646.080000
   4327   4328     1   0.10969 276646.080000
   4327   4329     1   0.10969 276646.080000
   4331   4332     1   0.10969 276646.080000
   4331   4333     1   0.10969 276646.080000
   4334   4335     1   0.10969 276646.080000
   4334   4336     1   0.10969 276646.080000
   4340   4341     1   0.10969 276646.080000
   4340   4342     1   0.10969 276646.080000
   4343   4344     1   0.10969 276646.080000
   4343   4345     1   0.10969 276646.080000
   4350   4351     1   0.10969 276646.080000
   4350   4352     1   0.10969 276646.080000
   4353   4354     1   0.10969 276646.080000
   4353   4355     1   0.10969 276646.080000
   4356   4357     1   0.10969 276646.080000
   4356   4358     1   0.10969 276646.080000
   4360   4361     1   0.10969 276646.080000
   4360   4362     1   0.10969 276646.080000
   4363   4364     1   0.10969 276646.080000
   4363   4365     1   0.10969 276646.080000
   4369   4370     1   0.10969 276646.080000
   4369   4371     1   0.10969 276646.080000
   4372   4373     1   0.10969 276646.080000
   4372   4374     1   0.10969 276646.080000
   4379   4380     1   0.10969 276646.080000
   4379   4381     1   0.10969 276646.080000
   4382   4383     1   0.10969 276646.080000
   4382   4384     1   0.10969 276646.080000
   4385   4386     1   0.10969 276646.080000
   4385   4387     1   0.10969 276646.080000
   4389   4390     1   0.10969 276646.080000
   4389   4391     1   0.10969 276646.080000
   4392   4393     1   0.10969 276646.080000
   4392   4394     1   0.10969 276646.080000
   4398   4399     1   0.10969 276646.080000
   4398   4400     1   0.10969 276646.080000
   4401   4402     1   0.10969 276646.080000
   4401   4403     1   0.10969 276646.080000
   4408   4409     1   0.10969 276646.080000
   4408   4410     1   0.10969 276646.080000
   4411   4412     1   0.10969 276646.080000
   4411   4413     1   0.10969 276646.080000
   4414   4415     1   0.10969 276646.080000
   4414   4416     1   0.10969 276646.080000
   4418   4419     1   0.10969 276646.080000
   4418   4420     1   0.10969 276646.080000
   4421   4422     1   0.10969 276646.080000
   4421   4423     1   0.10969 276646.080000
   4427   4428     1   0.10969 276646.080000
   4427   4429     1   0.10969 276646.080000
   4430   4431     1   0.10969 276646.080000
   4430   4432     1   0.10969 276646.080000
   4437   4438     1   0.10969 276646.080000
   4437   4439     1   0.10969 276646.080000
   4440   4441     1   0.10969 276646.080000
   4440   4442     1   0.10969 276646.080000
   4443   4444     1   0.10969 276646.080000
   4443   4445     1   0.10969 276646.080000
   4447   4448     1   0.10969 276646.080000
   4447   4449     1   0.10969 276646.080000
   4450   4451     1   0.10969 276646.080000
   4450   4452     1   0.10969 276646.080000
   4456   4457     1   0.10969 276646.080000
   4456   4458     1   0.10969 276646.080000
   4459   4460     1   0.10969 276646.080000
   4459   4461     1   0.10969 276646.080000
   4466   4467     1   0.10969 276646.080000
   4466   4468     1   0.10969 276646.080000
   4469   4470     1   0.10969 276646.080000
   4469   4471     1   0.10969 276646.080000
   4472   4473     1   0.10969 276646.080000
   4472   4474     1   0.10969 276646.080000
   4476   4477     1   0.10969 276646.080000
   4476   4478     1   0.10969 276646.080000
   4479   4480     1   0.10969 276646.080000
   4479   4481     1   0.10969 276646.080000
   4485   4486     1   0.10969 276646.080000
   4485   4487     1   0.10969 276646.080000
   4488   4489     1   0.10969 276646.080000
   4488   4490     1   0.10969 276646.080000
   4495   4496     1   0.10969 276646.080000
   4495   4497     1   0.10969 276646.080000
   4498   4499     1   0.10969 276646.080000
   4498   4500     1   0.10969 276646.080000
   4501   4502     1   0.10969 276646.080000
   4501   4503     1   0.10969 276646.080000
   4505   4506     1   0.10969 276646.080000
   4505   4507     1   0.10969 276646.080000
   4508   4509     1   0.10969 276646.080000
   4508   4510     1   0.10969 276646.080000
   4514   4515     1   0.10969 276646.080000
   4514   4516     1   0.10969 276646.080000
   4517   4518     1   0.10969 276646.080000
   4517   4519     1   0.10969 276646.080000
   4524   4525     1   0.10969 276646.080000
   4524   4526     1   0.10969 276646.080000
   4527   4528     1   0.10969 276646.080000
   4527   4529     1   0.10969 276646.080000
   4530   4531     1   0.10969 276646.080000
   4530   4532     1   0.10969 276646.080000
   4534   4535     1   0.10969 276646.080000
   4534   4536     1   0.10969 276646.080000
   4537   4538     1   0.10969 276646.080000
   4537   4539     1   0.10969 276646.080000
   4543   4544     1   0.10969 276646.080000
   4543   4545     1   0.10969 276646.080000
   4546   4547     1   0.10969 276646.080000
   4546   4548     1   0.10969 276646.080000
   4553   4554     1   0.10969 276646.080000
   4553   4555     1   0.10969 276646.080000
   4556   4557     1   0.10969 276646.080000
   4556   4558     1   0.10969 276646.080000
   4559   4560     1   0.10969 276646.080000
   4559   4561     1   0.10969 276646.080000
   4563   4564     1   0.10969 276646.080000
   4563   4565     1   0.10969 276646.080000
   4566   4567     1   0.10969 276646.080000
   4566   4568     1   0.10969 276646.080000
   4572   4573     1   0.10969 276646.080000
   4572   4574     1   0.10969 276646.080000
   4575   4576     1   0.10969 276646.080000
   4575   4577     1   0.10969 276646.080000
   4582   4583     1   0.10969 276646.080000
   4582   4584     1   0.10969 276646.080000
   4585   4586     1   0.10969 276646.080000
   4585   4587     1   0.10969 276646.080000
   4588   4589     1   0.10969 276646.080000
   4588   4590     1   0.10969 276646.080000
   4592   4593     1   0.10969 276646.080000
   4592   4594     1   0.10969 276646.080000
   4595   4596     1   0.10969 276646.080000
   4595   4597     1   0.10969 276646.080000
   4601   4602     1   0.10969 276646.080000
   4601   4603     1   0.10969 276646.080000
   4604   4605     1   0.10969 276646.080000
   4604   4606     1   0.10969 276646.080000
   4611   4612     1   0.10969 276646.080000
   4611   4613     1   0.10969 276646.080000
   4614   4615     1   0.10969 276646.080000
   4614   4616     1   0.10969 276646.080000
   4617   4618     1   0.10969 276646.080000
   4617   4619     1   0.10969 276646.080000
   4621   4622     1   0.10969 276646.080000
   4621   4623     1   0.10969 276646.080000
   4624   4625     1   0.10969 276646.080000
   4624   4626     1   0.10969 276646.080000
   4630   4631     1   0.10969 276646.080000
   4630   4632     1   0.10969 276646.080000
   4633   4634     1   0.10969 276646.080000
   4633   4635     1   0.10969 276646.080000
   4640   4641     1   0.10969 276646.080000
   4640   4642     1   0.10969 276646.080000
   4643   4644     1   0.10969 276646.080000
   4643   4645     1   0.10969 276646.080000
   4646   4647     1   0.10969 276646.080000
   4646   4648     1   0.10969 276646.080000
   4650   4651     1   0.10969 276646.080000
   4650   4652     1   0.10969 276646.080000
   4653   4654     1   0.10969 276646.080000
   4653   4655     1   0.10969 276646.080000
   4659   4660     1   0.10969 276646.080000
   4659   4661     1   0.10969 276646.080000
   4662   4663     1   0.10969 276646.080000
   4662   4664     1   0.10969 276646.080000
   4669   4670     1   0.10969 276646.080000
   4669   4671     1   0.10969 276646.080000
   4672   4673     1   0.10969 276646.080000
   4672   4674     1   0.10969 276646.080000
   4675   4676     1   0.10969 276646.080000
   4675   4677     1   0.10969 276646.080000
   4679   4680     1   0.10969 276646.080000
   4679   4681     1   0.10969 276646.080000
   4682   4683     1   0.10969 276646.080000
   4682   4684     1   0.10969 276646.080000
   4688   4689     1   0.10969 276646.080000
   4688   4690     1   0.10969 276646.080000
   4691   4692     1   0.10969 276646.080000
   4691   4693     1   0.10969 276646.080000
   4698   4699     1   0.10969 276646.080000
   4698   4700     1   0.10969 276646.080000
   4701   4702     1   0.10969 276646.080000
   4701   4703     1   0.10969 276646.080000
   4704   4705     1   0.10969 276646.080000
   4704   4706     1   0.10969 276646.080000
   4708   4709     1   0.10969 276646.080000
   4708   4710     1   0.10969 276646.080000
   4711   4712     1   0.10969 276646.080000
   4711   4713     1   0.10969 276646.080000
   4717   4718     1   0.10969 276646.080000
   4717   4719     1   0.10969 276646.080000
   4720   4721     1   0.10969 276646.080000
   4720   4722     1   0.10969 276646.080000
   4727   4728     1   0.10969 276646.080000
   4727   4729     1   0.10969 276646.080000
   4730   4731     1   0.10969 276646.080000
   4730   4732     1   0.10969 276646.080000
   4733   4734     1   0.10969 276646.080000
   4733   4735     1   0.10969 276646.080000
   4737   4738     1   0.10969 276646.080000
   4737   4739     1   0.10969 276646.080000
   4740   4741     1   0.10969 276646.080000
   4740   4742     1   0.10969 276646.080000
   4746   4747     1   0.10969 276646.080000
   4746   4748     1   0.10969 276646.080000
   4749   4750     1   0.10969 276646.080000
   4749   4751     1   0.10969 276646.080000
   4756   4757     1   0.10969 276646.080000
   4756   4758     1   0.10969 276646.080000
   4759   4760     1   0.10969 276646.080000
   4759   4761     1   0.10969 276646.080000
   4762   4763     1   0.10969 276646.080000
   4762   4764     1   0.10969 276646.080000
   4766   4767     1   0.10969 276646.080000
   4766   4768     1   0.10969 276646.080000
   4769   4770     1   0.10969 276646.080000
   4769   4771     1   0.10969 276646.080000
   4775   4776     1   0.10969 276646.080000
   4775   4777     1   0.10969 276646.080000
   4778   4779     1   0.10969 276646.080000
   4778   4780     1   0.10969 276646.080000
   4785   4786     1   0.10969 276646.080000
   4785   4787     1   0.10969 276646.080000
   4788   4789     1   0.10969 276646.080000
   4788   4790     1   0.10969 276646.080000
   4791   4792     1   0.10969 276646.080000
   4791   4793     1   0.10969 276646.080000
   4795   4796     1   0.10969 276646.080000
   4795   4797     1   0.10969 276646.080000
   4798   4799     1   0.10969 276646.080000
   4798   4800     1   0.10969 276646.080000
   4804   4805     1   0.10969 276646.080000
   4804   4806     1   0.10969 276646.080000
   4807   4808     1   0.10969 276646.080000
   4807   4809     1   0.10969 276646.080000
   4814   4815     1   0.10969 276646.080000
   4814   4816     1   0.10969 276646.080000
   4817   4818     1   0.10969 276646.080000
   4817   4819     1   0.10969 276646.080000
   4820   4821     1   0.10969 276646.080000
   4820   4822     1   0.10969 276646.080000
   4824   4825     1   0.10969 276646.080000
   4824   4826     1   0.10969 276646.080000
   4827   4828     1   0.10969 276646.080000
   4827   4829     1   0.10969 276646.080000
   4833   4834     1   0.10969 276646.080000
   4833   4835     1   0.10969 276646.080000
   4836   4837     1   0.10969 276646.080000
   4836   4838     1   0.10969 276646.080000
   4843   4844     1   0.10969 276646.080000
   4843   4845     1   0.10969 276646.080000
   4846   4847     1   0.10969 276646.080000
   4846   4848     1   0.10969 276646.080000
   4849   4850     1   0.10969 276646.080000
   4849   4851     1   0.10969 276646.080000
   4853   4854     1   0.10969 276646.080000
   4853   4855     1   0.10969 276646.080000
   4856   4857     1   0.10969 276646.080000
   4856   4858     1   0.10969 276646.080000
   4862   4863     1   0.10969 276646.080000
   4862   4864     1   0.10969 276646.080000
   4865   4866     1   0.10969 276646.080000
   4865   4867     1   0.10969 276646.080000
   4872   4873     1   0.10969 276646.080000
   4872   4874     1   0.10969 276646.080000
   4875   4876     1   0.10969 276646.080000
   4875   4877     1   0.10969 276646.080000
   4878   4879     1   0.10969 276646.080000
   4878   4880     1   0.10969 276646.080000
   4882   4883     1   0.10969 276646.080000
   4882   4884     1   0.10969 276646.080000
   4885   4886     1   0.10969 276646.080000
   4885   4887     1   0.10969 276646.080000
   4891   4892     1   0.10969 276646.080000
   4891   4893     1   0.10969 276646.080000
   4894   4895     1   0.10969 276646.080000
   4894   4896     1   0.10969 276646.080000
   4901   4902     1   0.10969 276646.080000
   4901   4903     1   0.10969 276646.080000
   4904   4905     1   0.10969 276646.080000
   4904   4906     1   0.10969 276646.080000
   4907   4908     1   0.10969 276646.080000
   4907   4909     1   0.10969 276646.080000
   4911   4912     1   0.10969 276646.080000
   4911   4913     1   0.10969 276646.080000
   4914   4915     1   0.10969 276646.080000
   4914   4916     1   0.10969 276646.080000
   4920   4921     1   0.10969 276646.080000
   4920   4922     1   0.10969 276646.080000
   4923   4924     1   0.10969 276646.080000
   4923   4925     1   0.10969 276646.080000
   4930   4931     1   0.10969 276646.080000
   4930   4932     1   0.10969 276646.080000
   4933   4934     1   0.10969 276646.080000
   4933   4935     1   0.10969 276646.080000
   4936   4937     1   0.10969 276646.080000
   4936   4938     1   0.10969 276646.080000
   4940   4941     1   0.10969 276646.080000
   4940   4942     1   0.10969 276646.080000
   4943   4944     1   0.10969 276646.080000
   4943   4945     1   0.10969 276646.080000
   4949   4950     1   0.10969 276646.080000
   4949   4951     1   0.10969 276646.080000
   4952   4953     1   0.10969 276646.080000
   4952   4954     1   0.10969 276646.080000
   4959   4960     1   0.10969 276646.080000
   4959   4961     1   0.10969 276646.080000
   4962   4963     1   0.10969 276646.080000
   4962   4964     1   0.10969 276646.080000
   4965   4966     1   0.10969 276646.080000
   4965   4967     1   0.10969 276646.080000
   4969   4970     1   0.10969 276646.080000
   4969   4971     1   0.10969 276646.080000
   4972   4973     1   0.10969 276646.080000
   4972   4974     1   0.10969 276646.080000
   4978   4979     1   0.10969 276646.080000
   4978   4980     1   0.10969 276646.080000
   4981   4982     1   0.10969 276646.080000
   4981   4983     1   0.10969 276646.080000
   4988   4989     1   0.10969 276646.080000
   4988   4990     1   0.10969 276646.080000
   4991   4992     1   0.10969 276646.080000
   4991   4993     1   0.10969 276646.080000
   4994   4995     1   0.10969 276646.080000
   4994   4996     1   0.10969 276646.080000
   4998   4999     1   0.10969 276646.080000
   4998   5000     1   0.10969 276646.080000
   5001   5002     1   0.10969 276646.080000
   5001   5003     1   0.10969 276646.080000
   5007   5008     1   0.10969 276646.080000
   5007   5009     1   0.10969 276646.080000
   5010   5011     1   0.10969 276646.080000
   5010   5012     1   0.10969 276646.080000
   5017   5018     1   0.10969 276646.080000
   5017   5019     1   0.10969 276646.080000
   5020   5021     1   0.10969 276646.080000
   5020   5022     1   0.10969 276646.080000
   5023   5024     1   0.10969 276646.080000
   5023   5025     1   0.10969 276646.080000
   5027   5028     1   0.10969 276646.080000
   5027   5029     1   0.10969 276646.080000
   5030   5031     1   0.10969 276646.080000
   5030   5032     1   0.10969 276646.080000
   5036   5037     1   0.10969 276646.080000
   5036   5038     1   0.10969 276646.080000
   5039   5040     1   0.10969 276646.080000
   5039   5041     1   0.10969 276646.080000
   5046   5047     1   0.10969 276646.080000
   5046   5048     1   0.10969 276646.080000
   5049   5050     1   0.10969 276646.080000
   5049   5051     1   0.10969 276646.080000
   5052   5053     1   0.10969 276646.080000
   5052   5054     1   0.10969 276646.080000
   5056   5057     1   0.10969 276646.080000
   5056   5058     1   0.10969 276646.080000
   5059   5060     1   0.10969 276646.080000
   5059   5061     1   0.10969 276646.080000
   5065   5066     1   0.10969 276646.080000
   5065   5067     1   0.10969 276646.080000
   5068   5069     1   0.10969 276646.080000
   5068   5070     1   0.10969 276646.080000
   5075   5076     1   0.10969 276646.080000
   5075   5077     1   0.10969 276646.080000
   5078   5079     1   0.10969 276646.080000
   5078   5080     1   0.10969 276646.080000
   5081   5082     1   0.10969 276646.080000
   5081   5083     1   0.10969 276646.080000
   5085   5086     1   0.10969 276646.080000
   5085   5087     1   0.10969 276646.080000
   5088   5089     1   0.10969 276646.080000
   5088   5090     1   0.10969 276646.080000
   5094   5095     1   0.10969 276646.080000
   5094   5096     1   0.10969 276646.080000
   5097   5098     1   0.10969 276646.080000
   5097   5099     1   0.10969 276646.080000
   5104   5105     1   0.10969 276646.080000
   5104   5106     1   0.10969 276646.080000
   5107   5108     1   0.10969 276646.080000
   5107   5109     1   0.10969 276646.080000
   5110   5111     1   0.10969 276646.080000
   5110   5112     1   0.10969 276646.080000
   5114   5115     1   0.10969 276646.080000
   5114   5116     1   0.10969 276646.080000
   5117   5118     1   0.10969 276646.080000
   5117   5119     1   0.10969 276646.080000
   5123   5124     1   0.10969 276646.080000
   5123   5125     1   0.10969 276646.080000
   5126   5127     1   0.10969 276646.080000
   5126   5128     1   0.10969 276646.080000
   5133   5134     1   0.10969 276646.080000
   5133   5135     1   0.10969 276646.080000
   5136   5137     1   0.10969 276646.080000
   5136   5138     1   0.10969 276646.080000
   5139   5140     1   0.10969 276646.080000
   5139   5141     1   0.10969 276646.080000
   5143   5144     1   0.10969 276646.080000
   5143   5145     1   0.10969 276646.080000
   5146   5147     1   0.10969 276646.080000
   5146   5148     1   0.10969 276646.080000
   5152   5153     1   0.10969 276646.080000
   5152   5154     1   0.10969 276646.080000
   5155   5156     1   0.10969 276646.080000
   5155   5157     1   0.10969 276646.080000
   5162   5163     1   0.10969 276646.080000
   5162   5164     1   0.10969 276646.080000
   5165   5166     1   0.10969 276646.080000
   5165   5167     1   0.10969 276646.080000
   5168   5169     1   0.10969 276646.080000
   5168   5170     1   0.10969 276646.080000
   5172   5173     1   0.10969 276646.080000
   5172   5174     1   0.10969 276646.080000
   5175   5176     1   0.10969 276646.080000
   5175   5177     1   0.10969 276646.080000
   5181   5182     1   0.10969 276646.080000
   5181   5183     1   0.10969 276646.080000
   5184   5185     1   0.10969 276646.080000
   5184   5186     1   0.10969 276646.080000
   5191   5192     1   0.10969 276646.080000
   5191   5193     1   0.10969 276646.080000
   5194   5195     1   0.10969 276646.080000
   5194   5196     1   0.10969 276646.080000
   5197   5198     1   0.10969 276646.080000
   5197   5199     1   0.10969 276646.080000
   5201   5202     1   0.10969 276646.080000
   5201   5203     1   0.10969 276646.080000
   5204   5205     1   0.10969 276646.080000
   5204   5206     1   0.10969 276646.080000
   5210   5211     1   0.10969 276646.080000
   5210   5212     1   0.10969 276646.080000
   5213   5214     1   0.10969 276646.080000
   5213   5215     1   0.10969 276646.080000
   5220   5221     1   0.10969 276646.080000
   5220   5222     1   0.10969 276646.080000
   5223   5224     1   0.10969 276646.080000
   5223   5225     1   0.10969 276646.080000
   5226   5227     1   0.10969 276646.080000
   5226   5228     1   0.10969 276646.080000
   5230   5231     1   0.10969 276646.080000
   5230   5232     1   0.10969 276646.080000
   5233   5234     1   0.10969 276646.080000
   5233   5235     1   0.10969 276646.080000
   5239   5240     1   0.10969 276646.080000
   5239   5241     1   0.10969 276646.080000
   5242   5243     1   0.10969 276646.080000
   5242   5244     1   0.10969 276646.080000
   5249   5250     1   0.10969 276646.080000
   5249   5251     1   0.10969 276646.080000
   5252   5253     1   0.10969 276646.080000
   5252   5254     1   0.10969 276646.080000
   5255   5256     1   0.10969 276646.080000
   5255   5257     1   0.10969 276646.080000
   5259   5260     1   0.10969 276646.080000
   5259   5261     1   0.10969 276646.080000
   5262   5263     1   0.10969 276646.080000
   5262   5264     1   0.10969 276646.080000
   5268   5269     1   0.10969 276646.080000
   5268   5270     1   0.10969 276646.080000
   5271   5272     1   0.10969 276646.080000
   5271   5273     1   0.10969 276646.080000
   5278   5279     1   0.10969 276646.080000
   5278   5280     1   0.10969 276646.080000
   5281   5282     1   0.10969 276646.080000
   5281   5283     1   0.10969 276646.080000
   5284   5285     1   0.10969 276646.080000
   5284   5286     1   0.10969 276646.080000
   5288   5289     1   0.10969 276646.080000
   5288   5290     1   0.10969 276646.080000
   5291   5292     1   0.10969 276646.080000
   5291   5293     1   0.10969 276646.080000
   5297   5298     1   0.10969 276646.080000
   5297   5299     1   0.10969 276646.080000
   5300   5301     1   0.10969 276646.080000
   5300   5302     1   0.10969 276646.080000
   5307   5308     1   0.10969 276646.080000
   5307   5309     1   0.10969 276646.080000
   5310   5311     1   0.10969 276646.080000
   5310   5312     1   0.10969 276646.080000
   5313   5314     1   0.10969 276646.080000
   5313   5315     1   0.10969 276646.080000
   5317   5318     1   0.10969 276646.080000
   5317   5319     1   0.10969 276646.080000
   5320   5321     1   0.10969 276646.080000
   5320   5322     1   0.10969 276646.080000
   5326   5327     1   0.10969 276646.080000
   5326   5328     1   0.10969 276646.080000
   5329   5330     1   0.10969 276646.080000
   5329   5331     1   0.10969 276646.080000
   5336   5337     1   0.10969 276646.080000
   5336   5338     1   0.10969 276646.080000
   5339   5340     1   0.10969 276646.080000
   5339   5341     1   0.10969 276646.080000
   5342   5343     1   0.10969 276646.080000
   5342   5344     1   0.10969 276646.080000
   5346   5347     1   0.10969 276646.080000
   5346   5348     1   0.10969 276646.080000
   5349   5350     1   0.10969 276646.080000
   5349   5351     1   0.10969 276646.080000
   5355   5356     1   0.10969 276646.080000
   5355   5357     1   0.10969 276646.080000
   5358   5359     1   0.10969 276646.080000
   5358   5360     1   0.10969 276646.080000
   5365   5366     1   0.10969 276646.080000
   5365   5367     1   0.10969 276646.080000
   5368   5369     1   0.10969 276646.080000
   5368   5370     1   0.10969 276646.080000
   5371   5372     1   0.10969 276646.080000
   5371   5373     1   0.10969 276646.080000
   5375   5376     1   0.10969 276646.080000
   5375   5377     1   0.10969 276646.080000
   5378   5379     1   0.10969 276646.080000
   5378   5380     1   0.10969 276646.080000
   5384   5385     1   0.10969 276646.080000
   5384   5386     1   0.10969 276646.080000
   5387   5388     1   0.10969 276646.080000
   5387   5389     1   0.10969 276646.080000
   5394   5395     1   0.10969 276646.080000
   5394   5396     1   0.10969 276646.080000
   5397   5398     1   0.10969 276646.080000
   5397   5399     1   0.10969 276646.080000
   5400   5401     1   0.10969 276646.080000
   5400   5402     1   0.10969 276646.080000
   5404   5405     1   0.10969 276646.080000
   5404   5406     1   0.10969 276646.080000
   5407   5408     1   0.10969 276646.080000
   5407   5409     1   0.10969 276646.080000
   5413   5414     1   0.10969 276646.080000
   5413   5415     1   0.10969 276646.080000
   5416   5417     1   0.10969 276646.080000
   5416   5418     1   0.10969 276646.080000
   5423   5424     1   0.10969 276646.080000
   5423   5425     1   0.10969 276646.080000
   5426   5427     1   0.10969 276646.080000
   5426   5428     1   0.10969 276646.080000
   5429   5430     1   0.10969 276646.080000
   5429   5431     1   0.10969 276646.080000
   5433   5434     1   0.10969 276646.080000
   5433   5435     1   0.10969 276646.080000
   5436   5437     1   0.10969 276646.080000
   5436   5438     1   0.10969 276646.080000
   5442   5443     1   0.10969 276646.080000
   5442   5444     1   0.10969 276646.080000
   5445   5446     1   0.10969 276646.080000
   5445   5447     1   0.10969 276646.080000
   5452   5453     1   0.10969 276646.080000
   5452   5454     1   0.10969 276646.080000
   5455   5456     1   0.10969 276646.080000
   5455   5457     1   0.10969 276646.080000
   5458   5459     1   0.10969 276646.080000
   5458   5460     1   0.10969 276646.080000
   5462   5463     1   0.10969 276646.080000
   5462   5464     1   0.10969 276646.080000
   5465   5466     1   0.10969 276646.080000
   5465   5467     1   0.10969 276646.080000
   5471   5472     1   0.10969 276646.080000
   5471   5473     1   0.10969 276646.080000
   5474   5475     1   0.10969 276646.080000
   5474   5476     1   0.10969 276646.080000
   5481   5482     1   0.10969 276646.080000
   5481   5483     1   0.10969 276646.080000
   5484   5485     1   0.10969 276646.080000
   5484   5486     1   0.10969 276646.080000
   5487   5488     1   0.10969 276646.080000
   5487   5489     1   0.10969 276646.080000
   5491   5492     1   0.10969 276646.080000
   5491   5493     1   0.10969 276646.080000
   5494   5495     1   0.10969 276646.080000
   5494   5496     1   0.10969 276646.080000
   5500   5501     1   0.10969 276646.080000
   5500   5502     1   0.10969 276646.080000
   5503   5504     1   0.10969 276646.080000
   5503   5505     1   0.10969 276646.080000
   5510   5511     1   0.10969 276646.080000
   5510   5512     1   0.10969 276646.080000
   5513   5514     1   0.10969 276646.080000
   5513   5515     1   0.10969 276646.080000
   5516   5517     1   0.10969 276646.080000
   5516   5518     1   0.10969 276646.080000
   5520   5521     1   0.10969 276646.080000
   5520   5522     1   0.10969 276646.080000
   5523   5524     1   0.10969 276646.080000
   5523   5525     1   0.10969 276646.080000
   5529   5530     1   0.10969 276646.080000
   5529   5531     1   0.10969 276646.080000
   5532   5533     1   0.10969 276646.080000
   5532   5534     1   0.10969 276646.080000
   5539   5540     1   0.10969 276646.080000
   5539   5541     1   0.10969 276646.080000
   5542   5543     1   0.10969 276646.080000
   5542   5544     1   0.10969 276646.080000
   5545   5546     1   0.10969 276646.080000
   5545   5547     1   0.10969 276646.080000
   5549   5550     1   0.10969 276646.080000
   5549   5551     1   0.10969 276646.080000
   5552   5553     1   0.10969 276646.080000
   5552   5554     1   0.10969 276646.080000
   5558   5559     1   0.10969 276646.080000
   5558   5560     1   0.10969 276646.080000
   5561   5562     1   0.10969 276646.080000
   5561   5563     1   0.10969 276646.080000
   5568   5569     1   0.10969 276646.080000
   5568   5570     1   0.10969 276646.080000
   5571   5572     1   0.10969 276646.080000
   5571   5573     1   0.10969 276646.080000
   5574   5575     1   0.10969 276646.080000
   5574   5576     1   0.10969 276646.080000
   5578   5579     1   0.10969 276646.080000
   5578   5580     1   0.10969 276646.080000
   5581   5582     1   0.10969 276646.080000
   5581   5583     1   0.10969 276646.080000
   5587   5588     1   0.10969 276646.080000
   5587   5589     1   0.10969 276646.080000
   5590   5591     1   0.10969 276646.080000
   5590   5592     1   0.10969 276646.080000
   5597   5598     1   0.10969 276646.080000
   5597   5599     1   0.10969 276646.080000
   5600   5601     1   0.10969 276646.080000
   5600   5602     1   0.10969 276646.080000
   5603   5604     1   0.10969 276646.080000
   5603   5605     1   0.10969 276646.080000
   5607   5608     1   0.10969 276646.080000
   5607   5609     1   0.10969 276646.080000
   5610   5611     1   0.10969 276646.080000
   5610   5612     1   0.10969 276646.080000
   5616   5617     1   0.10969 276646.080000
   5616   5618     1   0.10969 276646.080000
   5619   5620     1   0.10969 276646.080000
   5619   5621     1   0.10969 276646.080000
   5626   5627     1   0.10969 276646.080000
   5626   5628     1   0.10969 276646.080000
   5629   5630     1   0.10969 276646.080000
   5629   5631     1   0.10969 276646.080000
   5632   5633     1   0.10969 276646.080000
   5632   5634     1   0.10969 276646.080000
   5636   5637     1   0.10969 276646.080000
   5636   5638     1   0.10969 276646.080000
   5639   5640     1   0.10969 276646.080000
   5639   5641     1   0.10969 276646.080000
   5645   5646     1   0.10969 276646.080000
   5645   5647     1   0.10969 276646.080000
   5648   5649     1   0.10969 276646.080000
   5648   5650     1   0.10969 276646.080000
   5655   5656     1   0.10969 276646.080000
   5655   5657     1   0.10969 276646.080000
   5658   5659     1   0.10969 276646.080000
   5658   5660     1   0.10969 276646.080000
   5661   5662     1   0.10969 276646.080000
   5661   5663     1   0.10969 276646.080000
   5665   5666     1   0.10969 276646.080000
   5665   5667     1   0.10969 276646.080000
   5668   5669     1   0.10969 276646.080000
   5668   5670     1   0.10969 276646.080000
   5674   5675     1   0.10969 276646.080000
   5674   5676     1   0.10969 276646.080000
   5677   5678     1   0.10969 276646.080000
   5677   5679     1   0.10969 276646.080000
   5684   5685     1   0.10969 276646.080000
   5684   5686     1   0.10969 276646.080000
   5687   5688     1   0.10969 276646.080000
   5687   5689     1   0.10969 276646.080000
   5690   5691     1   0.10969 276646.080000
   5690   5692     1   0.10969 276646.080000
   5694   5695     1   0.10969 276646.080000
   5694   5696     1   0.10969 276646.080000
   5697   5698     1   0.10969 276646.080000
   5697   5699     1   0.10969 276646.080000
   5703   5704     1   0.10969 276646.080000
   5703   5705     1   0.10969 276646.080000
   5706   5707     1   0.10969 276646.080000
   5706   5708     1   0.10969 276646.080000
   5713   5714     1   0.10969 276646.080000
   5713   5715     1   0.10969 276646.080000
   5716   5717     1   0.10969 276646.080000
   5716   5718     1   0.10969 276646.080000
   5719   5720     1   0.10969 276646.080000
   5719   5721     1   0.10969 276646.080000
   5723   5724     1   0.10969 276646.080000
   5723   5725     1   0.10969 276646.080000
   5726   5727     1   0.10969 276646.080000
   5726   5728     1   0.10969 276646.080000
   5732   5733     1   0.10969 276646.080000
   5732   5734     1   0.10969 276646.080000
   5735   5736     1   0.10969 276646.080000
   5735   5737     1   0.10969 276646.080000
   5742   5743     1   0.10969 276646.080000
   5742   5744     1   0.10969 276646.080000
   5745   5746     1   0.10969 276646.080000
   5745   5747     1   0.10969 276646.080000
   5748   5749     1   0.10969 276646.080000
   5748   5750     1   0.10969 276646.080000
   5752   5753     1   0.10969 276646.080000
   5752   5754     1   0.10969 276646.080000
   5755   5756     1   0.10969 276646.080000
   5755   5757     1   0.10969 276646.080000
   5761   5762     1   0.10969 276646.080000
   5761   5763     1   0.10969 276646.080000
   5764   5765     1   0.10969 276646.080000
   5764   5766     1   0.10969 276646.080000
   5771   5772     1   0.10969 276646.080000
   5771   5773     1   0.10969 276646.080000
   5774   5775     1   0.10969 276646.080000
   5774   5776     1   0.10969 276646.080000
   5777   5778     1   0.10969 276646.080000
   5777   5779     1   0.10969 276646.080000
   5781   5782     1   0.10969 276646.080000
   5781   5783     1   0.10969 276646.080000
   5784   5785     1   0.10969 276646.080000
   5784   5786     1   0.10969 276646.080000
   5790   5791     1   0.10969 276646.080000
   5790   5792     1   0.10969 276646.080000
   5793   5794     1   0.10969 276646.080000
   5793   5795     1   0.10969 276646.080000
   5800   5801     1   0.10969 276646.080000
   5800   5802     1   0.10969 276646.080000
   5803   5804     1   0.10969 276646.080000
   5803   5805     1   0.10969 276646.080000
   5806   5807     1   0.10969 276646.080000
   5806   5808     1   0.10969 276646.080000
   5810   5811     1   0.10969 276646.080000
   5810   5812     1   0.10969 276646.080000
   5813   5814     1   0.10969 276646.080000
   5813   5815     1   0.10969 276646.080000
   5819   5820     1   0.10969 276646.080000
   5819   5821     1   0.10969 276646.080000
   5822   5823     1   0.10969 276646.080000
   5822   5824     1   0.10969 276646.080000
   5829   5830     1   0.10969 276646.080000
   5829   5831     1   0.10969 276646.080000
   5832   5833     1   0.10969 276646.080000
   5832   5834     1   0.10969 276646.080000
   5835   5836     1   0.10969 276646.080000
   5835   5837     1   0.10969 276646.080000
   5839   5840     1   0.10969 276646.080000
   5839   5841     1   0.10969 276646.080000
   5842   5843     1   0.10969 276646.080000
   5842   5844     1   0.10969 276646.080000
   5848   5849     1   0.10969 276646.080000
   5848   5850     1   0.10969 276646.080000
   5851   5852     1   0.10969 276646.080000
   5851   5853     1   0.10969 276646.080000
   5858   5859     1   0.10969 276646.080000
   5858   5860     1   0.10969 276646.080000
   5861   5862     1   0.10969 276646.080000
   5861   5863     1   0.10969 276646.080000
   5864   5865     1   0.10969 276646.080000
   5864   5866     1   0.10969 276646.080000
   5868   5869     1   0.10969 276646.080000
   5868   5870     1   0.10969 276646.080000
   5871   5872     1   0.10969 276646.080000
   5871   5873     1   0.10969 276646.080000
   5877   5878     1   0.10969 276646.080000
   5877   5879     1   0.10969 276646.080000
   5880   5881     1   0.10969 276646.080000
   5880   5882     1   0.10969 276646.080000
   5887   5888     1   0.10969 276646.080000
   5887   5889     1   0.10969 276646.080000
   5890   5891     1   0.10969 276646.080000
   5890   5892     1   0.10969 276646.080000
   5893   5894     1   0.10969 276646.080000
   5893   5895     1   0.10969 276646.080000
   5897   5898     1   0.10969 276646.080000
   5897   5899     1   0.10969 276646.080000
   5900   5901     1   0.10969 276646.080000
   5900   5902     1   0.10969 276646.080000
   5906   5907     1   0.10969 276646.080000
   5906   5908     1   0.10969 276646.080000
   5909   5910     1   0.10969 276646.080000
   5909   5911     1   0.10969 276646.080000
   5916   5917     1   0.10969 276646.080000
   5916   5918     1   0.10969 276646.080000
   5919   5920     1   0.10969 276646.080000
   5919   5921     1   0.10969 276646.080000
   5922   5923     1   0.10969 276646.080000
   5922   5924     1   0.10969 276646.080000
   5926   5927     1   0.10969 276646.080000
   5926   5928     1   0.10969 276646.080000
   5929   5930     1   0.10969 276646.080000
   5929   5931     1   0.10969 276646.080000
   5935   5936     1   0.10969 276646.080000
   5935   5937     1   0.10969 276646.080000
   5938   5939     1   0.10969 276646.080000
   5938   5940     1   0.10969 276646.080000
   5945   5946     1   0.10969 276646.080000
   5945   5947     1   0.10969 276646.080000
   5948   5949     1   0.10969 276646.080000
   5948   5950     1   0.10969 276646.080000
   5951   5952     1   0.10969 276646.080000
   5951   5953     1   0.10969 276646.080000
   5955   5956     1   0.10969 276646.080000
   5955   5957     1   0.10969 276646.080000
   5958   5959     1   0.10969 276646.080000
   5958   5960     1   0.10969 276646.080000
   5964   5965     1   0.10969 276646.080000
   5964   5966     1   0.10969 276646.080000
   5967   5968     1   0.10969 276646.080000
   5967   5969     1   0.10969 276646.080000
   5974   5975     1   0.10969 276646.080000
   5974   5976     1   0.10969 276646.080000
   5977   5978     1   0.10969 276646.080000
   5977   5979     1   0.10969 276646.080000
   5980   5981     1   0.10969 276646.080000
   5980   5982     1   0.10969 276646.080000
   5984   5985     1   0.10969 276646.080000
   5984   5986     1   0.10969 276646.080000
   5987   5988     1   0.10969 276646.080000
   5987   5989     1   0.10969 276646.080000
   5993   5994     1   0.10969 276646.080000
   5993   5995     1   0.10969 276646.080000
   5996   5997     1   0.10969 276646.080000
   5996   5998     1   0.10969 276646.080000
   6003   6004     1   0.10969 276646.080000
   6003   6005     1   0.10969 276646.080000
   6006   6007     1   0.10969 276646.080000
   6006   6008     1   0.10969 276646.080000
   6009   6010     1   0.10969 276646.080000
   6009   6011     1   0.10969 276646.080000
   6013   6014     1   0.10969 276646.080000
   6013   6015     1   0.10969 276646.080000
   6016   6017     1   0.10969 276646.080000
   6016   6018     1   0.10969 276646.080000
   6022   6023     1   0.10969 276646.080000
   6022   6024     1   0.10969 276646.080000
   6025   6026     1   0.10969 276646.080000
   6025   6027     1   0.10969 276646.080000
   6032   6033     1   0.10969 276646.080000
   6032   6034     1   0.10969 276646.080000
   6035   6036     1   0.10969 276646.080000
   6035   6037     1   0.10969 276646.080000
   6038   6039     1   0.10969 276646.080000
   6038   6040     1   0.10969 276646.080000
   6042   6043     1   0.10969 276646.080000
   6042   6044     1   0.10969 276646.080000
   6045   6046     1   0.10969 276646.080000
   6045   6047     1   0.10969 276646.080000
   6051   6052     1   0.10969 276646.080000
   6051   6053     1   0.10969 276646.080000
   6054   6055     1   0.10969 276646.080000
   6054   6056     1   0.10969 276646.080000
   6061   6062     1   0.10969 276646.080000
   6061   6063     1   0.10969 276646.080000
   6064   6065     1   0.10969 276646.080000
   6064   6066     1   0.10969 276646.080000
   6067   6068     1   0.10969 276646.080000
   6067   6069     1   0.10969 276646.080000
   6071   6072     1   0.10969 276646.080000
   6071   6073     1   0.10969 276646.080000
   6074   6075     1   0.10969 276646.080000
   6074   6076     1   0.10969 276646.080000
   6080   6081     1   0.10969 276646.080000
   6080   6082     1   0.10969 276646.080000
   6083   6084     1   0.10969 276646.080000
   6083   6085     1   0.10969 276646.080000
   6090   6091     1   0.10969 276646.080000
   6090   6092     1   0.10969 276646.080000
   6093   6094     1   0.10969 276646.080000
   6093   6095     1   0.10969 276646.080000
   6096   6097     1   0.10969 276646.080000
   6096   6098     1   0.10969 276646.080000
   6100   6101     1   0.10969 276646.080000
   6100   6102     1   0.10969 276646.080000
   6103   6104     1   0.10969 276646.080000
   6103   6105     1   0.10969 276646.080000
   6109   6110     1   0.10969 276646.080000
   6109   6111     1   0.10969 276646.080000
   6112   6113     1   0.10969 276646.080000
   6112   6114     1   0.10969 276646.080000
   6119   6120     1   0.10969 276646.080000
   6119   6121     1   0.10969 276646.080000
   6122   6123     1   0.10969 276646.080000
   6122   6124     1   0.10969 276646.080000
   6125   6126     1   0.10969 276646.080000
   6125   6127     1   0.10969 276646.080000
   6129   6130     1   0.10969 276646.080000
   6129   6131     1   0.10969 276646.080000
   6132   6133     1   0.10969 276646.080000
   6132   6134     1   0.10969 276646.080000
   6138   6139     1   0.10969 276646.080000
   6138   6140     1   0.10969 276646.080000
   6141   6142     1   0.10969 276646.080000
   6141   6143     1   0.10969 276646.080000
   6148   6149     1   0.10969 276646.080000
   6148   6150     1   0.10969 276646.080000
   6151   6152     1   0.10969 276646.080000
   6151   6153     1   0.10969 276646.080000
   6154   6155     1   0.10969 276646.080000
   6154   6156     1   0.10969 276646.080000
   6158   6159     1   0.10969 276646.080000
   6158   6160     1   0.10969 276646.080000
   6161   6162     1   0.10969 276646.080000
   6161   6163     1   0.10969 276646.080000
   6167   6168     1   0.10969 276646.080000
   6167   6169     1   0.10969 276646.080000
   6170   6171     1   0.10969 276646.080000
   6170   6172     1   0.10969 276646.080000
   6177   6178     1   0.10969 276646.080000
   6177   6179     1   0.10969 276646.080000
   6180   6181     1   0.10969 276646.080000
   6180   6182     1   0.10969 276646.080000
   6183   6184     1   0.10969 276646.080000
   6183   6185     1   0.10969 276646.080000
   6187   6188     1   0.10969 276646.080000
   6187   6189     1   0.10969 276646.080000
   6190   6191     1   0.10969 276646.080000
   6190   6192     1   0.10969 276646.080000
   6196   6197     1   0.10969 276646.080000
   6196   6198     1   0.10969 276646.080000
   6199   6200     1   0.10969 276646.080000
   6199   6201     1   0.10969 276646.080000
   6206   6207     1   0.10969 276646.080000
   6206   6208     1   0.10969 276646.080000
   6209   6210     1   0.10969 276646.080000
   6209   6211     1   0.10969 276646.080000
   6212   6213     1   0.10969 276646.080000
   6212   6214     1   0.10969 276646.080000
   6216   6217     1   0.10969 276646.080000
   6216   6218     1   0.10969 276646.080000
   6219   6220     1   0.10969 276646.080000
   6219   6221     1   0.10969 276646.080000
   6225   6226     1   0.10969 276646.080000
   6225   6227     1   0.10969 276646.080000
   6228   6229     1   0.10969 276646.080000
   6228   6230     1   0.10969 276646.080000
   6235   6236     1   0.10969 276646.080000
   6235   6237     1   0.10969 276646.080000
   6238   6239     1   0.10969 276646.080000
   6238   6240     1   0.10969 276646.080000
   6241   6242     1   0.10969 276646.080000
   6241   6243     1   0.10969 276646.080000
   6245   6246     1   0.10969 276646.080000
   6245   6247     1   0.10969 276646.080000
   6248   6249     1   0.10969 276646.080000
   6248   6250     1   0.10969 276646.080000
   6254   6255     1   0.10969 276646.080000
   6254   6256     1   0.10969 276646.080000
   6257   6258     1   0.10969 276646.080000
   6257   6259     1   0.10969 276646.080000
   6264   6265     1   0.10969 276646.080000
   6264   6266     1   0.10969 276646.080000
   6267   6268     1   0.10969 276646.080000
   6267   6269     1   0.10969 276646.080000
   6270   6271     1   0.10969 276646.080000
   6270   6272     1   0.10969 276646.080000
   6274   6275     1   0.10969 276646.080000
   6274   6276     1   0.10969 276646.080000
   6277   6278     1   0.10969 276646.080000
   6277   6279     1   0.10969 276646.080000
   6283   6284     1   0.10969 276646.080000
   6283   6285     1   0.10969 276646.080000
   6286   6287     1   0.10969 276646.080000
   6286   6288     1   0.10969 276646.080000
   6293   6294     1   0.10969 276646.080000
   6293   6295     1   0.10969 276646.080000
   6296   6297     1   0.10969 276646.080000
   6296   6298     1   0.10969 276646.080000
   6299   6300     1   0.10969 276646.080000
   6299   6301     1   0.10969 276646.080000
   6303   6304     1   0.10969 276646.080000
   6303   6305     1   0.10969 276646.080000
   6306   6307     1   0.10969 276646.080000
   6306   6308     1   0.10969 276646.080000
   6312   6313     1   0.10969 276646.080000
   6312   6314     1   0.10969 276646.080000
   6315   6316     1   0.10969 276646.080000
   6315   6317     1   0.10969 276646.080000
   6322   6323     1   0.10969 276646.080000
   6322   6324     1   0.10969 276646.080000
   6325   6326     1   0.10969 276646.080000
   6325   6327     1   0.10969 276646.080000
   6328   6329     1   0.10969 276646.080000
   6328   6330     1   0.10969 276646.080000
   6332   6333     1   0.10969 276646.080000
   6332   6334     1   0.10969 276646.080000
   6335   6336     1   0.10969 276646.080000
   6335   6337     1   0.10969 276646.080000
   6341   6342     1   0.10969 276646.080000
   6341   6343     1   0.10969 276646.080000
   6344   6345     1   0.10969 276646.080000
   6344   6346     1   0.10969 276646.080000
   6351   6352     1   0.10969 276646.080000
   6351   6353     1   0.10969 276646.080000
   6354   6355     1   0.10969 276646.080000
   6354   6356     1   0.10969 276646.080000
   6357   6358     1   0.10969 276646.080000
   6357   6359     1   0.10969 276646.080000
   6361   6362     1   0.10969 276646.080000
   6361   6363     1   0.10969 276646.080000
   6364   6365     1   0.10969 276646.080000
   6364   6366     1   0.10969 276646.080000
   6370   6371     1   0.10969 276646.080000
   6370   6372     1   0.10969 276646.080000
   6373   6374     1   0.10969 276646.080000
   6373   6375     1   0.10969 276646.080000
   6380   6381     1   0.10969 276646.080000
   6380   6382     1   0.10969 276646.080000
   6383   6384     1   0.10969 276646.080000
   6383   6385     1   0.10969 276646.080000
   6386   6387     1   0.10969 276646.080000
   6386   6388     1   0.10969 276646.080000
   6390   6391     1   0.10969 276646.080000
   6390   6392     1   0.10969 276646.080000
   6393   6394     1   0.10969 276646.080000
   6393   6395     1   0.10969 276646.080000
   6399   6400     1   0.10969 276646.080000
   6399   6401     1   0.10969 276646.080000
   6402   6403     1   0.10969 276646.080000
   6402   6404     1   0.10969 276646.080000
   6409   6410     1   0.10969 276646.080000
   6409   6411     1   0.10969 276646.080000
   6412   6413     1   0.10969 276646.080000
   6412   6414     1   0.10969 276646.080000
   6415   6416     1   0.10969 276646.080000
   6415   6417     1   0.10969 276646.080000
   6419   6420     1   0.10969 276646.080000
   6419   6421     1   0.10969 276646.080000
   6422   6423     1   0.10969 276646.080000
   6422   6424     1   0.10969 276646.080000
   6428   6429     1   0.10969 276646.080000
   6428   6430     1   0.10969 276646.080000
   6431   6432     1   0.10969 276646.080000
   6431   6433     1   0.10969 276646.080000
   6438   6439     1   0.10969 276646.080000
   6438   6440     1   0.10969 276646.080000
   6441   6442     1   0.10969 276646.080000
   6441   6443     1   0.10969 276646.080000
   6444   6445     1   0.10969 276646.080000
   6444   6446     1   0.10969 276646.080000
   6448   6449     1   0.10969 276646.080000
   6448   6450     1   0.10969 276646.080000
   6451   6452     1   0.10969 276646.080000
   6451   6453     1   0.10969 276646.080000
   6457   6458     1   0.10969 276646.080000
   6457   6459     1   0.10969 276646.080000
   6460   6461     1   0.10969 276646.080000
   6460   6462     1   0.10969 276646.080000
   6467   6468     1   0.10969 276646.080000
   6467   6469     1   0.10969 276646.080000
   6470   6471     1   0.10969 276646.080000
   6470   6472     1   0.10969 276646.080000
   6473   6474     1   0.10969 276646.080000
   6473   6475     1   0.10969 276646.080000
   6477   6478     1   0.10969 276646.080000
   6477   6479     1   0.10969 276646.080000
   6480   6481     1   0.10969 276646.080000
   6480   6482     1   0.10969 276646.080000
   6486   6487     1   0.10969 276646.080000
   6486   6488     1   0.10969 276646.080000
   6489   6490     1   0.10969 276646.080000
   6489   6491     1   0.10969 276646.080000
   6496   6497     1   0.10969 276646.080000
   6496   6498     1   0.10969 276646.080000
   6499   6500     1   0.10969 276646.080000
   6499   6501     1   0.10969 276646.080000
   6502   6503     1   0.10969 276646.080000
   6502   6504     1   0.10969 276646.080000
   6506   6507     1   0.10969 276646.080000
   6506   6508     1   0.10969 276646.080000
   6509   6510     1   0.10969 276646.080000
   6509   6511     1   0.10969 276646.080000
   6515   6516     1   0.10969 276646.080000
   6515   6517     1   0.10969 276646.080000
   6518   6519     1   0.10969 276646.080000
   6518   6520     1   0.10969 276646.080000
   6525   6526     1   0.10969 276646.080000
   6525   6527     1   0.10969 276646.080000
   6528   6529     1   0.10969 276646.080000
   6528   6530     1   0.10969 276646.080000
   6531   6532     1   0.10969 276646.080000
   6531   6533     1   0.10969 276646.080000
   6535   6536     1   0.10969 276646.080000
   6535   6537     1   0.10969 276646.080000
   6538   6539     1   0.10969 276646.080000
   6538   6540     1   0.10969 276646.080000
   6544   6545     1   0.10969 276646.080000
   6544   6546     1   0.10969 276646.080000
   6547   6548     1   0.10969 276646.080000
   6547   6549     1   0.10969 276646.080000
   6554   6555     1   0.10969 276646.080000
   6554   6556     1   0.10969 276646.080000
   6557   6558     1   0.10969 276646.080000
   6557   6559     1   0.10969 276646.080000
   6560   6561     1   0.10969 276646.080000
   6560   6562     1   0.10969 276646.080000
   6564   6565     1   0.10969 276646.080000
   6564   6566     1   0.10969 276646.080000
   6567   6568     1   0.10969 276646.080000
   6567   6569     1   0.10969 276646.080000
   6573   6574     1   0.10969 276646.080000
   6573   6575     1   0.10969 276646.080000
   6576   6577     1   0.10969 276646.080000
   6576   6578     1   0.10969 276646.080000
   6583   6584     1   0.10969 276646.080000
   6583   6585     1   0.10969 276646.080000
   6586   6587     1   0.10969 276646.080000
   6586   6588     1   0.10969 276646.080000
   6589   6590     1   0.10969 276646.080000
   6589   6591     1   0.10969 276646.080000
   6593   6594     1   0.10969 276646.080000
   6593   6595     1   0.10969 276646.080000
   6596   6597     1   0.10969 276646.080000
   6596   6598     1   0.10969 276646.080000
   6602   6603     1   0.10969 276646.080000
   6602   6604     1   0.10969 276646.080000
   6605   6606     1   0.10969 276646.080000
   6605   6607     1   0.10969 276646.080000
   6612   6613     1   0.10969 276646.080000
   6612   6614     1   0.10969 276646.080000
   6615   6616     1   0.10969 276646.080000
   6615   6617     1   0.10969 276646.080000
   6618   6619     1   0.10969 276646.080000
   6618   6620     1   0.10969 276646.080000
   6622   6623     1   0.10969 276646.080000
   6622   6624     1   0.10969 276646.080000
   6625   6626     1   0.10969 276646.080000
   6625   6627     1   0.10969 276646.080000
   6631   6632     1   0.10969 276646.080000
   6631   6633     1   0.10969 276646.080000
   6634   6635     1   0.10969 276646.080000
   6634   6636     1   0.10969 276646.080000
   6641   6642     1   0.10969 276646.080000
   6641   6643     1   0.10969 276646.080000
   6644   6645     1   0.10969 276646.080000
   6644   6646     1   0.10969 276646.080000
   6647   6648     1   0.10969 276646.080000
   6647   6649     1   0.10969 276646.080000
   6651   6652     1   0.10969 276646.080000
   6651   6653     1   0.10969 276646.080000
   6654   6655     1   0.10969 276646.080000
   6654   6656     1   0.10969 276646.080000
   6660   6661     1   0.10969 276646.080000
   6660   6662     1   0.10969 276646.080000
   6663   6664     1   0.10969 276646.080000
   6663   6665     1   0.10969 276646.080000
   6670   6671     1   0.10969 276646.080000
   6670   6672     1   0.10969 276646.080000
   6673   6674     1   0.10969 276646.080000
   6673   6675     1   0.10969 276646.080000
   6676   6677     1   0.10969 276646.080000
   6676   6678     1   0.10969 276646.080000
   6680   6681     1   0.10969 276646.080000
   6680   6682     1   0.10969 276646.080000
   6683   6684     1   0.10969 276646.080000
   6683   6685     1   0.10969 276646.080000
   6689   6690     1   0.10969 276646.080000
   6689   6691     1   0.10969 276646.080000
   6692   6693     1   0.10969 276646.080000
   6692   6694     1   0.10969 276646.080000
   6699   6700     1   0.10969 276646.080000
   6699   6701     1   0.10969 276646.080000
   6702   6703     1   0.10969 276646.080000
   6702   6704     1   0.10969 276646.080000
   6705   6706     1   0.10969 276646.080000
   6705   6707     1   0.10969 276646.080000
   6709   6710     1   0.10969 276646.080000
   6709   6711     1   0.10969 276646.080000
   6712   6713     1   0.10969 276646.080000
   6712   6714     1   0.10969 276646.080000
   6718   6719     1   0.10969 276646.080000
   6718   6720     1   0.10969 276646.080000
   6721   6722     1   0.10969 276646.080000
   6721   6723     1   0.10969 276646.080000
   6728   6729     1   0.10969 276646.080000
   6728   6730     1   0.10969 276646.080000
   6731   6732     1   0.10969 276646.080000
   6731   6733     1   0.10969 276646.080000
   6734   6735     1   0.10969 276646.080000
   6734   6736     1   0.10969 276646.080000
   6738   6739     1   0.10969 276646.080000
   6738   6740     1   0.10969 276646.080000
   6741   6742     1   0.10969 276646.080000
   6741   6743     1   0.10969 276646.080000
   6747   6748     1   0.10969 276646.080000
   6747   6749     1   0.10969 276646.080000
   6750   6751     1   0.10969 276646.080000
   6750   6752     1   0.10969 276646.080000
   6757   6758     1   0.10969 276646.080000
   6757   6759     1   0.10969 276646.080000
   6760   6761     1   0.10969 276646.080000
   6760   6762     1   0.10969 276646.080000
   6763   6764     1   0.10969 276646.080000
   6763   6765     1   0.10969 276646.080000
   6767   6768     1   0.10969 276646.080000
   6767   6769     1   0.10969 276646.080000
   6770   6771     1   0.10969 276646.080000
   6770   6772     1   0.10969 276646.080000
   6776   6777     1   0.10969 276646.080000
   6776   6778     1   0.10969 276646.080000
   6779   6780     1   0.10969 276646.080000
   6779   6781     1   0.10969 276646.080000
   6786   6787     1   0.10969 276646.080000
   6786   6788     1   0.10969 276646.080000
   6789   6790     1   0.10969 276646.080000
   6789   6791     1   0.10969 276646.080000
   6792   6793     1   0.10969 276646.080000
   6792   6794     1   0.10969 276646.080000
   6796   6797     1   0.10969 276646.080000
   6796   6798     1   0.10969 276646.080000
   6799   6800     1   0.10969 276646.080000
   6799   6801     1   0.10969 276646.080000
   6805   6806     1   0.10969 276646.080000
   6805   6807     1   0.10969 276646.080000
   6808   6809     1   0.10969 276646.080000
   6808   6810     1   0.10969 276646.080000
   6815   6816     1   0.10969 276646.080000
   6815   6817     1   0.10969 276646.080000
   6818   6819     1   0.10969 276646.080000
   6818   6820     1   0.10969 276646.080000
   6821   6822     1   0.10969 276646.080000
   6821   6823     1   0.10969 276646.080000
   6825   6826     1   0.10969 276646.080000
   6825   6827     1   0.10969 276646.080000
   6828   6829     1   0.10969 276646.080000
   6828   6830     1   0.10969 276646.080000
   6834   6835     1   0.10969 276646.080000
   6834   6836     1   0.10969 276646.080000
   6837   6838     1   0.10969 276646.080000
   6837   6839     1   0.10969 276646.080000
   6844   6845     1   0.10969 276646.080000
   6844   6846     1   0.10969 276646.080000
   6847   6848     1   0.10969 276646.080000
   6847   6849     1   0.10969 276646.080000
   6850   6851     1   0.10969 276646.080000
   6850   6852     1   0.10969 276646.080000
   6854   6855     1   0.10969 276646.080000
   6854   6856     1   0.10969 276646.080000
   6857   6858     1   0.10969 276646.080000
   6857   6859     1   0.10969 276646.080000
   6863   6864     1   0.10969 276646.080000
   6863   6865     1   0.10969 276646.080000
   6866   6867     1   0.10969 276646.080000
   6866   6868     1   0.10969 276646.080000
   6873   6874     1   0.10969 276646.080000
   6873   6875     1   0.10969 276646.080000
   6876   6877     1   0.10969 276646.080000
   6876   6878     1   0.10969 276646.080000
   6879   6880     1   0.10969 276646.080000
   6879   6881     1   0.10969 276646.080000
   6883   6884     1   0.10969 276646.080000
   6883   6885     1   0.10969 276646.080000
   6886   6887     1   0.10969 276646.080000
   6886   6888     1   0.10969 276646.080000
   6892   6893     1   0.10969 276646.080000
   6892   6894     1   0.10969 276646.080000
   6895   6896     1   0.10969 276646.080000
   6895   6897     1   0.10969 276646.080000
   6902   6903     1   0.10969 276646.080000
   6902   6904     1   0.10969 276646.080000
   6905   6906     1   0.10969 276646.080000
   6905   6907     1   0.10969 276646.080000
   6908   6909     1   0.10969 276646.080000
   6908   6910     1   0.10969 276646.080000
   6912   6913     1   0.10969 276646.080000
   6912   6914     1   0.10969 276646.080000
   6915   6916     1   0.10969 276646.080000
   6915   6917     1   0.10969 276646.080000
   6921   6922     1   0.10969 276646.080000
   6921   6923     1   0.10969 276646.080000
   6924   6925     1   0.10969 276646.080000
   6924   6926     1   0.10969 276646.080000
   6931   6932     1   0.10969 276646.080000
   6931   6933     1   0.10969 276646.080000
   6934   6935     1   0.10969 276646.080000
   6934   6936     1   0.10969 276646.080000
   6937   6938     1   0.10969 276646.080000
   6937   6939     1   0.10969 276646.080000
   6941   6942     1   0.10969 276646.080000
   6941   6943     1   0.10969 276646.080000
   6944   6945     1   0.10969 276646.080000
   6944   6946     1   0.10969 276646.080000
   6950   6951     1   0.10969 276646.080000
   6950   6952     1   0.10969 276646.080000
   6953   6954     1   0.10969 276646.080000
   6953   6955     1   0.10969 276646.080000
   6960   6961     1   0.10969 276646.080000
   6960   6962     1   0.10969 276646.080000
   6963   6964     1   0.10969 276646.080000
   6963   6965     1   0.10969 276646.080000
   6966   6967     1   0.10969 276646.080000
   6966   6968     1   0.10969 276646.080000
   6970   6971     1   0.10969 276646.080000
   6970   6972     1   0.10969 276646.080000
   6973   6974     1   0.10969 276646.080000
   6973   6975     1   0.10969 276646.080000
   6979   6980     1   0.10969 276646.080000
   6979   6981     1   0.10969 276646.080000
   6982   6983     1   0.10969 276646.080000
   6982   6984     1   0.10969 276646.080000
   6989   6990     1   0.10969 276646.080000
   6989   6991     1   0.10969 276646.080000
   6992   6993     1   0.10969 276646.080000
   6992   6994     1   0.10969 276646.080000
   6995   6996     1   0.10969 276646.080000
   6995   6997     1   0.10969 276646.080000
   6999   7000     1   0.10969 276646.080000
   6999   7001     1   0.10969 276646.080000
   7002   7003     1   0.10969 276646.080000
   7002   7004     1   0.10969 276646.080000
   7008   7009     1   0.10969 276646.080000
   7008   7010     1   0.10969 276646.080000
   7011   7012     1   0.10969 276646.080000
   7011   7013     1   0.10969 276646.080000
   7018   7019     1   0.10969 276646.080000
   7018   7020     1   0.10969 276646.080000
   7021   7022     1   0.10969 276646.080000
   7021   7023     1   0.10969 276646.080000
   7024   7025     1   0.10969 276646.080000
   7024   7026     1   0.10969 276646.080000
   7028   7029     1   0.10969 276646.080000
   7028   7030     1   0.10969 276646.080000
   7031   7032     1   0.10969 276646.080000
   7031   7033     1   0.10969 276646.080000
   7037   7038     1   0.10969 276646.080000
   7037   7039     1   0.10969 276646.080000
   7040   7041     1   0.10969 276646.080000
   7040   7042     1   0.10969 276646.080000
   7047   7048     1   0.10969 276646.080000
   7047   7049     1   0.10969 276646.080000
   7050   7051     1   0.10969 276646.080000
   7050   7052     1   0.10969 276646.080000
   7053   7054     1   0.10969 276646.080000
   7053   7055     1   0.10969 276646.080000
   7057   7058     1   0.10969 276646.080000
   7057   7059     1   0.10969 276646.080000
   7060   7061     1   0.10969 276646.080000
   7060   7062     1   0.10969 276646.080000
   7066   7067     1   0.10969 276646.080000
   7066   7068     1   0.10969 276646.080000
   7069   7070     1   0.10969 276646.080000
   7069   7071     1   0.10969 276646.080000
   7076   7077     1   0.10969 276646.080000
   7076   7078     1   0.10969 276646.080000
   7079   7080     1   0.10969 276646.080000
   7079   7081     1   0.10969 276646.080000
   7082   7083     1   0.10969 276646.080000
   7082   7084     1   0.10969 276646.080000
   7086   7087     1   0.10969 276646.080000
   7086   7088     1   0.10969 276646.080000
   7089   7090     1   0.10969 276646.080000
   7089   7091     1   0.10969 276646.080000
   7095   7096     1   0.10969 276646.080000
   7095   7097     1   0.10969 276646.080000
   7098   7099     1   0.10969 276646.080000
   7098   7100     1   0.10969 276646.080000
   7105   7106     1   0.10969 276646.080000
   7105   7107     1   0.10969 276646.080000
   7108   7109     1   0.10969 276646.080000
   7108   7110     1   0.10969 276646.080000
   7111   7112     1   0.10969 276646.080000
   7111   7113     1   0.10969 276646.080000
   7115   7116     1   0.10969 276646.080000
   7115   7117     1   0.10969 276646.080000
   7118   7119     1   0.10969 276646.080000
   7118   7120     1   0.10969 276646.080000
   7124   7125     1   0.10969 276646.080000
   7124   7126     1   0.10969 276646.080000
   7127   7128     1   0.10969 276646.080000
   7127   7129     1   0.10969 276646.080000
   7134   7135     1   0.10969 276646.080000
   7134   7136     1   0.10969 276646.080000
   7137   7138     1   0.10969 276646.080000
   7137   7139     1   0.10969 276646.080000
   7140   7141     1   0.10969 276646.080000
   7140   7142     1   0.10969 276646.080000
   7144   7145     1   0.10969 276646.080000
   7144   7146     1   0.10969 276646.080000
   7147   7148     1   0.10969 276646.080000
   7147   7149     1   0.10969 276646.080000
   7153   7154     1   0.10969 276646.080000
   7153   7155     1   0.10969 276646.080000
   7156   7157     1   0.10969 276646.080000
   7156   7158     1   0.10969 276646.080000
   7163   7164     1   0.10969 276646.080000
   7163   7165     1   0.10969 276646.080000
   7166   7167     1   0.10969 276646.080000
   7166   7168     1   0.10969 276646.080000
   7169   7170     1   0.10969 276646.080000
   7169   7171     1   0.10969 276646.080000
   7173   7174     1   0.10969 276646.080000
   7173   7175     1   0.10969 276646.080000
   7176   7177     1   0.10969 276646.080000
   7176   7178     1   0.10969 276646.080000
   7182   7183     1   0.10969 276646.080000
   7182   7184     1   0.10969 276646.080000
   7185   7186     1   0.10969 276646.080000
   7185   7187     1   0.10969 276646.080000
   7192   7193     1   0.10969 276646.080000
   7192   7194     1   0.10969 276646.080000
   7195   7196     1   0.10969 276646.080000
   7195   7197     1   0.10969 276646.080000
   7198   7199     1   0.10969 276646.080000
   7198   7200     1   0.10969 276646.080000
   7202   7203     1   0.10969 276646.080000
   7202   7204     1   0.10969 276646.080000
   7205   7206     1   0.10969 276646.080000
   7205   7207     1   0.10969 276646.080000
   7211   7212     1   0.10969 276646.080000
   7211   7213     1   0.10969 276646.080000
   7214   7215     1   0.10969 276646.080000
   7214   7216     1   0.10969 276646.080000
   7221   7222     1   0.10969 276646.080000
   7221   7223     1   0.10969 276646.080000
   7224   7225     1   0.10969 276646.080000
   7224   7226     1   0.10969 276646.080000
   7227   7228     1   0.10969 276646.080000
   7227   7229     1   0.10969 276646.080000
   7231   7232     1   0.10969 276646.080000
   7231   7233     1   0.10969 276646.080000
   7234   7235     1   0.10969 276646.080000
   7234   7236     1   0.10969 276646.080000
   7240   7241     1   0.10969 276646.080000
   7240   7242     1   0.10969 276646.080000
   7243   7244     1   0.10969 276646.080000
   7243   7245     1   0.10969 276646.080000
   7250   7251     1   0.10969 276646.080000
   7250   7252     1   0.10969 276646.080000
   7253   7254     1   0.10969 276646.080000
   7253   7255     1   0.10969 276646.080000
   7256   7257     1   0.10969 276646.080000
   7256   7258     1   0.10969 276646.080000
   7260   7261     1   0.10969 276646.080000
   7260   7262     1   0.10969 276646.080000
   7263   7264     1   0.10969 276646.080000
   7263   7265     1   0.10969 276646.080000
   7269   7270     1   0.10969 276646.080000
   7269   7271     1   0.10969 276646.080000
   7272   7273     1   0.10969 276646.080000
   7272   7274     1   0.10969 276646.080000
   7279   7280     1   0.10969 276646.080000
   7279   7281     1   0.10969 276646.080000
   7282   7283     1   0.10969 276646.080000
   7282   7284     1   0.10969 276646.080000
   7285   7286     1   0.10969 276646.080000
   7285   7287     1   0.10969 276646.080000
   7289   7290     1   0.10969 276646.080000
   7289   7291     1   0.10969 276646.080000
   7292   7293     1   0.10969 276646.080000
   7292   7294     1   0.10969 276646.080000
   7298   7299     1   0.10969 276646.080000
   7298   7300     1   0.10969 276646.080000
   7301   7302     1   0.10969 276646.080000
   7301   7303     1   0.10969 276646.080000
   7308   7309     1   0.10969 276646.080000
   7308   7310     1   0.10969 276646.080000
   7311   7312     1   0.10969 276646.080000
   7311   7313     1   0.10969 276646.080000
   7314   7315     1   0.10969 276646.080000
   7314   7316     1   0.10969 276646.080000
   7318   7319     1   0.10969 276646.080000
   7318   7320     1   0.10969 276646.080000
   7321   7322     1   0.10969 276646.080000
   7321   7323     1   0.10969 276646.080000
   7327   7328     1   0.10969 276646.080000
   7327   7329     1   0.10969 276646.080000
   7330   7331     1   0.10969 276646.080000
   7330   7332     1   0.10969 276646.080000
   7337   7338     1   0.10969 276646.080000
   7337   7339     1   0.10969 276646.080000
   7340   7341     1   0.10969 276646.080000
   7340   7342     1   0.10969 276646.080000
   7343   7344     1   0.10969 276646.080000
   7343   7345     1   0.10969 276646.080000
   7347   7348     1   0.10969 276646.080000
   7347   7349     1   0.10969 276646.080000
   7350   7351     1   0.10969 276646.080000
   7350   7352     1   0.10969 276646.080000
   7356   7357     1   0.10969 276646.080000
   7356   7358     1   0.10969 276646.080000
   7359   7360     1   0.10969 276646.080000
   7359   7361     1   0.10969 276646.080000

[ pairs ]
;    ai     aj funct         c0         c1         c2         c3
      1     14     1
      1     17     1
      2     11     1
      2     20     1
      5      8     1
      5     21     1
      8     28     1
      8     31     1
     11     22     1
     11     25     1
     14     40     1
     14     43     1
     17     34     1
     17     37     1
     20     49     1
     20     46     1
     21     55     1
     21     52     1
     22     37     1
     22    173     1
     25     34     1
     25    144     1
     28     43     1
     28    115     1
     31     40     1
     31     86     1
     34    164     1
     37    135     1
     40    106     1
     43     77     1
     46     68     1
     49     97     1
     52    126     1
     55    155     1
     58     83     1
     58     80     1
     58     77     1
     59     74     1
     59     68     1
     59    231     1
     62     71     1
     62     68     1
     62    202     1
     65     71     1
     65     74     1
     65     86     1
     71    222     1
     74    193     1
     80    184     1
     83    213     1
     87    112     1
     87    109     1
     87    106     1
     88    103     1
     88     97     1
     88    289     1
     91    100     1
     91     97     1
     91    260     1
     94    100     1
     94    103     1
     94    115     1
    100    280     1
    103    251     1
    109    242     1
    112    271     1
    116    141     1
    116    138     1
    116    135     1
    117    132     1
    117    126     1
    117    347     1
    120    129     1
    120    126     1
    120    318     1
    123    129     1
    123    132     1
    123    144     1
    129    338     1
    132    309     1
    138    300     1
    141    329     1
    145    170     1
    145    167     1
    145    164     1
    146    161     1
    146    155     1
    146    405     1
    149    158     1
    149    155     1
    149    376     1
    152    158     1
    152    161     1
    152    173     1
    158    396     1
    161    367     1
    167    358     1
    170    387     1
    174    199     1
    174    196     1
    174    193     1
    175    190     1
    175    184     1
    175    463     1
    178    187     1
    178    184     1
    178    434     1
    181    187     1
    181    190     1
    181    202     1
    187    454     1
    190    425     1
    196    416     1
    199    445     1
    203    228     1
    203    225     1
    203    222     1
    204    219     1
    204    213     1
    204    521     1
    207    216     1
    207    213     1
    207    492     1
    210    216     1
    210    219     1
    210    231     1
    216    512     1
    219    483     1
    225    474     1
    228    503     1
    232    257     1
    232    254     1
    232    251     1
    233    248     1
    233    242     1
    233    579     1
    236    245     1
    236    242     1
    236    550     1
    239    245     1
    239    248     1
    239    260     1
    245    570     1
    248    541     1
    254    532     1
    257    561     1
    261    286     1
    261    283     1
    261    280     1
    262    277     1
    262    271     1
    262    637     1
    265    274     1
    265    271     1
    265    608     1
    268    274     1
    268    277     1
    268    289     1
    274    628     1
    277    599     1
    283    590     1
    286    619     1
    290    315     1
    290    312     1
    290    309     1
    291    306     1
    291    300     1
    291    695     1
    294    303     1
    294    300     1
    294    666     1
    297    303     1
    297    306     1
    297    318     1
    303    686     1
    306    657     1
    312    648     1
    315    677     1
    319    344     1
    319    341     1
    319    338     1
    320    335     1
    320    329     1
    320    753     1
    323    332     1
    323    329     1
    323    724     1
    326    332     1
    326    335     1
    326    347     1
    332    744     1
    335    715     1
    341    706     1
    344    735     1
    348    373     1
    348    370     1
    348    367     1
    349    364     1
    349    358     1
    349    811     1
    352    361     1
    352    358     1
    352    782     1
    355    361     1
    355    364     1
    355    376     1
    361    802     1
    364    773     1
    370    764     1
    373    793     1
    377    402     1
    377    399     1
    377    396     1
    378    393     1
    378    387     1
    378    869     1
    381    390     1
    381    387     1
    381    840     1
    384    390     1
    384    393     1
    384    405     1
    390    860     1
    393    831     1
    399    822     1
    402    851     1
    406    431     1
    406    428     1
    406    425     1
    407    422     1
    407    416     1
    407    927     1
    410    419     1
    410    416     1
    410    898     1
    413    419     1
    413    422     1
    413    434     1
    419    918     1
    422    889     1
    428    880     1
    431    909     1
    435    460     1
    435    457     1
    435    454     1
    436    451     1
    436    445     1
    436    985     1
    439    448     1
    439    445     1
    439    956     1
    442    448     1
    442    451     1
    442    463     1
    448    976     1
    451    947     1
    457    938     1
    460    967     1
    464    489     1
    464    486     1
    464    483     1
    465    480     1
    465    474     1
    465   1043     1
    468    477     1
    468    474     1
    468   1014     1
    471    477     1
    471    480     1
    471    492     1
    477   1034     1
    480   1005     1
    486    996     1
    489   1025     1
    493    518     1
    493    515     1
    493    512     1
    494    509     1
    494    503     1
    494   1101     1
    497    506     1
    497    503     1
    497   1072     1
    500    506     1
    500    509     1
    500    521     1
    506   1092     1
    509   1063     1
    515   1054     1
    518   1083     1
    522    547     1
    522    544     1
    522    541     1
    523    538     1
    523    532     1
    523   1159     1
    526    535     1
    526    532     1
    526   1130     1
    529    535     1
    529    538     1
    529    550     1
    535   1150     1
    538   1121     1
    544   1112     1
    547   1141     1
    551    576     1
    551    573     1
    551    570     1
    552    567     1
    552    561     1
    552   1217     1
    555    564     1
    555    561     1
    555   1188     1
    558    564     1
    558    567     1
    558    579     1
    564   1208     1
    567   1179     1
    573   1170     1
    576   1199     1
    580    605     1
    580    602     1
    580    599     1
    581    596     1
    581    590     1
    581   1275     1
    584    593     1
    584    590     1
    584   1246     1
    587    593     1
    587    596     1
    587    608     1
    593   1266     1
    596   1237     1
    602   1228     1
    605   1257     1
    609    634     1
    609    631     1
    609    628     1
    610    625     1
    610    619     1
    610   1333     1
    613    622     1
    613    619     1
    613   1304     1
    616    622     1
    616    625     1
    616    637     1
    622   1324     1
    625   1295     1
    631   1286     1
    634   1315     1
    638    663     1
    638    660     1
    638    657     1
    639    654     1
    639    648     1
    639   1391     1
    642    651     1
    642    648     1
    642   1362     1
    645    651     1
    645    654     1
    645    666     1
    651   1382     1
    654   1353     1
    660   1344     1
    663   1373     1
    667    692     1
    667    689     1
    667    686     1
    668    683     1
    668    677     1
    668   1449     1
    671    680     1
    671    677     1
    671   1420     1
    674    680     1
    674    683     1
    674    695     1
    680   1440     1
    683   1411     1
    689   1402     1
    692   1431     1
    696    721     1
    696    718     1
    696    715     1
    697    712     1
    697    706     1
    697   1507     1
    700    709     1
    700    706     1
    700   1478     1
    703    709     1
    703    712     1
    703    724     1
    709   1498     1
    712   1469     1
    718   1460     1
    721   1489     1
    725    750     1
    725    747     1
    725    744     1
    726    741     1
    726    735     1
    726   1565     1
    729    738     1
    729    735     1
    729   1536     1
    732    738     1
    732    741     1
    732    753     1
    738   1556     1
    741   1527     1
    747   1518     1
    750   1547     1
    754    779     1
    754    776     1
    754    773     1
    755    770     1
    755    764     1
    755   1623     1
    758    767     1
    758    764     1
    758   1594     1
    761    767     1
    761    770     1
    761    782     1
    767   1614     1
    770   1585     1
    776   1576     1
    779   1605     1
    783    808     1
    783    805     1
    783    802     1
    784    799     1
    784    793     1
    784   1681     1
    787    796     1
    787    793     1
    787   1652     1
    790    796     1
    790    799     1
    790    811     1
    796   1672     1
    799   1643     1
    805   1634     1
    808   1663     1
    812    837     1
    812    834     1
    812    831     1
    813    828     1
    813    822     1
    813   1739     1
    816    825     1
    816    822     1
    816   1710     1
    819    825     1
    819    828     1
    819    840     1
    825   1730     1
    828   1701     1
    834   1692     1
    837   1721     1
    841    866     1
    841    863     1
    841    860     1
    842    857     1
    842    851     1
    842   1797     1
    845    854     1
    845    851     1
    845   1768     1
    848    854     1
    848    857     1
    848    869     1
    854   1788     1
    857   1759     1
    863   1750     1
    866   1779     1
    870    895     1
    870    892     1
    870    889     1
    871    886     1
    871    880     1
    871   1855     1
    874    883     1
    874    880     1
    874   1826     1
    877    883     1
    877    886     1
    877    898     1
    883   1846     1
    886   1817     1
    892   1808     1
    895   1837     1
    899    924     1
    899    921     1
    899    918     1
    900    915     1
    900    909     1
    900   1913     1
    903    912     1
    903    909     1
    903   1884     1
    906    912     1
    906    915     1
    906    927     1
    912   1904     1
    915   1875     1
    921   1866     1
    924   1895     1
    928    953     1
    928    950     1
    928    947     1
    929    944     1
    929    938     1
    929   1971     1
    932    941     1
    932    938     1
    932   1942     1
    935    941     1
    935    944     1
    935    956     1
    941   1962     1
    944   1933     1
    950   1924     1
    953   1953     1
    957    982     1
    957    979     1
    957    976     1
    958    973     1
    958    967     1
    958   2029     1
    961    970     1
    961    967     1
    961   2000     1
    964    970     1
    964    973     1
    964    985     1
    970   2020     1
    973   1991     1
    979   1982     1
    982   2011     1
    986   1011     1
    986   1008     1
    986   1005     1
    987   1002     1
    987    996     1
    987   2087     1
    990    999     1
    990    996     1
    990   2058     1
    993    999     1
    993   1002     1
    993   1014     1
    999   2078     1
   1002   2049     1
   1008   2040     1
   1011   2069     1
   1015   1040     1
   1015   1037     1
   1015   1034     1
   1016   1031     1
   1016   1025     1
   1016   2145     1
   1019   1028     1
   1019   1025     1
   1019   2116     1
   1022   1028     1
   1022   1031     1
   1022   1043     1
   1028   2136     1
   1031   2107     1
   1037   2098     1
   1040   2127     1
   1044   1069     1
   1044   1066     1
   1044   1063     1
   1045   1060     1
   1045   1054     1
   1045   2203     1
   1048   1057     1
   1048   1054     1
   1048   2174     1
   1051   1057     1
   1051   1060     1
   1051   1072     1
   1057   2194     1
   1060   2165     1
   1066   2156     1
   1069   2185     1
   1073   1098     1
   1073   1095     1
   1073   1092     1
   1074   1089     1
   1074   1083     1
   1074   2261     1
   1077   1086     1
   1077   1083     1
   1077   2232     1
   1080   1086     1
   1080   1089     1
   1080   1101     1
   1086   2252     1
   1089   2223     1
   1095   2214     1
   1098   2243     1
   1102   1127     1
   1102   1124     1
   1102   1121     1
   1103   1118     1
   1103   1112     1
   1103   2319     1
   1106   1115     1
   1106   1112     1
   1106   2290     1
   1109   1115     1
   1109   1118     1
   1109   1130     1
   1115   2310     1
   1118   2281     1
   1124   2272     1
   1127   2301     1
   1131   1156     1
   1131   1153     1
   1131   1150     1
   1132   1147     1
   1132   1141     1
   1132   2377     1
   1135   1144     1
   1135   1141     1
   1135   2348     1
   1138   1144     1
   1138   1147     1
   1138   1159     1
   1144   2368     1
   1147   2339     1
   1153   2330     1
   1156   2359     1
   1160   1185     1
   1160   1182     1
   1160   1179     1
   1161   1176     1
   1161   1170     1
   1161   2435     1
   1164   1173     1
   1164   1170     1
   1164   2406     1
   1167   1173     1
   1167   1176     1
   1167   1188     1
   1173   2426     1
   1176   2397     1
   1182   2388     1
   1185   2417     1
   1189   1214     1
   1189   1211     1
   1189   1208     1
   1190   1205     1
   1190   1199     1
   1190   2493     1
   1193   1202     1
   1193   1199     1
   1193   2464     1
   1196   1202     1
   1196   1205     1
   1196   1217     1
   1202   2484     1
   1205   2455     1
   1211   2446     1
   1214   2475     1
   1218   1243     1
   1218   1240     1
   1218   1237     1
   1219   1234     1
   1219   1228     1
   1219   2551     1
   1222   1231     1
   1222   1228     1
   1222   2522     1
   1225   1231     1
   1225   1234     1
   1225   1246     1
   1231   2542     1
   1234   2513     1
   1240   2504     1
   1243   2533     1
   1247   1272     1
   1247   1269     1
   1247   1266     1
   1248   1263     1
   1248   1257     1
   1248   2609     1
   1251   1260     1
   1251   1257     1
   1251   2580     1
   1254   1260     1
   1254   1263     1
   1254   1275     1
   1260   2600     1
   1263   2571     1
   1269   2562     1
   1272   2591     1
   1276   1301     1
   1276   1298     1
   1276   1295     1
   1277   1292     1
   1277   1286     1
   1277   2667     1
   1280   1289     1
   1280   1286     1
   1280   2638     1
   1283   1289     1
   1283   1292     1
   1283   1304     1
   1289   2658     1
   1292   2629     1
   1298   2620     1
   1301   2649     1
   1305   1330     1
   1305   1327     1
   1305   1324     1
   1306   1321     1
   1306   1315     1
   1306   2725     1
   1309   1318     1
   1309   1315     1
   1309   2696     1
   1312   1318     1
   1312   1321     1
   1312   1333     1
   1318   2716     1
   1321   2687     1
   1327   2678     1
   1330   2707     1
   1334   1359     1
   1334   1356     1
   1334   1353     1
   1335   1350     1
   1335   1344     1
   1335   2783     1
   1338   1347     1
   1338   1344     1
   1338   2754     1
   1341   1347     1
   1341   1350     1
   1341   1362     1
   1347   2774     1
   1350   2745     1
   1356   2736     1
   1359   2765     1
   1363   1388     1
   1363   1385     1
   1363   1382     1
   1364   1379     1
   1364   1373     1
   1364   2841     1
   1367   1376     1
   1367   1373     1
   1367   2812     1
   1370   1376     1
   1370   1379     1
   1370   1391     1
   1376   2832     1
   1379   2803     1
   1385   2794     1
   1388   2823     1
   1392   1417     1
   1392   1414     1
   1392   1411     1
   1393   1408     1
   1393   1402     1
   1393   2899     1
   1396   1405     1
   1396   1402     1
   1396   2870     1
   1399   1405     1
   1399   1408     1
   1399   1420     1
   1405   2890     1
   1408   2861     1
   1414   2852     1
   1417   2881     1
   1421   1446     1
   1421   1443     1
   1421   1440     1
   1422   1437     1
   1422   1431     1
   1422   2957     1
   1425   1434     1
   1425   1431     1
   1425   2928     1
   1428   1434     1
   1428   1437     1
   1428   1449     1
   1434   2948     1
   1437   2919     1
   1443   2910     1
   1446   2939     1
   1450   1475     1
   1450   1472     1
   1450   1469     1
   1451   1466     1
   1451   1460     1
   1451   3015     1
   1454   1463     1
   1454   1460     1
   1454   2986     1
   1457   1463     1
   1457   1466     1
   1457   1478     1
   1463   3006     1
   1466   2977     1
   1472   2968     1
   1475   2997     1
   1479   1504     1
   1479   1501     1
   1479   1498     1
   1480   1495     1
   1480   1489     1
   1480   3073     1
   1483   1492     1
   1483   1489     1
   1483   3044     1
   1486   1492     1
   1486   1495     1
   1486   1507     1
   1492   3064     1
   1495   3035     1
   1501   3026     1
   1504   3055     1
   1508   1533     1
   1508   1530     1
   1508   1527     1
   1509   1524     1
   1509   1518     1
   1509   3131     1
   1512   1521     1
   1512   1518     1
   1512   3102     1
   1515   1521     1
   1515   1524     1
   1515   1536     1
   1521   3122     1
   1524   3093     1
   1530   3084     1
   1533   3113     1
   1537   1562     1
   1537   1559     1
   1537   1556     1
   1538   1553     1
   1538   1547     1
   1538   3189     1
   1541   1550     1
   1541   1547     1
   1541   3160     1
   1544   1550     1
   1544   1553     1
   1544   1565     1
   1550   3180     1
   1553   3151     1
   1559   3142     1
   1562   3171     1
   1566   1591     1
   1566   1588     1
   1566   1585     1
   1567   1582     1
   1567   1576     1
   1567   3247     1
   1570   1579     1
   1570   1576     1
   1570   3218     1
   1573   1579     1
   1573   1582     1
   1573   1594     1
   1579   3238     1
   1582   3209     1
   1588   3200     1
   1591   3229     1
   1595   1620     1
   1595   1617     1
   1595   1614     1
   1596   1611     1
   1596   1605     1
   1596   3305     1
   1599   1608     1
   1599   1605     1
   1599   3276     1
   1602   1608     1
   1602   1611     1
   1602   1623     1
   1608   3296     1
   1611   3267     1
   1617   3258     1
   1620   3287     1
   1624   1649     1
   1624   1646     1
   1624   1643     1
   1625   1640     1
   1625   1634     1
   1625   3363     1
   1628   1637     1
   1628   1634     1
   1628   3334     1
   1631   1637     1
   1631   1640     1
   1631   1652     1
   1637   3354     1
   1640   3325     1
   1646   3316     1
   1649   3345     1
   1653   1678     1
   1653   1675     1
   1653   1672     1
   1654   1669     1
   1654   1663     1
   1654   3421     1
   1657   1666     1
   1657   1663     1
   1657   3392     1
   1660   1666     1
   1660   1669     1
   1660   1681     1
   1666   3412     1
   1669   3383     1
   1675   3374     1
   1678   3403     1
   1682   1707     1
   1682   1704     1
   1682   1701     1
   1683   1698     1
   1683   1692     1
   1683   3479     1
   1686   1695     1
   1686   1692     1
   1686   3450     1
   1689   1695     1
   1689   1698     1
   1689   1710     1
   1695   3470     1
   1698   3441     1
   1704   3432     1
   1707   3461     1
   1711   1736     1
   1711   1733     1
   1711   1730     1
   1712   1727     1
   1712   1721     1
   1712   3537     1
   1715   1724     1
   1715   1721     1
   1715   3508     1
   1718   1724     1
   1718   1727     1
   1718   1739     1
   1724   3528     1
   1727   3499     1
   1733   3490     1
   1736   3519     1
   1740   1765     1
   1740   1762     1
   1740   1759     1
   1741   1756     1
   1741   1750     1
   1741   3595     1
   1744   1753     1
   1744   1750     1
   1744   3566     1
   1747   1753     1
   1747   1756     1
   1747   1768     1
   1753   3586     1
   1756   3557     1
   1762   3548     1
   1765   3577     1
   1769   1794     1
   1769   1791     1
   1769   1788     1
   1770   1785     1
   1770   1779     1
   1770   3653     1
   1773   1782     1
   1773   1779     1
   1773   3624     1
   1776   1782     1
   1776   1785     1
   1776   1797     1
   1782   3644     1
   1785   3615     1
   1791   3606     1
   1794   3635     1
   1798   1823     1
   1798   1820     1
   1798   1817     1
   1799   1814     1
   1799   1808     1
   1799   3711     1
   1802   1811     1
   1802   1808     1
   1802   3682     1
   1805   1811     1
   1805   1814     1
   1805   1826     1
   1811   3683     1
   1814   3654     1
   1820   3657     1
   1823   3686     1
   1827   1852     1
   1827   1849     1
   1827   1846     1
   1828   1843     1
   1828   1837     1
   1828   3769     1
   1831   1840     1
   1831   1837     1
   1831   3740     1
   1834   1840     1
   1834   1843     1
   1834   1855     1
   1840   3741     1
   1843   3712     1
   1849   3715     1
   1852   3744     1
   1856   1881     1
   1856   1878     1
   1856   1875     1
   1857   1872     1
   1857   1866     1
   1857   3827     1
   1860   1869     1
   1860   1866     1
   1860   3798     1
   1863   1869     1
   1863   1872     1
   1863   1884     1
   1869   3799     1
   1872   3770     1
   1878   3773     1
   1881   3802     1
   1885   1910     1
   1885   1907     1
   1885   1904     1
   1886   1901     1
   1886   1895     1
   1886   3885     1
   1889   1898     1
   1889   1895     1
   1889   3856     1
   1892   1898     1
   1892   1901     1
   1892   1913     1
   1898   3857     1
   1901   3828     1
   1907   3831     1
   1910   3860     1
   1914   1939     1
   1914   1936     1
   1914   1933     1
   1915   1930     1
   1915   1924     1
   1915   3943     1
   1918   1927     1
   1918   1924     1
   1918   3914     1
   1921   1927     1
   1921   1930     1
   1921   1942     1
   1927   3915     1
   1930   3886     1
   1936   3889     1
   1939   3918     1
   1943   1968     1
   1943   1965     1
   1943   1962     1
   1944   1959     1
   1944   1953     1
   1944   4001     1
   1947   1956     1
   1947   1953     1
   1947   3972     1
   1950   1956     1
   1950   1959     1
   1950   1971     1
   1956   3973     1
   1959   3944     1
   1965   3947     1
   1968   3976     1
   1972   1997     1
   1972   1994     1
   1972   1991     1
   1973   1988     1
   1973   1982     1
   1973   4059     1
   1976   1985     1
   1976   1982     1
   1976   4030     1
   1979   1985     1
   1979   1988     1
   1979   2000     1
   1985   4031     1
   1988   4002     1
   1994   4005     1
   1997   4034     1
   2001   2026     1
   2001   2023     1
   2001   2020     1
   2002   2017     1
   2002   2011     1
   2002   4117     1
   2005   2014     1
   2005   2011     1
   2005   4088     1
   2008   2014     1
   2008   2017     1
   2008   2029     1
   2014   4089     1
   2017   4060     1
   2023   4063     1
   2026   4092     1
   2030   2055     1
   2030   2052     1
   2030   2049     1
   2031   2046     1
   2031   2040     1
   2031   4175     1
   2034   2043     1
   2034   2040     1
   2034   4146     1
   2037   2043     1
   2037   2046     1
   2037   2058     1
   2043   4147     1
   2046   4118     1
   2052   4121     1
   2055   4150     1
   2059   2084     1
   2059   2081     1
   2059   2078     1
   2060   2075     1
   2060   2069     1
   2060   4233     1
   2063   2072     1
   2063   2069     1
   2063   4204     1
   2066   2072     1
   2066   2075     1
   2066   2087     1
   2072   4205     1
   2075   4176     1
   2081   4179     1
   2084   4208     1
   2088   2113     1
   2088   2110     1
   2088   2107     1
   2089   2104     1
   2089   2098     1
   2089   4291     1
   2092   2101     1
   2092   2098     1
   2092   4262     1
   2095   2101     1
   2095   2104     1
   2095   2116     1
   2101   4263     1
   2104   4234     1
   2110   4237     1
   2113   4266     1
   2117   2142     1
   2117   2139     1
   2117   2136     1
   2118   2133     1
   2118   2127     1
   2118   4349     1
   2121   2130     1
   2121   2127     1
   2121   4320     1
   2124   2130     1
   2124   2133     1
   2124   2145     1
   2130   4321     1
   2133   4292     1
   2139   4295     1
   2142   4324     1
   2146   2171     1
   2146   2168     1
   2146   2165     1
   2147   2162     1
   2147   2156     1
   2147   4407     1
   2150   2159     1
   2150   2156     1
   2150   4378     1
   2153   2159     1
   2153   2162     1
   2153   2174     1
   2159   4379     1
   2162   4350     1
   2168   4353     1
   2171   4382     1
   2175   2200     1
   2175   2197     1
   2175   2194     1
   2176   2191     1
   2176   2185     1
   2176   4465     1
   2179   2188     1
   2179   2185     1
   2179   4436     1
   2182   2188     1
   2182   2191     1
   2182   2203     1
   2188   4437     1
   2191   4408     1
   2197   4411     1
   2200   4440     1
   2204   2229     1
   2204   2226     1
   2204   2223     1
   2205   2220     1
   2205   2214     1
   2205   4523     1
   2208   2217     1
   2208   2214     1
   2208   4494     1
   2211   2217     1
   2211   2220     1
   2211   2232     1
   2217   4495     1
   2220   4466     1
   2226   4469     1
   2229   4498     1
   2233   2258     1
   2233   2255     1
   2233   2252     1
   2234   2249     1
   2234   2243     1
   2234   4581     1
   2237   2246     1
   2237   2243     1
   2237   4552     1
   2240   2246     1
   2240   2249     1
   2240   2261     1
   2246   4553     1
   2249   4524     1
   2255   4527     1
   2258   4556     1
   2262   2287     1
   2262   2284     1
   2262   2281     1
   2263   2278     1
   2263   2272     1
   2263   4639     1
   2266   2275     1
   2266   2272     1
   2266   4610     1
   2269   2275     1
   2269   2278     1
   2269   2290     1
   2275   4611     1
   2278   4582     1
   2284   4585     1
   2287   4614     1
   2291   2316     1
   2291   2313     1
   2291   2310     1
   2292   2307     1
   2292   2301     1
   2292   4697     1
   2295   2304     1
   2295   2301     1
   2295   4668     1
   2298   2304     1
   2298   2307     1
   2298   2319     1
   2304   4669     1
   2307   4640     1
   2313   4643     1
   2316   4672     1
   2320   2345     1
   2320   2342     1
   2320   2339     1
   2321   2336     1
   2321   2330     1
   2321   4755     1
   2324   2333     1
   2324   2330     1
   2324   4726     1
   2327   2333     1
   2327   2336     1
   2327   2348     1
   2333   4727     1
   2336   4698     1
   2342   4701     1
   2345   4730     1
   2349   2374     1
   2349   2371     1
   2349   2368     1
   2350   2365     1
   2350   2359     1
   2350   4813     1
   2353   2362     1
   2353   2359     1
   2353   4784     1
   2356   2362     1
   2356   2365     1
   2356   2377     1
   2362   4785     1
   2365   4756     1
   2371   4759     1
   2374   4788     1
   2378   2403     1
   2378   2400     1
   2378   2397     1
   2379   2394     1
   2379   2388     1
   2379   4871     1
   2382   2391     1
   2382   2388     1
   2382   4842     1
   2385   2391     1
   2385   2394     1
   2385   2406     1
   2391   4843     1
   2394   4814     1
   2400   4817     1
   2403   4846     1
   2407   2432     1
   2407   2429     1
   2407   2426     1
   2408   2423     1
   2408   2417     1
   2408   4929     1
   2411   2420     1
   2411   2417     1
   2411   4900     1
   2414   2420     1
   2414   2423     1
   2414   2435     1
   2420   4901     1
   2423   4872     1
   2429   4875     1
   2432   4904     1
   2436   2461     1
   2436   2458     1
   2436   2455     1
   2437   2452     1
   2437   2446     1
   2437   4987     1
   2440   2449     1
   2440   2446     1
   2440   4958     1
   2443   2449     1
   2443   2452     1
   2443   2464     1
   2449   4959     1
   2452   4930     1
   2458   4933     1
   2461   4962     1
   2465   2490     1
   2465   2487     1
   2465   2484     1
   2466   2481     1
   2466   2475     1
   2466   5045     1
   2469   2478     1
   2469   2475     1
   2469   5016     1
   2472   2478     1
   2472   2481     1
   2472   2493     1
   2478   5017     1
   2481   4988     1
   2487   4991     1
   2490   5020     1
   2494   2519     1
   2494   2516     1
   2494   2513     1
   2495   2510     1
   2495   2504     1
   2495   5103     1
   2498   2507     1
   2498   2504     1
   2498   5074     1
   2501   2507     1
   2501   2510     1
   2501   2522     1
   2507   5075     1
   2510   5046     1
   2516   5049     1
   2519   5078     1
   2523   2548     1
   2523   2545     1
   2523   2542     1
   2524   2539     1
   2524   2533     1
   2524   5161     1
   2527   2536     1
   2527   2533     1
   2527   5132     1
   2530   2536     1
   2530   2539     1
   2530   2551     1
   2536   5133     1
   2539   5104     1
   2545   5107     1
   2548   5136     1
   2552   2577     1
   2552   2574     1
   2552   2571     1
   2553   2568     1
   2553   2562     1
   2553   5219     1
   2556   2565     1
   2556   2562     1
   2556   5190     1
   2559   2565     1
   2559   2568     1
   2559   2580     1
   2565   5191     1
   2568   5162     1
   2574   5165     1
   2577   5194     1
   2581   2606     1
   2581   2603     1
   2581   2600     1
   2582   2597     1
   2582   2591     1
   2582   5277     1
   2585   2594     1
   2585   2591     1
   2585   5248     1
   2588   2594     1
   2588   2597     1
   2588   2609     1
   2594   5249     1
   2597   5220     1
   2603   5223     1
   2606   5252     1
   2610   2635     1
   2610   2632     1
   2610   2629     1
   2611   2626     1
   2611   2620     1
   2611   5335     1
   2614   2623     1
   2614   2620     1
   2614   5306     1
   2617   2623     1
   2617   2626     1
   2617   2638     1
   2623   5307     1
   2626   5278     1
   2632   5281     1
   2635   5310     1
   2639   2664     1
   2639   2661     1
   2639   2658     1
   2640   2655     1
   2640   2649     1
   2640   5393     1
   2643   2652     1
   2643   2649     1
   2643   5364     1
   2646   2652     1
   2646   2655     1
   2646   2667     1
   2652   5365     1
   2655   5336     1
   2661   5339     1
   2664   5368     1
   2668   2693     1
   2668   2690     1
   2668   2687     1
   2669   2684     1
   2669   2678     1
   2669   5451     1
   2672   2681     1
   2672   2678     1
   2672   5422     1
   2675   2681     1
   2675   2684     1
   2675   2696     1
   2681   5423     1
   2684   5394     1
   2690   5397     1
   2693   5426     1
   2697   2722     1
   2697   2719     1
   2697   2716     1
   2698   2713     1
   2698   2707     1
   2698   5509     1
   2701   2710     1
   2701   2707     1
   2701   5480     1
   2704   2710     1
   2704   2713     1
   2704   2725     1
   2710   5481     1
   2713   5452     1
   2719   5455     1
   2722   5484     1
   2726   2751     1
   2726   2748     1
   2726   2745     1
   2727   2742     1
   2727   2736     1
   2727   5567     1
   2730   2739     1
   2730   2736     1
   2730   5538     1
   2733   2739     1
   2733   2742     1
   2733   2754     1
   2739   5539     1
   2742   5510     1
   2748   5513     1
   2751   5542     1
   2755   2780     1
   2755   2777     1
   2755   2774     1
   2756   2771     1
   2756   2765     1
   2756   5625     1
   2759   2768     1
   2759   2765     1
   2759   5596     1
   2762   2768     1
   2762   2771     1
   2762   2783     1
   2768   5597     1
   2771   5568     1
   2777   5571     1
   2780   5600     1
   2784   2809     1
   2784   2806     1
   2784   2803     1
   2785   2800     1
   2785   2794     1
   2785   5683     1
   2788   2797     1
   2788   2794     1
   2788   5654     1
   2791   2797     1
   2791   2800     1
   2791   2812     1
   2797   5655     1
   2800   5626     1
   2806   5629     1
   2809   5658     1
   2813   2838     1
   2813   2835     1
   2813   2832     1
   2814   2829     1
   2814   2823     1
   2814   5741     1
   2817   2826     1
   2817   2823     1
   2817   5712     1
   2820   2826     1
   2820   2829     1
   2820   2841     1
   2826   5713     1
   2829   5684     1
   2835   5687     1
   2838   5716     1
   2842   2867     1
   2842   2864     1
   2842   2861     1
   2843   2858     1
   2843   2852     1
   2843   5799     1
   2846   2855     1
   2846   2852     1
   2846   5770     1
   2849   2855     1
   2849   2858     1
   2849   2870     1
   2855   5771     1
   2858   5742     1
   2864   5745     1
   2867   5774     1
   2871   2896     1
   2871   2893     1
   2871   2890     1
   2872   2887     1
   2872   2881     1
   2872   5857     1
   2875   2884     1
   2875   2881     1
   2875   5828     1
   2878   2884     1
   2878   2887     1
   2878   2899     1
   2884   5829     1
   2887   5800     1
   2893   5803     1
   2896   5832     1
   2900   2925     1
   2900   2922     1
   2900   2919     1
   2901   2916     1
   2901   2910     1
   2901   5915     1
   2904   2913     1
   2904   2910     1
   2904   5886     1
   2907   2913     1
   2907   2916     1
   2907   2928     1
   2913   5887     1
   2916   5858     1
   2922   5861     1
   2925   5890     1
   2929   2954     1
   2929   2951     1
   2929   2948     1
   2930   2945     1
   2930   2939     1
   2930   5973     1
   2933   2942     1
   2933   2939     1
   2933   5944     1
   2936   2942     1
   2936   2945     1
   2936   2957     1
   2942   5945     1
   2945   5916     1
   2951   5919     1
   2954   5948     1
   2958   2983     1
   2958   2980     1
   2958   2977     1
   2959   2974     1
   2959   2968     1
   2959   6031     1
   2962   2971     1
   2962   2968     1
   2962   6002     1
   2965   2971     1
   2965   2974     1
   2965   2986     1
   2971   6003     1
   2974   5974     1
   2980   5977     1
   2983   6006     1
   2987   3012     1
   2987   3009     1
   2987   3006     1
   2988   3003     1
   2988   2997     1
   2988   6089     1
   2991   3000     1
   2991   2997     1
   2991   6060     1
   2994   3000     1
   2994   3003     1
   2994   3015     1
   3000   6061     1
   3003   6032     1
   3009   6035     1
   3012   6064     1
   3016   3041     1
   3016   3038     1
   3016   3035     1
   3017   3032     1
   3017   3026     1
   3017   6147     1
   3020   3029     1
   3020   3026     1
   3020   6118     1
   3023   3029     1
   3023   3032     1
   3023   3044     1
   3029   6119     1
   3032   6090     1
   3038   6093     1
   3041   6122     1
   3045   3070     1
   3045   3067     1
   3045   3064     1
   3046   3061     1
   3046   3055     1
   3046   6205     1
   3049   3058     1
   3049   3055     1
   3049   6176     1
   3052   3058     1
   3052   3061     1
   3052   3073     1
   3058   6177     1
   3061   6148     1
   3067   6151     1
   3070   6180     1
   3074   3099     1
   3074   3096     1
   3074   3093     1
   3075   3090     1
   3075   3084     1
   3075   6263     1
   3078   3087     1
   3078   3084     1
   3078   6234     1
   3081   3087     1
   3081   3090     1
   3081   3102     1
   3087   6235     1
   3090   6206     1
   3096   6209     1
   3099   6238     1
   3103   3128     1
   3103   3125     1
   3103   3122     1
   3104   3119     1
   3104   3113     1
   3104   6321     1
   3107   3116     1
   3107   3113     1
   3107   6292     1
   3110   3116     1
   3110   3119     1
   3110   3131     1
   3116   6293     1
   3119   6264     1
   3125   6267     1
   3128   6296     1
   3132   3157     1
   3132   3154     1
   3132   3151     1
   3133   3148     1
   3133   3142     1
   3133   6379     1
   3136   3145     1
   3136   3142     1
   3136   6350     1
   3139   3145     1
   3139   3148     1
   3139   3160     1
   3145   6351     1
   3148   6322     1
   3154   6325     1
   3157   6354     1
   3161   3186     1
   3161   3183     1
   3161   3180     1
   3162   3177     1
   3162   3171     1
   3162   6437     1
   3165   3174     1
   3165   3171     1
   3165   6408     1
   3168   3174     1
   3168   3177     1
   3168   3189     1
   3174   6409     1
   3177   6380     1
   3183   6383     1
   3186   6412     1
   3190   3215     1
   3190   3212     1
   3190   3209     1
   3191   3206     1
   3191   3200     1
   3191   6495     1
   3194   3203     1
   3194   3200     1
   3194   6466     1
   3197   3203     1
   3197   3206     1
   3197   3218     1
   3203   6467     1
   3206   6438     1
   3212   6441     1
   3215   6470     1
   3219   3244     1
   3219   3241     1
   3219   3238     1
   3220   3235     1
   3220   3229     1
   3220   6553     1
   3223   3232     1
   3223   3229     1
   3223   6524     1
   3226   3232     1
   3226   3235     1
   3226   3247     1
   3232   6525     1
   3235   6496     1
   3241   6499     1
   3244   6528     1
   3248   3273     1
   3248   3270     1
   3248   3267     1
   3249   3264     1
   3249   3258     1
   3249   6611     1
   3252   3261     1
   3252   3258     1
   3252   6582     1
   3255   3261     1
   3255   3264     1
   3255   3276     1
   3261   6583     1
   3264   6554     1
   3270   6557     1
   3273   6586     1
   3277   3302     1
   3277   3299     1
   3277   3296     1
   3278   3293     1
   3278   3287     1
   3278   6669     1
   3281   3290     1
   3281   3287     1
   3281   6640     1
   3284   3290     1
   3284   3293     1
   3284   3305     1
   3290   6641     1
   3293   6612     1
   3299   6615     1
   3302   6644     1
   3306   3331     1
   3306   3328     1
   3306   3325     1
   3307   3322     1
   3307   3316     1
   3307   6727     1
   3310   3319     1
   3310   3316     1
   3310   6698     1
   3313   3319     1
   3313   3322     1
   3313   3334     1
   3319   6699     1
   3322   6670     1
   3328   6673     1
   3331   6702     1
   3335   3360     1
   3335   3357     1
   3335   3354     1
   3336   3351     1
   3336   3345     1
   3336   6785     1
   3339   3348     1
   3339   3345     1
   3339   6756     1
   3342   3348     1
   3342   3351     1
   3342   3363     1
   3348   6757     1
   3351   6728     1
   3357   6731     1
   3360   6760     1
   3364   3389     1
   3364   3386     1
   3364   3383     1
   3365   3380     1
   3365   3374     1
   3365   6843     1
   3368   3377     1
   3368   3374     1
   3368   6814     1
   3371   3377     1
   3371   3380     1
   3371   3392     1
   3377   6815     1
   3380   6786     1
   3386   6789     1
   3389   6818     1
   3393   3418     1
   3393   3415     1
   3393   3412     1
   3394   3409     1
   3394   3403     1
   3394   6901     1
   3397   3406     1
   3397   3403     1
   3397   6872     1
   3400   3406     1
   3400   3409     1
   3400   3421     1
   3406   6873     1
   3409   6844     1
   3415   6847     1
   3418   6876     1
   3422   3447     1
   3422   3444     1
   3422   3441     1
   3423   3438     1
   3423   3432     1
   3423   6959     1
   3426   3435     1
   3426   3432     1
   3426   6930     1
   3429   3435     1
   3429   3438     1
   3429   3450     1
   3435   6931     1
   3438   6902     1
   3444   6905     1
   3447   6934     1
   3451   3476     1
   3451   3473     1
   3451   3470     1
   3452   3467     1
   3452   3461     1
   3452   7017     1
   3455   3464     1
   3455   3461     1
   3455   6988     1
   3458   3464     1
   3458   3467     1
   3458   3479     1
   3464   6989     1
   3467   6960     1
   3473   6963     1
   3476   6992     1
   3480   3505     1
   3480   3502     1
   3480   3499     1
   3481   3496     1
   3481   3490     1
   3481   7075     1
   3484   3493     1
   3484   3490     1
   3484   7046     1
   3487   3493     1
   3487   3496     1
   3487   3508     1
   3493   7047     1
   3496   7018     1
   3502   7021     1
   3505   7050     1
   3509   3534     1
   3509   3531     1
   3509   3528     1
   3510   3525     1
   3510   3519     1
   3510   7133     1
   3513   3522     1
   3513   3519     1
   3513   7104     1
   3516   3522     1
   3516   3525     1
   3516   3537     1
   3522   7105     1
   3525   7076     1
   3531   7079     1
   3534   7108     1
   3538   3563     1
   3538   3560     1
   3538   3557     1
   3539   3554     1
   3539   3548     1
   3539   7191     1
   3542   3551     1
   3542   3548     1
   3542   7162     1
   3545   3551     1
   3545   3554     1
   3545   3566     1
   3551   7163     1
   3554   7134     1
   3560   7137     1
   3563   7166     1
   3567   3592     1
   3567   3589     1
   3567   3586     1
   3568   3583     1
   3568   3577     1
   3568   7249     1
   3571   3580     1
   3571   3577     1
   3571   7220     1
   3574   3580     1
   3574   3583     1
   3574   3595     1
   3580   7221     1
   3583   7192     1
   3589   7195     1
   3592   7224     1
   3596   3621     1
   3596   3618     1
   3596   3615     1
   3597   3612     1
   3597   3606     1
   3597   7307     1
   3600   3609     1
   3600   3606     1
   3600   7278     1
   3603   3609     1
   3603   3612     1
   3603   3624     1
   3609   7279     1
   3612   7250     1
   3618   7253     1
   3621   7282     1
   3625   3650     1
   3625   3647     1
   3625   3644     1
   3626   3641     1
   3626   3635     1
   3626   7365     1
   3629   3638     1
   3629   3635     1
   3629   7336     1
   3632   3638     1
   3632   3641     1
   3632   3653     1
   3638   7337     1
   3641   7308     1
   3647   7311     1
   3650   7340     1
   3654   3663     1
   3657   3664     1
   3657   3673     1
   3660   3682     1
   3660   3667     1
   3660   3676     1
   3663   3670     1
   3663   3679     1
   3664   3676     1
   3664   3671     1
   3664   3672     1
   3667   3673     1
   3673   3680     1
   3673   3681     1
   3683   3692     1
   3686   3693     1
   3686   3702     1
   3689   3696     1
   3689   3705     1
   3689   3711     1
   3692   3699     1
   3692   3708     1
   3693   3700     1
   3693   3701     1
   3693   3705     1
   3696   3702     1
   3702   3709     1
   3702   3710     1
   3712   3721     1
   3715   3722     1
   3715   3731     1
   3718   3740     1
   3718   3725     1
   3718   3734     1
   3721   3728     1
   3721   3737     1
   3722   3734     1
   3722   3729     1
   3722   3730     1
   3725   3731     1
   3731   3738     1
   3731   3739     1
   3741   3750     1
   3744   3751     1
   3744   3760     1
   3747   3754     1
   3747   3763     1
   3747   3769     1
   3750   3757     1
   3750   3766     1
   3751   3758     1
   3751   3759     1
   3751   3763     1
   3754   3760     1
   3760   3767     1
   3760   3768     1
   3770   3779     1
   3773   3780     1
   3773   3789     1
   3776   3798     1
   3776   3783     1
   3776   3792     1
   3779   3786     1
   3779   3795     1
   3780   3792     1
   3780   3787     1
   3780   3788     1
   3783   3789     1
   3789   3796     1
   3789   3797     1
   3799   3808     1
   3802   3809     1
   3802   3818     1
   3805   3812     1
   3805   3821     1
   3805   3827     1
   3808   3815     1
   3808   3824     1
   3809   3816     1
   3809   3817     1
   3809   3821     1
   3812   3818     1
   3818   3825     1
   3818   3826     1
   3828   3837     1
   3831   3838     1
   3831   3847     1
   3834   3856     1
   3834   3841     1
   3834   3850     1
   3837   3844     1
   3837   3853     1
   3838   3850     1
   3838   3845     1
   3838   3846     1
   3841   3847     1
   3847   3854     1
   3847   3855     1
   3857   3866     1
   3860   3867     1
   3860   3876     1
   3863   3870     1
   3863   3879     1
   3863   3885     1
   3866   3873     1
   3866   3882     1
   3867   3874     1
   3867   3875     1
   3867   3879     1
   3870   3876     1
   3876   3883     1
   3876   3884     1
   3886   3895     1
   3889   3896     1
   3889   3905     1
   3892   3914     1
   3892   3899     1
   3892   3908     1
   3895   3902     1
   3895   3911     1
   3896   3908     1
   3896   3903     1
   3896   3904     1
   3899   3905     1
   3905   3912     1
   3905   3913     1
   3915   3924     1
   3918   3925     1
   3918   3934     1
   3921   3928     1
   3921   3937     1
   3921   3943     1
   3924   3931     1
   3924   3940     1
   3925   3932     1
   3925   3933     1
   3925   3937     1
   3928   3934     1
   3934   3941     1
   3934   3942     1
   3944   3953     1
   3947   3954     1
   3947   3963     1
   3950   3972     1
   3950   3957     1
   3950   3966     1
   3953   3960     1
   3953   3969     1
   3954   3966     1
   3954   3961     1
   3954   3962     1
   3957   3963     1
   3963   3970     1
   3963   3971     1
   3973   3982     1
   3976   3983     1
   3976   3992     1
   3979   3986     1
   3979   3995     1
   3979   4001     1
   3982   3989     1
   3982   3998     1
   3983   3990     1
   3983   3991     1
   3983   3995     1
   3986   3992     1
   3992   3999     1
   3992   4000     1
   4002   4011     1
   4005   4012     1
   4005   4021     1
   4008   4030     1
   4008   4015     1
   4008   4024     1
   4011   4018     1
   4011   4027     1
   4012   4024     1
   4012   4019     1
   4012   4020     1
   4015   4021     1
   4021   4028     1
   4021   4029     1
   4031   4040     1
   4034   4041     1
   4034   4050     1
   4037   4044     1
   4037   4053     1
   4037   4059     1
   4040   4047     1
   4040   4056     1
   4041   4048     1
   4041   4049     1
   4041   4053     1
   4044   4050     1
   4050   4057     1
   4050   4058     1
   4060   4069     1
   4063   4070     1
   4063   4079     1
   4066   4088     1
   4066   4073     1
   4066   4082     1
   4069   4076     1
   4069   4085     1
   4070   4082     1
   4070   4077     1
   4070   4078     1
   4073   4079     1
   4079   4086     1
   4079   4087     1
   4089   4098     1
   4092   4099     1
   4092   4108     1
   4095   4102     1
   4095   4111     1
   4095   4117     1
   4098   4105     1
   4098   4114     1
   4099   4106     1
   4099   4107     1
   4099   4111     1
   4102   4108     1
   4108   4115     1
   4108   4116     1
   4118   4127     1
   4121   4128     1
   4121   4137     1
   4124   4146     1
   4124   4131     1
   4124   4140     1
   4127   4134     1
   4127   4143     1
   4128   4140     1
   4128   4135     1
   4128   4136     1
   4131   4137     1
   4137   4144     1
   4137   4145     1
   4147   4156     1
   4150   4157     1
   4150   4166     1
   4153   4160     1
   4153   4169     1
   4153   4175     1
   4156   4163     1
   4156   4172     1
   4157   4164     1
   4157   4165     1
   4157   4169     1
   4160   4166     1
   4166   4173     1
   4166   4174     1
   4176   4185     1
   4179   4186     1
   4179   4195     1
   4182   4204     1
   4182   4189     1
   4182   4198     1
   4185   4192     1
   4185   4201     1
   4186   4198     1
   4186   4193     1
   4186   4194     1
   4189   4195     1
   4195   4202     1
   4195   4203     1
   4205   4214     1
   4208   4215     1
   4208   4224     1
   4211   4218     1
   4211   4227     1
   4211   4233     1
   4214   4221     1
   4214   4230     1
   4215   4222     1
   4215   4223     1
   4215   4227     1
   4218   4224     1
   4224   4231     1
   4224   4232     1
   4234   4243     1
   4237   4244     1
   4237   4253     1
   4240   4262     1
   4240   4247     1
   4240   4256     1
   4243   4250     1
   4243   4259     1
   4244   4256     1
   4244   4251     1
   4244   4252     1
   4247   4253     1
   4253   4260     1
   4253   4261     1
   4263   4272     1
   4266   4273     1
   4266   4282     1
   4269   4276     1
   4269   4285     1
   4269   4291     1
   4272   4279     1
   4272   4288     1
   4273   4280     1
   4273   4281     1
   4273   4285     1
   4276   4282     1
   4282   4289     1
   4282   4290     1
   4292   4301     1
   4295   4302     1
   4295   4311     1
   4298   4320     1
   4298   4305     1
   4298   4314     1
   4301   4308     1
   4301   4317     1
   4302   4314     1
   4302   4309     1
   4302   4310     1
   4305   4311     1
   4311   4318     1
   4311   4319     1
   4321   4330     1
   4324   4331     1
   4324   4340     1
   4327   4334     1
   4327   4343     1
   4327   4349     1
   4330   4337     1
   4330   4346     1
   4331   4338     1
   4331   4339     1
   4331   4343     1
   4334   4340     1
   4340   4347     1
   4340   4348     1
   4350   4359     1
   4353   4360     1
   4353   4369     1
   4356   4378     1
   4356   4363     1
   4356   4372     1
   4359   4366     1
   4359   4375     1
   4360   4372     1
   4360   4367     1
   4360   4368     1
   4363   4369     1
   4369   4376     1
   4369   4377     1
   4379   4388     1
   4382   4389     1
   4382   4398     1
   4385   4392     1
   4385   4401     1
   4385   4407     1
   4388   4395     1
   4388   4404     1
   4389   4396     1
   4389   4397     1
   4389   4401     1
   4392   4398     1
   4398   4405     1
   4398   4406     1
   4408   4417     1
   4411   4418     1
   4411   4427     1
   4414   4436     1
   4414   4421     1
   4414   4430     1
   4417   4424     1
   4417   4433     1
   4418   4430     1
   4418   4425     1
   4418   4426     1
   4421   4427     1
   4427   4434     1
   4427   4435     1
   4437   4446     1
   4440   4447     1
   4440   4456     1
   4443   4450     1
   4443   4459     1
   4443   4465     1
   4446   4453     1
   4446   4462     1
   4447   4454     1
   4447   4455     1
   4447   4459     1
   4450   4456     1
   4456   4463     1
   4456   4464     1
   4466   4475     1
   4469   4476     1
   4469   4485     1
   4472   4494     1
   4472   4479     1
   4472   4488     1
   4475   4482     1
   4475   4491     1
   4476   4488     1
   4476   4483     1
   4476   4484     1
   4479   4485     1
   4485   4492     1
   4485   4493     1
   4495   4504     1
   4498   4505     1
   4498   4514     1
   4501   4508     1
   4501   4517     1
   4501   4523     1
   4504   4511     1
   4504   4520     1
   4505   4512     1
   4505   4513     1
   4505   4517     1
   4508   4514     1
   4514   4521     1
   4514   4522     1
   4524   4533     1
   4527   4534     1
   4527   4543     1
   4530   4552     1
   4530   4537     1
   4530   4546     1
   4533   4540     1
   4533   4549     1
   4534   4546     1
   4534   4541     1
   4534   4542     1
   4537   4543     1
   4543   4550     1
   4543   4551     1
   4553   4562     1
   4556   4563     1
   4556   4572     1
   4559   4566     1
   4559   4575     1
   4559   4581     1
   4562   4569     1
   4562   4578     1
   4563   4570     1
   4563   4571     1
   4563   4575     1
   4566   4572     1
   4572   4579     1
   4572   4580     1
   4582   4591     1
   4585   4592     1
   4585   4601     1
   4588   4610     1
   4588   4595     1
   4588   4604     1
   4591   4598     1
   4591   4607     1
   4592   4604     1
   4592   4599     1
   4592   4600     1
   4595   4601     1
   4601   4608     1
   4601   4609     1
   4611   4620     1
   4614   4621     1
   4614   4630     1
   4617   4624     1
   4617   4633     1
   4617   4639     1
   4620   4627     1
   4620   4636     1
   4621   4628     1
   4621   4629     1
   4621   4633     1
   4624   4630     1
   4630   4637     1
   4630   4638     1
   4640   4649     1
   4643   4650     1
   4643   4659     1
   4646   4668     1
   4646   4653     1
   4646   4662     1
   4649   4656     1
   4649   4665     1
   4650   4662     1
   4650   4657     1
   4650   4658     1
   4653   4659     1
   4659   4666     1
   4659   4667     1
   4669   4678     1
   4672   4679     1
   4672   4688     1
   4675   4682     1
   4675   4691     1
   4675   4697     1
   4678   4685     1
   4678   4694     1
   4679   4686     1
   4679   4687     1
   4679   4691     1
   4682   4688     1
   4688   4695     1
   4688   4696     1
   4698   4707     1
   4701   4708     1
   4701   4717     1
   4704   4726     1
   4704   4711     1
   4704   4720     1
   4707   4714     1
   4707   4723     1
   4708   4720     1
   4708   4715     1
   4708   4716     1
   4711   4717     1
   4717   4724     1
   4717   4725     1
   4727   4736     1
   4730   4737     1
   4730   4746     1
   4733   4740     1
   4733   4749     1
   4733   4755     1
   4736   4743     1
   4736   4752     1
   4737   4744     1
   4737   4745     1
   4737   4749     1
   4740   4746     1
   4746   4753     1
   4746   4754     1
   4756   4765     1
   4759   4766     1
   4759   4775     1
   4762   4784     1
   4762   4769     1
   4762   4778     1
   4765   4772     1
   4765   4781     1
   4766   4778     1
   4766   4773     1
   4766   4774     1
   4769   4775     1
   4775   4782     1
   4775   4783     1
   4785   4794     1
   4788   4795     1
   4788   4804     1
   4791   4798     1
   4791   4807     1
   4791   4813     1
   4794   4801     1
   4794   4810     1
   4795   4802     1
   4795   4803     1
   4795   4807     1
   4798   4804     1
   4804   4811     1
   4804   4812     1
   4814   4823     1
   4817   4824     1
   4817   4833     1
   4820   4842     1
   4820   4827     1
   4820   4836     1
   4823   4830     1
   4823   4839     1
   4824   4836     1
   4824   4831     1
   4824   4832     1
   4827   4833     1
   4833   4840     1
   4833   4841     1
   4843   4852     1
   4846   4853     1
   4846   4862     1
   4849   4856     1
   4849   4865     1
   4849   4871     1
   4852   4859     1
   4852   4868     1
   4853   4860     1
   4853   4861     1
   4853   4865     1
   4856   4862     1
   4862   4869     1
   4862   4870     1
   4872   4881     1
   4875   4882     1
   4875   4891     1
   4878   4900     1
   4878   4885     1
   4878   4894     1
   4881   4888     1
   4881   4897     1
   4882   4894     1
   4882   4889     1
   4882   4890     1
   4885   4891     1
   4891   4898     1
   4891   4899     1
   4901   4910     1
   4904   4911     1
   4904   4920     1
   4907   4914     1
   4907   4923     1
   4907   4929     1
   4910   4917     1
   4910   4926     1
   4911   4918     1
   4911   4919     1
   4911   4923     1
   4914   4920     1
   4920   4927     1
   4920   4928     1
   4930   4939     1
   4933   4940     1
   4933   4949     1
   4936   4958     1
   4936   4943     1
   4936   4952     1
   4939   4946     1
   4939   4955     1
   4940   4952     1
   4940   4947     1
   4940   4948     1
   4943   4949     1
   4949   4956     1
   4949   4957     1
   4959   4968     1
   4962   4969     1
   4962   4978     1
   4965   4972     1
   4965   4981     1
   4965   4987     1
   4968   4975     1
   4968   4984     1
   4969   4976     1
   4969   4977     1
   4969   4981     1
   4972   4978     1
   4978   4985     1
   4978   4986     1
   4988   4997     1
   4991   4998     1
   4991   5007     1
   4994   5016     1
   4994   5001     1
   4994   5010     1
   4997   5004     1
   4997   5013     1
   4998   5010     1
   4998   5005     1
   4998   5006     1
   5001   5007     1
   5007   5014     1
   5007   5015     1
   5017   5026     1
   5020   5027     1
   5020   5036     1
   5023   5030     1
   5023   5039     1
   5023   5045     1
   5026   5033     1
   5026   5042     1
   5027   5034     1
   5027   5035     1
   5027   5039     1
   5030   5036     1
   5036   5043     1
   5036   5044     1
   5046   5055     1
   5049   5056     1
   5049   5065     1
   5052   5074     1
   5052   5059     1
   5052   5068     1
   5055   5062     1
   5055   5071     1
   5056   5068     1
   5056   5063     1
   5056   5064     1
   5059   5065     1
   5065   5072     1
   5065   5073     1
   5075   5084     1
   5078   5085     1
   5078   5094     1
   5081   5088     1
   5081   5097     1
   5081   5103     1
   5084   5091     1
   5084   5100     1
   5085   5092     1
   5085   5093     1
   5085   5097     1
   5088   5094     1
   5094   5101     1
   5094   5102     1
   5104   5113     1
   5107   5114     1
   5107   5123     1
   5110   5132     1
   5110   5117     1
   5110   5126     1
   5113   5120     1
   5113   5129     1
   5114   5126     1
   5114   5121     1
   5114   5122     1
   5117   5123     1
   5123   5130     1
   5123   5131     1
   5133   5142     1
   5136   5143     1
   5136   5152     1
   5139   5146     1
   5139   5155     1
   5139   5161     1
   5142   5149     1
   5142   5158     1
   5143   5150     1
   5143   5151     1
   5143   5155     1
   5146   5152     1
   5152   5159     1
   5152   5160     1
   5162   5171     1
   5165   5172     1
   5165   5181     1
   5168   5190     1
   5168   5175     1
   5168   5184     1
   5171   5178     1
   5171   5187     1
   5172   5184     1
   5172   5179     1
   5172   5180     1
   5175   5181     1
   5181   5188     1
   5181   5189     1
   5191   5200     1
   5194   5201     1
   5194   5210     1
   5197   5204     1
   5197   5213     1
   5197   5219     1
   5200   5207     1
   5200   5216     1
   5201   5208     1
   5201   5209     1
   5201   5213     1
   5204   5210     1
   5210   5217     1
   5210   5218     1
   5220   5229     1
   5223   5230     1
   5223   5239     1
   5226   5248     1
   5226   5233     1
   5226   5242     1
   5229   5236     1
   5229   5245     1
   5230   5242     1
   5230   5237     1
   5230   5238     1
   5233   5239     1
   5239   5246     1
   5239   5247     1
   5249   5258     1
   5252   5259     1
   5252   5268     1
   5255   5262     1
   5255   5271     1
   5255   5277     1
   5258   5265     1
   5258   5274     1
   5259   5266     1
   5259   5267     1
   5259   5271     1
   5262   5268     1
   5268   5275     1
   5268   5276     1
   5278   5287     1
   5281   5288     1
   5281   5297     1
   5284   5306     1
   5284   5291     1
   5284   5300     1
   5287   5294     1
   5287   5303     1
   5288   5300     1
   5288   5295     1
   5288   5296     1
   5291   5297     1
   5297   5304     1
   5297   5305     1
   5307   5316     1
   5310   5317     1
   5310   5326     1
   5313   5320     1
   5313   5329     1
   5313   5335     1
   5316   5323     1
   5316   5332     1
   5317   5324     1
   5317   5325     1
   5317   5329     1
   5320   5326     1
   5326   5333     1
   5326   5334     1
   5336   5345     1
   5339   5346     1
   5339   5355     1
   5342   5364     1
   5342   5349     1
   5342   5358     1
   5345   5352     1
   5345   5361     1
   5346   5358     1
   5346   5353     1
   5346   5354     1
   5349   5355     1
   5355   5362     1
   5355   5363     1
   5365   5374     1
   5368   5375     1
   5368   5384     1
   5371   5378     1
   5371   5387     1
   5371   5393     1
   5374   5381     1
   5374   5390     1
   5375   5382     1
   5375   5383     1
   5375   5387     1
   5378   5384     1
   5384   5391     1
   5384   5392     1
   5394   5403     1
   5397   5404     1
   5397   5413     1
   5400   5422     1
   5400   5407     1
   5400   5416     1
   5403   5410     1
   5403   5419     1
   5404   5416     1
   5404   5411     1
   5404   5412     1
   5407   5413     1
   5413   5420     1
   5413   5421     1
   5423   5432     1
   5426   5433     1
   5426   5442     1
   5429   5436     1
   5429   5445     1
   5429   5451     1
   5432   5439     1
   5432   5448     1
   5433   5440     1
   5433   5441     1
   5433   5445     1
   5436   5442     1
   5442   5449     1
   5442   5450     1
   5452   5461     1
   5455   5462     1
   5455   5471     1
   5458   5480     1
   5458   5465     1
   5458   5474     1
   5461   5468     1
   5461   5477     1
   5462   5474     1
   5462   5469     1
   5462   5470     1
   5465   5471     1
   5471   5478     1
   5471   5479     1
   5481   5490     1
   5484   5491     1
   5484   5500     1
   5487   5494     1
   5487   5503     1
   5487   5509     1
   5490   5497     1
   5490   5506     1
   5491   5498     1
   5491   5499     1
   5491   5503     1
   5494   5500     1
   5500   5507     1
   5500   5508     1
   5510   5519     1
   5513   5520     1
   5513   5529     1
   5516   5538     1
   5516   5523     1
   5516   5532     1
   5519   5526     1
   5519   5535     1
   5520   5532     1
   5520   5527     1
   5520   5528     1
   5523   5529     1
   5529   5536     1
   5529   5537     1
   5539   5548     1
   5542   5549     1
   5542   5558     1
   5545   5552     1
   5545   5561     1
   5545   5567     1
   5548   5555     1
   5548   5564     1
   5549   5556     1
   5549   5557     1
   5549   5561     1
   5552   5558     1
   5558   5565     1
   5558   5566     1
   5568   5577     1
   5571   5578     1
   5571   5587     1
   5574   5596     1
   5574   5581     1
   5574   5590     1
   5577   5584     1
   5577   5593     1
   5578   5590     1
   5578   5585     1
   5578   5586     1
   5581   5587     1
   5587   5594     1
   5587   5595     1
   5597   5606     1
   5600   5607     1
   5600   5616     1
   5603   5610     1
   5603   5619     1
   5603   5625     1
   5606   5613     1
   5606   5622     1
   5607   5614     1
   5607   5615     1
   5607   5619     1
   5610   5616     1
   5616   5623     1
   5616   5624     1
   5626   5635     1
   5629   5636     1
   5629   5645     1
   5632   5654     1
   5632   5639     1
   5632   5648     1
   5635   5642     1
   5635   5651     1
   5636   5648     1
   5636   5643     1
   5636   5644     1
   5639   5645     1
   5645   5652     1
   5645   5653     1
   5655   5664     1
   5658   5665     1
   5658   5674     1
   5661   5668     1
   5661   5677     1
   5661   5683     1
   5664   5671     1
   5664   5680     1
   5665   5672     1
   5665   5673     1
   5665   5677     1
   5668   5674     1
   5674   5681     1
   5674   5682     1
   5684   5693     1
   5687   5694     1
   5687   5703     1
   5690   5712     1
   5690   5697     1
   5690   5706     1
   5693   5700     1
   5693   5709     1
   5694   5706     1
   5694   5701     1
   5694   5702     1
   5697   5703     1
   5703   5710     1
   5703   5711     1
   5713   5722     1
   5716   5723     1
   5716   5732     1
   5719   5726     1
   5719   5735     1
   5719   5741     1
   5722   5729     1
   5722   5738     1
   5723   5730     1
   5723   5731     1
   5723   5735     1
   5726   5732     1
   5732   5739     1
   5732   5740     1
   5742   5751     1
   5745   5752     1
   5745   5761     1
   5748   5770     1
   5748   5755     1
   5748   5764     1
   5751   5758     1
   5751   5767     1
   5752   5764     1
   5752   5759     1
   5752   5760     1
   5755   5761     1
   5761   5768     1
   5761   5769     1
   5771   5780     1
   5774   5781     1
   5774   5790     1
   5777   5784     1
   5777   5793     1
   5777   5799     1
   5780   5787     1
   5780   5796     1
   5781   5788     1
   5781   5789     1
   5781   5793     1
   5784   5790     1
   5790   5797     1
   5790   5798     1
   5800   5809     1
   5803   5810     1
   5803   5819     1
   5806   5828     1
   5806   5813     1
   5806   5822     1
   5809   5816     1
   5809   5825     1
   5810   5822     1
   5810   5817     1
   5810   5818     1
   5813   5819     1
   5819   5826     1
   5819   5827     1
   5829   5838     1
   5832   5839     1
   5832   5848     1
   5835   5842     1
   5835   5851     1
   5835   5857     1
   5838   5845     1
   5838   5854     1
   5839   5846     1
   5839   5847     1
   5839   5851     1
   5842   5848     1
   5848   5855     1
   5848   5856     1
   5858   5867     1
   5861   5868     1
   5861   5877     1
   5864   5886     1
   5864   5871     1
   5864   5880     1
   5867   5874     1
   5867   5883     1
   5868   5880     1
   5868   5875     1
   5868   5876     1
   5871   5877     1
   5877   5884     1
   5877   5885     1
   5887   5896     1
   5890   5897     1
   5890   5906     1
   5893   5900     1
   5893   5909     1
   5893   5915     1
   5896   5903     1
   5896   5912     1
   5897   5904     1
   5897   5905     1
   5897   5909     1
   5900   5906     1
   5906   5913     1
   5906   5914     1
   5916   5925     1
   5919   5926     1
   5919   5935     1
   5922   5944     1
   5922   5929     1
   5922   5938     1
   5925   5932     1
   5925   5941     1
   5926   5938     1
   5926   5933     1
   5926   5934     1
   5929   5935     1
   5935   5942     1
   5935   5943     1
   5945   5954     1
   5948   5955     1
   5948   5964     1
   5951   5958     1
   5951   5967     1
   5951   5973     1
   5954   5961     1
   5954   5970     1
   5955   5962     1
   5955   5963     1
   5955   5967     1
   5958   5964     1
   5964   5971     1
   5964   5972     1
   5974   5983     1
   5977   5984     1
   5977   5993     1
   5980   6002     1
   5980   5987     1
   5980   5996     1
   5983   5990     1
   5983   5999     1
   5984   5996     1
   5984   5991     1
   5984   5992     1
   5987   5993     1
   5993   6000     1
   5993   6001     1
   6003   6012     1
   6006   6013     1
   6006   6022     1
   6009   6016     1
   6009   6025     1
   6009   6031     1
   6012   6019     1
   6012   6028     1
   6013   6020     1
   6013   6021     1
   6013   6025     1
   6016   6022     1
   6022   6029     1
   6022   6030     1
   6032   6041     1
   6035   6042     1
   6035   6051     1
   6038   6060     1
   6038   6045     1
   6038   6054     1
   6041   6048     1
   6041   6057     1
   6042   6054     1
   6042   6049     1
   6042   6050     1
   6045   6051     1
   6051   6058     1
   6051   6059     1
   6061   6070     1
   6064   6071     1
   6064   6080     1
   6067   6074     1
   6067   6083     1
   6067   6089     1
   6070   6077     1
   6070   6086     1
   6071   6078     1
   6071   6079     1
   6071   6083     1
   6074   6080     1
   6080   6087     1
   6080   6088     1
   6090   6099     1
   6093   6100     1
   6093   6109     1
   6096   6118     1
   6096   6103     1
   6096   6112     1
   6099   6106     1
   6099   6115     1
   6100   6112     1
   6100   6107     1
   6100   6108     1
   6103   6109     1
   6109   6116     1
   6109   6117     1
   6119   6128     1
   6122   6129     1
   6122   6138     1
   6125   6132     1
   6125   6141     1
   6125   6147     1
   6128   6135     1
   6128   6144     1
   6129   6136     1
   6129   6137     1
   6129   6141     1
   6132   6138     1
   6138   6145     1
   6138   6146     1
   6148   6157     1
   6151   6158     1
   6151   6167     1
   6154   6176     1
   6154   6161     1
   6154   6170     1
   6157   6164     1
   6157   6173     1
   6158   6170     1
   6158   6165     1
   6158   6166     1
   6161   6167     1
   6167   6174     1
   6167   6175     1
   6177   6186     1
   6180   6187     1
   6180   6196     1
   6183   6190     1
   6183   6199     1
   6183   6205     1
   6186   6193     1
   6186   6202     1
   6187   6194     1
   6187   6195     1
   6187   6199     1
   6190   6196     1
   6196   6203     1
   6196   6204     1
   6206   6215     1
   6209   6216     1
   6209   6225     1
   6212   6234     1
   6212   6219     1
   6212   6228     1
   6215   6222     1
   6215   6231     1
   6216   6228     1
   6216   6223     1
   6216   6224     1
   6219   6225     1
   6225   6232     1
   6225   6233     1
   6235   6244     1
   6238   6245     1
   6238   6254     1
   6241   6248     1
   6241   6257     1
   6241   6263     1
   6244   6251     1
   6244   6260     1
   6245   6252     1
   6245   6253     1
   6245   6257     1
   6248   6254     1
   6254   6261     1
   6254   6262     1
   6264   6273     1
   6267   6274     1
   6267   6283     1
   6270   6292     1
   6270   6277     1
   6270   6286     1
   6273   6280     1
   6273   6289     1
   6274   6286     1
   6274   6281     1
   6274   6282     1
   6277   6283     1
   6283   6290     1
   6283   6291     1
   6293   6302     1
   6296   6303     1
   6296   6312     1
   6299   6306     1
   6299   6315     1
   6299   6321     1
   6302   6309     1
   6302   6318     1
   6303   6310     1
   6303   6311     1
   6303   6315     1
   6306   6312     1
   6312   6319     1
   6312   6320     1
   6322   6331     1
   6325   6332     1
   6325   6341     1
   6328   6350     1
   6328   6335     1
   6328   6344     1
   6331   6338     1
   6331   6347     1
   6332   6344     1
   6332   6339     1
   6332   6340     1
   6335   6341     1
   6341   6348     1
   6341   6349     1
   6351   6360     1
   6354   6361     1
   6354   6370     1
   6357   6364     1
   6357   6373     1
   6357   6379     1
   6360   6367     1
   6360   6376     1
   6361   6368     1
   6361   6369     1
   6361   6373     1
   6364   6370     1
   6370   6377     1
   6370   6378     1
   6380   6389     1
   6383   6390     1
   6383   6399     1
   6386   6408     1
   6386   6393     1
   6386   6402     1
   6389   6396     1
   6389   6405     1
   6390   6402     1
   6390   6397     1
   6390   6398     1
   6393   6399     1
   6399   6406     1
   6399   6407     1
   6409   6418     1
   6412   6419     1
   6412   6428     1
   6415   6422     1
   6415   6431     1
   6415   6437     1
   6418   6425     1
   6418   6434     1
   6419   6426     1
   6419   6427     1
   6419   6431     1
   6422   6428     1
   6428   6435     1
   6428   6436     1
   6438   6447     1
   6441   6448     1
   6441   6457     1
   6444   6466     1
   6444   6451     1
   6444   6460     1
   6447   6454     1
   6447   6463     1
   6448   6460     1
   6448   6455     1
   6448   6456     1
   6451   6457     1
   6457   6464     1
   6457   6465     1
   6467   6476     1
   6470   6477     1
   6470   6486     1
   6473   6480     1
   6473   6489     1
   6473   6495     1
   6476   6483     1
   6476   6492     1
   6477   6484     1
   6477   6485     1
   6477   6489     1
   6480   6486     1
   6486   6493     1
   6486   6494     1
   6496   6505     1
   6499   6506     1
   6499   6515     1
   6502   6524     1
   6502   6509     1
   6502   6518     1
   6505   6512     1
   6505   6521     1
   6506   6518     1
   6506   6513     1
   6506   6514     1
   6509   6515     1
   6515   6522     1
   6515   6523     1
   6525   6534     1
   6528   6535     1
   6528   6544     1
   6531   6538     1
   6531   6547     1
   6531   6553     1
   6534   6541     1
   6534   6550     1
   6535   6542     1
   6535   6543     1
   6535   6547     1
   6538   6544     1
   6544   6551     1
   6544   6552     1
   6554   6563     1
   6557   6564     1
   6557   6573     1
   6560   6582     1
   6560   6567     1
   6560   6576     1
   6563   6570     1
   6563   6579     1
   6564   6576     1
   6564   6571     1
   6564   6572     1
   6567   6573     1
   6573   6580     1
   6573   6581     1
   6583   6592     1
   6586   6593     1
   6586   6602     1
   6589   6596     1
   6589   6605     1
   6589   6611     1
   6592   6599     1
   6592   6608     1
   6593   6600     1
   6593   6601     1
   6593   6605     1
   6596   6602     1
   6602   6609     1
   6602   6610     1
   6612   6621     1
   6615   6622     1
   6615   6631     1
   6618   6640     1
   6618   6625     1
   6618   6634     1
   6621   6628     1
   6621   6637     1
   6622   6634     1
   6622   6629     1
   6622   6630     1
   6625   6631     1
   6631   6638     1
   6631   6639     1
   6641   6650     1
   6644   6651     1
   6644   6660     1
   6647   6654     1
   6647   6663     1
   6647   6669     1
   6650   6657     1
   6650   6666     1
   6651   6658     1
   6651   6659     1
   6651   6663     1
   6654   6660     1
   6660   6667     1
   6660   6668     1
   6670   6679     1
   6673   6680     1
   6673   6689     1
   6676   6698     1
   6676   6683     1
   6676   6692     1
   6679   6686     1
   6679   6695     1
   6680   6692     1
   6680   6687     1
   6680   6688     1
   6683   6689     1
   6689   6696     1
   6689   6697     1
   6699   6708     1
   6702   6709     1
   6702   6718     1
   6705   6712     1
   6705   6721     1
   6705   6727     1
   6708   6715     1
   6708   6724     1
   6709   6716     1
   6709   6717     1
   6709   6721     1
   6712   6718     1
   6718   6725     1
   6718   6726     1
   6728   6737     1
   6731   6738     1
   6731   6747     1
   6734   6756     1
   6734   6741     1
   6734   6750     1
   6737   6744     1
   6737   6753     1
   6738   6750     1
   6738   6745     1
   6738   6746     1
   6741   6747     1
   6747   6754     1
   6747   6755     1
   6757   6766     1
   6760   6767     1
   6760   6776     1
   6763   6770     1
   6763   6779     1
   6763   6785     1
   6766   6773     1
   6766   6782     1
   6767   6774     1
   6767   6775     1
   6767   6779     1
   6770   6776     1
   6776   6783     1
   6776   6784     1
   6786   6795     1
   6789   6796     1
   6789   6805     1
   6792   6814     1
   6792   6799     1
   6792   6808     1
   6795   6802     1
   6795   6811     1
   6796   6808     1
   6796   6803     1
   6796   6804     1
   6799   6805     1
   6805   6812     1
   6805   6813     1
   6815   6824     1
   6818   6825     1
   6818   6834     1
   6821   6828     1
   6821   6837     1
   6821   6843     1
   6824   6831     1
   6824   6840     1
   6825   6832     1
   6825   6833     1
   6825   6837     1
   6828   6834     1
   6834   6841     1
   6834   6842     1
   6844   6853     1
   6847   6854     1
   6847   6863     1
   6850   6872     1
   6850   6857     1
   6850   6866     1
   6853   6860     1
   6853   6869     1
   6854   6866     1
   6854   6861     1
   6854   6862     1
   6857   6863     1
   6863   6870     1
   6863   6871     1
   6873   6882     1
   6876   6883     1
   6876   6892     1
   6879   6886     1
   6879   6895     1
   6879   6901     1
   6882   6889     1
   6882   6898     1
   6883   6890     1
   6883   6891     1
   6883   6895     1
   6886   6892     1
   6892   6899     1
   6892   6900     1
   6902   6911     1
   6905   6912     1
   6905   6921     1
   6908   6930     1
   6908   6915     1
   6908   6924     1
   6911   6918     1
   6911   6927     1
   6912   6924     1
   6912   6919     1
   6912   6920     1
   6915   6921     1
   6921   6928     1
   6921   6929     1
   6931   6940     1
   6934   6941     1
   6934   6950     1
   6937   6944     1
   6937   6953     1
   6937   6959     1
   6940   6947     1
   6940   6956     1
   6941   6948     1
   6941   6949     1
   6941   6953     1
   6944   6950     1
   6950   6957     1
   6950   6958     1
   6960   6969     1
   6963   6970     1
   6963   6979     1
   6966   6988     1
   6966   6973     1
   6966   6982     1
   6969   6976     1
   6969   6985     1
   6970   6982     1
   6970   6977     1
   6970   6978     1
   6973   6979     1
   6979   6986     1
   6979   6987     1
   6989   6998     1
   6992   6999     1
   6992   7008     1
   6995   7002     1
   6995   7011     1
   6995   7017     1
   6998   7005     1
   6998   7014     1
   6999   7006     1
   6999   7007     1
   6999   7011     1
   7002   7008     1
   7008   7015     1
   7008   7016     1
   7018   7027     1
   7021   7028     1
   7021   7037     1
   7024   7046     1
   7024   7031     1
   7024   7040     1
   7027   7034     1
   7027   7043     1
   7028   7040     1
   7028   7035     1
   7028   7036     1
   7031   7037     1
   7037   7044     1
   7037   7045     1
   7047   7056     1
   7050   7057     1
   7050   7066     1
   7053   7060     1
   7053   7069     1
   7053   7075     1
   7056   7063     1
   7056   7072     1
   7057   7064     1
   7057   7065     1
   7057   7069     1
   7060   7066     1
   7066   7073     1
   7066   7074     1
   7076   7085     1
   7079   7086     1
   7079   7095     1
   7082   7104     1
   7082   7089     1
   7082   7098     1
   7085   7092     1
   7085   7101     1
   7086   7098     1
   7086   7093     1
   7086   7094     1
   7089   7095     1
   7095   7102     1
   7095   7103     1
   7105   7114     1
   7108   7115     1
   7108   7124     1
   7111   7118     1
   7111   7127     1
   7111   7133     1
   7114   7121     1
   7114   7130     1
   7115   7122     1
   7115   7123     1
   7115   7127     1
   7118   7124     1
   7124   7131     1
   7124   7132     1
   7134   7143     1
   7137   7144     1
   7137   7153     1
   7140   7162     1
   7140   7147     1
   7140   7156     1
   7143   7150     1
   7143   7159     1
   7144   7156     1
   7144   7151     1
   7144   7152     1
   7147   7153     1
   7153   7160     1
   7153   7161     1
   7163   7172     1
   7166   7173     1
   7166   7182     1
   7169   7176     1
   7169   7185     1
   7169   7191     1
   7172   7179     1
   7172   7188     1
   7173   7180     1
   7173   7181     1
   7173   7185     1
   7176   7182     1
   7182   7189     1
   7182   7190     1
   7192   7201     1
   7195   7202     1
   7195   7211     1
   7198   7220     1
   7198   7205     1
   7198   7214     1
   7201   7208     1
   7201   7217     1
   7202   7214     1
   7202   7209     1
   7202   7210     1
   7205   7211     1
   7211   7218     1
   7211   7219     1
   7221   7230     1
   7224   7231     1
   7224   7240     1
   7227   7234     1
   7227   7243     1
   7227   7249     1
   7230   7237     1
   7230   7246     1
   7231   7238     1
   7231   7239     1
   7231   7243     1
   7234   7240     1
   7240   7247     1
   7240   7248     1
   7250   7259     1
   7253   7260     1
   7253   7269     1
   7256   7278     1
   7256   7263     1
   7256   7272     1
   7259   7266     1
   7259   7275     1
   7260   7272     1
   7260   7267     1
   7260   7268     1
   7263   7269     1
   7269   7276     1
   7269   7277     1
   7279   7288     1
   7282   7289     1
   7282   7298     1
   7285   7292     1
   7285   7301     1
   7285   7307     1
   7288   7295     1
   7288   7304     1
   7289   7296     1
   7289   7297     1
   7289   7301     1
   7292   7298     1
   7298   7305     1
   7298   7306     1
   7308   7317     1
   7311   7318     1
   7311   7327     1
   7314   7336     1
   7314   7321     1
   7314   7330     1
   7317   7324     1
   7317   7333     1
   7318   7330     1
   7318   7325     1
   7318   7326     1
   7321   7327     1
   7327   7334     1
   7327   7335     1
   7337   7346     1
   7340   7347     1
   7340   7356     1
   7343   7350     1
   7343   7359     1
   7343   7365     1
   7346   7353     1
   7346   7362     1
   7347   7354     1
   7347   7355     1
   7347   7359     1
   7350   7356     1
   7356   7363     1
   7356   7364     1
      1      9     1
      1     10     1
      1     12     1
      1     13     1
      2      6     1
      2      7     1
      2     15     1
      2     16     1
      5      3     1
      3     14     1
      3      9     1
      3     10     1
      5      4     1
      4     14     1
      4      9     1
      4     10     1
      5     18     1
      5     19     1
      6     17     1
      6     12     1
      6     13     1
      7     17     1
      7     12     1
      7     13     1
      9     20     1
      9     15     1
      9     16     1
     10     20     1
     10     15     1
     10     16     1
     12     21     1
     12     18     1
     12     19     1
     13     21     1
     13     18     1
     13     19     1
     14     29     1
     14     30     1
     14     32     1
     14     33     1
     15     28     1
     15     31     1
     16     28     1
     16     31     1
     17     23     1
     17     24     1
     17     26     1
     17     27     1
     18     22     1
     18     25     1
     19     22     1
     19     25     1
     20     41     1
     20     42     1
     20     44     1
     20     45     1
     21     35     1
     21     36     1
     21     38     1
     21     39     1
     22     26     1
     22     27     1
     22     56     1
     22     57     1
     23     25     1
     23     55     1
     23     35     1
     23     36     1
     24     25     1
     24     55     1
     24     35     1
     24     36     1
     25     53     1
     25     54     1
     26     52     1
     26     38     1
     26     39     1
     27     52     1
     27     38     1
     27     39     1
     28     32     1
     28     33     1
     28     50     1
     28     51     1
     29     31     1
     29     49     1
     29     41     1
     29     42     1
     30     31     1
     30     49     1
     30     41     1
     30     42     1
     31     47     1
     31     48     1
     32     46     1
     32     44     1
     32     45     1
     33     46     1
     33     44     1
     33     45     1
     35    173     1
     35     56     1
     35     57     1
     36    173     1
     36     56     1
     36     57     1
     38    144     1
     38     53     1
     38     54     1
     39    144     1
     39     53     1
     39     54     1
     41    115     1
     41     50     1
     41     51     1
     42    115     1
     42     50     1
     42     51     1
     44     86     1
     44     47     1
     44     48     1
     45     86     1
     45     47     1
     45     48     1
     46     78     1
     46     79     1
     47     77     1
     48     77     1
     49    107     1
     49    108     1
     50    106     1
     51    106     1
     52    136     1
     52    137     1
     53    135     1
     54    135     1
     55    165     1
     55    166     1
     56    164     1
     57    164     1
     58     72     1
     58     73     1
     58     75     1
     58     76     1
     58     69     1
     58     70     1
     59     63     1
     59     64     1
     59     66     1
     59     67     1
     59     84     1
     59     85     1
     60     62     1
     60     65     1
     60     83     1
     60     72     1
     60     73     1
     61     62     1
     61     65     1
     61     83     1
     61     72     1
     61     73     1
     62     66     1
     62     67     1
     62     81     1
     62     82     1
     63     65     1
     63     80     1
     63     75     1
     63     76     1
     64     65     1
     64     80     1
     64     75     1
     64     76     1
     65     78     1
     65     79     1
     66     77     1
     66     69     1
     66     70     1
     67     77     1
     67     69     1
     67     70     1
     69     86     1
     69     78     1
     69     79     1
     70     86     1
     70     78     1
     70     79     1
     72    231     1
     72     84     1
     72     85     1
     73    231     1
     73     84     1
     73     85     1
     75    202     1
     75     81     1
     75     82     1
     76    202     1
     76     81     1
     76     82     1
     80    194     1
     80    195     1
     81    193     1
     82    193     1
     83    223     1
     83    224     1
     84    222     1
     85    222     1
     87    101     1
     87    102     1
     87    104     1
     87    105     1
     87     98     1
     87     99     1
     88     92     1
     88     93     1
     88     95     1
     88     96     1
     88    113     1
     88    114     1
     89     91     1
     89     94     1
     89    112     1
     89    101     1
     89    102     1
     90     91     1
     90     94     1
     90    112     1
     90    101     1
     90    102     1
     91     95     1
     91     96     1
     91    110     1
     91    111     1
     92     94     1
     92    109     1
     92    104     1
     92    105     1
     93     94     1
     93    109     1
     93    104     1
     93    105     1
     94    107     1
     94    108     1
     95    106     1
     95     98     1
     95     99     1
     96    106     1
     96     98     1
     96     99     1
     98    115     1
     98    107     1
     98    108     1
     99    115     1
     99    107     1
     99    108     1
    101    289     1
    101    113     1
    101    114     1
    102    289     1
    102    113     1
    102    114     1
    104    260     1
    104    110     1
    104    111     1
    105    260     1
    105    110     1
    105    111     1
    109    252     1
    109    253     1
    110    251     1
    111    251     1
    112    281     1
    112    282     1
    113    280     1
    114    280     1
    116    130     1
    116    131     1
    116    133     1
    116    134     1
    116    127     1
    116    128     1
    117    121     1
    117    122     1
    117    124     1
    117    125     1
    117    142     1
    117    143     1
    118    120     1
    118    123     1
    118    141     1
    118    130     1
    118    131     1
    119    120     1
    119    123     1
    119    141     1
    119    130     1
    119    131     1
    120    124     1
    120    125     1
    120    139     1
    120    140     1
    121    123     1
    121    138     1
    121    133     1
    121    134     1
    122    123     1
    122    138     1
    122    133     1
    122    134     1
    123    136     1
    123    137     1
    124    135     1
    124    127     1
    124    128     1
    125    135     1
    125    127     1
    125    128     1
    127    144     1
    127    136     1
    127    137     1
    128    144     1
    128    136     1
    128    137     1
    130    347     1
    130    142     1
    130    143     1
    131    347     1
    131    142     1
    131    143     1
    133    318     1
    133    139     1
    133    140     1
    134    318     1
    134    139     1
    134    140     1
    138    310     1
    138    311     1
    139    309     1
    140    309     1
    141    339     1
    141    340     1
    142    338     1
    143    338     1
    145    159     1
    145    160     1
    145    162     1
    145    163     1
    145    156     1
    145    157     1
    146    150     1
    146    151     1
    146    153     1
    146    154     1
    146    171     1
    146    172     1
    147    149     1
    147    152     1
    147    170     1
    147    159     1
    147    160     1
    148    149     1
    148    152     1
    148    170     1
    148    159     1
    148    160     1
    149    153     1
    149    154     1
    149    168     1
    149    169     1
    150    152     1
    150    167     1
    150    162     1
    150    163     1
    151    152     1
    151    167     1
    151    162     1
    151    163     1
    152    165     1
    152    166     1
    153    164     1
    153    156     1
    153    157     1
    154    164     1
    154    156     1
    154    157     1
    156    173     1
    156    165     1
    156    166     1
    157    173     1
    157    165     1
    157    166     1
    159    405     1
    159    171     1
    159    172     1
    160    405     1
    160    171     1
    160    172     1
    162    376     1
    162    168     1
    162    169     1
    163    376     1
    163    168     1
    163    169     1
    167    368     1
    167    369     1
    168    367     1
    169    367     1
    170    397     1
    170    398     1
    171    396     1
    172    396     1
    174    188     1
    174    189     1
    174    191     1
    174    192     1
    174    185     1
    174    186     1
    175    179     1
    175    180     1
    175    182     1
    175    183     1
    175    200     1
    175    201     1
    176    178     1
    176    181     1
    176    199     1
    176    188     1
    176    189     1
    177    178     1
    177    181     1
    177    199     1
    177    188     1
    177    189     1
    178    182     1
    178    183     1
    178    197     1
    178    198     1
    179    181     1
    179    196     1
    179    191     1
    179    192     1
    180    181     1
    180    196     1
    180    191     1
    180    192     1
    181    194     1
    181    195     1
    182    193     1
    182    185     1
    182    186     1
    183    193     1
    183    185     1
    183    186     1
    185    202     1
    185    194     1
    185    195     1
    186    202     1
    186    194     1
    186    195     1
    188    463     1
    188    200     1
    188    201     1
    189    463     1
    189    200     1
    189    201     1
    191    434     1
    191    197     1
    191    198     1
    192    434     1
    192    197     1
    192    198     1
    196    426     1
    196    427     1
    197    425     1
    198    425     1
    199    455     1
    199    456     1
    200    454     1
    201    454     1
    203    217     1
    203    218     1
    203    220     1
    203    221     1
    203    214     1
    203    215     1
    204    208     1
    204    209     1
    204    211     1
    204    212     1
    204    229     1
    204    230     1
    205    207     1
    205    210     1
    205    228     1
    205    217     1
    205    218     1
    206    207     1
    206    210     1
    206    228     1
    206    217     1
    206    218     1
    207    211     1
    207    212     1
    207    226     1
    207    227     1
    208    210     1
    208    225     1
    208    220     1
    208    221     1
    209    210     1
    209    225     1
    209    220     1
    209    221     1
    210    223     1
    210    224     1
    211    222     1
    211    214     1
    211    215     1
    212    222     1
    212    214     1
    212    215     1
    214    231     1
    214    223     1
    214    224     1
    215    231     1
    215    223     1
    215    224     1
    217    521     1
    217    229     1
    217    230     1
    218    521     1
    218    229     1
    218    230     1
    220    492     1
    220    226     1
    220    227     1
    221    492     1
    221    226     1
    221    227     1
    225    484     1
    225    485     1
    226    483     1
    227    483     1
    228    513     1
    228    514     1
    229    512     1
    230    512     1
    232    246     1
    232    247     1
    232    249     1
    232    250     1
    232    243     1
    232    244     1
    233    237     1
    233    238     1
    233    240     1
    233    241     1
    233    258     1
    233    259     1
    234    236     1
    234    239     1
    234    257     1
    234    246     1
    234    247     1
    235    236     1
    235    239     1
    235    257     1
    235    246     1
    235    247     1
    236    240     1
    236    241     1
    236    255     1
    236    256     1
    237    239     1
    237    254     1
    237    249     1
    237    250     1
    238    239     1
    238    254     1
    238    249     1
    238    250     1
    239    252     1
    239    253     1
    240    251     1
    240    243     1
    240    244     1
    241    251     1
    241    243     1
    241    244     1
    243    260     1
    243    252     1
    243    253     1
    244    260     1
    244    252     1
    244    253     1
    246    579     1
    246    258     1
    246    259     1
    247    579     1
    247    258     1
    247    259     1
    249    550     1
    249    255     1
    249    256     1
    250    550     1
    250    255     1
    250    256     1
    254    542     1
    254    543     1
    255    541     1
    256    541     1
    257    571     1
    257    572     1
    258    570     1
    259    570     1
    261    275     1
    261    276     1
    261    278     1
    261    279     1
    261    272     1
    261    273     1
    262    266     1
    262    267     1
    262    269     1
    262    270     1
    262    287     1
    262    288     1
    263    265     1
    263    268     1
    263    286     1
    263    275     1
    263    276     1
    264    265     1
    264    268     1
    264    286     1
    264    275     1
    264    276     1
    265    269     1
    265    270     1
    265    284     1
    265    285     1
    266    268     1
    266    283     1
    266    278     1
    266    279     1
    267    268     1
    267    283     1
    267    278     1
    267    279     1
    268    281     1
    268    282     1
    269    280     1
    269    272     1
    269    273     1
    270    280     1
    270    272     1
    270    273     1
    272    289     1
    272    281     1
    272    282     1
    273    289     1
    273    281     1
    273    282     1
    275    637     1
    275    287     1
    275    288     1
    276    637     1
    276    287     1
    276    288     1
    278    608     1
    278    284     1
    278    285     1
    279    608     1
    279    284     1
    279    285     1
    283    600     1
    283    601     1
    284    599     1
    285    599     1
    286    629     1
    286    630     1
    287    628     1
    288    628     1
    290    304     1
    290    305     1
    290    307     1
    290    308     1
    290    301     1
    290    302     1
    291    295     1
    291    296     1
    291    298     1
    291    299     1
    291    316     1
    291    317     1
    292    294     1
    292    297     1
    292    315     1
    292    304     1
    292    305     1
    293    294     1
    293    297     1
    293    315     1
    293    304     1
    293    305     1
    294    298     1
    294    299     1
    294    313     1
    294    314     1
    295    297     1
    295    312     1
    295    307     1
    295    308     1
    296    297     1
    296    312     1
    296    307     1
    296    308     1
    297    310     1
    297    311     1
    298    309     1
    298    301     1
    298    302     1
    299    309     1
    299    301     1
    299    302     1
    301    318     1
    301    310     1
    301    311     1
    302    318     1
    302    310     1
    302    311     1
    304    695     1
    304    316     1
    304    317     1
    305    695     1
    305    316     1
    305    317     1
    307    666     1
    307    313     1
    307    314     1
    308    666     1
    308    313     1
    308    314     1
    312    658     1
    312    659     1
    313    657     1
    314    657     1
    315    687     1
    315    688     1
    316    686     1
    317    686     1
    319    333     1
    319    334     1
    319    336     1
    319    337     1
    319    330     1
    319    331     1
    320    324     1
    320    325     1
    320    327     1
    320    328     1
    320    345     1
    320    346     1
    321    323     1
    321    326     1
    321    344     1
    321    333     1
    321    334     1
    322    323     1
    322    326     1
    322    344     1
    322    333     1
    322    334     1
    323    327     1
    323    328     1
    323    342     1
    323    343     1
    324    326     1
    324    341     1
    324    336     1
    324    337     1
    325    326     1
    325    341     1
    325    336     1
    325    337     1
    326    339     1
    326    340     1
    327    338     1
    327    330     1
    327    331     1
    328    338     1
    328    330     1
    328    331     1
    330    347     1
    330    339     1
    330    340     1
    331    347     1
    331    339     1
    331    340     1
    333    753     1
    333    345     1
    333    346     1
    334    753     1
    334    345     1
    334    346     1
    336    724     1
    336    342     1
    336    343     1
    337    724     1
    337    342     1
    337    343     1
    341    716     1
    341    717     1
    342    715     1
    343    715     1
    344    745     1
    344    746     1
    345    744     1
    346    744     1
    348    362     1
    348    363     1
    348    365     1
    348    366     1
    348    359     1
    348    360     1
    349    353     1
    349    354     1
    349    356     1
    349    357     1
    349    374     1
    349    375     1
    350    352     1
    350    355     1
    350    373     1
    350    362     1
    350    363     1
    351    352     1
    351    355     1
    351    373     1
    351    362     1
    351    363     1
    352    356     1
    352    357     1
    352    371     1
    352    372     1
    353    355     1
    353    370     1
    353    365     1
    353    366     1
    354    355     1
    354    370     1
    354    365     1
    354    366     1
    355    368     1
    355    369     1
    356    367     1
    356    359     1
    356    360     1
    357    367     1
    357    359     1
    357    360     1
    359    376     1
    359    368     1
    359    369     1
    360    376     1
    360    368     1
    360    369     1
    362    811     1
    362    374     1
    362    375     1
    363    811     1
    363    374     1
    363    375     1
    365    782     1
    365    371     1
    365    372     1
    366    782     1
    366    371     1
    366    372     1
    370    774     1
    370    775     1
    371    773     1
    372    773     1
    373    803     1
    373    804     1
    374    802     1
    375    802     1
    377    391     1
    377    392     1
    377    394     1
    377    395     1
    377    388     1
    377    389     1
    378    382     1
    378    383     1
    378    385     1
    378    386     1
    378    403     1
    378    404     1
    379    381     1
    379    384     1
    379    402     1
    379    391     1
    379    392     1
    380    381     1
    380    384     1
    380    402     1
    380    391     1
    380    392     1
    381    385     1
    381    386     1
    381    400     1
    381    401     1
    382    384     1
    382    399     1
    382    394     1
    382    395     1
    383    384     1
    383    399     1
    383    394     1
    383    395     1
    384    397     1
    384    398     1
    385    396     1
    385    388     1
    385    389     1
    386    396     1
    386    388     1
    386    389     1
    388    405     1
    388    397     1
    388    398     1
    389    405     1
    389    397     1
    389    398     1
    391    869     1
    391    403     1
    391    404     1
    392    869     1
    392    403     1
    392    404     1
    394    840     1
    394    400     1
    394    401     1
    395    840     1
    395    400     1
    395    401     1
    399    832     1
    399    833     1
    400    831     1
    401    831     1
    402    861     1
    402    862     1
    403    860     1
    404    860     1
    406    420     1
    406    421     1
    406    423     1
    406    424     1
    406    417     1
    406    418     1
    407    411     1
    407    412     1
    407    414     1
    407    415     1
    407    432     1
    407    433     1
    408    410     1
    408    413     1
    408    431     1
    408    420     1
    408    421     1
    409    410     1
    409    413     1
    409    431     1
    409    420     1
    409    421     1
    410    414     1
    410    415     1
    410    429     1
    410    430     1
    411    413     1
    411    428     1
    411    423     1
    411    424     1
    412    413     1
    412    428     1
    412    423     1
    412    424     1
    413    426     1
    413    427     1
    414    425     1
    414    417     1
    414    418     1
    415    425     1
    415    417     1
    415    418     1
    417    434     1
    417    426     1
    417    427     1
    418    434     1
    418    426     1
    418    427     1
    420    927     1
    420    432     1
    420    433     1
    421    927     1
    421    432     1
    421    433     1
    423    898     1
    423    429     1
    423    430     1
    424    898     1
    424    429     1
    424    430     1
    428    890     1
    428    891     1
    429    889     1
    430    889     1
    431    919     1
    431    920     1
    432    918     1
    433    918     1
    435    449     1
    435    450     1
    435    452     1
    435    453     1
    435    446     1
    435    447     1
    436    440     1
    436    441     1
    436    443     1
    436    444     1
    436    461     1
    436    462     1
    437    439     1
    437    442     1
    437    460     1
    437    449     1
    437    450     1
    438    439     1
    438    442     1
    438    460     1
    438    449     1
    438    450     1
    439    443     1
    439    444     1
    439    458     1
    439    459     1
    440    442     1
    440    457     1
    440    452     1
    440    453     1
    441    442     1
    441    457     1
    441    452     1
    441    453     1
    442    455     1
    442    456     1
    443    454     1
    443    446     1
    443    447     1
    444    454     1
    444    446     1
    444    447     1
    446    463     1
    446    455     1
    446    456     1
    447    463     1
    447    455     1
    447    456     1
    449    985     1
    449    461     1
    449    462     1
    450    985     1
    450    461     1
    450    462     1
    452    956     1
    452    458     1
    452    459     1
    453    956     1
    453    458     1
    453    459     1
    457    948     1
    457    949     1
    458    947     1
    459    947     1
    460    977     1
    460    978     1
    461    976     1
    462    976     1
    464    478     1
    464    479     1
    464    481     1
    464    482     1
    464    475     1
    464    476     1
    465    469     1
    465    470     1
    465    472     1
    465    473     1
    465    490     1
    465    491     1
    466    468     1
    466    471     1
    466    489     1
    466    478     1
    466    479     1
    467    468     1
    467    471     1
    467    489     1
    467    478     1
    467    479     1
    468    472     1
    468    473     1
    468    487     1
    468    488     1
    469    471     1
    469    486     1
    469    481     1
    469    482     1
    470    471     1
    470    486     1
    470    481     1
    470    482     1
    471    484     1
    471    485     1
    472    483     1
    472    475     1
    472    476     1
    473    483     1
    473    475     1
    473    476     1
    475    492     1
    475    484     1
    475    485     1
    476    492     1
    476    484     1
    476    485     1
    478   1043     1
    478    490     1
    478    491     1
    479   1043     1
    479    490     1
    479    491     1
    481   1014     1
    481    487     1
    481    488     1
    482   1014     1
    482    487     1
    482    488     1
    486   1006     1
    486   1007     1
    487   1005     1
    488   1005     1
    489   1035     1
    489   1036     1
    490   1034     1
    491   1034     1
    493    507     1
    493    508     1
    493    510     1
    493    511     1
    493    504     1
    493    505     1
    494    498     1
    494    499     1
    494    501     1
    494    502     1
    494    519     1
    494    520     1
    495    497     1
    495    500     1
    495    518     1
    495    507     1
    495    508     1
    496    497     1
    496    500     1
    496    518     1
    496    507     1
    496    508     1
    497    501     1
    497    502     1
    497    516     1
    497    517     1
    498    500     1
    498    515     1
    498    510     1
    498    511     1
    499    500     1
    499    515     1
    499    510     1
    499    511     1
    500    513     1
    500    514     1
    501    512     1
    501    504     1
    501    505     1
    502    512     1
    502    504     1
    502    505     1
    504    521     1
    504    513     1
    504    514     1
    505    521     1
    505    513     1
    505    514     1
    507   1101     1
    507    519     1
    507    520     1
    508   1101     1
    508    519     1
    508    520     1
    510   1072     1
    510    516     1
    510    517     1
    511   1072     1
    511    516     1
    511    517     1
    515   1064     1
    515   1065     1
    516   1063     1
    517   1063     1
    518   1093     1
    518   1094     1
    519   1092     1
    520   1092     1
    522    536     1
    522    537     1
    522    539     1
    522    540     1
    522    533     1
    522    534     1
    523    527     1
    523    528     1
    523    530     1
    523    531     1
    523    548     1
    523    549     1
    524    526     1
    524    529     1
    524    547     1
    524    536     1
    524    537     1
    525    526     1
    525    529     1
    525    547     1
    525    536     1
    525    537     1
    526    530     1
    526    531     1
    526    545     1
    526    546     1
    527    529     1
    527    544     1
    527    539     1
    527    540     1
    528    529     1
    528    544     1
    528    539     1
    528    540     1
    529    542     1
    529    543     1
    530    541     1
    530    533     1
    530    534     1
    531    541     1
    531    533     1
    531    534     1
    533    550     1
    533    542     1
    533    543     1
    534    550     1
    534    542     1
    534    543     1
    536   1159     1
    536    548     1
    536    549     1
    537   1159     1
    537    548     1
    537    549     1
    539   1130     1
    539    545     1
    539    546     1
    540   1130     1
    540    545     1
    540    546     1
    544   1122     1
    544   1123     1
    545   1121     1
    546   1121     1
    547   1151     1
    547   1152     1
    548   1150     1
    549   1150     1
    551    565     1
    551    566     1
    551    568     1
    551    569     1
    551    562     1
    551    563     1
    552    556     1
    552    557     1
    552    559     1
    552    560     1
    552    577     1
    552    578     1
    553    555     1
    553    558     1
    553    576     1
    553    565     1
    553    566     1
    554    555     1
    554    558     1
    554    576     1
    554    565     1
    554    566     1
    555    559     1
    555    560     1
    555    574     1
    555    575     1
    556    558     1
    556    573     1
    556    568     1
    556    569     1
    557    558     1
    557    573     1
    557    568     1
    557    569     1
    558    571     1
    558    572     1
    559    570     1
    559    562     1
    559    563     1
    560    570     1
    560    562     1
    560    563     1
    562    579     1
    562    571     1
    562    572     1
    563    579     1
    563    571     1
    563    572     1
    565   1217     1
    565    577     1
    565    578     1
    566   1217     1
    566    577     1
    566    578     1
    568   1188     1
    568    574     1
    568    575     1
    569   1188     1
    569    574     1
    569    575     1
    573   1180     1
    573   1181     1
    574   1179     1
    575   1179     1
    576   1209     1
    576   1210     1
    577   1208     1
    578   1208     1
    580    594     1
    580    595     1
    580    597     1
    580    598     1
    580    591     1
    580    592     1
    581    585     1
    581    586     1
    581    588     1
    581    589     1
    581    606     1
    581    607     1
    582    584     1
    582    587     1
    582    605     1
    582    594     1
    582    595     1
    583    584     1
    583    587     1
    583    605     1
    583    594     1
    583    595     1
    584    588     1
    584    589     1
    584    603     1
    584    604     1
    585    587     1
    585    602     1
    585    597     1
    585    598     1
    586    587     1
    586    602     1
    586    597     1
    586    598     1
    587    600     1
    587    601     1
    588    599     1
    588    591     1
    588    592     1
    589    599     1
    589    591     1
    589    592     1
    591    608     1
    591    600     1
    591    601     1
    592    608     1
    592    600     1
    592    601     1
    594   1275     1
    594    606     1
    594    607     1
    595   1275     1
    595    606     1
    595    607     1
    597   1246     1
    597    603     1
    597    604     1
    598   1246     1
    598    603     1
    598    604     1
    602   1238     1
    602   1239     1
    603   1237     1
    604   1237     1
    605   1267     1
    605   1268     1
    606   1266     1
    607   1266     1
    609    623     1
    609    624     1
    609    626     1
    609    627     1
    609    620     1
    609    621     1
    610    614     1
    610    615     1
    610    617     1
    610    618     1
    610    635     1
    610    636     1
    611    613     1
    611    616     1
    611    634     1
    611    623     1
    611    624     1
    612    613     1
    612    616     1
    612    634     1
    612    623     1
    612    624     1
    613    617     1
    613    618     1
    613    632     1
    613    633     1
    614    616     1
    614    631     1
    614    626     1
    614    627     1
    615    616     1
    615    631     1
    615    626     1
    615    627     1
    616    629     1
    616    630     1
    617    628     1
    617    620     1
    617    621     1
    618    628     1
    618    620     1
    618    621     1
    620    637     1
    620    629     1
    620    630     1
    621    637     1
    621    629     1
    621    630     1
    623   1333     1
    623    635     1
    623    636     1
    624   1333     1
    624    635     1
    624    636     1
    626   1304     1
    626    632     1
    626    633     1
    627   1304     1
    627    632     1
    627    633     1
    631   1296     1
    631   1297     1
    632   1295     1
    633   1295     1
    634   1325     1
    634   1326     1
    635   1324     1
    636   1324     1
    638    652     1
    638    653     1
    638    655     1
    638    656     1
    638    649     1
    638    650     1
    639    643     1
    639    644     1
    639    646     1
    639    647     1
    639    664     1
    639    665     1
    640    642     1
    640    645     1
    640    663     1
    640    652     1
    640    653     1
    641    642     1
    641    645     1
    641    663     1
    641    652     1
    641    653     1
    642    646     1
    642    647     1
    642    661     1
    642    662     1
    643    645     1
    643    660     1
    643    655     1
    643    656     1
    644    645     1
    644    660     1
    644    655     1
    644    656     1
    645    658     1
    645    659     1
    646    657     1
    646    649     1
    646    650     1
    647    657     1
    647    649     1
    647    650     1
    649    666     1
    649    658     1
    649    659     1
    650    666     1
    650    658     1
    650    659     1
    652   1391     1
    652    664     1
    652    665     1
    653   1391     1
    653    664     1
    653    665     1
    655   1362     1
    655    661     1
    655    662     1
    656   1362     1
    656    661     1
    656    662     1
    660   1354     1
    660   1355     1
    661   1353     1
    662   1353     1
    663   1383     1
    663   1384     1
    664   1382     1
    665   1382     1
    667    681     1
    667    682     1
    667    684     1
    667    685     1
    667    678     1
    667    679     1
    668    672     1
    668    673     1
    668    675     1
    668    676     1
    668    693     1
    668    694     1
    669    671     1
    669    674     1
    669    692     1
    669    681     1
    669    682     1
    670    671     1
    670    674     1
    670    692     1
    670    681     1
    670    682     1
    671    675     1
    671    676     1
    671    690     1
    671    691     1
    672    674     1
    672    689     1
    672    684     1
    672    685     1
    673    674     1
    673    689     1
    673    684     1
    673    685     1
    674    687     1
    674    688     1
    675    686     1
    675    678     1
    675    679     1
    676    686     1
    676    678     1
    676    679     1
    678    695     1
    678    687     1
    678    688     1
    679    695     1
    679    687     1
    679    688     1
    681   1449     1
    681    693     1
    681    694     1
    682   1449     1
    682    693     1
    682    694     1
    684   1420     1
    684    690     1
    684    691     1
    685   1420     1
    685    690     1
    685    691     1
    689   1412     1
    689   1413     1
    690   1411     1
    691   1411     1
    692   1441     1
    692   1442     1
    693   1440     1
    694   1440     1
    696    710     1
    696    711     1
    696    713     1
    696    714     1
    696    707     1
    696    708     1
    697    701     1
    697    702     1
    697    704     1
    697    705     1
    697    722     1
    697    723     1
    698    700     1
    698    703     1
    698    721     1
    698    710     1
    698    711     1
    699    700     1
    699    703     1
    699    721     1
    699    710     1
    699    711     1
    700    704     1
    700    705     1
    700    719     1
    700    720     1
    701    703     1
    701    718     1
    701    713     1
    701    714     1
    702    703     1
    702    718     1
    702    713     1
    702    714     1
    703    716     1
    703    717     1
    704    715     1
    704    707     1
    704    708     1
    705    715     1
    705    707     1
    705    708     1
    707    724     1
    707    716     1
    707    717     1
    708    724     1
    708    716     1
    708    717     1
    710   1507     1
    710    722     1
    710    723     1
    711   1507     1
    711    722     1
    711    723     1
    713   1478     1
    713    719     1
    713    720     1
    714   1478     1
    714    719     1
    714    720     1
    718   1470     1
    718   1471     1
    719   1469     1
    720   1469     1
    721   1499     1
    721   1500     1
    722   1498     1
    723   1498     1
    725    739     1
    725    740     1
    725    742     1
    725    743     1
    725    736     1
    725    737     1
    726    730     1
    726    731     1
    726    733     1
    726    734     1
    726    751     1
    726    752     1
    727    729     1
    727    732     1
    727    750     1
    727    739     1
    727    740     1
    728    729     1
    728    732     1
    728    750     1
    728    739     1
    728    740     1
    729    733     1
    729    734     1
    729    748     1
    729    749     1
    730    732     1
    730    747     1
    730    742     1
    730    743     1
    731    732     1
    731    747     1
    731    742     1
    731    743     1
    732    745     1
    732    746     1
    733    744     1
    733    736     1
    733    737     1
    734    744     1
    734    736     1
    734    737     1
    736    753     1
    736    745     1
    736    746     1
    737    753     1
    737    745     1
    737    746     1
    739   1565     1
    739    751     1
    739    752     1
    740   1565     1
    740    751     1
    740    752     1
    742   1536     1
    742    748     1
    742    749     1
    743   1536     1
    743    748     1
    743    749     1
    747   1528     1
    747   1529     1
    748   1527     1
    749   1527     1
    750   1557     1
    750   1558     1
    751   1556     1
    752   1556     1
    754    768     1
    754    769     1
    754    771     1
    754    772     1
    754    765     1
    754    766     1
    755    759     1
    755    760     1
    755    762     1
    755    763     1
    755    780     1
    755    781     1
    756    758     1
    756    761     1
    756    779     1
    756    768     1
    756    769     1
    757    758     1
    757    761     1
    757    779     1
    757    768     1
    757    769     1
    758    762     1
    758    763     1
    758    777     1
    758    778     1
    759    761     1
    759    776     1
    759    771     1
    759    772     1
    760    761     1
    760    776     1
    760    771     1
    760    772     1
    761    774     1
    761    775     1
    762    773     1
    762    765     1
    762    766     1
    763    773     1
    763    765     1
    763    766     1
    765    782     1
    765    774     1
    765    775     1
    766    782     1
    766    774     1
    766    775     1
    768   1623     1
    768    780     1
    768    781     1
    769   1623     1
    769    780     1
    769    781     1
    771   1594     1
    771    777     1
    771    778     1
    772   1594     1
    772    777     1
    772    778     1
    776   1586     1
    776   1587     1
    777   1585     1
    778   1585     1
    779   1615     1
    779   1616     1
    780   1614     1
    781   1614     1
    783    797     1
    783    798     1
    783    800     1
    783    801     1
    783    794     1
    783    795     1
    784    788     1
    784    789     1
    784    791     1
    784    792     1
    784    809     1
    784    810     1
    785    787     1
    785    790     1
    785    808     1
    785    797     1
    785    798     1
    786    787     1
    786    790     1
    786    808     1
    786    797     1
    786    798     1
    787    791     1
    787    792     1
    787    806     1
    787    807     1
    788    790     1
    788    805     1
    788    800     1
    788    801     1
    789    790     1
    789    805     1
    789    800     1
    789    801     1
    790    803     1
    790    804     1
    791    802     1
    791    794     1
    791    795     1
    792    802     1
    792    794     1
    792    795     1
    794    811     1
    794    803     1
    794    804     1
    795    811     1
    795    803     1
    795    804     1
    797   1681     1
    797    809     1
    797    810     1
    798   1681     1
    798    809     1
    798    810     1
    800   1652     1
    800    806     1
    800    807     1
    801   1652     1
    801    806     1
    801    807     1
    805   1644     1
    805   1645     1
    806   1643     1
    807   1643     1
    808   1673     1
    808   1674     1
    809   1672     1
    810   1672     1
    812    826     1
    812    827     1
    812    829     1
    812    830     1
    812    823     1
    812    824     1
    813    817     1
    813    818     1
    813    820     1
    813    821     1
    813    838     1
    813    839     1
    814    816     1
    814    819     1
    814    837     1
    814    826     1
    814    827     1
    815    816     1
    815    819     1
    815    837     1
    815    826     1
    815    827     1
    816    820     1
    816    821     1
    816    835     1
    816    836     1
    817    819     1
    817    834     1
    817    829     1
    817    830     1
    818    819     1
    818    834     1
    818    829     1
    818    830     1
    819    832     1
    819    833     1
    820    831     1
    820    823     1
    820    824     1
    821    831     1
    821    823     1
    821    824     1
    823    840     1
    823    832     1
    823    833     1
    824    840     1
    824    832     1
    824    833     1
    826   1739     1
    826    838     1
    826    839     1
    827   1739     1
    827    838     1
    827    839     1
    829   1710     1
    829    835     1
    829    836     1
    830   1710     1
    830    835     1
    830    836     1
    834   1702     1
    834   1703     1
    835   1701     1
    836   1701     1
    837   1731     1
    837   1732     1
    838   1730     1
    839   1730     1
    841    855     1
    841    856     1
    841    858     1
    841    859     1
    841    852     1
    841    853     1
    842    846     1
    842    847     1
    842    849     1
    842    850     1
    842    867     1
    842    868     1
    843    845     1
    843    848     1
    843    866     1
    843    855     1
    843    856     1
    844    845     1
    844    848     1
    844    866     1
    844    855     1
    844    856     1
    845    849     1
    845    850     1
    845    864     1
    845    865     1
    846    848     1
    846    863     1
    846    858     1
    846    859     1
    847    848     1
    847    863     1
    847    858     1
    847    859     1
    848    861     1
    848    862     1
    849    860     1
    849    852     1
    849    853     1
    850    860     1
    850    852     1
    850    853     1
    852    869     1
    852    861     1
    852    862     1
    853    869     1
    853    861     1
    853    862     1
    855   1797     1
    855    867     1
    855    868     1
    856   1797     1
    856    867     1
    856    868     1
    858   1768     1
    858    864     1
    858    865     1
    859   1768     1
    859    864     1
    859    865     1
    863   1760     1
    863   1761     1
    864   1759     1
    865   1759     1
    866   1789     1
    866   1790     1
    867   1788     1
    868   1788     1
    870    884     1
    870    885     1
    870    887     1
    870    888     1
    870    881     1
    870    882     1
    871    875     1
    871    876     1
    871    878     1
    871    879     1
    871    896     1
    871    897     1
    872    874     1
    872    877     1
    872    895     1
    872    884     1
    872    885     1
    873    874     1
    873    877     1
    873    895     1
    873    884     1
    873    885     1
    874    878     1
    874    879     1
    874    893     1
    874    894     1
    875    877     1
    875    892     1
    875    887     1
    875    888     1
    876    877     1
    876    892     1
    876    887     1
    876    888     1
    877    890     1
    877    891     1
    878    889     1
    878    881     1
    878    882     1
    879    889     1
    879    881     1
    879    882     1
    881    898     1
    881    890     1
    881    891     1
    882    898     1
    882    890     1
    882    891     1
    884   1855     1
    884    896     1
    884    897     1
    885   1855     1
    885    896     1
    885    897     1
    887   1826     1
    887    893     1
    887    894     1
    888   1826     1
    888    893     1
    888    894     1
    892   1818     1
    892   1819     1
    893   1817     1
    894   1817     1
    895   1847     1
    895   1848     1
    896   1846     1
    897   1846     1
    899    913     1
    899    914     1
    899    916     1
    899    917     1
    899    910     1
    899    911     1
    900    904     1
    900    905     1
    900    907     1
    900    908     1
    900    925     1
    900    926     1
    901    903     1
    901    906     1
    901    924     1
    901    913     1
    901    914     1
    902    903     1
    902    906     1
    902    924     1
    902    913     1
    902    914     1
    903    907     1
    903    908     1
    903    922     1
    903    923     1
    904    906     1
    904    921     1
    904    916     1
    904    917     1
    905    906     1
    905    921     1
    905    916     1
    905    917     1
    906    919     1
    906    920     1
    907    918     1
    907    910     1
    907    911     1
    908    918     1
    908    910     1
    908    911     1
    910    927     1
    910    919     1
    910    920     1
    911    927     1
    911    919     1
    911    920     1
    913   1913     1
    913    925     1
    913    926     1
    914   1913     1
    914    925     1
    914    926     1
    916   1884     1
    916    922     1
    916    923     1
    917   1884     1
    917    922     1
    917    923     1
    921   1876     1
    921   1877     1
    922   1875     1
    923   1875     1
    924   1905     1
    924   1906     1
    925   1904     1
    926   1904     1
    928    942     1
    928    943     1
    928    945     1
    928    946     1
    928    939     1
    928    940     1
    929    933     1
    929    934     1
    929    936     1
    929    937     1
    929    954     1
    929    955     1
    930    932     1
    930    935     1
    930    953     1
    930    942     1
    930    943     1
    931    932     1
    931    935     1
    931    953     1
    931    942     1
    931    943     1
    932    936     1
    932    937     1
    932    951     1
    932    952     1
    933    935     1
    933    950     1
    933    945     1
    933    946     1
    934    935     1
    934    950     1
    934    945     1
    934    946     1
    935    948     1
    935    949     1
    936    947     1
    936    939     1
    936    940     1
    937    947     1
    937    939     1
    937    940     1
    939    956     1
    939    948     1
    939    949     1
    940    956     1
    940    948     1
    940    949     1
    942   1971     1
    942    954     1
    942    955     1
    943   1971     1
    943    954     1
    943    955     1
    945   1942     1
    945    951     1
    945    952     1
    946   1942     1
    946    951     1
    946    952     1
    950   1934     1
    950   1935     1
    951   1933     1
    952   1933     1
    953   1963     1
    953   1964     1
    954   1962     1
    955   1962     1
    957    971     1
    957    972     1
    957    974     1
    957    975     1
    957    968     1
    957    969     1
    958    962     1
    958    963     1
    958    965     1
    958    966     1
    958    983     1
    958    984     1
    959    961     1
    959    964     1
    959    982     1
    959    971     1
    959    972     1
    960    961     1
    960    964     1
    960    982     1
    960    971     1
    960    972     1
    961    965     1
    961    966     1
    961    980     1
    961    981     1
    962    964     1
    962    979     1
    962    974     1
    962    975     1
    963    964     1
    963    979     1
    963    974     1
    963    975     1
    964    977     1
    964    978     1
    965    976     1
    965    968     1
    965    969     1
    966    976     1
    966    968     1
    966    969     1
    968    985     1
    968    977     1
    968    978     1
    969    985     1
    969    977     1
    969    978     1
    971   2029     1
    971    983     1
    971    984     1
    972   2029     1
    972    983     1
    972    984     1
    974   2000     1
    974    980     1
    974    981     1
    975   2000     1
    975    980     1
    975    981     1
    979   1992     1
    979   1993     1
    980   1991     1
    981   1991     1
    982   2021     1
    982   2022     1
    983   2020     1
    984   2020     1
    986   1000     1
    986   1001     1
    986   1003     1
    986   1004     1
    986    997     1
    986    998     1
    987    991     1
    987    992     1
    987    994     1
    987    995     1
    987   1012     1
    987   1013     1
    988    990     1
    988    993     1
    988   1011     1
    988   1000     1
    988   1001     1
    989    990     1
    989    993     1
    989   1011     1
    989   1000     1
    989   1001     1
    990    994     1
    990    995     1
    990   1009     1
    990   1010     1
    991    993     1
    991   1008     1
    991   1003     1
    991   1004     1
    992    993     1
    992   1008     1
    992   1003     1
    992   1004     1
    993   1006     1
    993   1007     1
    994   1005     1
    994    997     1
    994    998     1
    995   1005     1
    995    997     1
    995    998     1
    997   1014     1
    997   1006     1
    997   1007     1
    998   1014     1
    998   1006     1
    998   1007     1
   1000   2087     1
   1000   1012     1
   1000   1013     1
   1001   2087     1
   1001   1012     1
   1001   1013     1
   1003   2058     1
   1003   1009     1
   1003   1010     1
   1004   2058     1
   1004   1009     1
   1004   1010     1
   1008   2050     1
   1008   2051     1
   1009   2049     1
   1010   2049     1
   1011   2079     1
   1011   2080     1
   1012   2078     1
   1013   2078     1
   1015   1029     1
   1015   1030     1
   1015   1032     1
   1015   1033     1
   1015   1026     1
   1015   1027     1
   1016   1020     1
   1016   1021     1
   1016   1023     1
   1016   1024     1
   1016   1041     1
   1016   1042     1
   1017   1019     1
   1017   1022     1
   1017   1040     1
   1017   1029     1
   1017   1030     1
   1018   1019     1
   1018   1022     1
   1018   1040     1
   1018   1029     1
   1018   1030     1
   1019   1023     1
   1019   1024     1
   1019   1038     1
   1019   1039     1
   1020   1022     1
   1020   1037     1
   1020   1032     1
   1020   1033     1
   1021   1022     1
   1021   1037     1
   1021   1032     1
   1021   1033     1
   1022   1035     1
   1022   1036     1
   1023   1034     1
   1023   1026     1
   1023   1027     1
   1024   1034     1
   1024   1026     1
   1024   1027     1
   1026   1043     1
   1026   1035     1
   1026   1036     1
   1027   1043     1
   1027   1035     1
   1027   1036     1
   1029   2145     1
   1029   1041     1
   1029   1042     1
   1030   2145     1
   1030   1041     1
   1030   1042     1
   1032   2116     1
   1032   1038     1
   1032   1039     1
   1033   2116     1
   1033   1038     1
   1033   1039     1
   1037   2108     1
   1037   2109     1
   1038   2107     1
   1039   2107     1
   1040   2137     1
   1040   2138     1
   1041   2136     1
   1042   2136     1
   1044   1058     1
   1044   1059     1
   1044   1061     1
   1044   1062     1
   1044   1055     1
   1044   1056     1
   1045   1049     1
   1045   1050     1
   1045   1052     1
   1045   1053     1
   1045   1070     1
   1045   1071     1
   1046   1048     1
   1046   1051     1
   1046   1069     1
   1046   1058     1
   1046   1059     1
   1047   1048     1
   1047   1051     1
   1047   1069     1
   1047   1058     1
   1047   1059     1
   1048   1052     1
   1048   1053     1
   1048   1067     1
   1048   1068     1
   1049   1051     1
   1049   1066     1
   1049   1061     1
   1049   1062     1
   1050   1051     1
   1050   1066     1
   1050   1061     1
   1050   1062     1
   1051   1064     1
   1051   1065     1
   1052   1063     1
   1052   1055     1
   1052   1056     1
   1053   1063     1
   1053   1055     1
   1053   1056     1
   1055   1072     1
   1055   1064     1
   1055   1065     1
   1056   1072     1
   1056   1064     1
   1056   1065     1
   1058   2203     1
   1058   1070     1
   1058   1071     1
   1059   2203     1
   1059   1070     1
   1059   1071     1
   1061   2174     1
   1061   1067     1
   1061   1068     1
   1062   2174     1
   1062   1067     1
   1062   1068     1
   1066   2166     1
   1066   2167     1
   1067   2165     1
   1068   2165     1
   1069   2195     1
   1069   2196     1
   1070   2194     1
   1071   2194     1
   1073   1087     1
   1073   1088     1
   1073   1090     1
   1073   1091     1
   1073   1084     1
   1073   1085     1
   1074   1078     1
   1074   1079     1
   1074   1081     1
   1074   1082     1
   1074   1099     1
   1074   1100     1
   1075   1077     1
   1075   1080     1
   1075   1098     1
   1075   1087     1
   1075   1088     1
   1076   1077     1
   1076   1080     1
   1076   1098     1
   1076   1087     1
   1076   1088     1
   1077   1081     1
   1077   1082     1
   1077   1096     1
   1077   1097     1
   1078   1080     1
   1078   1095     1
   1078   1090     1
   1078   1091     1
   1079   1080     1
   1079   1095     1
   1079   1090     1
   1079   1091     1
   1080   1093     1
   1080   1094     1
   1081   1092     1
   1081   1084     1
   1081   1085     1
   1082   1092     1
   1082   1084     1
   1082   1085     1
   1084   1101     1
   1084   1093     1
   1084   1094     1
   1085   1101     1
   1085   1093     1
   1085   1094     1
   1087   2261     1
   1087   1099     1
   1087   1100     1
   1088   2261     1
   1088   1099     1
   1088   1100     1
   1090   2232     1
   1090   1096     1
   1090   1097     1
   1091   2232     1
   1091   1096     1
   1091   1097     1
   1095   2224     1
   1095   2225     1
   1096   2223     1
   1097   2223     1
   1098   2253     1
   1098   2254     1
   1099   2252     1
   1100   2252     1
   1102   1116     1
   1102   1117     1
   1102   1119     1
   1102   1120     1
   1102   1113     1
   1102   1114     1
   1103   1107     1
   1103   1108     1
   1103   1110     1
   1103   1111     1
   1103   1128     1
   1103   1129     1
   1104   1106     1
   1104   1109     1
   1104   1127     1
   1104   1116     1
   1104   1117     1
   1105   1106     1
   1105   1109     1
   1105   1127     1
   1105   1116     1
   1105   1117     1
   1106   1110     1
   1106   1111     1
   1106   1125     1
   1106   1126     1
   1107   1109     1
   1107   1124     1
   1107   1119     1
   1107   1120     1
   1108   1109     1
   1108   1124     1
   1108   1119     1
   1108   1120     1
   1109   1122     1
   1109   1123     1
   1110   1121     1
   1110   1113     1
   1110   1114     1
   1111   1121     1
   1111   1113     1
   1111   1114     1
   1113   1130     1
   1113   1122     1
   1113   1123     1
   1114   1130     1
   1114   1122     1
   1114   1123     1
   1116   2319     1
   1116   1128     1
   1116   1129     1
   1117   2319     1
   1117   1128     1
   1117   1129     1
   1119   2290     1
   1119   1125     1
   1119   1126     1
   1120   2290     1
   1120   1125     1
   1120   1126     1
   1124   2282     1
   1124   2283     1
   1125   2281     1
   1126   2281     1
   1127   2311     1
   1127   2312     1
   1128   2310     1
   1129   2310     1
   1131   1145     1
   1131   1146     1
   1131   1148     1
   1131   1149     1
   1131   1142     1
   1131   1143     1
   1132   1136     1
   1132   1137     1
   1132   1139     1
   1132   1140     1
   1132   1157     1
   1132   1158     1
   1133   1135     1
   1133   1138     1
   1133   1156     1
   1133   1145     1
   1133   1146     1
   1134   1135     1
   1134   1138     1
   1134   1156     1
   1134   1145     1
   1134   1146     1
   1135   1139     1
   1135   1140     1
   1135   1154     1
   1135   1155     1
   1136   1138     1
   1136   1153     1
   1136   1148     1
   1136   1149     1
   1137   1138     1
   1137   1153     1
   1137   1148     1
   1137   1149     1
   1138   1151     1
   1138   1152     1
   1139   1150     1
   1139   1142     1
   1139   1143     1
   1140   1150     1
   1140   1142     1
   1140   1143     1
   1142   1159     1
   1142   1151     1
   1142   1152     1
   1143   1159     1
   1143   1151     1
   1143   1152     1
   1145   2377     1
   1145   1157     1
   1145   1158     1
   1146   2377     1
   1146   1157     1
   1146   1158     1
   1148   2348     1
   1148   1154     1
   1148   1155     1
   1149   2348     1
   1149   1154     1
   1149   1155     1
   1153   2340     1
   1153   2341     1
   1154   2339     1
   1155   2339     1
   1156   2369     1
   1156   2370     1
   1157   2368     1
   1158   2368     1
   1160   1174     1
   1160   1175     1
   1160   1177     1
   1160   1178     1
   1160   1171     1
   1160   1172     1
   1161   1165     1
   1161   1166     1
   1161   1168     1
   1161   1169     1
   1161   1186     1
   1161   1187     1
   1162   1164     1
   1162   1167     1
   1162   1185     1
   1162   1174     1
   1162   1175     1
   1163   1164     1
   1163   1167     1
   1163   1185     1
   1163   1174     1
   1163   1175     1
   1164   1168     1
   1164   1169     1
   1164   1183     1
   1164   1184     1
   1165   1167     1
   1165   1182     1
   1165   1177     1
   1165   1178     1
   1166   1167     1
   1166   1182     1
   1166   1177     1
   1166   1178     1
   1167   1180     1
   1167   1181     1
   1168   1179     1
   1168   1171     1
   1168   1172     1
   1169   1179     1
   1169   1171     1
   1169   1172     1
   1171   1188     1
   1171   1180     1
   1171   1181     1
   1172   1188     1
   1172   1180     1
   1172   1181     1
   1174   2435     1
   1174   1186     1
   1174   1187     1
   1175   2435     1
   1175   1186     1
   1175   1187     1
   1177   2406     1
   1177   1183     1
   1177   1184     1
   1178   2406     1
   1178   1183     1
   1178   1184     1
   1182   2398     1
   1182   2399     1
   1183   2397     1
   1184   2397     1
   1185   2427     1
   1185   2428     1
   1186   2426     1
   1187   2426     1
   1189   1203     1
   1189   1204     1
   1189   1206     1
   1189   1207     1
   1189   1200     1
   1189   1201     1
   1190   1194     1
   1190   1195     1
   1190   1197     1
   1190   1198     1
   1190   1215     1
   1190   1216     1
   1191   1193     1
   1191   1196     1
   1191   1214     1
   1191   1203     1
   1191   1204     1
   1192   1193     1
   1192   1196     1
   1192   1214     1
   1192   1203     1
   1192   1204     1
   1193   1197     1
   1193   1198     1
   1193   1212     1
   1193   1213     1
   1194   1196     1
   1194   1211     1
   1194   1206     1
   1194   1207     1
   1195   1196     1
   1195   1211     1
   1195   1206     1
   1195   1207     1
   1196   1209     1
   1196   1210     1
   1197   1208     1
   1197   1200     1
   1197   1201     1
   1198   1208     1
   1198   1200     1
   1198   1201     1
   1200   1217     1
   1200   1209     1
   1200   1210     1
   1201   1217     1
   1201   1209     1
   1201   1210     1
   1203   2493     1
   1203   1215     1
   1203   1216     1
   1204   2493     1
   1204   1215     1
   1204   1216     1
   1206   2464     1
   1206   1212     1
   1206   1213     1
   1207   2464     1
   1207   1212     1
   1207   1213     1
   1211   2456     1
   1211   2457     1
   1212   2455     1
   1213   2455     1
   1214   2485     1
   1214   2486     1
   1215   2484     1
   1216   2484     1
   1218   1232     1
   1218   1233     1
   1218   1235     1
   1218   1236     1
   1218   1229     1
   1218   1230     1
   1219   1223     1
   1219   1224     1
   1219   1226     1
   1219   1227     1
   1219   1244     1
   1219   1245     1
   1220   1222     1
   1220   1225     1
   1220   1243     1
   1220   1232     1
   1220   1233     1
   1221   1222     1
   1221   1225     1
   1221   1243     1
   1221   1232     1
   1221   1233     1
   1222   1226     1
   1222   1227     1
   1222   1241     1
   1222   1242     1
   1223   1225     1
   1223   1240     1
   1223   1235     1
   1223   1236     1
   1224   1225     1
   1224   1240     1
   1224   1235     1
   1224   1236     1
   1225   1238     1
   1225   1239     1
   1226   1237     1
   1226   1229     1
   1226   1230     1
   1227   1237     1
   1227   1229     1
   1227   1230     1
   1229   1246     1
   1229   1238     1
   1229   1239     1
   1230   1246     1
   1230   1238     1
   1230   1239     1
   1232   2551     1
   1232   1244     1
   1232   1245     1
   1233   2551     1
   1233   1244     1
   1233   1245     1
   1235   2522     1
   1235   1241     1
   1235   1242     1
   1236   2522     1
   1236   1241     1
   1236   1242     1
   1240   2514     1
   1240   2515     1
   1241   2513     1
   1242   2513     1
   1243   2543     1
   1243   2544     1
   1244   2542     1
   1245   2542     1
   1247   1261     1
   1247   1262     1
   1247   1264     1
   1247   1265     1
   1247   1258     1
   1247   1259     1
   1248   1252     1
   1248   1253     1
   1248   1255     1
   1248   1256     1
   1248   1273     1
   1248   1274     1
   1249   1251     1
   1249   1254     1
   1249   1272     1
   1249   1261     1
   1249   1262     1
   1250   1251     1
   1250   1254     1
   1250   1272     1
   1250   1261     1
   1250   1262     1
   1251   1255     1
   1251   1256     1
   1251   1270     1
   1251   1271     1
   1252   1254     1
   1252   1269     1
   1252   1264     1
   1252   1265     1
   1253   1254     1
   1253   1269     1
   1253   1264     1
   1253   1265     1
   1254   1267     1
   1254   1268     1
   1255   1266     1
   1255   1258     1
   1255   1259     1
   1256   1266     1
   1256   1258     1
   1256   1259     1
   1258   1275     1
   1258   1267     1
   1258   1268     1
   1259   1275     1
   1259   1267     1
   1259   1268     1
   1261   2609     1
   1261   1273     1
   1261   1274     1
   1262   2609     1
   1262   1273     1
   1262   1274     1
   1264   2580     1
   1264   1270     1
   1264   1271     1
   1265   2580     1
   1265   1270     1
   1265   1271     1
   1269   2572     1
   1269   2573     1
   1270   2571     1
   1271   2571     1
   1272   2601     1
   1272   2602     1
   1273   2600     1
   1274   2600     1
   1276   1290     1
   1276   1291     1
   1276   1293     1
   1276   1294     1
   1276   1287     1
   1276   1288     1
   1277   1281     1
   1277   1282     1
   1277   1284     1
   1277   1285     1
   1277   1302     1
   1277   1303     1
   1278   1280     1
   1278   1283     1
   1278   1301     1
   1278   1290     1
   1278   1291     1
   1279   1280     1
   1279   1283     1
   1279   1301     1
   1279   1290     1
   1279   1291     1
   1280   1284     1
   1280   1285     1
   1280   1299     1
   1280   1300     1
   1281   1283     1
   1281   1298     1
   1281   1293     1
   1281   1294     1
   1282   1283     1
   1282   1298     1
   1282   1293     1
   1282   1294     1
   1283   1296     1
   1283   1297     1
   1284   1295     1
   1284   1287     1
   1284   1288     1
   1285   1295     1
   1285   1287     1
   1285   1288     1
   1287   1304     1
   1287   1296     1
   1287   1297     1
   1288   1304     1
   1288   1296     1
   1288   1297     1
   1290   2667     1
   1290   1302     1
   1290   1303     1
   1291   2667     1
   1291   1302     1
   1291   1303     1
   1293   2638     1
   1293   1299     1
   1293   1300     1
   1294   2638     1
   1294   1299     1
   1294   1300     1
   1298   2630     1
   1298   2631     1
   1299   2629     1
   1300   2629     1
   1301   2659     1
   1301   2660     1
   1302   2658     1
   1303   2658     1
   1305   1319     1
   1305   1320     1
   1305   1322     1
   1305   1323     1
   1305   1316     1
   1305   1317     1
   1306   1310     1
   1306   1311     1
   1306   1313     1
   1306   1314     1
   1306   1331     1
   1306   1332     1
   1307   1309     1
   1307   1312     1
   1307   1330     1
   1307   1319     1
   1307   1320     1
   1308   1309     1
   1308   1312     1
   1308   1330     1
   1308   1319     1
   1308   1320     1
   1309   1313     1
   1309   1314     1
   1309   1328     1
   1309   1329     1
   1310   1312     1
   1310   1327     1
   1310   1322     1
   1310   1323     1
   1311   1312     1
   1311   1327     1
   1311   1322     1
   1311   1323     1
   1312   1325     1
   1312   1326     1
   1313   1324     1
   1313   1316     1
   1313   1317     1
   1314   1324     1
   1314   1316     1
   1314   1317     1
   1316   1333     1
   1316   1325     1
   1316   1326     1
   1317   1333     1
   1317   1325     1
   1317   1326     1
   1319   2725     1
   1319   1331     1
   1319   1332     1
   1320   2725     1
   1320   1331     1
   1320   1332     1
   1322   2696     1
   1322   1328     1
   1322   1329     1
   1323   2696     1
   1323   1328     1
   1323   1329     1
   1327   2688     1
   1327   2689     1
   1328   2687     1
   1329   2687     1
   1330   2717     1
   1330   2718     1
   1331   2716     1
   1332   2716     1
   1334   1348     1
   1334   1349     1
   1334   1351     1
   1334   1352     1
   1334   1345     1
   1334   1346     1
   1335   1339     1
   1335   1340     1
   1335   1342     1
   1335   1343     1
   1335   1360     1
   1335   1361     1
   1336   1338     1
   1336   1341     1
   1336   1359     1
   1336   1348     1
   1336   1349     1
   1337   1338     1
   1337   1341     1
   1337   1359     1
   1337   1348     1
   1337   1349     1
   1338   1342     1
   1338   1343     1
   1338   1357     1
   1338   1358     1
   1339   1341     1
   1339   1356     1
   1339   1351     1
   1339   1352     1
   1340   1341     1
   1340   1356     1
   1340   1351     1
   1340   1352     1
   1341   1354     1
   1341   1355     1
   1342   1353     1
   1342   1345     1
   1342   1346     1
   1343   1353     1
   1343   1345     1
   1343   1346     1
   1345   1362     1
   1345   1354     1
   1345   1355     1
   1346   1362     1
   1346   1354     1
   1346   1355     1
   1348   2783     1
   1348   1360     1
   1348   1361     1
   1349   2783     1
   1349   1360     1
   1349   1361     1
   1351   2754     1
   1351   1357     1
   1351   1358     1
   1352   2754     1
   1352   1357     1
   1352   1358     1
   1356   2746     1
   1356   2747     1
   1357   2745     1
   1358   2745     1
   1359   2775     1
   1359   2776     1
   1360   2774     1
   1361   2774     1
   1363   1377     1
   1363   1378     1
   1363   1380     1
   1363   1381     1
   1363   1374     1
   1363   1375     1
   1364   1368     1
   1364   1369     1
   1364   1371     1
   1364   1372     1
   1364   1389     1
   1364   1390     1
   1365   1367     1
   1365   1370     1
   1365   1388     1
   1365   1377     1
   1365   1378     1
   1366   1367     1
   1366   1370     1
   1366   1388     1
   1366   1377     1
   1366   1378     1
   1367   1371     1
   1367   1372     1
   1367   1386     1
   1367   1387     1
   1368   1370     1
   1368   1385     1
   1368   1380     1
   1368   1381     1
   1369   1370     1
   1369   1385     1
   1369   1380     1
   1369   1381     1
   1370   1383     1
   1370   1384     1
   1371   1382     1
   1371   1374     1
   1371   1375     1
   1372   1382     1
   1372   1374     1
   1372   1375     1
   1374   1391     1
   1374   1383     1
   1374   1384     1
   1375   1391     1
   1375   1383     1
   1375   1384     1
   1377   2841     1
   1377   1389     1
   1377   1390     1
   1378   2841     1
   1378   1389     1
   1378   1390     1
   1380   2812     1
   1380   1386     1
   1380   1387     1
   1381   2812     1
   1381   1386     1
   1381   1387     1
   1385   2804     1
   1385   2805     1
   1386   2803     1
   1387   2803     1
   1388   2833     1
   1388   2834     1
   1389   2832     1
   1390   2832     1
   1392   1406     1
   1392   1407     1
   1392   1409     1
   1392   1410     1
   1392   1403     1
   1392   1404     1
   1393   1397     1
   1393   1398     1
   1393   1400     1
   1393   1401     1
   1393   1418     1
   1393   1419     1
   1394   1396     1
   1394   1399     1
   1394   1417     1
   1394   1406     1
   1394   1407     1
   1395   1396     1
   1395   1399     1
   1395   1417     1
   1395   1406     1
   1395   1407     1
   1396   1400     1
   1396   1401     1
   1396   1415     1
   1396   1416     1
   1397   1399     1
   1397   1414     1
   1397   1409     1
   1397   1410     1
   1398   1399     1
   1398   1414     1
   1398   1409     1
   1398   1410     1
   1399   1412     1
   1399   1413     1
   1400   1411     1
   1400   1403     1
   1400   1404     1
   1401   1411     1
   1401   1403     1
   1401   1404     1
   1403   1420     1
   1403   1412     1
   1403   1413     1
   1404   1420     1
   1404   1412     1
   1404   1413     1
   1406   2899     1
   1406   1418     1
   1406   1419     1
   1407   2899     1
   1407   1418     1
   1407   1419     1
   1409   2870     1
   1409   1415     1
   1409   1416     1
   1410   2870     1
   1410   1415     1
   1410   1416     1
   1414   2862     1
   1414   2863     1
   1415   2861     1
   1416   2861     1
   1417   2891     1
   1417   2892     1
   1418   2890     1
   1419   2890     1
   1421   1435     1
   1421   1436     1
   1421   1438     1
   1421   1439     1
   1421   1432     1
   1421   1433     1
   1422   1426     1
   1422   1427     1
   1422   1429     1
   1422   1430     1
   1422   1447     1
   1422   1448     1
   1423   1425     1
   1423   1428     1
   1423   1446     1
   1423   1435     1
   1423   1436     1
   1424   1425     1
   1424   1428     1
   1424   1446     1
   1424   1435     1
   1424   1436     1
   1425   1429     1
   1425   1430     1
   1425   1444     1
   1425   1445     1
   1426   1428     1
   1426   1443     1
   1426   1438     1
   1426   1439     1
   1427   1428     1
   1427   1443     1
   1427   1438     1
   1427   1439     1
   1428   1441     1
   1428   1442     1
   1429   1440     1
   1429   1432     1
   1429   1433     1
   1430   1440     1
   1430   1432     1
   1430   1433     1
   1432   1449     1
   1432   1441     1
   1432   1442     1
   1433   1449     1
   1433   1441     1
   1433   1442     1
   1435   2957     1
   1435   1447     1
   1435   1448     1
   1436   2957     1
   1436   1447     1
   1436   1448     1
   1438   2928     1
   1438   1444     1
   1438   1445     1
   1439   2928     1
   1439   1444     1
   1439   1445     1
   1443   2920     1
   1443   2921     1
   1444   2919     1
   1445   2919     1
   1446   2949     1
   1446   2950     1
   1447   2948     1
   1448   2948     1
   1450   1464     1
   1450   1465     1
   1450   1467     1
   1450   1468     1
   1450   1461     1
   1450   1462     1
   1451   1455     1
   1451   1456     1
   1451   1458     1
   1451   1459     1
   1451   1476     1
   1451   1477     1
   1452   1454     1
   1452   1457     1
   1452   1475     1
   1452   1464     1
   1452   1465     1
   1453   1454     1
   1453   1457     1
   1453   1475     1
   1453   1464     1
   1453   1465     1
   1454   1458     1
   1454   1459     1
   1454   1473     1
   1454   1474     1
   1455   1457     1
   1455   1472     1
   1455   1467     1
   1455   1468     1
   1456   1457     1
   1456   1472     1
   1456   1467     1
   1456   1468     1
   1457   1470     1
   1457   1471     1
   1458   1469     1
   1458   1461     1
   1458   1462     1
   1459   1469     1
   1459   1461     1
   1459   1462     1
   1461   1478     1
   1461   1470     1
   1461   1471     1
   1462   1478     1
   1462   1470     1
   1462   1471     1
   1464   3015     1
   1464   1476     1
   1464   1477     1
   1465   3015     1
   1465   1476     1
   1465   1477     1
   1467   2986     1
   1467   1473     1
   1467   1474     1
   1468   2986     1
   1468   1473     1
   1468   1474     1
   1472   2978     1
   1472   2979     1
   1473   2977     1
   1474   2977     1
   1475   3007     1
   1475   3008     1
   1476   3006     1
   1477   3006     1
   1479   1493     1
   1479   1494     1
   1479   1496     1
   1479   1497     1
   1479   1490     1
   1479   1491     1
   1480   1484     1
   1480   1485     1
   1480   1487     1
   1480   1488     1
   1480   1505     1
   1480   1506     1
   1481   1483     1
   1481   1486     1
   1481   1504     1
   1481   1493     1
   1481   1494     1
   1482   1483     1
   1482   1486     1
   1482   1504     1
   1482   1493     1
   1482   1494     1
   1483   1487     1
   1483   1488     1
   1483   1502     1
   1483   1503     1
   1484   1486     1
   1484   1501     1
   1484   1496     1
   1484   1497     1
   1485   1486     1
   1485   1501     1
   1485   1496     1
   1485   1497     1
   1486   1499     1
   1486   1500     1
   1487   1498     1
   1487   1490     1
   1487   1491     1
   1488   1498     1
   1488   1490     1
   1488   1491     1
   1490   1507     1
   1490   1499     1
   1490   1500     1
   1491   1507     1
   1491   1499     1
   1491   1500     1
   1493   3073     1
   1493   1505     1
   1493   1506     1
   1494   3073     1
   1494   1505     1
   1494   1506     1
   1496   3044     1
   1496   1502     1
   1496   1503     1
   1497   3044     1
   1497   1502     1
   1497   1503     1
   1501   3036     1
   1501   3037     1
   1502   3035     1
   1503   3035     1
   1504   3065     1
   1504   3066     1
   1505   3064     1
   1506   3064     1
   1508   1522     1
   1508   1523     1
   1508   1525     1
   1508   1526     1
   1508   1519     1
   1508   1520     1
   1509   1513     1
   1509   1514     1
   1509   1516     1
   1509   1517     1
   1509   1534     1
   1509   1535     1
   1510   1512     1
   1510   1515     1
   1510   1533     1
   1510   1522     1
   1510   1523     1
   1511   1512     1
   1511   1515     1
   1511   1533     1
   1511   1522     1
   1511   1523     1
   1512   1516     1
   1512   1517     1
   1512   1531     1
   1512   1532     1
   1513   1515     1
   1513   1530     1
   1513   1525     1
   1513   1526     1
   1514   1515     1
   1514   1530     1
   1514   1525     1
   1514   1526     1
   1515   1528     1
   1515   1529     1
   1516   1527     1
   1516   1519     1
   1516   1520     1
   1517   1527     1
   1517   1519     1
   1517   1520     1
   1519   1536     1
   1519   1528     1
   1519   1529     1
   1520   1536     1
   1520   1528     1
   1520   1529     1
   1522   3131     1
   1522   1534     1
   1522   1535     1
   1523   3131     1
   1523   1534     1
   1523   1535     1
   1525   3102     1
   1525   1531     1
   1525   1532     1
   1526   3102     1
   1526   1531     1
   1526   1532     1
   1530   3094     1
   1530   3095     1
   1531   3093     1
   1532   3093     1
   1533   3123     1
   1533   3124     1
   1534   3122     1
   1535   3122     1
   1537   1551     1
   1537   1552     1
   1537   1554     1
   1537   1555     1
   1537   1548     1
   1537   1549     1
   1538   1542     1
   1538   1543     1
   1538   1545     1
   1538   1546     1
   1538   1563     1
   1538   1564     1
   1539   1541     1
   1539   1544     1
   1539   1562     1
   1539   1551     1
   1539   1552     1
   1540   1541     1
   1540   1544     1
   1540   1562     1
   1540   1551     1
   1540   1552     1
   1541   1545     1
   1541   1546     1
   1541   1560     1
   1541   1561     1
   1542   1544     1
   1542   1559     1
   1542   1554     1
   1542   1555     1
   1543   1544     1
   1543   1559     1
   1543   1554     1
   1543   1555     1
   1544   1557     1
   1544   1558     1
   1545   1556     1
   1545   1548     1
   1545   1549     1
   1546   1556     1
   1546   1548     1
   1546   1549     1
   1548   1565     1
   1548   1557     1
   1548   1558     1
   1549   1565     1
   1549   1557     1
   1549   1558     1
   1551   3189     1
   1551   1563     1
   1551   1564     1
   1552   3189     1
   1552   1563     1
   1552   1564     1
   1554   3160     1
   1554   1560     1
   1554   1561     1
   1555   3160     1
   1555   1560     1
   1555   1561     1
   1559   3152     1
   1559   3153     1
   1560   3151     1
   1561   3151     1
   1562   3181     1
   1562   3182     1
   1563   3180     1
   1564   3180     1
   1566   1580     1
   1566   1581     1
   1566   1583     1
   1566   1584     1
   1566   1577     1
   1566   1578     1
   1567   1571     1
   1567   1572     1
   1567   1574     1
   1567   1575     1
   1567   1592     1
   1567   1593     1
   1568   1570     1
   1568   1573     1
   1568   1591     1
   1568   1580     1
   1568   1581     1
   1569   1570     1
   1569   1573     1
   1569   1591     1
   1569   1580     1
   1569   1581     1
   1570   1574     1
   1570   1575     1
   1570   1589     1
   1570   1590     1
   1571   1573     1
   1571   1588     1
   1571   1583     1
   1571   1584     1
   1572   1573     1
   1572   1588     1
   1572   1583     1
   1572   1584     1
   1573   1586     1
   1573   1587     1
   1574   1585     1
   1574   1577     1
   1574   1578     1
   1575   1585     1
   1575   1577     1
   1575   1578     1
   1577   1594     1
   1577   1586     1
   1577   1587     1
   1578   1594     1
   1578   1586     1
   1578   1587     1
   1580   3247     1
   1580   1592     1
   1580   1593     1
   1581   3247     1
   1581   1592     1
   1581   1593     1
   1583   3218     1
   1583   1589     1
   1583   1590     1
   1584   3218     1
   1584   1589     1
   1584   1590     1
   1588   3210     1
   1588   3211     1
   1589   3209     1
   1590   3209     1
   1591   3239     1
   1591   3240     1
   1592   3238     1
   1593   3238     1
   1595   1609     1
   1595   1610     1
   1595   1612     1
   1595   1613     1
   1595   1606     1
   1595   1607     1
   1596   1600     1
   1596   1601     1
   1596   1603     1
   1596   1604     1
   1596   1621     1
   1596   1622     1
   1597   1599     1
   1597   1602     1
   1597   1620     1
   1597   1609     1
   1597   1610     1
   1598   1599     1
   1598   1602     1
   1598   1620     1
   1598   1609     1
   1598   1610     1
   1599   1603     1
   1599   1604     1
   1599   1618     1
   1599   1619     1
   1600   1602     1
   1600   1617     1
   1600   1612     1
   1600   1613     1
   1601   1602     1
   1601   1617     1
   1601   1612     1
   1601   1613     1
   1602   1615     1
   1602   1616     1
   1603   1614     1
   1603   1606     1
   1603   1607     1
   1604   1614     1
   1604   1606     1
   1604   1607     1
   1606   1623     1
   1606   1615     1
   1606   1616     1
   1607   1623     1
   1607   1615     1
   1607   1616     1
   1609   3305     1
   1609   1621     1
   1609   1622     1
   1610   3305     1
   1610   1621     1
   1610   1622     1
   1612   3276     1
   1612   1618     1
   1612   1619     1
   1613   3276     1
   1613   1618     1
   1613   1619     1
   1617   3268     1
   1617   3269     1
   1618   3267     1
   1619   3267     1
   1620   3297     1
   1620   3298     1
   1621   3296     1
   1622   3296     1
   1624   1638     1
   1624   1639     1
   1624   1641     1
   1624   1642     1
   1624   1635     1
   1624   1636     1
   1625   1629     1
   1625   1630     1
   1625   1632     1
   1625   1633     1
   1625   1650     1
   1625   1651     1
   1626   1628     1
   1626   1631     1
   1626   1649     1
   1626   1638     1
   1626   1639     1
   1627   1628     1
   1627   1631     1
   1627   1649     1
   1627   1638     1
   1627   1639     1
   1628   1632     1
   1628   1633     1
   1628   1647     1
   1628   1648     1
   1629   1631     1
   1629   1646     1
   1629   1641     1
   1629   1642     1
   1630   1631     1
   1630   1646     1
   1630   1641     1
   1630   1642     1
   1631   1644     1
   1631   1645     1
   1632   1643     1
   1632   1635     1
   1632   1636     1
   1633   1643     1
   1633   1635     1
   1633   1636     1
   1635   1652     1
   1635   1644     1
   1635   1645     1
   1636   1652     1
   1636   1644     1
   1636   1645     1
   1638   3363     1
   1638   1650     1
   1638   1651     1
   1639   3363     1
   1639   1650     1
   1639   1651     1
   1641   3334     1
   1641   1647     1
   1641   1648     1
   1642   3334     1
   1642   1647     1
   1642   1648     1
   1646   3326     1
   1646   3327     1
   1647   3325     1
   1648   3325     1
   1649   3355     1
   1649   3356     1
   1650   3354     1
   1651   3354     1
   1653   1667     1
   1653   1668     1
   1653   1670     1
   1653   1671     1
   1653   1664     1
   1653   1665     1
   1654   1658     1
   1654   1659     1
   1654   1661     1
   1654   1662     1
   1654   1679     1
   1654   1680     1
   1655   1657     1
   1655   1660     1
   1655   1678     1
   1655   1667     1
   1655   1668     1
   1656   1657     1
   1656   1660     1
   1656   1678     1
   1656   1667     1
   1656   1668     1
   1657   1661     1
   1657   1662     1
   1657   1676     1
   1657   1677     1
   1658   1660     1
   1658   1675     1
   1658   1670     1
   1658   1671     1
   1659   1660     1
   1659   1675     1
   1659   1670     1
   1659   1671     1
   1660   1673     1
   1660   1674     1
   1661   1672     1
   1661   1664     1
   1661   1665     1
   1662   1672     1
   1662   1664     1
   1662   1665     1
   1664   1681     1
   1664   1673     1
   1664   1674     1
   1665   1681     1
   1665   1673     1
   1665   1674     1
   1667   3421     1
   1667   1679     1
   1667   1680     1
   1668   3421     1
   1668   1679     1
   1668   1680     1
   1670   3392     1
   1670   1676     1
   1670   1677     1
   1671   3392     1
   1671   1676     1
   1671   1677     1
   1675   3384     1
   1675   3385     1
   1676   3383     1
   1677   3383     1
   1678   3413     1
   1678   3414     1
   1679   3412     1
   1680   3412     1
   1682   1696     1
   1682   1697     1
   1682   1699     1
   1682   1700     1
   1682   1693     1
   1682   1694     1
   1683   1687     1
   1683   1688     1
   1683   1690     1
   1683   1691     1
   1683   1708     1
   1683   1709     1
   1684   1686     1
   1684   1689     1
   1684   1707     1
   1684   1696     1
   1684   1697     1
   1685   1686     1
   1685   1689     1
   1685   1707     1
   1685   1696     1
   1685   1697     1
   1686   1690     1
   1686   1691     1
   1686   1705     1
   1686   1706     1
   1687   1689     1
   1687   1704     1
   1687   1699     1
   1687   1700     1
   1688   1689     1
   1688   1704     1
   1688   1699     1
   1688   1700     1
   1689   1702     1
   1689   1703     1
   1690   1701     1
   1690   1693     1
   1690   1694     1
   1691   1701     1
   1691   1693     1
   1691   1694     1
   1693   1710     1
   1693   1702     1
   1693   1703     1
   1694   1710     1
   1694   1702     1
   1694   1703     1
   1696   3479     1
   1696   1708     1
   1696   1709     1
   1697   3479     1
   1697   1708     1
   1697   1709     1
   1699   3450     1
   1699   1705     1
   1699   1706     1
   1700   3450     1
   1700   1705     1
   1700   1706     1
   1704   3442     1
   1704   3443     1
   1705   3441     1
   1706   3441     1
   1707   3471     1
   1707   3472     1
   1708   3470     1
   1709   3470     1
   1711   1725     1
   1711   1726     1
   1711   1728     1
   1711   1729     1
   1711   1722     1
   1711   1723     1
   1712   1716     1
   1712   1717     1
   1712   1719     1
   1712   1720     1
   1712   1737     1
   1712   1738     1
   1713   1715     1
   1713   1718     1
   1713   1736     1
   1713   1725     1
   1713   1726     1
   1714   1715     1
   1714   1718     1
   1714   1736     1
   1714   1725     1
   1714   1726     1
   1715   1719     1
   1715   1720     1
   1715   1734     1
   1715   1735     1
   1716   1718     1
   1716   1733     1
   1716   1728     1
   1716   1729     1
   1717   1718     1
   1717   1733     1
   1717   1728     1
   1717   1729     1
   1718   1731     1
   1718   1732     1
   1719   1730     1
   1719   1722     1
   1719   1723     1
   1720   1730     1
   1720   1722     1
   1720   1723     1
   1722   1739     1
   1722   1731     1
   1722   1732     1
   1723   1739     1
   1723   1731     1
   1723   1732     1
   1725   3537     1
   1725   1737     1
   1725   1738     1
   1726   3537     1
   1726   1737     1
   1726   1738     1
   1728   3508     1
   1728   1734     1
   1728   1735     1
   1729   3508     1
   1729   1734     1
   1729   1735     1
   1733   3500     1
   1733   3501     1
   1734   3499     1
   1735   3499     1
   1736   3529     1
   1736   3530     1
   1737   3528     1
   1738   3528     1
   1740   1754     1
   1740   1755     1
   1740   1757     1
   1740   1758     1
   1740   1751     1
   1740   1752     1
   1741   1745     1
   1741   1746     1
   1741   1748     1
   1741   1749     1
   1741   1766     1
   1741   1767     1
   1742   1744     1
   1742   1747     1
   1742   1765     1
   1742   1754     1
   1742   1755     1
   1743   1744     1
   1743   1747     1
   1743   1765     1
   1743   1754     1
   1743   1755     1
   1744   1748     1
   1744   1749     1
   1744   1763     1
   1744   1764     1
   1745   1747     1
   1745   1762     1
   1745   1757     1
   1745   1758     1
   1746   1747     1
   1746   1762     1
   1746   1757     1
   1746   1758     1
   1747   1760     1
   1747   1761     1
   1748   1759     1
   1748   1751     1
   1748   1752     1
   1749   1759     1
   1749   1751     1
   1749   1752     1
   1751   1768     1
   1751   1760     1
   1751   1761     1
   1752   1768     1
   1752   1760     1
   1752   1761     1
   1754   3595     1
   1754   1766     1
   1754   1767     1
   1755   3595     1
   1755   1766     1
   1755   1767     1
   1757   3566     1
   1757   1763     1
   1757   1764     1
   1758   3566     1
   1758   1763     1
   1758   1764     1
   1762   3558     1
   1762   3559     1
   1763   3557     1
   1764   3557     1
   1765   3587     1
   1765   3588     1
   1766   3586     1
   1767   3586     1
   1769   1783     1
   1769   1784     1
   1769   1786     1
   1769   1787     1
   1769   1780     1
   1769   1781     1
   1770   1774     1
   1770   1775     1
   1770   1777     1
   1770   1778     1
   1770   1795     1
   1770   1796     1
   1771   1773     1
   1771   1776     1
   1771   1794     1
   1771   1783     1
   1771   1784     1
   1772   1773     1
   1772   1776     1
   1772   1794     1
   1772   1783     1
   1772   1784     1
   1773   1777     1
   1773   1778     1
   1773   1792     1
   1773   1793     1
   1774   1776     1
   1774   1791     1
   1774   1786     1
   1774   1787     1
   1775   1776     1
   1775   1791     1
   1775   1786     1
   1775   1787     1
   1776   1789     1
   1776   1790     1
   1777   1788     1
   1777   1780     1
   1777   1781     1
   1778   1788     1
   1778   1780     1
   1778   1781     1
   1780   1797     1
   1780   1789     1
   1780   1790     1
   1781   1797     1
   1781   1789     1
   1781   1790     1
   1783   3653     1
   1783   1795     1
   1783   1796     1
   1784   3653     1
   1784   1795     1
   1784   1796     1
   1786   3624     1
   1786   1792     1
   1786   1793     1
   1787   3624     1
   1787   1792     1
   1787   1793     1
   1791   3616     1
   1791   3617     1
   1792   3615     1
   1793   3615     1
   1794   3645     1
   1794   3646     1
   1795   3644     1
   1796   3644     1
   1798   1812     1
   1798   1813     1
   1798   1815     1
   1798   1816     1
   1798   1809     1
   1798   1810     1
   1799   1803     1
   1799   1804     1
   1799   1806     1
   1799   1807     1
   1799   1824     1
   1799   1825     1
   1800   1802     1
   1800   1805     1
   1800   1823     1
   1800   1812     1
   1800   1813     1
   1801   1802     1
   1801   1805     1
   1801   1823     1
   1801   1812     1
   1801   1813     1
   1802   1806     1
   1802   1807     1
   1802   1821     1
   1802   1822     1
   1803   1805     1
   1803   1820     1
   1803   1815     1
   1803   1816     1
   1804   1805     1
   1804   1820     1
   1804   1815     1
   1804   1816     1
   1805   1818     1
   1805   1819     1
   1806   1817     1
   1806   1809     1
   1806   1810     1
   1807   1817     1
   1807   1809     1
   1807   1810     1
   1809   1826     1
   1809   1818     1
   1809   1819     1
   1810   1826     1
   1810   1818     1
   1810   1819     1
   1812   3711     1
   1812   1824     1
   1812   1825     1
   1813   3711     1
   1813   1824     1
   1813   1825     1
   1815   3682     1
   1815   1821     1
   1815   1822     1
   1816   3682     1
   1816   1821     1
   1816   1822     1
   1820   3655     1
   1820   3656     1
   1821   3654     1
   1822   3654     1
   1823   3684     1
   1823   3685     1
   1824   3683     1
   1825   3683     1
   1827   1841     1
   1827   1842     1
   1827   1844     1
   1827   1845     1
   1827   1838     1
   1827   1839     1
   1828   1832     1
   1828   1833     1
   1828   1835     1
   1828   1836     1
   1828   1853     1
   1828   1854     1
   1829   1831     1
   1829   1834     1
   1829   1852     1
   1829   1841     1
   1829   1842     1
   1830   1831     1
   1830   1834     1
   1830   1852     1
   1830   1841     1
   1830   1842     1
   1831   1835     1
   1831   1836     1
   1831   1850     1
   1831   1851     1
   1832   1834     1
   1832   1849     1
   1832   1844     1
   1832   1845     1
   1833   1834     1
   1833   1849     1
   1833   1844     1
   1833   1845     1
   1834   1847     1
   1834   1848     1
   1835   1846     1
   1835   1838     1
   1835   1839     1
   1836   1846     1
   1836   1838     1
   1836   1839     1
   1838   1855     1
   1838   1847     1
   1838   1848     1
   1839   1855     1
   1839   1847     1
   1839   1848     1
   1841   3769     1
   1841   1853     1
   1841   1854     1
   1842   3769     1
   1842   1853     1
   1842   1854     1
   1844   3740     1
   1844   1850     1
   1844   1851     1
   1845   3740     1
   1845   1850     1
   1845   1851     1
   1849   3713     1
   1849   3714     1
   1850   3712     1
   1851   3712     1
   1852   3742     1
   1852   3743     1
   1853   3741     1
   1854   3741     1
   1856   1870     1
   1856   1871     1
   1856   1873     1
   1856   1874     1
   1856   1867     1
   1856   1868     1
   1857   1861     1
   1857   1862     1
   1857   1864     1
   1857   1865     1
   1857   1882     1
   1857   1883     1
   1858   1860     1
   1858   1863     1
   1858   1881     1
   1858   1870     1
   1858   1871     1
   1859   1860     1
   1859   1863     1
   1859   1881     1
   1859   1870     1
   1859   1871     1
   1860   1864     1
   1860   1865     1
   1860   1879     1
   1860   1880     1
   1861   1863     1
   1861   1878     1
   1861   1873     1
   1861   1874     1
   1862   1863     1
   1862   1878     1
   1862   1873     1
   1862   1874     1
   1863   1876     1
   1863   1877     1
   1864   1875     1
   1864   1867     1
   1864   1868     1
   1865   1875     1
   1865   1867     1
   1865   1868     1
   1867   1884     1
   1867   1876     1
   1867   1877     1
   1868   1884     1
   1868   1876     1
   1868   1877     1
   1870   3827     1
   1870   1882     1
   1870   1883     1
   1871   3827     1
   1871   1882     1
   1871   1883     1
   1873   3798     1
   1873   1879     1
   1873   1880     1
   1874   3798     1
   1874   1879     1
   1874   1880     1
   1878   3771     1
   1878   3772     1
   1879   3770     1
   1880   3770     1
   1881   3800     1
   1881   3801     1
   1882   3799     1
   1883   3799     1
   1885   1899     1
   1885   1900     1
   1885   1902     1
   1885   1903     1
   1885   1896     1
   1885   1897     1
   1886   1890     1
   1886   1891     1
   1886   1893     1
   1886   1894     1
   1886   1911     1
   1886   1912     1
   1887   1889     1
   1887   1892     1
   1887   1910     1
   1887   1899     1
   1887   1900     1
   1888   1889     1
   1888   1892     1
   1888   1910     1
   1888   1899     1
   1888   1900     1
   1889   1893     1
   1889   1894     1
   1889   1908     1
   1889   1909     1
   1890   1892     1
   1890   1907     1
   1890   1902     1
   1890   1903     1
   1891   1892     1
   1891   1907     1
   1891   1902     1
   1891   1903     1
   1892   1905     1
   1892   1906     1
   1893   1904     1
   1893   1896     1
   1893   1897     1
   1894   1904     1
   1894   1896     1
   1894   1897     1
   1896   1913     1
   1896   1905     1
   1896   1906     1
   1897   1913     1
   1897   1905     1
   1897   1906     1
   1899   3885     1
   1899   1911     1
   1899   1912     1
   1900   3885     1
   1900   1911     1
   1900   1912     1
   1902   3856     1
   1902   1908     1
   1902   1909     1
   1903   3856     1
   1903   1908     1
   1903   1909     1
   1907   3829     1
   1907   3830     1
   1908   3828     1
   1909   3828     1
   1910   3858     1
   1910   3859     1
   1911   3857     1
   1912   3857     1
   1914   1928     1
   1914   1929     1
   1914   1931     1
   1914   1932     1
   1914   1925     1
   1914   1926     1
   1915   1919     1
   1915   1920     1
   1915   1922     1
   1915   1923     1
   1915   1940     1
   1915   1941     1
   1916   1918     1
   1916   1921     1
   1916   1939     1
   1916   1928     1
   1916   1929     1
   1917   1918     1
   1917   1921     1
   1917   1939     1
   1917   1928     1
   1917   1929     1
   1918   1922     1
   1918   1923     1
   1918   1937     1
   1918   1938     1
   1919   1921     1
   1919   1936     1
   1919   1931     1
   1919   1932     1
   1920   1921     1
   1920   1936     1
   1920   1931     1
   1920   1932     1
   1921   1934     1
   1921   1935     1
   1922   1933     1
   1922   1925     1
   1922   1926     1
   1923   1933     1
   1923   1925     1
   1923   1926     1
   1925   1942     1
   1925   1934     1
   1925   1935     1
   1926   1942     1
   1926   1934     1
   1926   1935     1
   1928   3943     1
   1928   1940     1
   1928   1941     1
   1929   3943     1
   1929   1940     1
   1929   1941     1
   1931   3914     1
   1931   1937     1
   1931   1938     1
   1932   3914     1
   1932   1937     1
   1932   1938     1
   1936   3887     1
   1936   3888     1
   1937   3886     1
   1938   3886     1
   1939   3916     1
   1939   3917     1
   1940   3915     1
   1941   3915     1
   1943   1957     1
   1943   1958     1
   1943   1960     1
   1943   1961     1
   1943   1954     1
   1943   1955     1
   1944   1948     1
   1944   1949     1
   1944   1951     1
   1944   1952     1
   1944   1969     1
   1944   1970     1
   1945   1947     1
   1945   1950     1
   1945   1968     1
   1945   1957     1
   1945   1958     1
   1946   1947     1
   1946   1950     1
   1946   1968     1
   1946   1957     1
   1946   1958     1
   1947   1951     1
   1947   1952     1
   1947   1966     1
   1947   1967     1
   1948   1950     1
   1948   1965     1
   1948   1960     1
   1948   1961     1
   1949   1950     1
   1949   1965     1
   1949   1960     1
   1949   1961     1
   1950   1963     1
   1950   1964     1
   1951   1962     1
   1951   1954     1
   1951   1955     1
   1952   1962     1
   1952   1954     1
   1952   1955     1
   1954   1971     1
   1954   1963     1
   1954   1964     1
   1955   1971     1
   1955   1963     1
   1955   1964     1
   1957   4001     1
   1957   1969     1
   1957   1970     1
   1958   4001     1
   1958   1969     1
   1958   1970     1
   1960   3972     1
   1960   1966     1
   1960   1967     1
   1961   3972     1
   1961   1966     1
   1961   1967     1
   1965   3945     1
   1965   3946     1
   1966   3944     1
   1967   3944     1
   1968   3974     1
   1968   3975     1
   1969   3973     1
   1970   3973     1
   1972   1986     1
   1972   1987     1
   1972   1989     1
   1972   1990     1
   1972   1983     1
   1972   1984     1
   1973   1977     1
   1973   1978     1
   1973   1980     1
   1973   1981     1
   1973   1998     1
   1973   1999     1
   1974   1976     1
   1974   1979     1
   1974   1997     1
   1974   1986     1
   1974   1987     1
   1975   1976     1
   1975   1979     1
   1975   1997     1
   1975   1986     1
   1975   1987     1
   1976   1980     1
   1976   1981     1
   1976   1995     1
   1976   1996     1
   1977   1979     1
   1977   1994     1
   1977   1989     1
   1977   1990     1
   1978   1979     1
   1978   1994     1
   1978   1989     1
   1978   1990     1
   1979   1992     1
   1979   1993     1
   1980   1991     1
   1980   1983     1
   1980   1984     1
   1981   1991     1
   1981   1983     1
   1981   1984     1
   1983   2000     1
   1983   1992     1
   1983   1993     1
   1984   2000     1
   1984   1992     1
   1984   1993     1
   1986   4059     1
   1986   1998     1
   1986   1999     1
   1987   4059     1
   1987   1998     1
   1987   1999     1
   1989   4030     1
   1989   1995     1
   1989   1996     1
   1990   4030     1
   1990   1995     1
   1990   1996     1
   1994   4003     1
   1994   4004     1
   1995   4002     1
   1996   4002     1
   1997   4032     1
   1997   4033     1
   1998   4031     1
   1999   4031     1
   2001   2015     1
   2001   2016     1
   2001   2018     1
   2001   2019     1
   2001   2012     1
   2001   2013     1
   2002   2006     1
   2002   2007     1
   2002   2009     1
   2002   2010     1
   2002   2027     1
   2002   2028     1
   2003   2005     1
   2003   2008     1
   2003   2026     1
   2003   2015     1
   2003   2016     1
   2004   2005     1
   2004   2008     1
   2004   2026     1
   2004   2015     1
   2004   2016     1
   2005   2009     1
   2005   2010     1
   2005   2024     1
   2005   2025     1
   2006   2008     1
   2006   2023     1
   2006   2018     1
   2006   2019     1
   2007   2008     1
   2007   2023     1
   2007   2018     1
   2007   2019     1
   2008   2021     1
   2008   2022     1
   2009   2020     1
   2009   2012     1
   2009   2013     1
   2010   2020     1
   2010   2012     1
   2010   2013     1
   2012   2029     1
   2012   2021     1
   2012   2022     1
   2013   2029     1
   2013   2021     1
   2013   2022     1
   2015   4117     1
   2015   2027     1
   2015   2028     1
   2016   4117     1
   2016   2027     1
   2016   2028     1
   2018   4088     1
   2018   2024     1
   2018   2025     1
   2019   4088     1
   2019   2024     1
   2019   2025     1
   2023   4061     1
   2023   4062     1
   2024   4060     1
   2025   4060     1
   2026   4090     1
   2026   4091     1
   2027   4089     1
   2028   4089     1
   2030   2044     1
   2030   2045     1
   2030   2047     1
   2030   2048     1
   2030   2041     1
   2030   2042     1
   2031   2035     1
   2031   2036     1
   2031   2038     1
   2031   2039     1
   2031   2056     1
   2031   2057     1
   2032   2034     1
   2032   2037     1
   2032   2055     1
   2032   2044     1
   2032   2045     1
   2033   2034     1
   2033   2037     1
   2033   2055     1
   2033   2044     1
   2033   2045     1
   2034   2038     1
   2034   2039     1
   2034   2053     1
   2034   2054     1
   2035   2037     1
   2035   2052     1
   2035   2047     1
   2035   2048     1
   2036   2037     1
   2036   2052     1
   2036   2047     1
   2036   2048     1
   2037   2050     1
   2037   2051     1
   2038   2049     1
   2038   2041     1
   2038   2042     1
   2039   2049     1
   2039   2041     1
   2039   2042     1
   2041   2058     1
   2041   2050     1
   2041   2051     1
   2042   2058     1
   2042   2050     1
   2042   2051     1
   2044   4175     1
   2044   2056     1
   2044   2057     1
   2045   4175     1
   2045   2056     1
   2045   2057     1
   2047   4146     1
   2047   2053     1
   2047   2054     1
   2048   4146     1
   2048   2053     1
   2048   2054     1
   2052   4119     1
   2052   4120     1
   2053   4118     1
   2054   4118     1
   2055   4148     1
   2055   4149     1
   2056   4147     1
   2057   4147     1
   2059   2073     1
   2059   2074     1
   2059   2076     1
   2059   2077     1
   2059   2070     1
   2059   2071     1
   2060   2064     1
   2060   2065     1
   2060   2067     1
   2060   2068     1
   2060   2085     1
   2060   2086     1
   2061   2063     1
   2061   2066     1
   2061   2084     1
   2061   2073     1
   2061   2074     1
   2062   2063     1
   2062   2066     1
   2062   2084     1
   2062   2073     1
   2062   2074     1
   2063   2067     1
   2063   2068     1
   2063   2082     1
   2063   2083     1
   2064   2066     1
   2064   2081     1
   2064   2076     1
   2064   2077     1
   2065   2066     1
   2065   2081     1
   2065   2076     1
   2065   2077     1
   2066   2079     1
   2066   2080     1
   2067   2078     1
   2067   2070     1
   2067   2071     1
   2068   2078     1
   2068   2070     1
   2068   2071     1
   2070   2087     1
   2070   2079     1
   2070   2080     1
   2071   2087     1
   2071   2079     1
   2071   2080     1
   2073   4233     1
   2073   2085     1
   2073   2086     1
   2074   4233     1
   2074   2085     1
   2074   2086     1
   2076   4204     1
   2076   2082     1
   2076   2083     1
   2077   4204     1
   2077   2082     1
   2077   2083     1
   2081   4177     1
   2081   4178     1
   2082   4176     1
   2083   4176     1
   2084   4206     1
   2084   4207     1
   2085   4205     1
   2086   4205     1
   2088   2102     1
   2088   2103     1
   2088   2105     1
   2088   2106     1
   2088   2099     1
   2088   2100     1
   2089   2093     1
   2089   2094     1
   2089   2096     1
   2089   2097     1
   2089   2114     1
   2089   2115     1
   2090   2092     1
   2090   2095     1
   2090   2113     1
   2090   2102     1
   2090   2103     1
   2091   2092     1
   2091   2095     1
   2091   2113     1
   2091   2102     1
   2091   2103     1
   2092   2096     1
   2092   2097     1
   2092   2111     1
   2092   2112     1
   2093   2095     1
   2093   2110     1
   2093   2105     1
   2093   2106     1
   2094   2095     1
   2094   2110     1
   2094   2105     1
   2094   2106     1
   2095   2108     1
   2095   2109     1
   2096   2107     1
   2096   2099     1
   2096   2100     1
   2097   2107     1
   2097   2099     1
   2097   2100     1
   2099   2116     1
   2099   2108     1
   2099   2109     1
   2100   2116     1
   2100   2108     1
   2100   2109     1
   2102   4291     1
   2102   2114     1
   2102   2115     1
   2103   4291     1
   2103   2114     1
   2103   2115     1
   2105   4262     1
   2105   2111     1
   2105   2112     1
   2106   4262     1
   2106   2111     1
   2106   2112     1
   2110   4235     1
   2110   4236     1
   2111   4234     1
   2112   4234     1
   2113   4264     1
   2113   4265     1
   2114   4263     1
   2115   4263     1
   2117   2131     1
   2117   2132     1
   2117   2134     1
   2117   2135     1
   2117   2128     1
   2117   2129     1
   2118   2122     1
   2118   2123     1
   2118   2125     1
   2118   2126     1
   2118   2143     1
   2118   2144     1
   2119   2121     1
   2119   2124     1
   2119   2142     1
   2119   2131     1
   2119   2132     1
   2120   2121     1
   2120   2124     1
   2120   2142     1
   2120   2131     1
   2120   2132     1
   2121   2125     1
   2121   2126     1
   2121   2140     1
   2121   2141     1
   2122   2124     1
   2122   2139     1
   2122   2134     1
   2122   2135     1
   2123   2124     1
   2123   2139     1
   2123   2134     1
   2123   2135     1
   2124   2137     1
   2124   2138     1
   2125   2136     1
   2125   2128     1
   2125   2129     1
   2126   2136     1
   2126   2128     1
   2126   2129     1
   2128   2145     1
   2128   2137     1
   2128   2138     1
   2129   2145     1
   2129   2137     1
   2129   2138     1
   2131   4349     1
   2131   2143     1
   2131   2144     1
   2132   4349     1
   2132   2143     1
   2132   2144     1
   2134   4320     1
   2134   2140     1
   2134   2141     1
   2135   4320     1
   2135   2140     1
   2135   2141     1
   2139   4293     1
   2139   4294     1
   2140   4292     1
   2141   4292     1
   2142   4322     1
   2142   4323     1
   2143   4321     1
   2144   4321     1
   2146   2160     1
   2146   2161     1
   2146   2163     1
   2146   2164     1
   2146   2157     1
   2146   2158     1
   2147   2151     1
   2147   2152     1
   2147   2154     1
   2147   2155     1
   2147   2172     1
   2147   2173     1
   2148   2150     1
   2148   2153     1
   2148   2171     1
   2148   2160     1
   2148   2161     1
   2149   2150     1
   2149   2153     1
   2149   2171     1
   2149   2160     1
   2149   2161     1
   2150   2154     1
   2150   2155     1
   2150   2169     1
   2150   2170     1
   2151   2153     1
   2151   2168     1
   2151   2163     1
   2151   2164     1
   2152   2153     1
   2152   2168     1
   2152   2163     1
   2152   2164     1
   2153   2166     1
   2153   2167     1
   2154   2165     1
   2154   2157     1
   2154   2158     1
   2155   2165     1
   2155   2157     1
   2155   2158     1
   2157   2174     1
   2157   2166     1
   2157   2167     1
   2158   2174     1
   2158   2166     1
   2158   2167     1
   2160   4407     1
   2160   2172     1
   2160   2173     1
   2161   4407     1
   2161   2172     1
   2161   2173     1
   2163   4378     1
   2163   2169     1
   2163   2170     1
   2164   4378     1
   2164   2169     1
   2164   2170     1
   2168   4351     1
   2168   4352     1
   2169   4350     1
   2170   4350     1
   2171   4380     1
   2171   4381     1
   2172   4379     1
   2173   4379     1
   2175   2189     1
   2175   2190     1
   2175   2192     1
   2175   2193     1
   2175   2186     1
   2175   2187     1
   2176   2180     1
   2176   2181     1
   2176   2183     1
   2176   2184     1
   2176   2201     1
   2176   2202     1
   2177   2179     1
   2177   2182     1
   2177   2200     1
   2177   2189     1
   2177   2190     1
   2178   2179     1
   2178   2182     1
   2178   2200     1
   2178   2189     1
   2178   2190     1
   2179   2183     1
   2179   2184     1
   2179   2198     1
   2179   2199     1
   2180   2182     1
   2180   2197     1
   2180   2192     1
   2180   2193     1
   2181   2182     1
   2181   2197     1
   2181   2192     1
   2181   2193     1
   2182   2195     1
   2182   2196     1
   2183   2194     1
   2183   2186     1
   2183   2187     1
   2184   2194     1
   2184   2186     1
   2184   2187     1
   2186   2203     1
   2186   2195     1
   2186   2196     1
   2187   2203     1
   2187   2195     1
   2187   2196     1
   2189   4465     1
   2189   2201     1
   2189   2202     1
   2190   4465     1
   2190   2201     1
   2190   2202     1
   2192   4436     1
   2192   2198     1
   2192   2199     1
   2193   4436     1
   2193   2198     1
   2193   2199     1
   2197   4409     1
   2197   4410     1
   2198   4408     1
   2199   4408     1
   2200   4438     1
   2200   4439     1
   2201   4437     1
   2202   4437     1
   2204   2218     1
   2204   2219     1
   2204   2221     1
   2204   2222     1
   2204   2215     1
   2204   2216     1
   2205   2209     1
   2205   2210     1
   2205   2212     1
   2205   2213     1
   2205   2230     1
   2205   2231     1
   2206   2208     1
   2206   2211     1
   2206   2229     1
   2206   2218     1
   2206   2219     1
   2207   2208     1
   2207   2211     1
   2207   2229     1
   2207   2218     1
   2207   2219     1
   2208   2212     1
   2208   2213     1
   2208   2227     1
   2208   2228     1
   2209   2211     1
   2209   2226     1
   2209   2221     1
   2209   2222     1
   2210   2211     1
   2210   2226     1
   2210   2221     1
   2210   2222     1
   2211   2224     1
   2211   2225     1
   2212   2223     1
   2212   2215     1
   2212   2216     1
   2213   2223     1
   2213   2215     1
   2213   2216     1
   2215   2232     1
   2215   2224     1
   2215   2225     1
   2216   2232     1
   2216   2224     1
   2216   2225     1
   2218   4523     1
   2218   2230     1
   2218   2231     1
   2219   4523     1
   2219   2230     1
   2219   2231     1
   2221   4494     1
   2221   2227     1
   2221   2228     1
   2222   4494     1
   2222   2227     1
   2222   2228     1
   2226   4467     1
   2226   4468     1
   2227   4466     1
   2228   4466     1
   2229   4496     1
   2229   4497     1
   2230   4495     1
   2231   4495     1
   2233   2247     1
   2233   2248     1
   2233   2250     1
   2233   2251     1
   2233   2244     1
   2233   2245     1
   2234   2238     1
   2234   2239     1
   2234   2241     1
   2234   2242     1
   2234   2259     1
   2234   2260     1
   2235   2237     1
   2235   2240     1
   2235   2258     1
   2235   2247     1
   2235   2248     1
   2236   2237     1
   2236   2240     1
   2236   2258     1
   2236   2247     1
   2236   2248     1
   2237   2241     1
   2237   2242     1
   2237   2256     1
   2237   2257     1
   2238   2240     1
   2238   2255     1
   2238   2250     1
   2238   2251     1
   2239   2240     1
   2239   2255     1
   2239   2250     1
   2239   2251     1
   2240   2253     1
   2240   2254     1
   2241   2252     1
   2241   2244     1
   2241   2245     1
   2242   2252     1
   2242   2244     1
   2242   2245     1
   2244   2261     1
   2244   2253     1
   2244   2254     1
   2245   2261     1
   2245   2253     1
   2245   2254     1
   2247   4581     1
   2247   2259     1
   2247   2260     1
   2248   4581     1
   2248   2259     1
   2248   2260     1
   2250   4552     1
   2250   2256     1
   2250   2257     1
   2251   4552     1
   2251   2256     1
   2251   2257     1
   2255   4525     1
   2255   4526     1
   2256   4524     1
   2257   4524     1
   2258   4554     1
   2258   4555     1
   2259   4553     1
   2260   4553     1
   2262   2276     1
   2262   2277     1
   2262   2279     1
   2262   2280     1
   2262   2273     1
   2262   2274     1
   2263   2267     1
   2263   2268     1
   2263   2270     1
   2263   2271     1
   2263   2288     1
   2263   2289     1
   2264   2266     1
   2264   2269     1
   2264   2287     1
   2264   2276     1
   2264   2277     1
   2265   2266     1
   2265   2269     1
   2265   2287     1
   2265   2276     1
   2265   2277     1
   2266   2270     1
   2266   2271     1
   2266   2285     1
   2266   2286     1
   2267   2269     1
   2267   2284     1
   2267   2279     1
   2267   2280     1
   2268   2269     1
   2268   2284     1
   2268   2279     1
   2268   2280     1
   2269   2282     1
   2269   2283     1
   2270   2281     1
   2270   2273     1
   2270   2274     1
   2271   2281     1
   2271   2273     1
   2271   2274     1
   2273   2290     1
   2273   2282     1
   2273   2283     1
   2274   2290     1
   2274   2282     1
   2274   2283     1
   2276   4639     1
   2276   2288     1
   2276   2289     1
   2277   4639     1
   2277   2288     1
   2277   2289     1
   2279   4610     1
   2279   2285     1
   2279   2286     1
   2280   4610     1
   2280   2285     1
   2280   2286     1
   2284   4583     1
   2284   4584     1
   2285   4582     1
   2286   4582     1
   2287   4612     1
   2287   4613     1
   2288   4611     1
   2289   4611     1
   2291   2305     1
   2291   2306     1
   2291   2308     1
   2291   2309     1
   2291   2302     1
   2291   2303     1
   2292   2296     1
   2292   2297     1
   2292   2299     1
   2292   2300     1
   2292   2317     1
   2292   2318     1
   2293   2295     1
   2293   2298     1
   2293   2316     1
   2293   2305     1
   2293   2306     1
   2294   2295     1
   2294   2298     1
   2294   2316     1
   2294   2305     1
   2294   2306     1
   2295   2299     1
   2295   2300     1
   2295   2314     1
   2295   2315     1
   2296   2298     1
   2296   2313     1
   2296   2308     1
   2296   2309     1
   2297   2298     1
   2297   2313     1
   2297   2308     1
   2297   2309     1
   2298   2311     1
   2298   2312     1
   2299   2310     1
   2299   2302     1
   2299   2303     1
   2300   2310     1
   2300   2302     1
   2300   2303     1
   2302   2319     1
   2302   2311     1
   2302   2312     1
   2303   2319     1
   2303   2311     1
   2303   2312     1
   2305   4697     1
   2305   2317     1
   2305   2318     1
   2306   4697     1
   2306   2317     1
   2306   2318     1
   2308   4668     1
   2308   2314     1
   2308   2315     1
   2309   4668     1
   2309   2314     1
   2309   2315     1
   2313   4641     1
   2313   4642     1
   2314   4640     1
   2315   4640     1
   2316   4670     1
   2316   4671     1
   2317   4669     1
   2318   4669     1
   2320   2334     1
   2320   2335     1
   2320   2337     1
   2320   2338     1
   2320   2331     1
   2320   2332     1
   2321   2325     1
   2321   2326     1
   2321   2328     1
   2321   2329     1
   2321   2346     1
   2321   2347     1
   2322   2324     1
   2322   2327     1
   2322   2345     1
   2322   2334     1
   2322   2335     1
   2323   2324     1
   2323   2327     1
   2323   2345     1
   2323   2334     1
   2323   2335     1
   2324   2328     1
   2324   2329     1
   2324   2343     1
   2324   2344     1
   2325   2327     1
   2325   2342     1
   2325   2337     1
   2325   2338     1
   2326   2327     1
   2326   2342     1
   2326   2337     1
   2326   2338     1
   2327   2340     1
   2327   2341     1
   2328   2339     1
   2328   2331     1
   2328   2332     1
   2329   2339     1
   2329   2331     1
   2329   2332     1
   2331   2348     1
   2331   2340     1
   2331   2341     1
   2332   2348     1
   2332   2340     1
   2332   2341     1
   2334   4755     1
   2334   2346     1
   2334   2347     1
   2335   4755     1
   2335   2346     1
   2335   2347     1
   2337   4726     1
   2337   2343     1
   2337   2344     1
   2338   4726     1
   2338   2343     1
   2338   2344     1
   2342   4699     1
   2342   4700     1
   2343   4698     1
   2344   4698     1
   2345   4728     1
   2345   4729     1
   2346   4727     1
   2347   4727     1
   2349   2363     1
   2349   2364     1
   2349   2366     1
   2349   2367     1
   2349   2360     1
   2349   2361     1
   2350   2354     1
   2350   2355     1
   2350   2357     1
   2350   2358     1
   2350   2375     1
   2350   2376     1
   2351   2353     1
   2351   2356     1
   2351   2374     1
   2351   2363     1
   2351   2364     1
   2352   2353     1
   2352   2356     1
   2352   2374     1
   2352   2363     1
   2352   2364     1
   2353   2357     1
   2353   2358     1
   2353   2372     1
   2353   2373     1
   2354   2356     1
   2354   2371     1
   2354   2366     1
   2354   2367     1
   2355   2356     1
   2355   2371     1
   2355   2366     1
   2355   2367     1
   2356   2369     1
   2356   2370     1
   2357   2368     1
   2357   2360     1
   2357   2361     1
   2358   2368     1
   2358   2360     1
   2358   2361     1
   2360   2377     1
   2360   2369     1
   2360   2370     1
   2361   2377     1
   2361   2369     1
   2361   2370     1
   2363   4813     1
   2363   2375     1
   2363   2376     1
   2364   4813     1
   2364   2375     1
   2364   2376     1
   2366   4784     1
   2366   2372     1
   2366   2373     1
   2367   4784     1
   2367   2372     1
   2367   2373     1
   2371   4757     1
   2371   4758     1
   2372   4756     1
   2373   4756     1
   2374   4786     1
   2374   4787     1
   2375   4785     1
   2376   4785     1
   2378   2392     1
   2378   2393     1
   2378   2395     1
   2378   2396     1
   2378   2389     1
   2378   2390     1
   2379   2383     1
   2379   2384     1
   2379   2386     1
   2379   2387     1
   2379   2404     1
   2379   2405     1
   2380   2382     1
   2380   2385     1
   2380   2403     1
   2380   2392     1
   2380   2393     1
   2381   2382     1
   2381   2385     1
   2381   2403     1
   2381   2392     1
   2381   2393     1
   2382   2386     1
   2382   2387     1
   2382   2401     1
   2382   2402     1
   2383   2385     1
   2383   2400     1
   2383   2395     1
   2383   2396     1
   2384   2385     1
   2384   2400     1
   2384   2395     1
   2384   2396     1
   2385   2398     1
   2385   2399     1
   2386   2397     1
   2386   2389     1
   2386   2390     1
   2387   2397     1
   2387   2389     1
   2387   2390     1
   2389   2406     1
   2389   2398     1
   2389   2399     1
   2390   2406     1
   2390   2398     1
   2390   2399     1
   2392   4871     1
   2392   2404     1
   2392   2405     1
   2393   4871     1
   2393   2404     1
   2393   2405     1
   2395   4842     1
   2395   2401     1
   2395   2402     1
   2396   4842     1
   2396   2401     1
   2396   2402     1
   2400   4815     1
   2400   4816     1
   2401   4814     1
   2402   4814     1
   2403   4844     1
   2403   4845     1
   2404   4843     1
   2405   4843     1
   2407   2421     1
   2407   2422     1
   2407   2424     1
   2407   2425     1
   2407   2418     1
   2407   2419     1
   2408   2412     1
   2408   2413     1
   2408   2415     1
   2408   2416     1
   2408   2433     1
   2408   2434     1
   2409   2411     1
   2409   2414     1
   2409   2432     1
   2409   2421     1
   2409   2422     1
   2410   2411     1
   2410   2414     1
   2410   2432     1
   2410   2421     1
   2410   2422     1
   2411   2415     1
   2411   2416     1
   2411   2430     1
   2411   2431     1
   2412   2414     1
   2412   2429     1
   2412   2424     1
   2412   2425     1
   2413   2414     1
   2413   2429     1
   2413   2424     1
   2413   2425     1
   2414   2427     1
   2414   2428     1
   2415   2426     1
   2415   2418     1
   2415   2419     1
   2416   2426     1
   2416   2418     1
   2416   2419     1
   2418   2435     1
   2418   2427     1
   2418   2428     1
   2419   2435     1
   2419   2427     1
   2419   2428     1
   2421   4929     1
   2421   2433     1
   2421   2434     1
   2422   4929     1
   2422   2433     1
   2422   2434     1
   2424   4900     1
   2424   2430     1
   2424   2431     1
   2425   4900     1
   2425   2430     1
   2425   2431     1
   2429   4873     1
   2429   4874     1
   2430   4872     1
   2431   4872     1
   2432   4902     1
   2432   4903     1
   2433   4901     1
   2434   4901     1
   2436   2450     1
   2436   2451     1
   2436   2453     1
   2436   2454     1
   2436   2447     1
   2436   2448     1
   2437   2441     1
   2437   2442     1
   2437   2444     1
   2437   2445     1
   2437   2462     1
   2437   2463     1
   2438   2440     1
   2438   2443     1
   2438   2461     1
   2438   2450     1
   2438   2451     1
   2439   2440     1
   2439   2443     1
   2439   2461     1
   2439   2450     1
   2439   2451     1
   2440   2444     1
   2440   2445     1
   2440   2459     1
   2440   2460     1
   2441   2443     1
   2441   2458     1
   2441   2453     1
   2441   2454     1
   2442   2443     1
   2442   2458     1
   2442   2453     1
   2442   2454     1
   2443   2456     1
   2443   2457     1
   2444   2455     1
   2444   2447     1
   2444   2448     1
   2445   2455     1
   2445   2447     1
   2445   2448     1
   2447   2464     1
   2447   2456     1
   2447   2457     1
   2448   2464     1
   2448   2456     1
   2448   2457     1
   2450   4987     1
   2450   2462     1
   2450   2463     1
   2451   4987     1
   2451   2462     1
   2451   2463     1
   2453   4958     1
   2453   2459     1
   2453   2460     1
   2454   4958     1
   2454   2459     1
   2454   2460     1
   2458   4931     1
   2458   4932     1
   2459   4930     1
   2460   4930     1
   2461   4960     1
   2461   4961     1
   2462   4959     1
   2463   4959     1
   2465   2479     1
   2465   2480     1
   2465   2482     1
   2465   2483     1
   2465   2476     1
   2465   2477     1
   2466   2470     1
   2466   2471     1
   2466   2473     1
   2466   2474     1
   2466   2491     1
   2466   2492     1
   2467   2469     1
   2467   2472     1
   2467   2490     1
   2467   2479     1
   2467   2480     1
   2468   2469     1
   2468   2472     1
   2468   2490     1
   2468   2479     1
   2468   2480     1
   2469   2473     1
   2469   2474     1
   2469   2488     1
   2469   2489     1
   2470   2472     1
   2470   2487     1
   2470   2482     1
   2470   2483     1
   2471   2472     1
   2471   2487     1
   2471   2482     1
   2471   2483     1
   2472   2485     1
   2472   2486     1
   2473   2484     1
   2473   2476     1
   2473   2477     1
   2474   2484     1
   2474   2476     1
   2474   2477     1
   2476   2493     1
   2476   2485     1
   2476   2486     1
   2477   2493     1
   2477   2485     1
   2477   2486     1
   2479   5045     1
   2479   2491     1
   2479   2492     1
   2480   5045     1
   2480   2491     1
   2480   2492     1
   2482   5016     1
   2482   2488     1
   2482   2489     1
   2483   5016     1
   2483   2488     1
   2483   2489     1
   2487   4989     1
   2487   4990     1
   2488   4988     1
   2489   4988     1
   2490   5018     1
   2490   5019     1
   2491   5017     1
   2492   5017     1
   2494   2508     1
   2494   2509     1
   2494   2511     1
   2494   2512     1
   2494   2505     1
   2494   2506     1
   2495   2499     1
   2495   2500     1
   2495   2502     1
   2495   2503     1
   2495   2520     1
   2495   2521     1
   2496   2498     1
   2496   2501     1
   2496   2519     1
   2496   2508     1
   2496   2509     1
   2497   2498     1
   2497   2501     1
   2497   2519     1
   2497   2508     1
   2497   2509     1
   2498   2502     1
   2498   2503     1
   2498   2517     1
   2498   2518     1
   2499   2501     1
   2499   2516     1
   2499   2511     1
   2499   2512     1
   2500   2501     1
   2500   2516     1
   2500   2511     1
   2500   2512     1
   2501   2514     1
   2501   2515     1
   2502   2513     1
   2502   2505     1
   2502   2506     1
   2503   2513     1
   2503   2505     1
   2503   2506     1
   2505   2522     1
   2505   2514     1
   2505   2515     1
   2506   2522     1
   2506   2514     1
   2506   2515     1
   2508   5103     1
   2508   2520     1
   2508   2521     1
   2509   5103     1
   2509   2520     1
   2509   2521     1
   2511   5074     1
   2511   2517     1
   2511   2518     1
   2512   5074     1
   2512   2517     1
   2512   2518     1
   2516   5047     1
   2516   5048     1
   2517   5046     1
   2518   5046     1
   2519   5076     1
   2519   5077     1
   2520   5075     1
   2521   5075     1
   2523   2537     1
   2523   2538     1
   2523   2540     1
   2523   2541     1
   2523   2534     1
   2523   2535     1
   2524   2528     1
   2524   2529     1
   2524   2531     1
   2524   2532     1
   2524   2549     1
   2524   2550     1
   2525   2527     1
   2525   2530     1
   2525   2548     1
   2525   2537     1
   2525   2538     1
   2526   2527     1
   2526   2530     1
   2526   2548     1
   2526   2537     1
   2526   2538     1
   2527   2531     1
   2527   2532     1
   2527   2546     1
   2527   2547     1
   2528   2530     1
   2528   2545     1
   2528   2540     1
   2528   2541     1
   2529   2530     1
   2529   2545     1
   2529   2540     1
   2529   2541     1
   2530   2543     1
   2530   2544     1
   2531   2542     1
   2531   2534     1
   2531   2535     1
   2532   2542     1
   2532   2534     1
   2532   2535     1
   2534   2551     1
   2534   2543     1
   2534   2544     1
   2535   2551     1
   2535   2543     1
   2535   2544     1
   2537   5161     1
   2537   2549     1
   2537   2550     1
   2538   5161     1
   2538   2549     1
   2538   2550     1
   2540   5132     1
   2540   2546     1
   2540   2547     1
   2541   5132     1
   2541   2546     1
   2541   2547     1
   2545   5105     1
   2545   5106     1
   2546   5104     1
   2547   5104     1
   2548   5134     1
   2548   5135     1
   2549   5133     1
   2550   5133     1
   2552   2566     1
   2552   2567     1
   2552   2569     1
   2552   2570     1
   2552   2563     1
   2552   2564     1
   2553   2557     1
   2553   2558     1
   2553   2560     1
   2553   2561     1
   2553   2578     1
   2553   2579     1
   2554   2556     1
   2554   2559     1
   2554   2577     1
   2554   2566     1
   2554   2567     1
   2555   2556     1
   2555   2559     1
   2555   2577     1
   2555   2566     1
   2555   2567     1
   2556   2560     1
   2556   2561     1
   2556   2575     1
   2556   2576     1
   2557   2559     1
   2557   2574     1
   2557   2569     1
   2557   2570     1
   2558   2559     1
   2558   2574     1
   2558   2569     1
   2558   2570     1
   2559   2572     1
   2559   2573     1
   2560   2571     1
   2560   2563     1
   2560   2564     1
   2561   2571     1
   2561   2563     1
   2561   2564     1
   2563   2580     1
   2563   2572     1
   2563   2573     1
   2564   2580     1
   2564   2572     1
   2564   2573     1
   2566   5219     1
   2566   2578     1
   2566   2579     1
   2567   5219     1
   2567   2578     1
   2567   2579     1
   2569   5190     1
   2569   2575     1
   2569   2576     1
   2570   5190     1
   2570   2575     1
   2570   2576     1
   2574   5163     1
   2574   5164     1
   2575   5162     1
   2576   5162     1
   2577   5192     1
   2577   5193     1
   2578   5191     1
   2579   5191     1
   2581   2595     1
   2581   2596     1
   2581   2598     1
   2581   2599     1
   2581   2592     1
   2581   2593     1
   2582   2586     1
   2582   2587     1
   2582   2589     1
   2582   2590     1
   2582   2607     1
   2582   2608     1
   2583   2585     1
   2583   2588     1
   2583   2606     1
   2583   2595     1
   2583   2596     1
   2584   2585     1
   2584   2588     1
   2584   2606     1
   2584   2595     1
   2584   2596     1
   2585   2589     1
   2585   2590     1
   2585   2604     1
   2585   2605     1
   2586   2588     1
   2586   2603     1
   2586   2598     1
   2586   2599     1
   2587   2588     1
   2587   2603     1
   2587   2598     1
   2587   2599     1
   2588   2601     1
   2588   2602     1
   2589   2600     1
   2589   2592     1
   2589   2593     1
   2590   2600     1
   2590   2592     1
   2590   2593     1
   2592   2609     1
   2592   2601     1
   2592   2602     1
   2593   2609     1
   2593   2601     1
   2593   2602     1
   2595   5277     1
   2595   2607     1
   2595   2608     1
   2596   5277     1
   2596   2607     1
   2596   2608     1
   2598   5248     1
   2598   2604     1
   2598   2605     1
   2599   5248     1
   2599   2604     1
   2599   2605     1
   2603   5221     1
   2603   5222     1
   2604   5220     1
   2605   5220     1
   2606   5250     1
   2606   5251     1
   2607   5249     1
   2608   5249     1
   2610   2624     1
   2610   2625     1
   2610   2627     1
   2610   2628     1
   2610   2621     1
   2610   2622     1
   2611   2615     1
   2611   2616     1
   2611   2618     1
   2611   2619     1
   2611   2636     1
   2611   2637     1
   2612   2614     1
   2612   2617     1
   2612   2635     1
   2612   2624     1
   2612   2625     1
   2613   2614     1
   2613   2617     1
   2613   2635     1
   2613   2624     1
   2613   2625     1
   2614   2618     1
   2614   2619     1
   2614   2633     1
   2614   2634     1
   2615   2617     1
   2615   2632     1
   2615   2627     1
   2615   2628     1
   2616   2617     1
   2616   2632     1
   2616   2627     1
   2616   2628     1
   2617   2630     1
   2617   2631     1
   2618   2629     1
   2618   2621     1
   2618   2622     1
   2619   2629     1
   2619   2621     1
   2619   2622     1
   2621   2638     1
   2621   2630     1
   2621   2631     1
   2622   2638     1
   2622   2630     1
   2622   2631     1
   2624   5335     1
   2624   2636     1
   2624   2637     1
   2625   5335     1
   2625   2636     1
   2625   2637     1
   2627   5306     1
   2627   2633     1
   2627   2634     1
   2628   5306     1
   2628   2633     1
   2628   2634     1
   2632   5279     1
   2632   5280     1
   2633   5278     1
   2634   5278     1
   2635   5308     1
   2635   5309     1
   2636   5307     1
   2637   5307     1
   2639   2653     1
   2639   2654     1
   2639   2656     1
   2639   2657     1
   2639   2650     1
   2639   2651     1
   2640   2644     1
   2640   2645     1
   2640   2647     1
   2640   2648     1
   2640   2665     1
   2640   2666     1
   2641   2643     1
   2641   2646     1
   2641   2664     1
   2641   2653     1
   2641   2654     1
   2642   2643     1
   2642   2646     1
   2642   2664     1
   2642   2653     1
   2642   2654     1
   2643   2647     1
   2643   2648     1
   2643   2662     1
   2643   2663     1
   2644   2646     1
   2644   2661     1
   2644   2656     1
   2644   2657     1
   2645   2646     1
   2645   2661     1
   2645   2656     1
   2645   2657     1
   2646   2659     1
   2646   2660     1
   2647   2658     1
   2647   2650     1
   2647   2651     1
   2648   2658     1
   2648   2650     1
   2648   2651     1
   2650   2667     1
   2650   2659     1
   2650   2660     1
   2651   2667     1
   2651   2659     1
   2651   2660     1
   2653   5393     1
   2653   2665     1
   2653   2666     1
   2654   5393     1
   2654   2665     1
   2654   2666     1
   2656   5364     1
   2656   2662     1
   2656   2663     1
   2657   5364     1
   2657   2662     1
   2657   2663     1
   2661   5337     1
   2661   5338     1
   2662   5336     1
   2663   5336     1
   2664   5366     1
   2664   5367     1
   2665   5365     1
   2666   5365     1
   2668   2682     1
   2668   2683     1
   2668   2685     1
   2668   2686     1
   2668   2679     1
   2668   2680     1
   2669   2673     1
   2669   2674     1
   2669   2676     1
   2669   2677     1
   2669   2694     1
   2669   2695     1
   2670   2672     1
   2670   2675     1
   2670   2693     1
   2670   2682     1
   2670   2683     1
   2671   2672     1
   2671   2675     1
   2671   2693     1
   2671   2682     1
   2671   2683     1
   2672   2676     1
   2672   2677     1
   2672   2691     1
   2672   2692     1
   2673   2675     1
   2673   2690     1
   2673   2685     1
   2673   2686     1
   2674   2675     1
   2674   2690     1
   2674   2685     1
   2674   2686     1
   2675   2688     1
   2675   2689     1
   2676   2687     1
   2676   2679     1
   2676   2680     1
   2677   2687     1
   2677   2679     1
   2677   2680     1
   2679   2696     1
   2679   2688     1
   2679   2689     1
   2680   2696     1
   2680   2688     1
   2680   2689     1
   2682   5451     1
   2682   2694     1
   2682   2695     1
   2683   5451     1
   2683   2694     1
   2683   2695     1
   2685   5422     1
   2685   2691     1
   2685   2692     1
   2686   5422     1
   2686   2691     1
   2686   2692     1
   2690   5395     1
   2690   5396     1
   2691   5394     1
   2692   5394     1
   2693   5424     1
   2693   5425     1
   2694   5423     1
   2695   5423     1
   2697   2711     1
   2697   2712     1
   2697   2714     1
   2697   2715     1
   2697   2708     1
   2697   2709     1
   2698   2702     1
   2698   2703     1
   2698   2705     1
   2698   2706     1
   2698   2723     1
   2698   2724     1
   2699   2701     1
   2699   2704     1
   2699   2722     1
   2699   2711     1
   2699   2712     1
   2700   2701     1
   2700   2704     1
   2700   2722     1
   2700   2711     1
   2700   2712     1
   2701   2705     1
   2701   2706     1
   2701   2720     1
   2701   2721     1
   2702   2704     1
   2702   2719     1
   2702   2714     1
   2702   2715     1
   2703   2704     1
   2703   2719     1
   2703   2714     1
   2703   2715     1
   2704   2717     1
   2704   2718     1
   2705   2716     1
   2705   2708     1
   2705   2709     1
   2706   2716     1
   2706   2708     1
   2706   2709     1
   2708   2725     1
   2708   2717     1
   2708   2718     1
   2709   2725     1
   2709   2717     1
   2709   2718     1
   2711   5509     1
   2711   2723     1
   2711   2724     1
   2712   5509     1
   2712   2723     1
   2712   2724     1
   2714   5480     1
   2714   2720     1
   2714   2721     1
   2715   5480     1
   2715   2720     1
   2715   2721     1
   2719   5453     1
   2719   5454     1
   2720   5452     1
   2721   5452     1
   2722   5482     1
   2722   5483     1
   2723   5481     1
   2724   5481     1
   2726   2740     1
   2726   2741     1
   2726   2743     1
   2726   2744     1
   2726   2737     1
   2726   2738     1
   2727   2731     1
   2727   2732     1
   2727   2734     1
   2727   2735     1
   2727   2752     1
   2727   2753     1
   2728   2730     1
   2728   2733     1
   2728   2751     1
   2728   2740     1
   2728   2741     1
   2729   2730     1
   2729   2733     1
   2729   2751     1
   2729   2740     1
   2729   2741     1
   2730   2734     1
   2730   2735     1
   2730   2749     1
   2730   2750     1
   2731   2733     1
   2731   2748     1
   2731   2743     1
   2731   2744     1
   2732   2733     1
   2732   2748     1
   2732   2743     1
   2732   2744     1
   2733   2746     1
   2733   2747     1
   2734   2745     1
   2734   2737     1
   2734   2738     1
   2735   2745     1
   2735   2737     1
   2735   2738     1
   2737   2754     1
   2737   2746     1
   2737   2747     1
   2738   2754     1
   2738   2746     1
   2738   2747     1
   2740   5567     1
   2740   2752     1
   2740   2753     1
   2741   5567     1
   2741   2752     1
   2741   2753     1
   2743   5538     1
   2743   2749     1
   2743   2750     1
   2744   5538     1
   2744   2749     1
   2744   2750     1
   2748   5511     1
   2748   5512     1
   2749   5510     1
   2750   5510     1
   2751   5540     1
   2751   5541     1
   2752   5539     1
   2753   5539     1
   2755   2769     1
   2755   2770     1
   2755   2772     1
   2755   2773     1
   2755   2766     1
   2755   2767     1
   2756   2760     1
   2756   2761     1
   2756   2763     1
   2756   2764     1
   2756   2781     1
   2756   2782     1
   2757   2759     1
   2757   2762     1
   2757   2780     1
   2757   2769     1
   2757   2770     1
   2758   2759     1
   2758   2762     1
   2758   2780     1
   2758   2769     1
   2758   2770     1
   2759   2763     1
   2759   2764     1
   2759   2778     1
   2759   2779     1
   2760   2762     1
   2760   2777     1
   2760   2772     1
   2760   2773     1
   2761   2762     1
   2761   2777     1
   2761   2772     1
   2761   2773     1
   2762   2775     1
   2762   2776     1
   2763   2774     1
   2763   2766     1
   2763   2767     1
   2764   2774     1
   2764   2766     1
   2764   2767     1
   2766   2783     1
   2766   2775     1
   2766   2776     1
   2767   2783     1
   2767   2775     1
   2767   2776     1
   2769   5625     1
   2769   2781     1
   2769   2782     1
   2770   5625     1
   2770   2781     1
   2770   2782     1
   2772   5596     1
   2772   2778     1
   2772   2779     1
   2773   5596     1
   2773   2778     1
   2773   2779     1
   2777   5569     1
   2777   5570     1
   2778   5568     1
   2779   5568     1
   2780   5598     1
   2780   5599     1
   2781   5597     1
   2782   5597     1
   2784   2798     1
   2784   2799     1
   2784   2801     1
   2784   2802     1
   2784   2795     1
   2784   2796     1
   2785   2789     1
   2785   2790     1
   2785   2792     1
   2785   2793     1
   2785   2810     1
   2785   2811     1
   2786   2788     1
   2786   2791     1
   2786   2809     1
   2786   2798     1
   2786   2799     1
   2787   2788     1
   2787   2791     1
   2787   2809     1
   2787   2798     1
   2787   2799     1
   2788   2792     1
   2788   2793     1
   2788   2807     1
   2788   2808     1
   2789   2791     1
   2789   2806     1
   2789   2801     1
   2789   2802     1
   2790   2791     1
   2790   2806     1
   2790   2801     1
   2790   2802     1
   2791   2804     1
   2791   2805     1
   2792   2803     1
   2792   2795     1
   2792   2796     1
   2793   2803     1
   2793   2795     1
   2793   2796     1
   2795   2812     1
   2795   2804     1
   2795   2805     1
   2796   2812     1
   2796   2804     1
   2796   2805     1
   2798   5683     1
   2798   2810     1
   2798   2811     1
   2799   5683     1
   2799   2810     1
   2799   2811     1
   2801   5654     1
   2801   2807     1
   2801   2808     1
   2802   5654     1
   2802   2807     1
   2802   2808     1
   2806   5627     1
   2806   5628     1
   2807   5626     1
   2808   5626     1
   2809   5656     1
   2809   5657     1
   2810   5655     1
   2811   5655     1
   2813   2827     1
   2813   2828     1
   2813   2830     1
   2813   2831     1
   2813   2824     1
   2813   2825     1
   2814   2818     1
   2814   2819     1
   2814   2821     1
   2814   2822     1
   2814   2839     1
   2814   2840     1
   2815   2817     1
   2815   2820     1
   2815   2838     1
   2815   2827     1
   2815   2828     1
   2816   2817     1
   2816   2820     1
   2816   2838     1
   2816   2827     1
   2816   2828     1
   2817   2821     1
   2817   2822     1
   2817   2836     1
   2817   2837     1
   2818   2820     1
   2818   2835     1
   2818   2830     1
   2818   2831     1
   2819   2820     1
   2819   2835     1
   2819   2830     1
   2819   2831     1
   2820   2833     1
   2820   2834     1
   2821   2832     1
   2821   2824     1
   2821   2825     1
   2822   2832     1
   2822   2824     1
   2822   2825     1
   2824   2841     1
   2824   2833     1
   2824   2834     1
   2825   2841     1
   2825   2833     1
   2825   2834     1
   2827   5741     1
   2827   2839     1
   2827   2840     1
   2828   5741     1
   2828   2839     1
   2828   2840     1
   2830   5712     1
   2830   2836     1
   2830   2837     1
   2831   5712     1
   2831   2836     1
   2831   2837     1
   2835   5685     1
   2835   5686     1
   2836   5684     1
   2837   5684     1
   2838   5714     1
   2838   5715     1
   2839   5713     1
   2840   5713     1
   2842   2856     1
   2842   2857     1
   2842   2859     1
   2842   2860     1
   2842   2853     1
   2842   2854     1
   2843   2847     1
   2843   2848     1
   2843   2850     1
   2843   2851     1
   2843   2868     1
   2843   2869     1
   2844   2846     1
   2844   2849     1
   2844   2867     1
   2844   2856     1
   2844   2857     1
   2845   2846     1
   2845   2849     1
   2845   2867     1
   2845   2856     1
   2845   2857     1
   2846   2850     1
   2846   2851     1
   2846   2865     1
   2846   2866     1
   2847   2849     1
   2847   2864     1
   2847   2859     1
   2847   2860     1
   2848   2849     1
   2848   2864     1
   2848   2859     1
   2848   2860     1
   2849   2862     1
   2849   2863     1
   2850   2861     1
   2850   2853     1
   2850   2854     1
   2851   2861     1
   2851   2853     1
   2851   2854     1
   2853   2870     1
   2853   2862     1
   2853   2863     1
   2854   2870     1
   2854   2862     1
   2854   2863     1
   2856   5799     1
   2856   2868     1
   2856   2869     1
   2857   5799     1
   2857   2868     1
   2857   2869     1
   2859   5770     1
   2859   2865     1
   2859   2866     1
   2860   5770     1
   2860   2865     1
   2860   2866     1
   2864   5743     1
   2864   5744     1
   2865   5742     1
   2866   5742     1
   2867   5772     1
   2867   5773     1
   2868   5771     1
   2869   5771     1
   2871   2885     1
   2871   2886     1
   2871   2888     1
   2871   2889     1
   2871   2882     1
   2871   2883     1
   2872   2876     1
   2872   2877     1
   2872   2879     1
   2872   2880     1
   2872   2897     1
   2872   2898     1
   2873   2875     1
   2873   2878     1
   2873   2896     1
   2873   2885     1
   2873   2886     1
   2874   2875     1
   2874   2878     1
   2874   2896     1
   2874   2885     1
   2874   2886     1
   2875   2879     1
   2875   2880     1
   2875   2894     1
   2875   2895     1
   2876   2878     1
   2876   2893     1
   2876   2888     1
   2876   2889     1
   2877   2878     1
   2877   2893     1
   2877   2888     1
   2877   2889     1
   2878   2891     1
   2878   2892     1
   2879   2890     1
   2879   2882     1
   2879   2883     1
   2880   2890     1
   2880   2882     1
   2880   2883     1
   2882   2899     1
   2882   2891     1
   2882   2892     1
   2883   2899     1
   2883   2891     1
   2883   2892     1
   2885   5857     1
   2885   2897     1
   2885   2898     1
   2886   5857     1
   2886   2897     1
   2886   2898     1
   2888   5828     1
   2888   2894     1
   2888   2895     1
   2889   5828     1
   2889   2894     1
   2889   2895     1
   2893   5801     1
   2893   5802     1
   2894   5800     1
   2895   5800     1
   2896   5830     1
   2896   5831     1
   2897   5829     1
   2898   5829     1
   2900   2914     1
   2900   2915     1
   2900   2917     1
   2900   2918     1
   2900   2911     1
   2900   2912     1
   2901   2905     1
   2901   2906     1
   2901   2908     1
   2901   2909     1
   2901   2926     1
   2901   2927     1
   2902   2904     1
   2902   2907     1
   2902   2925     1
   2902   2914     1
   2902   2915     1
   2903   2904     1
   2903   2907     1
   2903   2925     1
   2903   2914     1
   2903   2915     1
   2904   2908     1
   2904   2909     1
   2904   2923     1
   2904   2924     1
   2905   2907     1
   2905   2922     1
   2905   2917     1
   2905   2918     1
   2906   2907     1
   2906   2922     1
   2906   2917     1
   2906   2918     1
   2907   2920     1
   2907   2921     1
   2908   2919     1
   2908   2911     1
   2908   2912     1
   2909   2919     1
   2909   2911     1
   2909   2912     1
   2911   2928     1
   2911   2920     1
   2911   2921     1
   2912   2928     1
   2912   2920     1
   2912   2921     1
   2914   5915     1
   2914   2926     1
   2914   2927     1
   2915   5915     1
   2915   2926     1
   2915   2927     1
   2917   5886     1
   2917   2923     1
   2917   2924     1
   2918   5886     1
   2918   2923     1
   2918   2924     1
   2922   5859     1
   2922   5860     1
   2923   5858     1
   2924   5858     1
   2925   5888     1
   2925   5889     1
   2926   5887     1
   2927   5887     1
   2929   2943     1
   2929   2944     1
   2929   2946     1
   2929   2947     1
   2929   2940     1
   2929   2941     1
   2930   2934     1
   2930   2935     1
   2930   2937     1
   2930   2938     1
   2930   2955     1
   2930   2956     1
   2931   2933     1
   2931   2936     1
   2931   2954     1
   2931   2943     1
   2931   2944     1
   2932   2933     1
   2932   2936     1
   2932   2954     1
   2932   2943     1
   2932   2944     1
   2933   2937     1
   2933   2938     1
   2933   2952     1
   2933   2953     1
   2934   2936     1
   2934   2951     1
   2934   2946     1
   2934   2947     1
   2935   2936     1
   2935   2951     1
   2935   2946     1
   2935   2947     1
   2936   2949     1
   2936   2950     1
   2937   2948     1
   2937   2940     1
   2937   2941     1
   2938   2948     1
   2938   2940     1
   2938   2941     1
   2940   2957     1
   2940   2949     1
   2940   2950     1
   2941   2957     1
   2941   2949     1
   2941   2950     1
   2943   5973     1
   2943   2955     1
   2943   2956     1
   2944   5973     1
   2944   2955     1
   2944   2956     1
   2946   5944     1
   2946   2952     1
   2946   2953     1
   2947   5944     1
   2947   2952     1
   2947   2953     1
   2951   5917     1
   2951   5918     1
   2952   5916     1
   2953   5916     1
   2954   5946     1
   2954   5947     1
   2955   5945     1
   2956   5945     1
   2958   2972     1
   2958   2973     1
   2958   2975     1
   2958   2976     1
   2958   2969     1
   2958   2970     1
   2959   2963     1
   2959   2964     1
   2959   2966     1
   2959   2967     1
   2959   2984     1
   2959   2985     1
   2960   2962     1
   2960   2965     1
   2960   2983     1
   2960   2972     1
   2960   2973     1
   2961   2962     1
   2961   2965     1
   2961   2983     1
   2961   2972     1
   2961   2973     1
   2962   2966     1
   2962   2967     1
   2962   2981     1
   2962   2982     1
   2963   2965     1
   2963   2980     1
   2963   2975     1
   2963   2976     1
   2964   2965     1
   2964   2980     1
   2964   2975     1
   2964   2976     1
   2965   2978     1
   2965   2979     1
   2966   2977     1
   2966   2969     1
   2966   2970     1
   2967   2977     1
   2967   2969     1
   2967   2970     1
   2969   2986     1
   2969   2978     1
   2969   2979     1
   2970   2986     1
   2970   2978     1
   2970   2979     1
   2972   6031     1
   2972   2984     1
   2972   2985     1
   2973   6031     1
   2973   2984     1
   2973   2985     1
   2975   6002     1
   2975   2981     1
   2975   2982     1
   2976   6002     1
   2976   2981     1
   2976   2982     1
   2980   5975     1
   2980   5976     1
   2981   5974     1
   2982   5974     1
   2983   6004     1
   2983   6005     1
   2984   6003     1
   2985   6003     1
   2987   3001     1
   2987   3002     1
   2987   3004     1
   2987   3005     1
   2987   2998     1
   2987   2999     1
   2988   2992     1
   2988   2993     1
   2988   2995     1
   2988   2996     1
   2988   3013     1
   2988   3014     1
   2989   2991     1
   2989   2994     1
   2989   3012     1
   2989   3001     1
   2989   3002     1
   2990   2991     1
   2990   2994     1
   2990   3012     1
   2990   3001     1
   2990   3002     1
   2991   2995     1
   2991   2996     1
   2991   3010     1
   2991   3011     1
   2992   2994     1
   2992   3009     1
   2992   3004     1
   2992   3005     1
   2993   2994     1
   2993   3009     1
   2993   3004     1
   2993   3005     1
   2994   3007     1
   2994   3008     1
   2995   3006     1
   2995   2998     1
   2995   2999     1
   2996   3006     1
   2996   2998     1
   2996   2999     1
   2998   3015     1
   2998   3007     1
   2998   3008     1
   2999   3015     1
   2999   3007     1
   2999   3008     1
   3001   6089     1
   3001   3013     1
   3001   3014     1
   3002   6089     1
   3002   3013     1
   3002   3014     1
   3004   6060     1
   3004   3010     1
   3004   3011     1
   3005   6060     1
   3005   3010     1
   3005   3011     1
   3009   6033     1
   3009   6034     1
   3010   6032     1
   3011   6032     1
   3012   6062     1
   3012   6063     1
   3013   6061     1
   3014   6061     1
   3016   3030     1
   3016   3031     1
   3016   3033     1
   3016   3034     1
   3016   3027     1
   3016   3028     1
   3017   3021     1
   3017   3022     1
   3017   3024     1
   3017   3025     1
   3017   3042     1
   3017   3043     1
   3018   3020     1
   3018   3023     1
   3018   3041     1
   3018   3030     1
   3018   3031     1
   3019   3020     1
   3019   3023     1
   3019   3041     1
   3019   3030     1
   3019   3031     1
   3020   3024     1
   3020   3025     1
   3020   3039     1
   3020   3040     1
   3021   3023     1
   3021   3038     1
   3021   3033     1
   3021   3034     1
   3022   3023     1
   3022   3038     1
   3022   3033     1
   3022   3034     1
   3023   3036     1
   3023   3037     1
   3024   3035     1
   3024   3027     1
   3024   3028     1
   3025   3035     1
   3025   3027     1
   3025   3028     1
   3027   3044     1
   3027   3036     1
   3027   3037     1
   3028   3044     1
   3028   3036     1
   3028   3037     1
   3030   6147     1
   3030   3042     1
   3030   3043     1
   3031   6147     1
   3031   3042     1
   3031   3043     1
   3033   6118     1
   3033   3039     1
   3033   3040     1
   3034   6118     1
   3034   3039     1
   3034   3040     1
   3038   6091     1
   3038   6092     1
   3039   6090     1
   3040   6090     1
   3041   6120     1
   3041   6121     1
   3042   6119     1
   3043   6119     1
   3045   3059     1
   3045   3060     1
   3045   3062     1
   3045   3063     1
   3045   3056     1
   3045   3057     1
   3046   3050     1
   3046   3051     1
   3046   3053     1
   3046   3054     1
   3046   3071     1
   3046   3072     1
   3047   3049     1
   3047   3052     1
   3047   3070     1
   3047   3059     1
   3047   3060     1
   3048   3049     1
   3048   3052     1
   3048   3070     1
   3048   3059     1
   3048   3060     1
   3049   3053     1
   3049   3054     1
   3049   3068     1
   3049   3069     1
   3050   3052     1
   3050   3067     1
   3050   3062     1
   3050   3063     1
   3051   3052     1
   3051   3067     1
   3051   3062     1
   3051   3063     1
   3052   3065     1
   3052   3066     1
   3053   3064     1
   3053   3056     1
   3053   3057     1
   3054   3064     1
   3054   3056     1
   3054   3057     1
   3056   3073     1
   3056   3065     1
   3056   3066     1
   3057   3073     1
   3057   3065     1
   3057   3066     1
   3059   6205     1
   3059   3071     1
   3059   3072     1
   3060   6205     1
   3060   3071     1
   3060   3072     1
   3062   6176     1
   3062   3068     1
   3062   3069     1
   3063   6176     1
   3063   3068     1
   3063   3069     1
   3067   6149     1
   3067   6150     1
   3068   6148     1
   3069   6148     1
   3070   6178     1
   3070   6179     1
   3071   6177     1
   3072   6177     1
   3074   3088     1
   3074   3089     1
   3074   3091     1
   3074   3092     1
   3074   3085     1
   3074   3086     1
   3075   3079     1
   3075   3080     1
   3075   3082     1
   3075   3083     1
   3075   3100     1
   3075   3101     1
   3076   3078     1
   3076   3081     1
   3076   3099     1
   3076   3088     1
   3076   3089     1
   3077   3078     1
   3077   3081     1
   3077   3099     1
   3077   3088     1
   3077   3089     1
   3078   3082     1
   3078   3083     1
   3078   3097     1
   3078   3098     1
   3079   3081     1
   3079   3096     1
   3079   3091     1
   3079   3092     1
   3080   3081     1
   3080   3096     1
   3080   3091     1
   3080   3092     1
   3081   3094     1
   3081   3095     1
   3082   3093     1
   3082   3085     1
   3082   3086     1
   3083   3093     1
   3083   3085     1
   3083   3086     1
   3085   3102     1
   3085   3094     1
   3085   3095     1
   3086   3102     1
   3086   3094     1
   3086   3095     1
   3088   6263     1
   3088   3100     1
   3088   3101     1
   3089   6263     1
   3089   3100     1
   3089   3101     1
   3091   6234     1
   3091   3097     1
   3091   3098     1
   3092   6234     1
   3092   3097     1
   3092   3098     1
   3096   6207     1
   3096   6208     1
   3097   6206     1
   3098   6206     1
   3099   6236     1
   3099   6237     1
   3100   6235     1
   3101   6235     1
   3103   3117     1
   3103   3118     1
   3103   3120     1
   3103   3121     1
   3103   3114     1
   3103   3115     1
   3104   3108     1
   3104   3109     1
   3104   3111     1
   3104   3112     1
   3104   3129     1
   3104   3130     1
   3105   3107     1
   3105   3110     1
   3105   3128     1
   3105   3117     1
   3105   3118     1
   3106   3107     1
   3106   3110     1
   3106   3128     1
   3106   3117     1
   3106   3118     1
   3107   3111     1
   3107   3112     1
   3107   3126     1
   3107   3127     1
   3108   3110     1
   3108   3125     1
   3108   3120     1
   3108   3121     1
   3109   3110     1
   3109   3125     1
   3109   3120     1
   3109   3121     1
   3110   3123     1
   3110   3124     1
   3111   3122     1
   3111   3114     1
   3111   3115     1
   3112   3122     1
   3112   3114     1
   3112   3115     1
   3114   3131     1
   3114   3123     1
   3114   3124     1
   3115   3131     1
   3115   3123     1
   3115   3124     1
   3117   6321     1
   3117   3129     1
   3117   3130     1
   3118   6321     1
   3118   3129     1
   3118   3130     1
   3120   6292     1
   3120   3126     1
   3120   3127     1
   3121   6292     1
   3121   3126     1
   3121   3127     1
   3125   6265     1
   3125   6266     1
   3126   6264     1
   3127   6264     1
   3128   6294     1
   3128   6295     1
   3129   6293     1
   3130   6293     1
   3132   3146     1
   3132   3147     1
   3132   3149     1
   3132   3150     1
   3132   3143     1
   3132   3144     1
   3133   3137     1
   3133   3138     1
   3133   3140     1
   3133   3141     1
   3133   3158     1
   3133   3159     1
   3134   3136     1
   3134   3139     1
   3134   3157     1
   3134   3146     1
   3134   3147     1
   3135   3136     1
   3135   3139     1
   3135   3157     1
   3135   3146     1
   3135   3147     1
   3136   3140     1
   3136   3141     1
   3136   3155     1
   3136   3156     1
   3137   3139     1
   3137   3154     1
   3137   3149     1
   3137   3150     1
   3138   3139     1
   3138   3154     1
   3138   3149     1
   3138   3150     1
   3139   3152     1
   3139   3153     1
   3140   3151     1
   3140   3143     1
   3140   3144     1
   3141   3151     1
   3141   3143     1
   3141   3144     1
   3143   3160     1
   3143   3152     1
   3143   3153     1
   3144   3160     1
   3144   3152     1
   3144   3153     1
   3146   6379     1
   3146   3158     1
   3146   3159     1
   3147   6379     1
   3147   3158     1
   3147   3159     1
   3149   6350     1
   3149   3155     1
   3149   3156     1
   3150   6350     1
   3150   3155     1
   3150   3156     1
   3154   6323     1
   3154   6324     1
   3155   6322     1
   3156   6322     1
   3157   6352     1
   3157   6353     1
   3158   6351     1
   3159   6351     1
   3161   3175     1
   3161   3176     1
   3161   3178     1
   3161   3179     1
   3161   3172     1
   3161   3173     1
   3162   3166     1
   3162   3167     1
   3162   3169     1
   3162   3170     1
   3162   3187     1
   3162   3188     1
   3163   3165     1
   3163   3168     1
   3163   3186     1
   3163   3175     1
   3163   3176     1
   3164   3165     1
   3164   3168     1
   3164   3186     1
   3164   3175     1
   3164   3176     1
   3165   3169     1
   3165   3170     1
   3165   3184     1
   3165   3185     1
   3166   3168     1
   3166   3183     1
   3166   3178     1
   3166   3179     1
   3167   3168     1
   3167   3183     1
   3167   3178     1
   3167   3179     1
   3168   3181     1
   3168   3182     1
   3169   3180     1
   3169   3172     1
   3169   3173     1
   3170   3180     1
   3170   3172     1
   3170   3173     1
   3172   3189     1
   3172   3181     1
   3172   3182     1
   3173   3189     1
   3173   3181     1
   3173   3182     1
   3175   6437     1
   3175   3187     1
   3175   3188     1
   3176   6437     1
   3176   3187     1
   3176   3188     1
   3178   6408     1
   3178   3184     1
   3178   3185     1
   3179   6408     1
   3179   3184     1
   3179   3185     1
   3183   6381     1
   3183   6382     1
   3184   6380     1
   3185   6380     1
   3186   6410     1
   3186   6411     1
   3187   6409     1
   3188   6409     1
   3190   3204     1
   3190   3205     1
   3190   3207     1
   3190   3208     1
   3190   3201     1
   3190   3202     1
   3191   3195     1
   3191   3196     1
   3191   3198     1
   3191   3199     1
   3191   3216     1
   3191   3217     1
   3192   3194     1
   3192   3197     1
   3192   3215     1
   3192   3204     1
   3192   3205     1
   3193   3194     1
   3193   3197     1
   3193   3215     1
   3193   3204     1
   3193   3205     1
   3194   3198     1
   3194   3199     1
   3194   3213     1
   3194   3214     1
   3195   3197     1
   3195   3212     1
   3195   3207     1
   3195   3208     1
   3196   3197     1
   3196   3212     1
   3196   3207     1
   3196   3208     1
   3197   3210     1
   3197   3211     1
   3198   3209     1
   3198   3201     1
   3198   3202     1
   3199   3209     1
   3199   3201     1
   3199   3202     1
   3201   3218     1
   3201   3210     1
   3201   3211     1
   3202   3218     1
   3202   3210     1
   3202   3211     1
   3204   6495     1
   3204   3216     1
   3204   3217     1
   3205   6495     1
   3205   3216     1
   3205   3217     1
   3207   6466     1
   3207   3213     1
   3207   3214     1
   3208   6466     1
   3208   3213     1
   3208   3214     1
   3212   6439     1
   3212   6440     1
   3213   6438     1
   3214   6438     1
   3215   6468     1
   3215   6469     1
   3216   6467     1
   3217   6467     1
   3219   3233     1
   3219   3234     1
   3219   3236     1
   3219   3237     1
   3219   3230     1
   3219   3231     1
   3220   3224     1
   3220   3225     1
   3220   3227     1
   3220   3228     1
   3220   3245     1
   3220   3246     1
   3221   3223     1
   3221   3226     1
   3221   3244     1
   3221   3233     1
   3221   3234     1
   3222   3223     1
   3222   3226     1
   3222   3244     1
   3222   3233     1
   3222   3234     1
   3223   3227     1
   3223   3228     1
   3223   3242     1
   3223   3243     1
   3224   3226     1
   3224   3241     1
   3224   3236     1
   3224   3237     1
   3225   3226     1
   3225   3241     1
   3225   3236     1
   3225   3237     1
   3226   3239     1
   3226   3240     1
   3227   3238     1
   3227   3230     1
   3227   3231     1
   3228   3238     1
   3228   3230     1
   3228   3231     1
   3230   3247     1
   3230   3239     1
   3230   3240     1
   3231   3247     1
   3231   3239     1
   3231   3240     1
   3233   6553     1
   3233   3245     1
   3233   3246     1
   3234   6553     1
   3234   3245     1
   3234   3246     1
   3236   6524     1
   3236   3242     1
   3236   3243     1
   3237   6524     1
   3237   3242     1
   3237   3243     1
   3241   6497     1
   3241   6498     1
   3242   6496     1
   3243   6496     1
   3244   6526     1
   3244   6527     1
   3245   6525     1
   3246   6525     1
   3248   3262     1
   3248   3263     1
   3248   3265     1
   3248   3266     1
   3248   3259     1
   3248   3260     1
   3249   3253     1
   3249   3254     1
   3249   3256     1
   3249   3257     1
   3249   3274     1
   3249   3275     1
   3250   3252     1
   3250   3255     1
   3250   3273     1
   3250   3262     1
   3250   3263     1
   3251   3252     1
   3251   3255     1
   3251   3273     1
   3251   3262     1
   3251   3263     1
   3252   3256     1
   3252   3257     1
   3252   3271     1
   3252   3272     1
   3253   3255     1
   3253   3270     1
   3253   3265     1
   3253   3266     1
   3254   3255     1
   3254   3270     1
   3254   3265     1
   3254   3266     1
   3255   3268     1
   3255   3269     1
   3256   3267     1
   3256   3259     1
   3256   3260     1
   3257   3267     1
   3257   3259     1
   3257   3260     1
   3259   3276     1
   3259   3268     1
   3259   3269     1
   3260   3276     1
   3260   3268     1
   3260   3269     1
   3262   6611     1
   3262   3274     1
   3262   3275     1
   3263   6611     1
   3263   3274     1
   3263   3275     1
   3265   6582     1
   3265   3271     1
   3265   3272     1
   3266   6582     1
   3266   3271     1
   3266   3272     1
   3270   6555     1
   3270   6556     1
   3271   6554     1
   3272   6554     1
   3273   6584     1
   3273   6585     1
   3274   6583     1
   3275   6583     1
   3277   3291     1
   3277   3292     1
   3277   3294     1
   3277   3295     1
   3277   3288     1
   3277   3289     1
   3278   3282     1
   3278   3283     1
   3278   3285     1
   3278   3286     1
   3278   3303     1
   3278   3304     1
   3279   3281     1
   3279   3284     1
   3279   3302     1
   3279   3291     1
   3279   3292     1
   3280   3281     1
   3280   3284     1
   3280   3302     1
   3280   3291     1
   3280   3292     1
   3281   3285     1
   3281   3286     1
   3281   3300     1
   3281   3301     1
   3282   3284     1
   3282   3299     1
   3282   3294     1
   3282   3295     1
   3283   3284     1
   3283   3299     1
   3283   3294     1
   3283   3295     1
   3284   3297     1
   3284   3298     1
   3285   3296     1
   3285   3288     1
   3285   3289     1
   3286   3296     1
   3286   3288     1
   3286   3289     1
   3288   3305     1
   3288   3297     1
   3288   3298     1
   3289   3305     1
   3289   3297     1
   3289   3298     1
   3291   6669     1
   3291   3303     1
   3291   3304     1
   3292   6669     1
   3292   3303     1
   3292   3304     1
   3294   6640     1
   3294   3300     1
   3294   3301     1
   3295   6640     1
   3295   3300     1
   3295   3301     1
   3299   6613     1
   3299   6614     1
   3300   6612     1
   3301   6612     1
   3302   6642     1
   3302   6643     1
   3303   6641     1
   3304   6641     1
   3306   3320     1
   3306   3321     1
   3306   3323     1
   3306   3324     1
   3306   3317     1
   3306   3318     1
   3307   3311     1
   3307   3312     1
   3307   3314     1
   3307   3315     1
   3307   3332     1
   3307   3333     1
   3308   3310     1
   3308   3313     1
   3308   3331     1
   3308   3320     1
   3308   3321     1
   3309   3310     1
   3309   3313     1
   3309   3331     1
   3309   3320     1
   3309   3321     1
   3310   3314     1
   3310   3315     1
   3310   3329     1
   3310   3330     1
   3311   3313     1
   3311   3328     1
   3311   3323     1
   3311   3324     1
   3312   3313     1
   3312   3328     1
   3312   3323     1
   3312   3324     1
   3313   3326     1
   3313   3327     1
   3314   3325     1
   3314   3317     1
   3314   3318     1
   3315   3325     1
   3315   3317     1
   3315   3318     1
   3317   3334     1
   3317   3326     1
   3317   3327     1
   3318   3334     1
   3318   3326     1
   3318   3327     1
   3320   6727     1
   3320   3332     1
   3320   3333     1
   3321   6727     1
   3321   3332     1
   3321   3333     1
   3323   6698     1
   3323   3329     1
   3323   3330     1
   3324   6698     1
   3324   3329     1
   3324   3330     1
   3328   6671     1
   3328   6672     1
   3329   6670     1
   3330   6670     1
   3331   6700     1
   3331   6701     1
   3332   6699     1
   3333   6699     1
   3335   3349     1
   3335   3350     1
   3335   3352     1
   3335   3353     1
   3335   3346     1
   3335   3347     1
   3336   3340     1
   3336   3341     1
   3336   3343     1
   3336   3344     1
   3336   3361     1
   3336   3362     1
   3337   3339     1
   3337   3342     1
   3337   3360     1
   3337   3349     1
   3337   3350     1
   3338   3339     1
   3338   3342     1
   3338   3360     1
   3338   3349     1
   3338   3350     1
   3339   3343     1
   3339   3344     1
   3339   3358     1
   3339   3359     1
   3340   3342     1
   3340   3357     1
   3340   3352     1
   3340   3353     1
   3341   3342     1
   3341   3357     1
   3341   3352     1
   3341   3353     1
   3342   3355     1
   3342   3356     1
   3343   3354     1
   3343   3346     1
   3343   3347     1
   3344   3354     1
   3344   3346     1
   3344   3347     1
   3346   3363     1
   3346   3355     1
   3346   3356     1
   3347   3363     1
   3347   3355     1
   3347   3356     1
   3349   6785     1
   3349   3361     1
   3349   3362     1
   3350   6785     1
   3350   3361     1
   3350   3362     1
   3352   6756     1
   3352   3358     1
   3352   3359     1
   3353   6756     1
   3353   3358     1
   3353   3359     1
   3357   6729     1
   3357   6730     1
   3358   6728     1
   3359   6728     1
   3360   6758     1
   3360   6759     1
   3361   6757     1
   3362   6757     1
   3364   3378     1
   3364   3379     1
   3364   3381     1
   3364   3382     1
   3364   3375     1
   3364   3376     1
   3365   3369     1
   3365   3370     1
   3365   3372     1
   3365   3373     1
   3365   3390     1
   3365   3391     1
   3366   3368     1
   3366   3371     1
   3366   3389     1
   3366   3378     1
   3366   3379     1
   3367   3368     1
   3367   3371     1
   3367   3389     1
   3367   3378     1
   3367   3379     1
   3368   3372     1
   3368   3373     1
   3368   3387     1
   3368   3388     1
   3369   3371     1
   3369   3386     1
   3369   3381     1
   3369   3382     1
   3370   3371     1
   3370   3386     1
   3370   3381     1
   3370   3382     1
   3371   3384     1
   3371   3385     1
   3372   3383     1
   3372   3375     1
   3372   3376     1
   3373   3383     1
   3373   3375     1
   3373   3376     1
   3375   3392     1
   3375   3384     1
   3375   3385     1
   3376   3392     1
   3376   3384     1
   3376   3385     1
   3378   6843     1
   3378   3390     1
   3378   3391     1
   3379   6843     1
   3379   3390     1
   3379   3391     1
   3381   6814     1
   3381   3387     1
   3381   3388     1
   3382   6814     1
   3382   3387     1
   3382   3388     1
   3386   6787     1
   3386   6788     1
   3387   6786     1
   3388   6786     1
   3389   6816     1
   3389   6817     1
   3390   6815     1
   3391   6815     1
   3393   3407     1
   3393   3408     1
   3393   3410     1
   3393   3411     1
   3393   3404     1
   3393   3405     1
   3394   3398     1
   3394   3399     1
   3394   3401     1
   3394   3402     1
   3394   3419     1
   3394   3420     1
   3395   3397     1
   3395   3400     1
   3395   3418     1
   3395   3407     1
   3395   3408     1
   3396   3397     1
   3396   3400     1
   3396   3418     1
   3396   3407     1
   3396   3408     1
   3397   3401     1
   3397   3402     1
   3397   3416     1
   3397   3417     1
   3398   3400     1
   3398   3415     1
   3398   3410     1
   3398   3411     1
   3399   3400     1
   3399   3415     1
   3399   3410     1
   3399   3411     1
   3400   3413     1
   3400   3414     1
   3401   3412     1
   3401   3404     1
   3401   3405     1
   3402   3412     1
   3402   3404     1
   3402   3405     1
   3404   3421     1
   3404   3413     1
   3404   3414     1
   3405   3421     1
   3405   3413     1
   3405   3414     1
   3407   6901     1
   3407   3419     1
   3407   3420     1
   3408   6901     1
   3408   3419     1
   3408   3420     1
   3410   6872     1
   3410   3416     1
   3410   3417     1
   3411   6872     1
   3411   3416     1
   3411   3417     1
   3415   6845     1
   3415   6846     1
   3416   6844     1
   3417   6844     1
   3418   6874     1
   3418   6875     1
   3419   6873     1
   3420   6873     1
   3422   3436     1
   3422   3437     1
   3422   3439     1
   3422   3440     1
   3422   3433     1
   3422   3434     1
   3423   3427     1
   3423   3428     1
   3423   3430     1
   3423   3431     1
   3423   3448     1
   3423   3449     1
   3424   3426     1
   3424   3429     1
   3424   3447     1
   3424   3436     1
   3424   3437     1
   3425   3426     1
   3425   3429     1
   3425   3447     1
   3425   3436     1
   3425   3437     1
   3426   3430     1
   3426   3431     1
   3426   3445     1
   3426   3446     1
   3427   3429     1
   3427   3444     1
   3427   3439     1
   3427   3440     1
   3428   3429     1
   3428   3444     1
   3428   3439     1
   3428   3440     1
   3429   3442     1
   3429   3443     1
   3430   3441     1
   3430   3433     1
   3430   3434     1
   3431   3441     1
   3431   3433     1
   3431   3434     1
   3433   3450     1
   3433   3442     1
   3433   3443     1
   3434   3450     1
   3434   3442     1
   3434   3443     1
   3436   6959     1
   3436   3448     1
   3436   3449     1
   3437   6959     1
   3437   3448     1
   3437   3449     1
   3439   6930     1
   3439   3445     1
   3439   3446     1
   3440   6930     1
   3440   3445     1
   3440   3446     1
   3444   6903     1
   3444   6904     1
   3445   6902     1
   3446   6902     1
   3447   6932     1
   3447   6933     1
   3448   6931     1
   3449   6931     1
   3451   3465     1
   3451   3466     1
   3451   3468     1
   3451   3469     1
   3451   3462     1
   3451   3463     1
   3452   3456     1
   3452   3457     1
   3452   3459     1
   3452   3460     1
   3452   3477     1
   3452   3478     1
   3453   3455     1
   3453   3458     1
   3453   3476     1
   3453   3465     1
   3453   3466     1
   3454   3455     1
   3454   3458     1
   3454   3476     1
   3454   3465     1
   3454   3466     1
   3455   3459     1
   3455   3460     1
   3455   3474     1
   3455   3475     1
   3456   3458     1
   3456   3473     1
   3456   3468     1
   3456   3469     1
   3457   3458     1
   3457   3473     1
   3457   3468     1
   3457   3469     1
   3458   3471     1
   3458   3472     1
   3459   3470     1
   3459   3462     1
   3459   3463     1
   3460   3470     1
   3460   3462     1
   3460   3463     1
   3462   3479     1
   3462   3471     1
   3462   3472     1
   3463   3479     1
   3463   3471     1
   3463   3472     1
   3465   7017     1
   3465   3477     1
   3465   3478     1
   3466   7017     1
   3466   3477     1
   3466   3478     1
   3468   6988     1
   3468   3474     1
   3468   3475     1
   3469   6988     1
   3469   3474     1
   3469   3475     1
   3473   6961     1
   3473   6962     1
   3474   6960     1
   3475   6960     1
   3476   6990     1
   3476   6991     1
   3477   6989     1
   3478   6989     1
   3480   3494     1
   3480   3495     1
   3480   3497     1
   3480   3498     1
   3480   3491     1
   3480   3492     1
   3481   3485     1
   3481   3486     1
   3481   3488     1
   3481   3489     1
   3481   3506     1
   3481   3507     1
   3482   3484     1
   3482   3487     1
   3482   3505     1
   3482   3494     1
   3482   3495     1
   3483   3484     1
   3483   3487     1
   3483   3505     1
   3483   3494     1
   3483   3495     1
   3484   3488     1
   3484   3489     1
   3484   3503     1
   3484   3504     1
   3485   3487     1
   3485   3502     1
   3485   3497     1
   3485   3498     1
   3486   3487     1
   3486   3502     1
   3486   3497     1
   3486   3498     1
   3487   3500     1
   3487   3501     1
   3488   3499     1
   3488   3491     1
   3488   3492     1
   3489   3499     1
   3489   3491     1
   3489   3492     1
   3491   3508     1
   3491   3500     1
   3491   3501     1
   3492   3508     1
   3492   3500     1
   3492   3501     1
   3494   7075     1
   3494   3506     1
   3494   3507     1
   3495   7075     1
   3495   3506     1
   3495   3507     1
   3497   7046     1
   3497   3503     1
   3497   3504     1
   3498   7046     1
   3498   3503     1
   3498   3504     1
   3502   7019     1
   3502   7020     1
   3503   7018     1
   3504   7018     1
   3505   7048     1
   3505   7049     1
   3506   7047     1
   3507   7047     1
   3509   3523     1
   3509   3524     1
   3509   3526     1
   3509   3527     1
   3509   3520     1
   3509   3521     1
   3510   3514     1
   3510   3515     1
   3510   3517     1
   3510   3518     1
   3510   3535     1
   3510   3536     1
   3511   3513     1
   3511   3516     1
   3511   3534     1
   3511   3523     1
   3511   3524     1
   3512   3513     1
   3512   3516     1
   3512   3534     1
   3512   3523     1
   3512   3524     1
   3513   3517     1
   3513   3518     1
   3513   3532     1
   3513   3533     1
   3514   3516     1
   3514   3531     1
   3514   3526     1
   3514   3527     1
   3515   3516     1
   3515   3531     1
   3515   3526     1
   3515   3527     1
   3516   3529     1
   3516   3530     1
   3517   3528     1
   3517   3520     1
   3517   3521     1
   3518   3528     1
   3518   3520     1
   3518   3521     1
   3520   3537     1
   3520   3529     1
   3520   3530     1
   3521   3537     1
   3521   3529     1
   3521   3530     1
   3523   7133     1
   3523   3535     1
   3523   3536     1
   3524   7133     1
   3524   3535     1
   3524   3536     1
   3526   7104     1
   3526   3532     1
   3526   3533     1
   3527   7104     1
   3527   3532     1
   3527   3533     1
   3531   7077     1
   3531   7078     1
   3532   7076     1
   3533   7076     1
   3534   7106     1
   3534   7107     1
   3535   7105     1
   3536   7105     1
   3538   3552     1
   3538   3553     1
   3538   3555     1
   3538   3556     1
   3538   3549     1
   3538   3550     1
   3539   3543     1
   3539   3544     1
   3539   3546     1
   3539   3547     1
   3539   3564     1
   3539   3565     1
   3540   3542     1
   3540   3545     1
   3540   3563     1
   3540   3552     1
   3540   3553     1
   3541   3542     1
   3541   3545     1
   3541   3563     1
   3541   3552     1
   3541   3553     1
   3542   3546     1
   3542   3547     1
   3542   3561     1
   3542   3562     1
   3543   3545     1
   3543   3560     1
   3543   3555     1
   3543   3556     1
   3544   3545     1
   3544   3560     1
   3544   3555     1
   3544   3556     1
   3545   3558     1
   3545   3559     1
   3546   3557     1
   3546   3549     1
   3546   3550     1
   3547   3557     1
   3547   3549     1
   3547   3550     1
   3549   3566     1
   3549   3558     1
   3549   3559     1
   3550   3566     1
   3550   3558     1
   3550   3559     1
   3552   7191     1
   3552   3564     1
   3552   3565     1
   3553   7191     1
   3553   3564     1
   3553   3565     1
   3555   7162     1
   3555   3561     1
   3555   3562     1
   3556   7162     1
   3556   3561     1
   3556   3562     1
   3560   7135     1
   3560   7136     1
   3561   7134     1
   3562   7134     1
   3563   7164     1
   3563   7165     1
   3564   7163     1
   3565   7163     1
   3567   3581     1
   3567   3582     1
   3567   3584     1
   3567   3585     1
   3567   3578     1
   3567   3579     1
   3568   3572     1
   3568   3573     1
   3568   3575     1
   3568   3576     1
   3568   3593     1
   3568   3594     1
   3569   3571     1
   3569   3574     1
   3569   3592     1
   3569   3581     1
   3569   3582     1
   3570   3571     1
   3570   3574     1
   3570   3592     1
   3570   3581     1
   3570   3582     1
   3571   3575     1
   3571   3576     1
   3571   3590     1
   3571   3591     1
   3572   3574     1
   3572   3589     1
   3572   3584     1
   3572   3585     1
   3573   3574     1
   3573   3589     1
   3573   3584     1
   3573   3585     1
   3574   3587     1
   3574   3588     1
   3575   3586     1
   3575   3578     1
   3575   3579     1
   3576   3586     1
   3576   3578     1
   3576   3579     1
   3578   3595     1
   3578   3587     1
   3578   3588     1
   3579   3595     1
   3579   3587     1
   3579   3588     1
   3581   7249     1
   3581   3593     1
   3581   3594     1
   3582   7249     1
   3582   3593     1
   3582   3594     1
   3584   7220     1
   3584   3590     1
   3584   3591     1
   3585   7220     1
   3585   3590     1
   3585   3591     1
   3589   7193     1
   3589   7194     1
   3590   7192     1
   3591   7192     1
   3592   7222     1
   3592   7223     1
   3593   7221     1
   3594   7221     1
   3596   3610     1
   3596   3611     1
   3596   3613     1
   3596   3614     1
   3596   3607     1
   3596   3608     1
   3597   3601     1
   3597   3602     1
   3597   3604     1
   3597   3605     1
   3597   3622     1
   3597   3623     1
   3598   3600     1
   3598   3603     1
   3598   3621     1
   3598   3610     1
   3598   3611     1
   3599   3600     1
   3599   3603     1
   3599   3621     1
   3599   3610     1
   3599   3611     1
   3600   3604     1
   3600   3605     1
   3600   3619     1
   3600   3620     1
   3601   3603     1
   3601   3618     1
   3601   3613     1
   3601   3614     1
   3602   3603     1
   3602   3618     1
   3602   3613     1
   3602   3614     1
   3603   3616     1
   3603   3617     1
   3604   3615     1
   3604   3607     1
   3604   3608     1
   3605   3615     1
   3605   3607     1
   3605   3608     1
   3607   3624     1
   3607   3616     1
   3607   3617     1
   3608   3624     1
   3608   3616     1
   3608   3617     1
   3610   7307     1
   3610   3622     1
   3610   3623     1
   3611   7307     1
   3611   3622     1
   3611   3623     1
   3613   7278     1
   3613   3619     1
   3613   3620     1
   3614   7278     1
   3614   3619     1
   3614   3620     1
   3618   7251     1
   3618   7252     1
   3619   7250     1
   3620   7250     1
   3621   7280     1
   3621   7281     1
   3622   7279     1
   3623   7279     1
   3625   3639     1
   3625   3640     1
   3625   3642     1
   3625   3643     1
   3625   3636     1
   3625   3637     1
   3626   3630     1
   3626   3631     1
   3626   3633     1
   3626   3634     1
   3626   3651     1
   3626   3652     1
   3627   3629     1
   3627   3632     1
   3627   3650     1
   3627   3639     1
   3627   3640     1
   3628   3629     1
   3628   3632     1
   3628   3650     1
   3628   3639     1
   3628   3640     1
   3629   3633     1
   3629   3634     1
   3629   3648     1
   3629   3649     1
   3630   3632     1
   3630   3647     1
   3630   3642     1
   3630   3643     1
   3631   3632     1
   3631   3647     1
   3631   3642     1
   3631   3643     1
   3632   3645     1
   3632   3646     1
   3633   3644     1
   3633   3636     1
   3633   3637     1
   3634   3644     1
   3634   3636     1
   3634   3637     1
   3636   3653     1
   3636   3645     1
   3636   3646     1
   3637   3653     1
   3637   3645     1
   3637   3646     1
   3639   7365     1
   3639   3651     1
   3639   3652     1
   3640   7365     1
   3640   3651     1
   3640   3652     1
   3642   7336     1
   3642   3648     1
   3642   3649     1
   3643   7336     1
   3643   3648     1
   3643   3649     1
   3647   7309     1
   3647   7310     1
   3648   7308     1
   3649   7308     1
   3650   7338     1
   3650   7339     1
   3651   7337     1
   3652   7337     1
   3654   3661     1
   3654   3662     1
   3655   3660     1
   3655   3658     1
   3655   3659     1
   3656   3660     1
   3656   3658     1
   3656   3659     1
   3658   3682     1
   3658   3663     1
   3658   3661     1
   3658   3662     1
   3659   3682     1
   3659   3663     1
   3659   3661     1
   3659   3662     1
   3660   3665     1
   3660   3666     1
   3660   3674     1
   3660   3675     1
   3661   3664     1
   3661   3673     1
   3662   3664     1
   3662   3673     1
   3663   3668     1
   3663   3669     1
   3663   3677     1
   3663   3678     1
   3664   3674     1
   3664   3675     1
   3665   3673     1
   3665   3670     1
   3665   3668     1
   3665   3669     1
   3666   3673     1
   3666   3670     1
   3666   3668     1
   3666   3669     1
   3668   3671     1
   3668   3672     1
   3669   3671     1
   3669   3672     1
   3674   3679     1
   3674   3677     1
   3674   3678     1
   3675   3679     1
   3675   3677     1
   3675   3678     1
   3677   3680     1
   3677   3681     1
   3678   3680     1
   3678   3681     1
   3683   3690     1
   3683   3691     1
   3684   3689     1
   3684   3687     1
   3684   3688     1
   3685   3689     1
   3685   3687     1
   3685   3688     1
   3687   3692     1
   3687   3690     1
   3687   3691     1
   3687   3711     1
   3688   3692     1
   3688   3690     1
   3688   3691     1
   3688   3711     1
   3689   3694     1
   3689   3695     1
   3689   3703     1
   3689   3704     1
   3690   3693     1
   3690   3702     1
   3691   3693     1
   3691   3702     1
   3692   3697     1
   3692   3698     1
   3692   3706     1
   3692   3707     1
   3693   3703     1
   3693   3704     1
   3694   3699     1
   3694   3697     1
   3694   3698     1
   3694   3702     1
   3695   3699     1
   3695   3697     1
   3695   3698     1
   3695   3702     1
   3697   3700     1
   3697   3701     1
   3698   3700     1
   3698   3701     1
   3703   3708     1
   3703   3706     1
   3703   3707     1
   3704   3708     1
   3704   3706     1
   3704   3707     1
   3706   3709     1
   3706   3710     1
   3707   3709     1
   3707   3710     1
   3712   3719     1
   3712   3720     1
   3713   3718     1
   3713   3716     1
   3713   3717     1
   3714   3718     1
   3714   3716     1
   3714   3717     1
   3716   3740     1
   3716   3721     1
   3716   3719     1
   3716   3720     1
   3717   3740     1
   3717   3721     1
   3717   3719     1
   3717   3720     1
   3718   3723     1
   3718   3724     1
   3718   3732     1
   3718   3733     1
   3719   3722     1
   3719   3731     1
   3720   3722     1
   3720   3731     1
   3721   3726     1
   3721   3727     1
   3721   3735     1
   3721   3736     1
   3722   3732     1
   3722   3733     1
   3723   3731     1
   3723   3728     1
   3723   3726     1
   3723   3727     1
   3724   3731     1
   3724   3728     1
   3724   3726     1
   3724   3727     1
   3726   3729     1
   3726   3730     1
   3727   3729     1
   3727   3730     1
   3732   3737     1
   3732   3735     1
   3732   3736     1
   3733   3737     1
   3733   3735     1
   3733   3736     1
   3735   3738     1
   3735   3739     1
   3736   3738     1
   3736   3739     1
   3741   3748     1
   3741   3749     1
   3742   3747     1
   3742   3745     1
   3742   3746     1
   3743   3747     1
   3743   3745     1
   3743   3746     1
   3745   3750     1
   3745   3748     1
   3745   3749     1
   3745   3769     1
   3746   3750     1
   3746   3748     1
   3746   3749     1
   3746   3769     1
   3747   3752     1
   3747   3753     1
   3747   3761     1
   3747   3762     1
   3748   3751     1
   3748   3760     1
   3749   3751     1
   3749   3760     1
   3750   3755     1
   3750   3756     1
   3750   3764     1
   3750   3765     1
   3751   3761     1
   3751   3762     1
   3752   3757     1
   3752   3755     1
   3752   3756     1
   3752   3760     1
   3753   3757     1
   3753   3755     1
   3753   3756     1
   3753   3760     1
   3755   3758     1
   3755   3759     1
   3756   3758     1
   3756   3759     1
   3761   3766     1
   3761   3764     1
   3761   3765     1
   3762   3766     1
   3762   3764     1
   3762   3765     1
   3764   3767     1
   3764   3768     1
   3765   3767     1
   3765   3768     1
   3770   3777     1
   3770   3778     1
   3771   3776     1
   3771   3774     1
   3771   3775     1
   3772   3776     1
   3772   3774     1
   3772   3775     1
   3774   3798     1
   3774   3779     1
   3774   3777     1
   3774   3778     1
   3775   3798     1
   3775   3779     1
   3775   3777     1
   3775   3778     1
   3776   3781     1
   3776   3782     1
   3776   3790     1
   3776   3791     1
   3777   3780     1
   3777   3789     1
   3778   3780     1
   3778   3789     1
   3779   3784     1
   3779   3785     1
   3779   3793     1
   3779   3794     1
   3780   3790     1
   3780   3791     1
   3781   3789     1
   3781   3786     1
   3781   3784     1
   3781   3785     1
   3782   3789     1
   3782   3786     1
   3782   3784     1
   3782   3785     1
   3784   3787     1
   3784   3788     1
   3785   3787     1
   3785   3788     1
   3790   3795     1
   3790   3793     1
   3790   3794     1
   3791   3795     1
   3791   3793     1
   3791   3794     1
   3793   3796     1
   3793   3797     1
   3794   3796     1
   3794   3797     1
   3799   3806     1
   3799   3807     1
   3800   3805     1
   3800   3803     1
   3800   3804     1
   3801   3805     1
   3801   3803     1
   3801   3804     1
   3803   3808     1
   3803   3806     1
   3803   3807     1
   3803   3827     1
   3804   3808     1
   3804   3806     1
   3804   3807     1
   3804   3827     1
   3805   3810     1
   3805   3811     1
   3805   3819     1
   3805   3820     1
   3806   3809     1
   3806   3818     1
   3807   3809     1
   3807   3818     1
   3808   3813     1
   3808   3814     1
   3808   3822     1
   3808   3823     1
   3809   3819     1
   3809   3820     1
   3810   3815     1
   3810   3813     1
   3810   3814     1
   3810   3818     1
   3811   3815     1
   3811   3813     1
   3811   3814     1
   3811   3818     1
   3813   3816     1
   3813   3817     1
   3814   3816     1
   3814   3817     1
   3819   3824     1
   3819   3822     1
   3819   3823     1
   3820   3824     1
   3820   3822     1
   3820   3823     1
   3822   3825     1
   3822   3826     1
   3823   3825     1
   3823   3826     1
   3828   3835     1
   3828   3836     1
   3829   3834     1
   3829   3832     1
   3829   3833     1
   3830   3834     1
   3830   3832     1
   3830   3833     1
   3832   3856     1
   3832   3837     1
   3832   3835     1
   3832   3836     1
   3833   3856     1
   3833   3837     1
   3833   3835     1
   3833   3836     1
   3834   3839     1
   3834   3840     1
   3834   3848     1
   3834   3849     1
   3835   3838     1
   3835   3847     1
   3836   3838     1
   3836   3847     1
   3837   3842     1
   3837   3843     1
   3837   3851     1
   3837   3852     1
   3838   3848     1
   3838   3849     1
   3839   3847     1
   3839   3844     1
   3839   3842     1
   3839   3843     1
   3840   3847     1
   3840   3844     1
   3840   3842     1
   3840   3843     1
   3842   3845     1
   3842   3846     1
   3843   3845     1
   3843   3846     1
   3848   3853     1
   3848   3851     1
   3848   3852     1
   3849   3853     1
   3849   3851     1
   3849   3852     1
   3851   3854     1
   3851   3855     1
   3852   3854     1
   3852   3855     1
   3857   3864     1
   3857   3865     1
   3858   3863     1
   3858   3861     1
   3858   3862     1
   3859   3863     1
   3859   3861     1
   3859   3862     1
   3861   3866     1
   3861   3864     1
   3861   3865     1
   3861   3885     1
   3862   3866     1
   3862   3864     1
   3862   3865     1
   3862   3885     1
   3863   3868     1
   3863   3869     1
   3863   3877     1
   3863   3878     1
   3864   3867     1
   3864   3876     1
   3865   3867     1
   3865   3876     1
   3866   3871     1
   3866   3872     1
   3866   3880     1
   3866   3881     1
   3867   3877     1
   3867   3878     1
   3868   3873     1
   3868   3871     1
   3868   3872     1
   3868   3876     1
   3869   3873     1
   3869   3871     1
   3869   3872     1
   3869   3876     1
   3871   3874     1
   3871   3875     1
   3872   3874     1
   3872   3875     1
   3877   3882     1
   3877   3880     1
   3877   3881     1
   3878   3882     1
   3878   3880     1
   3878   3881     1
   3880   3883     1
   3880   3884     1
   3881   3883     1
   3881   3884     1
   3886   3893     1
   3886   3894     1
   3887   3892     1
   3887   3890     1
   3887   3891     1
   3888   3892     1
   3888   3890     1
   3888   3891     1
   3890   3914     1
   3890   3895     1
   3890   3893     1
   3890   3894     1
   3891   3914     1
   3891   3895     1
   3891   3893     1
   3891   3894     1
   3892   3897     1
   3892   3898     1
   3892   3906     1
   3892   3907     1
   3893   3896     1
   3893   3905     1
   3894   3896     1
   3894   3905     1
   3895   3900     1
   3895   3901     1
   3895   3909     1
   3895   3910     1
   3896   3906     1
   3896   3907     1
   3897   3905     1
   3897   3902     1
   3897   3900     1
   3897   3901     1
   3898   3905     1
   3898   3902     1
   3898   3900     1
   3898   3901     1
   3900   3903     1
   3900   3904     1
   3901   3903     1
   3901   3904     1
   3906   3911     1
   3906   3909     1
   3906   3910     1
   3907   3911     1
   3907   3909     1
   3907   3910     1
   3909   3912     1
   3909   3913     1
   3910   3912     1
   3910   3913     1
   3915   3922     1
   3915   3923     1
   3916   3921     1
   3916   3919     1
   3916   3920     1
   3917   3921     1
   3917   3919     1
   3917   3920     1
   3919   3924     1
   3919   3922     1
   3919   3923     1
   3919   3943     1
   3920   3924     1
   3920   3922     1
   3920   3923     1
   3920   3943     1
   3921   3926     1
   3921   3927     1
   3921   3935     1
   3921   3936     1
   3922   3925     1
   3922   3934     1
   3923   3925     1
   3923   3934     1
   3924   3929     1
   3924   3930     1
   3924   3938     1
   3924   3939     1
   3925   3935     1
   3925   3936     1
   3926   3931     1
   3926   3929     1
   3926   3930     1
   3926   3934     1
   3927   3931     1
   3927   3929     1
   3927   3930     1
   3927   3934     1
   3929   3932     1
   3929   3933     1
   3930   3932     1
   3930   3933     1
   3935   3940     1
   3935   3938     1
   3935   3939     1
   3936   3940     1
   3936   3938     1
   3936   3939     1
   3938   3941     1
   3938   3942     1
   3939   3941     1
   3939   3942     1
   3944   3951     1
   3944   3952     1
   3945   3950     1
   3945   3948     1
   3945   3949     1
   3946   3950     1
   3946   3948     1
   3946   3949     1
   3948   3972     1
   3948   3953     1
   3948   3951     1
   3948   3952     1
   3949   3972     1
   3949   3953     1
   3949   3951     1
   3949   3952     1
   3950   3955     1
   3950   3956     1
   3950   3964     1
   3950   3965     1
   3951   3954     1
   3951   3963     1
   3952   3954     1
   3952   3963     1
   3953   3958     1
   3953   3959     1
   3953   3967     1
   3953   3968     1
   3954   3964     1
   3954   3965     1
   3955   3963     1
   3955   3960     1
   3955   3958     1
   3955   3959     1
   3956   3963     1
   3956   3960     1
   3956   3958     1
   3956   3959     1
   3958   3961     1
   3958   3962     1
   3959   3961     1
   3959   3962     1
   3964   3969     1
   3964   3967     1
   3964   3968     1
   3965   3969     1
   3965   3967     1
   3965   3968     1
   3967   3970     1
   3967   3971     1
   3968   3970     1
   3968   3971     1
   3973   3980     1
   3973   3981     1
   3974   3979     1
   3974   3977     1
   3974   3978     1
   3975   3979     1
   3975   3977     1
   3975   3978     1
   3977   3982     1
   3977   3980     1
   3977   3981     1
   3977   4001     1
   3978   3982     1
   3978   3980     1
   3978   3981     1
   3978   4001     1
   3979   3984     1
   3979   3985     1
   3979   3993     1
   3979   3994     1
   3980   3983     1
   3980   3992     1
   3981   3983     1
   3981   3992     1
   3982   3987     1
   3982   3988     1
   3982   3996     1
   3982   3997     1
   3983   3993     1
   3983   3994     1
   3984   3989     1
   3984   3987     1
   3984   3988     1
   3984   3992     1
   3985   3989     1
   3985   3987     1
   3985   3988     1
   3985   3992     1
   3987   3990     1
   3987   3991     1
   3988   3990     1
   3988   3991     1
   3993   3998     1
   3993   3996     1
   3993   3997     1
   3994   3998     1
   3994   3996     1
   3994   3997     1
   3996   3999     1
   3996   4000     1
   3997   3999     1
   3997   4000     1
   4002   4009     1
   4002   4010     1
   4003   4008     1
   4003   4006     1
   4003   4007     1
   4004   4008     1
   4004   4006     1
   4004   4007     1
   4006   4030     1
   4006   4011     1
   4006   4009     1
   4006   4010     1
   4007   4030     1
   4007   4011     1
   4007   4009     1
   4007   4010     1
   4008   4013     1
   4008   4014     1
   4008   4022     1
   4008   4023     1
   4009   4012     1
   4009   4021     1
   4010   4012     1
   4010   4021     1
   4011   4016     1
   4011   4017     1
   4011   4025     1
   4011   4026     1
   4012   4022     1
   4012   4023     1
   4013   4021     1
   4013   4018     1
   4013   4016     1
   4013   4017     1
   4014   4021     1
   4014   4018     1
   4014   4016     1
   4014   4017     1
   4016   4019     1
   4016   4020     1
   4017   4019     1
   4017   4020     1
   4022   4027     1
   4022   4025     1
   4022   4026     1
   4023   4027     1
   4023   4025     1
   4023   4026     1
   4025   4028     1
   4025   4029     1
   4026   4028     1
   4026   4029     1
   4031   4038     1
   4031   4039     1
   4032   4037     1
   4032   4035     1
   4032   4036     1
   4033   4037     1
   4033   4035     1
   4033   4036     1
   4035   4040     1
   4035   4038     1
   4035   4039     1
   4035   4059     1
   4036   4040     1
   4036   4038     1
   4036   4039     1
   4036   4059     1
   4037   4042     1
   4037   4043     1
   4037   4051     1
   4037   4052     1
   4038   4041     1
   4038   4050     1
   4039   4041     1
   4039   4050     1
   4040   4045     1
   4040   4046     1
   4040   4054     1
   4040   4055     1
   4041   4051     1
   4041   4052     1
   4042   4047     1
   4042   4045     1
   4042   4046     1
   4042   4050     1
   4043   4047     1
   4043   4045     1
   4043   4046     1
   4043   4050     1
   4045   4048     1
   4045   4049     1
   4046   4048     1
   4046   4049     1
   4051   4056     1
   4051   4054     1
   4051   4055     1
   4052   4056     1
   4052   4054     1
   4052   4055     1
   4054   4057     1
   4054   4058     1
   4055   4057     1
   4055   4058     1
   4060   4067     1
   4060   4068     1
   4061   4066     1
   4061   4064     1
   4061   4065     1
   4062   4066     1
   4062   4064     1
   4062   4065     1
   4064   4088     1
   4064   4069     1
   4064   4067     1
   4064   4068     1
   4065   4088     1
   4065   4069     1
   4065   4067     1
   4065   4068     1
   4066   4071     1
   4066   4072     1
   4066   4080     1
   4066   4081     1
   4067   4070     1
   4067   4079     1
   4068   4070     1
   4068   4079     1
   4069   4074     1
   4069   4075     1
   4069   4083     1
   4069   4084     1
   4070   4080     1
   4070   4081     1
   4071   4079     1
   4071   4076     1
   4071   4074     1
   4071   4075     1
   4072   4079     1
   4072   4076     1
   4072   4074     1
   4072   4075     1
   4074   4077     1
   4074   4078     1
   4075   4077     1
   4075   4078     1
   4080   4085     1
   4080   4083     1
   4080   4084     1
   4081   4085     1
   4081   4083     1
   4081   4084     1
   4083   4086     1
   4083   4087     1
   4084   4086     1
   4084   4087     1
   4089   4096     1
   4089   4097     1
   4090   4095     1
   4090   4093     1
   4090   4094     1
   4091   4095     1
   4091   4093     1
   4091   4094     1
   4093   4098     1
   4093   4096     1
   4093   4097     1
   4093   4117     1
   4094   4098     1
   4094   4096     1
   4094   4097     1
   4094   4117     1
   4095   4100     1
   4095   4101     1
   4095   4109     1
   4095   4110     1
   4096   4099     1
   4096   4108     1
   4097   4099     1
   4097   4108     1
   4098   4103     1
   4098   4104     1
   4098   4112     1
   4098   4113     1
   4099   4109     1
   4099   4110     1
   4100   4105     1
   4100   4103     1
   4100   4104     1
   4100   4108     1
   4101   4105     1
   4101   4103     1
   4101   4104     1
   4101   4108     1
   4103   4106     1
   4103   4107     1
   4104   4106     1
   4104   4107     1
   4109   4114     1
   4109   4112     1
   4109   4113     1
   4110   4114     1
   4110   4112     1
   4110   4113     1
   4112   4115     1
   4112   4116     1
   4113   4115     1
   4113   4116     1
   4118   4125     1
   4118   4126     1
   4119   4124     1
   4119   4122     1
   4119   4123     1
   4120   4124     1
   4120   4122     1
   4120   4123     1
   4122   4146     1
   4122   4127     1
   4122   4125     1
   4122   4126     1
   4123   4146     1
   4123   4127     1
   4123   4125     1
   4123   4126     1
   4124   4129     1
   4124   4130     1
   4124   4138     1
   4124   4139     1
   4125   4128     1
   4125   4137     1
   4126   4128     1
   4126   4137     1
   4127   4132     1
   4127   4133     1
   4127   4141     1
   4127   4142     1
   4128   4138     1
   4128   4139     1
   4129   4137     1
   4129   4134     1
   4129   4132     1
   4129   4133     1
   4130   4137     1
   4130   4134     1
   4130   4132     1
   4130   4133     1
   4132   4135     1
   4132   4136     1
   4133   4135     1
   4133   4136     1
   4138   4143     1
   4138   4141     1
   4138   4142     1
   4139   4143     1
   4139   4141     1
   4139   4142     1
   4141   4144     1
   4141   4145     1
   4142   4144     1
   4142   4145     1
   4147   4154     1
   4147   4155     1
   4148   4153     1
   4148   4151     1
   4148   4152     1
   4149   4153     1
   4149   4151     1
   4149   4152     1
   4151   4156     1
   4151   4154     1
   4151   4155     1
   4151   4175     1
   4152   4156     1
   4152   4154     1
   4152   4155     1
   4152   4175     1
   4153   4158     1
   4153   4159     1
   4153   4167     1
   4153   4168     1
   4154   4157     1
   4154   4166     1
   4155   4157     1
   4155   4166     1
   4156   4161     1
   4156   4162     1
   4156   4170     1
   4156   4171     1
   4157   4167     1
   4157   4168     1
   4158   4163     1
   4158   4161     1
   4158   4162     1
   4158   4166     1
   4159   4163     1
   4159   4161     1
   4159   4162     1
   4159   4166     1
   4161   4164     1
   4161   4165     1
   4162   4164     1
   4162   4165     1
   4167   4172     1
   4167   4170     1
   4167   4171     1
   4168   4172     1
   4168   4170     1
   4168   4171     1
   4170   4173     1
   4170   4174     1
   4171   4173     1
   4171   4174     1
   4176   4183     1
   4176   4184     1
   4177   4182     1
   4177   4180     1
   4177   4181     1
   4178   4182     1
   4178   4180     1
   4178   4181     1
   4180   4204     1
   4180   4185     1
   4180   4183     1
   4180   4184     1
   4181   4204     1
   4181   4185     1
   4181   4183     1
   4181   4184     1
   4182   4187     1
   4182   4188     1
   4182   4196     1
   4182   4197     1
   4183   4186     1
   4183   4195     1
   4184   4186     1
   4184   4195     1
   4185   4190     1
   4185   4191     1
   4185   4199     1
   4185   4200     1
   4186   4196     1
   4186   4197     1
   4187   4195     1
   4187   4192     1
   4187   4190     1
   4187   4191     1
   4188   4195     1
   4188   4192     1
   4188   4190     1
   4188   4191     1
   4190   4193     1
   4190   4194     1
   4191   4193     1
   4191   4194     1
   4196   4201     1
   4196   4199     1
   4196   4200     1
   4197   4201     1
   4197   4199     1
   4197   4200     1
   4199   4202     1
   4199   4203     1
   4200   4202     1
   4200   4203     1
   4205   4212     1
   4205   4213     1
   4206   4211     1
   4206   4209     1
   4206   4210     1
   4207   4211     1
   4207   4209     1
   4207   4210     1
   4209   4214     1
   4209   4212     1
   4209   4213     1
   4209   4233     1
   4210   4214     1
   4210   4212     1
   4210   4213     1
   4210   4233     1
   4211   4216     1
   4211   4217     1
   4211   4225     1
   4211   4226     1
   4212   4215     1
   4212   4224     1
   4213   4215     1
   4213   4224     1
   4214   4219     1
   4214   4220     1
   4214   4228     1
   4214   4229     1
   4215   4225     1
   4215   4226     1
   4216   4221     1
   4216   4219     1
   4216   4220     1
   4216   4224     1
   4217   4221     1
   4217   4219     1
   4217   4220     1
   4217   4224     1
   4219   4222     1
   4219   4223     1
   4220   4222     1
   4220   4223     1
   4225   4230     1
   4225   4228     1
   4225   4229     1
   4226   4230     1
   4226   4228     1
   4226   4229     1
   4228   4231     1
   4228   4232     1
   4229   4231     1
   4229   4232     1
   4234   4241     1
   4234   4242     1
   4235   4240     1
   4235   4238     1
   4235   4239     1
   4236   4240     1
   4236   4238     1
   4236   4239     1
   4238   4262     1
   4238   4243     1
   4238   4241     1
   4238   4242     1
   4239   4262     1
   4239   4243     1
   4239   4241     1
   4239   4242     1
   4240   4245     1
   4240   4246     1
   4240   4254     1
   4240   4255     1
   4241   4244     1
   4241   4253     1
   4242   4244     1
   4242   4253     1
   4243   4248     1
   4243   4249     1
   4243   4257     1
   4243   4258     1
   4244   4254     1
   4244   4255     1
   4245   4253     1
   4245   4250     1
   4245   4248     1
   4245   4249     1
   4246   4253     1
   4246   4250     1
   4246   4248     1
   4246   4249     1
   4248   4251     1
   4248   4252     1
   4249   4251     1
   4249   4252     1
   4254   4259     1
   4254   4257     1
   4254   4258     1
   4255   4259     1
   4255   4257     1
   4255   4258     1
   4257   4260     1
   4257   4261     1
   4258   4260     1
   4258   4261     1
   4263   4270     1
   4263   4271     1
   4264   4269     1
   4264   4267     1
   4264   4268     1
   4265   4269     1
   4265   4267     1
   4265   4268     1
   4267   4272     1
   4267   4270     1
   4267   4271     1
   4267   4291     1
   4268   4272     1
   4268   4270     1
   4268   4271     1
   4268   4291     1
   4269   4274     1
   4269   4275     1
   4269   4283     1
   4269   4284     1
   4270   4273     1
   4270   4282     1
   4271   4273     1
   4271   4282     1
   4272   4277     1
   4272   4278     1
   4272   4286     1
   4272   4287     1
   4273   4283     1
   4273   4284     1
   4274   4279     1
   4274   4277     1
   4274   4278     1
   4274   4282     1
   4275   4279     1
   4275   4277     1
   4275   4278     1
   4275   4282     1
   4277   4280     1
   4277   4281     1
   4278   4280     1
   4278   4281     1
   4283   4288     1
   4283   4286     1
   4283   4287     1
   4284   4288     1
   4284   4286     1
   4284   4287     1
   4286   4289     1
   4286   4290     1
   4287   4289     1
   4287   4290     1
   4292   4299     1
   4292   4300     1
   4293   4298     1
   4293   4296     1
   4293   4297     1
   4294   4298     1
   4294   4296     1
   4294   4297     1
   4296   4320     1
   4296   4301     1
   4296   4299     1
   4296   4300     1
   4297   4320     1
   4297   4301     1
   4297   4299     1
   4297   4300     1
   4298   4303     1
   4298   4304     1
   4298   4312     1
   4298   4313     1
   4299   4302     1
   4299   4311     1
   4300   4302     1
   4300   4311     1
   4301   4306     1
   4301   4307     1
   4301   4315     1
   4301   4316     1
   4302   4312     1
   4302   4313     1
   4303   4311     1
   4303   4308     1
   4303   4306     1
   4303   4307     1
   4304   4311     1
   4304   4308     1
   4304   4306     1
   4304   4307     1
   4306   4309     1
   4306   4310     1
   4307   4309     1
   4307   4310     1
   4312   4317     1
   4312   4315     1
   4312   4316     1
   4313   4317     1
   4313   4315     1
   4313   4316     1
   4315   4318     1
   4315   4319     1
   4316   4318     1
   4316   4319     1
   4321   4328     1
   4321   4329     1
   4322   4327     1
   4322   4325     1
   4322   4326     1
   4323   4327     1
   4323   4325     1
   4323   4326     1
   4325   4330     1
   4325   4328     1
   4325   4329     1
   4325   4349     1
   4326   4330     1
   4326   4328     1
   4326   4329     1
   4326   4349     1
   4327   4332     1
   4327   4333     1
   4327   4341     1
   4327   4342     1
   4328   4331     1
   4328   4340     1
   4329   4331     1
   4329   4340     1
   4330   4335     1
   4330   4336     1
   4330   4344     1
   4330   4345     1
   4331   4341     1
   4331   4342     1
   4332   4337     1
   4332   4335     1
   4332   4336     1
   4332   4340     1
   4333   4337     1
   4333   4335     1
   4333   4336     1
   4333   4340     1
   4335   4338     1
   4335   4339     1
   4336   4338     1
   4336   4339     1
   4341   4346     1
   4341   4344     1
   4341   4345     1
   4342   4346     1
   4342   4344     1
   4342   4345     1
   4344   4347     1
   4344   4348     1
   4345   4347     1
   4345   4348     1
   4350   4357     1
   4350   4358     1
   4351   4356     1
   4351   4354     1
   4351   4355     1
   4352   4356     1
   4352   4354     1
   4352   4355     1
   4354   4378     1
   4354   4359     1
   4354   4357     1
   4354   4358     1
   4355   4378     1
   4355   4359     1
   4355   4357     1
   4355   4358     1
   4356   4361     1
   4356   4362     1
   4356   4370     1
   4356   4371     1
   4357   4360     1
   4357   4369     1
   4358   4360     1
   4358   4369     1
   4359   4364     1
   4359   4365     1
   4359   4373     1
   4359   4374     1
   4360   4370     1
   4360   4371     1
   4361   4369     1
   4361   4366     1
   4361   4364     1
   4361   4365     1
   4362   4369     1
   4362   4366     1
   4362   4364     1
   4362   4365     1
   4364   4367     1
   4364   4368     1
   4365   4367     1
   4365   4368     1
   4370   4375     1
   4370   4373     1
   4370   4374     1
   4371   4375     1
   4371   4373     1
   4371   4374     1
   4373   4376     1
   4373   4377     1
   4374   4376     1
   4374   4377     1
   4379   4386     1
   4379   4387     1
   4380   4385     1
   4380   4383     1
   4380   4384     1
   4381   4385     1
   4381   4383     1
   4381   4384     1
   4383   4388     1
   4383   4386     1
   4383   4387     1
   4383   4407     1
   4384   4388     1
   4384   4386     1
   4384   4387     1
   4384   4407     1
   4385   4390     1
   4385   4391     1
   4385   4399     1
   4385   4400     1
   4386   4389     1
   4386   4398     1
   4387   4389     1
   4387   4398     1
   4388   4393     1
   4388   4394     1
   4388   4402     1
   4388   4403     1
   4389   4399     1
   4389   4400     1
   4390   4395     1
   4390   4393     1
   4390   4394     1
   4390   4398     1
   4391   4395     1
   4391   4393     1
   4391   4394     1
   4391   4398     1
   4393   4396     1
   4393   4397     1
   4394   4396     1
   4394   4397     1
   4399   4404     1
   4399   4402     1
   4399   4403     1
   4400   4404     1
   4400   4402     1
   4400   4403     1
   4402   4405     1
   4402   4406     1
   4403   4405     1
   4403   4406     1
   4408   4415     1
   4408   4416     1
   4409   4414     1
   4409   4412     1
   4409   4413     1
   4410   4414     1
   4410   4412     1
   4410   4413     1
   4412   4436     1
   4412   4417     1
   4412   4415     1
   4412   4416     1
   4413   4436     1
   4413   4417     1
   4413   4415     1
   4413   4416     1
   4414   4419     1
   4414   4420     1
   4414   4428     1
   4414   4429     1
   4415   4418     1
   4415   4427     1
   4416   4418     1
   4416   4427     1
   4417   4422     1
   4417   4423     1
   4417   4431     1
   4417   4432     1
   4418   4428     1
   4418   4429     1
   4419   4427     1
   4419   4424     1
   4419   4422     1
   4419   4423     1
   4420   4427     1
   4420   4424     1
   4420   4422     1
   4420   4423     1
   4422   4425     1
   4422   4426     1
   4423   4425     1
   4423   4426     1
   4428   4433     1
   4428   4431     1
   4428   4432     1
   4429   4433     1
   4429   4431     1
   4429   4432     1
   4431   4434     1
   4431   4435     1
   4432   4434     1
   4432   4435     1
   4437   4444     1
   4437   4445     1
   4438   4443     1
   4438   4441     1
   4438   4442     1
   4439   4443     1
   4439   4441     1
   4439   4442     1
   4441   4446     1
   4441   4444     1
   4441   4445     1
   4441   4465     1
   4442   4446     1
   4442   4444     1
   4442   4445     1
   4442   4465     1
   4443   4448     1
   4443   4449     1
   4443   4457     1
   4443   4458     1
   4444   4447     1
   4444   4456     1
   4445   4447     1
   4445   4456     1
   4446   4451     1
   4446   4452     1
   4446   4460     1
   4446   4461     1
   4447   4457     1
   4447   4458     1
   4448   4453     1
   4448   4451     1
   4448   4452     1
   4448   4456     1
   4449   4453     1
   4449   4451     1
   4449   4452     1
   4449   4456     1
   4451   4454     1
   4451   4455     1
   4452   4454     1
   4452   4455     1
   4457   4462     1
   4457   4460     1
   4457   4461     1
   4458   4462     1
   4458   4460     1
   4458   4461     1
   4460   4463     1
   4460   4464     1
   4461   4463     1
   4461   4464     1
   4466   4473     1
   4466   4474     1
   4467   4472     1
   4467   4470     1
   4467   4471     1
   4468   4472     1
   4468   4470     1
   4468   4471     1
   4470   4494     1
   4470   4475     1
   4470   4473     1
   4470   4474     1
   4471   4494     1
   4471   4475     1
   4471   4473     1
   4471   4474     1
   4472   4477     1
   4472   4478     1
   4472   4486     1
   4472   4487     1
   4473   4476     1
   4473   4485     1
   4474   4476     1
   4474   4485     1
   4475   4480     1
   4475   4481     1
   4475   4489     1
   4475   4490     1
   4476   4486     1
   4476   4487     1
   4477   4485     1
   4477   4482     1
   4477   4480     1
   4477   4481     1
   4478   4485     1
   4478   4482     1
   4478   4480     1
   4478   4481     1
   4480   4483     1
   4480   4484     1
   4481   4483     1
   4481   4484     1
   4486   4491     1
   4486   4489     1
   4486   4490     1
   4487   4491     1
   4487   4489     1
   4487   4490     1
   4489   4492     1
   4489   4493     1
   4490   4492     1
   4490   4493     1
   4495   4502     1
   4495   4503     1
   4496   4501     1
   4496   4499     1
   4496   4500     1
   4497   4501     1
   4497   4499     1
   4497   4500     1
   4499   4504     1
   4499   4502     1
   4499   4503     1
   4499   4523     1
   4500   4504     1
   4500   4502     1
   4500   4503     1
   4500   4523     1
   4501   4506     1
   4501   4507     1
   4501   4515     1
   4501   4516     1
   4502   4505     1
   4502   4514     1
   4503   4505     1
   4503   4514     1
   4504   4509     1
   4504   4510     1
   4504   4518     1
   4504   4519     1
   4505   4515     1
   4505   4516     1
   4506   4511     1
   4506   4509     1
   4506   4510     1
   4506   4514     1
   4507   4511     1
   4507   4509     1
   4507   4510     1
   4507   4514     1
   4509   4512     1
   4509   4513     1
   4510   4512     1
   4510   4513     1
   4515   4520     1
   4515   4518     1
   4515   4519     1
   4516   4520     1
   4516   4518     1
   4516   4519     1
   4518   4521     1
   4518   4522     1
   4519   4521     1
   4519   4522     1
   4524   4531     1
   4524   4532     1
   4525   4530     1
   4525   4528     1
   4525   4529     1
   4526   4530     1
   4526   4528     1
   4526   4529     1
   4528   4552     1
   4528   4533     1
   4528   4531     1
   4528   4532     1
   4529   4552     1
   4529   4533     1
   4529   4531     1
   4529   4532     1
   4530   4535     1
   4530   4536     1
   4530   4544     1
   4530   4545     1
   4531   4534     1
   4531   4543     1
   4532   4534     1
   4532   4543     1
   4533   4538     1
   4533   4539     1
   4533   4547     1
   4533   4548     1
   4534   4544     1
   4534   4545     1
   4535   4543     1
   4535   4540     1
   4535   4538     1
   4535   4539     1
   4536   4543     1
   4536   4540     1
   4536   4538     1
   4536   4539     1
   4538   4541     1
   4538   4542     1
   4539   4541     1
   4539   4542     1
   4544   4549     1
   4544   4547     1
   4544   4548     1
   4545   4549     1
   4545   4547     1
   4545   4548     1
   4547   4550     1
   4547   4551     1
   4548   4550     1
   4548   4551     1
   4553   4560     1
   4553   4561     1
   4554   4559     1
   4554   4557     1
   4554   4558     1
   4555   4559     1
   4555   4557     1
   4555   4558     1
   4557   4562     1
   4557   4560     1
   4557   4561     1
   4557   4581     1
   4558   4562     1
   4558   4560     1
   4558   4561     1
   4558   4581     1
   4559   4564     1
   4559   4565     1
   4559   4573     1
   4559   4574     1
   4560   4563     1
   4560   4572     1
   4561   4563     1
   4561   4572     1
   4562   4567     1
   4562   4568     1
   4562   4576     1
   4562   4577     1
   4563   4573     1
   4563   4574     1
   4564   4569     1
   4564   4567     1
   4564   4568     1
   4564   4572     1
   4565   4569     1
   4565   4567     1
   4565   4568     1
   4565   4572     1
   4567   4570     1
   4567   4571     1
   4568   4570     1
   4568   4571     1
   4573   4578     1
   4573   4576     1
   4573   4577     1
   4574   4578     1
   4574   4576     1
   4574   4577     1
   4576   4579     1
   4576   4580     1
   4577   4579     1
   4577   4580     1
   4582   4589     1
   4582   4590     1
   4583   4588     1
   4583   4586     1
   4583   4587     1
   4584   4588     1
   4584   4586     1
   4584   4587     1
   4586   4610     1
   4586   4591     1
   4586   4589     1
   4586   4590     1
   4587   4610     1
   4587   4591     1
   4587   4589     1
   4587   4590     1
   4588   4593     1
   4588   4594     1
   4588   4602     1
   4588   4603     1
   4589   4592     1
   4589   4601     1
   4590   4592     1
   4590   4601     1
   4591   4596     1
   4591   4597     1
   4591   4605     1
   4591   4606     1
   4592   4602     1
   4592   4603     1
   4593   4601     1
   4593   4598     1
   4593   4596     1
   4593   4597     1
   4594   4601     1
   4594   4598     1
   4594   4596     1
   4594   4597     1
   4596   4599     1
   4596   4600     1
   4597   4599     1
   4597   4600     1
   4602   4607     1
   4602   4605     1
   4602   4606     1
   4603   4607     1
   4603   4605     1
   4603   4606     1
   4605   4608     1
   4605   4609     1
   4606   4608     1
   4606   4609     1
   4611   4618     1
   4611   4619     1
   4612   4617     1
   4612   4615     1
   4612   4616     1
   4613   4617     1
   4613   4615     1
   4613   4616     1
   4615   4620     1
   4615   4618     1
   4615   4619     1
   4615   4639     1
   4616   4620     1
   4616   4618     1
   4616   4619     1
   4616   4639     1
   4617   4622     1
   4617   4623     1
   4617   4631     1
   4617   4632     1
   4618   4621     1
   4618   4630     1
   4619   4621     1
   4619   4630     1
   4620   4625     1
   4620   4626     1
   4620   4634     1
   4620   4635     1
   4621   4631     1
   4621   4632     1
   4622   4627     1
   4622   4625     1
   4622   4626     1
   4622   4630     1
   4623   4627     1
   4623   4625     1
   4623   4626     1
   4623   4630     1
   4625   4628     1
   4625   4629     1
   4626   4628     1
   4626   4629     1
   4631   4636     1
   4631   4634     1
   4631   4635     1
   4632   4636     1
   4632   4634     1
   4632   4635     1
   4634   4637     1
   4634   4638     1
   4635   4637     1
   4635   4638     1
   4640   4647     1
   4640   4648     1
   4641   4646     1
   4641   4644     1
   4641   4645     1
   4642   4646     1
   4642   4644     1
   4642   4645     1
   4644   4668     1
   4644   4649     1
   4644   4647     1
   4644   4648     1
   4645   4668     1
   4645   4649     1
   4645   4647     1
   4645   4648     1
   4646   4651     1
   4646   4652     1
   4646   4660     1
   4646   4661     1
   4647   4650     1
   4647   4659     1
   4648   4650     1
   4648   4659     1
   4649   4654     1
   4649   4655     1
   4649   4663     1
   4649   4664     1
   4650   4660     1
   4650   4661     1
   4651   4659     1
   4651   4656     1
   4651   4654     1
   4651   4655     1
   4652   4659     1
   4652   4656     1
   4652   4654     1
   4652   4655     1
   4654   4657     1
   4654   4658     1
   4655   4657     1
   4655   4658     1
   4660   4665     1
   4660   4663     1
   4660   4664     1
   4661   4665     1
   4661   4663     1
   4661   4664     1
   4663   4666     1
   4663   4667     1
   4664   4666     1
   4664   4667     1
   4669   4676     1
   4669   4677     1
   4670   4675     1
   4670   4673     1
   4670   4674     1
   4671   4675     1
   4671   4673     1
   4671   4674     1
   4673   4678     1
   4673   4676     1
   4673   4677     1
   4673   4697     1
   4674   4678     1
   4674   4676     1
   4674   4677     1
   4674   4697     1
   4675   4680     1
   4675   4681     1
   4675   4689     1
   4675   4690     1
   4676   4679     1
   4676   4688     1
   4677   4679     1
   4677   4688     1
   4678   4683     1
   4678   4684     1
   4678   4692     1
   4678   4693     1
   4679   4689     1
   4679   4690     1
   4680   4685     1
   4680   4683     1
   4680   4684     1
   4680   4688     1
   4681   4685     1
   4681   4683     1
   4681   4684     1
   4681   4688     1
   4683   4686     1
   4683   4687     1
   4684   4686     1
   4684   4687     1
   4689   4694     1
   4689   4692     1
   4689   4693     1
   4690   4694     1
   4690   4692     1
   4690   4693     1
   4692   4695     1
   4692   4696     1
   4693   4695     1
   4693   4696     1
   4698   4705     1
   4698   4706     1
   4699   4704     1
   4699   4702     1
   4699   4703     1
   4700   4704     1
   4700   4702     1
   4700   4703     1
   4702   4726     1
   4702   4707     1
   4702   4705     1
   4702   4706     1
   4703   4726     1
   4703   4707     1
   4703   4705     1
   4703   4706     1
   4704   4709     1
   4704   4710     1
   4704   4718     1
   4704   4719     1
   4705   4708     1
   4705   4717     1
   4706   4708     1
   4706   4717     1
   4707   4712     1
   4707   4713     1
   4707   4721     1
   4707   4722     1
   4708   4718     1
   4708   4719     1
   4709   4717     1
   4709   4714     1
   4709   4712     1
   4709   4713     1
   4710   4717     1
   4710   4714     1
   4710   4712     1
   4710   4713     1
   4712   4715     1
   4712   4716     1
   4713   4715     1
   4713   4716     1
   4718   4723     1
   4718   4721     1
   4718   4722     1
   4719   4723     1
   4719   4721     1
   4719   4722     1
   4721   4724     1
   4721   4725     1
   4722   4724     1
   4722   4725     1
   4727   4734     1
   4727   4735     1
   4728   4733     1
   4728   4731     1
   4728   4732     1
   4729   4733     1
   4729   4731     1
   4729   4732     1
   4731   4736     1
   4731   4734     1
   4731   4735     1
   4731   4755     1
   4732   4736     1
   4732   4734     1
   4732   4735     1
   4732   4755     1
   4733   4738     1
   4733   4739     1
   4733   4747     1
   4733   4748     1
   4734   4737     1
   4734   4746     1
   4735   4737     1
   4735   4746     1
   4736   4741     1
   4736   4742     1
   4736   4750     1
   4736   4751     1
   4737   4747     1
   4737   4748     1
   4738   4743     1
   4738   4741     1
   4738   4742     1
   4738   4746     1
   4739   4743     1
   4739   4741     1
   4739   4742     1
   4739   4746     1
   4741   4744     1
   4741   4745     1
   4742   4744     1
   4742   4745     1
   4747   4752     1
   4747   4750     1
   4747   4751     1
   4748   4752     1
   4748   4750     1
   4748   4751     1
   4750   4753     1
   4750   4754     1
   4751   4753     1
   4751   4754     1
   4756   4763     1
   4756   4764     1
   4757   4762     1
   4757   4760     1
   4757   4761     1
   4758   4762     1
   4758   4760     1
   4758   4761     1
   4760   4784     1
   4760   4765     1
   4760   4763     1
   4760   4764     1
   4761   4784     1
   4761   4765     1
   4761   4763     1
   4761   4764     1
   4762   4767     1
   4762   4768     1
   4762   4776     1
   4762   4777     1
   4763   4766     1
   4763   4775     1
   4764   4766     1
   4764   4775     1
   4765   4770     1
   4765   4771     1
   4765   4779     1
   4765   4780     1
   4766   4776     1
   4766   4777     1
   4767   4775     1
   4767   4772     1
   4767   4770     1
   4767   4771     1
   4768   4775     1
   4768   4772     1
   4768   4770     1
   4768   4771     1
   4770   4773     1
   4770   4774     1
   4771   4773     1
   4771   4774     1
   4776   4781     1
   4776   4779     1
   4776   4780     1
   4777   4781     1
   4777   4779     1
   4777   4780     1
   4779   4782     1
   4779   4783     1
   4780   4782     1
   4780   4783     1
   4785   4792     1
   4785   4793     1
   4786   4791     1
   4786   4789     1
   4786   4790     1
   4787   4791     1
   4787   4789     1
   4787   4790     1
   4789   4794     1
   4789   4792     1
   4789   4793     1
   4789   4813     1
   4790   4794     1
   4790   4792     1
   4790   4793     1
   4790   4813     1
   4791   4796     1
   4791   4797     1
   4791   4805     1
   4791   4806     1
   4792   4795     1
   4792   4804     1
   4793   4795     1
   4793   4804     1
   4794   4799     1
   4794   4800     1
   4794   4808     1
   4794   4809     1
   4795   4805     1
   4795   4806     1
   4796   4801     1
   4796   4799     1
   4796   4800     1
   4796   4804     1
   4797   4801     1
   4797   4799     1
   4797   4800     1
   4797   4804     1
   4799   4802     1
   4799   4803     1
   4800   4802     1
   4800   4803     1
   4805   4810     1
   4805   4808     1
   4805   4809     1
   4806   4810     1
   4806   4808     1
   4806   4809     1
   4808   4811     1
   4808   4812     1
   4809   4811     1
   4809   4812     1
   4814   4821     1
   4814   4822     1
   4815   4820     1
   4815   4818     1
   4815   4819     1
   4816   4820     1
   4816   4818     1
   4816   4819     1
   4818   4842     1
   4818   4823     1
   4818   4821     1
   4818   4822     1
   4819   4842     1
   4819   4823     1
   4819   4821     1
   4819   4822     1
   4820   4825     1
   4820   4826     1
   4820   4834     1
   4820   4835     1
   4821   4824     1
   4821   4833     1
   4822   4824     1
   4822   4833     1
   4823   4828     1
   4823   4829     1
   4823   4837     1
   4823   4838     1
   4824   4834     1
   4824   4835     1
   4825   4833     1
   4825   4830     1
   4825   4828     1
   4825   4829     1
   4826   4833     1
   4826   4830     1
   4826   4828     1
   4826   4829     1
   4828   4831     1
   4828   4832     1
   4829   4831     1
   4829   4832     1
   4834   4839     1
   4834   4837     1
   4834   4838     1
   4835   4839     1
   4835   4837     1
   4835   4838     1
   4837   4840     1
   4837   4841     1
   4838   4840     1
   4838   4841     1
   4843   4850     1
   4843   4851     1
   4844   4849     1
   4844   4847     1
   4844   4848     1
   4845   4849     1
   4845   4847     1
   4845   4848     1
   4847   4852     1
   4847   4850     1
   4847   4851     1
   4847   4871     1
   4848   4852     1
   4848   4850     1
   4848   4851     1
   4848   4871     1
   4849   4854     1
   4849   4855     1
   4849   4863     1
   4849   4864     1
   4850   4853     1
   4850   4862     1
   4851   4853     1
   4851   4862     1
   4852   4857     1
   4852   4858     1
   4852   4866     1
   4852   4867     1
   4853   4863     1
   4853   4864     1
   4854   4859     1
   4854   4857     1
   4854   4858     1
   4854   4862     1
   4855   4859     1
   4855   4857     1
   4855   4858     1
   4855   4862     1
   4857   4860     1
   4857   4861     1
   4858   4860     1
   4858   4861     1
   4863   4868     1
   4863   4866     1
   4863   4867     1
   4864   4868     1
   4864   4866     1
   4864   4867     1
   4866   4869     1
   4866   4870     1
   4867   4869     1
   4867   4870     1
   4872   4879     1
   4872   4880     1
   4873   4878     1
   4873   4876     1
   4873   4877     1
   4874   4878     1
   4874   4876     1
   4874   4877     1
   4876   4900     1
   4876   4881     1
   4876   4879     1
   4876   4880     1
   4877   4900     1
   4877   4881     1
   4877   4879     1
   4877   4880     1
   4878   4883     1
   4878   4884     1
   4878   4892     1
   4878   4893     1
   4879   4882     1
   4879   4891     1
   4880   4882     1
   4880   4891     1
   4881   4886     1
   4881   4887     1
   4881   4895     1
   4881   4896     1
   4882   4892     1
   4882   4893     1
   4883   4891     1
   4883   4888     1
   4883   4886     1
   4883   4887     1
   4884   4891     1
   4884   4888     1
   4884   4886     1
   4884   4887     1
   4886   4889     1
   4886   4890     1
   4887   4889     1
   4887   4890     1
   4892   4897     1
   4892   4895     1
   4892   4896     1
   4893   4897     1
   4893   4895     1
   4893   4896     1
   4895   4898     1
   4895   4899     1
   4896   4898     1
   4896   4899     1
   4901   4908     1
   4901   4909     1
   4902   4907     1
   4902   4905     1
   4902   4906     1
   4903   4907     1
   4903   4905     1
   4903   4906     1
   4905   4910     1
   4905   4908     1
   4905   4909     1
   4905   4929     1
   4906   4910     1
   4906   4908     1
   4906   4909     1
   4906   4929     1
   4907   4912     1
   4907   4913     1
   4907   4921     1
   4907   4922     1
   4908   4911     1
   4908   4920     1
   4909   4911     1
   4909   4920     1
   4910   4915     1
   4910   4916     1
   4910   4924     1
   4910   4925     1
   4911   4921     1
   4911   4922     1
   4912   4917     1
   4912   4915     1
   4912   4916     1
   4912   4920     1
   4913   4917     1
   4913   4915     1
   4913   4916     1
   4913   4920     1
   4915   4918     1
   4915   4919     1
   4916   4918     1
   4916   4919     1
   4921   4926     1
   4921   4924     1
   4921   4925     1
   4922   4926     1
   4922   4924     1
   4922   4925     1
   4924   4927     1
   4924   4928     1
   4925   4927     1
   4925   4928     1
   4930   4937     1
   4930   4938     1
   4931   4936     1
   4931   4934     1
   4931   4935     1
   4932   4936     1
   4932   4934     1
   4932   4935     1
   4934   4958     1
   4934   4939     1
   4934   4937     1
   4934   4938     1
   4935   4958     1
   4935   4939     1
   4935   4937     1
   4935   4938     1
   4936   4941     1
   4936   4942     1
   4936   4950     1
   4936   4951     1
   4937   4940     1
   4937   4949     1
   4938   4940     1
   4938   4949     1
   4939   4944     1
   4939   4945     1
   4939   4953     1
   4939   4954     1
   4940   4950     1
   4940   4951     1
   4941   4949     1
   4941   4946     1
   4941   4944     1
   4941   4945     1
   4942   4949     1
   4942   4946     1
   4942   4944     1
   4942   4945     1
   4944   4947     1
   4944   4948     1
   4945   4947     1
   4945   4948     1
   4950   4955     1
   4950   4953     1
   4950   4954     1
   4951   4955     1
   4951   4953     1
   4951   4954     1
   4953   4956     1
   4953   4957     1
   4954   4956     1
   4954   4957     1
   4959   4966     1
   4959   4967     1
   4960   4965     1
   4960   4963     1
   4960   4964     1
   4961   4965     1
   4961   4963     1
   4961   4964     1
   4963   4968     1
   4963   4966     1
   4963   4967     1
   4963   4987     1
   4964   4968     1
   4964   4966     1
   4964   4967     1
   4964   4987     1
   4965   4970     1
   4965   4971     1
   4965   4979     1
   4965   4980     1
   4966   4969     1
   4966   4978     1
   4967   4969     1
   4967   4978     1
   4968   4973     1
   4968   4974     1
   4968   4982     1
   4968   4983     1
   4969   4979     1
   4969   4980     1
   4970   4975     1
   4970   4973     1
   4970   4974     1
   4970   4978     1
   4971   4975     1
   4971   4973     1
   4971   4974     1
   4971   4978     1
   4973   4976     1
   4973   4977     1
   4974   4976     1
   4974   4977     1
   4979   4984     1
   4979   4982     1
   4979   4983     1
   4980   4984     1
   4980   4982     1
   4980   4983     1
   4982   4985     1
   4982   4986     1
   4983   4985     1
   4983   4986     1
   4988   4995     1
   4988   4996     1
   4989   4994     1
   4989   4992     1
   4989   4993     1
   4990   4994     1
   4990   4992     1
   4990   4993     1
   4992   5016     1
   4992   4997     1
   4992   4995     1
   4992   4996     1
   4993   5016     1
   4993   4997     1
   4993   4995     1
   4993   4996     1
   4994   4999     1
   4994   5000     1
   4994   5008     1
   4994   5009     1
   4995   4998     1
   4995   5007     1
   4996   4998     1
   4996   5007     1
   4997   5002     1
   4997   5003     1
   4997   5011     1
   4997   5012     1
   4998   5008     1
   4998   5009     1
   4999   5007     1
   4999   5004     1
   4999   5002     1
   4999   5003     1
   5000   5007     1
   5000   5004     1
   5000   5002     1
   5000   5003     1
   5002   5005     1
   5002   5006     1
   5003   5005     1
   5003   5006     1
   5008   5013     1
   5008   5011     1
   5008   5012     1
   5009   5013     1
   5009   5011     1
   5009   5012     1
   5011   5014     1
   5011   5015     1
   5012   5014     1
   5012   5015     1
   5017   5024     1
   5017   5025     1
   5018   5023     1
   5018   5021     1
   5018   5022     1
   5019   5023     1
   5019   5021     1
   5019   5022     1
   5021   5026     1
   5021   5024     1
   5021   5025     1
   5021   5045     1
   5022   5026     1
   5022   5024     1
   5022   5025     1
   5022   5045     1
   5023   5028     1
   5023   5029     1
   5023   5037     1
   5023   5038     1
   5024   5027     1
   5024   5036     1
   5025   5027     1
   5025   5036     1
   5026   5031     1
   5026   5032     1
   5026   5040     1
   5026   5041     1
   5027   5037     1
   5027   5038     1
   5028   5033     1
   5028   5031     1
   5028   5032     1
   5028   5036     1
   5029   5033     1
   5029   5031     1
   5029   5032     1
   5029   5036     1
   5031   5034     1
   5031   5035     1
   5032   5034     1
   5032   5035     1
   5037   5042     1
   5037   5040     1
   5037   5041     1
   5038   5042     1
   5038   5040     1
   5038   5041     1
   5040   5043     1
   5040   5044     1
   5041   5043     1
   5041   5044     1
   5046   5053     1
   5046   5054     1
   5047   5052     1
   5047   5050     1
   5047   5051     1
   5048   5052     1
   5048   5050     1
   5048   5051     1
   5050   5074     1
   5050   5055     1
   5050   5053     1
   5050   5054     1
   5051   5074     1
   5051   5055     1
   5051   5053     1
   5051   5054     1
   5052   5057     1
   5052   5058     1
   5052   5066     1
   5052   5067     1
   5053   5056     1
   5053   5065     1
   5054   5056     1
   5054   5065     1
   5055   5060     1
   5055   5061     1
   5055   5069     1
   5055   5070     1
   5056   5066     1
   5056   5067     1
   5057   5065     1
   5057   5062     1
   5057   5060     1
   5057   5061     1
   5058   5065     1
   5058   5062     1
   5058   5060     1
   5058   5061     1
   5060   5063     1
   5060   5064     1
   5061   5063     1
   5061   5064     1
   5066   5071     1
   5066   5069     1
   5066   5070     1
   5067   5071     1
   5067   5069     1
   5067   5070     1
   5069   5072     1
   5069   5073     1
   5070   5072     1
   5070   5073     1
   5075   5082     1
   5075   5083     1
   5076   5081     1
   5076   5079     1
   5076   5080     1
   5077   5081     1
   5077   5079     1
   5077   5080     1
   5079   5084     1
   5079   5082     1
   5079   5083     1
   5079   5103     1
   5080   5084     1
   5080   5082     1
   5080   5083     1
   5080   5103     1
   5081   5086     1
   5081   5087     1
   5081   5095     1
   5081   5096     1
   5082   5085     1
   5082   5094     1
   5083   5085     1
   5083   5094     1
   5084   5089     1
   5084   5090     1
   5084   5098     1
   5084   5099     1
   5085   5095     1
   5085   5096     1
   5086   5091     1
   5086   5089     1
   5086   5090     1
   5086   5094     1
   5087   5091     1
   5087   5089     1
   5087   5090     1
   5087   5094     1
   5089   5092     1
   5089   5093     1
   5090   5092     1
   5090   5093     1
   5095   5100     1
   5095   5098     1
   5095   5099     1
   5096   5100     1
   5096   5098     1
   5096   5099     1
   5098   5101     1
   5098   5102     1
   5099   5101     1
   5099   5102     1
   5104   5111     1
   5104   5112     1
   5105   5110     1
   5105   5108     1
   5105   5109     1
   5106   5110     1
   5106   5108     1
   5106   5109     1
   5108   5132     1
   5108   5113     1
   5108   5111     1
   5108   5112     1
   5109   5132     1
   5109   5113     1
   5109   5111     1
   5109   5112     1
   5110   5115     1
   5110   5116     1
   5110   5124     1
   5110   5125     1
   5111   5114     1
   5111   5123     1
   5112   5114     1
   5112   5123     1
   5113   5118     1
   5113   5119     1
   5113   5127     1
   5113   5128     1
   5114   5124     1
   5114   5125     1
   5115   5123     1
   5115   5120     1
   5115   5118     1
   5115   5119     1
   5116   5123     1
   5116   5120     1
   5116   5118     1
   5116   5119     1
   5118   5121     1
   5118   5122     1
   5119   5121     1
   5119   5122     1
   5124   5129     1
   5124   5127     1
   5124   5128     1
   5125   5129     1
   5125   5127     1
   5125   5128     1
   5127   5130     1
   5127   5131     1
   5128   5130     1
   5128   5131     1
   5133   5140     1
   5133   5141     1
   5134   5139     1
   5134   5137     1
   5134   5138     1
   5135   5139     1
   5135   5137     1
   5135   5138     1
   5137   5142     1
   5137   5140     1
   5137   5141     1
   5137   5161     1
   5138   5142     1
   5138   5140     1
   5138   5141     1
   5138   5161     1
   5139   5144     1
   5139   5145     1
   5139   5153     1
   5139   5154     1
   5140   5143     1
   5140   5152     1
   5141   5143     1
   5141   5152     1
   5142   5147     1
   5142   5148     1
   5142   5156     1
   5142   5157     1
   5143   5153     1
   5143   5154     1
   5144   5149     1
   5144   5147     1
   5144   5148     1
   5144   5152     1
   5145   5149     1
   5145   5147     1
   5145   5148     1
   5145   5152     1
   5147   5150     1
   5147   5151     1
   5148   5150     1
   5148   5151     1
   5153   5158     1
   5153   5156     1
   5153   5157     1
   5154   5158     1
   5154   5156     1
   5154   5157     1
   5156   5159     1
   5156   5160     1
   5157   5159     1
   5157   5160     1
   5162   5169     1
   5162   5170     1
   5163   5168     1
   5163   5166     1
   5163   5167     1
   5164   5168     1
   5164   5166     1
   5164   5167     1
   5166   5190     1
   5166   5171     1
   5166   5169     1
   5166   5170     1
   5167   5190     1
   5167   5171     1
   5167   5169     1
   5167   5170     1
   5168   5173     1
   5168   5174     1
   5168   5182     1
   5168   5183     1
   5169   5172     1
   5169   5181     1
   5170   5172     1
   5170   5181     1
   5171   5176     1
   5171   5177     1
   5171   5185     1
   5171   5186     1
   5172   5182     1
   5172   5183     1
   5173   5181     1
   5173   5178     1
   5173   5176     1
   5173   5177     1
   5174   5181     1
   5174   5178     1
   5174   5176     1
   5174   5177     1
   5176   5179     1
   5176   5180     1
   5177   5179     1
   5177   5180     1
   5182   5187     1
   5182   5185     1
   5182   5186     1
   5183   5187     1
   5183   5185     1
   5183   5186     1
   5185   5188     1
   5185   5189     1
   5186   5188     1
   5186   5189     1
   5191   5198     1
   5191   5199     1
   5192   5197     1
   5192   5195     1
   5192   5196     1
   5193   5197     1
   5193   5195     1
   5193   5196     1
   5195   5200     1
   5195   5198     1
   5195   5199     1
   5195   5219     1
   5196   5200     1
   5196   5198     1
   5196   5199     1
   5196   5219     1
   5197   5202     1
   5197   5203     1
   5197   5211     1
   5197   5212     1
   5198   5201     1
   5198   5210     1
   5199   5201     1
   5199   5210     1
   5200   5205     1
   5200   5206     1
   5200   5214     1
   5200   5215     1
   5201   5211     1
   5201   5212     1
   5202   5207     1
   5202   5205     1
   5202   5206     1
   5202   5210     1
   5203   5207     1
   5203   5205     1
   5203   5206     1
   5203   5210     1
   5205   5208     1
   5205   5209     1
   5206   5208     1
   5206   5209     1
   5211   5216     1
   5211   5214     1
   5211   5215     1
   5212   5216     1
   5212   5214     1
   5212   5215     1
   5214   5217     1
   5214   5218     1
   5215   5217     1
   5215   5218     1
   5220   5227     1
   5220   5228     1
   5221   5226     1
   5221   5224     1
   5221   5225     1
   5222   5226     1
   5222   5224     1
   5222   5225     1
   5224   5248     1
   5224   5229     1
   5224   5227     1
   5224   5228     1
   5225   5248     1
   5225   5229     1
   5225   5227     1
   5225   5228     1
   5226   5231     1
   5226   5232     1
   5226   5240     1
   5226   5241     1
   5227   5230     1
   5227   5239     1
   5228   5230     1
   5228   5239     1
   5229   5234     1
   5229   5235     1
   5229   5243     1
   5229   5244     1
   5230   5240     1
   5230   5241     1
   5231   5239     1
   5231   5236     1
   5231   5234     1
   5231   5235     1
   5232   5239     1
   5232   5236     1
   5232   5234     1
   5232   5235     1
   5234   5237     1
   5234   5238     1
   5235   5237     1
   5235   5238     1
   5240   5245     1
   5240   5243     1
   5240   5244     1
   5241   5245     1
   5241   5243     1
   5241   5244     1
   5243   5246     1
   5243   5247     1
   5244   5246     1
   5244   5247     1
   5249   5256     1
   5249   5257     1
   5250   5255     1
   5250   5253     1
   5250   5254     1
   5251   5255     1
   5251   5253     1
   5251   5254     1
   5253   5258     1
   5253   5256     1
   5253   5257     1
   5253   5277     1
   5254   5258     1
   5254   5256     1
   5254   5257     1
   5254   5277     1
   5255   5260     1
   5255   5261     1
   5255   5269     1
   5255   5270     1
   5256   5259     1
   5256   5268     1
   5257   5259     1
   5257   5268     1
   5258   5263     1
   5258   5264     1
   5258   5272     1
   5258   5273     1
   5259   5269     1
   5259   5270     1
   5260   5265     1
   5260   5263     1
   5260   5264     1
   5260   5268     1
   5261   5265     1
   5261   5263     1
   5261   5264     1
   5261   5268     1
   5263   5266     1
   5263   5267     1
   5264   5266     1
   5264   5267     1
   5269   5274     1
   5269   5272     1
   5269   5273     1
   5270   5274     1
   5270   5272     1
   5270   5273     1
   5272   5275     1
   5272   5276     1
   5273   5275     1
   5273   5276     1
   5278   5285     1
   5278   5286     1
   5279   5284     1
   5279   5282     1
   5279   5283     1
   5280   5284     1
   5280   5282     1
   5280   5283     1
   5282   5306     1
   5282   5287     1
   5282   5285     1
   5282   5286     1
   5283   5306     1
   5283   5287     1
   5283   5285     1
   5283   5286     1
   5284   5289     1
   5284   5290     1
   5284   5298     1
   5284   5299     1
   5285   5288     1
   5285   5297     1
   5286   5288     1
   5286   5297     1
   5287   5292     1
   5287   5293     1
   5287   5301     1
   5287   5302     1
   5288   5298     1
   5288   5299     1
   5289   5297     1
   5289   5294     1
   5289   5292     1
   5289   5293     1
   5290   5297     1
   5290   5294     1
   5290   5292     1
   5290   5293     1
   5292   5295     1
   5292   5296     1
   5293   5295     1
   5293   5296     1
   5298   5303     1
   5298   5301     1
   5298   5302     1
   5299   5303     1
   5299   5301     1
   5299   5302     1
   5301   5304     1
   5301   5305     1
   5302   5304     1
   5302   5305     1
   5307   5314     1
   5307   5315     1
   5308   5313     1
   5308   5311     1
   5308   5312     1
   5309   5313     1
   5309   5311     1
   5309   5312     1
   5311   5316     1
   5311   5314     1
   5311   5315     1
   5311   5335     1
   5312   5316     1
   5312   5314     1
   5312   5315     1
   5312   5335     1
   5313   5318     1
   5313   5319     1
   5313   5327     1
   5313   5328     1
   5314   5317     1
   5314   5326     1
   5315   5317     1
   5315   5326     1
   5316   5321     1
   5316   5322     1
   5316   5330     1
   5316   5331     1
   5317   5327     1
   5317   5328     1
   5318   5323     1
   5318   5321     1
   5318   5322     1
   5318   5326     1
   5319   5323     1
   5319   5321     1
   5319   5322     1
   5319   5326     1
   5321   5324     1
   5321   5325     1
   5322   5324     1
   5322   5325     1
   5327   5332     1
   5327   5330     1
   5327   5331     1
   5328   5332     1
   5328   5330     1
   5328   5331     1
   5330   5333     1
   5330   5334     1
   5331   5333     1
   5331   5334     1
   5336   5343     1
   5336   5344     1
   5337   5342     1
   5337   5340     1
   5337   5341     1
   5338   5342     1
   5338   5340     1
   5338   5341     1
   5340   5364     1
   5340   5345     1
   5340   5343     1
   5340   5344     1
   5341   5364     1
   5341   5345     1
   5341   5343     1
   5341   5344     1
   5342   5347     1
   5342   5348     1
   5342   5356     1
   5342   5357     1
   5343   5346     1
   5343   5355     1
   5344   5346     1
   5344   5355     1
   5345   5350     1
   5345   5351     1
   5345   5359     1
   5345   5360     1
   5346   5356     1
   5346   5357     1
   5347   5355     1
   5347   5352     1
   5347   5350     1
   5347   5351     1
   5348   5355     1
   5348   5352     1
   5348   5350     1
   5348   5351     1
   5350   5353     1
   5350   5354     1
   5351   5353     1
   5351   5354     1
   5356   5361     1
   5356   5359     1
   5356   5360     1
   5357   5361     1
   5357   5359     1
   5357   5360     1
   5359   5362     1
   5359   5363     1
   5360   5362     1
   5360   5363     1
   5365   5372     1
   5365   5373     1
   5366   5371     1
   5366   5369     1
   5366   5370     1
   5367   5371     1
   5367   5369     1
   5367   5370     1
   5369   5374     1
   5369   5372     1
   5369   5373     1
   5369   5393     1
   5370   5374     1
   5370   5372     1
   5370   5373     1
   5370   5393     1
   5371   5376     1
   5371   5377     1
   5371   5385     1
   5371   5386     1
   5372   5375     1
   5372   5384     1
   5373   5375     1
   5373   5384     1
   5374   5379     1
   5374   5380     1
   5374   5388     1
   5374   5389     1
   5375   5385     1
   5375   5386     1
   5376   5381     1
   5376   5379     1
   5376   5380     1
   5376   5384     1
   5377   5381     1
   5377   5379     1
   5377   5380     1
   5377   5384     1
   5379   5382     1
   5379   5383     1
   5380   5382     1
   5380   5383     1
   5385   5390     1
   5385   5388     1
   5385   5389     1
   5386   5390     1
   5386   5388     1
   5386   5389     1
   5388   5391     1
   5388   5392     1
   5389   5391     1
   5389   5392     1
   5394   5401     1
   5394   5402     1
   5395   5400     1
   5395   5398     1
   5395   5399     1
   5396   5400     1
   5396   5398     1
   5396   5399     1
   5398   5422     1
   5398   5403     1
   5398   5401     1
   5398   5402     1
   5399   5422     1
   5399   5403     1
   5399   5401     1
   5399   5402     1
   5400   5405     1
   5400   5406     1
   5400   5414     1
   5400   5415     1
   5401   5404     1
   5401   5413     1
   5402   5404     1
   5402   5413     1
   5403   5408     1
   5403   5409     1
   5403   5417     1
   5403   5418     1
   5404   5414     1
   5404   5415     1
   5405   5413     1
   5405   5410     1
   5405   5408     1
   5405   5409     1
   5406   5413     1
   5406   5410     1
   5406   5408     1
   5406   5409     1
   5408   5411     1
   5408   5412     1
   5409   5411     1
   5409   5412     1
   5414   5419     1
   5414   5417     1
   5414   5418     1
   5415   5419     1
   5415   5417     1
   5415   5418     1
   5417   5420     1
   5417   5421     1
   5418   5420     1
   5418   5421     1
   5423   5430     1
   5423   5431     1
   5424   5429     1
   5424   5427     1
   5424   5428     1
   5425   5429     1
   5425   5427     1
   5425   5428     1
   5427   5432     1
   5427   5430     1
   5427   5431     1
   5427   5451     1
   5428   5432     1
   5428   5430     1
   5428   5431     1
   5428   5451     1
   5429   5434     1
   5429   5435     1
   5429   5443     1
   5429   5444     1
   5430   5433     1
   5430   5442     1
   5431   5433     1
   5431   5442     1
   5432   5437     1
   5432   5438     1
   5432   5446     1
   5432   5447     1
   5433   5443     1
   5433   5444     1
   5434   5439     1
   5434   5437     1
   5434   5438     1
   5434   5442     1
   5435   5439     1
   5435   5437     1
   5435   5438     1
   5435   5442     1
   5437   5440     1
   5437   5441     1
   5438   5440     1
   5438   5441     1
   5443   5448     1
   5443   5446     1
   5443   5447     1
   5444   5448     1
   5444   5446     1
   5444   5447     1
   5446   5449     1
   5446   5450     1
   5447   5449     1
   5447   5450     1
   5452   5459     1
   5452   5460     1
   5453   5458     1
   5453   5456     1
   5453   5457     1
   5454   5458     1
   5454   5456     1
   5454   5457     1
   5456   5480     1
   5456   5461     1
   5456   5459     1
   5456   5460     1
   5457   5480     1
   5457   5461     1
   5457   5459     1
   5457   5460     1
   5458   5463     1
   5458   5464     1
   5458   5472     1
   5458   5473     1
   5459   5462     1
   5459   5471     1
   5460   5462     1
   5460   5471     1
   5461   5466     1
   5461   5467     1
   5461   5475     1
   5461   5476     1
   5462   5472     1
   5462   5473     1
   5463   5471     1
   5463   5468     1
   5463   5466     1
   5463   5467     1
   5464   5471     1
   5464   5468     1
   5464   5466     1
   5464   5467     1
   5466   5469     1
   5466   5470     1
   5467   5469     1
   5467   5470     1
   5472   5477     1
   5472   5475     1
   5472   5476     1
   5473   5477     1
   5473   5475     1
   5473   5476     1
   5475   5478     1
   5475   5479     1
   5476   5478     1
   5476   5479     1
   5481   5488     1
   5481   5489     1
   5482   5487     1
   5482   5485     1
   5482   5486     1
   5483   5487     1
   5483   5485     1
   5483   5486     1
   5485   5490     1
   5485   5488     1
   5485   5489     1
   5485   5509     1
   5486   5490     1
   5486   5488     1
   5486   5489     1
   5486   5509     1
   5487   5492     1
   5487   5493     1
   5487   5501     1
   5487   5502     1
   5488   5491     1
   5488   5500     1
   5489   5491     1
   5489   5500     1
   5490   5495     1
   5490   5496     1
   5490   5504     1
   5490   5505     1
   5491   5501     1
   5491   5502     1
   5492   5497     1
   5492   5495     1
   5492   5496     1
   5492   5500     1
   5493   5497     1
   5493   5495     1
   5493   5496     1
   5493   5500     1
   5495   5498     1
   5495   5499     1
   5496   5498     1
   5496   5499     1
   5501   5506     1
   5501   5504     1
   5501   5505     1
   5502   5506     1
   5502   5504     1
   5502   5505     1
   5504   5507     1
   5504   5508     1
   5505   5507     1
   5505   5508     1
   5510   5517     1
   5510   5518     1
   5511   5516     1
   5511   5514     1
   5511   5515     1
   5512   5516     1
   5512   5514     1
   5512   5515     1
   5514   5538     1
   5514   5519     1
   5514   5517     1
   5514   5518     1
   5515   5538     1
   5515   5519     1
   5515   5517     1
   5515   5518     1
   5516   5521     1
   5516   5522     1
   5516   5530     1
   5516   5531     1
   5517   5520     1
   5517   5529     1
   5518   5520     1
   5518   5529     1
   5519   5524     1
   5519   5525     1
   5519   5533     1
   5519   5534     1
   5520   5530     1
   5520   5531     1
   5521   5529     1
   5521   5526     1
   5521   5524     1
   5521   5525     1
   5522   5529     1
   5522   5526     1
   5522   5524     1
   5522   5525     1
   5524   5527     1
   5524   5528     1
   5525   5527     1
   5525   5528     1
   5530   5535     1
   5530   5533     1
   5530   5534     1
   5531   5535     1
   5531   5533     1
   5531   5534     1
   5533   5536     1
   5533   5537     1
   5534   5536     1
   5534   5537     1
   5539   5546     1
   5539   5547     1
   5540   5545     1
   5540   5543     1
   5540   5544     1
   5541   5545     1
   5541   5543     1
   5541   5544     1
   5543   5548     1
   5543   5546     1
   5543   5547     1
   5543   5567     1
   5544   5548     1
   5544   5546     1
   5544   5547     1
   5544   5567     1
   5545   5550     1
   5545   5551     1
   5545   5559     1
   5545   5560     1
   5546   5549     1
   5546   5558     1
   5547   5549     1
   5547   5558     1
   5548   5553     1
   5548   5554     1
   5548   5562     1
   5548   5563     1
   5549   5559     1
   5549   5560     1
   5550   5555     1
   5550   5553     1
   5550   5554     1
   5550   5558     1
   5551   5555     1
   5551   5553     1
   5551   5554     1
   5551   5558     1
   5553   5556     1
   5553   5557     1
   5554   5556     1
   5554   5557     1
   5559   5564     1
   5559   5562     1
   5559   5563     1
   5560   5564     1
   5560   5562     1
   5560   5563     1
   5562   5565     1
   5562   5566     1
   5563   5565     1
   5563   5566     1
   5568   5575     1
   5568   5576     1
   5569   5574     1
   5569   5572     1
   5569   5573     1
   5570   5574     1
   5570   5572     1
   5570   5573     1
   5572   5596     1
   5572   5577     1
   5572   5575     1
   5572   5576     1
   5573   5596     1
   5573   5577     1
   5573   5575     1
   5573   5576     1
   5574   5579     1
   5574   5580     1
   5574   5588     1
   5574   5589     1
   5575   5578     1
   5575   5587     1
   5576   5578     1
   5576   5587     1
   5577   5582     1
   5577   5583     1
   5577   5591     1
   5577   5592     1
   5578   5588     1
   5578   5589     1
   5579   5587     1
   5579   5584     1
   5579   5582     1
   5579   5583     1
   5580   5587     1
   5580   5584     1
   5580   5582     1
   5580   5583     1
   5582   5585     1
   5582   5586     1
   5583   5585     1
   5583   5586     1
   5588   5593     1
   5588   5591     1
   5588   5592     1
   5589   5593     1
   5589   5591     1
   5589   5592     1
   5591   5594     1
   5591   5595     1
   5592   5594     1
   5592   5595     1
   5597   5604     1
   5597   5605     1
   5598   5603     1
   5598   5601     1
   5598   5602     1
   5599   5603     1
   5599   5601     1
   5599   5602     1
   5601   5606     1
   5601   5604     1
   5601   5605     1
   5601   5625     1
   5602   5606     1
   5602   5604     1
   5602   5605     1
   5602   5625     1
   5603   5608     1
   5603   5609     1
   5603   5617     1
   5603   5618     1
   5604   5607     1
   5604   5616     1
   5605   5607     1
   5605   5616     1
   5606   5611     1
   5606   5612     1
   5606   5620     1
   5606   5621     1
   5607   5617     1
   5607   5618     1
   5608   5613     1
   5608   5611     1
   5608   5612     1
   5608   5616     1
   5609   5613     1
   5609   5611     1
   5609   5612     1
   5609   5616     1
   5611   5614     1
   5611   5615     1
   5612   5614     1
   5612   5615     1
   5617   5622     1
   5617   5620     1
   5617   5621     1
   5618   5622     1
   5618   5620     1
   5618   5621     1
   5620   5623     1
   5620   5624     1
   5621   5623     1
   5621   5624     1
   5626   5633     1
   5626   5634     1
   5627   5632     1
   5627   5630     1
   5627   5631     1
   5628   5632     1
   5628   5630     1
   5628   5631     1
   5630   5654     1
   5630   5635     1
   5630   5633     1
   5630   5634     1
   5631   5654     1
   5631   5635     1
   5631   5633     1
   5631   5634     1
   5632   5637     1
   5632   5638     1
   5632   5646     1
   5632   5647     1
   5633   5636     1
   5633   5645     1
   5634   5636     1
   5634   5645     1
   5635   5640     1
   5635   5641     1
   5635   5649     1
   5635   5650     1
   5636   5646     1
   5636   5647     1
   5637   5645     1
   5637   5642     1
   5637   5640     1
   5637   5641     1
   5638   5645     1
   5638   5642     1
   5638   5640     1
   5638   5641     1
   5640   5643     1
   5640   5644     1
   5641   5643     1
   5641   5644     1
   5646   5651     1
   5646   5649     1
   5646   5650     1
   5647   5651     1
   5647   5649     1
   5647   5650     1
   5649   5652     1
   5649   5653     1
   5650   5652     1
   5650   5653     1
   5655   5662     1
   5655   5663     1
   5656   5661     1
   5656   5659     1
   5656   5660     1
   5657   5661     1
   5657   5659     1
   5657   5660     1
   5659   5664     1
   5659   5662     1
   5659   5663     1
   5659   5683     1
   5660   5664     1
   5660   5662     1
   5660   5663     1
   5660   5683     1
   5661   5666     1
   5661   5667     1
   5661   5675     1
   5661   5676     1
   5662   5665     1
   5662   5674     1
   5663   5665     1
   5663   5674     1
   5664   5669     1
   5664   5670     1
   5664   5678     1
   5664   5679     1
   5665   5675     1
   5665   5676     1
   5666   5671     1
   5666   5669     1
   5666   5670     1
   5666   5674     1
   5667   5671     1
   5667   5669     1
   5667   5670     1
   5667   5674     1
   5669   5672     1
   5669   5673     1
   5670   5672     1
   5670   5673     1
   5675   5680     1
   5675   5678     1
   5675   5679     1
   5676   5680     1
   5676   5678     1
   5676   5679     1
   5678   5681     1
   5678   5682     1
   5679   5681     1
   5679   5682     1
   5684   5691     1
   5684   5692     1
   5685   5690     1
   5685   5688     1
   5685   5689     1
   5686   5690     1
   5686   5688     1
   5686   5689     1
   5688   5712     1
   5688   5693     1
   5688   5691     1
   5688   5692     1
   5689   5712     1
   5689   5693     1
   5689   5691     1
   5689   5692     1
   5690   5695     1
   5690   5696     1
   5690   5704     1
   5690   5705     1
   5691   5694     1
   5691   5703     1
   5692   5694     1
   5692   5703     1
   5693   5698     1
   5693   5699     1
   5693   5707     1
   5693   5708     1
   5694   5704     1
   5694   5705     1
   5695   5703     1
   5695   5700     1
   5695   5698     1
   5695   5699     1
   5696   5703     1
   5696   5700     1
   5696   5698     1
   5696   5699     1
   5698   5701     1
   5698   5702     1
   5699   5701     1
   5699   5702     1
   5704   5709     1
   5704   5707     1
   5704   5708     1
   5705   5709     1
   5705   5707     1
   5705   5708     1
   5707   5710     1
   5707   5711     1
   5708   5710     1
   5708   5711     1
   5713   5720     1
   5713   5721     1
   5714   5719     1
   5714   5717     1
   5714   5718     1
   5715   5719     1
   5715   5717     1
   5715   5718     1
   5717   5722     1
   5717   5720     1
   5717   5721     1
   5717   5741     1
   5718   5722     1
   5718   5720     1
   5718   5721     1
   5718   5741     1
   5719   5724     1
   5719   5725     1
   5719   5733     1
   5719   5734     1
   5720   5723     1
   5720   5732     1
   5721   5723     1
   5721   5732     1
   5722   5727     1
   5722   5728     1
   5722   5736     1
   5722   5737     1
   5723   5733     1
   5723   5734     1
   5724   5729     1
   5724   5727     1
   5724   5728     1
   5724   5732     1
   5725   5729     1
   5725   5727     1
   5725   5728     1
   5725   5732     1
   5727   5730     1
   5727   5731     1
   5728   5730     1
   5728   5731     1
   5733   5738     1
   5733   5736     1
   5733   5737     1
   5734   5738     1
   5734   5736     1
   5734   5737     1
   5736   5739     1
   5736   5740     1
   5737   5739     1
   5737   5740     1
   5742   5749     1
   5742   5750     1
   5743   5748     1
   5743   5746     1
   5743   5747     1
   5744   5748     1
   5744   5746     1
   5744   5747     1
   5746   5770     1
   5746   5751     1
   5746   5749     1
   5746   5750     1
   5747   5770     1
   5747   5751     1
   5747   5749     1
   5747   5750     1
   5748   5753     1
   5748   5754     1
   5748   5762     1
   5748   5763     1
   5749   5752     1
   5749   5761     1
   5750   5752     1
   5750   5761     1
   5751   5756     1
   5751   5757     1
   5751   5765     1
   5751   5766     1
   5752   5762     1
   5752   5763     1
   5753   5761     1
   5753   5758     1
   5753   5756     1
   5753   5757     1
   5754   5761     1
   5754   5758     1
   5754   5756     1
   5754   5757     1
   5756   5759     1
   5756   5760     1
   5757   5759     1
   5757   5760     1
   5762   5767     1
   5762   5765     1
   5762   5766     1
   5763   5767     1
   5763   5765     1
   5763   5766     1
   5765   5768     1
   5765   5769     1
   5766   5768     1
   5766   5769     1
   5771   5778     1
   5771   5779     1
   5772   5777     1
   5772   5775     1
   5772   5776     1
   5773   5777     1
   5773   5775     1
   5773   5776     1
   5775   5780     1
   5775   5778     1
   5775   5779     1
   5775   5799     1
   5776   5780     1
   5776   5778     1
   5776   5779     1
   5776   5799     1
   5777   5782     1
   5777   5783     1
   5777   5791     1
   5777   5792     1
   5778   5781     1
   5778   5790     1
   5779   5781     1
   5779   5790     1
   5780   5785     1
   5780   5786     1
   5780   5794     1
   5780   5795     1
   5781   5791     1
   5781   5792     1
   5782   5787     1
   5782   5785     1
   5782   5786     1
   5782   5790     1
   5783   5787     1
   5783   5785     1
   5783   5786     1
   5783   5790     1
   5785   5788     1
   5785   5789     1
   5786   5788     1
   5786   5789     1
   5791   5796     1
   5791   5794     1
   5791   5795     1
   5792   5796     1
   5792   5794     1
   5792   5795     1
   5794   5797     1
   5794   5798     1
   5795   5797     1
   5795   5798     1
   5800   5807     1
   5800   5808     1
   5801   5806     1
   5801   5804     1
   5801   5805     1
   5802   5806     1
   5802   5804     1
   5802   5805     1
   5804   5828     1
   5804   5809     1
   5804   5807     1
   5804   5808     1
   5805   5828     1
   5805   5809     1
   5805   5807     1
   5805   5808     1
   5806   5811     1
   5806   5812     1
   5806   5820     1
   5806   5821     1
   5807   5810     1
   5807   5819     1
   5808   5810     1
   5808   5819     1
   5809   5814     1
   5809   5815     1
   5809   5823     1
   5809   5824     1
   5810   5820     1
   5810   5821     1
   5811   5819     1
   5811   5816     1
   5811   5814     1
   5811   5815     1
   5812   5819     1
   5812   5816     1
   5812   5814     1
   5812   5815     1
   5814   5817     1
   5814   5818     1
   5815   5817     1
   5815   5818     1
   5820   5825     1
   5820   5823     1
   5820   5824     1
   5821   5825     1
   5821   5823     1
   5821   5824     1
   5823   5826     1
   5823   5827     1
   5824   5826     1
   5824   5827     1
   5829   5836     1
   5829   5837     1
   5830   5835     1
   5830   5833     1
   5830   5834     1
   5831   5835     1
   5831   5833     1
   5831   5834     1
   5833   5838     1
   5833   5836     1
   5833   5837     1
   5833   5857     1
   5834   5838     1
   5834   5836     1
   5834   5837     1
   5834   5857     1
   5835   5840     1
   5835   5841     1
   5835   5849     1
   5835   5850     1
   5836   5839     1
   5836   5848     1
   5837   5839     1
   5837   5848     1
   5838   5843     1
   5838   5844     1
   5838   5852     1
   5838   5853     1
   5839   5849     1
   5839   5850     1
   5840   5845     1
   5840   5843     1
   5840   5844     1
   5840   5848     1
   5841   5845     1
   5841   5843     1
   5841   5844     1
   5841   5848     1
   5843   5846     1
   5843   5847     1
   5844   5846     1
   5844   5847     1
   5849   5854     1
   5849   5852     1
   5849   5853     1
   5850   5854     1
   5850   5852     1
   5850   5853     1
   5852   5855     1
   5852   5856     1
   5853   5855     1
   5853   5856     1
   5858   5865     1
   5858   5866     1
   5859   5864     1
   5859   5862     1
   5859   5863     1
   5860   5864     1
   5860   5862     1
   5860   5863     1
   5862   5886     1
   5862   5867     1
   5862   5865     1
   5862   5866     1
   5863   5886     1
   5863   5867     1
   5863   5865     1
   5863   5866     1
   5864   5869     1
   5864   5870     1
   5864   5878     1
   5864   5879     1
   5865   5868     1
   5865   5877     1
   5866   5868     1
   5866   5877     1
   5867   5872     1
   5867   5873     1
   5867   5881     1
   5867   5882     1
   5868   5878     1
   5868   5879     1
   5869   5877     1
   5869   5874     1
   5869   5872     1
   5869   5873     1
   5870   5877     1
   5870   5874     1
   5870   5872     1
   5870   5873     1
   5872   5875     1
   5872   5876     1
   5873   5875     1
   5873   5876     1
   5878   5883     1
   5878   5881     1
   5878   5882     1
   5879   5883     1
   5879   5881     1
   5879   5882     1
   5881   5884     1
   5881   5885     1
   5882   5884     1
   5882   5885     1
   5887   5894     1
   5887   5895     1
   5888   5893     1
   5888   5891     1
   5888   5892     1
   5889   5893     1
   5889   5891     1
   5889   5892     1
   5891   5896     1
   5891   5894     1
   5891   5895     1
   5891   5915     1
   5892   5896     1
   5892   5894     1
   5892   5895     1
   5892   5915     1
   5893   5898     1
   5893   5899     1
   5893   5907     1
   5893   5908     1
   5894   5897     1
   5894   5906     1
   5895   5897     1
   5895   5906     1
   5896   5901     1
   5896   5902     1
   5896   5910     1
   5896   5911     1
   5897   5907     1
   5897   5908     1
   5898   5903     1
   5898   5901     1
   5898   5902     1
   5898   5906     1
   5899   5903     1
   5899   5901     1
   5899   5902     1
   5899   5906     1
   5901   5904     1
   5901   5905     1
   5902   5904     1
   5902   5905     1
   5907   5912     1
   5907   5910     1
   5907   5911     1
   5908   5912     1
   5908   5910     1
   5908   5911     1
   5910   5913     1
   5910   5914     1
   5911   5913     1
   5911   5914     1
   5916   5923     1
   5916   5924     1
   5917   5922     1
   5917   5920     1
   5917   5921     1
   5918   5922     1
   5918   5920     1
   5918   5921     1
   5920   5944     1
   5920   5925     1
   5920   5923     1
   5920   5924     1
   5921   5944     1
   5921   5925     1
   5921   5923     1
   5921   5924     1
   5922   5927     1
   5922   5928     1
   5922   5936     1
   5922   5937     1
   5923   5926     1
   5923   5935     1
   5924   5926     1
   5924   5935     1
   5925   5930     1
   5925   5931     1
   5925   5939     1
   5925   5940     1
   5926   5936     1
   5926   5937     1
   5927   5935     1
   5927   5932     1
   5927   5930     1
   5927   5931     1
   5928   5935     1
   5928   5932     1
   5928   5930     1
   5928   5931     1
   5930   5933     1
   5930   5934     1
   5931   5933     1
   5931   5934     1
   5936   5941     1
   5936   5939     1
   5936   5940     1
   5937   5941     1
   5937   5939     1
   5937   5940     1
   5939   5942     1
   5939   5943     1
   5940   5942     1
   5940   5943     1
   5945   5952     1
   5945   5953     1
   5946   5951     1
   5946   5949     1
   5946   5950     1
   5947   5951     1
   5947   5949     1
   5947   5950     1
   5949   5954     1
   5949   5952     1
   5949   5953     1
   5949   5973     1
   5950   5954     1
   5950   5952     1
   5950   5953     1
   5950   5973     1
   5951   5956     1
   5951   5957     1
   5951   5965     1
   5951   5966     1
   5952   5955     1
   5952   5964     1
   5953   5955     1
   5953   5964     1
   5954   5959     1
   5954   5960     1
   5954   5968     1
   5954   5969     1
   5955   5965     1
   5955   5966     1
   5956   5961     1
   5956   5959     1
   5956   5960     1
   5956   5964     1
   5957   5961     1
   5957   5959     1
   5957   5960     1
   5957   5964     1
   5959   5962     1
   5959   5963     1
   5960   5962     1
   5960   5963     1
   5965   5970     1
   5965   5968     1
   5965   5969     1
   5966   5970     1
   5966   5968     1
   5966   5969     1
   5968   5971     1
   5968   5972     1
   5969   5971     1
   5969   5972     1
   5974   5981     1
   5974   5982     1
   5975   5980     1
   5975   5978     1
   5975   5979     1
   5976   5980     1
   5976   5978     1
   5976   5979     1
   5978   6002     1
   5978   5983     1
   5978   5981     1
   5978   5982     1
   5979   6002     1
   5979   5983     1
   5979   5981     1
   5979   5982     1
   5980   5985     1
   5980   5986     1
   5980   5994     1
   5980   5995     1
   5981   5984     1
   5981   5993     1
   5982   5984     1
   5982   5993     1
   5983   5988     1
   5983   5989     1
   5983   5997     1
   5983   5998     1
   5984   5994     1
   5984   5995     1
   5985   5993     1
   5985   5990     1
   5985   5988     1
   5985   5989     1
   5986   5993     1
   5986   5990     1
   5986   5988     1
   5986   5989     1
   5988   5991     1
   5988   5992     1
   5989   5991     1
   5989   5992     1
   5994   5999     1
   5994   5997     1
   5994   5998     1
   5995   5999     1
   5995   5997     1
   5995   5998     1
   5997   6000     1
   5997   6001     1
   5998   6000     1
   5998   6001     1
   6003   6010     1
   6003   6011     1
   6004   6009     1
   6004   6007     1
   6004   6008     1
   6005   6009     1
   6005   6007     1
   6005   6008     1
   6007   6012     1
   6007   6010     1
   6007   6011     1
   6007   6031     1
   6008   6012     1
   6008   6010     1
   6008   6011     1
   6008   6031     1
   6009   6014     1
   6009   6015     1
   6009   6023     1
   6009   6024     1
   6010   6013     1
   6010   6022     1
   6011   6013     1
   6011   6022     1
   6012   6017     1
   6012   6018     1
   6012   6026     1
   6012   6027     1
   6013   6023     1
   6013   6024     1
   6014   6019     1
   6014   6017     1
   6014   6018     1
   6014   6022     1
   6015   6019     1
   6015   6017     1
   6015   6018     1
   6015   6022     1
   6017   6020     1
   6017   6021     1
   6018   6020     1
   6018   6021     1
   6023   6028     1
   6023   6026     1
   6023   6027     1
   6024   6028     1
   6024   6026     1
   6024   6027     1
   6026   6029     1
   6026   6030     1
   6027   6029     1
   6027   6030     1
   6032   6039     1
   6032   6040     1
   6033   6038     1
   6033   6036     1
   6033   6037     1
   6034   6038     1
   6034   6036     1
   6034   6037     1
   6036   6060     1
   6036   6041     1
   6036   6039     1
   6036   6040     1
   6037   6060     1
   6037   6041     1
   6037   6039     1
   6037   6040     1
   6038   6043     1
   6038   6044     1
   6038   6052     1
   6038   6053     1
   6039   6042     1
   6039   6051     1
   6040   6042     1
   6040   6051     1
   6041   6046     1
   6041   6047     1
   6041   6055     1
   6041   6056     1
   6042   6052     1
   6042   6053     1
   6043   6051     1
   6043   6048     1
   6043   6046     1
   6043   6047     1
   6044   6051     1
   6044   6048     1
   6044   6046     1
   6044   6047     1
   6046   6049     1
   6046   6050     1
   6047   6049     1
   6047   6050     1
   6052   6057     1
   6052   6055     1
   6052   6056     1
   6053   6057     1
   6053   6055     1
   6053   6056     1
   6055   6058     1
   6055   6059     1
   6056   6058     1
   6056   6059     1
   6061   6068     1
   6061   6069     1
   6062   6067     1
   6062   6065     1
   6062   6066     1
   6063   6067     1
   6063   6065     1
   6063   6066     1
   6065   6070     1
   6065   6068     1
   6065   6069     1
   6065   6089     1
   6066   6070     1
   6066   6068     1
   6066   6069     1
   6066   6089     1
   6067   6072     1
   6067   6073     1
   6067   6081     1
   6067   6082     1
   6068   6071     1
   6068   6080     1
   6069   6071     1
   6069   6080     1
   6070   6075     1
   6070   6076     1
   6070   6084     1
   6070   6085     1
   6071   6081     1
   6071   6082     1
   6072   6077     1
   6072   6075     1
   6072   6076     1
   6072   6080     1
   6073   6077     1
   6073   6075     1
   6073   6076     1
   6073   6080     1
   6075   6078     1
   6075   6079     1
   6076   6078     1
   6076   6079     1
   6081   6086     1
   6081   6084     1
   6081   6085     1
   6082   6086     1
   6082   6084     1
   6082   6085     1
   6084   6087     1
   6084   6088     1
   6085   6087     1
   6085   6088     1
   6090   6097     1
   6090   6098     1
   6091   6096     1
   6091   6094     1
   6091   6095     1
   6092   6096     1
   6092   6094     1
   6092   6095     1
   6094   6118     1
   6094   6099     1
   6094   6097     1
   6094   6098     1
   6095   6118     1
   6095   6099     1
   6095   6097     1
   6095   6098     1
   6096   6101     1
   6096   6102     1
   6096   6110     1
   6096   6111     1
   6097   6100     1
   6097   6109     1
   6098   6100     1
   6098   6109     1
   6099   6104     1
   6099   6105     1
   6099   6113     1
   6099   6114     1
   6100   6110     1
   6100   6111     1
   6101   6109     1
   6101   6106     1
   6101   6104     1
   6101   6105     1
   6102   6109     1
   6102   6106     1
   6102   6104     1
   6102   6105     1
   6104   6107     1
   6104   6108     1
   6105   6107     1
   6105   6108     1
   6110   6115     1
   6110   6113     1
   6110   6114     1
   6111   6115     1
   6111   6113     1
   6111   6114     1
   6113   6116     1
   6113   6117     1
   6114   6116     1
   6114   6117     1
   6119   6126     1
   6119   6127     1
   6120   6125     1
   6120   6123     1
   6120   6124     1
   6121   6125     1
   6121   6123     1
   6121   6124     1
   6123   6128     1
   6123   6126     1
   6123   6127     1
   6123   6147     1
   6124   6128     1
   6124   6126     1
   6124   6127     1
   6124   6147     1
   6125   6130     1
   6125   6131     1
   6125   6139     1
   6125   6140     1
   6126   6129     1
   6126   6138     1
   6127   6129     1
   6127   6138     1
   6128   6133     1
   6128   6134     1
   6128   6142     1
   6128   6143     1
   6129   6139     1
   6129   6140     1
   6130   6135     1
   6130   6133     1
   6130   6134     1
   6130   6138     1
   6131   6135     1
   6131   6133     1
   6131   6134     1
   6131   6138     1
   6133   6136     1
   6133   6137     1
   6134   6136     1
   6134   6137     1
   6139   6144     1
   6139   6142     1
   6139   6143     1
   6140   6144     1
   6140   6142     1
   6140   6143     1
   6142   6145     1
   6142   6146     1
   6143   6145     1
   6143   6146     1
   6148   6155     1
   6148   6156     1
   6149   6154     1
   6149   6152     1
   6149   6153     1
   6150   6154     1
   6150   6152     1
   6150   6153     1
   6152   6176     1
   6152   6157     1
   6152   6155     1
   6152   6156     1
   6153   6176     1
   6153   6157     1
   6153   6155     1
   6153   6156     1
   6154   6159     1
   6154   6160     1
   6154   6168     1
   6154   6169     1
   6155   6158     1
   6155   6167     1
   6156   6158     1
   6156   6167     1
   6157   6162     1
   6157   6163     1
   6157   6171     1
   6157   6172     1
   6158   6168     1
   6158   6169     1
   6159   6167     1
   6159   6164     1
   6159   6162     1
   6159   6163     1
   6160   6167     1
   6160   6164     1
   6160   6162     1
   6160   6163     1
   6162   6165     1
   6162   6166     1
   6163   6165     1
   6163   6166     1
   6168   6173     1
   6168   6171     1
   6168   6172     1
   6169   6173     1
   6169   6171     1
   6169   6172     1
   6171   6174     1
   6171   6175     1
   6172   6174     1
   6172   6175     1
   6177   6184     1
   6177   6185     1
   6178   6183     1
   6178   6181     1
   6178   6182     1
   6179   6183     1
   6179   6181     1
   6179   6182     1
   6181   6186     1
   6181   6184     1
   6181   6185     1
   6181   6205     1
   6182   6186     1
   6182   6184     1
   6182   6185     1
   6182   6205     1
   6183   6188     1
   6183   6189     1
   6183   6197     1
   6183   6198     1
   6184   6187     1
   6184   6196     1
   6185   6187     1
   6185   6196     1
   6186   6191     1
   6186   6192     1
   6186   6200     1
   6186   6201     1
   6187   6197     1
   6187   6198     1
   6188   6193     1
   6188   6191     1
   6188   6192     1
   6188   6196     1
   6189   6193     1
   6189   6191     1
   6189   6192     1
   6189   6196     1
   6191   6194     1
   6191   6195     1
   6192   6194     1
   6192   6195     1
   6197   6202     1
   6197   6200     1
   6197   6201     1
   6198   6202     1
   6198   6200     1
   6198   6201     1
   6200   6203     1
   6200   6204     1
   6201   6203     1
   6201   6204     1
   6206   6213     1
   6206   6214     1
   6207   6212     1
   6207   6210     1
   6207   6211     1
   6208   6212     1
   6208   6210     1
   6208   6211     1
   6210   6234     1
   6210   6215     1
   6210   6213     1
   6210   6214     1
   6211   6234     1
   6211   6215     1
   6211   6213     1
   6211   6214     1
   6212   6217     1
   6212   6218     1
   6212   6226     1
   6212   6227     1
   6213   6216     1
   6213   6225     1
   6214   6216     1
   6214   6225     1
   6215   6220     1
   6215   6221     1
   6215   6229     1
   6215   6230     1
   6216   6226     1
   6216   6227     1
   6217   6225     1
   6217   6222     1
   6217   6220     1
   6217   6221     1
   6218   6225     1
   6218   6222     1
   6218   6220     1
   6218   6221     1
   6220   6223     1
   6220   6224     1
   6221   6223     1
   6221   6224     1
   6226   6231     1
   6226   6229     1
   6226   6230     1
   6227   6231     1
   6227   6229     1
   6227   6230     1
   6229   6232     1
   6229   6233     1
   6230   6232     1
   6230   6233     1
   6235   6242     1
   6235   6243     1
   6236   6241     1
   6236   6239     1
   6236   6240     1
   6237   6241     1
   6237   6239     1
   6237   6240     1
   6239   6244     1
   6239   6242     1
   6239   6243     1
   6239   6263     1
   6240   6244     1
   6240   6242     1
   6240   6243     1
   6240   6263     1
   6241   6246     1
   6241   6247     1
   6241   6255     1
   6241   6256     1
   6242   6245     1
   6242   6254     1
   6243   6245     1
   6243   6254     1
   6244   6249     1
   6244   6250     1
   6244   6258     1
   6244   6259     1
   6245   6255     1
   6245   6256     1
   6246   6251     1
   6246   6249     1
   6246   6250     1
   6246   6254     1
   6247   6251     1
   6247   6249     1
   6247   6250     1
   6247   6254     1
   6249   6252     1
   6249   6253     1
   6250   6252     1
   6250   6253     1
   6255   6260     1
   6255   6258     1
   6255   6259     1
   6256   6260     1
   6256   6258     1
   6256   6259     1
   6258   6261     1
   6258   6262     1
   6259   6261     1
   6259   6262     1
   6264   6271     1
   6264   6272     1
   6265   6270     1
   6265   6268     1
   6265   6269     1
   6266   6270     1
   6266   6268     1
   6266   6269     1
   6268   6292     1
   6268   6273     1
   6268   6271     1
   6268   6272     1
   6269   6292     1
   6269   6273     1
   6269   6271     1
   6269   6272     1
   6270   6275     1
   6270   6276     1
   6270   6284     1
   6270   6285     1
   6271   6274     1
   6271   6283     1
   6272   6274     1
   6272   6283     1
   6273   6278     1
   6273   6279     1
   6273   6287     1
   6273   6288     1
   6274   6284     1
   6274   6285     1
   6275   6283     1
   6275   6280     1
   6275   6278     1
   6275   6279     1
   6276   6283     1
   6276   6280     1
   6276   6278     1
   6276   6279     1
   6278   6281     1
   6278   6282     1
   6279   6281     1
   6279   6282     1
   6284   6289     1
   6284   6287     1
   6284   6288     1
   6285   6289     1
   6285   6287     1
   6285   6288     1
   6287   6290     1
   6287   6291     1
   6288   6290     1
   6288   6291     1
   6293   6300     1
   6293   6301     1
   6294   6299     1
   6294   6297     1
   6294   6298     1
   6295   6299     1
   6295   6297     1
   6295   6298     1
   6297   6302     1
   6297   6300     1
   6297   6301     1
   6297   6321     1
   6298   6302     1
   6298   6300     1
   6298   6301     1
   6298   6321     1
   6299   6304     1
   6299   6305     1
   6299   6313     1
   6299   6314     1
   6300   6303     1
   6300   6312     1
   6301   6303     1
   6301   6312     1
   6302   6307     1
   6302   6308     1
   6302   6316     1
   6302   6317     1
   6303   6313     1
   6303   6314     1
   6304   6309     1
   6304   6307     1
   6304   6308     1
   6304   6312     1
   6305   6309     1
   6305   6307     1
   6305   6308     1
   6305   6312     1
   6307   6310     1
   6307   6311     1
   6308   6310     1
   6308   6311     1
   6313   6318     1
   6313   6316     1
   6313   6317     1
   6314   6318     1
   6314   6316     1
   6314   6317     1
   6316   6319     1
   6316   6320     1
   6317   6319     1
   6317   6320     1
   6322   6329     1
   6322   6330     1
   6323   6328     1
   6323   6326     1
   6323   6327     1
   6324   6328     1
   6324   6326     1
   6324   6327     1
   6326   6350     1
   6326   6331     1
   6326   6329     1
   6326   6330     1
   6327   6350     1
   6327   6331     1
   6327   6329     1
   6327   6330     1
   6328   6333     1
   6328   6334     1
   6328   6342     1
   6328   6343     1
   6329   6332     1
   6329   6341     1
   6330   6332     1
   6330   6341     1
   6331   6336     1
   6331   6337     1
   6331   6345     1
   6331   6346     1
   6332   6342     1
   6332   6343     1
   6333   6341     1
   6333   6338     1
   6333   6336     1
   6333   6337     1
   6334   6341     1
   6334   6338     1
   6334   6336     1
   6334   6337     1
   6336   6339     1
   6336   6340     1
   6337   6339     1
   6337   6340     1
   6342   6347     1
   6342   6345     1
   6342   6346     1
   6343   6347     1
   6343   6345     1
   6343   6346     1
   6345   6348     1
   6345   6349     1
   6346   6348     1
   6346   6349     1
   6351   6358     1
   6351   6359     1
   6352   6357     1
   6352   6355     1
   6352   6356     1
   6353   6357     1
   6353   6355     1
   6353   6356     1
   6355   6360     1
   6355   6358     1
   6355   6359     1
   6355   6379     1
   6356   6360     1
   6356   6358     1
   6356   6359     1
   6356   6379     1
   6357   6362     1
   6357   6363     1
   6357   6371     1
   6357   6372     1
   6358   6361     1
   6358   6370     1
   6359   6361     1
   6359   6370     1
   6360   6365     1
   6360   6366     1
   6360   6374     1
   6360   6375     1
   6361   6371     1
   6361   6372     1
   6362   6367     1
   6362   6365     1
   6362   6366     1
   6362   6370     1
   6363   6367     1
   6363   6365     1
   6363   6366     1
   6363   6370     1
   6365   6368     1
   6365   6369     1
   6366   6368     1
   6366   6369     1
   6371   6376     1
   6371   6374     1
   6371   6375     1
   6372   6376     1
   6372   6374     1
   6372   6375     1
   6374   6377     1
   6374   6378     1
   6375   6377     1
   6375   6378     1
   6380   6387     1
   6380   6388     1
   6381   6386     1
   6381   6384     1
   6381   6385     1
   6382   6386     1
   6382   6384     1
   6382   6385     1
   6384   6408     1
   6384   6389     1
   6384   6387     1
   6384   6388     1
   6385   6408     1
   6385   6389     1
   6385   6387     1
   6385   6388     1
   6386   6391     1
   6386   6392     1
   6386   6400     1
   6386   6401     1
   6387   6390     1
   6387   6399     1
   6388   6390     1
   6388   6399     1
   6389   6394     1
   6389   6395     1
   6389   6403     1
   6389   6404     1
   6390   6400     1
   6390   6401     1
   6391   6399     1
   6391   6396     1
   6391   6394     1
   6391   6395     1
   6392   6399     1
   6392   6396     1
   6392   6394     1
   6392   6395     1
   6394   6397     1
   6394   6398     1
   6395   6397     1
   6395   6398     1
   6400   6405     1
   6400   6403     1
   6400   6404     1
   6401   6405     1
   6401   6403     1
   6401   6404     1
   6403   6406     1
   6403   6407     1
   6404   6406     1
   6404   6407     1
   6409   6416     1
   6409   6417     1
   6410   6415     1
   6410   6413     1
   6410   6414     1
   6411   6415     1
   6411   6413     1
   6411   6414     1
   6413   6418     1
   6413   6416     1
   6413   6417     1
   6413   6437     1
   6414   6418     1
   6414   6416     1
   6414   6417     1
   6414   6437     1
   6415   6420     1
   6415   6421     1
   6415   6429     1
   6415   6430     1
   6416   6419     1
   6416   6428     1
   6417   6419     1
   6417   6428     1
   6418   6423     1
   6418   6424     1
   6418   6432     1
   6418   6433     1
   6419   6429     1
   6419   6430     1
   6420   6425     1
   6420   6423     1
   6420   6424     1
   6420   6428     1
   6421   6425     1
   6421   6423     1
   6421   6424     1
   6421   6428     1
   6423   6426     1
   6423   6427     1
   6424   6426     1
   6424   6427     1
   6429   6434     1
   6429   6432     1
   6429   6433     1
   6430   6434     1
   6430   6432     1
   6430   6433     1
   6432   6435     1
   6432   6436     1
   6433   6435     1
   6433   6436     1
   6438   6445     1
   6438   6446     1
   6439   6444     1
   6439   6442     1
   6439   6443     1
   6440   6444     1
   6440   6442     1
   6440   6443     1
   6442   6466     1
   6442   6447     1
   6442   6445     1
   6442   6446     1
   6443   6466     1
   6443   6447     1
   6443   6445     1
   6443   6446     1
   6444   6449     1
   6444   6450     1
   6444   6458     1
   6444   6459     1
   6445   6448     1
   6445   6457     1
   6446   6448     1
   6446   6457     1
   6447   6452     1
   6447   6453     1
   6447   6461     1
   6447   6462     1
   6448   6458     1
   6448   6459     1
   6449   6457     1
   6449   6454     1
   6449   6452     1
   6449   6453     1
   6450   6457     1
   6450   6454     1
   6450   6452     1
   6450   6453     1
   6452   6455     1
   6452   6456     1
   6453   6455     1
   6453   6456     1
   6458   6463     1
   6458   6461     1
   6458   6462     1
   6459   6463     1
   6459   6461     1
   6459   6462     1
   6461   6464     1
   6461   6465     1
   6462   6464     1
   6462   6465     1
   6467   6474     1
   6467   6475     1
   6468   6473     1
   6468   6471     1
   6468   6472     1
   6469   6473     1
   6469   6471     1
   6469   6472     1
   6471   6476     1
   6471   6474     1
   6471   6475     1
   6471   6495     1
   6472   6476     1
   6472   6474     1
   6472   6475     1
   6472   6495     1
   6473   6478     1
   6473   6479     1
   6473   6487     1
   6473   6488     1
   6474   6477     1
   6474   6486     1
   6475   6477     1
   6475   6486     1
   6476   6481     1
   6476   6482     1
   6476   6490     1
   6476   6491     1
   6477   6487     1
   6477   6488     1
   6478   6483     1
   6478   6481     1
   6478   6482     1
   6478   6486     1
   6479   6483     1
   6479   6481     1
   6479   6482     1
   6479   6486     1
   6481   6484     1
   6481   6485     1
   6482   6484     1
   6482   6485     1
   6487   6492     1
   6487   6490     1
   6487   6491     1
   6488   6492     1
   6488   6490     1
   6488   6491     1
   6490   6493     1
   6490   6494     1
   6491   6493     1
   6491   6494     1
   6496   6503     1
   6496   6504     1
   6497   6502     1
   6497   6500     1
   6497   6501     1
   6498   6502     1
   6498   6500     1
   6498   6501     1
   6500   6524     1
   6500   6505     1
   6500   6503     1
   6500   6504     1
   6501   6524     1
   6501   6505     1
   6501   6503     1
   6501   6504     1
   6502   6507     1
   6502   6508     1
   6502   6516     1
   6502   6517     1
   6503   6506     1
   6503   6515     1
   6504   6506     1
   6504   6515     1
   6505   6510     1
   6505   6511     1
   6505   6519     1
   6505   6520     1
   6506   6516     1
   6506   6517     1
   6507   6515     1
   6507   6512     1
   6507   6510     1
   6507   6511     1
   6508   6515     1
   6508   6512     1
   6508   6510     1
   6508   6511     1
   6510   6513     1
   6510   6514     1
   6511   6513     1
   6511   6514     1
   6516   6521     1
   6516   6519     1
   6516   6520     1
   6517   6521     1
   6517   6519     1
   6517   6520     1
   6519   6522     1
   6519   6523     1
   6520   6522     1
   6520   6523     1
   6525   6532     1
   6525   6533     1
   6526   6531     1
   6526   6529     1
   6526   6530     1
   6527   6531     1
   6527   6529     1
   6527   6530     1
   6529   6534     1
   6529   6532     1
   6529   6533     1
   6529   6553     1
   6530   6534     1
   6530   6532     1
   6530   6533     1
   6530   6553     1
   6531   6536     1
   6531   6537     1
   6531   6545     1
   6531   6546     1
   6532   6535     1
   6532   6544     1
   6533   6535     1
   6533   6544     1
   6534   6539     1
   6534   6540     1
   6534   6548     1
   6534   6549     1
   6535   6545     1
   6535   6546     1
   6536   6541     1
   6536   6539     1
   6536   6540     1
   6536   6544     1
   6537   6541     1
   6537   6539     1
   6537   6540     1
   6537   6544     1
   6539   6542     1
   6539   6543     1
   6540   6542     1
   6540   6543     1
   6545   6550     1
   6545   6548     1
   6545   6549     1
   6546   6550     1
   6546   6548     1
   6546   6549     1
   6548   6551     1
   6548   6552     1
   6549   6551     1
   6549   6552     1
   6554   6561     1
   6554   6562     1
   6555   6560     1
   6555   6558     1
   6555   6559     1
   6556   6560     1
   6556   6558     1
   6556   6559     1
   6558   6582     1
   6558   6563     1
   6558   6561     1
   6558   6562     1
   6559   6582     1
   6559   6563     1
   6559   6561     1
   6559   6562     1
   6560   6565     1
   6560   6566     1
   6560   6574     1
   6560   6575     1
   6561   6564     1
   6561   6573     1
   6562   6564     1
   6562   6573     1
   6563   6568     1
   6563   6569     1
   6563   6577     1
   6563   6578     1
   6564   6574     1
   6564   6575     1
   6565   6573     1
   6565   6570     1
   6565   6568     1
   6565   6569     1
   6566   6573     1
   6566   6570     1
   6566   6568     1
   6566   6569     1
   6568   6571     1
   6568   6572     1
   6569   6571     1
   6569   6572     1
   6574   6579     1
   6574   6577     1
   6574   6578     1
   6575   6579     1
   6575   6577     1
   6575   6578     1
   6577   6580     1
   6577   6581     1
   6578   6580     1
   6578   6581     1
   6583   6590     1
   6583   6591     1
   6584   6589     1
   6584   6587     1
   6584   6588     1
   6585   6589     1
   6585   6587     1
   6585   6588     1
   6587   6592     1
   6587   6590     1
   6587   6591     1
   6587   6611     1
   6588   6592     1
   6588   6590     1
   6588   6591     1
   6588   6611     1
   6589   6594     1
   6589   6595     1
   6589   6603     1
   6589   6604     1
   6590   6593     1
   6590   6602     1
   6591   6593     1
   6591   6602     1
   6592   6597     1
   6592   6598     1
   6592   6606     1
   6592   6607     1
   6593   6603     1
   6593   6604     1
   6594   6599     1
   6594   6597     1
   6594   6598     1
   6594   6602     1
   6595   6599     1
   6595   6597     1
   6595   6598     1
   6595   6602     1
   6597   6600     1
   6597   6601     1
   6598   6600     1
   6598   6601     1
   6603   6608     1
   6603   6606     1
   6603   6607     1
   6604   6608     1
   6604   6606     1
   6604   6607     1
   6606   6609     1
   6606   6610     1
   6607   6609     1
   6607   6610     1
   6612   6619     1
   6612   6620     1
   6613   6618     1
   6613   6616     1
   6613   6617     1
   6614   6618     1
   6614   6616     1
   6614   6617     1
   6616   6640     1
   6616   6621     1
   6616   6619     1
   6616   6620     1
   6617   6640     1
   6617   6621     1
   6617   6619     1
   6617   6620     1
   6618   6623     1
   6618   6624     1
   6618   6632     1
   6618   6633     1
   6619   6622     1
   6619   6631     1
   6620   6622     1
   6620   6631     1
   6621   6626     1
   6621   6627     1
   6621   6635     1
   6621   6636     1
   6622   6632     1
   6622   6633     1
   6623   6631     1
   6623   6628     1
   6623   6626     1
   6623   6627     1
   6624   6631     1
   6624   6628     1
   6624   6626     1
   6624   6627     1
   6626   6629     1
   6626   6630     1
   6627   6629     1
   6627   6630     1
   6632   6637     1
   6632   6635     1
   6632   6636     1
   6633   6637     1
   6633   6635     1
   6633   6636     1
   6635   6638     1
   6635   6639     1
   6636   6638     1
   6636   6639     1
   6641   6648     1
   6641   6649     1
   6642   6647     1
   6642   6645     1
   6642   6646     1
   6643   6647     1
   6643   6645     1
   6643   6646     1
   6645   6650     1
   6645   6648     1
   6645   6649     1
   6645   6669     1
   6646   6650     1
   6646   6648     1
   6646   6649     1
   6646   6669     1
   6647   6652     1
   6647   6653     1
   6647   6661     1
   6647   6662     1
   6648   6651     1
   6648   6660     1
   6649   6651     1
   6649   6660     1
   6650   6655     1
   6650   6656     1
   6650   6664     1
   6650   6665     1
   6651   6661     1
   6651   6662     1
   6652   6657     1
   6652   6655     1
   6652   6656     1
   6652   6660     1
   6653   6657     1
   6653   6655     1
   6653   6656     1
   6653   6660     1
   6655   6658     1
   6655   6659     1
   6656   6658     1
   6656   6659     1
   6661   6666     1
   6661   6664     1
   6661   6665     1
   6662   6666     1
   6662   6664     1
   6662   6665     1
   6664   6667     1
   6664   6668     1
   6665   6667     1
   6665   6668     1
   6670   6677     1
   6670   6678     1
   6671   6676     1
   6671   6674     1
   6671   6675     1
   6672   6676     1
   6672   6674     1
   6672   6675     1
   6674   6698     1
   6674   6679     1
   6674   6677     1
   6674   6678     1
   6675   6698     1
   6675   6679     1
   6675   6677     1
   6675   6678     1
   6676   6681     1
   6676   6682     1
   6676   6690     1
   6676   6691     1
   6677   6680     1
   6677   6689     1
   6678   6680     1
   6678   6689     1
   6679   6684     1
   6679   6685     1
   6679   6693     1
   6679   6694     1
   6680   6690     1
   6680   6691     1
   6681   6689     1
   6681   6686     1
   6681   6684     1
   6681   6685     1
   6682   6689     1
   6682   6686     1
   6682   6684     1
   6682   6685     1
   6684   6687     1
   6684   6688     1
   6685   6687     1
   6685   6688     1
   6690   6695     1
   6690   6693     1
   6690   6694     1
   6691   6695     1
   6691   6693     1
   6691   6694     1
   6693   6696     1
   6693   6697     1
   6694   6696     1
   6694   6697     1
   6699   6706     1
   6699   6707     1
   6700   6705     1
   6700   6703     1
   6700   6704     1
   6701   6705     1
   6701   6703     1
   6701   6704     1
   6703   6708     1
   6703   6706     1
   6703   6707     1
   6703   6727     1
   6704   6708     1
   6704   6706     1
   6704   6707     1
   6704   6727     1
   6705   6710     1
   6705   6711     1
   6705   6719     1
   6705   6720     1
   6706   6709     1
   6706   6718     1
   6707   6709     1
   6707   6718     1
   6708   6713     1
   6708   6714     1
   6708   6722     1
   6708   6723     1
   6709   6719     1
   6709   6720     1
   6710   6715     1
   6710   6713     1
   6710   6714     1
   6710   6718     1
   6711   6715     1
   6711   6713     1
   6711   6714     1
   6711   6718     1
   6713   6716     1
   6713   6717     1
   6714   6716     1
   6714   6717     1
   6719   6724     1
   6719   6722     1
   6719   6723     1
   6720   6724     1
   6720   6722     1
   6720   6723     1
   6722   6725     1
   6722   6726     1
   6723   6725     1
   6723   6726     1
   6728   6735     1
   6728   6736     1
   6729   6734     1
   6729   6732     1
   6729   6733     1
   6730   6734     1
   6730   6732     1
   6730   6733     1
   6732   6756     1
   6732   6737     1
   6732   6735     1
   6732   6736     1
   6733   6756     1
   6733   6737     1
   6733   6735     1
   6733   6736     1
   6734   6739     1
   6734   6740     1
   6734   6748     1
   6734   6749     1
   6735   6738     1
   6735   6747     1
   6736   6738     1
   6736   6747     1
   6737   6742     1
   6737   6743     1
   6737   6751     1
   6737   6752     1
   6738   6748     1
   6738   6749     1
   6739   6747     1
   6739   6744     1
   6739   6742     1
   6739   6743     1
   6740   6747     1
   6740   6744     1
   6740   6742     1
   6740   6743     1
   6742   6745     1
   6742   6746     1
   6743   6745     1
   6743   6746     1
   6748   6753     1
   6748   6751     1
   6748   6752     1
   6749   6753     1
   6749   6751     1
   6749   6752     1
   6751   6754     1
   6751   6755     1
   6752   6754     1
   6752   6755     1
   6757   6764     1
   6757   6765     1
   6758   6763     1
   6758   6761     1
   6758   6762     1
   6759   6763     1
   6759   6761     1
   6759   6762     1
   6761   6766     1
   6761   6764     1
   6761   6765     1
   6761   6785     1
   6762   6766     1
   6762   6764     1
   6762   6765     1
   6762   6785     1
   6763   6768     1
   6763   6769     1
   6763   6777     1
   6763   6778     1
   6764   6767     1
   6764   6776     1
   6765   6767     1
   6765   6776     1
   6766   6771     1
   6766   6772     1
   6766   6780     1
   6766   6781     1
   6767   6777     1
   6767   6778     1
   6768   6773     1
   6768   6771     1
   6768   6772     1
   6768   6776     1
   6769   6773     1
   6769   6771     1
   6769   6772     1
   6769   6776     1
   6771   6774     1
   6771   6775     1
   6772   6774     1
   6772   6775     1
   6777   6782     1
   6777   6780     1
   6777   6781     1
   6778   6782     1
   6778   6780     1
   6778   6781     1
   6780   6783     1
   6780   6784     1
   6781   6783     1
   6781   6784     1
   6786   6793     1
   6786   6794     1
   6787   6792     1
   6787   6790     1
   6787   6791     1
   6788   6792     1
   6788   6790     1
   6788   6791     1
   6790   6814     1
   6790   6795     1
   6790   6793     1
   6790   6794     1
   6791   6814     1
   6791   6795     1
   6791   6793     1
   6791   6794     1
   6792   6797     1
   6792   6798     1
   6792   6806     1
   6792   6807     1
   6793   6796     1
   6793   6805     1
   6794   6796     1
   6794   6805     1
   6795   6800     1
   6795   6801     1
   6795   6809     1
   6795   6810     1
   6796   6806     1
   6796   6807     1
   6797   6805     1
   6797   6802     1
   6797   6800     1
   6797   6801     1
   6798   6805     1
   6798   6802     1
   6798   6800     1
   6798   6801     1
   6800   6803     1
   6800   6804     1
   6801   6803     1
   6801   6804     1
   6806   6811     1
   6806   6809     1
   6806   6810     1
   6807   6811     1
   6807   6809     1
   6807   6810     1
   6809   6812     1
   6809   6813     1
   6810   6812     1
   6810   6813     1
   6815   6822     1
   6815   6823     1
   6816   6821     1
   6816   6819     1
   6816   6820     1
   6817   6821     1
   6817   6819     1
   6817   6820     1
   6819   6824     1
   6819   6822     1
   6819   6823     1
   6819   6843     1
   6820   6824     1
   6820   6822     1
   6820   6823     1
   6820   6843     1
   6821   6826     1
   6821   6827     1
   6821   6835     1
   6821   6836     1
   6822   6825     1
   6822   6834     1
   6823   6825     1
   6823   6834     1
   6824   6829     1
   6824   6830     1
   6824   6838     1
   6824   6839     1
   6825   6835     1
   6825   6836     1
   6826   6831     1
   6826   6829     1
   6826   6830     1
   6826   6834     1
   6827   6831     1
   6827   6829     1
   6827   6830     1
   6827   6834     1
   6829   6832     1
   6829   6833     1
   6830   6832     1
   6830   6833     1
   6835   6840     1
   6835   6838     1
   6835   6839     1
   6836   6840     1
   6836   6838     1
   6836   6839     1
   6838   6841     1
   6838   6842     1
   6839   6841     1
   6839   6842     1
   6844   6851     1
   6844   6852     1
   6845   6850     1
   6845   6848     1
   6845   6849     1
   6846   6850     1
   6846   6848     1
   6846   6849     1
   6848   6872     1
   6848   6853     1
   6848   6851     1
   6848   6852     1
   6849   6872     1
   6849   6853     1
   6849   6851     1
   6849   6852     1
   6850   6855     1
   6850   6856     1
   6850   6864     1
   6850   6865     1
   6851   6854     1
   6851   6863     1
   6852   6854     1
   6852   6863     1
   6853   6858     1
   6853   6859     1
   6853   6867     1
   6853   6868     1
   6854   6864     1
   6854   6865     1
   6855   6863     1
   6855   6860     1
   6855   6858     1
   6855   6859     1
   6856   6863     1
   6856   6860     1
   6856   6858     1
   6856   6859     1
   6858   6861     1
   6858   6862     1
   6859   6861     1
   6859   6862     1
   6864   6869     1
   6864   6867     1
   6864   6868     1
   6865   6869     1
   6865   6867     1
   6865   6868     1
   6867   6870     1
   6867   6871     1
   6868   6870     1
   6868   6871     1
   6873   6880     1
   6873   6881     1
   6874   6879     1
   6874   6877     1
   6874   6878     1
   6875   6879     1
   6875   6877     1
   6875   6878     1
   6877   6882     1
   6877   6880     1
   6877   6881     1
   6877   6901     1
   6878   6882     1
   6878   6880     1
   6878   6881     1
   6878   6901     1
   6879   6884     1
   6879   6885     1
   6879   6893     1
   6879   6894     1
   6880   6883     1
   6880   6892     1
   6881   6883     1
   6881   6892     1
   6882   6887     1
   6882   6888     1
   6882   6896     1
   6882   6897     1
   6883   6893     1
   6883   6894     1
   6884   6889     1
   6884   6887     1
   6884   6888     1
   6884   6892     1
   6885   6889     1
   6885   6887     1
   6885   6888     1
   6885   6892     1
   6887   6890     1
   6887   6891     1
   6888   6890     1
   6888   6891     1
   6893   6898     1
   6893   6896     1
   6893   6897     1
   6894   6898     1
   6894   6896     1
   6894   6897     1
   6896   6899     1
   6896   6900     1
   6897   6899     1
   6897   6900     1
   6902   6909     1
   6902   6910     1
   6903   6908     1
   6903   6906     1
   6903   6907     1
   6904   6908     1
   6904   6906     1
   6904   6907     1
   6906   6930     1
   6906   6911     1
   6906   6909     1
   6906   6910     1
   6907   6930     1
   6907   6911     1
   6907   6909     1
   6907   6910     1
   6908   6913     1
   6908   6914     1
   6908   6922     1
   6908   6923     1
   6909   6912     1
   6909   6921     1
   6910   6912     1
   6910   6921     1
   6911   6916     1
   6911   6917     1
   6911   6925     1
   6911   6926     1
   6912   6922     1
   6912   6923     1
   6913   6921     1
   6913   6918     1
   6913   6916     1
   6913   6917     1
   6914   6921     1
   6914   6918     1
   6914   6916     1
   6914   6917     1
   6916   6919     1
   6916   6920     1
   6917   6919     1
   6917   6920     1
   6922   6927     1
   6922   6925     1
   6922   6926     1
   6923   6927     1
   6923   6925     1
   6923   6926     1
   6925   6928     1
   6925   6929     1
   6926   6928     1
   6926   6929     1
   6931   6938     1
   6931   6939     1
   6932   6937     1
   6932   6935     1
   6932   6936     1
   6933   6937     1
   6933   6935     1
   6933   6936     1
   6935   6940     1
   6935   6938     1
   6935   6939     1
   6935   6959     1
   6936   6940     1
   6936   6938     1
   6936   6939     1
   6936   6959     1
   6937   6942     1
   6937   6943     1
   6937   6951     1
   6937   6952     1
   6938   6941     1
   6938   6950     1
   6939   6941     1
   6939   6950     1
   6940   6945     1
   6940   6946     1
   6940   6954     1
   6940   6955     1
   6941   6951     1
   6941   6952     1
   6942   6947     1
   6942   6945     1
   6942   6946     1
   6942   6950     1
   6943   6947     1
   6943   6945     1
   6943   6946     1
   6943   6950     1
   6945   6948     1
   6945   6949     1
   6946   6948     1
   6946   6949     1
   6951   6956     1
   6951   6954     1
   6951   6955     1
   6952   6956     1
   6952   6954     1
   6952   6955     1
   6954   6957     1
   6954   6958     1
   6955   6957     1
   6955   6958     1
   6960   6967     1
   6960   6968     1
   6961   6966     1
   6961   6964     1
   6961   6965     1
   6962   6966     1
   6962   6964     1
   6962   6965     1
   6964   6988     1
   6964   6969     1
   6964   6967     1
   6964   6968     1
   6965   6988     1
   6965   6969     1
   6965   6967     1
   6965   6968     1
   6966   6971     1
   6966   6972     1
   6966   6980     1
   6966   6981     1
   6967   6970     1
   6967   6979     1
   6968   6970     1
   6968   6979     1
   6969   6974     1
   6969   6975     1
   6969   6983     1
   6969   6984     1
   6970   6980     1
   6970   6981     1
   6971   6979     1
   6971   6976     1
   6971   6974     1
   6971   6975     1
   6972   6979     1
   6972   6976     1
   6972   6974     1
   6972   6975     1
   6974   6977     1
   6974   6978     1
   6975   6977     1
   6975   6978     1
   6980   6985     1
   6980   6983     1
   6980   6984     1
   6981   6985     1
   6981   6983     1
   6981   6984     1
   6983   6986     1
   6983   6987     1
   6984   6986     1
   6984   6987     1
   6989   6996     1
   6989   6997     1
   6990   6995     1
   6990   6993     1
   6990   6994     1
   6991   6995     1
   6991   6993     1
   6991   6994     1
   6993   6998     1
   6993   6996     1
   6993   6997     1
   6993   7017     1
   6994   6998     1
   6994   6996     1
   6994   6997     1
   6994   7017     1
   6995   7000     1
   6995   7001     1
   6995   7009     1
   6995   7010     1
   6996   6999     1
   6996   7008     1
   6997   6999     1
   6997   7008     1
   6998   7003     1
   6998   7004     1
   6998   7012     1
   6998   7013     1
   6999   7009     1
   6999   7010     1
   7000   7005     1
   7000   7003     1
   7000   7004     1
   7000   7008     1
   7001   7005     1
   7001   7003     1
   7001   7004     1
   7001   7008     1
   7003   7006     1
   7003   7007     1
   7004   7006     1
   7004   7007     1
   7009   7014     1
   7009   7012     1
   7009   7013     1
   7010   7014     1
   7010   7012     1
   7010   7013     1
   7012   7015     1
   7012   7016     1
   7013   7015     1
   7013   7016     1
   7018   7025     1
   7018   7026     1
   7019   7024     1
   7019   7022     1
   7019   7023     1
   7020   7024     1
   7020   7022     1
   7020   7023     1
   7022   7046     1
   7022   7027     1
   7022   7025     1
   7022   7026     1
   7023   7046     1
   7023   7027     1
   7023   7025     1
   7023   7026     1
   7024   7029     1
   7024   7030     1
   7024   7038     1
   7024   7039     1
   7025   7028     1
   7025   7037     1
   7026   7028     1
   7026   7037     1
   7027   7032     1
   7027   7033     1
   7027   7041     1
   7027   7042     1
   7028   7038     1
   7028   7039     1
   7029   7037     1
   7029   7034     1
   7029   7032     1
   7029   7033     1
   7030   7037     1
   7030   7034     1
   7030   7032     1
   7030   7033     1
   7032   7035     1
   7032   7036     1
   7033   7035     1
   7033   7036     1
   7038   7043     1
   7038   7041     1
   7038   7042     1
   7039   7043     1
   7039   7041     1
   7039   7042     1
   7041   7044     1
   7041   7045     1
   7042   7044     1
   7042   7045     1
   7047   7054     1
   7047   7055     1
   7048   7053     1
   7048   7051     1
   7048   7052     1
   7049   7053     1
   7049   7051     1
   7049   7052     1
   7051   7056     1
   7051   7054     1
   7051   7055     1
   7051   7075     1
   7052   7056     1
   7052   7054     1
   7052   7055     1
   7052   7075     1
   7053   7058     1
   7053   7059     1
   7053   7067     1
   7053   7068     1
   7054   7057     1
   7054   7066     1
   7055   7057     1
   7055   7066     1
   7056   7061     1
   7056   7062     1
   7056   7070     1
   7056   7071     1
   7057   7067     1
   7057   7068     1
   7058   7063     1
   7058   7061     1
   7058   7062     1
   7058   7066     1
   7059   7063     1
   7059   7061     1
   7059   7062     1
   7059   7066     1
   7061   7064     1
   7061   7065     1
   7062   7064     1
   7062   7065     1
   7067   7072     1
   7067   7070     1
   7067   7071     1
   7068   7072     1
   7068   7070     1
   7068   7071     1
   7070   7073     1
   7070   7074     1
   7071   7073     1
   7071   7074     1
   7076   7083     1
   7076   7084     1
   7077   7082     1
   7077   7080     1
   7077   7081     1
   7078   7082     1
   7078   7080     1
   7078   7081     1
   7080   7104     1
   7080   7085     1
   7080   7083     1
   7080   7084     1
   7081   7104     1
   7081   7085     1
   7081   7083     1
   7081   7084     1
   7082   7087     1
   7082   7088     1
   7082   7096     1
   7082   7097     1
   7083   7086     1
   7083   7095     1
   7084   7086     1
   7084   7095     1
   7085   7090     1
   7085   7091     1
   7085   7099     1
   7085   7100     1
   7086   7096     1
   7086   7097     1
   7087   7095     1
   7087   7092     1
   7087   7090     1
   7087   7091     1
   7088   7095     1
   7088   7092     1
   7088   7090     1
   7088   7091     1
   7090   7093     1
   7090   7094     1
   7091   7093     1
   7091   7094     1
   7096   7101     1
   7096   7099     1
   7096   7100     1
   7097   7101     1
   7097   7099     1
   7097   7100     1
   7099   7102     1
   7099   7103     1
   7100   7102     1
   7100   7103     1
   7105   7112     1
   7105   7113     1
   7106   7111     1
   7106   7109     1
   7106   7110     1
   7107   7111     1
   7107   7109     1
   7107   7110     1
   7109   7114     1
   7109   7112     1
   7109   7113     1
   7109   7133     1
   7110   7114     1
   7110   7112     1
   7110   7113     1
   7110   7133     1
   7111   7116     1
   7111   7117     1
   7111   7125     1
   7111   7126     1
   7112   7115     1
   7112   7124     1
   7113   7115     1
   7113   7124     1
   7114   7119     1
   7114   7120     1
   7114   7128     1
   7114   7129     1
   7115   7125     1
   7115   7126     1
   7116   7121     1
   7116   7119     1
   7116   7120     1
   7116   7124     1
   7117   7121     1
   7117   7119     1
   7117   7120     1
   7117   7124     1
   7119   7122     1
   7119   7123     1
   7120   7122     1
   7120   7123     1
   7125   7130     1
   7125   7128     1
   7125   7129     1
   7126   7130     1
   7126   7128     1
   7126   7129     1
   7128   7131     1
   7128   7132     1
   7129   7131     1
   7129   7132     1
   7134   7141     1
   7134   7142     1
   7135   7140     1
   7135   7138     1
   7135   7139     1
   7136   7140     1
   7136   7138     1
   7136   7139     1
   7138   7162     1
   7138   7143     1
   7138   7141     1
   7138   7142     1
   7139   7162     1
   7139   7143     1
   7139   7141     1
   7139   7142     1
   7140   7145     1
   7140   7146     1
   7140   7154     1
   7140   7155     1
   7141   7144     1
   7141   7153     1
   7142   7144     1
   7142   7153     1
   7143   7148     1
   7143   7149     1
   7143   7157     1
   7143   7158     1
   7144   7154     1
   7144   7155     1
   7145   7153     1
   7145   7150     1
   7145   7148     1
   7145   7149     1
   7146   7153     1
   7146   7150     1
   7146   7148     1
   7146   7149     1
   7148   7151     1
   7148   7152     1
   7149   7151     1
   7149   7152     1
   7154   7159     1
   7154   7157     1
   7154   7158     1
   7155   7159     1
   7155   7157     1
   7155   7158     1
   7157   7160     1
   7157   7161     1
   7158   7160     1
   7158   7161     1
   7163   7170     1
   7163   7171     1
   7164   7169     1
   7164   7167     1
   7164   7168     1
   7165   7169     1
   7165   7167     1
   7165   7168     1
   7167   7172     1
   7167   7170     1
   7167   7171     1
   7167   7191     1
   7168   7172     1
   7168   7170     1
   7168   7171     1
   7168   7191     1
   7169   7174     1
   7169   7175     1
   7169   7183     1
   7169   7184     1
   7170   7173     1
   7170   7182     1
   7171   7173     1
   7171   7182     1
   7172   7177     1
   7172   7178     1
   7172   7186     1
   7172   7187     1
   7173   7183     1
   7173   7184     1
   7174   7179     1
   7174   7177     1
   7174   7178     1
   7174   7182     1
   7175   7179     1
   7175   7177     1
   7175   7178     1
   7175   7182     1
   7177   7180     1
   7177   7181     1
   7178   7180     1
   7178   7181     1
   7183   7188     1
   7183   7186     1
   7183   7187     1
   7184   7188     1
   7184   7186     1
   7184   7187     1
   7186   7189     1
   7186   7190     1
   7187   7189     1
   7187   7190     1
   7192   7199     1
   7192   7200     1
   7193   7198     1
   7193   7196     1
   7193   7197     1
   7194   7198     1
   7194   7196     1
   7194   7197     1
   7196   7220     1
   7196   7201     1
   7196   7199     1
   7196   7200     1
   7197   7220     1
   7197   7201     1
   7197   7199     1
   7197   7200     1
   7198   7203     1
   7198   7204     1
   7198   7212     1
   7198   7213     1
   7199   7202     1
   7199   7211     1
   7200   7202     1
   7200   7211     1
   7201   7206     1
   7201   7207     1
   7201   7215     1
   7201   7216     1
   7202   7212     1
   7202   7213     1
   7203   7211     1
   7203   7208     1
   7203   7206     1
   7203   7207     1
   7204   7211     1
   7204   7208     1
   7204   7206     1
   7204   7207     1
   7206   7209     1
   7206   7210     1
   7207   7209     1
   7207   7210     1
   7212   7217     1
   7212   7215     1
   7212   7216     1
   7213   7217     1
   7213   7215     1
   7213   7216     1
   7215   7218     1
   7215   7219     1
   7216   7218     1
   7216   7219     1
   7221   7228     1
   7221   7229     1
   7222   7227     1
   7222   7225     1
   7222   7226     1
   7223   7227     1
   7223   7225     1
   7223   7226     1
   7225   7230     1
   7225   7228     1
   7225   7229     1
   7225   7249     1
   7226   7230     1
   7226   7228     1
   7226   7229     1
   7226   7249     1
   7227   7232     1
   7227   7233     1
   7227   7241     1
   7227   7242     1
   7228   7231     1
   7228   7240     1
   7229   7231     1
   7229   7240     1
   7230   7235     1
   7230   7236     1
   7230   7244     1
   7230   7245     1
   7231   7241     1
   7231   7242     1
   7232   7237     1
   7232   7235     1
   7232   7236     1
   7232   7240     1
   7233   7237     1
   7233   7235     1
   7233   7236     1
   7233   7240     1
   7235   7238     1
   7235   7239     1
   7236   7238     1
   7236   7239     1
   7241   7246     1
   7241   7244     1
   7241   7245     1
   7242   7246     1
   7242   7244     1
   7242   7245     1
   7244   7247     1
   7244   7248     1
   7245   7247     1
   7245   7248     1
   7250   7257     1
   7250   7258     1
   7251   7256     1
   7251   7254     1
   7251   7255     1
   7252   7256     1
   7252   7254     1
   7252   7255     1
   7254   7278     1
   7254   7259     1
   7254   7257     1
   7254   7258     1
   7255   7278     1
   7255   7259     1
   7255   7257     1
   7255   7258     1
   7256   7261     1
   7256   7262     1
   7256   7270     1
   7256   7271     1
   7257   7260     1
   7257   7269     1
   7258   7260     1
   7258   7269     1
   7259   7264     1
   7259   7265     1
   7259   7273     1
   7259   7274     1
   7260   7270     1
   7260   7271     1
   7261   7269     1
   7261   7266     1
   7261   7264     1
   7261   7265     1
   7262   7269     1
   7262   7266     1
   7262   7264     1
   7262   7265     1
   7264   7267     1
   7264   7268     1
   7265   7267     1
   7265   7268     1
   7270   7275     1
   7270   7273     1
   7270   7274     1
   7271   7275     1
   7271   7273     1
   7271   7274     1
   7273   7276     1
   7273   7277     1
   7274   7276     1
   7274   7277     1
   7279   7286     1
   7279   7287     1
   7280   7285     1
   7280   7283     1
   7280   7284     1
   7281   7285     1
   7281   7283     1
   7281   7284     1
   7283   7288     1
   7283   7286     1
   7283   7287     1
   7283   7307     1
   7284   7288     1
   7284   7286     1
   7284   7287     1
   7284   7307     1
   7285   7290     1
   7285   7291     1
   7285   7299     1
   7285   7300     1
   7286   7289     1
   7286   7298     1
   7287   7289     1
   7287   7298     1
   7288   7293     1
   7288   7294     1
   7288   7302     1
   7288   7303     1
   7289   7299     1
   7289   7300     1
   7290   7295     1
   7290   7293     1
   7290   7294     1
   7290   7298     1
   7291   7295     1
   7291   7293     1
   7291   7294     1
   7291   7298     1
   7293   7296     1
   7293   7297     1
   7294   7296     1
   7294   7297     1
   7299   7304     1
   7299   7302     1
   7299   7303     1
   7300   7304     1
   7300   7302     1
   7300   7303     1
   7302   7305     1
   7302   7306     1
   7303   7305     1
   7303   7306     1
   7308   7315     1
   7308   7316     1
   7309   7314     1
   7309   7312     1
   7309   7313     1
   7310   7314     1
   7310   7312     1
   7310   7313     1
   7312   7336     1
   7312   7317     1
   7312   7315     1
   7312   7316     1
   7313   7336     1
   7313   7317     1
   7313   7315     1
   7313   7316     1
   7314   7319     1
   7314   7320     1
   7314   7328     1
   7314   7329     1
   7315   7318     1
   7315   7327     1
   7316   7318     1
   7316   7327     1
   7317   7322     1
   7317   7323     1
   7317   7331     1
   7317   7332     1
   7318   7328     1
   7318   7329     1
   7319   7327     1
   7319   7324     1
   7319   7322     1
   7319   7323     1
   7320   7327     1
   7320   7324     1
   7320   7322     1
   7320   7323     1
   7322   7325     1
   7322   7326     1
   7323   7325     1
   7323   7326     1
   7328   7333     1
   7328   7331     1
   7328   7332     1
   7329   7333     1
   7329   7331     1
   7329   7332     1
   7331   7334     1
   7331   7335     1
   7332   7334     1
   7332   7335     1
   7337   7344     1
   7337   7345     1
   7338   7343     1
   7338   7341     1
   7338   7342     1
   7339   7343     1
   7339   7341     1
   7339   7342     1
   7341   7346     1
   7341   7344     1
   7341   7345     1
   7341   7365     1
   7342   7346     1
   7342   7344     1
   7342   7345     1
   7342   7365     1
   7343   7348     1
   7343   7349     1
   7343   7357     1
   7343   7358     1
   7344   7347     1
   7344   7356     1
   7345   7347     1
   7345   7356     1
   7346   7351     1
   7346   7352     1
   7346   7360     1
   7346   7361     1
   7347   7357     1
   7347   7358     1
   7348   7353     1
   7348   7351     1
   7348   7352     1
   7348   7356     1
   7349   7353     1
   7349   7351     1
   7349   7352     1
   7349   7356     1
   7351   7354     1
   7351   7355     1
   7352   7354     1
   7352   7355     1
   7357   7362     1
   7357   7360     1
   7357   7361     1
   7358   7362     1
   7358   7360     1
   7358   7361     1
   7360   7363     1
   7360   7364     1
   7361   7363     1
   7361   7364     1

[ angles ]
;    ai     aj     ak funct         c0         c1         c2         c3
      1      2      8     1   107.9700462 569.024000
      1      5     11     1   107.9700462 569.024000
      2      1      5     1   112.4800480 524.673600
      2      8     14     1   111.5100476 526.347200
      5     11     17     1   111.5100476 526.347200
      8     14     20     1   111.0400475 552.288000
     11     17     21     1   111.0400475 552.288000
     14     20     28     1   112.3500484 533.878400
     14     20     31     1   112.3500484 533.878400
     17     21     22     1   112.3500484 533.878400
     17     21     25     1   112.3500484 533.878400
     20     28     40     1   111.0400475 552.288000
     20     31     43     1   111.0400475 552.288000
     21     22     34     1   111.0400475 552.288000
     21     25     37     1   111.0400475 552.288000
     22     21     25     1   112.3500484 533.878400
     22     34     55     1   111.5100476 526.347200
     25     37     52     1   111.5100476 526.347200
     28     20     31     1   112.3500484 533.878400
     28     40     49     1   111.5100476 526.347200
     31     43     46     1   111.5100476 526.347200
     34     55    173     1   107.9700462 569.024000
     37     52    144     1   107.9700462 569.024000
     40     49    115     1   107.9700462 569.024000
     43     46     86     1   107.9700462 569.024000
     46     86     77     1   112.4800480 524.673600
     49    115    106     1   112.4800480 524.673600
     52    144    135     1   112.4800480 524.673600
     55    173    164     1   112.4800480 524.673600
     58     59     71     1   111.0400475 552.288000
     58     62     74     1   111.0400475 552.288000
     58     65     68     1   111.0400475 552.288000
     59     58     62     1   112.3500484 533.878400
     59     58     65     1   112.3500484 533.878400
     59     71     83     1   111.5100476 526.347200
     62     58     65     1   112.3500484 533.878400
     62     74     80     1   111.5100476 526.347200
     65     68     77     1   111.5100476 526.347200
     68     77     86     1   107.9700462 569.024000
     71     83    231     1   107.9700462 569.024000
     74     80    202     1   107.9700462 569.024000
     80    202    193     1   112.4800480 524.673600
     83    231    222     1   112.4800480 524.673600
     87     88    100     1   111.0400475 552.288000
     87     91    103     1   111.0400475 552.288000
     87     94     97     1   111.0400475 552.288000
     88     87     91     1   112.3500484 533.878400
     88     87     94     1   112.3500484 533.878400
     88    100    112     1   111.5100476 526.347200
     91     87     94     1   112.3500484 533.878400
     91    103    109     1   111.5100476 526.347200
     94     97    106     1   111.5100476 526.347200
     97    106    115     1   107.9700462 569.024000
    100    112    289     1   107.9700462 569.024000
    103    109    260     1   107.9700462 569.024000
    109    260    251     1   112.4800480 524.673600
    112    289    280     1   112.4800480 524.673600
    116    117    129     1   111.0400475 552.288000
    116    120    132     1   111.0400475 552.288000
    116    123    126     1   111.0400475 552.288000
    117    116    120     1   112.3500484 533.878400
    117    116    123     1   112.3500484 533.878400
    117    129    141     1   111.5100476 526.347200
    120    116    123     1   112.3500484 533.878400
    120    132    138     1   111.5100476 526.347200
    123    126    135     1   111.5100476 526.347200
    126    135    144     1   107.9700462 569.024000
    129    141    347     1   107.9700462 569.024000
    132    138    318     1   107.9700462 569.024000
    138    318    309     1   112.4800480 524.673600
    141    347    338     1   112.4800480 524.673600
    145    146    158     1   111.0400475 552.288000
    145    149    161     1   111.0400475 552.288000
    145    152    155     1   111.0400475 552.288000
    146    145    149     1   112.3500484 533.878400
    146    145    152     1   112.3500484 533.878400
    146    158    170     1   111.5100476 526.347200
    149    145    152     1   112.3500484 533.878400
    149    161    167     1   111.5100476 526.347200
    152    155    164     1   111.5100476 526.347200
    155    164    173     1   107.9700462 569.024000
    158    170    405     1   107.9700462 569.024000
    161    167    376     1   107.9700462 569.024000
    167    376    367     1   112.4800480 524.673600
    170    405    396     1   112.4800480 524.673600
    174    175    187     1   111.0400475 552.288000
    174    178    190     1   111.0400475 552.288000
    174    181    184     1   111.0400475 552.288000
    175    174    178     1   112.3500484 533.878400
    175    174    181     1   112.3500484 533.878400
    175    187    199     1   111.5100476 526.347200
    178    174    181     1   112.3500484 533.878400
    178    190    196     1   111.5100476 526.347200
    181    184    193     1   111.5100476 526.347200
    184    193    202     1   107.9700462 569.024000
    187    199    463     1   107.9700462 569.024000
    190    196    434     1   107.9700462 569.024000
    196    434    425     1   112.4800480 524.673600
    199    463    454     1   112.4800480 524.673600
    203    204    216     1   111.0400475 552.288000
    203    207    219     1   111.0400475 552.288000
    203    210    213     1   111.0400475 552.288000
    204    203    207     1   112.3500484 533.878400
    204    203    210     1   112.3500484 533.878400
    204    216    228     1   111.5100476 526.347200
    207    203    210     1   112.3500484 533.878400
    207    219    225     1   111.5100476 526.347200
    210    213    222     1   111.5100476 526.347200
    213    222    231     1   107.9700462 569.024000
    216    228    521     1   107.9700462 569.024000
    219    225    492     1   107.9700462 569.024000
    225    492    483     1   112.4800480 524.673600
    228    521    512     1   112.4800480 524.673600
    232    233    245     1   111.0400475 552.288000
    232    236    248     1   111.0400475 552.288000
    232    239    242     1   111.0400475 552.288000
    233    232    236     1   112.3500484 533.878400
    233    232    239     1   112.3500484 533.878400
    233    245    257     1   111.5100476 526.347200
    236    232    239     1   112.3500484 533.878400
    236    248    254     1   111.5100476 526.347200
    239    242    251     1   111.5100476 526.347200
    242    251    260     1   107.9700462 569.024000
    245    257    579     1   107.9700462 569.024000
    248    254    550     1   107.9700462 569.024000
    254    550    541     1   112.4800480 524.673600
    257    579    570     1   112.4800480 524.673600
    261    262    274     1   111.0400475 552.288000
    261    265    277     1   111.0400475 552.288000
    261    268    271     1   111.0400475 552.288000
    262    261    265     1   112.3500484 533.878400
    262    261    268     1   112.3500484 533.878400
    262    274    286     1   111.5100476 526.347200
    265    261    268     1   112.3500484 533.878400
    265    277    283     1   111.5100476 526.347200
    268    271    280     1   111.5100476 526.347200
    271    280    289     1   107.9700462 569.024000
    274    286    637     1   107.9700462 569.024000
    277    283    608     1   107.9700462 569.024000
    283    608    599     1   112.4800480 524.673600
    286    637    628     1   112.4800480 524.673600
    290    291    303     1   111.0400475 552.288000
    290    294    306     1   111.0400475 552.288000
    290    297    300     1   111.0400475 552.288000
    291    290    294     1   112.3500484 533.878400
    291    290    297     1   112.3500484 533.878400
    291    303    315     1   111.5100476 526.347200
    294    290    297     1   112.3500484 533.878400
    294    306    312     1   111.5100476 526.347200
    297    300    309     1   111.5100476 526.347200
    300    309    318     1   107.9700462 569.024000
    303    315    695     1   107.9700462 569.024000
    306    312    666     1   107.9700462 569.024000
    312    666    657     1   112.4800480 524.673600
    315    695    686     1   112.4800480 524.673600
    319    320    332     1   111.0400475 552.288000
    319    323    335     1   111.0400475 552.288000
    319    326    329     1   111.0400475 552.288000
    320    319    323     1   112.3500484 533.878400
    320    319    326     1   112.3500484 533.878400
    320    332    344     1   111.5100476 526.347200
    323    319    326     1   112.3500484 533.878400
    323    335    341     1   111.5100476 526.347200
    326    329    338     1   111.5100476 526.347200
    329    338    347     1   107.9700462 569.024000
    332    344    753     1   107.9700462 569.024000
    335    341    724     1   107.9700462 569.024000
    341    724    715     1   112.4800480 524.673600
    344    753    744     1   112.4800480 524.673600
    348    349    361     1   111.0400475 552.288000
    348    352    364     1   111.0400475 552.288000
    348    355    358     1   111.0400475 552.288000
    349    348    352     1   112.3500484 533.878400
    349    348    355     1   112.3500484 533.878400
    349    361    373     1   111.5100476 526.347200
    352    348    355     1   112.3500484 533.878400
    352    364    370     1   111.5100476 526.347200
    355    358    367     1   111.5100476 526.347200
    358    367    376     1   107.9700462 569.024000
    361    373    811     1   107.9700462 569.024000
    364    370    782     1   107.9700462 569.024000
    370    782    773     1   112.4800480 524.673600
    373    811    802     1   112.4800480 524.673600
    377    378    390     1   111.0400475 552.288000
    377    381    393     1   111.0400475 552.288000
    377    384    387     1   111.0400475 552.288000
    378    377    381     1   112.3500484 533.878400
    378    377    384     1   112.3500484 533.878400
    378    390    402     1   111.5100476 526.347200
    381    377    384     1   112.3500484 533.878400
    381    393    399     1   111.5100476 526.347200
    384    387    396     1   111.5100476 526.347200
    387    396    405     1   107.9700462 569.024000
    390    402    869     1   107.9700462 569.024000
    393    399    840     1   107.9700462 569.024000
    399    840    831     1   112.4800480 524.673600
    402    869    860     1   112.4800480 524.673600
    406    407    419     1   111.0400475 552.288000
    406    410    422     1   111.0400475 552.288000
    406    413    416     1   111.0400475 552.288000
    407    406    410     1   112.3500484 533.878400
    407    406    413     1   112.3500484 533.878400
    407    419    431     1   111.5100476 526.347200
    410    406    413     1   112.3500484 533.878400
    410    422    428     1   111.5100476 526.347200
    413    416    425     1   111.5100476 526.347200
    416    425    434     1   107.9700462 569.024000
    419    431    927     1   107.9700462 569.024000
    422    428    898     1   107.9700462 569.024000
    428    898    889     1   112.4800480 524.673600
    431    927    918     1   112.4800480 524.673600
    435    436    448     1   111.0400475 552.288000
    435    439    451     1   111.0400475 552.288000
    435    442    445     1   111.0400475 552.288000
    436    435    439     1   112.3500484 533.878400
    436    435    442     1   112.3500484 533.878400
    436    448    460     1   111.5100476 526.347200
    439    435    442     1   112.3500484 533.878400
    439    451    457     1   111.5100476 526.347200
    442    445    454     1   111.5100476 526.347200
    445    454    463     1   107.9700462 569.024000
    448    460    985     1   107.9700462 569.024000
    451    457    956     1   107.9700462 569.024000
    457    956    947     1   112.4800480 524.673600
    460    985    976     1   112.4800480 524.673600
    464    465    477     1   111.0400475 552.288000
    464    468    480     1   111.0400475 552.288000
    464    471    474     1   111.0400475 552.288000
    465    464    468     1   112.3500484 533.878400
    465    464    471     1   112.3500484 533.878400
    465    477    489     1   111.5100476 526.347200
    468    464    471     1   112.3500484 533.878400
    468    480    486     1   111.5100476 526.347200
    471    474    483     1   111.5100476 526.347200
    474    483    492     1   107.9700462 569.024000
    477    489   1043     1   107.9700462 569.024000
    480    486   1014     1   107.9700462 569.024000
    486   1014   1005     1   112.4800480 524.673600
    489   1043   1034     1   112.4800480 524.673600
    493    494    506     1   111.0400475 552.288000
    493    497    509     1   111.0400475 552.288000
    493    500    503     1   111.0400475 552.288000
    494    493    497     1   112.3500484 533.878400
    494    493    500     1   112.3500484 533.878400
    494    506    518     1   111.5100476 526.347200
    497    493    500     1   112.3500484 533.878400
    497    509    515     1   111.5100476 526.347200
    500    503    512     1   111.5100476 526.347200
    503    512    521     1   107.9700462 569.024000
    506    518   1101     1   107.9700462 569.024000
    509    515   1072     1   107.9700462 569.024000
    515   1072   1063     1   112.4800480 524.673600
    518   1101   1092     1   112.4800480 524.673600
    522    523    535     1   111.0400475 552.288000
    522    526    538     1   111.0400475 552.288000
    522    529    532     1   111.0400475 552.288000
    523    522    526     1   112.3500484 533.878400
    523    522    529     1   112.3500484 533.878400
    523    535    547     1   111.5100476 526.347200
    526    522    529     1   112.3500484 533.878400
    526    538    544     1   111.5100476 526.347200
    529    532    541     1   111.5100476 526.347200
    532    541    550     1   107.9700462 569.024000
    535    547   1159     1   107.9700462 569.024000
    538    544   1130     1   107.9700462 569.024000
    544   1130   1121     1   112.4800480 524.673600
    547   1159   1150     1   112.4800480 524.673600
    551    552    564     1   111.0400475 552.288000
    551    555    567     1   111.0400475 552.288000
    551    558    561     1   111.0400475 552.288000
    552    551    555     1   112.3500484 533.878400
    552    551    558     1   112.3500484 533.878400
    552    564    576     1   111.5100476 526.347200
    555    551    558     1   112.3500484 533.878400
    555    567    573     1   111.5100476 526.347200
    558    561    570     1   111.5100476 526.347200
    561    570    579     1   107.9700462 569.024000
    564    576   1217     1   107.9700462 569.024000
    567    573   1188     1   107.9700462 569.024000
    573   1188   1179     1   112.4800480 524.673600
    576   1217   1208     1   112.4800480 524.673600
    580    581    593     1   111.0400475 552.288000
    580    584    596     1   111.0400475 552.288000
    580    587    590     1   111.0400475 552.288000
    581    580    584     1   112.3500484 533.878400
    581    580    587     1   112.3500484 533.878400
    581    593    605     1   111.5100476 526.347200
    584    580    587     1   112.3500484 533.878400
    584    596    602     1   111.5100476 526.347200
    587    590    599     1   111.5100476 526.347200
    590    599    608     1   107.9700462 569.024000
    593    605   1275     1   107.9700462 569.024000
    596    602   1246     1   107.9700462 569.024000
    602   1246   1237     1   112.4800480 524.673600
    605   1275   1266     1   112.4800480 524.673600
    609    610    622     1   111.0400475 552.288000
    609    613    625     1   111.0400475 552.288000
    609    616    619     1   111.0400475 552.288000
    610    609    613     1   112.3500484 533.878400
    610    609    616     1   112.3500484 533.878400
    610    622    634     1   111.5100476 526.347200
    613    609    616     1   112.3500484 533.878400
    613    625    631     1   111.5100476 526.347200
    616    619    628     1   111.5100476 526.347200
    619    628    637     1   107.9700462 569.024000
    622    634   1333     1   107.9700462 569.024000
    625    631   1304     1   107.9700462 569.024000
    631   1304   1295     1   112.4800480 524.673600
    634   1333   1324     1   112.4800480 524.673600
    638    639    651     1   111.0400475 552.288000
    638    642    654     1   111.0400475 552.288000
    638    645    648     1   111.0400475 552.288000
    639    638    642     1   112.3500484 533.878400
    639    638    645     1   112.3500484 533.878400
    639    651    663     1   111.5100476 526.347200
    642    638    645     1   112.3500484 533.878400
    642    654    660     1   111.5100476 526.347200
    645    648    657     1   111.5100476 526.347200
    648    657    666     1   107.9700462 569.024000
    651    663   1391     1   107.9700462 569.024000
    654    660   1362     1   107.9700462 569.024000
    660   1362   1353     1   112.4800480 524.673600
    663   1391   1382     1   112.4800480 524.673600
    667    668    680     1   111.0400475 552.288000
    667    671    683     1   111.0400475 552.288000
    667    674    677     1   111.0400475 552.288000
    668    667    671     1   112.3500484 533.878400
    668    667    674     1   112.3500484 533.878400
    668    680    692     1   111.5100476 526.347200
    671    667    674     1   112.3500484 533.878400
    671    683    689     1   111.5100476 526.347200
    674    677    686     1   111.5100476 526.347200
    677    686    695     1   107.9700462 569.024000
    680    692   1449     1   107.9700462 569.024000
    683    689   1420     1   107.9700462 569.024000
    689   1420   1411     1   112.4800480 524.673600
    692   1449   1440     1   112.4800480 524.673600
    696    697    709     1   111.0400475 552.288000
    696    700    712     1   111.0400475 552.288000
    696    703    706     1   111.0400475 552.288000
    697    696    700     1   112.3500484 533.878400
    697    696    703     1   112.3500484 533.878400
    697    709    721     1   111.5100476 526.347200
    700    696    703     1   112.3500484 533.878400
    700    712    718     1   111.5100476 526.347200
    703    706    715     1   111.5100476 526.347200
    706    715    724     1   107.9700462 569.024000
    709    721   1507     1   107.9700462 569.024000
    712    718   1478     1   107.9700462 569.024000
    718   1478   1469     1   112.4800480 524.673600
    721   1507   1498     1   112.4800480 524.673600
    725    726    738     1   111.0400475 552.288000
    725    729    741     1   111.0400475 552.288000
    725    732    735     1   111.0400475 552.288000
    726    725    729     1   112.3500484 533.878400
    726    725    732     1   112.3500484 533.878400
    726    738    750     1   111.5100476 526.347200
    729    725    732     1   112.3500484 533.878400
    729    741    747     1   111.5100476 526.347200
    732    735    744     1   111.5100476 526.347200
    735    744    753     1   107.9700462 569.024000
    738    750   1565     1   107.9700462 569.024000
    741    747   1536     1   107.9700462 569.024000
    747   1536   1527     1   112.4800480 524.673600
    750   1565   1556     1   112.4800480 524.673600
    754    755    767     1   111.0400475 552.288000
    754    758    770     1   111.0400475 552.288000
    754    761    764     1   111.0400475 552.288000
    755    754    758     1   112.3500484 533.878400
    755    754    761     1   112.3500484 533.878400
    755    767    779     1   111.5100476 526.347200
    758    754    761     1   112.3500484 533.878400
    758    770    776     1   111.5100476 526.347200
    761    764    773     1   111.5100476 526.347200
    764    773    782     1   107.9700462 569.024000
    767    779   1623     1   107.9700462 569.024000
    770    776   1594     1   107.9700462 569.024000
    776   1594   1585     1   112.4800480 524.673600
    779   1623   1614     1   112.4800480 524.673600
    783    784    796     1   111.0400475 552.288000
    783    787    799     1   111.0400475 552.288000
    783    790    793     1   111.0400475 552.288000
    784    783    787     1   112.3500484 533.878400
    784    783    790     1   112.3500484 533.878400
    784    796    808     1   111.5100476 526.347200
    787    783    790     1   112.3500484 533.878400
    787    799    805     1   111.5100476 526.347200
    790    793    802     1   111.5100476 526.347200
    793    802    811     1   107.9700462 569.024000
    796    808   1681     1   107.9700462 569.024000
    799    805   1652     1   107.9700462 569.024000
    805   1652   1643     1   112.4800480 524.673600
    808   1681   1672     1   112.4800480 524.673600
    812    813    825     1   111.0400475 552.288000
    812    816    828     1   111.0400475 552.288000
    812    819    822     1   111.0400475 552.288000
    813    812    816     1   112.3500484 533.878400
    813    812    819     1   112.3500484 533.878400
    813    825    837     1   111.5100476 526.347200
    816    812    819     1   112.3500484 533.878400
    816    828    834     1   111.5100476 526.347200
    819    822    831     1   111.5100476 526.347200
    822    831    840     1   107.9700462 569.024000
    825    837   1739     1   107.9700462 569.024000
    828    834   1710     1   107.9700462 569.024000
    834   1710   1701     1   112.4800480 524.673600
    837   1739   1730     1   112.4800480 524.673600
    841    842    854     1   111.0400475 552.288000
    841    845    857     1   111.0400475 552.288000
    841    848    851     1   111.0400475 552.288000
    842    841    845     1   112.3500484 533.878400
    842    841    848     1   112.3500484 533.878400
    842    854    866     1   111.5100476 526.347200
    845    841    848     1   112.3500484 533.878400
    845    857    863     1   111.5100476 526.347200
    848    851    860     1   111.5100476 526.347200
    851    860    869     1   107.9700462 569.024000
    854    866   1797     1   107.9700462 569.024000
    857    863   1768     1   107.9700462 569.024000
    863   1768   1759     1   112.4800480 524.673600
    866   1797   1788     1   112.4800480 524.673600
    870    871    883     1   111.0400475 552.288000
    870    874    886     1   111.0400475 552.288000
    870    877    880     1   111.0400475 552.288000
    871    870    874     1   112.3500484 533.878400
    871    870    877     1   112.3500484 533.878400
    871    883    895     1   111.5100476 526.347200
    874    870    877     1   112.3500484 533.878400
    874    886    892     1   111.5100476 526.347200
    877    880    889     1   111.5100476 526.347200
    880    889    898     1   107.9700462 569.024000
    883    895   1855     1   107.9700462 569.024000
    886    892   1826     1   107.9700462 569.024000
    892   1826   1817     1   112.4800480 524.673600
    895   1855   1846     1   112.4800480 524.673600
    899    900    912     1   111.0400475 552.288000
    899    903    915     1   111.0400475 552.288000
    899    906    909     1   111.0400475 552.288000
    900    899    903     1   112.3500484 533.878400
    900    899    906     1   112.3500484 533.878400
    900    912    924     1   111.5100476 526.347200
    903    899    906     1   112.3500484 533.878400
    903    915    921     1   111.5100476 526.347200
    906    909    918     1   111.5100476 526.347200
    909    918    927     1   107.9700462 569.024000
    912    924   1913     1   107.9700462 569.024000
    915    921   1884     1   107.9700462 569.024000
    921   1884   1875     1   112.4800480 524.673600
    924   1913   1904     1   112.4800480 524.673600
    928    929    941     1   111.0400475 552.288000
    928    932    944     1   111.0400475 552.288000
    928    935    938     1   111.0400475 552.288000
    929    928    932     1   112.3500484 533.878400
    929    928    935     1   112.3500484 533.878400
    929    941    953     1   111.5100476 526.347200
    932    928    935     1   112.3500484 533.878400
    932    944    950     1   111.5100476 526.347200
    935    938    947     1   111.5100476 526.347200
    938    947    956     1   107.9700462 569.024000
    941    953   1971     1   107.9700462 569.024000
    944    950   1942     1   107.9700462 569.024000
    950   1942   1933     1   112.4800480 524.673600
    953   1971   1962     1   112.4800480 524.673600
    957    958    970     1   111.0400475 552.288000
    957    961    973     1   111.0400475 552.288000
    957    964    967     1   111.0400475 552.288000
    958    957    961     1   112.3500484 533.878400
    958    957    964     1   112.3500484 533.878400
    958    970    982     1   111.5100476 526.347200
    961    957    964     1   112.3500484 533.878400
    961    973    979     1   111.5100476 526.347200
    964    967    976     1   111.5100476 526.347200
    967    976    985     1   107.9700462 569.024000
    970    982   2029     1   107.9700462 569.024000
    973    979   2000     1   107.9700462 569.024000
    979   2000   1991     1   112.4800480 524.673600
    982   2029   2020     1   112.4800480 524.673600
    986    987    999     1   111.0400475 552.288000
    986    990   1002     1   111.0400475 552.288000
    986    993    996     1   111.0400475 552.288000
    987    986    990     1   112.3500484 533.878400
    987    986    993     1   112.3500484 533.878400
    987    999   1011     1   111.5100476 526.347200
    990    986    993     1   112.3500484 533.878400
    990   1002   1008     1   111.5100476 526.347200
    993    996   1005     1   111.5100476 526.347200
    996   1005   1014     1   107.9700462 569.024000
    999   1011   2087     1   107.9700462 569.024000
   1002   1008   2058     1   107.9700462 569.024000
   1008   2058   2049     1   112.4800480 524.673600
   1011   2087   2078     1   112.4800480 524.673600
   1015   1016   1028     1   111.0400475 552.288000
   1015   1019   1031     1   111.0400475 552.288000
   1015   1022   1025     1   111.0400475 552.288000
   1016   1015   1019     1   112.3500484 533.878400
   1016   1015   1022     1   112.3500484 533.878400
   1016   1028   1040     1   111.5100476 526.347200
   1019   1015   1022     1   112.3500484 533.878400
   1019   1031   1037     1   111.5100476 526.347200
   1022   1025   1034     1   111.5100476 526.347200
   1025   1034   1043     1   107.9700462 569.024000
   1028   1040   2145     1   107.9700462 569.024000
   1031   1037   2116     1   107.9700462 569.024000
   1037   2116   2107     1   112.4800480 524.673600
   1040   2145   2136     1   112.4800480 524.673600
   1044   1045   1057     1   111.0400475 552.288000
   1044   1048   1060     1   111.0400475 552.288000
   1044   1051   1054     1   111.0400475 552.288000
   1045   1044   1048     1   112.3500484 533.878400
   1045   1044   1051     1   112.3500484 533.878400
   1045   1057   1069     1   111.5100476 526.347200
   1048   1044   1051     1   112.3500484 533.878400
   1048   1060   1066     1   111.5100476 526.347200
   1051   1054   1063     1   111.5100476 526.347200
   1054   1063   1072     1   107.9700462 569.024000
   1057   1069   2203     1   107.9700462 569.024000
   1060   1066   2174     1   107.9700462 569.024000
   1066   2174   2165     1   112.4800480 524.673600
   1069   2203   2194     1   112.4800480 524.673600
   1073   1074   1086     1   111.0400475 552.288000
   1073   1077   1089     1   111.0400475 552.288000
   1073   1080   1083     1   111.0400475 552.288000
   1074   1073   1077     1   112.3500484 533.878400
   1074   1073   1080     1   112.3500484 533.878400
   1074   1086   1098     1   111.5100476 526.347200
   1077   1073   1080     1   112.3500484 533.878400
   1077   1089   1095     1   111.5100476 526.347200
   1080   1083   1092     1   111.5100476 526.347200
   1083   1092   1101     1   107.9700462 569.024000
   1086   1098   2261     1   107.9700462 569.024000
   1089   1095   2232     1   107.9700462 569.024000
   1095   2232   2223     1   112.4800480 524.673600
   1098   2261   2252     1   112.4800480 524.673600
   1102   1103   1115     1   111.0400475 552.288000
   1102   1106   1118     1   111.0400475 552.288000
   1102   1109   1112     1   111.0400475 552.288000
   1103   1102   1106     1   112.3500484 533.878400
   1103   1102   1109     1   112.3500484 533.878400
   1103   1115   1127     1   111.5100476 526.347200
   1106   1102   1109     1   112.3500484 533.878400
   1106   1118   1124     1   111.5100476 526.347200
   1109   1112   1121     1   111.5100476 526.347200
   1112   1121   1130     1   107.9700462 569.024000
   1115   1127   2319     1   107.9700462 569.024000
   1118   1124   2290     1   107.9700462 569.024000
   1124   2290   2281     1   112.4800480 524.673600
   1127   2319   2310     1   112.4800480 524.673600
   1131   1132   1144     1   111.0400475 552.288000
   1131   1135   1147     1   111.0400475 552.288000
   1131   1138   1141     1   111.0400475 552.288000
   1132   1131   1135     1   112.3500484 533.878400
   1132   1131   1138     1   112.3500484 533.878400
   1132   1144   1156     1   111.5100476 526.347200
   1135   1131   1138     1   112.3500484 533.878400
   1135   1147   1153     1   111.5100476 526.347200
   1138   1141   1150     1   111.5100476 526.347200
   1141   1150   1159     1   107.9700462 569.024000
   1144   1156   2377     1   107.9700462 569.024000
   1147   1153   2348     1   107.9700462 569.024000
   1153   2348   2339     1   112.4800480 524.673600
   1156   2377   2368     1   112.4800480 524.673600
   1160   1161   1173     1   111.0400475 552.288000
   1160   1164   1176     1   111.0400475 552.288000
   1160   1167   1170     1   111.0400475 552.288000
   1161   1160   1164     1   112.3500484 533.878400
   1161   1160   1167     1   112.3500484 533.878400
   1161   1173   1185     1   111.5100476 526.347200
   1164   1160   1167     1   112.3500484 533.878400
   1164   1176   1182     1   111.5100476 526.347200
   1167   1170   1179     1   111.5100476 526.347200
   1170   1179   1188     1   107.9700462 569.024000
   1173   1185   2435     1   107.9700462 569.024000
   1176   1182   2406     1   107.9700462 569.024000
   1182   2406   2397     1   112.4800480 524.673600
   1185   2435   2426     1   112.4800480 524.673600
   1189   1190   1202     1   111.0400475 552.288000
   1189   1193   1205     1   111.0400475 552.288000
   1189   1196   1199     1   111.0400475 552.288000
   1190   1189   1193     1   112.3500484 533.878400
   1190   1189   1196     1   112.3500484 533.878400
   1190   1202   1214     1   111.5100476 526.347200
   1193   1189   1196     1   112.3500484 533.878400
   1193   1205   1211     1   111.5100476 526.347200
   1196   1199   1208     1   111.5100476 526.347200
   1199   1208   1217     1   107.9700462 569.024000
   1202   1214   2493     1   107.9700462 569.024000
   1205   1211   2464     1   107.9700462 569.024000
   1211   2464   2455     1   112.4800480 524.673600
   1214   2493   2484     1   112.4800480 524.673600
   1218   1219   1231     1   111.0400475 552.288000
   1218   1222   1234     1   111.0400475 552.288000
   1218   1225   1228     1   111.0400475 552.288000
   1219   1218   1222     1   112.3500484 533.878400
   1219   1218   1225     1   112.3500484 533.878400
   1219   1231   1243     1   111.5100476 526.347200
   1222   1218   1225     1   112.3500484 533.878400
   1222   1234   1240     1   111.5100476 526.347200
   1225   1228   1237     1   111.5100476 526.347200
   1228   1237   1246     1   107.9700462 569.024000
   1231   1243   2551     1   107.9700462 569.024000
   1234   1240   2522     1   107.9700462 569.024000
   1240   2522   2513     1   112.4800480 524.673600
   1243   2551   2542     1   112.4800480 524.673600
   1247   1248   1260     1   111.0400475 552.288000
   1247   1251   1263     1   111.0400475 552.288000
   1247   1254   1257     1   111.0400475 552.288000
   1248   1247   1251     1   112.3500484 533.878400
   1248   1247   1254     1   112.3500484 533.878400
   1248   1260   1272     1   111.5100476 526.347200
   1251   1247   1254     1   112.3500484 533.878400
   1251   1263   1269     1   111.5100476 526.347200
   1254   1257   1266     1   111.5100476 526.347200
   1257   1266   1275     1   107.9700462 569.024000
   1260   1272   2609     1   107.9700462 569.024000
   1263   1269   2580     1   107.9700462 569.024000
   1269   2580   2571     1   112.4800480 524.673600
   1272   2609   2600     1   112.4800480 524.673600
   1276   1277   1289     1   111.0400475 552.288000
   1276   1280   1292     1   111.0400475 552.288000
   1276   1283   1286     1   111.0400475 552.288000
   1277   1276   1280     1   112.3500484 533.878400
   1277   1276   1283     1   112.3500484 533.878400
   1277   1289   1301     1   111.5100476 526.347200
   1280   1276   1283     1   112.3500484 533.878400
   1280   1292   1298     1   111.5100476 526.347200
   1283   1286   1295     1   111.5100476 526.347200
   1286   1295   1304     1   107.9700462 569.024000
   1289   1301   2667     1   107.9700462 569.024000
   1292   1298   2638     1   107.9700462 569.024000
   1298   2638   2629     1   112.4800480 524.673600
   1301   2667   2658     1   112.4800480 524.673600
   1305   1306   1318     1   111.0400475 552.288000
   1305   1309   1321     1   111.0400475 552.288000
   1305   1312   1315     1   111.0400475 552.288000
   1306   1305   1309     1   112.3500484 533.878400
   1306   1305   1312     1   112.3500484 533.878400
   1306   1318   1330     1   111.5100476 526.347200
   1309   1305   1312     1   112.3500484 533.878400
   1309   1321   1327     1   111.5100476 526.347200
   1312   1315   1324     1   111.5100476 526.347200
   1315   1324   1333     1   107.9700462 569.024000
   1318   1330   2725     1   107.9700462 569.024000
   1321   1327   2696     1   107.9700462 569.024000
   1327   2696   2687     1   112.4800480 524.673600
   1330   2725   2716     1   112.4800480 524.673600
   1334   1335   1347     1   111.0400475 552.288000
   1334   1338   1350     1   111.0400475 552.288000
   1334   1341   1344     1   111.0400475 552.288000
   1335   1334   1338     1   112.3500484 533.878400
   1335   1334   1341     1   112.3500484 533.878400
   1335   1347   1359     1   111.5100476 526.347200
   1338   1334   1341     1   112.3500484 533.878400
   1338   1350   1356     1   111.5100476 526.347200
   1341   1344   1353     1   111.5100476 526.347200
   1344   1353   1362     1   107.9700462 569.024000
   1347   1359   2783     1   107.9700462 569.024000
   1350   1356   2754     1   107.9700462 569.024000
   1356   2754   2745     1   112.4800480 524.673600
   1359   2783   2774     1   112.4800480 524.673600
   1363   1364   1376     1   111.0400475 552.288000
   1363   1367   1379     1   111.0400475 552.288000
   1363   1370   1373     1   111.0400475 552.288000
   1364   1363   1367     1   112.3500484 533.878400
   1364   1363   1370     1   112.3500484 533.878400
   1364   1376   1388     1   111.5100476 526.347200
   1367   1363   1370     1   112.3500484 533.878400
   1367   1379   1385     1   111.5100476 526.347200
   1370   1373   1382     1   111.5100476 526.347200
   1373   1382   1391     1   107.9700462 569.024000
   1376   1388   2841     1   107.9700462 569.024000
   1379   1385   2812     1   107.9700462 569.024000
   1385   2812   2803     1   112.4800480 524.673600
   1388   2841   2832     1   112.4800480 524.673600
   1392   1393   1405     1   111.0400475 552.288000
   1392   1396   1408     1   111.0400475 552.288000
   1392   1399   1402     1   111.0400475 552.288000
   1393   1392   1396     1   112.3500484 533.878400
   1393   1392   1399     1   112.3500484 533.878400
   1393   1405   1417     1   111.5100476 526.347200
   1396   1392   1399     1   112.3500484 533.878400
   1396   1408   1414     1   111.5100476 526.347200
   1399   1402   1411     1   111.5100476 526.347200
   1402   1411   1420     1   107.9700462 569.024000
   1405   1417   2899     1   107.9700462 569.024000
   1408   1414   2870     1   107.9700462 569.024000
   1414   2870   2861     1   112.4800480 524.673600
   1417   2899   2890     1   112.4800480 524.673600
   1421   1422   1434     1   111.0400475 552.288000
   1421   1425   1437     1   111.0400475 552.288000
   1421   1428   1431     1   111.0400475 552.288000
   1422   1421   1425     1   112.3500484 533.878400
   1422   1421   1428     1   112.3500484 533.878400
   1422   1434   1446     1   111.5100476 526.347200
   1425   1421   1428     1   112.3500484 533.878400
   1425   1437   1443     1   111.5100476 526.347200
   1428   1431   1440     1   111.5100476 526.347200
   1431   1440   1449     1   107.9700462 569.024000
   1434   1446   2957     1   107.9700462 569.024000
   1437   1443   2928     1   107.9700462 569.024000
   1443   2928   2919     1   112.4800480 524.673600
   1446   2957   2948     1   112.4800480 524.673600
   1450   1451   1463     1   111.0400475 552.288000
   1450   1454   1466     1   111.0400475 552.288000
   1450   1457   1460     1   111.0400475 552.288000
   1451   1450   1454     1   112.3500484 533.878400
   1451   1450   1457     1   112.3500484 533.878400
   1451   1463   1475     1   111.5100476 526.347200
   1454   1450   1457     1   112.3500484 533.878400
   1454   1466   1472     1   111.5100476 526.347200
   1457   1460   1469     1   111.5100476 526.347200
   1460   1469   1478     1   107.9700462 569.024000
   1463   1475   3015     1   107.9700462 569.024000
   1466   1472   2986     1   107.9700462 569.024000
   1472   2986   2977     1   112.4800480 524.673600
   1475   3015   3006     1   112.4800480 524.673600
   1479   1480   1492     1   111.0400475 552.288000
   1479   1483   1495     1   111.0400475 552.288000
   1479   1486   1489     1   111.0400475 552.288000
   1480   1479   1483     1   112.3500484 533.878400
   1480   1479   1486     1   112.3500484 533.878400
   1480   1492   1504     1   111.5100476 526.347200
   1483   1479   1486     1   112.3500484 533.878400
   1483   1495   1501     1   111.5100476 526.347200
   1486   1489   1498     1   111.5100476 526.347200
   1489   1498   1507     1   107.9700462 569.024000
   1492   1504   3073     1   107.9700462 569.024000
   1495   1501   3044     1   107.9700462 569.024000
   1501   3044   3035     1   112.4800480 524.673600
   1504   3073   3064     1   112.4800480 524.673600
   1508   1509   1521     1   111.0400475 552.288000
   1508   1512   1524     1   111.0400475 552.288000
   1508   1515   1518     1   111.0400475 552.288000
   1509   1508   1512     1   112.3500484 533.878400
   1509   1508   1515     1   112.3500484 533.878400
   1509   1521   1533     1   111.5100476 526.347200
   1512   1508   1515     1   112.3500484 533.878400
   1512   1524   1530     1   111.5100476 526.347200
   1515   1518   1527     1   111.5100476 526.347200
   1518   1527   1536     1   107.9700462 569.024000
   1521   1533   3131     1   107.9700462 569.024000
   1524   1530   3102     1   107.9700462 569.024000
   1530   3102   3093     1   112.4800480 524.673600
   1533   3131   3122     1   112.4800480 524.673600
   1537   1538   1550     1   111.0400475 552.288000
   1537   1541   1553     1   111.0400475 552.288000
   1537   1544   1547     1   111.0400475 552.288000
   1538   1537   1541     1   112.3500484 533.878400
   1538   1537   1544     1   112.3500484 533.878400
   1538   1550   1562     1   111.5100476 526.347200
   1541   1537   1544     1   112.3500484 533.878400
   1541   1553   1559     1   111.5100476 526.347200
   1544   1547   1556     1   111.5100476 526.347200
   1547   1556   1565     1   107.9700462 569.024000
   1550   1562   3189     1   107.9700462 569.024000
   1553   1559   3160     1   107.9700462 569.024000
   1559   3160   3151     1   112.4800480 524.673600
   1562   3189   3180     1   112.4800480 524.673600
   1566   1567   1579     1   111.0400475 552.288000
   1566   1570   1582     1   111.0400475 552.288000
   1566   1573   1576     1   111.0400475 552.288000
   1567   1566   1570     1   112.3500484 533.878400
   1567   1566   1573     1   112.3500484 533.878400
   1567   1579   1591     1   111.5100476 526.347200
   1570   1566   1573     1   112.3500484 533.878400
   1570   1582   1588     1   111.5100476 526.347200
   1573   1576   1585     1   111.5100476 526.347200
   1576   1585   1594     1   107.9700462 569.024000
   1579   1591   3247     1   107.9700462 569.024000
   1582   1588   3218     1   107.9700462 569.024000
   1588   3218   3209     1   112.4800480 524.673600
   1591   3247   3238     1   112.4800480 524.673600
   1595   1596   1608     1   111.0400475 552.288000
   1595   1599   1611     1   111.0400475 552.288000
   1595   1602   1605     1   111.0400475 552.288000
   1596   1595   1599     1   112.3500484 533.878400
   1596   1595   1602     1   112.3500484 533.878400
   1596   1608   1620     1   111.5100476 526.347200
   1599   1595   1602     1   112.3500484 533.878400
   1599   1611   1617     1   111.5100476 526.347200
   1602   1605   1614     1   111.5100476 526.347200
   1605   1614   1623     1   107.9700462 569.024000
   1608   1620   3305     1   107.9700462 569.024000
   1611   1617   3276     1   107.9700462 569.024000
   1617   3276   3267     1   112.4800480 524.673600
   1620   3305   3296     1   112.4800480 524.673600
   1624   1625   1637     1   111.0400475 552.288000
   1624   1628   1640     1   111.0400475 552.288000
   1624   1631   1634     1   111.0400475 552.288000
   1625   1624   1628     1   112.3500484 533.878400
   1625   1624   1631     1   112.3500484 533.878400
   1625   1637   1649     1   111.5100476 526.347200
   1628   1624   1631     1   112.3500484 533.878400
   1628   1640   1646     1   111.5100476 526.347200
   1631   1634   1643     1   111.5100476 526.347200
   1634   1643   1652     1   107.9700462 569.024000
   1637   1649   3363     1   107.9700462 569.024000
   1640   1646   3334     1   107.9700462 569.024000
   1646   3334   3325     1   112.4800480 524.673600
   1649   3363   3354     1   112.4800480 524.673600
   1653   1654   1666     1   111.0400475 552.288000
   1653   1657   1669     1   111.0400475 552.288000
   1653   1660   1663     1   111.0400475 552.288000
   1654   1653   1657     1   112.3500484 533.878400
   1654   1653   1660     1   112.3500484 533.878400
   1654   1666   1678     1   111.5100476 526.347200
   1657   1653   1660     1   112.3500484 533.878400
   1657   1669   1675     1   111.5100476 526.347200
   1660   1663   1672     1   111.5100476 526.347200
   1663   1672   1681     1   107.9700462 569.024000
   1666   1678   3421     1   107.9700462 569.024000
   1669   1675   3392     1   107.9700462 569.024000
   1675   3392   3383     1   112.4800480 524.673600
   1678   3421   3412     1   112.4800480 524.673600
   1682   1683   1695     1   111.0400475 552.288000
   1682   1686   1698     1   111.0400475 552.288000
   1682   1689   1692     1   111.0400475 552.288000
   1683   1682   1686     1   112.3500484 533.878400
   1683   1682   1689     1   112.3500484 533.878400
   1683   1695   1707     1   111.5100476 526.347200
   1686   1682   1689     1   112.3500484 533.878400
   1686   1698   1704     1   111.5100476 526.347200
   1689   1692   1701     1   111.5100476 526.347200
   1692   1701   1710     1   107.9700462 569.024000
   1695   1707   3479     1   107.9700462 569.024000
   1698   1704   3450     1   107.9700462 569.024000
   1704   3450   3441     1   112.4800480 524.673600
   1707   3479   3470     1   112.4800480 524.673600
   1711   1712   1724     1   111.0400475 552.288000
   1711   1715   1727     1   111.0400475 552.288000
   1711   1718   1721     1   111.0400475 552.288000
   1712   1711   1715     1   112.3500484 533.878400
   1712   1711   1718     1   112.3500484 533.878400
   1712   1724   1736     1   111.5100476 526.347200
   1715   1711   1718     1   112.3500484 533.878400
   1715   1727   1733     1   111.5100476 526.347200
   1718   1721   1730     1   111.5100476 526.347200
   1721   1730   1739     1   107.9700462 569.024000
   1724   1736   3537     1   107.9700462 569.024000
   1727   1733   3508     1   107.9700462 569.024000
   1733   3508   3499     1   112.4800480 524.673600
   1736   3537   3528     1   112.4800480 524.673600
   1740   1741   1753     1   111.0400475 552.288000
   1740   1744   1756     1   111.0400475 552.288000
   1740   1747   1750     1   111.0400475 552.288000
   1741   1740   1744     1   112.3500484 533.878400
   1741   1740   1747     1   112.3500484 533.878400
   1741   1753   1765     1   111.5100476 526.347200
   1744   1740   1747     1   112.3500484 533.878400
   1744   1756   1762     1   111.5100476 526.347200
   1747   1750   1759     1   111.5100476 526.347200
   1750   1759   1768     1   107.9700462 569.024000
   1753   1765   3595     1   107.9700462 569.024000
   1756   1762   3566     1   107.9700462 569.024000
   1762   3566   3557     1   112.4800480 524.673600
   1765   3595   3586     1   112.4800480 524.673600
   1769   1770   1782     1   111.0400475 552.288000
   1769   1773   1785     1   111.0400475 552.288000
   1769   1776   1779     1   111.0400475 552.288000
   1770   1769   1773     1   112.3500484 533.878400
   1770   1769   1776     1   112.3500484 533.878400
   1770   1782   1794     1   111.5100476 526.347200
   1773   1769   1776     1   112.3500484 533.878400
   1773   1785   1791     1   111.5100476 526.347200
   1776   1779   1788     1   111.5100476 526.347200
   1779   1788   1797     1   107.9700462 569.024000
   1782   1794   3653     1   107.9700462 569.024000
   1785   1791   3624     1   107.9700462 569.024000
   1791   3624   3615     1   112.4800480 524.673600
   1794   3653   3644     1   112.4800480 524.673600
   1798   1799   1811     1   111.0400475 552.288000
   1798   1802   1814     1   111.0400475 552.288000
   1798   1805   1808     1   111.0400475 552.288000
   1799   1798   1802     1   112.3500484 533.878400
   1799   1798   1805     1   112.3500484 533.878400
   1799   1811   1823     1   111.5100476 526.347200
   1802   1798   1805     1   112.3500484 533.878400
   1802   1814   1820     1   111.5100476 526.347200
   1805   1808   1817     1   111.5100476 526.347200
   1808   1817   1826     1   107.9700462 569.024000
   1811   1823   3711     1   107.9700462 569.024000
   1814   1820   3682     1   107.9700462 569.024000
   1820   3682   3654     1   112.4800480 524.673600
   1823   3711   3683     1   112.4800480 524.673600
   1827   1828   1840     1   111.0400475 552.288000
   1827   1831   1843     1   111.0400475 552.288000
   1827   1834   1837     1   111.0400475 552.288000
   1828   1827   1831     1   112.3500484 533.878400
   1828   1827   1834     1   112.3500484 533.878400
   1828   1840   1852     1   111.5100476 526.347200
   1831   1827   1834     1   112.3500484 533.878400
   1831   1843   1849     1   111.5100476 526.347200
   1834   1837   1846     1   111.5100476 526.347200
   1837   1846   1855     1   107.9700462 569.024000
   1840   1852   3769     1   107.9700462 569.024000
   1843   1849   3740     1   107.9700462 569.024000
   1849   3740   3712     1   112.4800480 524.673600
   1852   3769   3741     1   112.4800480 524.673600
   1856   1857   1869     1   111.0400475 552.288000
   1856   1860   1872     1   111.0400475 552.288000
   1856   1863   1866     1   111.0400475 552.288000
   1857   1856   1860     1   112.3500484 533.878400
   1857   1856   1863     1   112.3500484 533.878400
   1857   1869   1881     1   111.5100476 526.347200
   1860   1856   1863     1   112.3500484 533.878400
   1860   1872   1878     1   111.5100476 526.347200
   1863   1866   1875     1   111.5100476 526.347200
   1866   1875   1884     1   107.9700462 569.024000
   1869   1881   3827     1   107.9700462 569.024000
   1872   1878   3798     1   107.9700462 569.024000
   1878   3798   3770     1   112.4800480 524.673600
   1881   3827   3799     1   112.4800480 524.673600
   1885   1886   1898     1   111.0400475 552.288000
   1885   1889   1901     1   111.0400475 552.288000
   1885   1892   1895     1   111.0400475 552.288000
   1886   1885   1889     1   112.3500484 533.878400
   1886   1885   1892     1   112.3500484 533.878400
   1886   1898   1910     1   111.5100476 526.347200
   1889   1885   1892     1   112.3500484 533.878400
   1889   1901   1907     1   111.5100476 526.347200
   1892   1895   1904     1   111.5100476 526.347200
   1895   1904   1913     1   107.9700462 569.024000
   1898   1910   3885     1   107.9700462 569.024000
   1901   1907   3856     1   107.9700462 569.024000
   1907   3856   3828     1   112.4800480 524.673600
   1910   3885   3857     1   112.4800480 524.673600
   1914   1915   1927     1   111.0400475 552.288000
   1914   1918   1930     1   111.0400475 552.288000
   1914   1921   1924     1   111.0400475 552.288000
   1915   1914   1918     1   112.3500484 533.878400
   1915   1914   1921     1   112.3500484 533.878400
   1915   1927   1939     1   111.5100476 526.347200
   1918   1914   1921     1   112.3500484 533.878400
   1918   1930   1936     1   111.5100476 526.347200
   1921   1924   1933     1   111.5100476 526.347200
   1924   1933   1942     1   107.9700462 569.024000
   1927   1939   3943     1   107.9700462 569.024000
   1930   1936   3914     1   107.9700462 569.024000
   1936   3914   3886     1   112.4800480 524.673600
   1939   3943   3915     1   112.4800480 524.673600
   1943   1944   1956     1   111.0400475 552.288000
   1943   1947   1959     1   111.0400475 552.288000
   1943   1950   1953     1   111.0400475 552.288000
   1944   1943   1947     1   112.3500484 533.878400
   1944   1943   1950     1   112.3500484 533.878400
   1944   1956   1968     1   111.5100476 526.347200
   1947   1943   1950     1   112.3500484 533.878400
   1947   1959   1965     1   111.5100476 526.347200
   1950   1953   1962     1   111.5100476 526.347200
   1953   1962   1971     1   107.9700462 569.024000
   1956   1968   4001     1   107.9700462 569.024000
   1959   1965   3972     1   107.9700462 569.024000
   1965   3972   3944     1   112.4800480 524.673600
   1968   4001   3973     1   112.4800480 524.673600
   1972   1973   1985     1   111.0400475 552.288000
   1972   1976   1988     1   111.0400475 552.288000
   1972   1979   1982     1   111.0400475 552.288000
   1973   1972   1976     1   112.3500484 533.878400
   1973   1972   1979     1   112.3500484 533.878400
   1973   1985   1997     1   111.5100476 526.347200
   1976   1972   1979     1   112.3500484 533.878400
   1976   1988   1994     1   111.5100476 526.347200
   1979   1982   1991     1   111.5100476 526.347200
   1982   1991   2000     1   107.9700462 569.024000
   1985   1997   4059     1   107.9700462 569.024000
   1988   1994   4030     1   107.9700462 569.024000
   1994   4030   4002     1   112.4800480 524.673600
   1997   4059   4031     1   112.4800480 524.673600
   2001   2002   2014     1   111.0400475 552.288000
   2001   2005   2017     1   111.0400475 552.288000
   2001   2008   2011     1   111.0400475 552.288000
   2002   2001   2005     1   112.3500484 533.878400
   2002   2001   2008     1   112.3500484 533.878400
   2002   2014   2026     1   111.5100476 526.347200
   2005   2001   2008     1   112.3500484 533.878400
   2005   2017   2023     1   111.5100476 526.347200
   2008   2011   2020     1   111.5100476 526.347200
   2011   2020   2029     1   107.9700462 569.024000
   2014   2026   4117     1   107.9700462 569.024000
   2017   2023   4088     1   107.9700462 569.024000
   2023   4088   4060     1   112.4800480 524.673600
   2026   4117   4089     1   112.4800480 524.673600
   2030   2031   2043     1   111.0400475 552.288000
   2030   2034   2046     1   111.0400475 552.288000
   2030   2037   2040     1   111.0400475 552.288000
   2031   2030   2034     1   112.3500484 533.878400
   2031   2030   2037     1   112.3500484 533.878400
   2031   2043   2055     1   111.5100476 526.347200
   2034   2030   2037     1   112.3500484 533.878400
   2034   2046   2052     1   111.5100476 526.347200
   2037   2040   2049     1   111.5100476 526.347200
   2040   2049   2058     1   107.9700462 569.024000
   2043   2055   4175     1   107.9700462 569.024000
   2046   2052   4146     1   107.9700462 569.024000
   2052   4146   4118     1   112.4800480 524.673600
   2055   4175   4147     1   112.4800480 524.673600
   2059   2060   2072     1   111.0400475 552.288000
   2059   2063   2075     1   111.0400475 552.288000
   2059   2066   2069     1   111.0400475 552.288000
   2060   2059   2063     1   112.3500484 533.878400
   2060   2059   2066     1   112.3500484 533.878400
   2060   2072   2084     1   111.5100476 526.347200
   2063   2059   2066     1   112.3500484 533.878400
   2063   2075   2081     1   111.5100476 526.347200
   2066   2069   2078     1   111.5100476 526.347200
   2069   2078   2087     1   107.9700462 569.024000
   2072   2084   4233     1   107.9700462 569.024000
   2075   2081   4204     1   107.9700462 569.024000
   2081   4204   4176     1   112.4800480 524.673600
   2084   4233   4205     1   112.4800480 524.673600
   2088   2089   2101     1   111.0400475 552.288000
   2088   2092   2104     1   111.0400475 552.288000
   2088   2095   2098     1   111.0400475 552.288000
   2089   2088   2092     1   112.3500484 533.878400
   2089   2088   2095     1   112.3500484 533.878400
   2089   2101   2113     1   111.5100476 526.347200
   2092   2088   2095     1   112.3500484 533.878400
   2092   2104   2110     1   111.5100476 526.347200
   2095   2098   2107     1   111.5100476 526.347200
   2098   2107   2116     1   107.9700462 569.024000
   2101   2113   4291     1   107.9700462 569.024000
   2104   2110   4262     1   107.9700462 569.024000
   2110   4262   4234     1   112.4800480 524.673600
   2113   4291   4263     1   112.4800480 524.673600
   2117   2118   2130     1   111.0400475 552.288000
   2117   2121   2133     1   111.0400475 552.288000
   2117   2124   2127     1   111.0400475 552.288000
   2118   2117   2121     1   112.3500484 533.878400
   2118   2117   2124     1   112.3500484 533.878400
   2118   2130   2142     1   111.5100476 526.347200
   2121   2117   2124     1   112.3500484 533.878400
   2121   2133   2139     1   111.5100476 526.347200
   2124   2127   2136     1   111.5100476 526.347200
   2127   2136   2145     1   107.9700462 569.024000
   2130   2142   4349     1   107.9700462 569.024000
   2133   2139   4320     1   107.9700462 569.024000
   2139   4320   4292     1   112.4800480 524.673600
   2142   4349   4321     1   112.4800480 524.673600
   2146   2147   2159     1   111.0400475 552.288000
   2146   2150   2162     1   111.0400475 552.288000
   2146   2153   2156     1   111.0400475 552.288000
   2147   2146   2150     1   112.3500484 533.878400
   2147   2146   2153     1   112.3500484 533.878400
   2147   2159   2171     1   111.5100476 526.347200
   2150   2146   2153     1   112.3500484 533.878400
   2150   2162   2168     1   111.5100476 526.347200
   2153   2156   2165     1   111.5100476 526.347200
   2156   2165   2174     1   107.9700462 569.024000
   2159   2171   4407     1   107.9700462 569.024000
   2162   2168   4378     1   107.9700462 569.024000
   2168   4378   4350     1   112.4800480 524.673600
   2171   4407   4379     1   112.4800480 524.673600
   2175   2176   2188     1   111.0400475 552.288000
   2175   2179   2191     1   111.0400475 552.288000
   2175   2182   2185     1   111.0400475 552.288000
   2176   2175   2179     1   112.3500484 533.878400
   2176   2175   2182     1   112.3500484 533.878400
   2176   2188   2200     1   111.5100476 526.347200
   2179   2175   2182     1   112.3500484 533.878400
   2179   2191   2197     1   111.5100476 526.347200
   2182   2185   2194     1   111.5100476 526.347200
   2185   2194   2203     1   107.9700462 569.024000
   2188   2200   4465     1   107.9700462 569.024000
   2191   2197   4436     1   107.9700462 569.024000
   2197   4436   4408     1   112.4800480 524.673600
   2200   4465   4437     1   112.4800480 524.673600
   2204   2205   2217     1   111.0400475 552.288000
   2204   2208   2220     1   111.0400475 552.288000
   2204   2211   2214     1   111.0400475 552.288000
   2205   2204   2208     1   112.3500484 533.878400
   2205   2204   2211     1   112.3500484 533.878400
   2205   2217   2229     1   111.5100476 526.347200
   2208   2204   2211     1   112.3500484 533.878400
   2208   2220   2226     1   111.5100476 526.347200
   2211   2214   2223     1   111.5100476 526.347200
   2214   2223   2232     1   107.9700462 569.024000
   2217   2229   4523     1   107.9700462 569.024000
   2220   2226   4494     1   107.9700462 569.024000
   2226   4494   4466     1   112.4800480 524.673600
   2229   4523   4495     1   112.4800480 524.673600
   2233   2234   2246     1   111.0400475 552.288000
   2233   2237   2249     1   111.0400475 552.288000
   2233   2240   2243     1   111.0400475 552.288000
   2234   2233   2237     1   112.3500484 533.878400
   2234   2233   2240     1   112.3500484 533.878400
   2234   2246   2258     1   111.5100476 526.347200
   2237   2233   2240     1   112.3500484 533.878400
   2237   2249   2255     1   111.5100476 526.347200
   2240   2243   2252     1   111.5100476 526.347200
   2243   2252   2261     1   107.9700462 569.024000
   2246   2258   4581     1   107.9700462 569.024000
   2249   2255   4552     1   107.9700462 569.024000
   2255   4552   4524     1   112.4800480 524.673600
   2258   4581   4553     1   112.4800480 524.673600
   2262   2263   2275     1   111.0400475 552.288000
   2262   2266   2278     1   111.0400475 552.288000
   2262   2269   2272     1   111.0400475 552.288000
   2263   2262   2266     1   112.3500484 533.878400
   2263   2262   2269     1   112.3500484 533.878400
   2263   2275   2287     1   111.5100476 526.347200
   2266   2262   2269     1   112.3500484 533.878400
   2266   2278   2284     1   111.5100476 526.347200
   2269   2272   2281     1   111.5100476 526.347200
   2272   2281   2290     1   107.9700462 569.024000
   2275   2287   4639     1   107.9700462 569.024000
   2278   2284   4610     1   107.9700462 569.024000
   2284   4610   4582     1   112.4800480 524.673600
   2287   4639   4611     1   112.4800480 524.673600
   2291   2292   2304     1   111.0400475 552.288000
   2291   2295   2307     1   111.0400475 552.288000
   2291   2298   2301     1   111.0400475 552.288000
   2292   2291   2295     1   112.3500484 533.878400
   2292   2291   2298     1   112.3500484 533.878400
   2292   2304   2316     1   111.5100476 526.347200
   2295   2291   2298     1   112.3500484 533.878400
   2295   2307   2313     1   111.5100476 526.347200
   2298   2301   2310     1   111.5100476 526.347200
   2301   2310   2319     1   107.9700462 569.024000
   2304   2316   4697     1   107.9700462 569.024000
   2307   2313   4668     1   107.9700462 569.024000
   2313   4668   4640     1   112.4800480 524.673600
   2316   4697   4669     1   112.4800480 524.673600
   2320   2321   2333     1   111.0400475 552.288000
   2320   2324   2336     1   111.0400475 552.288000
   2320   2327   2330     1   111.0400475 552.288000
   2321   2320   2324     1   112.3500484 533.878400
   2321   2320   2327     1   112.3500484 533.878400
   2321   2333   2345     1   111.5100476 526.347200
   2324   2320   2327     1   112.3500484 533.878400
   2324   2336   2342     1   111.5100476 526.347200
   2327   2330   2339     1   111.5100476 526.347200
   2330   2339   2348     1   107.9700462 569.024000
   2333   2345   4755     1   107.9700462 569.024000
   2336   2342   4726     1   107.9700462 569.024000
   2342   4726   4698     1   112.4800480 524.673600
   2345   4755   4727     1   112.4800480 524.673600
   2349   2350   2362     1   111.0400475 552.288000
   2349   2353   2365     1   111.0400475 552.288000
   2349   2356   2359     1   111.0400475 552.288000
   2350   2349   2353     1   112.3500484 533.878400
   2350   2349   2356     1   112.3500484 533.878400
   2350   2362   2374     1   111.5100476 526.347200
   2353   2349   2356     1   112.3500484 533.878400
   2353   2365   2371     1   111.5100476 526.347200
   2356   2359   2368     1   111.5100476 526.347200
   2359   2368   2377     1   107.9700462 569.024000
   2362   2374   4813     1   107.9700462 569.024000
   2365   2371   4784     1   107.9700462 569.024000
   2371   4784   4756     1   112.4800480 524.673600
   2374   4813   4785     1   112.4800480 524.673600
   2378   2379   2391     1   111.0400475 552.288000
   2378   2382   2394     1   111.0400475 552.288000
   2378   2385   2388     1   111.0400475 552.288000
   2379   2378   2382     1   112.3500484 533.878400
   2379   2378   2385     1   112.3500484 533.878400
   2379   2391   2403     1   111.5100476 526.347200
   2382   2378   2385     1   112.3500484 533.878400
   2382   2394   2400     1   111.5100476 526.347200
   2385   2388   2397     1   111.5100476 526.347200
   2388   2397   2406     1   107.9700462 569.024000
   2391   2403   4871     1   107.9700462 569.024000
   2394   2400   4842     1   107.9700462 569.024000
   2400   4842   4814     1   112.4800480 524.673600
   2403   4871   4843     1   112.4800480 524.673600
   2407   2408   2420     1   111.0400475 552.288000
   2407   2411   2423     1   111.0400475 552.288000
   2407   2414   2417     1   111.0400475 552.288000
   2408   2407   2411     1   112.3500484 533.878400
   2408   2407   2414     1   112.3500484 533.878400
   2408   2420   2432     1   111.5100476 526.347200
   2411   2407   2414     1   112.3500484 533.878400
   2411   2423   2429     1   111.5100476 526.347200
   2414   2417   2426     1   111.5100476 526.347200
   2417   2426   2435     1   107.9700462 569.024000
   2420   2432   4929     1   107.9700462 569.024000
   2423   2429   4900     1   107.9700462 569.024000
   2429   4900   4872     1   112.4800480 524.673600
   2432   4929   4901     1   112.4800480 524.673600
   2436   2437   2449     1   111.0400475 552.288000
   2436   2440   2452     1   111.0400475 552.288000
   2436   2443   2446     1   111.0400475 552.288000
   2437   2436   2440     1   112.3500484 533.878400
   2437   2436   2443     1   112.3500484 533.878400
   2437   2449   2461     1   111.5100476 526.347200
   2440   2436   2443     1   112.3500484 533.878400
   2440   2452   2458     1   111.5100476 526.347200
   2443   2446   2455     1   111.5100476 526.347200
   2446   2455   2464     1   107.9700462 569.024000
   2449   2461   4987     1   107.9700462 569.024000
   2452   2458   4958     1   107.9700462 569.024000
   2458   4958   4930     1   112.4800480 524.673600
   2461   4987   4959     1   112.4800480 524.673600
   2465   2466   2478     1   111.0400475 552.288000
   2465   2469   2481     1   111.0400475 552.288000
   2465   2472   2475     1   111.0400475 552.288000
   2466   2465   2469     1   112.3500484 533.878400
   2466   2465   2472     1   112.3500484 533.878400
   2466   2478   2490     1   111.5100476 526.347200
   2469   2465   2472     1   112.3500484 533.878400
   2469   2481   2487     1   111.5100476 526.347200
   2472   2475   2484     1   111.5100476 526.347200
   2475   2484   2493     1   107.9700462 569.024000
   2478   2490   5045     1   107.9700462 569.024000
   2481   2487   5016     1   107.9700462 569.024000
   2487   5016   4988     1   112.4800480 524.673600
   2490   5045   5017     1   112.4800480 524.673600
   2494   2495   2507     1   111.0400475 552.288000
   2494   2498   2510     1   111.0400475 552.288000
   2494   2501   2504     1   111.0400475 552.288000
   2495   2494   2498     1   112.3500484 533.878400
   2495   2494   2501     1   112.3500484 533.878400
   2495   2507   2519     1   111.5100476 526.347200
   2498   2494   2501     1   112.3500484 533.878400
   2498   2510   2516     1   111.5100476 526.347200
   2501   2504   2513     1   111.5100476 526.347200
   2504   2513   2522     1   107.9700462 569.024000
   2507   2519   5103     1   107.9700462 569.024000
   2510   2516   5074     1   107.9700462 569.024000
   2516   5074   5046     1   112.4800480 524.673600
   2519   5103   5075     1   112.4800480 524.673600
   2523   2524   2536     1   111.0400475 552.288000
   2523   2527   2539     1   111.0400475 552.288000
   2523   2530   2533     1   111.0400475 552.288000
   2524   2523   2527     1   112.3500484 533.878400
   2524   2523   2530     1   112.3500484 533.878400
   2524   2536   2548     1   111.5100476 526.347200
   2527   2523   2530     1   112.3500484 533.878400
   2527   2539   2545     1   111.5100476 526.347200
   2530   2533   2542     1   111.5100476 526.347200
   2533   2542   2551     1   107.9700462 569.024000
   2536   2548   5161     1   107.9700462 569.024000
   2539   2545   5132     1   107.9700462 569.024000
   2545   5132   5104     1   112.4800480 524.673600
   2548   5161   5133     1   112.4800480 524.673600
   2552   2553   2565     1   111.0400475 552.288000
   2552   2556   2568     1   111.0400475 552.288000
   2552   2559   2562     1   111.0400475 552.288000
   2553   2552   2556     1   112.3500484 533.878400
   2553   2552   2559     1   112.3500484 533.878400
   2553   2565   2577     1   111.5100476 526.347200
   2556   2552   2559     1   112.3500484 533.878400
   2556   2568   2574     1   111.5100476 526.347200
   2559   2562   2571     1   111.5100476 526.347200
   2562   2571   2580     1   107.9700462 569.024000
   2565   2577   5219     1   107.9700462 569.024000
   2568   2574   5190     1   107.9700462 569.024000
   2574   5190   5162     1   112.4800480 524.673600
   2577   5219   5191     1   112.4800480 524.673600
   2581   2582   2594     1   111.0400475 552.288000
   2581   2585   2597     1   111.0400475 552.288000
   2581   2588   2591     1   111.0400475 552.288000
   2582   2581   2585     1   112.3500484 533.878400
   2582   2581   2588     1   112.3500484 533.878400
   2582   2594   2606     1   111.5100476 526.347200
   2585   2581   2588     1   112.3500484 533.878400
   2585   2597   2603     1   111.5100476 526.347200
   2588   2591   2600     1   111.5100476 526.347200
   2591   2600   2609     1   107.9700462 569.024000
   2594   2606   5277     1   107.9700462 569.024000
   2597   2603   5248     1   107.9700462 569.024000
   2603   5248   5220     1   112.4800480 524.673600
   2606   5277   5249     1   112.4800480 524.673600
   2610   2611   2623     1   111.0400475 552.288000
   2610   2614   2626     1   111.0400475 552.288000
   2610   2617   2620     1   111.0400475 552.288000
   2611   2610   2614     1   112.3500484 533.878400
   2611   2610   2617     1   112.3500484 533.878400
   2611   2623   2635     1   111.5100476 526.347200
   2614   2610   2617     1   112.3500484 533.878400
   2614   2626   2632     1   111.5100476 526.347200
   2617   2620   2629     1   111.5100476 526.347200
   2620   2629   2638     1   107.9700462 569.024000
   2623   2635   5335     1   107.9700462 569.024000
   2626   2632   5306     1   107.9700462 569.024000
   2632   5306   5278     1   112.4800480 524.673600
   2635   5335   5307     1   112.4800480 524.673600
   2639   2640   2652     1   111.0400475 552.288000
   2639   2643   2655     1   111.0400475 552.288000
   2639   2646   2649     1   111.0400475 552.288000
   2640   2639   2643     1   112.3500484 533.878400
   2640   2639   2646     1   112.3500484 533.878400
   2640   2652   2664     1   111.5100476 526.347200
   2643   2639   2646     1   112.3500484 533.878400
   2643   2655   2661     1   111.5100476 526.347200
   2646   2649   2658     1   111.5100476 526.347200
   2649   2658   2667     1   107.9700462 569.024000
   2652   2664   5393     1   107.9700462 569.024000
   2655   2661   5364     1   107.9700462 569.024000
   2661   5364   5336     1   112.4800480 524.673600
   2664   5393   5365     1   112.4800480 524.673600
   2668   2669   2681     1   111.0400475 552.288000
   2668   2672   2684     1   111.0400475 552.288000
   2668   2675   2678     1   111.0400475 552.288000
   2669   2668   2672     1   112.3500484 533.878400
   2669   2668   2675     1   112.3500484 533.878400
   2669   2681   2693     1   111.5100476 526.347200
   2672   2668   2675     1   112.3500484 533.878400
   2672   2684   2690     1   111.5100476 526.347200
   2675   2678   2687     1   111.5100476 526.347200
   2678   2687   2696     1   107.9700462 569.024000
   2681   2693   5451     1   107.9700462 569.024000
   2684   2690   5422     1   107.9700462 569.024000
   2690   5422   5394     1   112.4800480 524.673600
   2693   5451   5423     1   112.4800480 524.673600
   2697   2698   2710     1   111.0400475 552.288000
   2697   2701   2713     1   111.0400475 552.288000
   2697   2704   2707     1   111.0400475 552.288000
   2698   2697   2701     1   112.3500484 533.878400
   2698   2697   2704     1   112.3500484 533.878400
   2698   2710   2722     1   111.5100476 526.347200
   2701   2697   2704     1   112.3500484 533.878400
   2701   2713   2719     1   111.5100476 526.347200
   2704   2707   2716     1   111.5100476 526.347200
   2707   2716   2725     1   107.9700462 569.024000
   2710   2722   5509     1   107.9700462 569.024000
   2713   2719   5480     1   107.9700462 569.024000
   2719   5480   5452     1   112.4800480 524.673600
   2722   5509   5481     1   112.4800480 524.673600
   2726   2727   2739     1   111.0400475 552.288000
   2726   2730   2742     1   111.0400475 552.288000
   2726   2733   2736     1   111.0400475 552.288000
   2727   2726   2730     1   112.3500484 533.878400
   2727   2726   2733     1   112.3500484 533.878400
   2727   2739   2751     1   111.5100476 526.347200
   2730   2726   2733     1   112.3500484 533.878400
   2730   2742   2748     1   111.5100476 526.347200
   2733   2736   2745     1   111.5100476 526.347200
   2736   2745   2754     1   107.9700462 569.024000
   2739   2751   5567     1   107.9700462 569.024000
   2742   2748   5538     1   107.9700462 569.024000
   2748   5538   5510     1   112.4800480 524.673600
   2751   5567   5539     1   112.4800480 524.673600
   2755   2756   2768     1   111.0400475 552.288000
   2755   2759   2771     1   111.0400475 552.288000
   2755   2762   2765     1   111.0400475 552.288000
   2756   2755   2759     1   112.3500484 533.878400
   2756   2755   2762     1   112.3500484 533.878400
   2756   2768   2780     1   111.5100476 526.347200
   2759   2755   2762     1   112.3500484 533.878400
   2759   2771   2777     1   111.5100476 526.347200
   2762   2765   2774     1   111.5100476 526.347200
   2765   2774   2783     1   107.9700462 569.024000
   2768   2780   5625     1   107.9700462 569.024000
   2771   2777   5596     1   107.9700462 569.024000
   2777   5596   5568     1   112.4800480 524.673600
   2780   5625   5597     1   112.4800480 524.673600
   2784   2785   2797     1   111.0400475 552.288000
   2784   2788   2800     1   111.0400475 552.288000
   2784   2791   2794     1   111.0400475 552.288000
   2785   2784   2788     1   112.3500484 533.878400
   2785   2784   2791     1   112.3500484 533.878400
   2785   2797   2809     1   111.5100476 526.347200
   2788   2784   2791     1   112.3500484 533.878400
   2788   2800   2806     1   111.5100476 526.347200
   2791   2794   2803     1   111.5100476 526.347200
   2794   2803   2812     1   107.9700462 569.024000
   2797   2809   5683     1   107.9700462 569.024000
   2800   2806   5654     1   107.9700462 569.024000
   2806   5654   5626     1   112.4800480 524.673600
   2809   5683   5655     1   112.4800480 524.673600
   2813   2814   2826     1   111.0400475 552.288000
   2813   2817   2829     1   111.0400475 552.288000
   2813   2820   2823     1   111.0400475 552.288000
   2814   2813   2817     1   112.3500484 533.878400
   2814   2813   2820     1   112.3500484 533.878400
   2814   2826   2838     1   111.5100476 526.347200
   2817   2813   2820     1   112.3500484 533.878400
   2817   2829   2835     1   111.5100476 526.347200
   2820   2823   2832     1   111.5100476 526.347200
   2823   2832   2841     1   107.9700462 569.024000
   2826   2838   5741     1   107.9700462 569.024000
   2829   2835   5712     1   107.9700462 569.024000
   2835   5712   5684     1   112.4800480 524.673600
   2838   5741   5713     1   112.4800480 524.673600
   2842   2843   2855     1   111.0400475 552.288000
   2842   2846   2858     1   111.0400475 552.288000
   2842   2849   2852     1   111.0400475 552.288000
   2843   2842   2846     1   112.3500484 533.878400
   2843   2842   2849     1   112.3500484 533.878400
   2843   2855   2867     1   111.5100476 526.347200
   2846   2842   2849     1   112.3500484 533.878400
   2846   2858   2864     1   111.5100476 526.347200
   2849   2852   2861     1   111.5100476 526.347200
   2852   2861   2870     1   107.9700462 569.024000
   2855   2867   5799     1   107.9700462 569.024000
   2858   2864   5770     1   107.9700462 569.024000
   2864   5770   5742     1   112.4800480 524.673600
   2867   5799   5771     1   112.4800480 524.673600
   2871   2872   2884     1   111.0400475 552.288000
   2871   2875   2887     1   111.0400475 552.288000
   2871   2878   2881     1   111.0400475 552.288000
   2872   2871   2875     1   112.3500484 533.878400
   2872   2871   2878     1   112.3500484 533.878400
   2872   2884   2896     1   111.5100476 526.347200
   2875   2871   2878     1   112.3500484 533.878400
   2875   2887   2893     1   111.5100476 526.347200
   2878   2881   2890     1   111.5100476 526.347200
   2881   2890   2899     1   107.9700462 569.024000
   2884   2896   5857     1   107.9700462 569.024000
   2887   2893   5828     1   107.9700462 569.024000
   2893   5828   5800     1   112.4800480 524.673600
   2896   5857   5829     1   112.4800480 524.673600
   2900   2901   2913     1   111.0400475 552.288000
   2900   2904   2916     1   111.0400475 552.288000
   2900   2907   2910     1   111.0400475 552.288000
   2901   2900   2904     1   112.3500484 533.878400
   2901   2900   2907     1   112.3500484 533.878400
   2901   2913   2925     1   111.5100476 526.347200
   2904   2900   2907     1   112.3500484 533.878400
   2904   2916   2922     1   111.5100476 526.347200
   2907   2910   2919     1   111.5100476 526.347200
   2910   2919   2928     1   107.9700462 569.024000
   2913   2925   5915     1   107.9700462 569.024000
   2916   2922   5886     1   107.9700462 569.024000
   2922   5886   5858     1   112.4800480 524.673600
   2925   5915   5887     1   112.4800480 524.673600
   2929   2930   2942     1   111.0400475 552.288000
   2929   2933   2945     1   111.0400475 552.288000
   2929   2936   2939     1   111.0400475 552.288000
   2930   2929   2933     1   112.3500484 533.878400
   2930   2929   2936     1   112.3500484 533.878400
   2930   2942   2954     1   111.5100476 526.347200
   2933   2929   2936     1   112.3500484 533.878400
   2933   2945   2951     1   111.5100476 526.347200
   2936   2939   2948     1   111.5100476 526.347200
   2939   2948   2957     1   107.9700462 569.024000
   2942   2954   5973     1   107.9700462 569.024000
   2945   2951   5944     1   107.9700462 569.024000
   2951   5944   5916     1   112.4800480 524.673600
   2954   5973   5945     1   112.4800480 524.673600
   2958   2959   2971     1   111.0400475 552.288000
   2958   2962   2974     1   111.0400475 552.288000
   2958   2965   2968     1   111.0400475 552.288000
   2959   2958   2962     1   112.3500484 533.878400
   2959   2958   2965     1   112.3500484 533.878400
   2959   2971   2983     1   111.5100476 526.347200
   2962   2958   2965     1   112.3500484 533.878400
   2962   2974   2980     1   111.5100476 526.347200
   2965   2968   2977     1   111.5100476 526.347200
   2968   2977   2986     1   107.9700462 569.024000
   2971   2983   6031     1   107.9700462 569.024000
   2974   2980   6002     1   107.9700462 569.024000
   2980   6002   5974     1   112.4800480 524.673600
   2983   6031   6003     1   112.4800480 524.673600
   2987   2988   3000     1   111.0400475 552.288000
   2987   2991   3003     1   111.0400475 552.288000
   2987   2994   2997     1   111.0400475 552.288000
   2988   2987   2991     1   112.3500484 533.878400
   2988   2987   2994     1   112.3500484 533.878400
   2988   3000   3012     1   111.5100476 526.347200
   2991   2987   2994     1   112.3500484 533.878400
   2991   3003   3009     1   111.5100476 526.347200
   2994   2997   3006     1   111.5100476 526.347200
   2997   3006   3015     1   107.9700462 569.024000
   3000   3012   6089     1   107.9700462 569.024000
   3003   3009   6060     1   107.9700462 569.024000
   3009   6060   6032     1   112.4800480 524.673600
   3012   6089   6061     1   112.4800480 524.673600
   3016   3017   3029     1   111.0400475 552.288000
   3016   3020   3032     1   111.0400475 552.288000
   3016   3023   3026     1   111.0400475 552.288000
   3017   3016   3020     1   112.3500484 533.878400
   3017   3016   3023     1   112.3500484 533.878400
   3017   3029   3041     1   111.5100476 526.347200
   3020   3016   3023     1   112.3500484 533.878400
   3020   3032   3038     1   111.5100476 526.347200
   3023   3026   3035     1   111.5100476 526.347200
   3026   3035   3044     1   107.9700462 569.024000
   3029   3041   6147     1   107.9700462 569.024000
   3032   3038   6118     1   107.9700462 569.024000
   3038   6118   6090     1   112.4800480 524.673600
   3041   6147   6119     1   112.4800480 524.673600
   3045   3046   3058     1   111.0400475 552.288000
   3045   3049   3061     1   111.0400475 552.288000
   3045   3052   3055     1   111.0400475 552.288000
   3046   3045   3049     1   112.3500484 533.878400
   3046   3045   3052     1   112.3500484 533.878400
   3046   3058   3070     1   111.5100476 526.347200
   3049   3045   3052     1   112.3500484 533.878400
   3049   3061   3067     1   111.5100476 526.347200
   3052   3055   3064     1   111.5100476 526.347200
   3055   3064   3073     1   107.9700462 569.024000
   3058   3070   6205     1   107.9700462 569.024000
   3061   3067   6176     1   107.9700462 569.024000
   3067   6176   6148     1   112.4800480 524.673600
   3070   6205   6177     1   112.4800480 524.673600
   3074   3075   3087     1   111.0400475 552.288000
   3074   3078   3090     1   111.0400475 552.288000
   3074   3081   3084     1   111.0400475 552.288000
   3075   3074   3078     1   112.3500484 533.878400
   3075   3074   3081     1   112.3500484 533.878400
   3075   3087   3099     1   111.5100476 526.347200
   3078   3074   3081     1   112.3500484 533.878400
   3078   3090   3096     1   111.5100476 526.347200
   3081   3084   3093     1   111.5100476 526.347200
   3084   3093   3102     1   107.9700462 569.024000
   3087   3099   6263     1   107.9700462 569.024000
   3090   3096   6234     1   107.9700462 569.024000
   3096   6234   6206     1   112.4800480 524.673600
   3099   6263   6235     1   112.4800480 524.673600
   3103   3104   3116     1   111.0400475 552.288000
   3103   3107   3119     1   111.0400475 552.288000
   3103   3110   3113     1   111.0400475 552.288000
   3104   3103   3107     1   112.3500484 533.878400
   3104   3103   3110     1   112.3500484 533.878400
   3104   3116   3128     1   111.5100476 526.347200
   3107   3103   3110     1   112.3500484 533.878400
   3107   3119   3125     1   111.5100476 526.347200
   3110   3113   3122     1   111.5100476 526.347200
   3113   3122   3131     1   107.9700462 569.024000
   3116   3128   6321     1   107.9700462 569.024000
   3119   3125   6292     1   107.9700462 569.024000
   3125   6292   6264     1   112.4800480 524.673600
   3128   6321   6293     1   112.4800480 524.673600
   3132   3133   3145     1   111.0400475 552.288000
   3132   3136   3148     1   111.0400475 552.288000
   3132   3139   3142     1   111.0400475 552.288000
   3133   3132   3136     1   112.3500484 533.878400
   3133   3132   3139     1   112.3500484 533.878400
   3133   3145   3157     1   111.5100476 526.347200
   3136   3132   3139     1   112.3500484 533.878400
   3136   3148   3154     1   111.5100476 526.347200
   3139   3142   3151     1   111.5100476 526.347200
   3142   3151   3160     1   107.9700462 569.024000
   3145   3157   6379     1   107.9700462 569.024000
   3148   3154   6350     1   107.9700462 569.024000
   3154   6350   6322     1   112.4800480 524.673600
   3157   6379   6351     1   112.4800480 524.673600
   3161   3162   3174     1   111.0400475 552.288000
   3161   3165   3177     1   111.0400475 552.288000
   3161   3168   3171     1   111.0400475 552.288000
   3162   3161   3165     1   112.3500484 533.878400
   3162   3161   3168     1   112.3500484 533.878400
   3162   3174   3186     1   111.5100476 526.347200
   3165   3161   3168     1   112.3500484 533.878400
   3165   3177   3183     1   111.5100476 526.347200
   3168   3171   3180     1   111.5100476 526.347200
   3171   3180   3189     1   107.9700462 569.024000
   3174   3186   6437     1   107.9700462 569.024000
   3177   3183   6408     1   107.9700462 569.024000
   3183   6408   6380     1   112.4800480 524.673600
   3186   6437   6409     1   112.4800480 524.673600
   3190   3191   3203     1   111.0400475 552.288000
   3190   3194   3206     1   111.0400475 552.288000
   3190   3197   3200     1   111.0400475 552.288000
   3191   3190   3194     1   112.3500484 533.878400
   3191   3190   3197     1   112.3500484 533.878400
   3191   3203   3215     1   111.5100476 526.347200
   3194   3190   3197     1   112.3500484 533.878400
   3194   3206   3212     1   111.5100476 526.347200
   3197   3200   3209     1   111.5100476 526.347200
   3200   3209   3218     1   107.9700462 569.024000
   3203   3215   6495     1   107.9700462 569.024000
   3206   3212   6466     1   107.9700462 569.024000
   3212   6466   6438     1   112.4800480 524.673600
   3215   6495   6467     1   112.4800480 524.673600
   3219   3220   3232     1   111.0400475 552.288000
   3219   3223   3235     1   111.0400475 552.288000
   3219   3226   3229     1   111.0400475 552.288000
   3220   3219   3223     1   112.3500484 533.878400
   3220   3219   3226     1   112.3500484 533.878400
   3220   3232   3244     1   111.5100476 526.347200
   3223   3219   3226     1   112.3500484 533.878400
   3223   3235   3241     1   111.5100476 526.347200
   3226   3229   3238     1   111.5100476 526.347200
   3229   3238   3247     1   107.9700462 569.024000
   3232   3244   6553     1   107.9700462 569.024000
   3235   3241   6524     1   107.9700462 569.024000
   3241   6524   6496     1   112.4800480 524.673600
   3244   6553   6525     1   112.4800480 524.673600
   3248   3249   3261     1   111.0400475 552.288000
   3248   3252   3264     1   111.0400475 552.288000
   3248   3255   3258     1   111.0400475 552.288000
   3249   3248   3252     1   112.3500484 533.878400
   3249   3248   3255     1   112.3500484 533.878400
   3249   3261   3273     1   111.5100476 526.347200
   3252   3248   3255     1   112.3500484 533.878400
   3252   3264   3270     1   111.5100476 526.347200
   3255   3258   3267     1   111.5100476 526.347200
   3258   3267   3276     1   107.9700462 569.024000
   3261   3273   6611     1   107.9700462 569.024000
   3264   3270   6582     1   107.9700462 569.024000
   3270   6582   6554     1   112.4800480 524.673600
   3273   6611   6583     1   112.4800480 524.673600
   3277   3278   3290     1   111.0400475 552.288000
   3277   3281   3293     1   111.0400475 552.288000
   3277   3284   3287     1   111.0400475 552.288000
   3278   3277   3281     1   112.3500484 533.878400
   3278   3277   3284     1   112.3500484 533.878400
   3278   3290   3302     1   111.5100476 526.347200
   3281   3277   3284     1   112.3500484 533.878400
   3281   3293   3299     1   111.5100476 526.347200
   3284   3287   3296     1   111.5100476 526.347200
   3287   3296   3305     1   107.9700462 569.024000
   3290   3302   6669     1   107.9700462 569.024000
   3293   3299   6640     1   107.9700462 569.024000
   3299   6640   6612     1   112.4800480 524.673600
   3302   6669   6641     1   112.4800480 524.673600
   3306   3307   3319     1   111.0400475 552.288000
   3306   3310   3322     1   111.0400475 552.288000
   3306   3313   3316     1   111.0400475 552.288000
   3307   3306   3310     1   112.3500484 533.878400
   3307   3306   3313     1   112.3500484 533.878400
   3307   3319   3331     1   111.5100476 526.347200
   3310   3306   3313     1   112.3500484 533.878400
   3310   3322   3328     1   111.5100476 526.347200
   3313   3316   3325     1   111.5100476 526.347200
   3316   3325   3334     1   107.9700462 569.024000
   3319   3331   6727     1   107.9700462 569.024000
   3322   3328   6698     1   107.9700462 569.024000
   3328   6698   6670     1   112.4800480 524.673600
   3331   6727   6699     1   112.4800480 524.673600
   3335   3336   3348     1   111.0400475 552.288000
   3335   3339   3351     1   111.0400475 552.288000
   3335   3342   3345     1   111.0400475 552.288000
   3336   3335   3339     1   112.3500484 533.878400
   3336   3335   3342     1   112.3500484 533.878400
   3336   3348   3360     1   111.5100476 526.347200
   3339   3335   3342     1   112.3500484 533.878400
   3339   3351   3357     1   111.5100476 526.347200
   3342   3345   3354     1   111.5100476 526.347200
   3345   3354   3363     1   107.9700462 569.024000
   3348   3360   6785     1   107.9700462 569.024000
   3351   3357   6756     1   107.9700462 569.024000
   3357   6756   6728     1   112.4800480 524.673600
   3360   6785   6757     1   112.4800480 524.673600
   3364   3365   3377     1   111.0400475 552.288000
   3364   3368   3380     1   111.0400475 552.288000
   3364   3371   3374     1   111.0400475 552.288000
   3365   3364   3368     1   112.3500484 533.878400
   3365   3364   3371     1   112.3500484 533.878400
   3365   3377   3389     1   111.5100476 526.347200
   3368   3364   3371     1   112.3500484 533.878400
   3368   3380   3386     1   111.5100476 526.347200
   3371   3374   3383     1   111.5100476 526.347200
   3374   3383   3392     1   107.9700462 569.024000
   3377   3389   6843     1   107.9700462 569.024000
   3380   3386   6814     1   107.9700462 569.024000
   3386   6814   6786     1   112.4800480 524.673600
   3389   6843   6815     1   112.4800480 524.673600
   3393   3394   3406     1   111.0400475 552.288000
   3393   3397   3409     1   111.0400475 552.288000
   3393   3400   3403     1   111.0400475 552.288000
   3394   3393   3397     1   112.3500484 533.878400
   3394   3393   3400     1   112.3500484 533.878400
   3394   3406   3418     1   111.5100476 526.347200
   3397   3393   3400     1   112.3500484 533.878400
   3397   3409   3415     1   111.5100476 526.347200
   3400   3403   3412     1   111.5100476 526.347200
   3403   3412   3421     1   107.9700462 569.024000
   3406   3418   6901     1   107.9700462 569.024000
   3409   3415   6872     1   107.9700462 569.024000
   3415   6872   6844     1   112.4800480 524.673600
   3418   6901   6873     1   112.4800480 524.673600
   3422   3423   3435     1   111.0400475 552.288000
   3422   3426   3438     1   111.0400475 552.288000
   3422   3429   3432     1   111.0400475 552.288000
   3423   3422   3426     1   112.3500484 533.878400
   3423   3422   3429     1   112.3500484 533.878400
   3423   3435   3447     1   111.5100476 526.347200
   3426   3422   3429     1   112.3500484 533.878400
   3426   3438   3444     1   111.5100476 526.347200
   3429   3432   3441     1   111.5100476 526.347200
   3432   3441   3450     1   107.9700462 569.024000
   3435   3447   6959     1   107.9700462 569.024000
   3438   3444   6930     1   107.9700462 569.024000
   3444   6930   6902     1   112.4800480 524.673600
   3447   6959   6931     1   112.4800480 524.673600
   3451   3452   3464     1   111.0400475 552.288000
   3451   3455   3467     1   111.0400475 552.288000
   3451   3458   3461     1   111.0400475 552.288000
   3452   3451   3455     1   112.3500484 533.878400
   3452   3451   3458     1   112.3500484 533.878400
   3452   3464   3476     1   111.5100476 526.347200
   3455   3451   3458     1   112.3500484 533.878400
   3455   3467   3473     1   111.5100476 526.347200
   3458   3461   3470     1   111.5100476 526.347200
   3461   3470   3479     1   107.9700462 569.024000
   3464   3476   7017     1   107.9700462 569.024000
   3467   3473   6988     1   107.9700462 569.024000
   3473   6988   6960     1   112.4800480 524.673600
   3476   7017   6989     1   112.4800480 524.673600
   3480   3481   3493     1   111.0400475 552.288000
   3480   3484   3496     1   111.0400475 552.288000
   3480   3487   3490     1   111.0400475 552.288000
   3481   3480   3484     1   112.3500484 533.878400
   3481   3480   3487     1   112.3500484 533.878400
   3481   3493   3505     1   111.5100476 526.347200
   3484   3480   3487     1   112.3500484 533.878400
   3484   3496   3502     1   111.5100476 526.347200
   3487   3490   3499     1   111.5100476 526.347200
   3490   3499   3508     1   107.9700462 569.024000
   3493   3505   7075     1   107.9700462 569.024000
   3496   3502   7046     1   107.9700462 569.024000
   3502   7046   7018     1   112.4800480 524.673600
   3505   7075   7047     1   112.4800480 524.673600
   3509   3510   3522     1   111.0400475 552.288000
   3509   3513   3525     1   111.0400475 552.288000
   3509   3516   3519     1   111.0400475 552.288000
   3510   3509   3513     1   112.3500484 533.878400
   3510   3509   3516     1   112.3500484 533.878400
   3510   3522   3534     1   111.5100476 526.347200
   3513   3509   3516     1   112.3500484 533.878400
   3513   3525   3531     1   111.5100476 526.347200
   3516   3519   3528     1   111.5100476 526.347200
   3519   3528   3537     1   107.9700462 569.024000
   3522   3534   7133     1   107.9700462 569.024000
   3525   3531   7104     1   107.9700462 569.024000
   3531   7104   7076     1   112.4800480 524.673600
   3534   7133   7105     1   112.4800480 524.673600
   3538   3539   3551     1   111.0400475 552.288000
   3538   3542   3554     1   111.0400475 552.288000
   3538   3545   3548     1   111.0400475 552.288000
   3539   3538   3542     1   112.3500484 533.878400
   3539   3538   3545     1   112.3500484 533.878400
   3539   3551   3563     1   111.5100476 526.347200
   3542   3538   3545     1   112.3500484 533.878400
   3542   3554   3560     1   111.5100476 526.347200
   3545   3548   3557     1   111.5100476 526.347200
   3548   3557   3566     1   107.9700462 569.024000
   3551   3563   7191     1   107.9700462 569.024000
   3554   3560   7162     1   107.9700462 569.024000
   3560   7162   7134     1   112.4800480 524.673600
   3563   7191   7163     1   112.4800480 524.673600
   3567   3568   3580     1   111.0400475 552.288000
   3567   3571   3583     1   111.0400475 552.288000
   3567   3574   3577     1   111.0400475 552.288000
   3568   3567   3571     1   112.3500484 533.878400
   3568   3567   3574     1   112.3500484 533.878400
   3568   3580   3592     1   111.5100476 526.347200
   3571   3567   3574     1   112.3500484 533.878400
   3571   3583   3589     1   111.5100476 526.347200
   3574   3577   3586     1   111.5100476 526.347200
   3577   3586   3595     1   107.9700462 569.024000
   3580   3592   7249     1   107.9700462 569.024000
   3583   3589   7220     1   107.9700462 569.024000
   3589   7220   7192     1   112.4800480 524.673600
   3592   7249   7221     1   112.4800480 524.673600
   3596   3597   3609     1   111.0400475 552.288000
   3596   3600   3612     1   111.0400475 552.288000
   3596   3603   3606     1   111.0400475 552.288000
   3597   3596   3600     1   112.3500484 533.878400
   3597   3596   3603     1   112.3500484 533.878400
   3597   3609   3621     1   111.5100476 526.347200
   3600   3596   3603     1   112.3500484 533.878400
   3600   3612   3618     1   111.5100476 526.347200
   3603   3606   3615     1   111.5100476 526.347200
   3606   3615   3624     1   107.9700462 569.024000
   3609   3621   7307     1   107.9700462 569.024000
   3612   3618   7278     1   107.9700462 569.024000
   3618   7278   7250     1   112.4800480 524.673600
   3621   7307   7279     1   112.4800480 524.673600
   3625   3626   3638     1   111.0400475 552.288000
   3625   3629   3641     1   111.0400475 552.288000
   3625   3632   3635     1   111.0400475 552.288000
   3626   3625   3629     1   112.3500484 533.878400
   3626   3625   3632     1   112.3500484 533.878400
   3626   3638   3650     1   111.5100476 526.347200
   3629   3625   3632     1   112.3500484 533.878400
   3629   3641   3647     1   111.5100476 526.347200
   3632   3635   3644     1   111.5100476 526.347200
   3635   3644   3653     1   107.9700462 569.024000
   3638   3650   7365     1   107.9700462 569.024000
   3641   3647   7336     1   107.9700462 569.024000
   3647   7336   7308     1   112.4800480 524.673600
   3650   7365   7337     1   112.4800480 524.673600
   3654   3657   3660     1   111.5100476 526.347200
   3657   3654   3682     1   107.9700462 569.024000
   3657   3660   3663     1   111.0400475 552.288000
   3660   3663   3664     1   112.3500484 533.878400
   3660   3663   3673     1   112.3500484 533.878400
   3663   3664   3667     1   111.0400475 552.288000
   3663   3673   3676     1   111.0400475 552.288000
   3664   3663   3673     1   112.3500484 533.878400
   3664   3667   3670     1   111.0400475 529.694400
   3667   3670   3671     1   123.2000528 564.003200
   3667   3670   3672     1   123.2000528 564.003200
   3671   3670   3672     1   130.2500561 651.867200
   3673   3676   3679     1   111.0400475 529.694400
   3676   3679   3680     1   123.2000528 564.003200
   3676   3679   3681     1   123.2000528 564.003200
   3680   3679   3681     1   130.2500561 651.867200
   3683   3686   3689     1   111.5100476 526.347200
   3686   3689   3692     1   111.0400475 552.288000
   3686   3683   3711     1   107.9700462 569.024000
   3689   3692   3693     1   112.3500484 533.878400
   3689   3692   3702     1   112.3500484 533.878400
   3692   3693   3696     1   111.0400475 552.288000
   3692   3702   3705     1   111.0400475 552.288000
   3693   3696   3699     1   111.0400475 529.694400
   3693   3692   3702     1   112.3500484 533.878400
   3696   3699   3700     1   123.2000528 564.003200
   3696   3699   3701     1   123.2000528 564.003200
   3700   3699   3701     1   130.2500561 651.867200
   3702   3705   3708     1   111.0400475 529.694400
   3705   3708   3709     1   123.2000528 564.003200
   3705   3708   3710     1   123.2000528 564.003200
   3709   3708   3710     1   130.2500561 651.867200
   3712   3715   3718     1   111.5100476 526.347200
   3715   3712   3740     1   107.9700462 569.024000
   3715   3718   3721     1   111.0400475 552.288000
   3718   3721   3722     1   112.3500484 533.878400
   3718   3721   3731     1   112.3500484 533.878400
   3721   3722   3725     1   111.0400475 552.288000
   3721   3731   3734     1   111.0400475 552.288000
   3722   3721   3731     1   112.3500484 533.878400
   3722   3725   3728     1   111.0400475 529.694400
   3725   3728   3729     1   123.2000528 564.003200
   3725   3728   3730     1   123.2000528 564.003200
   3729   3728   3730     1   130.2500561 651.867200
   3731   3734   3737     1   111.0400475 529.694400
   3734   3737   3738     1   123.2000528 564.003200
   3734   3737   3739     1   123.2000528 564.003200
   3738   3737   3739     1   130.2500561 651.867200
   3741   3744   3747     1   111.5100476 526.347200
   3744   3747   3750     1   111.0400475 552.288000
   3744   3741   3769     1   107.9700462 569.024000
   3747   3750   3751     1   112.3500484 533.878400
   3747   3750   3760     1   112.3500484 533.878400
   3750   3751   3754     1   111.0400475 552.288000
   3750   3760   3763     1   111.0400475 552.288000
   3751   3754   3757     1   111.0400475 529.694400
   3751   3750   3760     1   112.3500484 533.878400
   3754   3757   3758     1   123.2000528 564.003200
   3754   3757   3759     1   123.2000528 564.003200
   3758   3757   3759     1   130.2500561 651.867200
   3760   3763   3766     1   111.0400475 529.694400
   3763   3766   3767     1   123.2000528 564.003200
   3763   3766   3768     1   123.2000528 564.003200
   3767   3766   3768     1   130.2500561 651.867200
   3770   3773   3776     1   111.5100476 526.347200
   3773   3770   3798     1   107.9700462 569.024000
   3773   3776   3779     1   111.0400475 552.288000
   3776   3779   3780     1   112.3500484 533.878400
   3776   3779   3789     1   112.3500484 533.878400
   3779   3780   3783     1   111.0400475 552.288000
   3779   3789   3792     1   111.0400475 552.288000
   3780   3779   3789     1   112.3500484 533.878400
   3780   3783   3786     1   111.0400475 529.694400
   3783   3786   3787     1   123.2000528 564.003200
   3783   3786   3788     1   123.2000528 564.003200
   3787   3786   3788     1   130.2500561 651.867200
   3789   3792   3795     1   111.0400475 529.694400
   3792   3795   3796     1   123.2000528 564.003200
   3792   3795   3797     1   123.2000528 564.003200
   3796   3795   3797     1   130.2500561 651.867200
   3799   3802   3805     1   111.5100476 526.347200
   3802   3805   3808     1   111.0400475 552.288000
   3802   3799   3827     1   107.9700462 569.024000
   3805   3808   3809     1   112.3500484 533.878400
   3805   3808   3818     1   112.3500484 533.878400
   3808   3809   3812     1   111.0400475 552.288000
   3808   3818   3821     1   111.0400475 552.288000
   3809   3812   3815     1   111.0400475 529.694400
   3809   3808   3818     1   112.3500484 533.878400
   3812   3815   3816     1   123.2000528 564.003200
   3812   3815   3817     1   123.2000528 564.003200
   3816   3815   3817     1   130.2500561 651.867200
   3818   3821   3824     1   111.0400475 529.694400
   3821   3824   3825     1   123.2000528 564.003200
   3821   3824   3826     1   123.2000528 564.003200
   3825   3824   3826     1   130.2500561 651.867200
   3828   3831   3834     1   111.5100476 526.347200
   3831   3828   3856     1   107.9700462 569.024000
   3831   3834   3837     1   111.0400475 552.288000
   3834   3837   3838     1   112.3500484 533.878400
   3834   3837   3847     1   112.3500484 533.878400
   3837   3838   3841     1   111.0400475 552.288000
   3837   3847   3850     1   111.0400475 552.288000
   3838   3837   3847     1   112.3500484 533.878400
   3838   3841   3844     1   111.0400475 529.694400
   3841   3844   3845     1   123.2000528 564.003200
   3841   3844   3846     1   123.2000528 564.003200
   3845   3844   3846     1   130.2500561 651.867200
   3847   3850   3853     1   111.0400475 529.694400
   3850   3853   3854     1   123.2000528 564.003200
   3850   3853   3855     1   123.2000528 564.003200
   3854   3853   3855     1   130.2500561 651.867200
   3857   3860   3863     1   111.5100476 526.347200
   3860   3863   3866     1   111.0400475 552.288000
   3860   3857   3885     1   107.9700462 569.024000
   3863   3866   3867     1   112.3500484 533.878400
   3863   3866   3876     1   112.3500484 533.878400
   3866   3867   3870     1   111.0400475 552.288000
   3866   3876   3879     1   111.0400475 552.288000
   3867   3870   3873     1   111.0400475 529.694400
   3867   3866   3876     1   112.3500484 533.878400
   3870   3873   3874     1   123.2000528 564.003200
   3870   3873   3875     1   123.2000528 564.003200
   3874   3873   3875     1   130.2500561 651.867200
   3876   3879   3882     1   111.0400475 529.694400
   3879   3882   3883     1   123.2000528 564.003200
   3879   3882   3884     1   123.2000528 564.003200
   3883   3882   3884     1   130.2500561 651.867200
   3886   3889   3892     1   111.5100476 526.347200
   3889   3886   3914     1   107.9700462 569.024000
   3889   3892   3895     1   111.0400475 552.288000
   3892   3895   3896     1   112.3500484 533.878400
   3892   3895   3905     1   112.3500484 533.878400
   3895   3896   3899     1   111.0400475 552.288000
   3895   3905   3908     1   111.0400475 552.288000
   3896   3895   3905     1   112.3500484 533.878400
   3896   3899   3902     1   111.0400475 529.694400
   3899   3902   3903     1   123.2000528 564.003200
   3899   3902   3904     1   123.2000528 564.003200
   3903   3902   3904     1   130.2500561 651.867200
   3905   3908   3911     1   111.0400475 529.694400
   3908   3911   3912     1   123.2000528 564.003200
   3908   3911   3913     1   123.2000528 564.003200
   3912   3911   3913     1   130.2500561 651.867200
   3915   3918   3921     1   111.5100476 526.347200
   3918   3921   3924     1   111.0400475 552.288000
   3918   3915   3943     1   107.9700462 569.024000
   3921   3924   3925     1   112.3500484 533.878400
   3921   3924   3934     1   112.3500484 533.878400
   3924   3925   3928     1   111.0400475 552.288000
   3924   3934   3937     1   111.0400475 552.288000
   3925   3928   3931     1   111.0400475 529.694400
   3925   3924   3934     1   112.3500484 533.878400
   3928   3931   3932     1   123.2000528 564.003200
   3928   3931   3933     1   123.2000528 564.003200
   3932   3931   3933     1   130.2500561 651.867200
   3934   3937   3940     1   111.0400475 529.694400
   3937   3940   3941     1   123.2000528 564.003200
   3937   3940   3942     1   123.2000528 564.003200
   3941   3940   3942     1   130.2500561 651.867200
   3944   3947   3950     1   111.5100476 526.347200
   3947   3944   3972     1   107.9700462 569.024000
   3947   3950   3953     1   111.0400475 552.288000
   3950   3953   3954     1   112.3500484 533.878400
   3950   3953   3963     1   112.3500484 533.878400
   3953   3954   3957     1   111.0400475 552.288000
   3953   3963   3966     1   111.0400475 552.288000
   3954   3953   3963     1   112.3500484 533.878400
   3954   3957   3960     1   111.0400475 529.694400
   3957   3960   3961     1   123.2000528 564.003200
   3957   3960   3962     1   123.2000528 564.003200
   3961   3960   3962     1   130.2500561 651.867200
   3963   3966   3969     1   111.0400475 529.694400
   3966   3969   3970     1   123.2000528 564.003200
   3966   3969   3971     1   123.2000528 564.003200
   3970   3969   3971     1   130.2500561 651.867200
   3973   3976   3979     1   111.5100476 526.347200
   3976   3979   3982     1   111.0400475 552.288000
   3976   3973   4001     1   107.9700462 569.024000
   3979   3982   3983     1   112.3500484 533.878400
   3979   3982   3992     1   112.3500484 533.878400
   3982   3983   3986     1   111.0400475 552.288000
   3982   3992   3995     1   111.0400475 552.288000
   3983   3986   3989     1   111.0400475 529.694400
   3983   3982   3992     1   112.3500484 533.878400
   3986   3989   3990     1   123.2000528 564.003200
   3986   3989   3991     1   123.2000528 564.003200
   3990   3989   3991     1   130.2500561 651.867200
   3992   3995   3998     1   111.0400475 529.694400
   3995   3998   3999     1   123.2000528 564.003200
   3995   3998   4000     1   123.2000528 564.003200
   3999   3998   4000     1   130.2500561 651.867200
   4002   4005   4008     1   111.5100476 526.347200
   4005   4002   4030     1   107.9700462 569.024000
   4005   4008   4011     1   111.0400475 552.288000
   4008   4011   4012     1   112.3500484 533.878400
   4008   4011   4021     1   112.3500484 533.878400
   4011   4012   4015     1   111.0400475 552.288000
   4011   4021   4024     1   111.0400475 552.288000
   4012   4011   4021     1   112.3500484 533.878400
   4012   4015   4018     1   111.0400475 529.694400
   4015   4018   4019     1   123.2000528 564.003200
   4015   4018   4020     1   123.2000528 564.003200
   4019   4018   4020     1   130.2500561 651.867200
   4021   4024   4027     1   111.0400475 529.694400
   4024   4027   4028     1   123.2000528 564.003200
   4024   4027   4029     1   123.2000528 564.003200
   4028   4027   4029     1   130.2500561 651.867200
   4031   4034   4037     1   111.5100476 526.347200
   4034   4037   4040     1   111.0400475 552.288000
   4034   4031   4059     1   107.9700462 569.024000
   4037   4040   4041     1   112.3500484 533.878400
   4037   4040   4050     1   112.3500484 533.878400
   4040   4041   4044     1   111.0400475 552.288000
   4040   4050   4053     1   111.0400475 552.288000
   4041   4044   4047     1   111.0400475 529.694400
   4041   4040   4050     1   112.3500484 533.878400
   4044   4047   4048     1   123.2000528 564.003200
   4044   4047   4049     1   123.2000528 564.003200
   4048   4047   4049     1   130.2500561 651.867200
   4050   4053   4056     1   111.0400475 529.694400
   4053   4056   4057     1   123.2000528 564.003200
   4053   4056   4058     1   123.2000528 564.003200
   4057   4056   4058     1   130.2500561 651.867200
   4060   4063   4066     1   111.5100476 526.347200
   4063   4060   4088     1   107.9700462 569.024000
   4063   4066   4069     1   111.0400475 552.288000
   4066   4069   4070     1   112.3500484 533.878400
   4066   4069   4079     1   112.3500484 533.878400
   4069   4070   4073     1   111.0400475 552.288000
   4069   4079   4082     1   111.0400475 552.288000
   4070   4069   4079     1   112.3500484 533.878400
   4070   4073   4076     1   111.0400475 529.694400
   4073   4076   4077     1   123.2000528 564.003200
   4073   4076   4078     1   123.2000528 564.003200
   4077   4076   4078     1   130.2500561 651.867200
   4079   4082   4085     1   111.0400475 529.694400
   4082   4085   4086     1   123.2000528 564.003200
   4082   4085   4087     1   123.2000528 564.003200
   4086   4085   4087     1   130.2500561 651.867200
   4089   4092   4095     1   111.5100476 526.347200
   4092   4095   4098     1   111.0400475 552.288000
   4092   4089   4117     1   107.9700462 569.024000
   4095   4098   4099     1   112.3500484 533.878400
   4095   4098   4108     1   112.3500484 533.878400
   4098   4099   4102     1   111.0400475 552.288000
   4098   4108   4111     1   111.0400475 552.288000
   4099   4102   4105     1   111.0400475 529.694400
   4099   4098   4108     1   112.3500484 533.878400
   4102   4105   4106     1   123.2000528 564.003200
   4102   4105   4107     1   123.2000528 564.003200
   4106   4105   4107     1   130.2500561 651.867200
   4108   4111   4114     1   111.0400475 529.694400
   4111   4114   4115     1   123.2000528 564.003200
   4111   4114   4116     1   123.2000528 564.003200
   4115   4114   4116     1   130.2500561 651.867200
   4118   4121   4124     1   111.5100476 526.347200
   4121   4118   4146     1   107.9700462 569.024000
   4121   4124   4127     1   111.0400475 552.288000
   4124   4127   4128     1   112.3500484 533.878400
   4124   4127   4137     1   112.3500484 533.878400
   4127   4128   4131     1   111.0400475 552.288000
   4127   4137   4140     1   111.0400475 552.288000
   4128   4127   4137     1   112.3500484 533.878400
   4128   4131   4134     1   111.0400475 529.694400
   4131   4134   4135     1   123.2000528 564.003200
   4131   4134   4136     1   123.2000528 564.003200
   4135   4134   4136     1   130.2500561 651.867200
   4137   4140   4143     1   111.0400475 529.694400
   4140   4143   4144     1   123.2000528 564.003200
   4140   4143   4145     1   123.2000528 564.003200
   4144   4143   4145     1   130.2500561 651.867200
   4147   4150   4153     1   111.5100476 526.347200
   4150   4153   4156     1   111.0400475 552.288000
   4150   4147   4175     1   107.9700462 569.024000
   4153   4156   4157     1   112.3500484 533.878400
   4153   4156   4166     1   112.3500484 533.878400
   4156   4157   4160     1   111.0400475 552.288000
   4156   4166   4169     1   111.0400475 552.288000
   4157   4160   4163     1   111.0400475 529.694400
   4157   4156   4166     1   112.3500484 533.878400
   4160   4163   4164     1   123.2000528 564.003200
   4160   4163   4165     1   123.2000528 564.003200
   4164   4163   4165     1   130.2500561 651.867200
   4166   4169   4172     1   111.0400475 529.694400
   4169   4172   4173     1   123.2000528 564.003200
   4169   4172   4174     1   123.2000528 564.003200
   4173   4172   4174     1   130.2500561 651.867200
   4176   4179   4182     1   111.5100476 526.347200
   4179   4176   4204     1   107.9700462 569.024000
   4179   4182   4185     1   111.0400475 552.288000
   4182   4185   4186     1   112.3500484 533.878400
   4182   4185   4195     1   112.3500484 533.878400
   4185   4186   4189     1   111.0400475 552.288000
   4185   4195   4198     1   111.0400475 552.288000
   4186   4185   4195     1   112.3500484 533.878400
   4186   4189   4192     1   111.0400475 529.694400
   4189   4192   4193     1   123.2000528 564.003200
   4189   4192   4194     1   123.2000528 564.003200
   4193   4192   4194     1   130.2500561 651.867200
   4195   4198   4201     1   111.0400475 529.694400
   4198   4201   4202     1   123.2000528 564.003200
   4198   4201   4203     1   123.2000528 564.003200
   4202   4201   4203     1   130.2500561 651.867200
   4205   4208   4211     1   111.5100476 526.347200
   4208   4211   4214     1   111.0400475 552.288000
   4208   4205   4233     1   107.9700462 569.024000
   4211   4214   4215     1   112.3500484 533.878400
   4211   4214   4224     1   112.3500484 533.878400
   4214   4215   4218     1   111.0400475 552.288000
   4214   4224   4227     1   111.0400475 552.288000
   4215   4218   4221     1   111.0400475 529.694400
   4215   4214   4224     1   112.3500484 533.878400
   4218   4221   4222     1   123.2000528 564.003200
   4218   4221   4223     1   123.2000528 564.003200
   4222   4221   4223     1   130.2500561 651.867200
   4224   4227   4230     1   111.0400475 529.694400
   4227   4230   4231     1   123.2000528 564.003200
   4227   4230   4232     1   123.2000528 564.003200
   4231   4230   4232     1   130.2500561 651.867200
   4234   4237   4240     1   111.5100476 526.347200
   4237   4234   4262     1   107.9700462 569.024000
   4237   4240   4243     1   111.0400475 552.288000
   4240   4243   4244     1   112.3500484 533.878400
   4240   4243   4253     1   112.3500484 533.878400
   4243   4244   4247     1   111.0400475 552.288000
   4243   4253   4256     1   111.0400475 552.288000
   4244   4243   4253     1   112.3500484 533.878400
   4244   4247   4250     1   111.0400475 529.694400
   4247   4250   4251     1   123.2000528 564.003200
   4247   4250   4252     1   123.2000528 564.003200
   4251   4250   4252     1   130.2500561 651.867200
   4253   4256   4259     1   111.0400475 529.694400
   4256   4259   4260     1   123.2000528 564.003200
   4256   4259   4261     1   123.2000528 564.003200
   4260   4259   4261     1   130.2500561 651.867200
   4263   4266   4269     1   111.5100476 526.347200
   4266   4269   4272     1   111.0400475 552.288000
   4266   4263   4291     1   107.9700462 569.024000
   4269   4272   4273     1   112.3500484 533.878400
   4269   4272   4282     1   112.3500484 533.878400
   4272   4273   4276     1   111.0400475 552.288000
   4272   4282   4285     1   111.0400475 552.288000
   4273   4276   4279     1   111.0400475 529.694400
   4273   4272   4282     1   112.3500484 533.878400
   4276   4279   4280     1   123.2000528 564.003200
   4276   4279   4281     1   123.2000528 564.003200
   4280   4279   4281     1   130.2500561 651.867200
   4282   4285   4288     1   111.0400475 529.694400
   4285   4288   4289     1   123.2000528 564.003200
   4285   4288   4290     1   123.2000528 564.003200
   4289   4288   4290     1   130.2500561 651.867200
   4292   4295   4298     1   111.5100476 526.347200
   4295   4292   4320     1   107.9700462 569.024000
   4295   4298   4301     1   111.0400475 552.288000
   4298   4301   4302     1   112.3500484 533.878400
   4298   4301   4311     1   112.3500484 533.878400
   4301   4302   4305     1   111.0400475 552.288000
   4301   4311   4314     1   111.0400475 552.288000
   4302   4301   4311     1   112.3500484 533.878400
   4302   4305   4308     1   111.0400475 529.694400
   4305   4308   4309     1   123.2000528 564.003200
   4305   4308   4310     1   123.2000528 564.003200
   4309   4308   4310     1   130.2500561 651.867200
   4311   4314   4317     1   111.0400475 529.694400
   4314   4317   4318     1   123.2000528 564.003200
   4314   4317   4319     1   123.2000528 564.003200
   4318   4317   4319     1   130.2500561 651.867200
   4321   4324   4327     1   111.5100476 526.347200
   4324   4327   4330     1   111.0400475 552.288000
   4324   4321   4349     1   107.9700462 569.024000
   4327   4330   4331     1   112.3500484 533.878400
   4327   4330   4340     1   112.3500484 533.878400
   4330   4331   4334     1   111.0400475 552.288000
   4330   4340   4343     1   111.0400475 552.288000
   4331   4334   4337     1   111.0400475 529.694400
   4331   4330   4340     1   112.3500484 533.878400
   4334   4337   4338     1   123.2000528 564.003200
   4334   4337   4339     1   123.2000528 564.003200
   4338   4337   4339     1   130.2500561 651.867200
   4340   4343   4346     1   111.0400475 529.694400
   4343   4346   4347     1   123.2000528 564.003200
   4343   4346   4348     1   123.2000528 564.003200
   4347   4346   4348     1   130.2500561 651.867200
   4350   4353   4356     1   111.5100476 526.347200
   4353   4350   4378     1   107.9700462 569.024000
   4353   4356   4359     1   111.0400475 552.288000
   4356   4359   4360     1   112.3500484 533.878400
   4356   4359   4369     1   112.3500484 533.878400
   4359   4360   4363     1   111.0400475 552.288000
   4359   4369   4372     1   111.0400475 552.288000
   4360   4359   4369     1   112.3500484 533.878400
   4360   4363   4366     1   111.0400475 529.694400
   4363   4366   4367     1   123.2000528 564.003200
   4363   4366   4368     1   123.2000528 564.003200
   4367   4366   4368     1   130.2500561 651.867200
   4369   4372   4375     1   111.0400475 529.694400
   4372   4375   4376     1   123.2000528 564.003200
   4372   4375   4377     1   123.2000528 564.003200
   4376   4375   4377     1   130.2500561 651.867200
   4379   4382   4385     1   111.5100476 526.347200
   4382   4385   4388     1   111.0400475 552.288000
   4382   4379   4407     1   107.9700462 569.024000
   4385   4388   4389     1   112.3500484 533.878400
   4385   4388   4398     1   112.3500484 533.878400
   4388   4389   4392     1   111.0400475 552.288000
   4388   4398   4401     1   111.0400475 552.288000
   4389   4392   4395     1   111.0400475 529.694400
   4389   4388   4398     1   112.3500484 533.878400
   4392   4395   4396     1   123.2000528 564.003200
   4392   4395   4397     1   123.2000528 564.003200
   4396   4395   4397     1   130.2500561 651.867200
   4398   4401   4404     1   111.0400475 529.694400
   4401   4404   4405     1   123.2000528 564.003200
   4401   4404   4406     1   123.2000528 564.003200
   4405   4404   4406     1   130.2500561 651.867200
   4408   4411   4414     1   111.5100476 526.347200
   4411   4408   4436     1   107.9700462 569.024000
   4411   4414   4417     1   111.0400475 552.288000
   4414   4417   4418     1   112.3500484 533.878400
   4414   4417   4427     1   112.3500484 533.878400
   4417   4418   4421     1   111.0400475 552.288000
   4417   4427   4430     1   111.0400475 552.288000
   4418   4417   4427     1   112.3500484 533.878400
   4418   4421   4424     1   111.0400475 529.694400
   4421   4424   4425     1   123.2000528 564.003200
   4421   4424   4426     1   123.2000528 564.003200
   4425   4424   4426     1   130.2500561 651.867200
   4427   4430   4433     1   111.0400475 529.694400
   4430   4433   4434     1   123.2000528 564.003200
   4430   4433   4435     1   123.2000528 564.003200
   4434   4433   4435     1   130.2500561 651.867200
   4437   4440   4443     1   111.5100476 526.347200
   4440   4443   4446     1   111.0400475 552.288000
   4440   4437   4465     1   107.9700462 569.024000
   4443   4446   4447     1   112.3500484 533.878400
   4443   4446   4456     1   112.3500484 533.878400
   4446   4447   4450     1   111.0400475 552.288000
   4446   4456   4459     1   111.0400475 552.288000
   4447   4450   4453     1   111.0400475 529.694400
   4447   4446   4456     1   112.3500484 533.878400
   4450   4453   4454     1   123.2000528 564.003200
   4450   4453   4455     1   123.2000528 564.003200
   4454   4453   4455     1   130.2500561 651.867200
   4456   4459   4462     1   111.0400475 529.694400
   4459   4462   4463     1   123.2000528 564.003200
   4459   4462   4464     1   123.2000528 564.003200
   4463   4462   4464     1   130.2500561 651.867200
   4466   4469   4472     1   111.5100476 526.347200
   4469   4466   4494     1   107.9700462 569.024000
   4469   4472   4475     1   111.0400475 552.288000
   4472   4475   4476     1   112.3500484 533.878400
   4472   4475   4485     1   112.3500484 533.878400
   4475   4476   4479     1   111.0400475 552.288000
   4475   4485   4488     1   111.0400475 552.288000
   4476   4475   4485     1   112.3500484 533.878400
   4476   4479   4482     1   111.0400475 529.694400
   4479   4482   4483     1   123.2000528 564.003200
   4479   4482   4484     1   123.2000528 564.003200
   4483   4482   4484     1   130.2500561 651.867200
   4485   4488   4491     1   111.0400475 529.694400
   4488   4491   4492     1   123.2000528 564.003200
   4488   4491   4493     1   123.2000528 564.003200
   4492   4491   4493     1   130.2500561 651.867200
   4495   4498   4501     1   111.5100476 526.347200
   4498   4501   4504     1   111.0400475 552.288000
   4498   4495   4523     1   107.9700462 569.024000
   4501   4504   4505     1   112.3500484 533.878400
   4501   4504   4514     1   112.3500484 533.878400
   4504   4505   4508     1   111.0400475 552.288000
   4504   4514   4517     1   111.0400475 552.288000
   4505   4508   4511     1   111.0400475 529.694400
   4505   4504   4514     1   112.3500484 533.878400
   4508   4511   4512     1   123.2000528 564.003200
   4508   4511   4513     1   123.2000528 564.003200
   4512   4511   4513     1   130.2500561 651.867200
   4514   4517   4520     1   111.0400475 529.694400
   4517   4520   4521     1   123.2000528 564.003200
   4517   4520   4522     1   123.2000528 564.003200
   4521   4520   4522     1   130.2500561 651.867200
   4524   4527   4530     1   111.5100476 526.347200
   4527   4524   4552     1   107.9700462 569.024000
   4527   4530   4533     1   111.0400475 552.288000
   4530   4533   4534     1   112.3500484 533.878400
   4530   4533   4543     1   112.3500484 533.878400
   4533   4534   4537     1   111.0400475 552.288000
   4533   4543   4546     1   111.0400475 552.288000
   4534   4533   4543     1   112.3500484 533.878400
   4534   4537   4540     1   111.0400475 529.694400
   4537   4540   4541     1   123.2000528 564.003200
   4537   4540   4542     1   123.2000528 564.003200
   4541   4540   4542     1   130.2500561 651.867200
   4543   4546   4549     1   111.0400475 529.694400
   4546   4549   4550     1   123.2000528 564.003200
   4546   4549   4551     1   123.2000528 564.003200
   4550   4549   4551     1   130.2500561 651.867200
   4553   4556   4559     1   111.5100476 526.347200
   4556   4559   4562     1   111.0400475 552.288000
   4556   4553   4581     1   107.9700462 569.024000
   4559   4562   4563     1   112.3500484 533.878400
   4559   4562   4572     1   112.3500484 533.878400
   4562   4563   4566     1   111.0400475 552.288000
   4562   4572   4575     1   111.0400475 552.288000
   4563   4566   4569     1   111.0400475 529.694400
   4563   4562   4572     1   112.3500484 533.878400
   4566   4569   4570     1   123.2000528 564.003200
   4566   4569   4571     1   123.2000528 564.003200
   4570   4569   4571     1   130.2500561 651.867200
   4572   4575   4578     1   111.0400475 529.694400
   4575   4578   4579     1   123.2000528 564.003200
   4575   4578   4580     1   123.2000528 564.003200
   4579   4578   4580     1   130.2500561 651.867200
   4582   4585   4588     1   111.5100476 526.347200
   4585   4582   4610     1   107.9700462 569.024000
   4585   4588   4591     1   111.0400475 552.288000
   4588   4591   4592     1   112.3500484 533.878400
   4588   4591   4601     1   112.3500484 533.878400
   4591   4592   4595     1   111.0400475 552.288000
   4591   4601   4604     1   111.0400475 552.288000
   4592   4591   4601     1   112.3500484 533.878400
   4592   4595   4598     1   111.0400475 529.694400
   4595   4598   4599     1   123.2000528 564.003200
   4595   4598   4600     1   123.2000528 564.003200
   4599   4598   4600     1   130.2500561 651.867200
   4601   4604   4607     1   111.0400475 529.694400
   4604   4607   4608     1   123.2000528 564.003200
   4604   4607   4609     1   123.2000528 564.003200
   4608   4607   4609     1   130.2500561 651.867200
   4611   4614   4617     1   111.5100476 526.347200
   4614   4617   4620     1   111.0400475 552.288000
   4614   4611   4639     1   107.9700462 569.024000
   4617   4620   4621     1   112.3500484 533.878400
   4617   4620   4630     1   112.3500484 533.878400
   4620   4621   4624     1   111.0400475 552.288000
   4620   4630   4633     1   111.0400475 552.288000
   4621   4624   4627     1   111.0400475 529.694400
   4621   4620   4630     1   112.3500484 533.878400
   4624   4627   4628     1   123.2000528 564.003200
   4624   4627   4629     1   123.2000528 564.003200
   4628   4627   4629     1   130.2500561 651.867200
   4630   4633   4636     1   111.0400475 529.694400
   4633   4636   4637     1   123.2000528 564.003200
   4633   4636   4638     1   123.2000528 564.003200
   4637   4636   4638     1   130.2500561 651.867200
   4640   4643   4646     1   111.5100476 526.347200
   4643   4640   4668     1   107.9700462 569.024000
   4643   4646   4649     1   111.0400475 552.288000
   4646   4649   4650     1   112.3500484 533.878400
   4646   4649   4659     1   112.3500484 533.878400
   4649   4650   4653     1   111.0400475 552.288000
   4649   4659   4662     1   111.0400475 552.288000
   4650   4649   4659     1   112.3500484 533.878400
   4650   4653   4656     1   111.0400475 529.694400
   4653   4656   4657     1   123.2000528 564.003200
   4653   4656   4658     1   123.2000528 564.003200
   4657   4656   4658     1   130.2500561 651.867200
   4659   4662   4665     1   111.0400475 529.694400
   4662   4665   4666     1   123.2000528 564.003200
   4662   4665   4667     1   123.2000528 564.003200
   4666   4665   4667     1   130.2500561 651.867200
   4669   4672   4675     1   111.5100476 526.347200
   4672   4675   4678     1   111.0400475 552.288000
   4672   4669   4697     1   107.9700462 569.024000
   4675   4678   4679     1   112.3500484 533.878400
   4675   4678   4688     1   112.3500484 533.878400
   4678   4679   4682     1   111.0400475 552.288000
   4678   4688   4691     1   111.0400475 552.288000
   4679   4682   4685     1   111.0400475 529.694400
   4679   4678   4688     1   112.3500484 533.878400
   4682   4685   4686     1   123.2000528 564.003200
   4682   4685   4687     1   123.2000528 564.003200
   4686   4685   4687     1   130.2500561 651.867200
   4688   4691   4694     1   111.0400475 529.694400
   4691   4694   4695     1   123.2000528 564.003200
   4691   4694   4696     1   123.2000528 564.003200
   4695   4694   4696     1   130.2500561 651.867200
   4698   4701   4704     1   111.5100476 526.347200
   4701   4698   4726     1   107.9700462 569.024000
   4701   4704   4707     1   111.0400475 552.288000
   4704   4707   4708     1   112.3500484 533.878400
   4704   4707   4717     1   112.3500484 533.878400
   4707   4708   4711     1   111.0400475 552.288000
   4707   4717   4720     1   111.0400475 552.288000
   4708   4707   4717     1   112.3500484 533.878400
   4708   4711   4714     1   111.0400475 529.694400
   4711   4714   4715     1   123.2000528 564.003200
   4711   4714   4716     1   123.2000528 564.003200
   4715   4714   4716     1   130.2500561 651.867200
   4717   4720   4723     1   111.0400475 529.694400
   4720   4723   4724     1   123.2000528 564.003200
   4720   4723   4725     1   123.2000528 564.003200
   4724   4723   4725     1   130.2500561 651.867200
   4727   4730   4733     1   111.5100476 526.347200
   4730   4733   4736     1   111.0400475 552.288000
   4730   4727   4755     1   107.9700462 569.024000
   4733   4736   4737     1   112.3500484 533.878400
   4733   4736   4746     1   112.3500484 533.878400
   4736   4737   4740     1   111.0400475 552.288000
   4736   4746   4749     1   111.0400475 552.288000
   4737   4740   4743     1   111.0400475 529.694400
   4737   4736   4746     1   112.3500484 533.878400
   4740   4743   4744     1   123.2000528 564.003200
   4740   4743   4745     1   123.2000528 564.003200
   4744   4743   4745     1   130.2500561 651.867200
   4746   4749   4752     1   111.0400475 529.694400
   4749   4752   4753     1   123.2000528 564.003200
   4749   4752   4754     1   123.2000528 564.003200
   4753   4752   4754     1   130.2500561 651.867200
   4756   4759   4762     1   111.5100476 526.347200
   4759   4756   4784     1   107.9700462 569.024000
   4759   4762   4765     1   111.0400475 552.288000
   4762   4765   4766     1   112.3500484 533.878400
   4762   4765   4775     1   112.3500484 533.878400
   4765   4766   4769     1   111.0400475 552.288000
   4765   4775   4778     1   111.0400475 552.288000
   4766   4765   4775     1   112.3500484 533.878400
   4766   4769   4772     1   111.0400475 529.694400
   4769   4772   4773     1   123.2000528 564.003200
   4769   4772   4774     1   123.2000528 564.003200
   4773   4772   4774     1   130.2500561 651.867200
   4775   4778   4781     1   111.0400475 529.694400
   4778   4781   4782     1   123.2000528 564.003200
   4778   4781   4783     1   123.2000528 564.003200
   4782   4781   4783     1   130.2500561 651.867200
   4785   4788   4791     1   111.5100476 526.347200
   4788   4791   4794     1   111.0400475 552.288000
   4788   4785   4813     1   107.9700462 569.024000
   4791   4794   4795     1   112.3500484 533.878400
   4791   4794   4804     1   112.3500484 533.878400
   4794   4795   4798     1   111.0400475 552.288000
   4794   4804   4807     1   111.0400475 552.288000
   4795   4798   4801     1   111.0400475 529.694400
   4795   4794   4804     1   112.3500484 533.878400
   4798   4801   4802     1   123.2000528 564.003200
   4798   4801   4803     1   123.2000528 564.003200
   4802   4801   4803     1   130.2500561 651.867200
   4804   4807   4810     1   111.0400475 529.694400
   4807   4810   4811     1   123.2000528 564.003200
   4807   4810   4812     1   123.2000528 564.003200
   4811   4810   4812     1   130.2500561 651.867200
   4814   4817   4820     1   111.5100476 526.347200
   4817   4814   4842     1   107.9700462 569.024000
   4817   4820   4823     1   111.0400475 552.288000
   4820   4823   4824     1   112.3500484 533.878400
   4820   4823   4833     1   112.3500484 533.878400
   4823   4824   4827     1   111.0400475 552.288000
   4823   4833   4836     1   111.0400475 552.288000
   4824   4823   4833     1   112.3500484 533.878400
   4824   4827   4830     1   111.0400475 529.694400
   4827   4830   4831     1   123.2000528 564.003200
   4827   4830   4832     1   123.2000528 564.003200
   4831   4830   4832     1   130.2500561 651.867200
   4833   4836   4839     1   111.0400475 529.694400
   4836   4839   4840     1   123.2000528 564.003200
   4836   4839   4841     1   123.2000528 564.003200
   4840   4839   4841     1   130.2500561 651.867200
   4843   4846   4849     1   111.5100476 526.347200
   4846   4849   4852     1   111.0400475 552.288000
   4846   4843   4871     1   107.9700462 569.024000
   4849   4852   4853     1   112.3500484 533.878400
   4849   4852   4862     1   112.3500484 533.878400
   4852   4853   4856     1   111.0400475 552.288000
   4852   4862   4865     1   111.0400475 552.288000
   4853   4856   4859     1   111.0400475 529.694400
   4853   4852   4862     1   112.3500484 533.878400
   4856   4859   4860     1   123.2000528 564.003200
   4856   4859   4861     1   123.2000528 564.003200
   4860   4859   4861     1   130.2500561 651.867200
   4862   4865   4868     1   111.0400475 529.694400
   4865   4868   4869     1   123.2000528 564.003200
   4865   4868   4870     1   123.2000528 564.003200
   4869   4868   4870     1   130.2500561 651.867200
   4872   4875   4878     1   111.5100476 526.347200
   4875   4872   4900     1   107.9700462 569.024000
   4875   4878   4881     1   111.0400475 552.288000
   4878   4881   4882     1   112.3500484 533.878400
   4878   4881   4891     1   112.3500484 533.878400
   4881   4882   4885     1   111.0400475 552.288000
   4881   4891   4894     1   111.0400475 552.288000
   4882   4881   4891     1   112.3500484 533.878400
   4882   4885   4888     1   111.0400475 529.694400
   4885   4888   4889     1   123.2000528 564.003200
   4885   4888   4890     1   123.2000528 564.003200
   4889   4888   4890     1   130.2500561 651.867200
   4891   4894   4897     1   111.0400475 529.694400
   4894   4897   4898     1   123.2000528 564.003200
   4894   4897   4899     1   123.2000528 564.003200
   4898   4897   4899     1   130.2500561 651.867200
   4901   4904   4907     1   111.5100476 526.347200
   4904   4907   4910     1   111.0400475 552.288000
   4904   4901   4929     1   107.9700462 569.024000
   4907   4910   4911     1   112.3500484 533.878400
   4907   4910   4920     1   112.3500484 533.878400
   4910   4911   4914     1   111.0400475 552.288000
   4910   4920   4923     1   111.0400475 552.288000
   4911   4914   4917     1   111.0400475 529.694400
   4911   4910   4920     1   112.3500484 533.878400
   4914   4917   4918     1   123.2000528 564.003200
   4914   4917   4919     1   123.2000528 564.003200
   4918   4917   4919     1   130.2500561 651.867200
   4920   4923   4926     1   111.0400475 529.694400
   4923   4926   4927     1   123.2000528 564.003200
   4923   4926   4928     1   123.2000528 564.003200
   4927   4926   4928     1   130.2500561 651.867200
   4930   4933   4936     1   111.5100476 526.347200
   4933   4930   4958     1   107.9700462 569.024000
   4933   4936   4939     1   111.0400475 552.288000
   4936   4939   4940     1   112.3500484 533.878400
   4936   4939   4949     1   112.3500484 533.878400
   4939   4940   4943     1   111.0400475 552.288000
   4939   4949   4952     1   111.0400475 552.288000
   4940   4939   4949     1   112.3500484 533.878400
   4940   4943   4946     1   111.0400475 529.694400
   4943   4946   4947     1   123.2000528 564.003200
   4943   4946   4948     1   123.2000528 564.003200
   4947   4946   4948     1   130.2500561 651.867200
   4949   4952   4955     1   111.0400475 529.694400
   4952   4955   4956     1   123.2000528 564.003200
   4952   4955   4957     1   123.2000528 564.003200
   4956   4955   4957     1   130.2500561 651.867200
   4959   4962   4965     1   111.5100476 526.347200
   4962   4965   4968     1   111.0400475 552.288000
   4962   4959   4987     1   107.9700462 569.024000
   4965   4968   4969     1   112.3500484 533.878400
   4965   4968   4978     1   112.3500484 533.878400
   4968   4969   4972     1   111.0400475 552.288000
   4968   4978   4981     1   111.0400475 552.288000
   4969   4972   4975     1   111.0400475 529.694400
   4969   4968   4978     1   112.3500484 533.878400
   4972   4975   4976     1   123.2000528 564.003200
   4972   4975   4977     1   123.2000528 564.003200
   4976   4975   4977     1   130.2500561 651.867200
   4978   4981   4984     1   111.0400475 529.694400
   4981   4984   4985     1   123.2000528 564.003200
   4981   4984   4986     1   123.2000528 564.003200
   4985   4984   4986     1   130.2500561 651.867200
   4988   4991   4994     1   111.5100476 526.347200
   4991   4988   5016     1   107.9700462 569.024000
   4991   4994   4997     1   111.0400475 552.288000
   4994   4997   4998     1   112.3500484 533.878400
   4994   4997   5007     1   112.3500484 533.878400
   4997   4998   5001     1   111.0400475 552.288000
   4997   5007   5010     1   111.0400475 552.288000
   4998   4997   5007     1   112.3500484 533.878400
   4998   5001   5004     1   111.0400475 529.694400
   5001   5004   5005     1   123.2000528 564.003200
   5001   5004   5006     1   123.2000528 564.003200
   5005   5004   5006     1   130.2500561 651.867200
   5007   5010   5013     1   111.0400475 529.694400
   5010   5013   5014     1   123.2000528 564.003200
   5010   5013   5015     1   123.2000528 564.003200
   5014   5013   5015     1   130.2500561 651.867200
   5017   5020   5023     1   111.5100476 526.347200
   5020   5023   5026     1   111.0400475 552.288000
   5020   5017   5045     1   107.9700462 569.024000
   5023   5026   5027     1   112.3500484 533.878400
   5023   5026   5036     1   112.3500484 533.878400
   5026   5027   5030     1   111.0400475 552.288000
   5026   5036   5039     1   111.0400475 552.288000
   5027   5030   5033     1   111.0400475 529.694400
   5027   5026   5036     1   112.3500484 533.878400
   5030   5033   5034     1   123.2000528 564.003200
   5030   5033   5035     1   123.2000528 564.003200
   5034   5033   5035     1   130.2500561 651.867200
   5036   5039   5042     1   111.0400475 529.694400
   5039   5042   5043     1   123.2000528 564.003200
   5039   5042   5044     1   123.2000528 564.003200
   5043   5042   5044     1   130.2500561 651.867200
   5046   5049   5052     1   111.5100476 526.347200
   5049   5046   5074     1   107.9700462 569.024000
   5049   5052   5055     1   111.0400475 552.288000
   5052   5055   5056     1   112.3500484 533.878400
   5052   5055   5065     1   112.3500484 533.878400
   5055   5056   5059     1   111.0400475 552.288000
   5055   5065   5068     1   111.0400475 552.288000
   5056   5055   5065     1   112.3500484 533.878400
   5056   5059   5062     1   111.0400475 529.694400
   5059   5062   5063     1   123.2000528 564.003200
   5059   5062   5064     1   123.2000528 564.003200
   5063   5062   5064     1   130.2500561 651.867200
   5065   5068   5071     1   111.0400475 529.694400
   5068   5071   5072     1   123.2000528 564.003200
   5068   5071   5073     1   123.2000528 564.003200
   5072   5071   5073     1   130.2500561 651.867200
   5075   5078   5081     1   111.5100476 526.347200
   5078   5081   5084     1   111.0400475 552.288000
   5078   5075   5103     1   107.9700462 569.024000
   5081   5084   5085     1   112.3500484 533.878400
   5081   5084   5094     1   112.3500484 533.878400
   5084   5085   5088     1   111.0400475 552.288000
   5084   5094   5097     1   111.0400475 552.288000
   5085   5088   5091     1   111.0400475 529.694400
   5085   5084   5094     1   112.3500484 533.878400
   5088   5091   5092     1   123.2000528 564.003200
   5088   5091   5093     1   123.2000528 564.003200
   5092   5091   5093     1   130.2500561 651.867200
   5094   5097   5100     1   111.0400475 529.694400
   5097   5100   5101     1   123.2000528 564.003200
   5097   5100   5102     1   123.2000528 564.003200
   5101   5100   5102     1   130.2500561 651.867200
   5104   5107   5110     1   111.5100476 526.347200
   5107   5104   5132     1   107.9700462 569.024000
   5107   5110   5113     1   111.0400475 552.288000
   5110   5113   5114     1   112.3500484 533.878400
   5110   5113   5123     1   112.3500484 533.878400
   5113   5114   5117     1   111.0400475 552.288000
   5113   5123   5126     1   111.0400475 552.288000
   5114   5113   5123     1   112.3500484 533.878400
   5114   5117   5120     1   111.0400475 529.694400
   5117   5120   5121     1   123.2000528 564.003200
   5117   5120   5122     1   123.2000528 564.003200
   5121   5120   5122     1   130.2500561 651.867200
   5123   5126   5129     1   111.0400475 529.694400
   5126   5129   5130     1   123.2000528 564.003200
   5126   5129   5131     1   123.2000528 564.003200
   5130   5129   5131     1   130.2500561 651.867200
   5133   5136   5139     1   111.5100476 526.347200
   5136   5139   5142     1   111.0400475 552.288000
   5136   5133   5161     1   107.9700462 569.024000
   5139   5142   5143     1   112.3500484 533.878400
   5139   5142   5152     1   112.3500484 533.878400
   5142   5143   5146     1   111.0400475 552.288000
   5142   5152   5155     1   111.0400475 552.288000
   5143   5146   5149     1   111.0400475 529.694400
   5143   5142   5152     1   112.3500484 533.878400
   5146   5149   5150     1   123.2000528 564.003200
   5146   5149   5151     1   123.2000528 564.003200
   5150   5149   5151     1   130.2500561 651.867200
   5152   5155   5158     1   111.0400475 529.694400
   5155   5158   5159     1   123.2000528 564.003200
   5155   5158   5160     1   123.2000528 564.003200
   5159   5158   5160     1   130.2500561 651.867200
   5162   5165   5168     1   111.5100476 526.347200
   5165   5162   5190     1   107.9700462 569.024000
   5165   5168   5171     1   111.0400475 552.288000
   5168   5171   5172     1   112.3500484 533.878400
   5168   5171   5181     1   112.3500484 533.878400
   5171   5172   5175     1   111.0400475 552.288000
   5171   5181   5184     1   111.0400475 552.288000
   5172   5171   5181     1   112.3500484 533.878400
   5172   5175   5178     1   111.0400475 529.694400
   5175   5178   5179     1   123.2000528 564.003200
   5175   5178   5180     1   123.2000528 564.003200
   5179   5178   5180     1   130.2500561 651.867200
   5181   5184   5187     1   111.0400475 529.694400
   5184   5187   5188     1   123.2000528 564.003200
   5184   5187   5189     1   123.2000528 564.003200
   5188   5187   5189     1   130.2500561 651.867200
   5191   5194   5197     1   111.5100476 526.347200
   5194   5197   5200     1   111.0400475 552.288000
   5194   5191   5219     1   107.9700462 569.024000
   5197   5200   5201     1   112.3500484 533.878400
   5197   5200   5210     1   112.3500484 533.878400
   5200   5201   5204     1   111.0400475 552.288000
   5200   5210   5213     1   111.0400475 552.288000
   5201   5204   5207     1   111.0400475 529.694400
   5201   5200   5210     1   112.3500484 533.878400
   5204   5207   5208     1   123.2000528 564.003200
   5204   5207   5209     1   123.2000528 564.003200
   5208   5207   5209     1   130.2500561 651.867200
   5210   5213   5216     1   111.0400475 529.694400
   5213   5216   5217     1   123.2000528 564.003200
   5213   5216   5218     1   123.2000528 564.003200
   5217   5216   5218     1   130.2500561 651.867200
   5220   5223   5226     1   111.5100476 526.347200
   5223   5220   5248     1   107.9700462 569.024000
   5223   5226   5229     1   111.0400475 552.288000
   5226   5229   5230     1   112.3500484 533.878400
   5226   5229   5239     1   112.3500484 533.878400
   5229   5230   5233     1   111.0400475 552.288000
   5229   5239   5242     1   111.0400475 552.288000
   5230   5229   5239     1   112.3500484 533.878400
   5230   5233   5236     1   111.0400475 529.694400
   5233   5236   5237     1   123.2000528 564.003200
   5233   5236   5238     1   123.2000528 564.003200
   5237   5236   5238     1   130.2500561 651.867200
   5239   5242   5245     1   111.0400475 529.694400
   5242   5245   5246     1   123.2000528 564.003200
   5242   5245   5247     1   123.2000528 564.003200
   5246   5245   5247     1   130.2500561 651.867200
   5249   5252   5255     1   111.5100476 526.347200
   5252   5255   5258     1   111.0400475 552.288000
   5252   5249   5277     1   107.9700462 569.024000
   5255   5258   5259     1   112.3500484 533.878400
   5255   5258   5268     1   112.3500484 533.878400
   5258   5259   5262     1   111.0400475 552.288000
   5258   5268   5271     1   111.0400475 552.288000
   5259   5262   5265     1   111.0400475 529.694400
   5259   5258   5268     1   112.3500484 533.878400
   5262   5265   5266     1   123.2000528 564.003200
   5262   5265   5267     1   123.2000528 564.003200
   5266   5265   5267     1   130.2500561 651.867200
   5268   5271   5274     1   111.0400475 529.694400
   5271   5274   5275     1   123.2000528 564.003200
   5271   5274   5276     1   123.2000528 564.003200
   5275   5274   5276     1   130.2500561 651.867200
   5278   5281   5284     1   111.5100476 526.347200
   5281   5278   5306     1   107.9700462 569.024000
   5281   5284   5287     1   111.0400475 552.288000
   5284   5287   5288     1   112.3500484 533.878400
   5284   5287   5297     1   112.3500484 533.878400
   5287   5288   5291     1   111.0400475 552.288000
   5287   5297   5300     1   111.0400475 552.288000
   5288   5287   5297     1   112.3500484 533.878400
   5288   5291   5294     1   111.0400475 529.694400
   5291   5294   5295     1   123.2000528 564.003200
   5291   5294   5296     1   123.2000528 564.003200
   5295   5294   5296     1   130.2500561 651.867200
   5297   5300   5303     1   111.0400475 529.694400
   5300   5303   5304     1   123.2000528 564.003200
   5300   5303   5305     1   123.2000528 564.003200
   5304   5303   5305     1   130.2500561 651.867200
   5307   5310   5313     1   111.5100476 526.347200
   5310   5313   5316     1   111.0400475 552.288000
   5310   5307   5335     1   107.9700462 569.024000
   5313   5316   5317     1   112.3500484 533.878400
   5313   5316   5326     1   112.3500484 533.878400
   5316   5317   5320     1   111.0400475 552.288000
   5316   5326   5329     1   111.0400475 552.288000
   5317   5320   5323     1   111.0400475 529.694400
   5317   5316   5326     1   112.3500484 533.878400
   5320   5323   5324     1   123.2000528 564.003200
   5320   5323   5325     1   123.2000528 564.003200
   5324   5323   5325     1   130.2500561 651.867200
   5326   5329   5332     1   111.0400475 529.694400
   5329   5332   5333     1   123.2000528 564.003200
   5329   5332   5334     1   123.2000528 564.003200
   5333   5332   5334     1   130.2500561 651.867200
   5336   5339   5342     1   111.5100476 526.347200
   5339   5336   5364     1   107.9700462 569.024000
   5339   5342   5345     1   111.0400475 552.288000
   5342   5345   5346     1   112.3500484 533.878400
   5342   5345   5355     1   112.3500484 533.878400
   5345   5346   5349     1   111.0400475 552.288000
   5345   5355   5358     1   111.0400475 552.288000
   5346   5345   5355     1   112.3500484 533.878400
   5346   5349   5352     1   111.0400475 529.694400
   5349   5352   5353     1   123.2000528 564.003200
   5349   5352   5354     1   123.2000528 564.003200
   5353   5352   5354     1   130.2500561 651.867200
   5355   5358   5361     1   111.0400475 529.694400
   5358   5361   5362     1   123.2000528 564.003200
   5358   5361   5363     1   123.2000528 564.003200
   5362   5361   5363     1   130.2500561 651.867200
   5365   5368   5371     1   111.5100476 526.347200
   5368   5371   5374     1   111.0400475 552.288000
   5368   5365   5393     1   107.9700462 569.024000
   5371   5374   5375     1   112.3500484 533.878400
   5371   5374   5384     1   112.3500484 533.878400
   5374   5375   5378     1   111.0400475 552.288000
   5374   5384   5387     1   111.0400475 552.288000
   5375   5378   5381     1   111.0400475 529.694400
   5375   5374   5384     1   112.3500484 533.878400
   5378   5381   5382     1   123.2000528 564.003200
   5378   5381   5383     1   123.2000528 564.003200
   5382   5381   5383     1   130.2500561 651.867200
   5384   5387   5390     1   111.0400475 529.694400
   5387   5390   5391     1   123.2000528 564.003200
   5387   5390   5392     1   123.2000528 564.003200
   5391   5390   5392     1   130.2500561 651.867200
   5394   5397   5400     1   111.5100476 526.347200
   5397   5394   5422     1   107.9700462 569.024000
   5397   5400   5403     1   111.0400475 552.288000
   5400   5403   5404     1   112.3500484 533.878400
   5400   5403   5413     1   112.3500484 533.878400
   5403   5404   5407     1   111.0400475 552.288000
   5403   5413   5416     1   111.0400475 552.288000
   5404   5403   5413     1   112.3500484 533.878400
   5404   5407   5410     1   111.0400475 529.694400
   5407   5410   5411     1   123.2000528 564.003200
   5407   5410   5412     1   123.2000528 564.003200
   5411   5410   5412     1   130.2500561 651.867200
   5413   5416   5419     1   111.0400475 529.694400
   5416   5419   5420     1   123.2000528 564.003200
   5416   5419   5421     1   123.2000528 564.003200
   5420   5419   5421     1   130.2500561 651.867200
   5423   5426   5429     1   111.5100476 526.347200
   5426   5429   5432     1   111.0400475 552.288000
   5426   5423   5451     1   107.9700462 569.024000
   5429   5432   5433     1   112.3500484 533.878400
   5429   5432   5442     1   112.3500484 533.878400
   5432   5433   5436     1   111.0400475 552.288000
   5432   5442   5445     1   111.0400475 552.288000
   5433   5436   5439     1   111.0400475 529.694400
   5433   5432   5442     1   112.3500484 533.878400
   5436   5439   5440     1   123.2000528 564.003200
   5436   5439   5441     1   123.2000528 564.003200
   5440   5439   5441     1   130.2500561 651.867200
   5442   5445   5448     1   111.0400475 529.694400
   5445   5448   5449     1   123.2000528 564.003200
   5445   5448   5450     1   123.2000528 564.003200
   5449   5448   5450     1   130.2500561 651.867200
   5452   5455   5458     1   111.5100476 526.347200
   5455   5452   5480     1   107.9700462 569.024000
   5455   5458   5461     1   111.0400475 552.288000
   5458   5461   5462     1   112.3500484 533.878400
   5458   5461   5471     1   112.3500484 533.878400
   5461   5462   5465     1   111.0400475 552.288000
   5461   5471   5474     1   111.0400475 552.288000
   5462   5461   5471     1   112.3500484 533.878400
   5462   5465   5468     1   111.0400475 529.694400
   5465   5468   5469     1   123.2000528 564.003200
   5465   5468   5470     1   123.2000528 564.003200
   5469   5468   5470     1   130.2500561 651.867200
   5471   5474   5477     1   111.0400475 529.694400
   5474   5477   5478     1   123.2000528 564.003200
   5474   5477   5479     1   123.2000528 564.003200
   5478   5477   5479     1   130.2500561 651.867200
   5481   5484   5487     1   111.5100476 526.347200
   5484   5487   5490     1   111.0400475 552.288000
   5484   5481   5509     1   107.9700462 569.024000
   5487   5490   5491     1   112.3500484 533.878400
   5487   5490   5500     1   112.3500484 533.878400
   5490   5491   5494     1   111.0400475 552.288000
   5490   5500   5503     1   111.0400475 552.288000
   5491   5494   5497     1   111.0400475 529.694400
   5491   5490   5500     1   112.3500484 533.878400
   5494   5497   5498     1   123.2000528 564.003200
   5494   5497   5499     1   123.2000528 564.003200
   5498   5497   5499     1   130.2500561 651.867200
   5500   5503   5506     1   111.0400475 529.694400
   5503   5506   5507     1   123.2000528 564.003200
   5503   5506   5508     1   123.2000528 564.003200
   5507   5506   5508     1   130.2500561 651.867200
   5510   5513   5516     1   111.5100476 526.347200
   5513   5510   5538     1   107.9700462 569.024000
   5513   5516   5519     1   111.0400475 552.288000
   5516   5519   5520     1   112.3500484 533.878400
   5516   5519   5529     1   112.3500484 533.878400
   5519   5520   5523     1   111.0400475 552.288000
   5519   5529   5532     1   111.0400475 552.288000
   5520   5519   5529     1   112.3500484 533.878400
   5520   5523   5526     1   111.0400475 529.694400
   5523   5526   5527     1   123.2000528 564.003200
   5523   5526   5528     1   123.2000528 564.003200
   5527   5526   5528     1   130.2500561 651.867200
   5529   5532   5535     1   111.0400475 529.694400
   5532   5535   5536     1   123.2000528 564.003200
   5532   5535   5537     1   123.2000528 564.003200
   5536   5535   5537     1   130.2500561 651.867200
   5539   5542   5545     1   111.5100476 526.347200
   5542   5545   5548     1   111.0400475 552.288000
   5542   5539   5567     1   107.9700462 569.024000
   5545   5548   5549     1   112.3500484 533.878400
   5545   5548   5558     1   112.3500484 533.878400
   5548   5549   5552     1   111.0400475 552.288000
   5548   5558   5561     1   111.0400475 552.288000
   5549   5552   5555     1   111.0400475 529.694400
   5549   5548   5558     1   112.3500484 533.878400
   5552   5555   5556     1   123.2000528 564.003200
   5552   5555   5557     1   123.2000528 564.003200
   5556   5555   5557     1   130.2500561 651.867200
   5558   5561   5564     1   111.0400475 529.694400
   5561   5564   5565     1   123.2000528 564.003200
   5561   5564   5566     1   123.2000528 564.003200
   5565   5564   5566     1   130.2500561 651.867200
   5568   5571   5574     1   111.5100476 526.347200
   5571   5568   5596     1   107.9700462 569.024000
   5571   5574   5577     1   111.0400475 552.288000
   5574   5577   5578     1   112.3500484 533.878400
   5574   5577   5587     1   112.3500484 533.878400
   5577   5578   5581     1   111.0400475 552.288000
   5577   5587   5590     1   111.0400475 552.288000
   5578   5577   5587     1   112.3500484 533.878400
   5578   5581   5584     1   111.0400475 529.694400
   5581   5584   5585     1   123.2000528 564.003200
   5581   5584   5586     1   123.2000528 564.003200
   5585   5584   5586     1   130.2500561 651.867200
   5587   5590   5593     1   111.0400475 529.694400
   5590   5593   5594     1   123.2000528 564.003200
   5590   5593   5595     1   123.2000528 564.003200
   5594   5593   5595     1   130.2500561 651.867200
   5597   5600   5603     1   111.5100476 526.347200
   5600   5603   5606     1   111.0400475 552.288000
   5600   5597   5625     1   107.9700462 569.024000
   5603   5606   5607     1   112.3500484 533.878400
   5603   5606   5616     1   112.3500484 533.878400
   5606   5607   5610     1   111.0400475 552.288000
   5606   5616   5619     1   111.0400475 552.288000
   5607   5610   5613     1   111.0400475 529.694400
   5607   5606   5616     1   112.3500484 533.878400
   5610   5613   5614     1   123.2000528 564.003200
   5610   5613   5615     1   123.2000528 564.003200
   5614   5613   5615     1   130.2500561 651.867200
   5616   5619   5622     1   111.0400475 529.694400
   5619   5622   5623     1   123.2000528 564.003200
   5619   5622   5624     1   123.2000528 564.003200
   5623   5622   5624     1   130.2500561 651.867200
   5626   5629   5632     1   111.5100476 526.347200
   5629   5626   5654     1   107.9700462 569.024000
   5629   5632   5635     1   111.0400475 552.288000
   5632   5635   5636     1   112.3500484 533.878400
   5632   5635   5645     1   112.3500484 533.878400
   5635   5636   5639     1   111.0400475 552.288000
   5635   5645   5648     1   111.0400475 552.288000
   5636   5635   5645     1   112.3500484 533.878400
   5636   5639   5642     1   111.0400475 529.694400
   5639   5642   5643     1   123.2000528 564.003200
   5639   5642   5644     1   123.2000528 564.003200
   5643   5642   5644     1   130.2500561 651.867200
   5645   5648   5651     1   111.0400475 529.694400
   5648   5651   5652     1   123.2000528 564.003200
   5648   5651   5653     1   123.2000528 564.003200
   5652   5651   5653     1   130.2500561 651.867200
   5655   5658   5661     1   111.5100476 526.347200
   5658   5661   5664     1   111.0400475 552.288000
   5658   5655   5683     1   107.9700462 569.024000
   5661   5664   5665     1   112.3500484 533.878400
   5661   5664   5674     1   112.3500484 533.878400
   5664   5665   5668     1   111.0400475 552.288000
   5664   5674   5677     1   111.0400475 552.288000
   5665   5668   5671     1   111.0400475 529.694400
   5665   5664   5674     1   112.3500484 533.878400
   5668   5671   5672     1   123.2000528 564.003200
   5668   5671   5673     1   123.2000528 564.003200
   5672   5671   5673     1   130.2500561 651.867200
   5674   5677   5680     1   111.0400475 529.694400
   5677   5680   5681     1   123.2000528 564.003200
   5677   5680   5682     1   123.2000528 564.003200
   5681   5680   5682     1   130.2500561 651.867200
   5684   5687   5690     1   111.5100476 526.347200
   5687   5684   5712     1   107.9700462 569.024000
   5687   5690   5693     1   111.0400475 552.288000
   5690   5693   5694     1   112.3500484 533.878400
   5690   5693   5703     1   112.3500484 533.878400
   5693   5694   5697     1   111.0400475 552.288000
   5693   5703   5706     1   111.0400475 552.288000
   5694   5693   5703     1   112.3500484 533.878400
   5694   5697   5700     1   111.0400475 529.694400
   5697   5700   5701     1   123.2000528 564.003200
   5697   5700   5702     1   123.2000528 564.003200
   5701   5700   5702     1   130.2500561 651.867200
   5703   5706   5709     1   111.0400475 529.694400
   5706   5709   5710     1   123.2000528 564.003200
   5706   5709   5711     1   123.2000528 564.003200
   5710   5709   5711     1   130.2500561 651.867200
   5713   5716   5719     1   111.5100476 526.347200
   5716   5719   5722     1   111.0400475 552.288000
   5716   5713   5741     1   107.9700462 569.024000
   5719   5722   5723     1   112.3500484 533.878400
   5719   5722   5732     1   112.3500484 533.878400
   5722   5723   5726     1   111.0400475 552.288000
   5722   5732   5735     1   111.0400475 552.288000
   5723   5726   5729     1   111.0400475 529.694400
   5723   5722   5732     1   112.3500484 533.878400
   5726   5729   5730     1   123.2000528 564.003200
   5726   5729   5731     1   123.2000528 564.003200
   5730   5729   5731     1   130.2500561 651.867200
   5732   5735   5738     1   111.0400475 529.694400
   5735   5738   5739     1   123.2000528 564.003200
   5735   5738   5740     1   123.2000528 564.003200
   5739   5738   5740     1   130.2500561 651.867200
   5742   5745   5748     1   111.5100476 526.347200
   5745   5742   5770     1   107.9700462 569.024000
   5745   5748   5751     1   111.0400475 552.288000
   5748   5751   5752     1   112.3500484 533.878400
   5748   5751   5761     1   112.3500484 533.878400
   5751   5752   5755     1   111.0400475 552.288000
   5751   5761   5764     1   111.0400475 552.288000
   5752   5751   5761     1   112.3500484 533.878400
   5752   5755   5758     1   111.0400475 529.694400
   5755   5758   5759     1   123.2000528 564.003200
   5755   5758   5760     1   123.2000528 564.003200
   5759   5758   5760     1   130.2500561 651.867200
   5761   5764   5767     1   111.0400475 529.694400
   5764   5767   5768     1   123.2000528 564.003200
   5764   5767   5769     1   123.2000528 564.003200
   5768   5767   5769     1   130.2500561 651.867200
   5771   5774   5777     1   111.5100476 526.347200
   5774   5777   5780     1   111.0400475 552.288000
   5774   5771   5799     1   107.9700462 569.024000
   5777   5780   5781     1   112.3500484 533.878400
   5777   5780   5790     1   112.3500484 533.878400
   5780   5781   5784     1   111.0400475 552.288000
   5780   5790   5793     1   111.0400475 552.288000
   5781   5784   5787     1   111.0400475 529.694400
   5781   5780   5790     1   112.3500484 533.878400
   5784   5787   5788     1   123.2000528 564.003200
   5784   5787   5789     1   123.2000528 564.003200
   5788   5787   5789     1   130.2500561 651.867200
   5790   5793   5796     1   111.0400475 529.694400
   5793   5796   5797     1   123.2000528 564.003200
   5793   5796   5798     1   123.2000528 564.003200
   5797   5796   5798     1   130.2500561 651.867200
   5800   5803   5806     1   111.5100476 526.347200
   5803   5800   5828     1   107.9700462 569.024000
   5803   5806   5809     1   111.0400475 552.288000
   5806   5809   5810     1   112.3500484 533.878400
   5806   5809   5819     1   112.3500484 533.878400
   5809   5810   5813     1   111.0400475 552.288000
   5809   5819   5822     1   111.0400475 552.288000
   5810   5809   5819     1   112.3500484 533.878400
   5810   5813   5816     1   111.0400475 529.694400
   5813   5816   5817     1   123.2000528 564.003200
   5813   5816   5818     1   123.2000528 564.003200
   5817   5816   5818     1   130.2500561 651.867200
   5819   5822   5825     1   111.0400475 529.694400
   5822   5825   5826     1   123.2000528 564.003200
   5822   5825   5827     1   123.2000528 564.003200
   5826   5825   5827     1   130.2500561 651.867200
   5829   5832   5835     1   111.5100476 526.347200
   5832   5835   5838     1   111.0400475 552.288000
   5832   5829   5857     1   107.9700462 569.024000
   5835   5838   5839     1   112.3500484 533.878400
   5835   5838   5848     1   112.3500484 533.878400
   5838   5839   5842     1   111.0400475 552.288000
   5838   5848   5851     1   111.0400475 552.288000
   5839   5842   5845     1   111.0400475 529.694400
   5839   5838   5848     1   112.3500484 533.878400
   5842   5845   5846     1   123.2000528 564.003200
   5842   5845   5847     1   123.2000528 564.003200
   5846   5845   5847     1   130.2500561 651.867200
   5848   5851   5854     1   111.0400475 529.694400
   5851   5854   5855     1   123.2000528 564.003200
   5851   5854   5856     1   123.2000528 564.003200
   5855   5854   5856     1   130.2500561 651.867200
   5858   5861   5864     1   111.5100476 526.347200
   5861   5858   5886     1   107.9700462 569.024000
   5861   5864   5867     1   111.0400475 552.288000
   5864   5867   5868     1   112.3500484 533.878400
   5864   5867   5877     1   112.3500484 533.878400
   5867   5868   5871     1   111.0400475 552.288000
   5867   5877   5880     1   111.0400475 552.288000
   5868   5867   5877     1   112.3500484 533.878400
   5868   5871   5874     1   111.0400475 529.694400
   5871   5874   5875     1   123.2000528 564.003200
   5871   5874   5876     1   123.2000528 564.003200
   5875   5874   5876     1   130.2500561 651.867200
   5877   5880   5883     1   111.0400475 529.694400
   5880   5883   5884     1   123.2000528 564.003200
   5880   5883   5885     1   123.2000528 564.003200
   5884   5883   5885     1   130.2500561 651.867200
   5887   5890   5893     1   111.5100476 526.347200
   5890   5893   5896     1   111.0400475 552.288000
   5890   5887   5915     1   107.9700462 569.024000
   5893   5896   5897     1   112.3500484 533.878400
   5893   5896   5906     1   112.3500484 533.878400
   5896   5897   5900     1   111.0400475 552.288000
   5896   5906   5909     1   111.0400475 552.288000
   5897   5900   5903     1   111.0400475 529.694400
   5897   5896   5906     1   112.3500484 533.878400
   5900   5903   5904     1   123.2000528 564.003200
   5900   5903   5905     1   123.2000528 564.003200
   5904   5903   5905     1   130.2500561 651.867200
   5906   5909   5912     1   111.0400475 529.694400
   5909   5912   5913     1   123.2000528 564.003200
   5909   5912   5914     1   123.2000528 564.003200
   5913   5912   5914     1   130.2500561 651.867200
   5916   5919   5922     1   111.5100476 526.347200
   5919   5916   5944     1   107.9700462 569.024000
   5919   5922   5925     1   111.0400475 552.288000
   5922   5925   5926     1   112.3500484 533.878400
   5922   5925   5935     1   112.3500484 533.878400
   5925   5926   5929     1   111.0400475 552.288000
   5925   5935   5938     1   111.0400475 552.288000
   5926   5925   5935     1   112.3500484 533.878400
   5926   5929   5932     1   111.0400475 529.694400
   5929   5932   5933     1   123.2000528 564.003200
   5929   5932   5934     1   123.2000528 564.003200
   5933   5932   5934     1   130.2500561 651.867200
   5935   5938   5941     1   111.0400475 529.694400
   5938   5941   5942     1   123.2000528 564.003200
   5938   5941   5943     1   123.2000528 564.003200
   5942   5941   5943     1   130.2500561 651.867200
   5945   5948   5951     1   111.5100476 526.347200
   5948   5951   5954     1   111.0400475 552.288000
   5948   5945   5973     1   107.9700462 569.024000
   5951   5954   5955     1   112.3500484 533.878400
   5951   5954   5964     1   112.3500484 533.878400
   5954   5955   5958     1   111.0400475 552.288000
   5954   5964   5967     1   111.0400475 552.288000
   5955   5958   5961     1   111.0400475 529.694400
   5955   5954   5964     1   112.3500484 533.878400
   5958   5961   5962     1   123.2000528 564.003200
   5958   5961   5963     1   123.2000528 564.003200
   5962   5961   5963     1   130.2500561 651.867200
   5964   5967   5970     1   111.0400475 529.694400
   5967   5970   5971     1   123.2000528 564.003200
   5967   5970   5972     1   123.2000528 564.003200
   5971   5970   5972     1   130.2500561 651.867200
   5974   5977   5980     1   111.5100476 526.347200
   5977   5974   6002     1   107.9700462 569.024000
   5977   5980   5983     1   111.0400475 552.288000
   5980   5983   5984     1   112.3500484 533.878400
   5980   5983   5993     1   112.3500484 533.878400
   5983   5984   5987     1   111.0400475 552.288000
   5983   5993   5996     1   111.0400475 552.288000
   5984   5983   5993     1   112.3500484 533.878400
   5984   5987   5990     1   111.0400475 529.694400
   5987   5990   5991     1   123.2000528 564.003200
   5987   5990   5992     1   123.2000528 564.003200
   5991   5990   5992     1   130.2500561 651.867200
   5993   5996   5999     1   111.0400475 529.694400
   5996   5999   6000     1   123.2000528 564.003200
   5996   5999   6001     1   123.2000528 564.003200
   6000   5999   6001     1   130.2500561 651.867200
   6003   6006   6009     1   111.5100476 526.347200
   6006   6009   6012     1   111.0400475 552.288000
   6006   6003   6031     1   107.9700462 569.024000
   6009   6012   6013     1   112.3500484 533.878400
   6009   6012   6022     1   112.3500484 533.878400
   6012   6013   6016     1   111.0400475 552.288000
   6012   6022   6025     1   111.0400475 552.288000
   6013   6016   6019     1   111.0400475 529.694400
   6013   6012   6022     1   112.3500484 533.878400
   6016   6019   6020     1   123.2000528 564.003200
   6016   6019   6021     1   123.2000528 564.003200
   6020   6019   6021     1   130.2500561 651.867200
   6022   6025   6028     1   111.0400475 529.694400
   6025   6028   6029     1   123.2000528 564.003200
   6025   6028   6030     1   123.2000528 564.003200
   6029   6028   6030     1   130.2500561 651.867200
   6032   6035   6038     1   111.5100476 526.347200
   6035   6032   6060     1   107.9700462 569.024000
   6035   6038   6041     1   111.0400475 552.288000
   6038   6041   6042     1   112.3500484 533.878400
   6038   6041   6051     1   112.3500484 533.878400
   6041   6042   6045     1   111.0400475 552.288000
   6041   6051   6054     1   111.0400475 552.288000
   6042   6041   6051     1   112.3500484 533.878400
   6042   6045   6048     1   111.0400475 529.694400
   6045   6048   6049     1   123.2000528 564.003200
   6045   6048   6050     1   123.2000528 564.003200
   6049   6048   6050     1   130.2500561 651.867200
   6051   6054   6057     1   111.0400475 529.694400
   6054   6057   6058     1   123.2000528 564.003200
   6054   6057   6059     1   123.2000528 564.003200
   6058   6057   6059     1   130.2500561 651.867200
   6061   6064   6067     1   111.5100476 526.347200
   6064   6067   6070     1   111.0400475 552.288000
   6064   6061   6089     1   107.9700462 569.024000
   6067   6070   6071     1   112.3500484 533.878400
   6067   6070   6080     1   112.3500484 533.878400
   6070   6071   6074     1   111.0400475 552.288000
   6070   6080   6083     1   111.0400475 552.288000
   6071   6074   6077     1   111.0400475 529.694400
   6071   6070   6080     1   112.3500484 533.878400
   6074   6077   6078     1   123.2000528 564.003200
   6074   6077   6079     1   123.2000528 564.003200
   6078   6077   6079     1   130.2500561 651.867200
   6080   6083   6086     1   111.0400475 529.694400
   6083   6086   6087     1   123.2000528 564.003200
   6083   6086   6088     1   123.2000528 564.003200
   6087   6086   6088     1   130.2500561 651.867200
   6090   6093   6096     1   111.5100476 526.347200
   6093   6090   6118     1   107.9700462 569.024000
   6093   6096   6099     1   111.0400475 552.288000
   6096   6099   6100     1   112.3500484 533.878400
   6096   6099   6109     1   112.3500484 533.878400
   6099   6100   6103     1   111.0400475 552.288000
   6099   6109   6112     1   111.0400475 552.288000
   6100   6099   6109     1   112.3500484 533.878400
   6100   6103   6106     1   111.0400475 529.694400
   6103   6106   6107     1   123.2000528 564.003200
   6103   6106   6108     1   123.2000528 564.003200
   6107   6106   6108     1   130.2500561 651.867200
   6109   6112   6115     1   111.0400475 529.694400
   6112   6115   6116     1   123.2000528 564.003200
   6112   6115   6117     1   123.2000528 564.003200
   6116   6115   6117     1   130.2500561 651.867200
   6119   6122   6125     1   111.5100476 526.347200
   6122   6125   6128     1   111.0400475 552.288000
   6122   6119   6147     1   107.9700462 569.024000
   6125   6128   6129     1   112.3500484 533.878400
   6125   6128   6138     1   112.3500484 533.878400
   6128   6129   6132     1   111.0400475 552.288000
   6128   6138   6141     1   111.0400475 552.288000
   6129   6132   6135     1   111.0400475 529.694400
   6129   6128   6138     1   112.3500484 533.878400
   6132   6135   6136     1   123.2000528 564.003200
   6132   6135   6137     1   123.2000528 564.003200
   6136   6135   6137     1   130.2500561 651.867200
   6138   6141   6144     1   111.0400475 529.694400
   6141   6144   6145     1   123.2000528 564.003200
   6141   6144   6146     1   123.2000528 564.003200
   6145   6144   6146     1   130.2500561 651.867200
   6148   6151   6154     1   111.5100476 526.347200
   6151   6148   6176     1   107.9700462 569.024000
   6151   6154   6157     1   111.0400475 552.288000
   6154   6157   6158     1   112.3500484 533.878400
   6154   6157   6167     1   112.3500484 533.878400
   6157   6158   6161     1   111.0400475 552.288000
   6157   6167   6170     1   111.0400475 552.288000
   6158   6157   6167     1   112.3500484 533.878400
   6158   6161   6164     1   111.0400475 529.694400
   6161   6164   6165     1   123.2000528 564.003200
   6161   6164   6166     1   123.2000528 564.003200
   6165   6164   6166     1   130.2500561 651.867200
   6167   6170   6173     1   111.0400475 529.694400
   6170   6173   6174     1   123.2000528 564.003200
   6170   6173   6175     1   123.2000528 564.003200
   6174   6173   6175     1   130.2500561 651.867200
   6177   6180   6183     1   111.5100476 526.347200
   6180   6183   6186     1   111.0400475 552.288000
   6180   6177   6205     1   107.9700462 569.024000
   6183   6186   6187     1   112.3500484 533.878400
   6183   6186   6196     1   112.3500484 533.878400
   6186   6187   6190     1   111.0400475 552.288000
   6186   6196   6199     1   111.0400475 552.288000
   6187   6190   6193     1   111.0400475 529.694400
   6187   6186   6196     1   112.3500484 533.878400
   6190   6193   6194     1   123.2000528 564.003200
   6190   6193   6195     1   123.2000528 564.003200
   6194   6193   6195     1   130.2500561 651.867200
   6196   6199   6202     1   111.0400475 529.694400
   6199   6202   6203     1   123.2000528 564.003200
   6199   6202   6204     1   123.2000528 564.003200
   6203   6202   6204     1   130.2500561 651.867200
   6206   6209   6212     1   111.5100476 526.347200
   6209   6206   6234     1   107.9700462 569.024000
   6209   6212   6215     1   111.0400475 552.288000
   6212   6215   6216     1   112.3500484 533.878400
   6212   6215   6225     1   112.3500484 533.878400
   6215   6216   6219     1   111.0400475 552.288000
   6215   6225   6228     1   111.0400475 552.288000
   6216   6215   6225     1   112.3500484 533.878400
   6216   6219   6222     1   111.0400475 529.694400
   6219   6222   6223     1   123.2000528 564.003200
   6219   6222   6224     1   123.2000528 564.003200
   6223   6222   6224     1   130.2500561 651.867200
   6225   6228   6231     1   111.0400475 529.694400
   6228   6231   6232     1   123.2000528 564.003200
   6228   6231   6233     1   123.2000528 564.003200
   6232   6231   6233     1   130.2500561 651.867200
   6235   6238   6241     1   111.5100476 526.347200
   6238   6241   6244     1   111.0400475 552.288000
   6238   6235   6263     1   107.9700462 569.024000
   6241   6244   6245     1   112.3500484 533.878400
   6241   6244   6254     1   112.3500484 533.878400
   6244   6245   6248     1   111.0400475 552.288000
   6244   6254   6257     1   111.0400475 552.288000
   6245   6248   6251     1   111.0400475 529.694400
   6245   6244   6254     1   112.3500484 533.878400
   6248   6251   6252     1   123.2000528 564.003200
   6248   6251   6253     1   123.2000528 564.003200
   6252   6251   6253     1   130.2500561 651.867200
   6254   6257   6260     1   111.0400475 529.694400
   6257   6260   6261     1   123.2000528 564.003200
   6257   6260   6262     1   123.2000528 564.003200
   6261   6260   6262     1   130.2500561 651.867200
   6264   6267   6270     1   111.5100476 526.347200
   6267   6264   6292     1   107.9700462 569.024000
   6267   6270   6273     1   111.0400475 552.288000
   6270   6273   6274     1   112.3500484 533.878400
   6270   6273   6283     1   112.3500484 533.878400
   6273   6274   6277     1   111.0400475 552.288000
   6273   6283   6286     1   111.0400475 552.288000
   6274   6273   6283     1   112.3500484 533.878400
   6274   6277   6280     1   111.0400475 529.694400
   6277   6280   6281     1   123.2000528 564.003200
   6277   6280   6282     1   123.2000528 564.003200
   6281   6280   6282     1   130.2500561 651.867200
   6283   6286   6289     1   111.0400475 529.694400
   6286   6289   6290     1   123.2000528 564.003200
   6286   6289   6291     1   123.2000528 564.003200
   6290   6289   6291     1   130.2500561 651.867200
   6293   6296   6299     1   111.5100476 526.347200
   6296   6299   6302     1   111.0400475 552.288000
   6296   6293   6321     1   107.9700462 569.024000
   6299   6302   6303     1   112.3500484 533.878400
   6299   6302   6312     1   112.3500484 533.878400
   6302   6303   6306     1   111.0400475 552.288000
   6302   6312   6315     1   111.0400475 552.288000
   6303   6306   6309     1   111.0400475 529.694400
   6303   6302   6312     1   112.3500484 533.878400
   6306   6309   6310     1   123.2000528 564.003200
   6306   6309   6311     1   123.2000528 564.003200
   6310   6309   6311     1   130.2500561 651.867200
   6312   6315   6318     1   111.0400475 529.694400
   6315   6318   6319     1   123.2000528 564.003200
   6315   6318   6320     1   123.2000528 564.003200
   6319   6318   6320     1   130.2500561 651.867200
   6322   6325   6328     1   111.5100476 526.347200
   6325   6322   6350     1   107.9700462 569.024000
   6325   6328   6331     1   111.0400475 552.288000
   6328   6331   6332     1   112.3500484 533.878400
   6328   6331   6341     1   112.3500484 533.878400
   6331   6332   6335     1   111.0400475 552.288000
   6331   6341   6344     1   111.0400475 552.288000
   6332   6331   6341     1   112.3500484 533.878400
   6332   6335   6338     1   111.0400475 529.694400
   6335   6338   6339     1   123.2000528 564.003200
   6335   6338   6340     1   123.2000528 564.003200
   6339   6338   6340     1   130.2500561 651.867200
   6341   6344   6347     1   111.0400475 529.694400
   6344   6347   6348     1   123.2000528 564.003200
   6344   6347   6349     1   123.2000528 564.003200
   6348   6347   6349     1   130.2500561 651.867200
   6351   6354   6357     1   111.5100476 526.347200
   6354   6357   6360     1   111.0400475 552.288000
   6354   6351   6379     1   107.9700462 569.024000
   6357   6360   6361     1   112.3500484 533.878400
   6357   6360   6370     1   112.3500484 533.878400
   6360   6361   6364     1   111.0400475 552.288000
   6360   6370   6373     1   111.0400475 552.288000
   6361   6364   6367     1   111.0400475 529.694400
   6361   6360   6370     1   112.3500484 533.878400
   6364   6367   6368     1   123.2000528 564.003200
   6364   6367   6369     1   123.2000528 564.003200
   6368   6367   6369     1   130.2500561 651.867200
   6370   6373   6376     1   111.0400475 529.694400
   6373   6376   6377     1   123.2000528 564.003200
   6373   6376   6378     1   123.2000528 564.003200
   6377   6376   6378     1   130.2500561 651.867200
   6380   6383   6386     1   111.5100476 526.347200
   6383   6380   6408     1   107.9700462 569.024000
   6383   6386   6389     1   111.0400475 552.288000
   6386   6389   6390     1   112.3500484 533.878400
   6386   6389   6399     1   112.3500484 533.878400
   6389   6390   6393     1   111.0400475 552.288000
   6389   6399   6402     1   111.0400475 552.288000
   6390   6389   6399     1   112.3500484 533.878400
   6390   6393   6396     1   111.0400475 529.694400
   6393   6396   6397     1   123.2000528 564.003200
   6393   6396   6398     1   123.2000528 564.003200
   6397   6396   6398     1   130.2500561 651.867200
   6399   6402   6405     1   111.0400475 529.694400
   6402   6405   6406     1   123.2000528 564.003200
   6402   6405   6407     1   123.2000528 564.003200
   6406   6405   6407     1   130.2500561 651.867200
   6409   6412   6415     1   111.5100476 526.347200
   6412   6415   6418     1   111.0400475 552.288000
   6412   6409   6437     1   107.9700462 569.024000
   6415   6418   6419     1   112.3500484 533.878400
   6415   6418   6428     1   112.3500484 533.878400
   6418   6419   6422     1   111.0400475 552.288000
   6418   6428   6431     1   111.0400475 552.288000
   6419   6422   6425     1   111.0400475 529.694400
   6419   6418   6428     1   112.3500484 533.878400
   6422   6425   6426     1   123.2000528 564.003200
   6422   6425   6427     1   123.2000528 564.003200
   6426   6425   6427     1   130.2500561 651.867200
   6428   6431   6434     1   111.0400475 529.694400
   6431   6434   6435     1   123.2000528 564.003200
   6431   6434   6436     1   123.2000528 564.003200
   6435   6434   6436     1   130.2500561 651.867200
   6438   6441   6444     1   111.5100476 526.347200
   6441   6438   6466     1   107.9700462 569.024000
   6441   6444   6447     1   111.0400475 552.288000
   6444   6447   6448     1   112.3500484 533.878400
   6444   6447   6457     1   112.3500484 533.878400
   6447   6448   6451     1   111.0400475 552.288000
   6447   6457   6460     1   111.0400475 552.288000
   6448   6447   6457     1   112.3500484 533.878400
   6448   6451   6454     1   111.0400475 529.694400
   6451   6454   6455     1   123.2000528 564.003200
   6451   6454   6456     1   123.2000528 564.003200
   6455   6454   6456     1   130.2500561 651.867200
   6457   6460   6463     1   111.0400475 529.694400
   6460   6463   6464     1   123.2000528 564.003200
   6460   6463   6465     1   123.2000528 564.003200
   6464   6463   6465     1   130.2500561 651.867200
   6467   6470   6473     1   111.5100476 526.347200
   6470   6473   6476     1   111.0400475 552.288000
   6470   6467   6495     1   107.9700462 569.024000
   6473   6476   6477     1   112.3500484 533.878400
   6473   6476   6486     1   112.3500484 533.878400
   6476   6477   6480     1   111.0400475 552.288000
   6476   6486   6489     1   111.0400475 552.288000
   6477   6480   6483     1   111.0400475 529.694400
   6477   6476   6486     1   112.3500484 533.878400
   6480   6483   6484     1   123.2000528 564.003200
   6480   6483   6485     1   123.2000528 564.003200
   6484   6483   6485     1   130.2500561 651.867200
   6486   6489   6492     1   111.0400475 529.694400
   6489   6492   6493     1   123.2000528 564.003200
   6489   6492   6494     1   123.2000528 564.003200
   6493   6492   6494     1   130.2500561 651.867200
   6496   6499   6502     1   111.5100476 526.347200
   6499   6496   6524     1   107.9700462 569.024000
   6499   6502   6505     1   111.0400475 552.288000
   6502   6505   6506     1   112.3500484 533.878400
   6502   6505   6515     1   112.3500484 533.878400
   6505   6506   6509     1   111.0400475 552.288000
   6505   6515   6518     1   111.0400475 552.288000
   6506   6505   6515     1   112.3500484 533.878400
   6506   6509   6512     1   111.0400475 529.694400
   6509   6512   6513     1   123.2000528 564.003200
   6509   6512   6514     1   123.2000528 564.003200
   6513   6512   6514     1   130.2500561 651.867200
   6515   6518   6521     1   111.0400475 529.694400
   6518   6521   6522     1   123.2000528 564.003200
   6518   6521   6523     1   123.2000528 564.003200
   6522   6521   6523     1   130.2500561 651.867200
   6525   6528   6531     1   111.5100476 526.347200
   6528   6531   6534     1   111.0400475 552.288000
   6528   6525   6553     1   107.9700462 569.024000
   6531   6534   6535     1   112.3500484 533.878400
   6531   6534   6544     1   112.3500484 533.878400
   6534   6535   6538     1   111.0400475 552.288000
   6534   6544   6547     1   111.0400475 552.288000
   6535   6538   6541     1   111.0400475 529.694400
   6535   6534   6544     1   112.3500484 533.878400
   6538   6541   6542     1   123.2000528 564.003200
   6538   6541   6543     1   123.2000528 564.003200
   6542   6541   6543     1   130.2500561 651.867200
   6544   6547   6550     1   111.0400475 529.694400
   6547   6550   6551     1   123.2000528 564.003200
   6547   6550   6552     1   123.2000528 564.003200
   6551   6550   6552     1   130.2500561 651.867200
   6554   6557   6560     1   111.5100476 526.347200
   6557   6554   6582     1   107.9700462 569.024000
   6557   6560   6563     1   111.0400475 552.288000
   6560   6563   6564     1   112.3500484 533.878400
   6560   6563   6573     1   112.3500484 533.878400
   6563   6564   6567     1   111.0400475 552.288000
   6563   6573   6576     1   111.0400475 552.288000
   6564   6563   6573     1   112.3500484 533.878400
   6564   6567   6570     1   111.0400475 529.694400
   6567   6570   6571     1   123.2000528 564.003200
   6567   6570   6572     1   123.2000528 564.003200
   6571   6570   6572     1   130.2500561 651.867200
   6573   6576   6579     1   111.0400475 529.694400
   6576   6579   6580     1   123.2000528 564.003200
   6576   6579   6581     1   123.2000528 564.003200
   6580   6579   6581     1   130.2500561 651.867200
   6583   6586   6589     1   111.5100476 526.347200
   6586   6589   6592     1   111.0400475 552.288000
   6586   6583   6611     1   107.9700462 569.024000
   6589   6592   6593     1   112.3500484 533.878400
   6589   6592   6602     1   112.3500484 533.878400
   6592   6593   6596     1   111.0400475 552.288000
   6592   6602   6605     1   111.0400475 552.288000
   6593   6596   6599     1   111.0400475 529.694400
   6593   6592   6602     1   112.3500484 533.878400
   6596   6599   6600     1   123.2000528 564.003200
   6596   6599   6601     1   123.2000528 564.003200
   6600   6599   6601     1   130.2500561 651.867200
   6602   6605   6608     1   111.0400475 529.694400
   6605   6608   6609     1   123.2000528 564.003200
   6605   6608   6610     1   123.2000528 564.003200
   6609   6608   6610     1   130.2500561 651.867200
   6612   6615   6618     1   111.5100476 526.347200
   6615   6612   6640     1   107.9700462 569.024000
   6615   6618   6621     1   111.0400475 552.288000
   6618   6621   6622     1   112.3500484 533.878400
   6618   6621   6631     1   112.3500484 533.878400
   6621   6622   6625     1   111.0400475 552.288000
   6621   6631   6634     1   111.0400475 552.288000
   6622   6621   6631     1   112.3500484 533.878400
   6622   6625   6628     1   111.0400475 529.694400
   6625   6628   6629     1   123.2000528 564.003200
   6625   6628   6630     1   123.2000528 564.003200
   6629   6628   6630     1   130.2500561 651.867200
   6631   6634   6637     1   111.0400475 529.694400
   6634   6637   6638     1   123.2000528 564.003200
   6634   6637   6639     1   123.2000528 564.003200
   6638   6637   6639     1   130.2500561 651.867200
   6641   6644   6647     1   111.5100476 526.347200
   6644   6647   6650     1   111.0400475 552.288000
   6644   6641   6669     1   107.9700462 569.024000
   6647   6650   6651     1   112.3500484 533.878400
   6647   6650   6660     1   112.3500484 533.878400
   6650   6651   6654     1   111.0400475 552.288000
   6650   6660   6663     1   111.0400475 552.288000
   6651   6654   6657     1   111.0400475 529.694400
   6651   6650   6660     1   112.3500484 533.878400
   6654   6657   6658     1   123.2000528 564.003200
   6654   6657   6659     1   123.2000528 564.003200
   6658   6657   6659     1   130.2500561 651.867200
   6660   6663   6666     1   111.0400475 529.694400
   6663   6666   6667     1   123.2000528 564.003200
   6663   6666   6668     1   123.2000528 564.003200
   6667   6666   6668     1   130.2500561 651.867200
   6670   6673   6676     1   111.5100476 526.347200
   6673   6670   6698     1   107.9700462 569.024000
   6673   6676   6679     1   111.0400475 552.288000
   6676   6679   6680     1   112.3500484 533.878400
   6676   6679   6689     1   112.3500484 533.878400
   6679   6680   6683     1   111.0400475 552.288000
   6679   6689   6692     1   111.0400475 552.288000
   6680   6679   6689     1   112.3500484 533.878400
   6680   6683   6686     1   111.0400475 529.694400
   6683   6686   6687     1   123.2000528 564.003200
   6683   6686   6688     1   123.2000528 564.003200
   6687   6686   6688     1   130.2500561 651.867200
   6689   6692   6695     1   111.0400475 529.694400
   6692   6695   6696     1   123.2000528 564.003200
   6692   6695   6697     1   123.2000528 564.003200
   6696   6695   6697     1   130.2500561 651.867200
   6699   6702   6705     1   111.5100476 526.347200
   6702   6705   6708     1   111.0400475 552.288000
   6702   6699   6727     1   107.9700462 569.024000
   6705   6708   6709     1   112.3500484 533.878400
   6705   6708   6718     1   112.3500484 533.878400
   6708   6709   6712     1   111.0400475 552.288000
   6708   6718   6721     1   111.0400475 552.288000
   6709   6712   6715     1   111.0400475 529.694400
   6709   6708   6718     1   112.3500484 533.878400
   6712   6715   6716     1   123.2000528 564.003200
   6712   6715   6717     1   123.2000528 564.003200
   6716   6715   6717     1   130.2500561 651.867200
   6718   6721   6724     1   111.0400475 529.694400
   6721   6724   6725     1   123.2000528 564.003200
   6721   6724   6726     1   123.2000528 564.003200
   6725   6724   6726     1   130.2500561 651.867200
   6728   6731   6734     1   111.5100476 526.347200
   6731   6728   6756     1   107.9700462 569.024000
   6731   6734   6737     1   111.0400475 552.288000
   6734   6737   6738     1   112.3500484 533.878400
   6734   6737   6747     1   112.3500484 533.878400
   6737   6738   6741     1   111.0400475 552.288000
   6737   6747   6750     1   111.0400475 552.288000
   6738   6737   6747     1   112.3500484 533.878400
   6738   6741   6744     1   111.0400475 529.694400
   6741   6744   6745     1   123.2000528 564.003200
   6741   6744   6746     1   123.2000528 564.003200
   6745   6744   6746     1   130.2500561 651.867200
   6747   6750   6753     1   111.0400475 529.694400
   6750   6753   6754     1   123.2000528 564.003200
   6750   6753   6755     1   123.2000528 564.003200
   6754   6753   6755     1   130.2500561 651.867200
   6757   6760   6763     1   111.5100476 526.347200
   6760   6763   6766     1   111.0400475 552.288000
   6760   6757   6785     1   107.9700462 569.024000
   6763   6766   6767     1   112.3500484 533.878400
   6763   6766   6776     1   112.3500484 533.878400
   6766   6767   6770     1   111.0400475 552.288000
   6766   6776   6779     1   111.0400475 552.288000
   6767   6770   6773     1   111.0400475 529.694400
   6767   6766   6776     1   112.3500484 533.878400
   6770   6773   6774     1   123.2000528 564.003200
   6770   6773   6775     1   123.2000528 564.003200
   6774   6773   6775     1   130.2500561 651.867200
   6776   6779   6782     1   111.0400475 529.694400
   6779   6782   6783     1   123.2000528 564.003200
   6779   6782   6784     1   123.2000528 564.003200
   6783   6782   6784     1   130.2500561 651.867200
   6786   6789   6792     1   111.5100476 526.347200
   6789   6786   6814     1   107.9700462 569.024000
   6789   6792   6795     1   111.0400475 552.288000
   6792   6795   6796     1   112.3500484 533.878400
   6792   6795   6805     1   112.3500484 533.878400
   6795   6796   6799     1   111.0400475 552.288000
   6795   6805   6808     1   111.0400475 552.288000
   6796   6795   6805     1   112.3500484 533.878400
   6796   6799   6802     1   111.0400475 529.694400
   6799   6802   6803     1   123.2000528 564.003200
   6799   6802   6804     1   123.2000528 564.003200
   6803   6802   6804     1   130.2500561 651.867200
   6805   6808   6811     1   111.0400475 529.694400
   6808   6811   6812     1   123.2000528 564.003200
   6808   6811   6813     1   123.2000528 564.003200
   6812   6811   6813     1   130.2500561 651.867200
   6815   6818   6821     1   111.5100476 526.347200
   6818   6821   6824     1   111.0400475 552.288000
   6818   6815   6843     1   107.9700462 569.024000
   6821   6824   6825     1   112.3500484 533.878400
   6821   6824   6834     1   112.3500484 533.878400
   6824   6825   6828     1   111.0400475 552.288000
   6824   6834   6837     1   111.0400475 552.288000
   6825   6828   6831     1   111.0400475 529.694400
   6825   6824   6834     1   112.3500484 533.878400
   6828   6831   6832     1   123.2000528 564.003200
   6828   6831   6833     1   123.2000528 564.003200
   6832   6831   6833     1   130.2500561 651.867200
   6834   6837   6840     1   111.0400475 529.694400
   6837   6840   6841     1   123.2000528 564.003200
   6837   6840   6842     1   123.2000528 564.003200
   6841   6840   6842     1   130.2500561 651.867200
   6844   6847   6850     1   111.5100476 526.347200
   6847   6844   6872     1   107.9700462 569.024000
   6847   6850   6853     1   111.0400475 552.288000
   6850   6853   6854     1   112.3500484 533.878400
   6850   6853   6863     1   112.3500484 533.878400
   6853   6854   6857     1   111.0400475 552.288000
   6853   6863   6866     1   111.0400475 552.288000
   6854   6853   6863     1   112.3500484 533.878400
   6854   6857   6860     1   111.0400475 529.694400
   6857   6860   6861     1   123.2000528 564.003200
   6857   6860   6862     1   123.2000528 564.003200
   6861   6860   6862     1   130.2500561 651.867200
   6863   6866   6869     1   111.0400475 529.694400
   6866   6869   6870     1   123.2000528 564.003200
   6866   6869   6871     1   123.2000528 564.003200
   6870   6869   6871     1   130.2500561 651.867200
   6873   6876   6879     1   111.5100476 526.347200
   6876   6879   6882     1   111.0400475 552.288000
   6876   6873   6901     1   107.9700462 569.024000
   6879   6882   6883     1   112.3500484 533.878400
   6879   6882   6892     1   112.3500484 533.878400
   6882   6883   6886     1   111.0400475 552.288000
   6882   6892   6895     1   111.0400475 552.288000
   6883   6886   6889     1   111.0400475 529.694400
   6883   6882   6892     1   112.3500484 533.878400
   6886   6889   6890     1   123.2000528 564.003200
   6886   6889   6891     1   123.2000528 564.003200
   6890   6889   6891     1   130.2500561 651.867200
   6892   6895   6898     1   111.0400475 529.694400
   6895   6898   6899     1   123.2000528 564.003200
   6895   6898   6900     1   123.2000528 564.003200
   6899   6898   6900     1   130.2500561 651.867200
   6902   6905   6908     1   111.5100476 526.347200
   6905   6902   6930     1   107.9700462 569.024000
   6905   6908   6911     1   111.0400475 552.288000
   6908   6911   6912     1   112.3500484 533.878400
   6908   6911   6921     1   112.3500484 533.878400
   6911   6912   6915     1   111.0400475 552.288000
   6911   6921   6924     1   111.0400475 552.288000
   6912   6911   6921     1   112.3500484 533.878400
   6912   6915   6918     1   111.0400475 529.694400
   6915   6918   6919     1   123.2000528 564.003200
   6915   6918   6920     1   123.2000528 564.003200
   6919   6918   6920     1   130.2500561 651.867200
   6921   6924   6927     1   111.0400475 529.694400
   6924   6927   6928     1   123.2000528 564.003200
   6924   6927   6929     1   123.2000528 564.003200
   6928   6927   6929     1   130.2500561 651.867200
   6931   6934   6937     1   111.5100476 526.347200
   6934   6937   6940     1   111.0400475 552.288000
   6934   6931   6959     1   107.9700462 569.024000
   6937   6940   6941     1   112.3500484 533.878400
   6937   6940   6950     1   112.3500484 533.878400
   6940   6941   6944     1   111.0400475 552.288000
   6940   6950   6953     1   111.0400475 552.288000
   6941   6944   6947     1   111.0400475 529.694400
   6941   6940   6950     1   112.3500484 533.878400
   6944   6947   6948     1   123.2000528 564.003200
   6944   6947   6949     1   123.2000528 564.003200
   6948   6947   6949     1   130.2500561 651.867200
   6950   6953   6956     1   111.0400475 529.694400
   6953   6956   6957     1   123.2000528 564.003200
   6953   6956   6958     1   123.2000528 564.003200
   6957   6956   6958     1   130.2500561 651.867200
   6960   6963   6966     1   111.5100476 526.347200
   6963   6960   6988     1   107.9700462 569.024000
   6963   6966   6969     1   111.0400475 552.288000
   6966   6969   6970     1   112.3500484 533.878400
   6966   6969   6979     1   112.3500484 533.878400
   6969   6970   6973     1   111.0400475 552.288000
   6969   6979   6982     1   111.0400475 552.288000
   6970   6969   6979     1   112.3500484 533.878400
   6970   6973   6976     1   111.0400475 529.694400
   6973   6976   6977     1   123.2000528 564.003200
   6973   6976   6978     1   123.2000528 564.003200
   6977   6976   6978     1   130.2500561 651.867200
   6979   6982   6985     1   111.0400475 529.694400
   6982   6985   6986     1   123.2000528 564.003200
   6982   6985   6987     1   123.2000528 564.003200
   6986   6985   6987     1   130.2500561 651.867200
   6989   6992   6995     1   111.5100476 526.347200
   6992   6995   6998     1   111.0400475 552.288000
   6992   6989   7017     1   107.9700462 569.024000
   6995   6998   6999     1   112.3500484 533.878400
   6995   6998   7008     1   112.3500484 533.878400
   6998   6999   7002     1   111.0400475 552.288000
   6998   7008   7011     1   111.0400475 552.288000
   6999   7002   7005     1   111.0400475 529.694400
   6999   6998   7008     1   112.3500484 533.878400
   7002   7005   7006     1   123.2000528 564.003200
   7002   7005   7007     1   123.2000528 564.003200
   7006   7005   7007     1   130.2500561 651.867200
   7008   7011   7014     1   111.0400475 529.694400
   7011   7014   7015     1   123.2000528 564.003200
   7011   7014   7016     1   123.2000528 564.003200
   7015   7014   7016     1   130.2500561 651.867200
   7018   7021   7024     1   111.5100476 526.347200
   7021   7018   7046     1   107.9700462 569.024000
   7021   7024   7027     1   111.0400475 552.288000
   7024   7027   7028     1   112.3500484 533.878400
   7024   7027   7037     1   112.3500484 533.878400
   7027   7028   7031     1   111.0400475 552.288000
   7027   7037   7040     1   111.0400475 552.288000
   7028   7027   7037     1   112.3500484 533.878400
   7028   7031   7034     1   111.0400475 529.694400
   7031   7034   7035     1   123.2000528 564.003200
   7031   7034   7036     1   123.2000528 564.003200
   7035   7034   7036     1   130.2500561 651.867200
   7037   7040   7043     1   111.0400475 529.694400
   7040   7043   7044     1   123.2000528 564.003200
   7040   7043   7045     1   123.2000528 564.003200
   7044   7043   7045     1   130.2500561 651.867200
   7047   7050   7053     1   111.5100476 526.347200
   7050   7053   7056     1   111.0400475 552.288000
   7050   7047   7075     1   107.9700462 569.024000
   7053   7056   7057     1   112.3500484 533.878400
   7053   7056   7066     1   112.3500484 533.878400
   7056   7057   7060     1   111.0400475 552.288000
   7056   7066   7069     1   111.0400475 552.288000
   7057   7060   7063     1   111.0400475 529.694400
   7057   7056   7066     1   112.3500484 533.878400
   7060   7063   7064     1   123.2000528 564.003200
   7060   7063   7065     1   123.2000528 564.003200
   7064   7063   7065     1   130.2500561 651.867200
   7066   7069   7072     1   111.0400475 529.694400
   7069   7072   7073     1   123.2000528 564.003200
   7069   7072   7074     1   123.2000528 564.003200
   7073   7072   7074     1   130.2500561 651.867200
   7076   7079   7082     1   111.5100476 526.347200
   7079   7076   7104     1   107.9700462 569.024000
   7079   7082   7085     1   111.0400475 552.288000
   7082   7085   7086     1   112.3500484 533.878400
   7082   7085   7095     1   112.3500484 533.878400
   7085   7086   7089     1   111.0400475 552.288000
   7085   7095   7098     1   111.0400475 552.288000
   7086   7085   7095     1   112.3500484 533.878400
   7086   7089   7092     1   111.0400475 529.694400
   7089   7092   7093     1   123.2000528 564.003200
   7089   7092   7094     1   123.2000528 564.003200
   7093   7092   7094     1   130.2500561 651.867200
   7095   7098   7101     1   111.0400475 529.694400
   7098   7101   7102     1   123.2000528 564.003200
   7098   7101   7103     1   123.2000528 564.003200
   7102   7101   7103     1   130.2500561 651.867200
   7105   7108   7111     1   111.5100476 526.347200
   7108   7111   7114     1   111.0400475 552.288000
   7108   7105   7133     1   107.9700462 569.024000
   7111   7114   7115     1   112.3500484 533.878400
   7111   7114   7124     1   112.3500484 533.878400
   7114   7115   7118     1   111.0400475 552.288000
   7114   7124   7127     1   111.0400475 552.288000
   7115   7118   7121     1   111.0400475 529.694400
   7115   7114   7124     1   112.3500484 533.878400
   7118   7121   7122     1   123.2000528 564.003200
   7118   7121   7123     1   123.2000528 564.003200
   7122   7121   7123     1   130.2500561 651.867200
   7124   7127   7130     1   111.0400475 529.694400
   7127   7130   7131     1   123.2000528 564.003200
   7127   7130   7132     1   123.2000528 564.003200
   7131   7130   7132     1   130.2500561 651.867200
   7134   7137   7140     1   111.5100476 526.347200
   7137   7134   7162     1   107.9700462 569.024000
   7137   7140   7143     1   111.0400475 552.288000
   7140   7143   7144     1   112.3500484 533.878400
   7140   7143   7153     1   112.3500484 533.878400
   7143   7144   7147     1   111.0400475 552.288000
   7143   7153   7156     1   111.0400475 552.288000
   7144   7143   7153     1   112.3500484 533.878400
   7144   7147   7150     1   111.0400475 529.694400
   7147   7150   7151     1   123.2000528 564.003200
   7147   7150   7152     1   123.2000528 564.003200
   7151   7150   7152     1   130.2500561 651.867200
   7153   7156   7159     1   111.0400475 529.694400
   7156   7159   7160     1   123.2000528 564.003200
   7156   7159   7161     1   123.2000528 564.003200
   7160   7159   7161     1   130.2500561 651.867200
   7163   7166   7169     1   111.5100476 526.347200
   7166   7169   7172     1   111.0400475 552.288000
   7166   7163   7191     1   107.9700462 569.024000
   7169   7172   7173     1   112.3500484 533.878400
   7169   7172   7182     1   112.3500484 533.878400
   7172   7173   7176     1   111.0400475 552.288000
   7172   7182   7185     1   111.0400475 552.288000
   7173   7176   7179     1   111.0400475 529.694400
   7173   7172   7182     1   112.3500484 533.878400
   7176   7179   7180     1   123.2000528 564.003200
   7176   7179   7181     1   123.2000528 564.003200
   7180   7179   7181     1   130.2500561 651.867200
   7182   7185   7188     1   111.0400475 529.694400
   7185   7188   7189     1   123.2000528 564.003200
   7185   7188   7190     1   123.2000528 564.003200
   7189   7188   7190     1   130.2500561 651.867200
   7192   7195   7198     1   111.5100476 526.347200
   7195   7192   7220     1   107.9700462 569.024000
   7195   7198   7201     1   111.0400475 552.288000
   7198   7201   7202     1   112.3500484 533.878400
   7198   7201   7211     1   112.3500484 533.878400
   7201   7202   7205     1   111.0400475 552.288000
   7201   7211   7214     1   111.0400475 552.288000
   7202   7201   7211     1   112.3500484 533.878400
   7202   7205   7208     1   111.0400475 529.694400
   7205   7208   7209     1   123.2000528 564.003200
   7205   7208   7210     1   123.2000528 564.003200
   7209   7208   7210     1   130.2500561 651.867200
   7211   7214   7217     1   111.0400475 529.694400
   7214   7217   7218     1   123.2000528 564.003200
   7214   7217   7219     1   123.2000528 564.003200
   7218   7217   7219     1   130.2500561 651.867200
   7221   7224   7227     1   111.5100476 526.347200
   7224   7227   7230     1   111.0400475 552.288000
   7224   7221   7249     1   107.9700462 569.024000
   7227   7230   7231     1   112.3500484 533.878400
   7227   7230   7240     1   112.3500484 533.878400
   7230   7231   7234     1   111.0400475 552.288000
   7230   7240   7243     1   111.0400475 552.288000
   7231   7234   7237     1   111.0400475 529.694400
   7231   7230   7240     1   112.3500484 533.878400
   7234   7237   7238     1   123.2000528 564.003200
   7234   7237   7239     1   123.2000528 564.003200
   7238   7237   7239     1   130.2500561 651.867200
   7240   7243   7246     1   111.0400475 529.694400
   7243   7246   7247     1   123.2000528 564.003200
   7243   7246   7248     1   123.2000528 564.003200
   7247   7246   7248     1   130.2500561 651.867200
   7250   7253   7256     1   111.5100476 526.347200
   7253   7250   7278     1   107.9700462 569.024000
   7253   7256   7259     1   111.0400475 552.288000
   7256   7259   7260     1   112.3500484 533.878400
   7256   7259   7269     1   112.3500484 533.878400
   7259   7260   7263     1   111.0400475 552.288000
   7259   7269   7272     1   111.0400475 552.288000
   7260   7259   7269     1   112.3500484 533.878400
   7260   7263   7266     1   111.0400475 529.694400
   7263   7266   7267     1   123.2000528 564.003200
   7263   7266   7268     1   123.2000528 564.003200
   7267   7266   7268     1   130.2500561 651.867200
   7269   7272   7275     1   111.0400475 529.694400
   7272   7275   7276     1   123.2000528 564.003200
   7272   7275   7277     1   123.2000528 564.003200
   7276   7275   7277     1   130.2500561 651.867200
   7279   7282   7285     1   111.5100476 526.347200
   7282   7285   7288     1   111.0400475 552.288000
   7282   7279   7307     1   107.9700462 569.024000
   7285   7288   7289     1   112.3500484 533.878400
   7285   7288   7298     1   112.3500484 533.878400
   7288   7289   7292     1   111.0400475 552.288000
   7288   7298   7301     1   111.0400475 552.288000
   7289   7292   7295     1   111.0400475 529.694400
   7289   7288   7298     1   112.3500484 533.878400
   7292   7295   7296     1   123.2000528 564.003200
   7292   7295   7297     1   123.2000528 564.003200
   7296   7295   7297     1   130.2500561 651.867200
   7298   7301   7304     1   111.0400475 529.694400
   7301   7304   7305     1   123.2000528 564.003200
   7301   7304   7306     1   123.2000528 564.003200
   7305   7304   7306     1   130.2500561 651.867200
   7308   7311   7314     1   111.5100476 526.347200
   7311   7308   7336     1   107.9700462 569.024000
   7311   7314   7317     1   111.0400475 552.288000
   7314   7317   7318     1   112.3500484 533.878400
   7314   7317   7327     1   112.3500484 533.878400
   7317   7318   7321     1   111.0400475 552.288000
   7317   7327   7330     1   111.0400475 552.288000
   7318   7317   7327     1   112.3500484 533.878400
   7318   7321   7324     1   111.0400475 529.694400
   7321   7324   7325     1   123.2000528 564.003200
   7321   7324   7326     1   123.2000528 564.003200
   7325   7324   7326     1   130.2500561 651.867200
   7327   7330   7333     1   111.0400475 529.694400
   7330   7333   7334     1   123.2000528 564.003200
   7330   7333   7335     1   123.2000528 564.003200
   7334   7333   7335     1   130.2500561 651.867200
   7337   7340   7343     1   111.5100476 526.347200
   7340   7343   7346     1   111.0400475 552.288000
   7340   7337   7365     1   107.9700462 569.024000
   7343   7346   7347     1   112.3500484 533.878400
   7343   7346   7356     1   112.3500484 533.878400
   7346   7347   7350     1   111.0400475 552.288000
   7346   7356   7359     1   111.0400475 552.288000
   7347   7350   7353     1   111.0400475 529.694400
   7347   7346   7356     1   112.3500484 533.878400
   7350   7353   7354     1   123.2000528 564.003200
   7350   7353   7355     1   123.2000528 564.003200
   7354   7353   7355     1   130.2500561 651.867200
   7356   7359   7362     1   111.0400475 529.694400
   7359   7362   7363     1   123.2000528 564.003200
   7359   7362   7364     1   123.2000528 564.003200
   7363   7362   7364     1   130.2500561 651.867200
      1      2      3     1   109.7800468 425.094400
      1      2      4     1   109.7800468 425.094400
      1      5      6     1   109.7800468 425.094400
      1      5      7     1   109.7800468 425.094400
      2      8      9     1   109.8000471 387.438400
      2      8     10     1   109.8000471 387.438400
      3      2      8     1   109.5600471 388.275200
      3      2      4     1   108.4600466 328.025600
      4      2      8     1   109.5600471 388.275200
      5     11     12     1   109.8000471 387.438400
      5     11     13     1   109.8000471 387.438400
      6      5     11     1   109.5600471 388.275200
      6      5      7     1   108.4600466 328.025600
      7      5     11     1   109.5600471 388.275200
      8     14     15     1   109.5600471 388.275200
      8     14     16     1   109.5600471 388.275200
      9      8     14     1   109.8000471 387.438400
      9      8     10     1   107.5800459 329.699200
     10      8     14     1   109.8000471 387.438400
     11     17     18     1   109.5600471 388.275200
     11     17     19     1   109.5600471 388.275200
     12     11     17     1   109.8000471 387.438400
     12     11     13     1   107.5800459 329.699200
     13     11     17     1   109.8000471 387.438400
     15     14     20     1   109.8800469 414.216000
     15     14     16     1   108.4600466 328.025600
     16     14     20     1   109.8800469 414.216000
     18     17     21     1   109.8800469 414.216000
     18     17     19     1   108.4600466 328.025600
     19     17     21     1   109.8800469 414.216000
     20     28     29     1   109.8800469 414.216000
     20     28     30     1   109.8800469 414.216000
     20     31     32     1   109.8800469 414.216000
     20     31     33     1   109.8800469 414.216000
     21     22     23     1   109.8800469 414.216000
     21     22     24     1   109.8800469 414.216000
     21     25     26     1   109.8800469 414.216000
     21     25     27     1   109.8800469 414.216000
     22     34     35     1   109.8000471 387.438400
     22     34     36     1   109.8000471 387.438400
     23     22     34     1   109.5600471 388.275200
     23     22     24     1   108.4600466 328.025600
     24     22     34     1   109.5600471 388.275200
     25     37     38     1   109.8000471 387.438400
     25     37     39     1   109.8000471 387.438400
     26     25     37     1   109.5600471 388.275200
     26     25     27     1   108.4600466 328.025600
     27     25     37     1   109.5600471 388.275200
     28     40     41     1   109.8000471 387.438400
     28     40     42     1   109.8000471 387.438400
     29     28     40     1   109.5600471 388.275200
     29     28     30     1   108.4600466 328.025600
     30     28     40     1   109.5600471 388.275200
     31     43     44     1   109.8000471 387.438400
     31     43     45     1   109.8000471 387.438400
     32     31     43     1   109.5600471 388.275200
     32     31     33     1   108.4600466 328.025600
     33     31     43     1   109.5600471 388.275200
     34     55     56     1   109.5600471 388.275200
     34     55     57     1   109.5600471 388.275200
     35     34     55     1   109.8000471 387.438400
     35     34     36     1   107.5800459 329.699200
     36     34     55     1   109.8000471 387.438400
     37     52     53     1   109.5600471 388.275200
     37     52     54     1   109.5600471 388.275200
     38     37     52     1   109.8000471 387.438400
     38     37     39     1   107.5800459 329.699200
     39     37     52     1   109.8000471 387.438400
     40     49     50     1   109.5600471 388.275200
     40     49     51     1   109.5600471 388.275200
     41     40     49     1   109.8000471 387.438400
     41     40     42     1   107.5800459 329.699200
     42     40     49     1   109.8000471 387.438400
     43     46     47     1   109.5600471 388.275200
     43     46     48     1   109.5600471 388.275200
     44     43     46     1   109.8000471 387.438400
     44     43     45     1   107.5800459 329.699200
     45     43     46     1   109.8000471 387.438400
     47     46     86     1   109.7800468 425.094400
     47     46     48     1   108.4600466 328.025600
     48     46     86     1   109.7800468 425.094400
     50     49    115     1   109.7800468 425.094400
     50     49     51     1   108.4600466 328.025600
     51     49    115     1   109.7800468 425.094400
     53     52    144     1   109.7800468 425.094400
     53     52     54     1   108.4600466 328.025600
     54     52    144     1   109.7800468 425.094400
     56     55    173     1   109.7800468 425.094400
     56     55     57     1   108.4600466 328.025600
     57     55    173     1   109.7800468 425.094400
     58     59     60     1   109.8800469 414.216000
     58     59     61     1   109.8800469 414.216000
     58     62     63     1   109.8800469 414.216000
     58     62     64     1   109.8800469 414.216000
     58     65     66     1   109.8800469 414.216000
     58     65     67     1   109.8800469 414.216000
     59     71     72     1   109.8000471 387.438400
     59     71     73     1   109.8000471 387.438400
     60     59     71     1   109.5600471 388.275200
     60     59     61     1   108.4600466 328.025600
     61     59     71     1   109.5600471 388.275200
     62     74     75     1   109.8000471 387.438400
     62     74     76     1   109.8000471 387.438400
     63     62     74     1   109.5600471 388.275200
     63     62     64     1   108.4600466 328.025600
     64     62     74     1   109.5600471 388.275200
     65     68     69     1   109.8000471 387.438400
     65     68     70     1   109.8000471 387.438400
     66     65     68     1   109.5600471 388.275200
     66     65     67     1   108.4600466 328.025600
     67     65     68     1   109.5600471 388.275200
     68     77     78     1   109.5600471 388.275200
     68     77     79     1   109.5600471 388.275200
     69     68     77     1   109.8000471 387.438400
     69     68     70     1   107.5800459 329.699200
     70     68     77     1   109.8000471 387.438400
     71     83     84     1   109.5600471 388.275200
     71     83     85     1   109.5600471 388.275200
     72     71     83     1   109.8000471 387.438400
     72     71     73     1   107.5800459 329.699200
     73     71     83     1   109.8000471 387.438400
     74     80     81     1   109.5600471 388.275200
     74     80     82     1   109.5600471 388.275200
     75     74     80     1   109.8000471 387.438400
     75     74     76     1   107.5800459 329.699200
     76     74     80     1   109.8000471 387.438400
     78     77     86     1   109.7800468 425.094400
     78     77     79     1   108.4600466 328.025600
     79     77     86     1   109.7800468 425.094400
     81     80    202     1   109.7800468 425.094400
     81     80     82     1   108.4600466 328.025600
     82     80    202     1   109.7800468 425.094400
     84     83    231     1   109.7800468 425.094400
     84     83     85     1   108.4600466 328.025600
     85     83    231     1   109.7800468 425.094400
     87     88     89     1   109.8800469 414.216000
     87     88     90     1   109.8800469 414.216000
     87     91     92     1   109.8800469 414.216000
     87     91     93     1   109.8800469 414.216000
     87     94     95     1   109.8800469 414.216000
     87     94     96     1   109.8800469 414.216000
     88    100    101     1   109.8000471 387.438400
     88    100    102     1   109.8000471 387.438400
     89     88    100     1   109.5600471 388.275200
     89     88     90     1   108.4600466 328.025600
     90     88    100     1   109.5600471 388.275200
     91    103    104     1   109.8000471 387.438400
     91    103    105     1   109.8000471 387.438400
     92     91    103     1   109.5600471 388.275200
     92     91     93     1   108.4600466 328.025600
     93     91    103     1   109.5600471 388.275200
     94     97     98     1   109.8000471 387.438400
     94     97     99     1   109.8000471 387.438400
     95     94     97     1   109.5600471 388.275200
     95     94     96     1   108.4600466 328.025600
     96     94     97     1   109.5600471 388.275200
     97    106    107     1   109.5600471 388.275200
     97    106    108     1   109.5600471 388.275200
     98     97    106     1   109.8000471 387.438400
     98     97     99     1   107.5800459 329.699200
     99     97    106     1   109.8000471 387.438400
    100    112    113     1   109.5600471 388.275200
    100    112    114     1   109.5600471 388.275200
    101    100    112     1   109.8000471 387.438400
    101    100    102     1   107.5800459 329.699200
    102    100    112     1   109.8000471 387.438400
    103    109    110     1   109.5600471 388.275200
    103    109    111     1   109.5600471 388.275200
    104    103    109     1   109.8000471 387.438400
    104    103    105     1   107.5800459 329.699200
    105    103    109     1   109.8000471 387.438400
    107    106    115     1   109.7800468 425.094400
    107    106    108     1   108.4600466 328.025600
    108    106    115     1   109.7800468 425.094400
    110    109    260     1   109.7800468 425.094400
    110    109    111     1   108.4600466 328.025600
    111    109    260     1   109.7800468 425.094400
    113    112    289     1   109.7800468 425.094400
    113    112    114     1   108.4600466 328.025600
    114    112    289     1   109.7800468 425.094400
    116    117    118     1   109.8800469 414.216000
    116    117    119     1   109.8800469 414.216000
    116    120    121     1   109.8800469 414.216000
    116    120    122     1   109.8800469 414.216000
    116    123    124     1   109.8800469 414.216000
    116    123    125     1   109.8800469 414.216000
    117    129    130     1   109.8000471 387.438400
    117    129    131     1   109.8000471 387.438400
    118    117    129     1   109.5600471 388.275200
    118    117    119     1   108.4600466 328.025600
    119    117    129     1   109.5600471 388.275200
    120    132    133     1   109.8000471 387.438400
    120    132    134     1   109.8000471 387.438400
    121    120    132     1   109.5600471 388.275200
    121    120    122     1   108.4600466 328.025600
    122    120    132     1   109.5600471 388.275200
    123    126    127     1   109.8000471 387.438400
    123    126    128     1   109.8000471 387.438400
    124    123    126     1   109.5600471 388.275200
    124    123    125     1   108.4600466 328.025600
    125    123    126     1   109.5600471 388.275200
    126    135    136     1   109.5600471 388.275200
    126    135    137     1   109.5600471 388.275200
    127    126    135     1   109.8000471 387.438400
    127    126    128     1   107.5800459 329.699200
    128    126    135     1   109.8000471 387.438400
    129    141    142     1   109.5600471 388.275200
    129    141    143     1   109.5600471 388.275200
    130    129    141     1   109.8000471 387.438400
    130    129    131     1   107.5800459 329.699200
    131    129    141     1   109.8000471 387.438400
    132    138    139     1   109.5600471 388.275200
    132    138    140     1   109.5600471 388.275200
    133    132    138     1   109.8000471 387.438400
    133    132    134     1   107.5800459 329.699200
    134    132    138     1   109.8000471 387.438400
    136    135    144     1   109.7800468 425.094400
    136    135    137     1   108.4600466 328.025600
    137    135    144     1   109.7800468 425.094400
    139    138    318     1   109.7800468 425.094400
    139    138    140     1   108.4600466 328.025600
    140    138    318     1   109.7800468 425.094400
    142    141    347     1   109.7800468 425.094400
    142    141    143     1   108.4600466 328.025600
    143    141    347     1   109.7800468 425.094400
    145    146    147     1   109.8800469 414.216000
    145    146    148     1   109.8800469 414.216000
    145    149    150     1   109.8800469 414.216000
    145    149    151     1   109.8800469 414.216000
    145    152    153     1   109.8800469 414.216000
    145    152    154     1   109.8800469 414.216000
    146    158    159     1   109.8000471 387.438400
    146    158    160     1   109.8000471 387.438400
    147    146    158     1   109.5600471 388.275200
    147    146    148     1   108.4600466 328.025600
    148    146    158     1   109.5600471 388.275200
    149    161    162     1   109.8000471 387.438400
    149    161    163     1   109.8000471 387.438400
    150    149    161     1   109.5600471 388.275200
    150    149    151     1   108.4600466 328.025600
    151    149    161     1   109.5600471 388.275200
    152    155    156     1   109.8000471 387.438400
    152    155    157     1   109.8000471 387.438400
    153    152    155     1   109.5600471 388.275200
    153    152    154     1   108.4600466 328.025600
    154    152    155     1   109.5600471 388.275200
    155    164    165     1   109.5600471 388.275200
    155    164    166     1   109.5600471 388.275200
    156    155    164     1   109.8000471 387.438400
    156    155    157     1   107.5800459 329.699200
    157    155    164     1   109.8000471 387.438400
    158    170    171     1   109.5600471 388.275200
    158    170    172     1   109.5600471 388.275200
    159    158    170     1   109.8000471 387.438400
    159    158    160     1   107.5800459 329.699200
    160    158    170     1   109.8000471 387.438400
    161    167    168     1   109.5600471 388.275200
    161    167    169     1   109.5600471 388.275200
    162    161    167     1   109.8000471 387.438400
    162    161    163     1   107.5800459 329.699200
    163    161    167     1   109.8000471 387.438400
    165    164    173     1   109.7800468 425.094400
    165    164    166     1   108.4600466 328.025600
    166    164    173     1   109.7800468 425.094400
    168    167    376     1   109.7800468 425.094400
    168    167    169     1   108.4600466 328.025600
    169    167    376     1   109.7800468 425.094400
    171    170    405     1   109.7800468 425.094400
    171    170    172     1   108.4600466 328.025600
    172    170    405     1   109.7800468 425.094400
    174    175    176     1   109.8800469 414.216000
    174    175    177     1   109.8800469 414.216000
    174    178    179     1   109.8800469 414.216000
    174    178    180     1   109.8800469 414.216000
    174    181    182     1   109.8800469 414.216000
    174    181    183     1   109.8800469 414.216000
    175    187    188     1   109.8000471 387.438400
    175    187    189     1   109.8000471 387.438400
    176    175    187     1   109.5600471 388.275200
    176    175    177     1   108.4600466 328.025600
    177    175    187     1   109.5600471 388.275200
    178    190    191     1   109.8000471 387.438400
    178    190    192     1   109.8000471 387.438400
    179    178    190     1   109.5600471 388.275200
    179    178    180     1   108.4600466 328.025600
    180    178    190     1   109.5600471 388.275200
    181    184    185     1   109.8000471 387.438400
    181    184    186     1   109.8000471 387.438400
    182    181    184     1   109.5600471 388.275200
    182    181    183     1   108.4600466 328.025600
    183    181    184     1   109.5600471 388.275200
    184    193    194     1   109.5600471 388.275200
    184    193    195     1   109.5600471 388.275200
    185    184    193     1   109.8000471 387.438400
    185    184    186     1   107.5800459 329.699200
    186    184    193     1   109.8000471 387.438400
    187    199    200     1   109.5600471 388.275200
    187    199    201     1   109.5600471 388.275200
    188    187    199     1   109.8000471 387.438400
    188    187    189     1   107.5800459 329.699200
    189    187    199     1   109.8000471 387.438400
    190    196    197     1   109.5600471 388.275200
    190    196    198     1   109.5600471 388.275200
    191    190    196     1   109.8000471 387.438400
    191    190    192     1   107.5800459 329.699200
    192    190    196     1   109.8000471 387.438400
    194    193    202     1   109.7800468 425.094400
    194    193    195     1   108.4600466 328.025600
    195    193    202     1   109.7800468 425.094400
    197    196    434     1   109.7800468 425.094400
    197    196    198     1   108.4600466 328.025600
    198    196    434     1   109.7800468 425.094400
    200    199    463     1   109.7800468 425.094400
    200    199    201     1   108.4600466 328.025600
    201    199    463     1   109.7800468 425.094400
    203    204    205     1   109.8800469 414.216000
    203    204    206     1   109.8800469 414.216000
    203    207    208     1   109.8800469 414.216000
    203    207    209     1   109.8800469 414.216000
    203    210    211     1   109.8800469 414.216000
    203    210    212     1   109.8800469 414.216000
    204    216    217     1   109.8000471 387.438400
    204    216    218     1   109.8000471 387.438400
    205    204    216     1   109.5600471 388.275200
    205    204    206     1   108.4600466 328.025600
    206    204    216     1   109.5600471 388.275200
    207    219    220     1   109.8000471 387.438400
    207    219    221     1   109.8000471 387.438400
    208    207    219     1   109.5600471 388.275200
    208    207    209     1   108.4600466 328.025600
    209    207    219     1   109.5600471 388.275200
    210    213    214     1   109.8000471 387.438400
    210    213    215     1   109.8000471 387.438400
    211    210    213     1   109.5600471 388.275200
    211    210    212     1   108.4600466 328.025600
    212    210    213     1   109.5600471 388.275200
    213    222    223     1   109.5600471 388.275200
    213    222    224     1   109.5600471 388.275200
    214    213    222     1   109.8000471 387.438400
    214    213    215     1   107.5800459 329.699200
    215    213    222     1   109.8000471 387.438400
    216    228    229     1   109.5600471 388.275200
    216    228    230     1   109.5600471 388.275200
    217    216    228     1   109.8000471 387.438400
    217    216    218     1   107.5800459 329.699200
    218    216    228     1   109.8000471 387.438400
    219    225    226     1   109.5600471 388.275200
    219    225    227     1   109.5600471 388.275200
    220    219    225     1   109.8000471 387.438400
    220    219    221     1   107.5800459 329.699200
    221    219    225     1   109.8000471 387.438400
    223    222    231     1   109.7800468 425.094400
    223    222    224     1   108.4600466 328.025600
    224    222    231     1   109.7800468 425.094400
    226    225    492     1   109.7800468 425.094400
    226    225    227     1   108.4600466 328.025600
    227    225    492     1   109.7800468 425.094400
    229    228    521     1   109.7800468 425.094400
    229    228    230     1   108.4600466 328.025600
    230    228    521     1   109.7800468 425.094400
    232    233    234     1   109.8800469 414.216000
    232    233    235     1   109.8800469 414.216000
    232    236    237     1   109.8800469 414.216000
    232    236    238     1   109.8800469 414.216000
    232    239    240     1   109.8800469 414.216000
    232    239    241     1   109.8800469 414.216000
    233    245    246     1   109.8000471 387.438400
    233    245    247     1   109.8000471 387.438400
    234    233    245     1   109.5600471 388.275200
    234    233    235     1   108.4600466 328.025600
    235    233    245     1   109.5600471 388.275200
    236    248    249     1   109.8000471 387.438400
    236    248    250     1   109.8000471 387.438400
    237    236    248     1   109.5600471 388.275200
    237    236    238     1   108.4600466 328.025600
    238    236    248     1   109.5600471 388.275200
    239    242    243     1   109.8000471 387.438400
    239    242    244     1   109.8000471 387.438400
    240    239    242     1   109.5600471 388.275200
    240    239    241     1   108.4600466 328.025600
    241    239    242     1   109.5600471 388.275200
    242    251    252     1   109.5600471 388.275200
    242    251    253     1   109.5600471 388.275200
    243    242    251     1   109.8000471 387.438400
    243    242    244     1   107.5800459 329.699200
    244    242    251     1   109.8000471 387.438400
    245    257    258     1   109.5600471 388.275200
    245    257    259     1   109.5600471 388.275200
    246    245    257     1   109.8000471 387.438400
    246    245    247     1   107.5800459 329.699200
    247    245    257     1   109.8000471 387.438400
    248    254    255     1   109.5600471 388.275200
    248    254    256     1   109.5600471 388.275200
    249    248    254     1   109.8000471 387.438400
    249    248    250     1   107.5800459 329.699200
    250    248    254     1   109.8000471 387.438400
    252    251    260     1   109.7800468 425.094400
    252    251    253     1   108.4600466 328.025600
    253    251    260     1   109.7800468 425.094400
    255    254    550     1   109.7800468 425.094400
    255    254    256     1   108.4600466 328.025600
    256    254    550     1   109.7800468 425.094400
    258    257    579     1   109.7800468 425.094400
    258    257    259     1   108.4600466 328.025600
    259    257    579     1   109.7800468 425.094400
    261    262    263     1   109.8800469 414.216000
    261    262    264     1   109.8800469 414.216000
    261    265    266     1   109.8800469 414.216000
    261    265    267     1   109.8800469 414.216000
    261    268    269     1   109.8800469 414.216000
    261    268    270     1   109.8800469 414.216000
    262    274    275     1   109.8000471 387.438400
    262    274    276     1   109.8000471 387.438400
    263    262    274     1   109.5600471 388.275200
    263    262    264     1   108.4600466 328.025600
    264    262    274     1   109.5600471 388.275200
    265    277    278     1   109.8000471 387.438400
    265    277    279     1   109.8000471 387.438400
    266    265    277     1   109.5600471 388.275200
    266    265    267     1   108.4600466 328.025600
    267    265    277     1   109.5600471 388.275200
    268    271    272     1   109.8000471 387.438400
    268    271    273     1   109.8000471 387.438400
    269    268    271     1   109.5600471 388.275200
    269    268    270     1   108.4600466 328.025600
    270    268    271     1   109.5600471 388.275200
    271    280    281     1   109.5600471 388.275200
    271    280    282     1   109.5600471 388.275200
    272    271    280     1   109.8000471 387.438400
    272    271    273     1   107.5800459 329.699200
    273    271    280     1   109.8000471 387.438400
    274    286    287     1   109.5600471 388.275200
    274    286    288     1   109.5600471 388.275200
    275    274    286     1   109.8000471 387.438400
    275    274    276     1   107.5800459 329.699200
    276    274    286     1   109.8000471 387.438400
    277    283    284     1   109.5600471 388.275200
    277    283    285     1   109.5600471 388.275200
    278    277    283     1   109.8000471 387.438400
    278    277    279     1   107.5800459 329.699200
    279    277    283     1   109.8000471 387.438400
    281    280    289     1   109.7800468 425.094400
    281    280    282     1   108.4600466 328.025600
    282    280    289     1   109.7800468 425.094400
    284    283    608     1   109.7800468 425.094400
    284    283    285     1   108.4600466 328.025600
    285    283    608     1   109.7800468 425.094400
    287    286    637     1   109.7800468 425.094400
    287    286    288     1   108.4600466 328.025600
    288    286    637     1   109.7800468 425.094400
    290    291    292     1   109.8800469 414.216000
    290    291    293     1   109.8800469 414.216000
    290    294    295     1   109.8800469 414.216000
    290    294    296     1   109.8800469 414.216000
    290    297    298     1   109.8800469 414.216000
    290    297    299     1   109.8800469 414.216000
    291    303    304     1   109.8000471 387.438400
    291    303    305     1   109.8000471 387.438400
    292    291    303     1   109.5600471 388.275200
    292    291    293     1   108.4600466 328.025600
    293    291    303     1   109.5600471 388.275200
    294    306    307     1   109.8000471 387.438400
    294    306    308     1   109.8000471 387.438400
    295    294    306     1   109.5600471 388.275200
    295    294    296     1   108.4600466 328.025600
    296    294    306     1   109.5600471 388.275200
    297    300    301     1   109.8000471 387.438400
    297    300    302     1   109.8000471 387.438400
    298    297    300     1   109.5600471 388.275200
    298    297    299     1   108.4600466 328.025600
    299    297    300     1   109.5600471 388.275200
    300    309    310     1   109.5600471 388.275200
    300    309    311     1   109.5600471 388.275200
    301    300    309     1   109.8000471 387.438400
    301    300    302     1   107.5800459 329.699200
    302    300    309     1   109.8000471 387.438400
    303    315    316     1   109.5600471 388.275200
    303    315    317     1   109.5600471 388.275200
    304    303    315     1   109.8000471 387.438400
    304    303    305     1   107.5800459 329.699200
    305    303    315     1   109.8000471 387.438400
    306    312    313     1   109.5600471 388.275200
    306    312    314     1   109.5600471 388.275200
    307    306    312     1   109.8000471 387.438400
    307    306    308     1   107.5800459 329.699200
    308    306    312     1   109.8000471 387.438400
    310    309    318     1   109.7800468 425.094400
    310    309    311     1   108.4600466 328.025600
    311    309    318     1   109.7800468 425.094400
    313    312    666     1   109.7800468 425.094400
    313    312    314     1   108.4600466 328.025600
    314    312    666     1   109.7800468 425.094400
    316    315    695     1   109.7800468 425.094400
    316    315    317     1   108.4600466 328.025600
    317    315    695     1   109.7800468 425.094400
    319    320    321     1   109.8800469 414.216000
    319    320    322     1   109.8800469 414.216000
    319    323    324     1   109.8800469 414.216000
    319    323    325     1   109.8800469 414.216000
    319    326    327     1   109.8800469 414.216000
    319    326    328     1   109.8800469 414.216000
    320    332    333     1   109.8000471 387.438400
    320    332    334     1   109.8000471 387.438400
    321    320    332     1   109.5600471 388.275200
    321    320    322     1   108.4600466 328.025600
    322    320    332     1   109.5600471 388.275200
    323    335    336     1   109.8000471 387.438400
    323    335    337     1   109.8000471 387.438400
    324    323    335     1   109.5600471 388.275200
    324    323    325     1   108.4600466 328.025600
    325    323    335     1   109.5600471 388.275200
    326    329    330     1   109.8000471 387.438400
    326    329    331     1   109.8000471 387.438400
    327    326    329     1   109.5600471 388.275200
    327    326    328     1   108.4600466 328.025600
    328    326    329     1   109.5600471 388.275200
    329    338    339     1   109.5600471 388.275200
    329    338    340     1   109.5600471 388.275200
    330    329    338     1   109.8000471 387.438400
    330    329    331     1   107.5800459 329.699200
    331    329    338     1   109.8000471 387.438400
    332    344    345     1   109.5600471 388.275200
    332    344    346     1   109.5600471 388.275200
    333    332    344     1   109.8000471 387.438400
    333    332    334     1   107.5800459 329.699200
    334    332    344     1   109.8000471 387.438400
    335    341    342     1   109.5600471 388.275200
    335    341    343     1   109.5600471 388.275200
    336    335    341     1   109.8000471 387.438400
    336    335    337     1   107.5800459 329.699200
    337    335    341     1   109.8000471 387.438400
    339    338    347     1   109.7800468 425.094400
    339    338    340     1   108.4600466 328.025600
    340    338    347     1   109.7800468 425.094400
    342    341    724     1   109.7800468 425.094400
    342    341    343     1   108.4600466 328.025600
    343    341    724     1   109.7800468 425.094400
    345    344    753     1   109.7800468 425.094400
    345    344    346     1   108.4600466 328.025600
    346    344    753     1   109.7800468 425.094400
    348    349    350     1   109.8800469 414.216000
    348    349    351     1   109.8800469 414.216000
    348    352    353     1   109.8800469 414.216000
    348    352    354     1   109.8800469 414.216000
    348    355    356     1   109.8800469 414.216000
    348    355    357     1   109.8800469 414.216000
    349    361    362     1   109.8000471 387.438400
    349    361    363     1   109.8000471 387.438400
    350    349    361     1   109.5600471 388.275200
    350    349    351     1   108.4600466 328.025600
    351    349    361     1   109.5600471 388.275200
    352    364    365     1   109.8000471 387.438400
    352    364    366     1   109.8000471 387.438400
    353    352    364     1   109.5600471 388.275200
    353    352    354     1   108.4600466 328.025600
    354    352    364     1   109.5600471 388.275200
    355    358    359     1   109.8000471 387.438400
    355    358    360     1   109.8000471 387.438400
    356    355    358     1   109.5600471 388.275200
    356    355    357     1   108.4600466 328.025600
    357    355    358     1   109.5600471 388.275200
    358    367    368     1   109.5600471 388.275200
    358    367    369     1   109.5600471 388.275200
    359    358    367     1   109.8000471 387.438400
    359    358    360     1   107.5800459 329.699200
    360    358    367     1   109.8000471 387.438400
    361    373    374     1   109.5600471 388.275200
    361    373    375     1   109.5600471 388.275200
    362    361    373     1   109.8000471 387.438400
    362    361    363     1   107.5800459 329.699200
    363    361    373     1   109.8000471 387.438400
    364    370    371     1   109.5600471 388.275200
    364    370    372     1   109.5600471 388.275200
    365    364    370     1   109.8000471 387.438400
    365    364    366     1   107.5800459 329.699200
    366    364    370     1   109.8000471 387.438400
    368    367    376     1   109.7800468 425.094400
    368    367    369     1   108.4600466 328.025600
    369    367    376     1   109.7800468 425.094400
    371    370    782     1   109.7800468 425.094400
    371    370    372     1   108.4600466 328.025600
    372    370    782     1   109.7800468 425.094400
    374    373    811     1   109.7800468 425.094400
    374    373    375     1   108.4600466 328.025600
    375    373    811     1   109.7800468 425.094400
    377    378    379     1   109.8800469 414.216000
    377    378    380     1   109.8800469 414.216000
    377    381    382     1   109.8800469 414.216000
    377    381    383     1   109.8800469 414.216000
    377    384    385     1   109.8800469 414.216000
    377    384    386     1   109.8800469 414.216000
    378    390    391     1   109.8000471 387.438400
    378    390    392     1   109.8000471 387.438400
    379    378    390     1   109.5600471 388.275200
    379    378    380     1   108.4600466 328.025600
    380    378    390     1   109.5600471 388.275200
    381    393    394     1   109.8000471 387.438400
    381    393    395     1   109.8000471 387.438400
    382    381    393     1   109.5600471 388.275200
    382    381    383     1   108.4600466 328.025600
    383    381    393     1   109.5600471 388.275200
    384    387    388     1   109.8000471 387.438400
    384    387    389     1   109.8000471 387.438400
    385    384    387     1   109.5600471 388.275200
    385    384    386     1   108.4600466 328.025600
    386    384    387     1   109.5600471 388.275200
    387    396    397     1   109.5600471 388.275200
    387    396    398     1   109.5600471 388.275200
    388    387    396     1   109.8000471 387.438400
    388    387    389     1   107.5800459 329.699200
    389    387    396     1   109.8000471 387.438400
    390    402    403     1   109.5600471 388.275200
    390    402    404     1   109.5600471 388.275200
    391    390    402     1   109.8000471 387.438400
    391    390    392     1   107.5800459 329.699200
    392    390    402     1   109.8000471 387.438400
    393    399    400     1   109.5600471 388.275200
    393    399    401     1   109.5600471 388.275200
    394    393    399     1   109.8000471 387.438400
    394    393    395     1   107.5800459 329.699200
    395    393    399     1   109.8000471 387.438400
    397    396    405     1   109.7800468 425.094400
    397    396    398     1   108.4600466 328.025600
    398    396    405     1   109.7800468 425.094400
    400    399    840     1   109.7800468 425.094400
    400    399    401     1   108.4600466 328.025600
    401    399    840     1   109.7800468 425.094400
    403    402    869     1   109.7800468 425.094400
    403    402    404     1   108.4600466 328.025600
    404    402    869     1   109.7800468 425.094400
    406    407    408     1   109.8800469 414.216000
    406    407    409     1   109.8800469 414.216000
    406    410    411     1   109.8800469 414.216000
    406    410    412     1   109.8800469 414.216000
    406    413    414     1   109.8800469 414.216000
    406    413    415     1   109.8800469 414.216000
    407    419    420     1   109.8000471 387.438400
    407    419    421     1   109.8000471 387.438400
    408    407    419     1   109.5600471 388.275200
    408    407    409     1   108.4600466 328.025600
    409    407    419     1   109.5600471 388.275200
    410    422    423     1   109.8000471 387.438400
    410    422    424     1   109.8000471 387.438400
    411    410    422     1   109.5600471 388.275200
    411    410    412     1   108.4600466 328.025600
    412    410    422     1   109.5600471 388.275200
    413    416    417     1   109.8000471 387.438400
    413    416    418     1   109.8000471 387.438400
    414    413    416     1   109.5600471 388.275200
    414    413    415     1   108.4600466 328.025600
    415    413    416     1   109.5600471 388.275200
    416    425    426     1   109.5600471 388.275200
    416    425    427     1   109.5600471 388.275200
    417    416    425     1   109.8000471 387.438400
    417    416    418     1   107.5800459 329.699200
    418    416    425     1   109.8000471 387.438400
    419    431    432     1   109.5600471 388.275200
    419    431    433     1   109.5600471 388.275200
    420    419    431     1   109.8000471 387.438400
    420    419    421     1   107.5800459 329.699200
    421    419    431     1   109.8000471 387.438400
    422    428    429     1   109.5600471 388.275200
    422    428    430     1   109.5600471 388.275200
    423    422    428     1   109.8000471 387.438400
    423    422    424     1   107.5800459 329.699200
    424    422    428     1   109.8000471 387.438400
    426    425    434     1   109.7800468 425.094400
    426    425    427     1   108.4600466 328.025600
    427    425    434     1   109.7800468 425.094400
    429    428    898     1   109.7800468 425.094400
    429    428    430     1   108.4600466 328.025600
    430    428    898     1   109.7800468 425.094400
    432    431    927     1   109.7800468 425.094400
    432    431    433     1   108.4600466 328.025600
    433    431    927     1   109.7800468 425.094400
    435    436    437     1   109.8800469 414.216000
    435    436    438     1   109.8800469 414.216000
    435    439    440     1   109.8800469 414.216000
    435    439    441     1   109.8800469 414.216000
    435    442    443     1   109.8800469 414.216000
    435    442    444     1   109.8800469 414.216000
    436    448    449     1   109.8000471 387.438400
    436    448    450     1   109.8000471 387.438400
    437    436    448     1   109.5600471 388.275200
    437    436    438     1   108.4600466 328.025600
    438    436    448     1   109.5600471 388.275200
    439    451    452     1   109.8000471 387.438400
    439    451    453     1   109.8000471 387.438400
    440    439    451     1   109.5600471 388.275200
    440    439    441     1   108.4600466 328.025600
    441    439    451     1   109.5600471 388.275200
    442    445    446     1   109.8000471 387.438400
    442    445    447     1   109.8000471 387.438400
    443    442    445     1   109.5600471 388.275200
    443    442    444     1   108.4600466 328.025600
    444    442    445     1   109.5600471 388.275200
    445    454    455     1   109.5600471 388.275200
    445    454    456     1   109.5600471 388.275200
    446    445    454     1   109.8000471 387.438400
    446    445    447     1   107.5800459 329.699200
    447    445    454     1   109.8000471 387.438400
    448    460    461     1   109.5600471 388.275200
    448    460    462     1   109.5600471 388.275200
    449    448    460     1   109.8000471 387.438400
    449    448    450     1   107.5800459 329.699200
    450    448    460     1   109.8000471 387.438400
    451    457    458     1   109.5600471 388.275200
    451    457    459     1   109.5600471 388.275200
    452    451    457     1   109.8000471 387.438400
    452    451    453     1   107.5800459 329.699200
    453    451    457     1   109.8000471 387.438400
    455    454    463     1   109.7800468 425.094400
    455    454    456     1   108.4600466 328.025600
    456    454    463     1   109.7800468 425.094400
    458    457    956     1   109.7800468 425.094400
    458    457    459     1   108.4600466 328.025600
    459    457    956     1   109.7800468 425.094400
    461    460    985     1   109.7800468 425.094400
    461    460    462     1   108.4600466 328.025600
    462    460    985     1   109.7800468 425.094400
    464    465    466     1   109.8800469 414.216000
    464    465    467     1   109.8800469 414.216000
    464    468    469     1   109.8800469 414.216000
    464    468    470     1   109.8800469 414.216000
    464    471    472     1   109.8800469 414.216000
    464    471    473     1   109.8800469 414.216000
    465    477    478     1   109.8000471 387.438400
    465    477    479     1   109.8000471 387.438400
    466    465    477     1   109.5600471 388.275200
    466    465    467     1   108.4600466 328.025600
    467    465    477     1   109.5600471 388.275200
    468    480    481     1   109.8000471 387.438400
    468    480    482     1   109.8000471 387.438400
    469    468    480     1   109.5600471 388.275200
    469    468    470     1   108.4600466 328.025600
    470    468    480     1   109.5600471 388.275200
    471    474    475     1   109.8000471 387.438400
    471    474    476     1   109.8000471 387.438400
    472    471    474     1   109.5600471 388.275200
    472    471    473     1   108.4600466 328.025600
    473    471    474     1   109.5600471 388.275200
    474    483    484     1   109.5600471 388.275200
    474    483    485     1   109.5600471 388.275200
    475    474    483     1   109.8000471 387.438400
    475    474    476     1   107.5800459 329.699200
    476    474    483     1   109.8000471 387.438400
    477    489    490     1   109.5600471 388.275200
    477    489    491     1   109.5600471 388.275200
    478    477    489     1   109.8000471 387.438400
    478    477    479     1   107.5800459 329.699200
    479    477    489     1   109.8000471 387.438400
    480    486    487     1   109.5600471 388.275200
    480    486    488     1   109.5600471 388.275200
    481    480    486     1   109.8000471 387.438400
    481    480    482     1   107.5800459 329.699200
    482    480    486     1   109.8000471 387.438400
    484    483    492     1   109.7800468 425.094400
    484    483    485     1   108.4600466 328.025600
    485    483    492     1   109.7800468 425.094400
    487    486   1014     1   109.7800468 425.094400
    487    486    488     1   108.4600466 328.025600
    488    486   1014     1   109.7800468 425.094400
    490    489   1043     1   109.7800468 425.094400
    490    489    491     1   108.4600466 328.025600
    491    489   1043     1   109.7800468 425.094400
    493    494    495     1   109.8800469 414.216000
    493    494    496     1   109.8800469 414.216000
    493    497    498     1   109.8800469 414.216000
    493    497    499     1   109.8800469 414.216000
    493    500    501     1   109.8800469 414.216000
    493    500    502     1   109.8800469 414.216000
    494    506    507     1   109.8000471 387.438400
    494    506    508     1   109.8000471 387.438400
    495    494    506     1   109.5600471 388.275200
    495    494    496     1   108.4600466 328.025600
    496    494    506     1   109.5600471 388.275200
    497    509    510     1   109.8000471 387.438400
    497    509    511     1   109.8000471 387.438400
    498    497    509     1   109.5600471 388.275200
    498    497    499     1   108.4600466 328.025600
    499    497    509     1   109.5600471 388.275200
    500    503    504     1   109.8000471 387.438400
    500    503    505     1   109.8000471 387.438400
    501    500    503     1   109.5600471 388.275200
    501    500    502     1   108.4600466 328.025600
    502    500    503     1   109.5600471 388.275200
    503    512    513     1   109.5600471 388.275200
    503    512    514     1   109.5600471 388.275200
    504    503    512     1   109.8000471 387.438400
    504    503    505     1   107.5800459 329.699200
    505    503    512     1   109.8000471 387.438400
    506    518    519     1   109.5600471 388.275200
    506    518    520     1   109.5600471 388.275200
    507    506    518     1   109.8000471 387.438400
    507    506    508     1   107.5800459 329.699200
    508    506    518     1   109.8000471 387.438400
    509    515    516     1   109.5600471 388.275200
    509    515    517     1   109.5600471 388.275200
    510    509    515     1   109.8000471 387.438400
    510    509    511     1   107.5800459 329.699200
    511    509    515     1   109.8000471 387.438400
    513    512    521     1   109.7800468 425.094400
    513    512    514     1   108.4600466 328.025600
    514    512    521     1   109.7800468 425.094400
    516    515   1072     1   109.7800468 425.094400
    516    515    517     1   108.4600466 328.025600
    517    515   1072     1   109.7800468 425.094400
    519    518   1101     1   109.7800468 425.094400
    519    518    520     1   108.4600466 328.025600
    520    518   1101     1   109.7800468 425.094400
    522    523    524     1   109.8800469 414.216000
    522    523    525     1   109.8800469 414.216000
    522    526    527     1   109.8800469 414.216000
    522    526    528     1   109.8800469 414.216000
    522    529    530     1   109.8800469 414.216000
    522    529    531     1   109.8800469 414.216000
    523    535    536     1   109.8000471 387.438400
    523    535    537     1   109.8000471 387.438400
    524    523    535     1   109.5600471 388.275200
    524    523    525     1   108.4600466 328.025600
    525    523    535     1   109.5600471 388.275200
    526    538    539     1   109.8000471 387.438400
    526    538    540     1   109.8000471 387.438400
    527    526    538     1   109.5600471 388.275200
    527    526    528     1   108.4600466 328.025600
    528    526    538     1   109.5600471 388.275200
    529    532    533     1   109.8000471 387.438400
    529    532    534     1   109.8000471 387.438400
    530    529    532     1   109.5600471 388.275200
    530    529    531     1   108.4600466 328.025600
    531    529    532     1   109.5600471 388.275200
    532    541    542     1   109.5600471 388.275200
    532    541    543     1   109.5600471 388.275200
    533    532    541     1   109.8000471 387.438400
    533    532    534     1   107.5800459 329.699200
    534    532    541     1   109.8000471 387.438400
    535    547    548     1   109.5600471 388.275200
    535    547    549     1   109.5600471 388.275200
    536    535    547     1   109.8000471 387.438400
    536    535    537     1   107.5800459 329.699200
    537    535    547     1   109.8000471 387.438400
    538    544    545     1   109.5600471 388.275200
    538    544    546     1   109.5600471 388.275200
    539    538    544     1   109.8000471 387.438400
    539    538    540     1   107.5800459 329.699200
    540    538    544     1   109.8000471 387.438400
    542    541    550     1   109.7800468 425.094400
    542    541    543     1   108.4600466 328.025600
    543    541    550     1   109.7800468 425.094400
    545    544   1130     1   109.7800468 425.094400
    545    544    546     1   108.4600466 328.025600
    546    544   1130     1   109.7800468 425.094400
    548    547   1159     1   109.7800468 425.094400
    548    547    549     1   108.4600466 328.025600
    549    547   1159     1   109.7800468 425.094400
    551    552    553     1   109.8800469 414.216000
    551    552    554     1   109.8800469 414.216000
    551    555    556     1   109.8800469 414.216000
    551    555    557     1   109.8800469 414.216000
    551    558    559     1   109.8800469 414.216000
    551    558    560     1   109.8800469 414.216000
    552    564    565     1   109.8000471 387.438400
    552    564    566     1   109.8000471 387.438400
    553    552    564     1   109.5600471 388.275200
    553    552    554     1   108.4600466 328.025600
    554    552    564     1   109.5600471 388.275200
    555    567    568     1   109.8000471 387.438400
    555    567    569     1   109.8000471 387.438400
    556    555    567     1   109.5600471 388.275200
    556    555    557     1   108.4600466 328.025600
    557    555    567     1   109.5600471 388.275200
    558    561    562     1   109.8000471 387.438400
    558    561    563     1   109.8000471 387.438400
    559    558    561     1   109.5600471 388.275200
    559    558    560     1   108.4600466 328.025600
    560    558    561     1   109.5600471 388.275200
    561    570    571     1   109.5600471 388.275200
    561    570    572     1   109.5600471 388.275200
    562    561    570     1   109.8000471 387.438400
    562    561    563     1   107.5800459 329.699200
    563    561    570     1   109.8000471 387.438400
    564    576    577     1   109.5600471 388.275200
    564    576    578     1   109.5600471 388.275200
    565    564    576     1   109.8000471 387.438400
    565    564    566     1   107.5800459 329.699200
    566    564    576     1   109.8000471 387.438400
    567    573    574     1   109.5600471 388.275200
    567    573    575     1   109.5600471 388.275200
    568    567    573     1   109.8000471 387.438400
    568    567    569     1   107.5800459 329.699200
    569    567    573     1   109.8000471 387.438400
    571    570    579     1   109.7800468 425.094400
    571    570    572     1   108.4600466 328.025600
    572    570    579     1   109.7800468 425.094400
    574    573   1188     1   109.7800468 425.094400
    574    573    575     1   108.4600466 328.025600
    575    573   1188     1   109.7800468 425.094400
    577    576   1217     1   109.7800468 425.094400
    577    576    578     1   108.4600466 328.025600
    578    576   1217     1   109.7800468 425.094400
    580    581    582     1   109.8800469 414.216000
    580    581    583     1   109.8800469 414.216000
    580    584    585     1   109.8800469 414.216000
    580    584    586     1   109.8800469 414.216000
    580    587    588     1   109.8800469 414.216000
    580    587    589     1   109.8800469 414.216000
    581    593    594     1   109.8000471 387.438400
    581    593    595     1   109.8000471 387.438400
    582    581    593     1   109.5600471 388.275200
    582    581    583     1   108.4600466 328.025600
    583    581    593     1   109.5600471 388.275200
    584    596    597     1   109.8000471 387.438400
    584    596    598     1   109.8000471 387.438400
    585    584    596     1   109.5600471 388.275200
    585    584    586     1   108.4600466 328.025600
    586    584    596     1   109.5600471 388.275200
    587    590    591     1   109.8000471 387.438400
    587    590    592     1   109.8000471 387.438400
    588    587    590     1   109.5600471 388.275200
    588    587    589     1   108.4600466 328.025600
    589    587    590     1   109.5600471 388.275200
    590    599    600     1   109.5600471 388.275200
    590    599    601     1   109.5600471 388.275200
    591    590    599     1   109.8000471 387.438400
    591    590    592     1   107.5800459 329.699200
    592    590    599     1   109.8000471 387.438400
    593    605    606     1   109.5600471 388.275200
    593    605    607     1   109.5600471 388.275200
    594    593    605     1   109.8000471 387.438400
    594    593    595     1   107.5800459 329.699200
    595    593    605     1   109.8000471 387.438400
    596    602    603     1   109.5600471 388.275200
    596    602    604     1   109.5600471 388.275200
    597    596    602     1   109.8000471 387.438400
    597    596    598     1   107.5800459 329.699200
    598    596    602     1   109.8000471 387.438400
    600    599    608     1   109.7800468 425.094400
    600    599    601     1   108.4600466 328.025600
    601    599    608     1   109.7800468 425.094400
    603    602   1246     1   109.7800468 425.094400
    603    602    604     1   108.4600466 328.025600
    604    602   1246     1   109.7800468 425.094400
    606    605   1275     1   109.7800468 425.094400
    606    605    607     1   108.4600466 328.025600
    607    605   1275     1   109.7800468 425.094400
    609    610    611     1   109.8800469 414.216000
    609    610    612     1   109.8800469 414.216000
    609    613    614     1   109.8800469 414.216000
    609    613    615     1   109.8800469 414.216000
    609    616    617     1   109.8800469 414.216000
    609    616    618     1   109.8800469 414.216000
    610    622    623     1   109.8000471 387.438400
    610    622    624     1   109.8000471 387.438400
    611    610    622     1   109.5600471 388.275200
    611    610    612     1   108.4600466 328.025600
    612    610    622     1   109.5600471 388.275200
    613    625    626     1   109.8000471 387.438400
    613    625    627     1   109.8000471 387.438400
    614    613    625     1   109.5600471 388.275200
    614    613    615     1   108.4600466 328.025600
    615    613    625     1   109.5600471 388.275200
    616    619    620     1   109.8000471 387.438400
    616    619    621     1   109.8000471 387.438400
    617    616    619     1   109.5600471 388.275200
    617    616    618     1   108.4600466 328.025600
    618    616    619     1   109.5600471 388.275200
    619    628    629     1   109.5600471 388.275200
    619    628    630     1   109.5600471 388.275200
    620    619    628     1   109.8000471 387.438400
    620    619    621     1   107.5800459 329.699200
    621    619    628     1   109.8000471 387.438400
    622    634    635     1   109.5600471 388.275200
    622    634    636     1   109.5600471 388.275200
    623    622    634     1   109.8000471 387.438400
    623    622    624     1   107.5800459 329.699200
    624    622    634     1   109.8000471 387.438400
    625    631    632     1   109.5600471 388.275200
    625    631    633     1   109.5600471 388.275200
    626    625    631     1   109.8000471 387.438400
    626    625    627     1   107.5800459 329.699200
    627    625    631     1   109.8000471 387.438400
    629    628    637     1   109.7800468 425.094400
    629    628    630     1   108.4600466 328.025600
    630    628    637     1   109.7800468 425.094400
    632    631   1304     1   109.7800468 425.094400
    632    631    633     1   108.4600466 328.025600
    633    631   1304     1   109.7800468 425.094400
    635    634   1333     1   109.7800468 425.094400
    635    634    636     1   108.4600466 328.025600
    636    634   1333     1   109.7800468 425.094400
    638    639    640     1   109.8800469 414.216000
    638    639    641     1   109.8800469 414.216000
    638    642    643     1   109.8800469 414.216000
    638    642    644     1   109.8800469 414.216000
    638    645    646     1   109.8800469 414.216000
    638    645    647     1   109.8800469 414.216000
    639    651    652     1   109.8000471 387.438400
    639    651    653     1   109.8000471 387.438400
    640    639    651     1   109.5600471 388.275200
    640    639    641     1   108.4600466 328.025600
    641    639    651     1   109.5600471 388.275200
    642    654    655     1   109.8000471 387.438400
    642    654    656     1   109.8000471 387.438400
    643    642    654     1   109.5600471 388.275200
    643    642    644     1   108.4600466 328.025600
    644    642    654     1   109.5600471 388.275200
    645    648    649     1   109.8000471 387.438400
    645    648    650     1   109.8000471 387.438400
    646    645    648     1   109.5600471 388.275200
    646    645    647     1   108.4600466 328.025600
    647    645    648     1   109.5600471 388.275200
    648    657    658     1   109.5600471 388.275200
    648    657    659     1   109.5600471 388.275200
    649    648    657     1   109.8000471 387.438400
    649    648    650     1   107.5800459 329.699200
    650    648    657     1   109.8000471 387.438400
    651    663    664     1   109.5600471 388.275200
    651    663    665     1   109.5600471 388.275200
    652    651    663     1   109.8000471 387.438400
    652    651    653     1   107.5800459 329.699200
    653    651    663     1   109.8000471 387.438400
    654    660    661     1   109.5600471 388.275200
    654    660    662     1   109.5600471 388.275200
    655    654    660     1   109.8000471 387.438400
    655    654    656     1   107.5800459 329.699200
    656    654    660     1   109.8000471 387.438400
    658    657    666     1   109.7800468 425.094400
    658    657    659     1   108.4600466 328.025600
    659    657    666     1   109.7800468 425.094400
    661    660   1362     1   109.7800468 425.094400
    661    660    662     1   108.4600466 328.025600
    662    660   1362     1   109.7800468 425.094400
    664    663   1391     1   109.7800468 425.094400
    664    663    665     1   108.4600466 328.025600
    665    663   1391     1   109.7800468 425.094400
    667    668    669     1   109.8800469 414.216000
    667    668    670     1   109.8800469 414.216000
    667    671    672     1   109.8800469 414.216000
    667    671    673     1   109.8800469 414.216000
    667    674    675     1   109.8800469 414.216000
    667    674    676     1   109.8800469 414.216000
    668    680    681     1   109.8000471 387.438400
    668    680    682     1   109.8000471 387.438400
    669    668    680     1   109.5600471 388.275200
    669    668    670     1   108.4600466 328.025600
    670    668    680     1   109.5600471 388.275200
    671    683    684     1   109.8000471 387.438400
    671    683    685     1   109.8000471 387.438400
    672    671    683     1   109.5600471 388.275200
    672    671    673     1   108.4600466 328.025600
    673    671    683     1   109.5600471 388.275200
    674    677    678     1   109.8000471 387.438400
    674    677    679     1   109.8000471 387.438400
    675    674    677     1   109.5600471 388.275200
    675    674    676     1   108.4600466 328.025600
    676    674    677     1   109.5600471 388.275200
    677    686    687     1   109.5600471 388.275200
    677    686    688     1   109.5600471 388.275200
    678    677    686     1   109.8000471 387.438400
    678    677    679     1   107.5800459 329.699200
    679    677    686     1   109.8000471 387.438400
    680    692    693     1   109.5600471 388.275200
    680    692    694     1   109.5600471 388.275200
    681    680    692     1   109.8000471 387.438400
    681    680    682     1   107.5800459 329.699200
    682    680    692     1   109.8000471 387.438400
    683    689    690     1   109.5600471 388.275200
    683    689    691     1   109.5600471 388.275200
    684    683    689     1   109.8000471 387.438400
    684    683    685     1   107.5800459 329.699200
    685    683    689     1   109.8000471 387.438400
    687    686    695     1   109.7800468 425.094400
    687    686    688     1   108.4600466 328.025600
    688    686    695     1   109.7800468 425.094400
    690    689   1420     1   109.7800468 425.094400
    690    689    691     1   108.4600466 328.025600
    691    689   1420     1   109.7800468 425.094400
    693    692   1449     1   109.7800468 425.094400
    693    692    694     1   108.4600466 328.025600
    694    692   1449     1   109.7800468 425.094400
    696    697    698     1   109.8800469 414.216000
    696    697    699     1   109.8800469 414.216000
    696    700    701     1   109.8800469 414.216000
    696    700    702     1   109.8800469 414.216000
    696    703    704     1   109.8800469 414.216000
    696    703    705     1   109.8800469 414.216000
    697    709    710     1   109.8000471 387.438400
    697    709    711     1   109.8000471 387.438400
    698    697    709     1   109.5600471 388.275200
    698    697    699     1   108.4600466 328.025600
    699    697    709     1   109.5600471 388.275200
    700    712    713     1   109.8000471 387.438400
    700    712    714     1   109.8000471 387.438400
    701    700    712     1   109.5600471 388.275200
    701    700    702     1   108.4600466 328.025600
    702    700    712     1   109.5600471 388.275200
    703    706    707     1   109.8000471 387.438400
    703    706    708     1   109.8000471 387.438400
    704    703    706     1   109.5600471 388.275200
    704    703    705     1   108.4600466 328.025600
    705    703    706     1   109.5600471 388.275200
    706    715    716     1   109.5600471 388.275200
    706    715    717     1   109.5600471 388.275200
    707    706    715     1   109.8000471 387.438400
    707    706    708     1   107.5800459 329.699200
    708    706    715     1   109.8000471 387.438400
    709    721    722     1   109.5600471 388.275200
    709    721    723     1   109.5600471 388.275200
    710    709    721     1   109.8000471 387.438400
    710    709    711     1   107.5800459 329.699200
    711    709    721     1   109.8000471 387.438400
    712    718    719     1   109.5600471 388.275200
    712    718    720     1   109.5600471 388.275200
    713    712    718     1   109.8000471 387.438400
    713    712    714     1   107.5800459 329.699200
    714    712    718     1   109.8000471 387.438400
    716    715    724     1   109.7800468 425.094400
    716    715    717     1   108.4600466 328.025600
    717    715    724     1   109.7800468 425.094400
    719    718   1478     1   109.7800468 425.094400
    719    718    720     1   108.4600466 328.025600
    720    718   1478     1   109.7800468 425.094400
    722    721   1507     1   109.7800468 425.094400
    722    721    723     1   108.4600466 328.025600
    723    721   1507     1   109.7800468 425.094400
    725    726    727     1   109.8800469 414.216000
    725    726    728     1   109.8800469 414.216000
    725    729    730     1   109.8800469 414.216000
    725    729    731     1   109.8800469 414.216000
    725    732    733     1   109.8800469 414.216000
    725    732    734     1   109.8800469 414.216000
    726    738    739     1   109.8000471 387.438400
    726    738    740     1   109.8000471 387.438400
    727    726    738     1   109.5600471 388.275200
    727    726    728     1   108.4600466 328.025600
    728    726    738     1   109.5600471 388.275200
    729    741    742     1   109.8000471 387.438400
    729    741    743     1   109.8000471 387.438400
    730    729    741     1   109.5600471 388.275200
    730    729    731     1   108.4600466 328.025600
    731    729    741     1   109.5600471 388.275200
    732    735    736     1   109.8000471 387.438400
    732    735    737     1   109.8000471 387.438400
    733    732    735     1   109.5600471 388.275200
    733    732    734     1   108.4600466 328.025600
    734    732    735     1   109.5600471 388.275200
    735    744    745     1   109.5600471 388.275200
    735    744    746     1   109.5600471 388.275200
    736    735    744     1   109.8000471 387.438400
    736    735    737     1   107.5800459 329.699200
    737    735    744     1   109.8000471 387.438400
    738    750    751     1   109.5600471 388.275200
    738    750    752     1   109.5600471 388.275200
    739    738    750     1   109.8000471 387.438400
    739    738    740     1   107.5800459 329.699200
    740    738    750     1   109.8000471 387.438400
    741    747    748     1   109.5600471 388.275200
    741    747    749     1   109.5600471 388.275200
    742    741    747     1   109.8000471 387.438400
    742    741    743     1   107.5800459 329.699200
    743    741    747     1   109.8000471 387.438400
    745    744    753     1   109.7800468 425.094400
    745    744    746     1   108.4600466 328.025600
    746    744    753     1   109.7800468 425.094400
    748    747   1536     1   109.7800468 425.094400
    748    747    749     1   108.4600466 328.025600
    749    747   1536     1   109.7800468 425.094400
    751    750   1565     1   109.7800468 425.094400
    751    750    752     1   108.4600466 328.025600
    752    750   1565     1   109.7800468 425.094400
    754    755    756     1   109.8800469 414.216000
    754    755    757     1   109.8800469 414.216000
    754    758    759     1   109.8800469 414.216000
    754    758    760     1   109.8800469 414.216000
    754    761    762     1   109.8800469 414.216000
    754    761    763     1   109.8800469 414.216000
    755    767    768     1   109.8000471 387.438400
    755    767    769     1   109.8000471 387.438400
    756    755    767     1   109.5600471 388.275200
    756    755    757     1   108.4600466 328.025600
    757    755    767     1   109.5600471 388.275200
    758    770    771     1   109.8000471 387.438400
    758    770    772     1   109.8000471 387.438400
    759    758    770     1   109.5600471 388.275200
    759    758    760     1   108.4600466 328.025600
    760    758    770     1   109.5600471 388.275200
    761    764    765     1   109.8000471 387.438400
    761    764    766     1   109.8000471 387.438400
    762    761    764     1   109.5600471 388.275200
    762    761    763     1   108.4600466 328.025600
    763    761    764     1   109.5600471 388.275200
    764    773    774     1   109.5600471 388.275200
    764    773    775     1   109.5600471 388.275200
    765    764    773     1   109.8000471 387.438400
    765    764    766     1   107.5800459 329.699200
    766    764    773     1   109.8000471 387.438400
    767    779    780     1   109.5600471 388.275200
    767    779    781     1   109.5600471 388.275200
    768    767    779     1   109.8000471 387.438400
    768    767    769     1   107.5800459 329.699200
    769    767    779     1   109.8000471 387.438400
    770    776    777     1   109.5600471 388.275200
    770    776    778     1   109.5600471 388.275200
    771    770    776     1   109.8000471 387.438400
    771    770    772     1   107.5800459 329.699200
    772    770    776     1   109.8000471 387.438400
    774    773    782     1   109.7800468 425.094400
    774    773    775     1   108.4600466 328.025600
    775    773    782     1   109.7800468 425.094400
    777    776   1594     1   109.7800468 425.094400
    777    776    778     1   108.4600466 328.025600
    778    776   1594     1   109.7800468 425.094400
    780    779   1623     1   109.7800468 425.094400
    780    779    781     1   108.4600466 328.025600
    781    779   1623     1   109.7800468 425.094400
    783    784    785     1   109.8800469 414.216000
    783    784    786     1   109.8800469 414.216000
    783    787    788     1   109.8800469 414.216000
    783    787    789     1   109.8800469 414.216000
    783    790    791     1   109.8800469 414.216000
    783    790    792     1   109.8800469 414.216000
    784    796    797     1   109.8000471 387.438400
    784    796    798     1   109.8000471 387.438400
    785    784    796     1   109.5600471 388.275200
    785    784    786     1   108.4600466 328.025600
    786    784    796     1   109.5600471 388.275200
    787    799    800     1   109.8000471 387.438400
    787    799    801     1   109.8000471 387.438400
    788    787    799     1   109.5600471 388.275200
    788    787    789     1   108.4600466 328.025600
    789    787    799     1   109.5600471 388.275200
    790    793    794     1   109.8000471 387.438400
    790    793    795     1   109.8000471 387.438400
    791    790    793     1   109.5600471 388.275200
    791    790    792     1   108.4600466 328.025600
    792    790    793     1   109.5600471 388.275200
    793    802    803     1   109.5600471 388.275200
    793    802    804     1   109.5600471 388.275200
    794    793    802     1   109.8000471 387.438400
    794    793    795     1   107.5800459 329.699200
    795    793    802     1   109.8000471 387.438400
    796    808    809     1   109.5600471 388.275200
    796    808    810     1   109.5600471 388.275200
    797    796    808     1   109.8000471 387.438400
    797    796    798     1   107.5800459 329.699200
    798    796    808     1   109.8000471 387.438400
    799    805    806     1   109.5600471 388.275200
    799    805    807     1   109.5600471 388.275200
    800    799    805     1   109.8000471 387.438400
    800    799    801     1   107.5800459 329.699200
    801    799    805     1   109.8000471 387.438400
    803    802    811     1   109.7800468 425.094400
    803    802    804     1   108.4600466 328.025600
    804    802    811     1   109.7800468 425.094400
    806    805   1652     1   109.7800468 425.094400
    806    805    807     1   108.4600466 328.025600
    807    805   1652     1   109.7800468 425.094400
    809    808   1681     1   109.7800468 425.094400
    809    808    810     1   108.4600466 328.025600
    810    808   1681     1   109.7800468 425.094400
    812    813    814     1   109.8800469 414.216000
    812    813    815     1   109.8800469 414.216000
    812    816    817     1   109.8800469 414.216000
    812    816    818     1   109.8800469 414.216000
    812    819    820     1   109.8800469 414.216000
    812    819    821     1   109.8800469 414.216000
    813    825    826     1   109.8000471 387.438400
    813    825    827     1   109.8000471 387.438400
    814    813    825     1   109.5600471 388.275200
    814    813    815     1   108.4600466 328.025600
    815    813    825     1   109.5600471 388.275200
    816    828    829     1   109.8000471 387.438400
    816    828    830     1   109.8000471 387.438400
    817    816    828     1   109.5600471 388.275200
    817    816    818     1   108.4600466 328.025600
    818    816    828     1   109.5600471 388.275200
    819    822    823     1   109.8000471 387.438400
    819    822    824     1   109.8000471 387.438400
    820    819    822     1   109.5600471 388.275200
    820    819    821     1   108.4600466 328.025600
    821    819    822     1   109.5600471 388.275200
    822    831    832     1   109.5600471 388.275200
    822    831    833     1   109.5600471 388.275200
    823    822    831     1   109.8000471 387.438400
    823    822    824     1   107.5800459 329.699200
    824    822    831     1   109.8000471 387.438400
    825    837    838     1   109.5600471 388.275200
    825    837    839     1   109.5600471 388.275200
    826    825    837     1   109.8000471 387.438400
    826    825    827     1   107.5800459 329.699200
    827    825    837     1   109.8000471 387.438400
    828    834    835     1   109.5600471 388.275200
    828    834    836     1   109.5600471 388.275200
    829    828    834     1   109.8000471 387.438400
    829    828    830     1   107.5800459 329.699200
    830    828    834     1   109.8000471 387.438400
    832    831    840     1   109.7800468 425.094400
    832    831    833     1   108.4600466 328.025600
    833    831    840     1   109.7800468 425.094400
    835    834   1710     1   109.7800468 425.094400
    835    834    836     1   108.4600466 328.025600
    836    834   1710     1   109.7800468 425.094400
    838    837   1739     1   109.7800468 425.094400
    838    837    839     1   108.4600466 328.025600
    839    837   1739     1   109.7800468 425.094400
    841    842    843     1   109.8800469 414.216000
    841    842    844     1   109.8800469 414.216000
    841    845    846     1   109.8800469 414.216000
    841    845    847     1   109.8800469 414.216000
    841    848    849     1   109.8800469 414.216000
    841    848    850     1   109.8800469 414.216000
    842    854    855     1   109.8000471 387.438400
    842    854    856     1   109.8000471 387.438400
    843    842    854     1   109.5600471 388.275200
    843    842    844     1   108.4600466 328.025600
    844    842    854     1   109.5600471 388.275200
    845    857    858     1   109.8000471 387.438400
    845    857    859     1   109.8000471 387.438400
    846    845    857     1   109.5600471 388.275200
    846    845    847     1   108.4600466 328.025600
    847    845    857     1   109.5600471 388.275200
    848    851    852     1   109.8000471 387.438400
    848    851    853     1   109.8000471 387.438400
    849    848    851     1   109.5600471 388.275200
    849    848    850     1   108.4600466 328.025600
    850    848    851     1   109.5600471 388.275200
    851    860    861     1   109.5600471 388.275200
    851    860    862     1   109.5600471 388.275200
    852    851    860     1   109.8000471 387.438400
    852    851    853     1   107.5800459 329.699200
    853    851    860     1   109.8000471 387.438400
    854    866    867     1   109.5600471 388.275200
    854    866    868     1   109.5600471 388.275200
    855    854    866     1   109.8000471 387.438400
    855    854    856     1   107.5800459 329.699200
    856    854    866     1   109.8000471 387.438400
    857    863    864     1   109.5600471 388.275200
    857    863    865     1   109.5600471 388.275200
    858    857    863     1   109.8000471 387.438400
    858    857    859     1   107.5800459 329.699200
    859    857    863     1   109.8000471 387.438400
    861    860    869     1   109.7800468 425.094400
    861    860    862     1   108.4600466 328.025600
    862    860    869     1   109.7800468 425.094400
    864    863   1768     1   109.7800468 425.094400
    864    863    865     1   108.4600466 328.025600
    865    863   1768     1   109.7800468 425.094400
    867    866   1797     1   109.7800468 425.094400
    867    866    868     1   108.4600466 328.025600
    868    866   1797     1   109.7800468 425.094400
    870    871    872     1   109.8800469 414.216000
    870    871    873     1   109.8800469 414.216000
    870    874    875     1   109.8800469 414.216000
    870    874    876     1   109.8800469 414.216000
    870    877    878     1   109.8800469 414.216000
    870    877    879     1   109.8800469 414.216000
    871    883    884     1   109.8000471 387.438400
    871    883    885     1   109.8000471 387.438400
    872    871    883     1   109.5600471 388.275200
    872    871    873     1   108.4600466 328.025600
    873    871    883     1   109.5600471 388.275200
    874    886    887     1   109.8000471 387.438400
    874    886    888     1   109.8000471 387.438400
    875    874    886     1   109.5600471 388.275200
    875    874    876     1   108.4600466 328.025600
    876    874    886     1   109.5600471 388.275200
    877    880    881     1   109.8000471 387.438400
    877    880    882     1   109.8000471 387.438400
    878    877    880     1   109.5600471 388.275200
    878    877    879     1   108.4600466 328.025600
    879    877    880     1   109.5600471 388.275200
    880    889    890     1   109.5600471 388.275200
    880    889    891     1   109.5600471 388.275200
    881    880    889     1   109.8000471 387.438400
    881    880    882     1   107.5800459 329.699200
    882    880    889     1   109.8000471 387.438400
    883    895    896     1   109.5600471 388.275200
    883    895    897     1   109.5600471 388.275200
    884    883    895     1   109.8000471 387.438400
    884    883    885     1   107.5800459 329.699200
    885    883    895     1   109.8000471 387.438400
    886    892    893     1   109.5600471 388.275200
    886    892    894     1   109.5600471 388.275200
    887    886    892     1   109.8000471 387.438400
    887    886    888     1   107.5800459 329.699200
    888    886    892     1   109.8000471 387.438400
    890    889    898     1   109.7800468 425.094400
    890    889    891     1   108.4600466 328.025600
    891    889    898     1   109.7800468 425.094400
    893    892   1826     1   109.7800468 425.094400
    893    892    894     1   108.4600466 328.025600
    894    892   1826     1   109.7800468 425.094400
    896    895   1855     1   109.7800468 425.094400
    896    895    897     1   108.4600466 328.025600
    897    895   1855     1   109.7800468 425.094400
    899    900    901     1   109.8800469 414.216000
    899    900    902     1   109.8800469 414.216000
    899    903    904     1   109.8800469 414.216000
    899    903    905     1   109.8800469 414.216000
    899    906    907     1   109.8800469 414.216000
    899    906    908     1   109.8800469 414.216000
    900    912    913     1   109.8000471 387.438400
    900    912    914     1   109.8000471 387.438400
    901    900    912     1   109.5600471 388.275200
    901    900    902     1   108.4600466 328.025600
    902    900    912     1   109.5600471 388.275200
    903    915    916     1   109.8000471 387.438400
    903    915    917     1   109.8000471 387.438400
    904    903    915     1   109.5600471 388.275200
    904    903    905     1   108.4600466 328.025600
    905    903    915     1   109.5600471 388.275200
    906    909    910     1   109.8000471 387.438400
    906    909    911     1   109.8000471 387.438400
    907    906    909     1   109.5600471 388.275200
    907    906    908     1   108.4600466 328.025600
    908    906    909     1   109.5600471 388.275200
    909    918    919     1   109.5600471 388.275200
    909    918    920     1   109.5600471 388.275200
    910    909    918     1   109.8000471 387.438400
    910    909    911     1   107.5800459 329.699200
    911    909    918     1   109.8000471 387.438400
    912    924    925     1   109.5600471 388.275200
    912    924    926     1   109.5600471 388.275200
    913    912    924     1   109.8000471 387.438400
    913    912    914     1   107.5800459 329.699200
    914    912    924     1   109.8000471 387.438400
    915    921    922     1   109.5600471 388.275200
    915    921    923     1   109.5600471 388.275200
    916    915    921     1   109.8000471 387.438400
    916    915    917     1   107.5800459 329.699200
    917    915    921     1   109.8000471 387.438400
    919    918    927     1   109.7800468 425.094400
    919    918    920     1   108.4600466 328.025600
    920    918    927     1   109.7800468 425.094400
    922    921   1884     1   109.7800468 425.094400
    922    921    923     1   108.4600466 328.025600
    923    921   1884     1   109.7800468 425.094400
    925    924   1913     1   109.7800468 425.094400
    925    924    926     1   108.4600466 328.025600
    926    924   1913     1   109.7800468 425.094400
    928    929    930     1   109.8800469 414.216000
    928    929    931     1   109.8800469 414.216000
    928    932    933     1   109.8800469 414.216000
    928    932    934     1   109.8800469 414.216000
    928    935    936     1   109.8800469 414.216000
    928    935    937     1   109.8800469 414.216000
    929    941    942     1   109.8000471 387.438400
    929    941    943     1   109.8000471 387.438400
    930    929    941     1   109.5600471 388.275200
    930    929    931     1   108.4600466 328.025600
    931    929    941     1   109.5600471 388.275200
    932    944    945     1   109.8000471 387.438400
    932    944    946     1   109.8000471 387.438400
    933    932    944     1   109.5600471 388.275200
    933    932    934     1   108.4600466 328.025600
    934    932    944     1   109.5600471 388.275200
    935    938    939     1   109.8000471 387.438400
    935    938    940     1   109.8000471 387.438400
    936    935    938     1   109.5600471 388.275200
    936    935    937     1   108.4600466 328.025600
    937    935    938     1   109.5600471 388.275200
    938    947    948     1   109.5600471 388.275200
    938    947    949     1   109.5600471 388.275200
    939    938    947     1   109.8000471 387.438400
    939    938    940     1   107.5800459 329.699200
    940    938    947     1   109.8000471 387.438400
    941    953    954     1   109.5600471 388.275200
    941    953    955     1   109.5600471 388.275200
    942    941    953     1   109.8000471 387.438400
    942    941    943     1   107.5800459 329.699200
    943    941    953     1   109.8000471 387.438400
    944    950    951     1   109.5600471 388.275200
    944    950    952     1   109.5600471 388.275200
    945    944    950     1   109.8000471 387.438400
    945    944    946     1   107.5800459 329.699200
    946    944    950     1   109.8000471 387.438400
    948    947    956     1   109.7800468 425.094400
    948    947    949     1   108.4600466 328.025600
    949    947    956     1   109.7800468 425.094400
    951    950   1942     1   109.7800468 425.094400
    951    950    952     1   108.4600466 328.025600
    952    950   1942     1   109.7800468 425.094400
    954    953   1971     1   109.7800468 425.094400
    954    953    955     1   108.4600466 328.025600
    955    953   1971     1   109.7800468 425.094400
    957    958    959     1   109.8800469 414.216000
    957    958    960     1   109.8800469 414.216000
    957    961    962     1   109.8800469 414.216000
    957    961    963     1   109.8800469 414.216000
    957    964    965     1   109.8800469 414.216000
    957    964    966     1   109.8800469 414.216000
    958    970    971     1   109.8000471 387.438400
    958    970    972     1   109.8000471 387.438400
    959    958    970     1   109.5600471 388.275200
    959    958    960     1   108.4600466 328.025600
    960    958    970     1   109.5600471 388.275200
    961    973    974     1   109.8000471 387.438400
    961    973    975     1   109.8000471 387.438400
    962    961    973     1   109.5600471 388.275200
    962    961    963     1   108.4600466 328.025600
    963    961    973     1   109.5600471 388.275200
    964    967    968     1   109.8000471 387.438400
    964    967    969     1   109.8000471 387.438400
    965    964    967     1   109.5600471 388.275200
    965    964    966     1   108.4600466 328.025600
    966    964    967     1   109.5600471 388.275200
    967    976    977     1   109.5600471 388.275200
    967    976    978     1   109.5600471 388.275200
    968    967    976     1   109.8000471 387.438400
    968    967    969     1   107.5800459 329.699200
    969    967    976     1   109.8000471 387.438400
    970    982    983     1   109.5600471 388.275200
    970    982    984     1   109.5600471 388.275200
    971    970    982     1   109.8000471 387.438400
    971    970    972     1   107.5800459 329.699200
    972    970    982     1   109.8000471 387.438400
    973    979    980     1   109.5600471 388.275200
    973    979    981     1   109.5600471 388.275200
    974    973    979     1   109.8000471 387.438400
    974    973    975     1   107.5800459 329.699200
    975    973    979     1   109.8000471 387.438400
    977    976    985     1   109.7800468 425.094400
    977    976    978     1   108.4600466 328.025600
    978    976    985     1   109.7800468 425.094400
    980    979   2000     1   109.7800468 425.094400
    980    979    981     1   108.4600466 328.025600
    981    979   2000     1   109.7800468 425.094400
    983    982   2029     1   109.7800468 425.094400
    983    982    984     1   108.4600466 328.025600
    984    982   2029     1   109.7800468 425.094400
    986    987    988     1   109.8800469 414.216000
    986    987    989     1   109.8800469 414.216000
    986    990    991     1   109.8800469 414.216000
    986    990    992     1   109.8800469 414.216000
    986    993    994     1   109.8800469 414.216000
    986    993    995     1   109.8800469 414.216000
    987    999   1000     1   109.8000471 387.438400
    987    999   1001     1   109.8000471 387.438400
    988    987    999     1   109.5600471 388.275200
    988    987    989     1   108.4600466 328.025600
    989    987    999     1   109.5600471 388.275200
    990   1002   1003     1   109.8000471 387.438400
    990   1002   1004     1   109.8000471 387.438400
    991    990   1002     1   109.5600471 388.275200
    991    990    992     1   108.4600466 328.025600
    992    990   1002     1   109.5600471 388.275200
    993    996    997     1   109.8000471 387.438400
    993    996    998     1   109.8000471 387.438400
    994    993    996     1   109.5600471 388.275200
    994    993    995     1   108.4600466 328.025600
    995    993    996     1   109.5600471 388.275200
    996   1005   1006     1   109.5600471 388.275200
    996   1005   1007     1   109.5600471 388.275200
    997    996   1005     1   109.8000471 387.438400
    997    996    998     1   107.5800459 329.699200
    998    996   1005     1   109.8000471 387.438400
    999   1011   1012     1   109.5600471 388.275200
    999   1011   1013     1   109.5600471 388.275200
   1000    999   1011     1   109.8000471 387.438400
   1000    999   1001     1   107.5800459 329.699200
   1001    999   1011     1   109.8000471 387.438400
   1002   1008   1009     1   109.5600471 388.275200
   1002   1008   1010     1   109.5600471 388.275200
   1003   1002   1008     1   109.8000471 387.438400
   1003   1002   1004     1   107.5800459 329.699200
   1004   1002   1008     1   109.8000471 387.438400
   1006   1005   1014     1   109.7800468 425.094400
   1006   1005   1007     1   108.4600466 328.025600
   1007   1005   1014     1   109.7800468 425.094400
   1009   1008   2058     1   109.7800468 425.094400
   1009   1008   1010     1   108.4600466 328.025600
   1010   1008   2058     1   109.7800468 425.094400
   1012   1011   2087     1   109.7800468 425.094400
   1012   1011   1013     1   108.4600466 328.025600
   1013   1011   2087     1   109.7800468 425.094400
   1015   1016   1017     1   109.8800469 414.216000
   1015   1016   1018     1   109.8800469 414.216000
   1015   1019   1020     1   109.8800469 414.216000
   1015   1019   1021     1   109.8800469 414.216000
   1015   1022   1023     1   109.8800469 414.216000
   1015   1022   1024     1   109.8800469 414.216000
   1016   1028   1029     1   109.8000471 387.438400
   1016   1028   1030     1   109.8000471 387.438400
   1017   1016   1028     1   109.5600471 388.275200
   1017   1016   1018     1   108.4600466 328.025600
   1018   1016   1028     1   109.5600471 388.275200
   1019   1031   1032     1   109.8000471 387.438400
   1019   1031   1033     1   109.8000471 387.438400
   1020   1019   1031     1   109.5600471 388.275200
   1020   1019   1021     1   108.4600466 328.025600
   1021   1019   1031     1   109.5600471 388.275200
   1022   1025   1026     1   109.8000471 387.438400
   1022   1025   1027     1   109.8000471 387.438400
   1023   1022   1025     1   109.5600471 388.275200
   1023   1022   1024     1   108.4600466 328.025600
   1024   1022   1025     1   109.5600471 388.275200
   1025   1034   1035     1   109.5600471 388.275200
   1025   1034   1036     1   109.5600471 388.275200
   1026   1025   1034     1   109.8000471 387.438400
   1026   1025   1027     1   107.5800459 329.699200
   1027   1025   1034     1   109.8000471 387.438400
   1028   1040   1041     1   109.5600471 388.275200
   1028   1040   1042     1   109.5600471 388.275200
   1029   1028   1040     1   109.8000471 387.438400
   1029   1028   1030     1   107.5800459 329.699200
   1030   1028   1040     1   109.8000471 387.438400
   1031   1037   1038     1   109.5600471 388.275200
   1031   1037   1039     1   109.5600471 388.275200
   1032   1031   1037     1   109.8000471 387.438400
   1032   1031   1033     1   107.5800459 329.699200
   1033   1031   1037     1   109.8000471 387.438400
   1035   1034   1043     1   109.7800468 425.094400
   1035   1034   1036     1   108.4600466 328.025600
   1036   1034   1043     1   109.7800468 425.094400
   1038   1037   2116     1   109.7800468 425.094400
   1038   1037   1039     1   108.4600466 328.025600
   1039   1037   2116     1   109.7800468 425.094400
   1041   1040   2145     1   109.7800468 425.094400
   1041   1040   1042     1   108.4600466 328.025600
   1042   1040   2145     1   109.7800468 425.094400
   1044   1045   1046     1   109.8800469 414.216000
   1044   1045   1047     1   109.8800469 414.216000
   1044   1048   1049     1   109.8800469 414.216000
   1044   1048   1050     1   109.8800469 414.216000
   1044   1051   1052     1   109.8800469 414.216000
   1044   1051   1053     1   109.8800469 414.216000
   1045   1057   1058     1   109.8000471 387.438400
   1045   1057   1059     1   109.8000471 387.438400
   1046   1045   1057     1   109.5600471 388.275200
   1046   1045   1047     1   108.4600466 328.025600
   1047   1045   1057     1   109.5600471 388.275200
   1048   1060   1061     1   109.8000471 387.438400
   1048   1060   1062     1   109.8000471 387.438400
   1049   1048   1060     1   109.5600471 388.275200
   1049   1048   1050     1   108.4600466 328.025600
   1050   1048   1060     1   109.5600471 388.275200
   1051   1054   1055     1   109.8000471 387.438400
   1051   1054   1056     1   109.8000471 387.438400
   1052   1051   1054     1   109.5600471 388.275200
   1052   1051   1053     1   108.4600466 328.025600
   1053   1051   1054     1   109.5600471 388.275200
   1054   1063   1064     1   109.5600471 388.275200
   1054   1063   1065     1   109.5600471 388.275200
   1055   1054   1063     1   109.8000471 387.438400
   1055   1054   1056     1   107.5800459 329.699200
   1056   1054   1063     1   109.8000471 387.438400
   1057   1069   1070     1   109.5600471 388.275200
   1057   1069   1071     1   109.5600471 388.275200
   1058   1057   1069     1   109.8000471 387.438400
   1058   1057   1059     1   107.5800459 329.699200
   1059   1057   1069     1   109.8000471 387.438400
   1060   1066   1067     1   109.5600471 388.275200
   1060   1066   1068     1   109.5600471 388.275200
   1061   1060   1066     1   109.8000471 387.438400
   1061   1060   1062     1   107.5800459 329.699200
   1062   1060   1066     1   109.8000471 387.438400
   1064   1063   1072     1   109.7800468 425.094400
   1064   1063   1065     1   108.4600466 328.025600
   1065   1063   1072     1   109.7800468 425.094400
   1067   1066   2174     1   109.7800468 425.094400
   1067   1066   1068     1   108.4600466 328.025600
   1068   1066   2174     1   109.7800468 425.094400
   1070   1069   2203     1   109.7800468 425.094400
   1070   1069   1071     1   108.4600466 328.025600
   1071   1069   2203     1   109.7800468 425.094400
   1073   1074   1075     1   109.8800469 414.216000
   1073   1074   1076     1   109.8800469 414.216000
   1073   1077   1078     1   109.8800469 414.216000
   1073   1077   1079     1   109.8800469 414.216000
   1073   1080   1081     1   109.8800469 414.216000
   1073   1080   1082     1   109.8800469 414.216000
   1074   1086   1087     1   109.8000471 387.438400
   1074   1086   1088     1   109.8000471 387.438400
   1075   1074   1086     1   109.5600471 388.275200
   1075   1074   1076     1   108.4600466 328.025600
   1076   1074   1086     1   109.5600471 388.275200
   1077   1089   1090     1   109.8000471 387.438400
   1077   1089   1091     1   109.8000471 387.438400
   1078   1077   1089     1   109.5600471 388.275200
   1078   1077   1079     1   108.4600466 328.025600
   1079   1077   1089     1   109.5600471 388.275200
   1080   1083   1084     1   109.8000471 387.438400
   1080   1083   1085     1   109.8000471 387.438400
   1081   1080   1083     1   109.5600471 388.275200
   1081   1080   1082     1   108.4600466 328.025600
   1082   1080   1083     1   109.5600471 388.275200
   1083   1092   1093     1   109.5600471 388.275200
   1083   1092   1094     1   109.5600471 388.275200
   1084   1083   1092     1   109.8000471 387.438400
   1084   1083   1085     1   107.5800459 329.699200
   1085   1083   1092     1   109.8000471 387.438400
   1086   1098   1099     1   109.5600471 388.275200
   1086   1098   1100     1   109.5600471 388.275200
   1087   1086   1098     1   109.8000471 387.438400
   1087   1086   1088     1   107.5800459 329.699200
   1088   1086   1098     1   109.8000471 387.438400
   1089   1095   1096     1   109.5600471 388.275200
   1089   1095   1097     1   109.5600471 388.275200
   1090   1089   1095     1   109.8000471 387.438400
   1090   1089   1091     1   107.5800459 329.699200
   1091   1089   1095     1   109.8000471 387.438400
   1093   1092   1101     1   109.7800468 425.094400
   1093   1092   1094     1   108.4600466 328.025600
   1094   1092   1101     1   109.7800468 425.094400
   1096   1095   2232     1   109.7800468 425.094400
   1096   1095   1097     1   108.4600466 328.025600
   1097   1095   2232     1   109.7800468 425.094400
   1099   1098   2261     1   109.7800468 425.094400
   1099   1098   1100     1   108.4600466 328.025600
   1100   1098   2261     1   109.7800468 425.094400
   1102   1103   1104     1   109.8800469 414.216000
   1102   1103   1105     1   109.8800469 414.216000
   1102   1106   1107     1   109.8800469 414.216000
   1102   1106   1108     1   109.8800469 414.216000
   1102   1109   1110     1   109.8800469 414.216000
   1102   1109   1111     1   109.8800469 414.216000
   1103   1115   1116     1   109.8000471 387.438400
   1103   1115   1117     1   109.8000471 387.438400
   1104   1103   1115     1   109.5600471 388.275200
   1104   1103   1105     1   108.4600466 328.025600
   1105   1103   1115     1   109.5600471 388.275200
   1106   1118   1119     1   109.8000471 387.438400
   1106   1118   1120     1   109.8000471 387.438400
   1107   1106   1118     1   109.5600471 388.275200
   1107   1106   1108     1   108.4600466 328.025600
   1108   1106   1118     1   109.5600471 388.275200
   1109   1112   1113     1   109.8000471 387.438400
   1109   1112   1114     1   109.8000471 387.438400
   1110   1109   1112     1   109.5600471 388.275200
   1110   1109   1111     1   108.4600466 328.025600
   1111   1109   1112     1   109.5600471 388.275200
   1112   1121   1122     1   109.5600471 388.275200
   1112   1121   1123     1   109.5600471 388.275200
   1113   1112   1121     1   109.8000471 387.438400
   1113   1112   1114     1   107.5800459 329.699200
   1114   1112   1121     1   109.8000471 387.438400
   1115   1127   1128     1   109.5600471 388.275200
   1115   1127   1129     1   109.5600471 388.275200
   1116   1115   1127     1   109.8000471 387.438400
   1116   1115   1117     1   107.5800459 329.699200
   1117   1115   1127     1   109.8000471 387.438400
   1118   1124   1125     1   109.5600471 388.275200
   1118   1124   1126     1   109.5600471 388.275200
   1119   1118   1124     1   109.8000471 387.438400
   1119   1118   1120     1   107.5800459 329.699200
   1120   1118   1124     1   109.8000471 387.438400
   1122   1121   1130     1   109.7800468 425.094400
   1122   1121   1123     1   108.4600466 328.025600
   1123   1121   1130     1   109.7800468 425.094400
   1125   1124   2290     1   109.7800468 425.094400
   1125   1124   1126     1   108.4600466 328.025600
   1126   1124   2290     1   109.7800468 425.094400
   1128   1127   2319     1   109.7800468 425.094400
   1128   1127   1129     1   108.4600466 328.025600
   1129   1127   2319     1   109.7800468 425.094400
   1131   1132   1133     1   109.8800469 414.216000
   1131   1132   1134     1   109.8800469 414.216000
   1131   1135   1136     1   109.8800469 414.216000
   1131   1135   1137     1   109.8800469 414.216000
   1131   1138   1139     1   109.8800469 414.216000
   1131   1138   1140     1   109.8800469 414.216000
   1132   1144   1145     1   109.8000471 387.438400
   1132   1144   1146     1   109.8000471 387.438400
   1133   1132   1144     1   109.5600471 388.275200
   1133   1132   1134     1   108.4600466 328.025600
   1134   1132   1144     1   109.5600471 388.275200
   1135   1147   1148     1   109.8000471 387.438400
   1135   1147   1149     1   109.8000471 387.438400
   1136   1135   1147     1   109.5600471 388.275200
   1136   1135   1137     1   108.4600466 328.025600
   1137   1135   1147     1   109.5600471 388.275200
   1138   1141   1142     1   109.8000471 387.438400
   1138   1141   1143     1   109.8000471 387.438400
   1139   1138   1141     1   109.5600471 388.275200
   1139   1138   1140     1   108.4600466 328.025600
   1140   1138   1141     1   109.5600471 388.275200
   1141   1150   1151     1   109.5600471 388.275200
   1141   1150   1152     1   109.5600471 388.275200
   1142   1141   1150     1   109.8000471 387.438400
   1142   1141   1143     1   107.5800459 329.699200
   1143   1141   1150     1   109.8000471 387.438400
   1144   1156   1157     1   109.5600471 388.275200
   1144   1156   1158     1   109.5600471 388.275200
   1145   1144   1156     1   109.8000471 387.438400
   1145   1144   1146     1   107.5800459 329.699200
   1146   1144   1156     1   109.8000471 387.438400
   1147   1153   1154     1   109.5600471 388.275200
   1147   1153   1155     1   109.5600471 388.275200
   1148   1147   1153     1   109.8000471 387.438400
   1148   1147   1149     1   107.5800459 329.699200
   1149   1147   1153     1   109.8000471 387.438400
   1151   1150   1159     1   109.7800468 425.094400
   1151   1150   1152     1   108.4600466 328.025600
   1152   1150   1159     1   109.7800468 425.094400
   1154   1153   2348     1   109.7800468 425.094400
   1154   1153   1155     1   108.4600466 328.025600
   1155   1153   2348     1   109.7800468 425.094400
   1157   1156   2377     1   109.7800468 425.094400
   1157   1156   1158     1   108.4600466 328.025600
   1158   1156   2377     1   109.7800468 425.094400
   1160   1161   1162     1   109.8800469 414.216000
   1160   1161   1163     1   109.8800469 414.216000
   1160   1164   1165     1   109.8800469 414.216000
   1160   1164   1166     1   109.8800469 414.216000
   1160   1167   1168     1   109.8800469 414.216000
   1160   1167   1169     1   109.8800469 414.216000
   1161   1173   1174     1   109.8000471 387.438400
   1161   1173   1175     1   109.8000471 387.438400
   1162   1161   1173     1   109.5600471 388.275200
   1162   1161   1163     1   108.4600466 328.025600
   1163   1161   1173     1   109.5600471 388.275200
   1164   1176   1177     1   109.8000471 387.438400
   1164   1176   1178     1   109.8000471 387.438400
   1165   1164   1176     1   109.5600471 388.275200
   1165   1164   1166     1   108.4600466 328.025600
   1166   1164   1176     1   109.5600471 388.275200
   1167   1170   1171     1   109.8000471 387.438400
   1167   1170   1172     1   109.8000471 387.438400
   1168   1167   1170     1   109.5600471 388.275200
   1168   1167   1169     1   108.4600466 328.025600
   1169   1167   1170     1   109.5600471 388.275200
   1170   1179   1180     1   109.5600471 388.275200
   1170   1179   1181     1   109.5600471 388.275200
   1171   1170   1179     1   109.8000471 387.438400
   1171   1170   1172     1   107.5800459 329.699200
   1172   1170   1179     1   109.8000471 387.438400
   1173   1185   1186     1   109.5600471 388.275200
   1173   1185   1187     1   109.5600471 388.275200
   1174   1173   1185     1   109.8000471 387.438400
   1174   1173   1175     1   107.5800459 329.699200
   1175   1173   1185     1   109.8000471 387.438400
   1176   1182   1183     1   109.5600471 388.275200
   1176   1182   1184     1   109.5600471 388.275200
   1177   1176   1182     1   109.8000471 387.438400
   1177   1176   1178     1   107.5800459 329.699200
   1178   1176   1182     1   109.8000471 387.438400
   1180   1179   1188     1   109.7800468 425.094400
   1180   1179   1181     1   108.4600466 328.025600
   1181   1179   1188     1   109.7800468 425.094400
   1183   1182   2406     1   109.7800468 425.094400
   1183   1182   1184     1   108.4600466 328.025600
   1184   1182   2406     1   109.7800468 425.094400
   1186   1185   2435     1   109.7800468 425.094400
   1186   1185   1187     1   108.4600466 328.025600
   1187   1185   2435     1   109.7800468 425.094400
   1189   1190   1191     1   109.8800469 414.216000
   1189   1190   1192     1   109.8800469 414.216000
   1189   1193   1194     1   109.8800469 414.216000
   1189   1193   1195     1   109.8800469 414.216000
   1189   1196   1197     1   109.8800469 414.216000
   1189   1196   1198     1   109.8800469 414.216000
   1190   1202   1203     1   109.8000471 387.438400
   1190   1202   1204     1   109.8000471 387.438400
   1191   1190   1202     1   109.5600471 388.275200
   1191   1190   1192     1   108.4600466 328.025600
   1192   1190   1202     1   109.5600471 388.275200
   1193   1205   1206     1   109.8000471 387.438400
   1193   1205   1207     1   109.8000471 387.438400
   1194   1193   1205     1   109.5600471 388.275200
   1194   1193   1195     1   108.4600466 328.025600
   1195   1193   1205     1   109.5600471 388.275200
   1196   1199   1200     1   109.8000471 387.438400
   1196   1199   1201     1   109.8000471 387.438400
   1197   1196   1199     1   109.5600471 388.275200
   1197   1196   1198     1   108.4600466 328.025600
   1198   1196   1199     1   109.5600471 388.275200
   1199   1208   1209     1   109.5600471 388.275200
   1199   1208   1210     1   109.5600471 388.275200
   1200   1199   1208     1   109.8000471 387.438400
   1200   1199   1201     1   107.5800459 329.699200
   1201   1199   1208     1   109.8000471 387.438400
   1202   1214   1215     1   109.5600471 388.275200
   1202   1214   1216     1   109.5600471 388.275200
   1203   1202   1214     1   109.8000471 387.438400
   1203   1202   1204     1   107.5800459 329.699200
   1204   1202   1214     1   109.8000471 387.438400
   1205   1211   1212     1   109.5600471 388.275200
   1205   1211   1213     1   109.5600471 388.275200
   1206   1205   1211     1   109.8000471 387.438400
   1206   1205   1207     1   107.5800459 329.699200
   1207   1205   1211     1   109.8000471 387.438400
   1209   1208   1217     1   109.7800468 425.094400
   1209   1208   1210     1   108.4600466 328.025600
   1210   1208   1217     1   109.7800468 425.094400
   1212   1211   2464     1   109.7800468 425.094400
   1212   1211   1213     1   108.4600466 328.025600
   1213   1211   2464     1   109.7800468 425.094400
   1215   1214   2493     1   109.7800468 425.094400
   1215   1214   1216     1   108.4600466 328.025600
   1216   1214   2493     1   109.7800468 425.094400
   1218   1219   1220     1   109.8800469 414.216000
   1218   1219   1221     1   109.8800469 414.216000
   1218   1222   1223     1   109.8800469 414.216000
   1218   1222   1224     1   109.8800469 414.216000
   1218   1225   1226     1   109.8800469 414.216000
   1218   1225   1227     1   109.8800469 414.216000
   1219   1231   1232     1   109.8000471 387.438400
   1219   1231   1233     1   109.8000471 387.438400
   1220   1219   1231     1   109.5600471 388.275200
   1220   1219   1221     1   108.4600466 328.025600
   1221   1219   1231     1   109.5600471 388.275200
   1222   1234   1235     1   109.8000471 387.438400
   1222   1234   1236     1   109.8000471 387.438400
   1223   1222   1234     1   109.5600471 388.275200
   1223   1222   1224     1   108.4600466 328.025600
   1224   1222   1234     1   109.5600471 388.275200
   1225   1228   1229     1   109.8000471 387.438400
   1225   1228   1230     1   109.8000471 387.438400
   1226   1225   1228     1   109.5600471 388.275200
   1226   1225   1227     1   108.4600466 328.025600
   1227   1225   1228     1   109.5600471 388.275200
   1228   1237   1238     1   109.5600471 388.275200
   1228   1237   1239     1   109.5600471 388.275200
   1229   1228   1237     1   109.8000471 387.438400
   1229   1228   1230     1   107.5800459 329.699200
   1230   1228   1237     1   109.8000471 387.438400
   1231   1243   1244     1   109.5600471 388.275200
   1231   1243   1245     1   109.5600471 388.275200
   1232   1231   1243     1   109.8000471 387.438400
   1232   1231   1233     1   107.5800459 329.699200
   1233   1231   1243     1   109.8000471 387.438400
   1234   1240   1241     1   109.5600471 388.275200
   1234   1240   1242     1   109.5600471 388.275200
   1235   1234   1240     1   109.8000471 387.438400
   1235   1234   1236     1   107.5800459 329.699200
   1236   1234   1240     1   109.8000471 387.438400
   1238   1237   1246     1   109.7800468 425.094400
   1238   1237   1239     1   108.4600466 328.025600
   1239   1237   1246     1   109.7800468 425.094400
   1241   1240   2522     1   109.7800468 425.094400
   1241   1240   1242     1   108.4600466 328.025600
   1242   1240   2522     1   109.7800468 425.094400
   1244   1243   2551     1   109.7800468 425.094400
   1244   1243   1245     1   108.4600466 328.025600
   1245   1243   2551     1   109.7800468 425.094400
   1247   1248   1249     1   109.8800469 414.216000
   1247   1248   1250     1   109.8800469 414.216000
   1247   1251   1252     1   109.8800469 414.216000
   1247   1251   1253     1   109.8800469 414.216000
   1247   1254   1255     1   109.8800469 414.216000
   1247   1254   1256     1   109.8800469 414.216000
   1248   1260   1261     1   109.8000471 387.438400
   1248   1260   1262     1   109.8000471 387.438400
   1249   1248   1260     1   109.5600471 388.275200
   1249   1248   1250     1   108.4600466 328.025600
   1250   1248   1260     1   109.5600471 388.275200
   1251   1263   1264     1   109.8000471 387.438400
   1251   1263   1265     1   109.8000471 387.438400
   1252   1251   1263     1   109.5600471 388.275200
   1252   1251   1253     1   108.4600466 328.025600
   1253   1251   1263     1   109.5600471 388.275200
   1254   1257   1258     1   109.8000471 387.438400
   1254   1257   1259     1   109.8000471 387.438400
   1255   1254   1257     1   109.5600471 388.275200
   1255   1254   1256     1   108.4600466 328.025600
   1256   1254   1257     1   109.5600471 388.275200
   1257   1266   1267     1   109.5600471 388.275200
   1257   1266   1268     1   109.5600471 388.275200
   1258   1257   1266     1   109.8000471 387.438400
   1258   1257   1259     1   107.5800459 329.699200
   1259   1257   1266     1   109.8000471 387.438400
   1260   1272   1273     1   109.5600471 388.275200
   1260   1272   1274     1   109.5600471 388.275200
   1261   1260   1272     1   109.8000471 387.438400
   1261   1260   1262     1   107.5800459 329.699200
   1262   1260   1272     1   109.8000471 387.438400
   1263   1269   1270     1   109.5600471 388.275200
   1263   1269   1271     1   109.5600471 388.275200
   1264   1263   1269     1   109.8000471 387.438400
   1264   1263   1265     1   107.5800459 329.699200
   1265   1263   1269     1   109.8000471 387.438400
   1267   1266   1275     1   109.7800468 425.094400
   1267   1266   1268     1   108.4600466 328.025600
   1268   1266   1275     1   109.7800468 425.094400
   1270   1269   2580     1   109.7800468 425.094400
   1270   1269   1271     1   108.4600466 328.025600
   1271   1269   2580     1   109.7800468 425.094400
   1273   1272   2609     1   109.7800468 425.094400
   1273   1272   1274     1   108.4600466 328.025600
   1274   1272   2609     1   109.7800468 425.094400
   1276   1277   1278     1   109.8800469 414.216000
   1276   1277   1279     1   109.8800469 414.216000
   1276   1280   1281     1   109.8800469 414.216000
   1276   1280   1282     1   109.8800469 414.216000
   1276   1283   1284     1   109.8800469 414.216000
   1276   1283   1285     1   109.8800469 414.216000
   1277   1289   1290     1   109.8000471 387.438400
   1277   1289   1291     1   109.8000471 387.438400
   1278   1277   1289     1   109.5600471 388.275200
   1278   1277   1279     1   108.4600466 328.025600
   1279   1277   1289     1   109.5600471 388.275200
   1280   1292   1293     1   109.8000471 387.438400
   1280   1292   1294     1   109.8000471 387.438400
   1281   1280   1292     1   109.5600471 388.275200
   1281   1280   1282     1   108.4600466 328.025600
   1282   1280   1292     1   109.5600471 388.275200
   1283   1286   1287     1   109.8000471 387.438400
   1283   1286   1288     1   109.8000471 387.438400
   1284   1283   1286     1   109.5600471 388.275200
   1284   1283   1285     1   108.4600466 328.025600
   1285   1283   1286     1   109.5600471 388.275200
   1286   1295   1296     1   109.5600471 388.275200
   1286   1295   1297     1   109.5600471 388.275200
   1287   1286   1295     1   109.8000471 387.438400
   1287   1286   1288     1   107.5800459 329.699200
   1288   1286   1295     1   109.8000471 387.438400
   1289   1301   1302     1   109.5600471 388.275200
   1289   1301   1303     1   109.5600471 388.275200
   1290   1289   1301     1   109.8000471 387.438400
   1290   1289   1291     1   107.5800459 329.699200
   1291   1289   1301     1   109.8000471 387.438400
   1292   1298   1299     1   109.5600471 388.275200
   1292   1298   1300     1   109.5600471 388.275200
   1293   1292   1298     1   109.8000471 387.438400
   1293   1292   1294     1   107.5800459 329.699200
   1294   1292   1298     1   109.8000471 387.438400
   1296   1295   1304     1   109.7800468 425.094400
   1296   1295   1297     1   108.4600466 328.025600
   1297   1295   1304     1   109.7800468 425.094400
   1299   1298   2638     1   109.7800468 425.094400
   1299   1298   1300     1   108.4600466 328.025600
   1300   1298   2638     1   109.7800468 425.094400
   1302   1301   2667     1   109.7800468 425.094400
   1302   1301   1303     1   108.4600466 328.025600
   1303   1301   2667     1   109.7800468 425.094400
   1305   1306   1307     1   109.8800469 414.216000
   1305   1306   1308     1   109.8800469 414.216000
   1305   1309   1310     1   109.8800469 414.216000
   1305   1309   1311     1   109.8800469 414.216000
   1305   1312   1313     1   109.8800469 414.216000
   1305   1312   1314     1   109.8800469 414.216000
   1306   1318   1319     1   109.8000471 387.438400
   1306   1318   1320     1   109.8000471 387.438400
   1307   1306   1318     1   109.5600471 388.275200
   1307   1306   1308     1   108.4600466 328.025600
   1308   1306   1318     1   109.5600471 388.275200
   1309   1321   1322     1   109.8000471 387.438400
   1309   1321   1323     1   109.8000471 387.438400
   1310   1309   1321     1   109.5600471 388.275200
   1310   1309   1311     1   108.4600466 328.025600
   1311   1309   1321     1   109.5600471 388.275200
   1312   1315   1316     1   109.8000471 387.438400
   1312   1315   1317     1   109.8000471 387.438400
   1313   1312   1315     1   109.5600471 388.275200
   1313   1312   1314     1   108.4600466 328.025600
   1314   1312   1315     1   109.5600471 388.275200
   1315   1324   1325     1   109.5600471 388.275200
   1315   1324   1326     1   109.5600471 388.275200
   1316   1315   1324     1   109.8000471 387.438400
   1316   1315   1317     1   107.5800459 329.699200
   1317   1315   1324     1   109.8000471 387.438400
   1318   1330   1331     1   109.5600471 388.275200
   1318   1330   1332     1   109.5600471 388.275200
   1319   1318   1330     1   109.8000471 387.438400
   1319   1318   1320     1   107.5800459 329.699200
   1320   1318   1330     1   109.8000471 387.438400
   1321   1327   1328     1   109.5600471 388.275200
   1321   1327   1329     1   109.5600471 388.275200
   1322   1321   1327     1   109.8000471 387.438400
   1322   1321   1323     1   107.5800459 329.699200
   1323   1321   1327     1   109.8000471 387.438400
   1325   1324   1333     1   109.7800468 425.094400
   1325   1324   1326     1   108.4600466 328.025600
   1326   1324   1333     1   109.7800468 425.094400
   1328   1327   2696     1   109.7800468 425.094400
   1328   1327   1329     1   108.4600466 328.025600
   1329   1327   2696     1   109.7800468 425.094400
   1331   1330   2725     1   109.7800468 425.094400
   1331   1330   1332     1   108.4600466 328.025600
   1332   1330   2725     1   109.7800468 425.094400
   1334   1335   1336     1   109.8800469 414.216000
   1334   1335   1337     1   109.8800469 414.216000
   1334   1338   1339     1   109.8800469 414.216000
   1334   1338   1340     1   109.8800469 414.216000
   1334   1341   1342     1   109.8800469 414.216000
   1334   1341   1343     1   109.8800469 414.216000
   1335   1347   1348     1   109.8000471 387.438400
   1335   1347   1349     1   109.8000471 387.438400
   1336   1335   1347     1   109.5600471 388.275200
   1336   1335   1337     1   108.4600466 328.025600
   1337   1335   1347     1   109.5600471 388.275200
   1338   1350   1351     1   109.8000471 387.438400
   1338   1350   1352     1   109.8000471 387.438400
   1339   1338   1350     1   109.5600471 388.275200
   1339   1338   1340     1   108.4600466 328.025600
   1340   1338   1350     1   109.5600471 388.275200
   1341   1344   1345     1   109.8000471 387.438400
   1341   1344   1346     1   109.8000471 387.438400
   1342   1341   1344     1   109.5600471 388.275200
   1342   1341   1343     1   108.4600466 328.025600
   1343   1341   1344     1   109.5600471 388.275200
   1344   1353   1354     1   109.5600471 388.275200
   1344   1353   1355     1   109.5600471 388.275200
   1345   1344   1353     1   109.8000471 387.438400
   1345   1344   1346     1   107.5800459 329.699200
   1346   1344   1353     1   109.8000471 387.438400
   1347   1359   1360     1   109.5600471 388.275200
   1347   1359   1361     1   109.5600471 388.275200
   1348   1347   1359     1   109.8000471 387.438400
   1348   1347   1349     1   107.5800459 329.699200
   1349   1347   1359     1   109.8000471 387.438400
   1350   1356   1357     1   109.5600471 388.275200
   1350   1356   1358     1   109.5600471 388.275200
   1351   1350   1356     1   109.8000471 387.438400
   1351   1350   1352     1   107.5800459 329.699200
   1352   1350   1356     1   109.8000471 387.438400
   1354   1353   1362     1   109.7800468 425.094400
   1354   1353   1355     1   108.4600466 328.025600
   1355   1353   1362     1   109.7800468 425.094400
   1357   1356   2754     1   109.7800468 425.094400
   1357   1356   1358     1   108.4600466 328.025600
   1358   1356   2754     1   109.7800468 425.094400
   1360   1359   2783     1   109.7800468 425.094400
   1360   1359   1361     1   108.4600466 328.025600
   1361   1359   2783     1   109.7800468 425.094400
   1363   1364   1365     1   109.8800469 414.216000
   1363   1364   1366     1   109.8800469 414.216000
   1363   1367   1368     1   109.8800469 414.216000
   1363   1367   1369     1   109.8800469 414.216000
   1363   1370   1371     1   109.8800469 414.216000
   1363   1370   1372     1   109.8800469 414.216000
   1364   1376   1377     1   109.8000471 387.438400
   1364   1376   1378     1   109.8000471 387.438400
   1365   1364   1376     1   109.5600471 388.275200
   1365   1364   1366     1   108.4600466 328.025600
   1366   1364   1376     1   109.5600471 388.275200
   1367   1379   1380     1   109.8000471 387.438400
   1367   1379   1381     1   109.8000471 387.438400
   1368   1367   1379     1   109.5600471 388.275200
   1368   1367   1369     1   108.4600466 328.025600
   1369   1367   1379     1   109.5600471 388.275200
   1370   1373   1374     1   109.8000471 387.438400
   1370   1373   1375     1   109.8000471 387.438400
   1371   1370   1373     1   109.5600471 388.275200
   1371   1370   1372     1   108.4600466 328.025600
   1372   1370   1373     1   109.5600471 388.275200
   1373   1382   1383     1   109.5600471 388.275200
   1373   1382   1384     1   109.5600471 388.275200
   1374   1373   1382     1   109.8000471 387.438400
   1374   1373   1375     1   107.5800459 329.699200
   1375   1373   1382     1   109.8000471 387.438400
   1376   1388   1389     1   109.5600471 388.275200
   1376   1388   1390     1   109.5600471 388.275200
   1377   1376   1388     1   109.8000471 387.438400
   1377   1376   1378     1   107.5800459 329.699200
   1378   1376   1388     1   109.8000471 387.438400
   1379   1385   1386     1   109.5600471 388.275200
   1379   1385   1387     1   109.5600471 388.275200
   1380   1379   1385     1   109.8000471 387.438400
   1380   1379   1381     1   107.5800459 329.699200
   1381   1379   1385     1   109.8000471 387.438400
   1383   1382   1391     1   109.7800468 425.094400
   1383   1382   1384     1   108.4600466 328.025600
   1384   1382   1391     1   109.7800468 425.094400
   1386   1385   2812     1   109.7800468 425.094400
   1386   1385   1387     1   108.4600466 328.025600
   1387   1385   2812     1   109.7800468 425.094400
   1389   1388   2841     1   109.7800468 425.094400
   1389   1388   1390     1   108.4600466 328.025600
   1390   1388   2841     1   109.7800468 425.094400
   1392   1393   1394     1   109.8800469 414.216000
   1392   1393   1395     1   109.8800469 414.216000
   1392   1396   1397     1   109.8800469 414.216000
   1392   1396   1398     1   109.8800469 414.216000
   1392   1399   1400     1   109.8800469 414.216000
   1392   1399   1401     1   109.8800469 414.216000
   1393   1405   1406     1   109.8000471 387.438400
   1393   1405   1407     1   109.8000471 387.438400
   1394   1393   1405     1   109.5600471 388.275200
   1394   1393   1395     1   108.4600466 328.025600
   1395   1393   1405     1   109.5600471 388.275200
   1396   1408   1409     1   109.8000471 387.438400
   1396   1408   1410     1   109.8000471 387.438400
   1397   1396   1408     1   109.5600471 388.275200
   1397   1396   1398     1   108.4600466 328.025600
   1398   1396   1408     1   109.5600471 388.275200
   1399   1402   1403     1   109.8000471 387.438400
   1399   1402   1404     1   109.8000471 387.438400
   1400   1399   1402     1   109.5600471 388.275200
   1400   1399   1401     1   108.4600466 328.025600
   1401   1399   1402     1   109.5600471 388.275200
   1402   1411   1412     1   109.5600471 388.275200
   1402   1411   1413     1   109.5600471 388.275200
   1403   1402   1411     1   109.8000471 387.438400
   1403   1402   1404     1   107.5800459 329.699200
   1404   1402   1411     1   109.8000471 387.438400
   1405   1417   1418     1   109.5600471 388.275200
   1405   1417   1419     1   109.5600471 388.275200
   1406   1405   1417     1   109.8000471 387.438400
   1406   1405   1407     1   107.5800459 329.699200
   1407   1405   1417     1   109.8000471 387.438400
   1408   1414   1415     1   109.5600471 388.275200
   1408   1414   1416     1   109.5600471 388.275200
   1409   1408   1414     1   109.8000471 387.438400
   1409   1408   1410     1   107.5800459 329.699200
   1410   1408   1414     1   109.8000471 387.438400
   1412   1411   1420     1   109.7800468 425.094400
   1412   1411   1413     1   108.4600466 328.025600
   1413   1411   1420     1   109.7800468 425.094400
   1415   1414   2870     1   109.7800468 425.094400
   1415   1414   1416     1   108.4600466 328.025600
   1416   1414   2870     1   109.7800468 425.094400
   1418   1417   2899     1   109.7800468 425.094400
   1418   1417   1419     1   108.4600466 328.025600
   1419   1417   2899     1   109.7800468 425.094400
   1421   1422   1423     1   109.8800469 414.216000
   1421   1422   1424     1   109.8800469 414.216000
   1421   1425   1426     1   109.8800469 414.216000
   1421   1425   1427     1   109.8800469 414.216000
   1421   1428   1429     1   109.8800469 414.216000
   1421   1428   1430     1   109.8800469 414.216000
   1422   1434   1435     1   109.8000471 387.438400
   1422   1434   1436     1   109.8000471 387.438400
   1423   1422   1434     1   109.5600471 388.275200
   1423   1422   1424     1   108.4600466 328.025600
   1424   1422   1434     1   109.5600471 388.275200
   1425   1437   1438     1   109.8000471 387.438400
   1425   1437   1439     1   109.8000471 387.438400
   1426   1425   1437     1   109.5600471 388.275200
   1426   1425   1427     1   108.4600466 328.025600
   1427   1425   1437     1   109.5600471 388.275200
   1428   1431   1432     1   109.8000471 387.438400
   1428   1431   1433     1   109.8000471 387.438400
   1429   1428   1431     1   109.5600471 388.275200
   1429   1428   1430     1   108.4600466 328.025600
   1430   1428   1431     1   109.5600471 388.275200
   1431   1440   1441     1   109.5600471 388.275200
   1431   1440   1442     1   109.5600471 388.275200
   1432   1431   1440     1   109.8000471 387.438400
   1432   1431   1433     1   107.5800459 329.699200
   1433   1431   1440     1   109.8000471 387.438400
   1434   1446   1447     1   109.5600471 388.275200
   1434   1446   1448     1   109.5600471 388.275200
   1435   1434   1446     1   109.8000471 387.438400
   1435   1434   1436     1   107.5800459 329.699200
   1436   1434   1446     1   109.8000471 387.438400
   1437   1443   1444     1   109.5600471 388.275200
   1437   1443   1445     1   109.5600471 388.275200
   1438   1437   1443     1   109.8000471 387.438400
   1438   1437   1439     1   107.5800459 329.699200
   1439   1437   1443     1   109.8000471 387.438400
   1441   1440   1449     1   109.7800468 425.094400
   1441   1440   1442     1   108.4600466 328.025600
   1442   1440   1449     1   109.7800468 425.094400
   1444   1443   2928     1   109.7800468 425.094400
   1444   1443   1445     1   108.4600466 328.025600
   1445   1443   2928     1   109.7800468 425.094400
   1447   1446   2957     1   109.7800468 425.094400
   1447   1446   1448     1   108.4600466 328.025600
   1448   1446   2957     1   109.7800468 425.094400
   1450   1451   1452     1   109.8800469 414.216000
   1450   1451   1453     1   109.8800469 414.216000
   1450   1454   1455     1   109.8800469 414.216000
   1450   1454   1456     1   109.8800469 414.216000
   1450   1457   1458     1   109.8800469 414.216000
   1450   1457   1459     1   109.8800469 414.216000
   1451   1463   1464     1   109.8000471 387.438400
   1451   1463   1465     1   109.8000471 387.438400
   1452   1451   1463     1   109.5600471 388.275200
   1452   1451   1453     1   108.4600466 328.025600
   1453   1451   1463     1   109.5600471 388.275200
   1454   1466   1467     1   109.8000471 387.438400
   1454   1466   1468     1   109.8000471 387.438400
   1455   1454   1466     1   109.5600471 388.275200
   1455   1454   1456     1   108.4600466 328.025600
   1456   1454   1466     1   109.5600471 388.275200
   1457   1460   1461     1   109.8000471 387.438400
   1457   1460   1462     1   109.8000471 387.438400
   1458   1457   1460     1   109.5600471 388.275200
   1458   1457   1459     1   108.4600466 328.025600
   1459   1457   1460     1   109.5600471 388.275200
   1460   1469   1470     1   109.5600471 388.275200
   1460   1469   1471     1   109.5600471 388.275200
   1461   1460   1469     1   109.8000471 387.438400
   1461   1460   1462     1   107.5800459 329.699200
   1462   1460   1469     1   109.8000471 387.438400
   1463   1475   1476     1   109.5600471 388.275200
   1463   1475   1477     1   109.5600471 388.275200
   1464   1463   1475     1   109.8000471 387.438400
   1464   1463   1465     1   107.5800459 329.699200
   1465   1463   1475     1   109.8000471 387.438400
   1466   1472   1473     1   109.5600471 388.275200
   1466   1472   1474     1   109.5600471 388.275200
   1467   1466   1472     1   109.8000471 387.438400
   1467   1466   1468     1   107.5800459 329.699200
   1468   1466   1472     1   109.8000471 387.438400
   1470   1469   1478     1   109.7800468 425.094400
   1470   1469   1471     1   108.4600466 328.025600
   1471   1469   1478     1   109.7800468 425.094400
   1473   1472   2986     1   109.7800468 425.094400
   1473   1472   1474     1   108.4600466 328.025600
   1474   1472   2986     1   109.7800468 425.094400
   1476   1475   3015     1   109.7800468 425.094400
   1476   1475   1477     1   108.4600466 328.025600
   1477   1475   3015     1   109.7800468 425.094400
   1479   1480   1481     1   109.8800469 414.216000
   1479   1480   1482     1   109.8800469 414.216000
   1479   1483   1484     1   109.8800469 414.216000
   1479   1483   1485     1   109.8800469 414.216000
   1479   1486   1487     1   109.8800469 414.216000
   1479   1486   1488     1   109.8800469 414.216000
   1480   1492   1493     1   109.8000471 387.438400
   1480   1492   1494     1   109.8000471 387.438400
   1481   1480   1492     1   109.5600471 388.275200
   1481   1480   1482     1   108.4600466 328.025600
   1482   1480   1492     1   109.5600471 388.275200
   1483   1495   1496     1   109.8000471 387.438400
   1483   1495   1497     1   109.8000471 387.438400
   1484   1483   1495     1   109.5600471 388.275200
   1484   1483   1485     1   108.4600466 328.025600
   1485   1483   1495     1   109.5600471 388.275200
   1486   1489   1490     1   109.8000471 387.438400
   1486   1489   1491     1   109.8000471 387.438400
   1487   1486   1489     1   109.5600471 388.275200
   1487   1486   1488     1   108.4600466 328.025600
   1488   1486   1489     1   109.5600471 388.275200
   1489   1498   1499     1   109.5600471 388.275200
   1489   1498   1500     1   109.5600471 388.275200
   1490   1489   1498     1   109.8000471 387.438400
   1490   1489   1491     1   107.5800459 329.699200
   1491   1489   1498     1   109.8000471 387.438400
   1492   1504   1505     1   109.5600471 388.275200
   1492   1504   1506     1   109.5600471 388.275200
   1493   1492   1504     1   109.8000471 387.438400
   1493   1492   1494     1   107.5800459 329.699200
   1494   1492   1504     1   109.8000471 387.438400
   1495   1501   1502     1   109.5600471 388.275200
   1495   1501   1503     1   109.5600471 388.275200
   1496   1495   1501     1   109.8000471 387.438400
   1496   1495   1497     1   107.5800459 329.699200
   1497   1495   1501     1   109.8000471 387.438400
   1499   1498   1507     1   109.7800468 425.094400
   1499   1498   1500     1   108.4600466 328.025600
   1500   1498   1507     1   109.7800468 425.094400
   1502   1501   3044     1   109.7800468 425.094400
   1502   1501   1503     1   108.4600466 328.025600
   1503   1501   3044     1   109.7800468 425.094400
   1505   1504   3073     1   109.7800468 425.094400
   1505   1504   1506     1   108.4600466 328.025600
   1506   1504   3073     1   109.7800468 425.094400
   1508   1509   1510     1   109.8800469 414.216000
   1508   1509   1511     1   109.8800469 414.216000
   1508   1512   1513     1   109.8800469 414.216000
   1508   1512   1514     1   109.8800469 414.216000
   1508   1515   1516     1   109.8800469 414.216000
   1508   1515   1517     1   109.8800469 414.216000
   1509   1521   1522     1   109.8000471 387.438400
   1509   1521   1523     1   109.8000471 387.438400
   1510   1509   1521     1   109.5600471 388.275200
   1510   1509   1511     1   108.4600466 328.025600
   1511   1509   1521     1   109.5600471 388.275200
   1512   1524   1525     1   109.8000471 387.438400
   1512   1524   1526     1   109.8000471 387.438400
   1513   1512   1524     1   109.5600471 388.275200
   1513   1512   1514     1   108.4600466 328.025600
   1514   1512   1524     1   109.5600471 388.275200
   1515   1518   1519     1   109.8000471 387.438400
   1515   1518   1520     1   109.8000471 387.438400
   1516   1515   1518     1   109.5600471 388.275200
   1516   1515   1517     1   108.4600466 328.025600
   1517   1515   1518     1   109.5600471 388.275200
   1518   1527   1528     1   109.5600471 388.275200
   1518   1527   1529     1   109.5600471 388.275200
   1519   1518   1527     1   109.8000471 387.438400
   1519   1518   1520     1   107.5800459 329.699200
   1520   1518   1527     1   109.8000471 387.438400
   1521   1533   1534     1   109.5600471 388.275200
   1521   1533   1535     1   109.5600471 388.275200
   1522   1521   1533     1   109.8000471 387.438400
   1522   1521   1523     1   107.5800459 329.699200
   1523   1521   1533     1   109.8000471 387.438400
   1524   1530   1531     1   109.5600471 388.275200
   1524   1530   1532     1   109.5600471 388.275200
   1525   1524   1530     1   109.8000471 387.438400
   1525   1524   1526     1   107.5800459 329.699200
   1526   1524   1530     1   109.8000471 387.438400
   1528   1527   1536     1   109.7800468 425.094400
   1528   1527   1529     1   108.4600466 328.025600
   1529   1527   1536     1   109.7800468 425.094400
   1531   1530   3102     1   109.7800468 425.094400
   1531   1530   1532     1   108.4600466 328.025600
   1532   1530   3102     1   109.7800468 425.094400
   1534   1533   3131     1   109.7800468 425.094400
   1534   1533   1535     1   108.4600466 328.025600
   1535   1533   3131     1   109.7800468 425.094400
   1537   1538   1539     1   109.8800469 414.216000
   1537   1538   1540     1   109.8800469 414.216000
   1537   1541   1542     1   109.8800469 414.216000
   1537   1541   1543     1   109.8800469 414.216000
   1537   1544   1545     1   109.8800469 414.216000
   1537   1544   1546     1   109.8800469 414.216000
   1538   1550   1551     1   109.8000471 387.438400
   1538   1550   1552     1   109.8000471 387.438400
   1539   1538   1550     1   109.5600471 388.275200
   1539   1538   1540     1   108.4600466 328.025600
   1540   1538   1550     1   109.5600471 388.275200
   1541   1553   1554     1   109.8000471 387.438400
   1541   1553   1555     1   109.8000471 387.438400
   1542   1541   1553     1   109.5600471 388.275200
   1542   1541   1543     1   108.4600466 328.025600
   1543   1541   1553     1   109.5600471 388.275200
   1544   1547   1548     1   109.8000471 387.438400
   1544   1547   1549     1   109.8000471 387.438400
   1545   1544   1547     1   109.5600471 388.275200
   1545   1544   1546     1   108.4600466 328.025600
   1546   1544   1547     1   109.5600471 388.275200
   1547   1556   1557     1   109.5600471 388.275200
   1547   1556   1558     1   109.5600471 388.275200
   1548   1547   1556     1   109.8000471 387.438400
   1548   1547   1549     1   107.5800459 329.699200
   1549   1547   1556     1   109.8000471 387.438400
   1550   1562   1563     1   109.5600471 388.275200
   1550   1562   1564     1   109.5600471 388.275200
   1551   1550   1562     1   109.8000471 387.438400
   1551   1550   1552     1   107.5800459 329.699200
   1552   1550   1562     1   109.8000471 387.438400
   1553   1559   1560     1   109.5600471 388.275200
   1553   1559   1561     1   109.5600471 388.275200
   1554   1553   1559     1   109.8000471 387.438400
   1554   1553   1555     1   107.5800459 329.699200
   1555   1553   1559     1   109.8000471 387.438400
   1557   1556   1565     1   109.7800468 425.094400
   1557   1556   1558     1   108.4600466 328.025600
   1558   1556   1565     1   109.7800468 425.094400
   1560   1559   3160     1   109.7800468 425.094400
   1560   1559   1561     1   108.4600466 328.025600
   1561   1559   3160     1   109.7800468 425.094400
   1563   1562   3189     1   109.7800468 425.094400
   1563   1562   1564     1   108.4600466 328.025600
   1564   1562   3189     1   109.7800468 425.094400
   1566   1567   1568     1   109.8800469 414.216000
   1566   1567   1569     1   109.8800469 414.216000
   1566   1570   1571     1   109.8800469 414.216000
   1566   1570   1572     1   109.8800469 414.216000
   1566   1573   1574     1   109.8800469 414.216000
   1566   1573   1575     1   109.8800469 414.216000
   1567   1579   1580     1   109.8000471 387.438400
   1567   1579   1581     1   109.8000471 387.438400
   1568   1567   1579     1   109.5600471 388.275200
   1568   1567   1569     1   108.4600466 328.025600
   1569   1567   1579     1   109.5600471 388.275200
   1570   1582   1583     1   109.8000471 387.438400
   1570   1582   1584     1   109.8000471 387.438400
   1571   1570   1582     1   109.5600471 388.275200
   1571   1570   1572     1   108.4600466 328.025600
   1572   1570   1582     1   109.5600471 388.275200
   1573   1576   1577     1   109.8000471 387.438400
   1573   1576   1578     1   109.8000471 387.438400
   1574   1573   1576     1   109.5600471 388.275200
   1574   1573   1575     1   108.4600466 328.025600
   1575   1573   1576     1   109.5600471 388.275200
   1576   1585   1586     1   109.5600471 388.275200
   1576   1585   1587     1   109.5600471 388.275200
   1577   1576   1585     1   109.8000471 387.438400
   1577   1576   1578     1   107.5800459 329.699200
   1578   1576   1585     1   109.8000471 387.438400
   1579   1591   1592     1   109.5600471 388.275200
   1579   1591   1593     1   109.5600471 388.275200
   1580   1579   1591     1   109.8000471 387.438400
   1580   1579   1581     1   107.5800459 329.699200
   1581   1579   1591     1   109.8000471 387.438400
   1582   1588   1589     1   109.5600471 388.275200
   1582   1588   1590     1   109.5600471 388.275200
   1583   1582   1588     1   109.8000471 387.438400
   1583   1582   1584     1   107.5800459 329.699200
   1584   1582   1588     1   109.8000471 387.438400
   1586   1585   1594     1   109.7800468 425.094400
   1586   1585   1587     1   108.4600466 328.025600
   1587   1585   1594     1   109.7800468 425.094400
   1589   1588   3218     1   109.7800468 425.094400
   1589   1588   1590     1   108.4600466 328.025600
   1590   1588   3218     1   109.7800468 425.094400
   1592   1591   3247     1   109.7800468 425.094400
   1592   1591   1593     1   108.4600466 328.025600
   1593   1591   3247     1   109.7800468 425.094400
   1595   1596   1597     1   109.8800469 414.216000
   1595   1596   1598     1   109.8800469 414.216000
   1595   1599   1600     1   109.8800469 414.216000
   1595   1599   1601     1   109.8800469 414.216000
   1595   1602   1603     1   109.8800469 414.216000
   1595   1602   1604     1   109.8800469 414.216000
   1596   1608   1609     1   109.8000471 387.438400
   1596   1608   1610     1   109.8000471 387.438400
   1597   1596   1608     1   109.5600471 388.275200
   1597   1596   1598     1   108.4600466 328.025600
   1598   1596   1608     1   109.5600471 388.275200
   1599   1611   1612     1   109.8000471 387.438400
   1599   1611   1613     1   109.8000471 387.438400
   1600   1599   1611     1   109.5600471 388.275200
   1600   1599   1601     1   108.4600466 328.025600
   1601   1599   1611     1   109.5600471 388.275200
   1602   1605   1606     1   109.8000471 387.438400
   1602   1605   1607     1   109.8000471 387.438400
   1603   1602   1605     1   109.5600471 388.275200
   1603   1602   1604     1   108.4600466 328.025600
   1604   1602   1605     1   109.5600471 388.275200
   1605   1614   1615     1   109.5600471 388.275200
   1605   1614   1616     1   109.5600471 388.275200
   1606   1605   1614     1   109.8000471 387.438400
   1606   1605   1607     1   107.5800459 329.699200
   1607   1605   1614     1   109.8000471 387.438400
   1608   1620   1621     1   109.5600471 388.275200
   1608   1620   1622     1   109.5600471 388.275200
   1609   1608   1620     1   109.8000471 387.438400
   1609   1608   1610     1   107.5800459 329.699200
   1610   1608   1620     1   109.8000471 387.438400
   1611   1617   1618     1   109.5600471 388.275200
   1611   1617   1619     1   109.5600471 388.275200
   1612   1611   1617     1   109.8000471 387.438400
   1612   1611   1613     1   107.5800459 329.699200
   1613   1611   1617     1   109.8000471 387.438400
   1615   1614   1623     1   109.7800468 425.094400
   1615   1614   1616     1   108.4600466 328.025600
   1616   1614   1623     1   109.7800468 425.094400
   1618   1617   3276     1   109.7800468 425.094400
   1618   1617   1619     1   108.4600466 328.025600
   1619   1617   3276     1   109.7800468 425.094400
   1621   1620   3305     1   109.7800468 425.094400
   1621   1620   1622     1   108.4600466 328.025600
   1622   1620   3305     1   109.7800468 425.094400
   1624   1625   1626     1   109.8800469 414.216000
   1624   1625   1627     1   109.8800469 414.216000
   1624   1628   1629     1   109.8800469 414.216000
   1624   1628   1630     1   109.8800469 414.216000
   1624   1631   1632     1   109.8800469 414.216000
   1624   1631   1633     1   109.8800469 414.216000
   1625   1637   1638     1   109.8000471 387.438400
   1625   1637   1639     1   109.8000471 387.438400
   1626   1625   1637     1   109.5600471 388.275200
   1626   1625   1627     1   108.4600466 328.025600
   1627   1625   1637     1   109.5600471 388.275200
   1628   1640   1641     1   109.8000471 387.438400
   1628   1640   1642     1   109.8000471 387.438400
   1629   1628   1640     1   109.5600471 388.275200
   1629   1628   1630     1   108.4600466 328.025600
   1630   1628   1640     1   109.5600471 388.275200
   1631   1634   1635     1   109.8000471 387.438400
   1631   1634   1636     1   109.8000471 387.438400
   1632   1631   1634     1   109.5600471 388.275200
   1632   1631   1633     1   108.4600466 328.025600
   1633   1631   1634     1   109.5600471 388.275200
   1634   1643   1644     1   109.5600471 388.275200
   1634   1643   1645     1   109.5600471 388.275200
   1635   1634   1643     1   109.8000471 387.438400
   1635   1634   1636     1   107.5800459 329.699200
   1636   1634   1643     1   109.8000471 387.438400
   1637   1649   1650     1   109.5600471 388.275200
   1637   1649   1651     1   109.5600471 388.275200
   1638   1637   1649     1   109.8000471 387.438400
   1638   1637   1639     1   107.5800459 329.699200
   1639   1637   1649     1   109.8000471 387.438400
   1640   1646   1647     1   109.5600471 388.275200
   1640   1646   1648     1   109.5600471 388.275200
   1641   1640   1646     1   109.8000471 387.438400
   1641   1640   1642     1   107.5800459 329.699200
   1642   1640   1646     1   109.8000471 387.438400
   1644   1643   1652     1   109.7800468 425.094400
   1644   1643   1645     1   108.4600466 328.025600
   1645   1643   1652     1   109.7800468 425.094400
   1647   1646   3334     1   109.7800468 425.094400
   1647   1646   1648     1   108.4600466 328.025600
   1648   1646   3334     1   109.7800468 425.094400
   1650   1649   3363     1   109.7800468 425.094400
   1650   1649   1651     1   108.4600466 328.025600
   1651   1649   3363     1   109.7800468 425.094400
   1653   1654   1655     1   109.8800469 414.216000
   1653   1654   1656     1   109.8800469 414.216000
   1653   1657   1658     1   109.8800469 414.216000
   1653   1657   1659     1   109.8800469 414.216000
   1653   1660   1661     1   109.8800469 414.216000
   1653   1660   1662     1   109.8800469 414.216000
   1654   1666   1667     1   109.8000471 387.438400
   1654   1666   1668     1   109.8000471 387.438400
   1655   1654   1666     1   109.5600471 388.275200
   1655   1654   1656     1   108.4600466 328.025600
   1656   1654   1666     1   109.5600471 388.275200
   1657   1669   1670     1   109.8000471 387.438400
   1657   1669   1671     1   109.8000471 387.438400
   1658   1657   1669     1   109.5600471 388.275200
   1658   1657   1659     1   108.4600466 328.025600
   1659   1657   1669     1   109.5600471 388.275200
   1660   1663   1664     1   109.8000471 387.438400
   1660   1663   1665     1   109.8000471 387.438400
   1661   1660   1663     1   109.5600471 388.275200
   1661   1660   1662     1   108.4600466 328.025600
   1662   1660   1663     1   109.5600471 388.275200
   1663   1672   1673     1   109.5600471 388.275200
   1663   1672   1674     1   109.5600471 388.275200
   1664   1663   1672     1   109.8000471 387.438400
   1664   1663   1665     1   107.5800459 329.699200
   1665   1663   1672     1   109.8000471 387.438400
   1666   1678   1679     1   109.5600471 388.275200
   1666   1678   1680     1   109.5600471 388.275200
   1667   1666   1678     1   109.8000471 387.438400
   1667   1666   1668     1   107.5800459 329.699200
   1668   1666   1678     1   109.8000471 387.438400
   1669   1675   1676     1   109.5600471 388.275200
   1669   1675   1677     1   109.5600471 388.275200
   1670   1669   1675     1   109.8000471 387.438400
   1670   1669   1671     1   107.5800459 329.699200
   1671   1669   1675     1   109.8000471 387.438400
   1673   1672   1681     1   109.7800468 425.094400
   1673   1672   1674     1   108.4600466 328.025600
   1674   1672   1681     1   109.7800468 425.094400
   1676   1675   3392     1   109.7800468 425.094400
   1676   1675   1677     1   108.4600466 328.025600
   1677   1675   3392     1   109.7800468 425.094400
   1679   1678   3421     1   109.7800468 425.094400
   1679   1678   1680     1   108.4600466 328.025600
   1680   1678   3421     1   109.7800468 425.094400
   1682   1683   1684     1   109.8800469 414.216000
   1682   1683   1685     1   109.8800469 414.216000
   1682   1686   1687     1   109.8800469 414.216000
   1682   1686   1688     1   109.8800469 414.216000
   1682   1689   1690     1   109.8800469 414.216000
   1682   1689   1691     1   109.8800469 414.216000
   1683   1695   1696     1   109.8000471 387.438400
   1683   1695   1697     1   109.8000471 387.438400
   1684   1683   1695     1   109.5600471 388.275200
   1684   1683   1685     1   108.4600466 328.025600
   1685   1683   1695     1   109.5600471 388.275200
   1686   1698   1699     1   109.8000471 387.438400
   1686   1698   1700     1   109.8000471 387.438400
   1687   1686   1698     1   109.5600471 388.275200
   1687   1686   1688     1   108.4600466 328.025600
   1688   1686   1698     1   109.5600471 388.275200
   1689   1692   1693     1   109.8000471 387.438400
   1689   1692   1694     1   109.8000471 387.438400
   1690   1689   1692     1   109.5600471 388.275200
   1690   1689   1691     1   108.4600466 328.025600
   1691   1689   1692     1   109.5600471 388.275200
   1692   1701   1702     1   109.5600471 388.275200
   1692   1701   1703     1   109.5600471 388.275200
   1693   1692   1701     1   109.8000471 387.438400
   1693   1692   1694     1   107.5800459 329.699200
   1694   1692   1701     1   109.8000471 387.438400
   1695   1707   1708     1   109.5600471 388.275200
   1695   1707   1709     1   109.5600471 388.275200
   1696   1695   1707     1   109.8000471 387.438400
   1696   1695   1697     1   107.5800459 329.699200
   1697   1695   1707     1   109.8000471 387.438400
   1698   1704   1705     1   109.5600471 388.275200
   1698   1704   1706     1   109.5600471 388.275200
   1699   1698   1704     1   109.8000471 387.438400
   1699   1698   1700     1   107.5800459 329.699200
   1700   1698   1704     1   109.8000471 387.438400
   1702   1701   1710     1   109.7800468 425.094400
   1702   1701   1703     1   108.4600466 328.025600
   1703   1701   1710     1   109.7800468 425.094400
   1705   1704   3450     1   109.7800468 425.094400
   1705   1704   1706     1   108.4600466 328.025600
   1706   1704   3450     1   109.7800468 425.094400
   1708   1707   3479     1   109.7800468 425.094400
   1708   1707   1709     1   108.4600466 328.025600
   1709   1707   3479     1   109.7800468 425.094400
   1711   1712   1713     1   109.8800469 414.216000
   1711   1712   1714     1   109.8800469 414.216000
   1711   1715   1716     1   109.8800469 414.216000
   1711   1715   1717     1   109.8800469 414.216000
   1711   1718   1719     1   109.8800469 414.216000
   1711   1718   1720     1   109.8800469 414.216000
   1712   1724   1725     1   109.8000471 387.438400
   1712   1724   1726     1   109.8000471 387.438400
   1713   1712   1724     1   109.5600471 388.275200
   1713   1712   1714     1   108.4600466 328.025600
   1714   1712   1724     1   109.5600471 388.275200
   1715   1727   1728     1   109.8000471 387.438400
   1715   1727   1729     1   109.8000471 387.438400
   1716   1715   1727     1   109.5600471 388.275200
   1716   1715   1717     1   108.4600466 328.025600
   1717   1715   1727     1   109.5600471 388.275200
   1718   1721   1722     1   109.8000471 387.438400
   1718   1721   1723     1   109.8000471 387.438400
   1719   1718   1721     1   109.5600471 388.275200
   1719   1718   1720     1   108.4600466 328.025600
   1720   1718   1721     1   109.5600471 388.275200
   1721   1730   1731     1   109.5600471 388.275200
   1721   1730   1732     1   109.5600471 388.275200
   1722   1721   1730     1   109.8000471 387.438400
   1722   1721   1723     1   107.5800459 329.699200
   1723   1721   1730     1   109.8000471 387.438400
   1724   1736   1737     1   109.5600471 388.275200
   1724   1736   1738     1   109.5600471 388.275200
   1725   1724   1736     1   109.8000471 387.438400
   1725   1724   1726     1   107.5800459 329.699200
   1726   1724   1736     1   109.8000471 387.438400
   1727   1733   1734     1   109.5600471 388.275200
   1727   1733   1735     1   109.5600471 388.275200
   1728   1727   1733     1   109.8000471 387.438400
   1728   1727   1729     1   107.5800459 329.699200
   1729   1727   1733     1   109.8000471 387.438400
   1731   1730   1739     1   109.7800468 425.094400
   1731   1730   1732     1   108.4600466 328.025600
   1732   1730   1739     1   109.7800468 425.094400
   1734   1733   3508     1   109.7800468 425.094400
   1734   1733   1735     1   108.4600466 328.025600
   1735   1733   3508     1   109.7800468 425.094400
   1737   1736   3537     1   109.7800468 425.094400
   1737   1736   1738     1   108.4600466 328.025600
   1738   1736   3537     1   109.7800468 425.094400
   1740   1741   1742     1   109.8800469 414.216000
   1740   1741   1743     1   109.8800469 414.216000
   1740   1744   1745     1   109.8800469 414.216000
   1740   1744   1746     1   109.8800469 414.216000
   1740   1747   1748     1   109.8800469 414.216000
   1740   1747   1749     1   109.8800469 414.216000
   1741   1753   1754     1   109.8000471 387.438400
   1741   1753   1755     1   109.8000471 387.438400
   1742   1741   1753     1   109.5600471 388.275200
   1742   1741   1743     1   108.4600466 328.025600
   1743   1741   1753     1   109.5600471 388.275200
   1744   1756   1757     1   109.8000471 387.438400
   1744   1756   1758     1   109.8000471 387.438400
   1745   1744   1756     1   109.5600471 388.275200
   1745   1744   1746     1   108.4600466 328.025600
   1746   1744   1756     1   109.5600471 388.275200
   1747   1750   1751     1   109.8000471 387.438400
   1747   1750   1752     1   109.8000471 387.438400
   1748   1747   1750     1   109.5600471 388.275200
   1748   1747   1749     1   108.4600466 328.025600
   1749   1747   1750     1   109.5600471 388.275200
   1750   1759   1760     1   109.5600471 388.275200
   1750   1759   1761     1   109.5600471 388.275200
   1751   1750   1759     1   109.8000471 387.438400
   1751   1750   1752     1   107.5800459 329.699200
   1752   1750   1759     1   109.8000471 387.438400
   1753   1765   1766     1   109.5600471 388.275200
   1753   1765   1767     1   109.5600471 388.275200
   1754   1753   1765     1   109.8000471 387.438400
   1754   1753   1755     1   107.5800459 329.699200
   1755   1753   1765     1   109.8000471 387.438400
   1756   1762   1763     1   109.5600471 388.275200
   1756   1762   1764     1   109.5600471 388.275200
   1757   1756   1762     1   109.8000471 387.438400
   1757   1756   1758     1   107.5800459 329.699200
   1758   1756   1762     1   109.8000471 387.438400
   1760   1759   1768     1   109.7800468 425.094400
   1760   1759   1761     1   108.4600466 328.025600
   1761   1759   1768     1   109.7800468 425.094400
   1763   1762   3566     1   109.7800468 425.094400
   1763   1762   1764     1   108.4600466 328.025600
   1764   1762   3566     1   109.7800468 425.094400
   1766   1765   3595     1   109.7800468 425.094400
   1766   1765   1767     1   108.4600466 328.025600
   1767   1765   3595     1   109.7800468 425.094400
   1769   1770   1771     1   109.8800469 414.216000
   1769   1770   1772     1   109.8800469 414.216000
   1769   1773   1774     1   109.8800469 414.216000
   1769   1773   1775     1   109.8800469 414.216000
   1769   1776   1777     1   109.8800469 414.216000
   1769   1776   1778     1   109.8800469 414.216000
   1770   1782   1783     1   109.8000471 387.438400
   1770   1782   1784     1   109.8000471 387.438400
   1771   1770   1782     1   109.5600471 388.275200
   1771   1770   1772     1   108.4600466 328.025600
   1772   1770   1782     1   109.5600471 388.275200
   1773   1785   1786     1   109.8000471 387.438400
   1773   1785   1787     1   109.8000471 387.438400
   1774   1773   1785     1   109.5600471 388.275200
   1774   1773   1775     1   108.4600466 328.025600
   1775   1773   1785     1   109.5600471 388.275200
   1776   1779   1780     1   109.8000471 387.438400
   1776   1779   1781     1   109.8000471 387.438400
   1777   1776   1779     1   109.5600471 388.275200
   1777   1776   1778     1   108.4600466 328.025600
   1778   1776   1779     1   109.5600471 388.275200
   1779   1788   1789     1   109.5600471 388.275200
   1779   1788   1790     1   109.5600471 388.275200
   1780   1779   1788     1   109.8000471 387.438400
   1780   1779   1781     1   107.5800459 329.699200
   1781   1779   1788     1   109.8000471 387.438400
   1782   1794   1795     1   109.5600471 388.275200
   1782   1794   1796     1   109.5600471 388.275200
   1783   1782   1794     1   109.8000471 387.438400
   1783   1782   1784     1   107.5800459 329.699200
   1784   1782   1794     1   109.8000471 387.438400
   1785   1791   1792     1   109.5600471 388.275200
   1785   1791   1793     1   109.5600471 388.275200
   1786   1785   1791     1   109.8000471 387.438400
   1786   1785   1787     1   107.5800459 329.699200
   1787   1785   1791     1   109.8000471 387.438400
   1789   1788   1797     1   109.7800468 425.094400
   1789   1788   1790     1   108.4600466 328.025600
   1790   1788   1797     1   109.7800468 425.094400
   1792   1791   3624     1   109.7800468 425.094400
   1792   1791   1793     1   108.4600466 328.025600
   1793   1791   3624     1   109.7800468 425.094400
   1795   1794   3653     1   109.7800468 425.094400
   1795   1794   1796     1   108.4600466 328.025600
   1796   1794   3653     1   109.7800468 425.094400
   1798   1799   1800     1   109.8800469 414.216000
   1798   1799   1801     1   109.8800469 414.216000
   1798   1802   1803     1   109.8800469 414.216000
   1798   1802   1804     1   109.8800469 414.216000
   1798   1805   1806     1   109.8800469 414.216000
   1798   1805   1807     1   109.8800469 414.216000
   1799   1811   1812     1   109.8000471 387.438400
   1799   1811   1813     1   109.8000471 387.438400
   1800   1799   1811     1   109.5600471 388.275200
   1800   1799   1801     1   108.4600466 328.025600
   1801   1799   1811     1   109.5600471 388.275200
   1802   1814   1815     1   109.8000471 387.438400
   1802   1814   1816     1   109.8000471 387.438400
   1803   1802   1814     1   109.5600471 388.275200
   1803   1802   1804     1   108.4600466 328.025600
   1804   1802   1814     1   109.5600471 388.275200
   1805   1808   1809     1   109.8000471 387.438400
   1805   1808   1810     1   109.8000471 387.438400
   1806   1805   1808     1   109.5600471 388.275200
   1806   1805   1807     1   108.4600466 328.025600
   1807   1805   1808     1   109.5600471 388.275200
   1808   1817   1818     1   109.5600471 388.275200
   1808   1817   1819     1   109.5600471 388.275200
   1809   1808   1817     1   109.8000471 387.438400
   1809   1808   1810     1   107.5800459 329.699200
   1810   1808   1817     1   109.8000471 387.438400
   1811   1823   1824     1   109.5600471 388.275200
   1811   1823   1825     1   109.5600471 388.275200
   1812   1811   1823     1   109.8000471 387.438400
   1812   1811   1813     1   107.5800459 329.699200
   1813   1811   1823     1   109.8000471 387.438400
   1814   1820   1821     1   109.5600471 388.275200
   1814   1820   1822     1   109.5600471 388.275200
   1815   1814   1820     1   109.8000471 387.438400
   1815   1814   1816     1   107.5800459 329.699200
   1816   1814   1820     1   109.8000471 387.438400
   1818   1817   1826     1   109.7800468 425.094400
   1818   1817   1819     1   108.4600466 328.025600
   1819   1817   1826     1   109.7800468 425.094400
   1821   1820   3682     1   109.7800468 425.094400
   1821   1820   1822     1   108.4600466 328.025600
   1822   1820   3682     1   109.7800468 425.094400
   1824   1823   3711     1   109.7800468 425.094400
   1824   1823   1825     1   108.4600466 328.025600
   1825   1823   3711     1   109.7800468 425.094400
   1827   1828   1829     1   109.8800469 414.216000
   1827   1828   1830     1   109.8800469 414.216000
   1827   1831   1832     1   109.8800469 414.216000
   1827   1831   1833     1   109.8800469 414.216000
   1827   1834   1835     1   109.8800469 414.216000
   1827   1834   1836     1   109.8800469 414.216000
   1828   1840   1841     1   109.8000471 387.438400
   1828   1840   1842     1   109.8000471 387.438400
   1829   1828   1840     1   109.5600471 388.275200
   1829   1828   1830     1   108.4600466 328.025600
   1830   1828   1840     1   109.5600471 388.275200
   1831   1843   1844     1   109.8000471 387.438400
   1831   1843   1845     1   109.8000471 387.438400
   1832   1831   1843     1   109.5600471 388.275200
   1832   1831   1833     1   108.4600466 328.025600
   1833   1831   1843     1   109.5600471 388.275200
   1834   1837   1838     1   109.8000471 387.438400
   1834   1837   1839     1   109.8000471 387.438400
   1835   1834   1837     1   109.5600471 388.275200
   1835   1834   1836     1   108.4600466 328.025600
   1836   1834   1837     1   109.5600471 388.275200
   1837   1846   1847     1   109.5600471 388.275200
   1837   1846   1848     1   109.5600471 388.275200
   1838   1837   1846     1   109.8000471 387.438400
   1838   1837   1839     1   107.5800459 329.699200
   1839   1837   1846     1   109.8000471 387.438400
   1840   1852   1853     1   109.5600471 388.275200
   1840   1852   1854     1   109.5600471 388.275200
   1841   1840   1852     1   109.8000471 387.438400
   1841   1840   1842     1   107.5800459 329.699200
   1842   1840   1852     1   109.8000471 387.438400
   1843   1849   1850     1   109.5600471 388.275200
   1843   1849   1851     1   109.5600471 388.275200
   1844   1843   1849     1   109.8000471 387.438400
   1844   1843   1845     1   107.5800459 329.699200
   1845   1843   1849     1   109.8000471 387.438400
   1847   1846   1855     1   109.7800468 425.094400
   1847   1846   1848     1   108.4600466 328.025600
   1848   1846   1855     1   109.7800468 425.094400
   1850   1849   3740     1   109.7800468 425.094400
   1850   1849   1851     1   108.4600466 328.025600
   1851   1849   3740     1   109.7800468 425.094400
   1853   1852   3769     1   109.7800468 425.094400
   1853   1852   1854     1   108.4600466 328.025600
   1854   1852   3769     1   109.7800468 425.094400
   1856   1857   1858     1   109.8800469 414.216000
   1856   1857   1859     1   109.8800469 414.216000
   1856   1860   1861     1   109.8800469 414.216000
   1856   1860   1862     1   109.8800469 414.216000
   1856   1863   1864     1   109.8800469 414.216000
   1856   1863   1865     1   109.8800469 414.216000
   1857   1869   1870     1   109.8000471 387.438400
   1857   1869   1871     1   109.8000471 387.438400
   1858   1857   1869     1   109.5600471 388.275200
   1858   1857   1859     1   108.4600466 328.025600
   1859   1857   1869     1   109.5600471 388.275200
   1860   1872   1873     1   109.8000471 387.438400
   1860   1872   1874     1   109.8000471 387.438400
   1861   1860   1872     1   109.5600471 388.275200
   1861   1860   1862     1   108.4600466 328.025600
   1862   1860   1872     1   109.5600471 388.275200
   1863   1866   1867     1   109.8000471 387.438400
   1863   1866   1868     1   109.8000471 387.438400
   1864   1863   1866     1   109.5600471 388.275200
   1864   1863   1865     1   108.4600466 328.025600
   1865   1863   1866     1   109.5600471 388.275200
   1866   1875   1876     1   109.5600471 388.275200
   1866   1875   1877     1   109.5600471 388.275200
   1867   1866   1875     1   109.8000471 387.438400
   1867   1866   1868     1   107.5800459 329.699200
   1868   1866   1875     1   109.8000471 387.438400
   1869   1881   1882     1   109.5600471 388.275200
   1869   1881   1883     1   109.5600471 388.275200
   1870   1869   1881     1   109.8000471 387.438400
   1870   1869   1871     1   107.5800459 329.699200
   1871   1869   1881     1   109.8000471 387.438400
   1872   1878   1879     1   109.5600471 388.275200
   1872   1878   1880     1   109.5600471 388.275200
   1873   1872   1878     1   109.8000471 387.438400
   1873   1872   1874     1   107.5800459 329.699200
   1874   1872   1878     1   109.8000471 387.438400
   1876   1875   1884     1   109.7800468 425.094400
   1876   1875   1877     1   108.4600466 328.025600
   1877   1875   1884     1   109.7800468 425.094400
   1879   1878   3798     1   109.7800468 425.094400
   1879   1878   1880     1   108.4600466 328.025600
   1880   1878   3798     1   109.7800468 425.094400
   1882   1881   3827     1   109.7800468 425.094400
   1882   1881   1883     1   108.4600466 328.025600
   1883   1881   3827     1   109.7800468 425.094400
   1885   1886   1887     1   109.8800469 414.216000
   1885   1886   1888     1   109.8800469 414.216000
   1885   1889   1890     1   109.8800469 414.216000
   1885   1889   1891     1   109.8800469 414.216000
   1885   1892   1893     1   109.8800469 414.216000
   1885   1892   1894     1   109.8800469 414.216000
   1886   1898   1899     1   109.8000471 387.438400
   1886   1898   1900     1   109.8000471 387.438400
   1887   1886   1898     1   109.5600471 388.275200
   1887   1886   1888     1   108.4600466 328.025600
   1888   1886   1898     1   109.5600471 388.275200
   1889   1901   1902     1   109.8000471 387.438400
   1889   1901   1903     1   109.8000471 387.438400
   1890   1889   1901     1   109.5600471 388.275200
   1890   1889   1891     1   108.4600466 328.025600
   1891   1889   1901     1   109.5600471 388.275200
   1892   1895   1896     1   109.8000471 387.438400
   1892   1895   1897     1   109.8000471 387.438400
   1893   1892   1895     1   109.5600471 388.275200
   1893   1892   1894     1   108.4600466 328.025600
   1894   1892   1895     1   109.5600471 388.275200
   1895   1904   1905     1   109.5600471 388.275200
   1895   1904   1906     1   109.5600471 388.275200
   1896   1895   1904     1   109.8000471 387.438400
   1896   1895   1897     1   107.5800459 329.699200
   1897   1895   1904     1   109.8000471 387.438400
   1898   1910   1911     1   109.5600471 388.275200
   1898   1910   1912     1   109.5600471 388.275200
   1899   1898   1910     1   109.8000471 387.438400
   1899   1898   1900     1   107.5800459 329.699200
   1900   1898   1910     1   109.8000471 387.438400
   1901   1907   1908     1   109.5600471 388.275200
   1901   1907   1909     1   109.5600471 388.275200
   1902   1901   1907     1   109.8000471 387.438400
   1902   1901   1903     1   107.5800459 329.699200
   1903   1901   1907     1   109.8000471 387.438400
   1905   1904   1913     1   109.7800468 425.094400
   1905   1904   1906     1   108.4600466 328.025600
   1906   1904   1913     1   109.7800468 425.094400
   1908   1907   3856     1   109.7800468 425.094400
   1908   1907   1909     1   108.4600466 328.025600
   1909   1907   3856     1   109.7800468 425.094400
   1911   1910   3885     1   109.7800468 425.094400
   1911   1910   1912     1   108.4600466 328.025600
   1912   1910   3885     1   109.7800468 425.094400
   1914   1915   1916     1   109.8800469 414.216000
   1914   1915   1917     1   109.8800469 414.216000
   1914   1918   1919     1   109.8800469 414.216000
   1914   1918   1920     1   109.8800469 414.216000
   1914   1921   1922     1   109.8800469 414.216000
   1914   1921   1923     1   109.8800469 414.216000
   1915   1927   1928     1   109.8000471 387.438400
   1915   1927   1929     1   109.8000471 387.438400
   1916   1915   1927     1   109.5600471 388.275200
   1916   1915   1917     1   108.4600466 328.025600
   1917   1915   1927     1   109.5600471 388.275200
   1918   1930   1931     1   109.8000471 387.438400
   1918   1930   1932     1   109.8000471 387.438400
   1919   1918   1930     1   109.5600471 388.275200
   1919   1918   1920     1   108.4600466 328.025600
   1920   1918   1930     1   109.5600471 388.275200
   1921   1924   1925     1   109.8000471 387.438400
   1921   1924   1926     1   109.8000471 387.438400
   1922   1921   1924     1   109.5600471 388.275200
   1922   1921   1923     1   108.4600466 328.025600
   1923   1921   1924     1   109.5600471 388.275200
   1924   1933   1934     1   109.5600471 388.275200
   1924   1933   1935     1   109.5600471 388.275200
   1925   1924   1933     1   109.8000471 387.438400
   1925   1924   1926     1   107.5800459 329.699200
   1926   1924   1933     1   109.8000471 387.438400
   1927   1939   1940     1   109.5600471 388.275200
   1927   1939   1941     1   109.5600471 388.275200
   1928   1927   1939     1   109.8000471 387.438400
   1928   1927   1929     1   107.5800459 329.699200
   1929   1927   1939     1   109.8000471 387.438400
   1930   1936   1937     1   109.5600471 388.275200
   1930   1936   1938     1   109.5600471 388.275200
   1931   1930   1936     1   109.8000471 387.438400
   1931   1930   1932     1   107.5800459 329.699200
   1932   1930   1936     1   109.8000471 387.438400
   1934   1933   1942     1   109.7800468 425.094400
   1934   1933   1935     1   108.4600466 328.025600
   1935   1933   1942     1   109.7800468 425.094400
   1937   1936   3914     1   109.7800468 425.094400
   1937   1936   1938     1   108.4600466 328.025600
   1938   1936   3914     1   109.7800468 425.094400
   1940   1939   3943     1   109.7800468 425.094400
   1940   1939   1941     1   108.4600466 328.025600
   1941   1939   3943     1   109.7800468 425.094400
   1943   1944   1945     1   109.8800469 414.216000
   1943   1944   1946     1   109.8800469 414.216000
   1943   1947   1948     1   109.8800469 414.216000
   1943   1947   1949     1   109.8800469 414.216000
   1943   1950   1951     1   109.8800469 414.216000
   1943   1950   1952     1   109.8800469 414.216000
   1944   1956   1957     1   109.8000471 387.438400
   1944   1956   1958     1   109.8000471 387.438400
   1945   1944   1956     1   109.5600471 388.275200
   1945   1944   1946     1   108.4600466 328.025600
   1946   1944   1956     1   109.5600471 388.275200
   1947   1959   1960     1   109.8000471 387.438400
   1947   1959   1961     1   109.8000471 387.438400
   1948   1947   1959     1   109.5600471 388.275200
   1948   1947   1949     1   108.4600466 328.025600
   1949   1947   1959     1   109.5600471 388.275200
   1950   1953   1954     1   109.8000471 387.438400
   1950   1953   1955     1   109.8000471 387.438400
   1951   1950   1953     1   109.5600471 388.275200
   1951   1950   1952     1   108.4600466 328.025600
   1952   1950   1953     1   109.5600471 388.275200
   1953   1962   1963     1   109.5600471 388.275200
   1953   1962   1964     1   109.5600471 388.275200
   1954   1953   1962     1   109.8000471 387.438400
   1954   1953   1955     1   107.5800459 329.699200
   1955   1953   1962     1   109.8000471 387.438400
   1956   1968   1969     1   109.5600471 388.275200
   1956   1968   1970     1   109.5600471 388.275200
   1957   1956   1968     1   109.8000471 387.438400
   1957   1956   1958     1   107.5800459 329.699200
   1958   1956   1968     1   109.8000471 387.438400
   1959   1965   1966     1   109.5600471 388.275200
   1959   1965   1967     1   109.5600471 388.275200
   1960   1959   1965     1   109.8000471 387.438400
   1960   1959   1961     1   107.5800459 329.699200
   1961   1959   1965     1   109.8000471 387.438400
   1963   1962   1971     1   109.7800468 425.094400
   1963   1962   1964     1   108.4600466 328.025600
   1964   1962   1971     1   109.7800468 425.094400
   1966   1965   3972     1   109.7800468 425.094400
   1966   1965   1967     1   108.4600466 328.025600
   1967   1965   3972     1   109.7800468 425.094400
   1969   1968   4001     1   109.7800468 425.094400
   1969   1968   1970     1   108.4600466 328.025600
   1970   1968   4001     1   109.7800468 425.094400
   1972   1973   1974     1   109.8800469 414.216000
   1972   1973   1975     1   109.8800469 414.216000
   1972   1976   1977     1   109.8800469 414.216000
   1972   1976   1978     1   109.8800469 414.216000
   1972   1979   1980     1   109.8800469 414.216000
   1972   1979   1981     1   109.8800469 414.216000
   1973   1985   1986     1   109.8000471 387.438400
   1973   1985   1987     1   109.8000471 387.438400
   1974   1973   1985     1   109.5600471 388.275200
   1974   1973   1975     1   108.4600466 328.025600
   1975   1973   1985     1   109.5600471 388.275200
   1976   1988   1989     1   109.8000471 387.438400
   1976   1988   1990     1   109.8000471 387.438400
   1977   1976   1988     1   109.5600471 388.275200
   1977   1976   1978     1   108.4600466 328.025600
   1978   1976   1988     1   109.5600471 388.275200
   1979   1982   1983     1   109.8000471 387.438400
   1979   1982   1984     1   109.8000471 387.438400
   1980   1979   1982     1   109.5600471 388.275200
   1980   1979   1981     1   108.4600466 328.025600
   1981   1979   1982     1   109.5600471 388.275200
   1982   1991   1992     1   109.5600471 388.275200
   1982   1991   1993     1   109.5600471 388.275200
   1983   1982   1991     1   109.8000471 387.438400
   1983   1982   1984     1   107.5800459 329.699200
   1984   1982   1991     1   109.8000471 387.438400
   1985   1997   1998     1   109.5600471 388.275200
   1985   1997   1999     1   109.5600471 388.275200
   1986   1985   1997     1   109.8000471 387.438400
   1986   1985   1987     1   107.5800459 329.699200
   1987   1985   1997     1   109.8000471 387.438400
   1988   1994   1995     1   109.5600471 388.275200
   1988   1994   1996     1   109.5600471 388.275200
   1989   1988   1994     1   109.8000471 387.438400
   1989   1988   1990     1   107.5800459 329.699200
   1990   1988   1994     1   109.8000471 387.438400
   1992   1991   2000     1   109.7800468 425.094400
   1992   1991   1993     1   108.4600466 328.025600
   1993   1991   2000     1   109.7800468 425.094400
   1995   1994   4030     1   109.7800468 425.094400
   1995   1994   1996     1   108.4600466 328.025600
   1996   1994   4030     1   109.7800468 425.094400
   1998   1997   4059     1   109.7800468 425.094400
   1998   1997   1999     1   108.4600466 328.025600
   1999   1997   4059     1   109.7800468 425.094400
   2001   2002   2003     1   109.8800469 414.216000
   2001   2002   2004     1   109.8800469 414.216000
   2001   2005   2006     1   109.8800469 414.216000
   2001   2005   2007     1   109.8800469 414.216000
   2001   2008   2009     1   109.8800469 414.216000
   2001   2008   2010     1   109.8800469 414.216000
   2002   2014   2015     1   109.8000471 387.438400
   2002   2014   2016     1   109.8000471 387.438400
   2003   2002   2014     1   109.5600471 388.275200
   2003   2002   2004     1   108.4600466 328.025600
   2004   2002   2014     1   109.5600471 388.275200
   2005   2017   2018     1   109.8000471 387.438400
   2005   2017   2019     1   109.8000471 387.438400
   2006   2005   2017     1   109.5600471 388.275200
   2006   2005   2007     1   108.4600466 328.025600
   2007   2005   2017     1   109.5600471 388.275200
   2008   2011   2012     1   109.8000471 387.438400
   2008   2011   2013     1   109.8000471 387.438400
   2009   2008   2011     1   109.5600471 388.275200
   2009   2008   2010     1   108.4600466 328.025600
   2010   2008   2011     1   109.5600471 388.275200
   2011   2020   2021     1   109.5600471 388.275200
   2011   2020   2022     1   109.5600471 388.275200
   2012   2011   2020     1   109.8000471 387.438400
   2012   2011   2013     1   107.5800459 329.699200
   2013   2011   2020     1   109.8000471 387.438400
   2014   2026   2027     1   109.5600471 388.275200
   2014   2026   2028     1   109.5600471 388.275200
   2015   2014   2026     1   109.8000471 387.438400
   2015   2014   2016     1   107.5800459 329.699200
   2016   2014   2026     1   109.8000471 387.438400
   2017   2023   2024     1   109.5600471 388.275200
   2017   2023   2025     1   109.5600471 388.275200
   2018   2017   2023     1   109.8000471 387.438400
   2018   2017   2019     1   107.5800459 329.699200
   2019   2017   2023     1   109.8000471 387.438400
   2021   2020   2029     1   109.7800468 425.094400
   2021   2020   2022     1   108.4600466 328.025600
   2022   2020   2029     1   109.7800468 425.094400
   2024   2023   4088     1   109.7800468 425.094400
   2024   2023   2025     1   108.4600466 328.025600
   2025   2023   4088     1   109.7800468 425.094400
   2027   2026   4117     1   109.7800468 425.094400
   2027   2026   2028     1   108.4600466 328.025600
   2028   2026   4117     1   109.7800468 425.094400
   2030   2031   2032     1   109.8800469 414.216000
   2030   2031   2033     1   109.8800469 414.216000
   2030   2034   2035     1   109.8800469 414.216000
   2030   2034   2036     1   109.8800469 414.216000
   2030   2037   2038     1   109.8800469 414.216000
   2030   2037   2039     1   109.8800469 414.216000
   2031   2043   2044     1   109.8000471 387.438400
   2031   2043   2045     1   109.8000471 387.438400
   2032   2031   2043     1   109.5600471 388.275200
   2032   2031   2033     1   108.4600466 328.025600
   2033   2031   2043     1   109.5600471 388.275200
   2034   2046   2047     1   109.8000471 387.438400
   2034   2046   2048     1   109.8000471 387.438400
   2035   2034   2046     1   109.5600471 388.275200
   2035   2034   2036     1   108.4600466 328.025600
   2036   2034   2046     1   109.5600471 388.275200
   2037   2040   2041     1   109.8000471 387.438400
   2037   2040   2042     1   109.8000471 387.438400
   2038   2037   2040     1   109.5600471 388.275200
   2038   2037   2039     1   108.4600466 328.025600
   2039   2037   2040     1   109.5600471 388.275200
   2040   2049   2050     1   109.5600471 388.275200
   2040   2049   2051     1   109.5600471 388.275200
   2041   2040   2049     1   109.8000471 387.438400
   2041   2040   2042     1   107.5800459 329.699200
   2042   2040   2049     1   109.8000471 387.438400
   2043   2055   2056     1   109.5600471 388.275200
   2043   2055   2057     1   109.5600471 388.275200
   2044   2043   2055     1   109.8000471 387.438400
   2044   2043   2045     1   107.5800459 329.699200
   2045   2043   2055     1   109.8000471 387.438400
   2046   2052   2053     1   109.5600471 388.275200
   2046   2052   2054     1   109.5600471 388.275200
   2047   2046   2052     1   109.8000471 387.438400
   2047   2046   2048     1   107.5800459 329.699200
   2048   2046   2052     1   109.8000471 387.438400
   2050   2049   2058     1   109.7800468 425.094400
   2050   2049   2051     1   108.4600466 328.025600
   2051   2049   2058     1   109.7800468 425.094400
   2053   2052   4146     1   109.7800468 425.094400
   2053   2052   2054     1   108.4600466 328.025600
   2054   2052   4146     1   109.7800468 425.094400
   2056   2055   4175     1   109.7800468 425.094400
   2056   2055   2057     1   108.4600466 328.025600
   2057   2055   4175     1   109.7800468 425.094400
   2059   2060   2061     1   109.8800469 414.216000
   2059   2060   2062     1   109.8800469 414.216000
   2059   2063   2064     1   109.8800469 414.216000
   2059   2063   2065     1   109.8800469 414.216000
   2059   2066   2067     1   109.8800469 414.216000
   2059   2066   2068     1   109.8800469 414.216000
   2060   2072   2073     1   109.8000471 387.438400
   2060   2072   2074     1   109.8000471 387.438400
   2061   2060   2072     1   109.5600471 388.275200
   2061   2060   2062     1   108.4600466 328.025600
   2062   2060   2072     1   109.5600471 388.275200
   2063   2075   2076     1   109.8000471 387.438400
   2063   2075   2077     1   109.8000471 387.438400
   2064   2063   2075     1   109.5600471 388.275200
   2064   2063   2065     1   108.4600466 328.025600
   2065   2063   2075     1   109.5600471 388.275200
   2066   2069   2070     1   109.8000471 387.438400
   2066   2069   2071     1   109.8000471 387.438400
   2067   2066   2069     1   109.5600471 388.275200
   2067   2066   2068     1   108.4600466 328.025600
   2068   2066   2069     1   109.5600471 388.275200
   2069   2078   2079     1   109.5600471 388.275200
   2069   2078   2080     1   109.5600471 388.275200
   2070   2069   2078     1   109.8000471 387.438400
   2070   2069   2071     1   107.5800459 329.699200
   2071   2069   2078     1   109.8000471 387.438400
   2072   2084   2085     1   109.5600471 388.275200
   2072   2084   2086     1   109.5600471 388.275200
   2073   2072   2084     1   109.8000471 387.438400
   2073   2072   2074     1   107.5800459 329.699200
   2074   2072   2084     1   109.8000471 387.438400
   2075   2081   2082     1   109.5600471 388.275200
   2075   2081   2083     1   109.5600471 388.275200
   2076   2075   2081     1   109.8000471 387.438400
   2076   2075   2077     1   107.5800459 329.699200
   2077   2075   2081     1   109.8000471 387.438400
   2079   2078   2087     1   109.7800468 425.094400
   2079   2078   2080     1   108.4600466 328.025600
   2080   2078   2087     1   109.7800468 425.094400
   2082   2081   4204     1   109.7800468 425.094400
   2082   2081   2083     1   108.4600466 328.025600
   2083   2081   4204     1   109.7800468 425.094400
   2085   2084   4233     1   109.7800468 425.094400
   2085   2084   2086     1   108.4600466 328.025600
   2086   2084   4233     1   109.7800468 425.094400
   2088   2089   2090     1   109.8800469 414.216000
   2088   2089   2091     1   109.8800469 414.216000
   2088   2092   2093     1   109.8800469 414.216000
   2088   2092   2094     1   109.8800469 414.216000
   2088   2095   2096     1   109.8800469 414.216000
   2088   2095   2097     1   109.8800469 414.216000
   2089   2101   2102     1   109.8000471 387.438400
   2089   2101   2103     1   109.8000471 387.438400
   2090   2089   2101     1   109.5600471 388.275200
   2090   2089   2091     1   108.4600466 328.025600
   2091   2089   2101     1   109.5600471 388.275200
   2092   2104   2105     1   109.8000471 387.438400
   2092   2104   2106     1   109.8000471 387.438400
   2093   2092   2104     1   109.5600471 388.275200
   2093   2092   2094     1   108.4600466 328.025600
   2094   2092   2104     1   109.5600471 388.275200
   2095   2098   2099     1   109.8000471 387.438400
   2095   2098   2100     1   109.8000471 387.438400
   2096   2095   2098     1   109.5600471 388.275200
   2096   2095   2097     1   108.4600466 328.025600
   2097   2095   2098     1   109.5600471 388.275200
   2098   2107   2108     1   109.5600471 388.275200
   2098   2107   2109     1   109.5600471 388.275200
   2099   2098   2107     1   109.8000471 387.438400
   2099   2098   2100     1   107.5800459 329.699200
   2100   2098   2107     1   109.8000471 387.438400
   2101   2113   2114     1   109.5600471 388.275200
   2101   2113   2115     1   109.5600471 388.275200
   2102   2101   2113     1   109.8000471 387.438400
   2102   2101   2103     1   107.5800459 329.699200
   2103   2101   2113     1   109.8000471 387.438400
   2104   2110   2111     1   109.5600471 388.275200
   2104   2110   2112     1   109.5600471 388.275200
   2105   2104   2110     1   109.8000471 387.438400
   2105   2104   2106     1   107.5800459 329.699200
   2106   2104   2110     1   109.8000471 387.438400
   2108   2107   2116     1   109.7800468 425.094400
   2108   2107   2109     1   108.4600466 328.025600
   2109   2107   2116     1   109.7800468 425.094400
   2111   2110   4262     1   109.7800468 425.094400
   2111   2110   2112     1   108.4600466 328.025600
   2112   2110   4262     1   109.7800468 425.094400
   2114   2113   4291     1   109.7800468 425.094400
   2114   2113   2115     1   108.4600466 328.025600
   2115   2113   4291     1   109.7800468 425.094400
   2117   2118   2119     1   109.8800469 414.216000
   2117   2118   2120     1   109.8800469 414.216000
   2117   2121   2122     1   109.8800469 414.216000
   2117   2121   2123     1   109.8800469 414.216000
   2117   2124   2125     1   109.8800469 414.216000
   2117   2124   2126     1   109.8800469 414.216000
   2118   2130   2131     1   109.8000471 387.438400
   2118   2130   2132     1   109.8000471 387.438400
   2119   2118   2130     1   109.5600471 388.275200
   2119   2118   2120     1   108.4600466 328.025600
   2120   2118   2130     1   109.5600471 388.275200
   2121   2133   2134     1   109.8000471 387.438400
   2121   2133   2135     1   109.8000471 387.438400
   2122   2121   2133     1   109.5600471 388.275200
   2122   2121   2123     1   108.4600466 328.025600
   2123   2121   2133     1   109.5600471 388.275200
   2124   2127   2128     1   109.8000471 387.438400
   2124   2127   2129     1   109.8000471 387.438400
   2125   2124   2127     1   109.5600471 388.275200
   2125   2124   2126     1   108.4600466 328.025600
   2126   2124   2127     1   109.5600471 388.275200
   2127   2136   2137     1   109.5600471 388.275200
   2127   2136   2138     1   109.5600471 388.275200
   2128   2127   2136     1   109.8000471 387.438400
   2128   2127   2129     1   107.5800459 329.699200
   2129   2127   2136     1   109.8000471 387.438400
   2130   2142   2143     1   109.5600471 388.275200
   2130   2142   2144     1   109.5600471 388.275200
   2131   2130   2142     1   109.8000471 387.438400
   2131   2130   2132     1   107.5800459 329.699200
   2132   2130   2142     1   109.8000471 387.438400
   2133   2139   2140     1   109.5600471 388.275200
   2133   2139   2141     1   109.5600471 388.275200
   2134   2133   2139     1   109.8000471 387.438400
   2134   2133   2135     1   107.5800459 329.699200
   2135   2133   2139     1   109.8000471 387.438400
   2137   2136   2145     1   109.7800468 425.094400
   2137   2136   2138     1   108.4600466 328.025600
   2138   2136   2145     1   109.7800468 425.094400
   2140   2139   4320     1   109.7800468 425.094400
   2140   2139   2141     1   108.4600466 328.025600
   2141   2139   4320     1   109.7800468 425.094400
   2143   2142   4349     1   109.7800468 425.094400
   2143   2142   2144     1   108.4600466 328.025600
   2144   2142   4349     1   109.7800468 425.094400
   2146   2147   2148     1   109.8800469 414.216000
   2146   2147   2149     1   109.8800469 414.216000
   2146   2150   2151     1   109.8800469 414.216000
   2146   2150   2152     1   109.8800469 414.216000
   2146   2153   2154     1   109.8800469 414.216000
   2146   2153   2155     1   109.8800469 414.216000
   2147   2159   2160     1   109.8000471 387.438400
   2147   2159   2161     1   109.8000471 387.438400
   2148   2147   2159     1   109.5600471 388.275200
   2148   2147   2149     1   108.4600466 328.025600
   2149   2147   2159     1   109.5600471 388.275200
   2150   2162   2163     1   109.8000471 387.438400
   2150   2162   2164     1   109.8000471 387.438400
   2151   2150   2162     1   109.5600471 388.275200
   2151   2150   2152     1   108.4600466 328.025600
   2152   2150   2162     1   109.5600471 388.275200
   2153   2156   2157     1   109.8000471 387.438400
   2153   2156   2158     1   109.8000471 387.438400
   2154   2153   2156     1   109.5600471 388.275200
   2154   2153   2155     1   108.4600466 328.025600
   2155   2153   2156     1   109.5600471 388.275200
   2156   2165   2166     1   109.5600471 388.275200
   2156   2165   2167     1   109.5600471 388.275200
   2157   2156   2165     1   109.8000471 387.438400
   2157   2156   2158     1   107.5800459 329.699200
   2158   2156   2165     1   109.8000471 387.438400
   2159   2171   2172     1   109.5600471 388.275200
   2159   2171   2173     1   109.5600471 388.275200
   2160   2159   2171     1   109.8000471 387.438400
   2160   2159   2161     1   107.5800459 329.699200
   2161   2159   2171     1   109.8000471 387.438400
   2162   2168   2169     1   109.5600471 388.275200
   2162   2168   2170     1   109.5600471 388.275200
   2163   2162   2168     1   109.8000471 387.438400
   2163   2162   2164     1   107.5800459 329.699200
   2164   2162   2168     1   109.8000471 387.438400
   2166   2165   2174     1   109.7800468 425.094400
   2166   2165   2167     1   108.4600466 328.025600
   2167   2165   2174     1   109.7800468 425.094400
   2169   2168   4378     1   109.7800468 425.094400
   2169   2168   2170     1   108.4600466 328.025600
   2170   2168   4378     1   109.7800468 425.094400
   2172   2171   4407     1   109.7800468 425.094400
   2172   2171   2173     1   108.4600466 328.025600
   2173   2171   4407     1   109.7800468 425.094400
   2175   2176   2177     1   109.8800469 414.216000
   2175   2176   2178     1   109.8800469 414.216000
   2175   2179   2180     1   109.8800469 414.216000
   2175   2179   2181     1   109.8800469 414.216000
   2175   2182   2183     1   109.8800469 414.216000
   2175   2182   2184     1   109.8800469 414.216000
   2176   2188   2189     1   109.8000471 387.438400
   2176   2188   2190     1   109.8000471 387.438400
   2177   2176   2188     1   109.5600471 388.275200
   2177   2176   2178     1   108.4600466 328.025600
   2178   2176   2188     1   109.5600471 388.275200
   2179   2191   2192     1   109.8000471 387.438400
   2179   2191   2193     1   109.8000471 387.438400
   2180   2179   2191     1   109.5600471 388.275200
   2180   2179   2181     1   108.4600466 328.025600
   2181   2179   2191     1   109.5600471 388.275200
   2182   2185   2186     1   109.8000471 387.438400
   2182   2185   2187     1   109.8000471 387.438400
   2183   2182   2185     1   109.5600471 388.275200
   2183   2182   2184     1   108.4600466 328.025600
   2184   2182   2185     1   109.5600471 388.275200
   2185   2194   2195     1   109.5600471 388.275200
   2185   2194   2196     1   109.5600471 388.275200
   2186   2185   2194     1   109.8000471 387.438400
   2186   2185   2187     1   107.5800459 329.699200
   2187   2185   2194     1   109.8000471 387.438400
   2188   2200   2201     1   109.5600471 388.275200
   2188   2200   2202     1   109.5600471 388.275200
   2189   2188   2200     1   109.8000471 387.438400
   2189   2188   2190     1   107.5800459 329.699200
   2190   2188   2200     1   109.8000471 387.438400
   2191   2197   2198     1   109.5600471 388.275200
   2191   2197   2199     1   109.5600471 388.275200
   2192   2191   2197     1   109.8000471 387.438400
   2192   2191   2193     1   107.5800459 329.699200
   2193   2191   2197     1   109.8000471 387.438400
   2195   2194   2203     1   109.7800468 425.094400
   2195   2194   2196     1   108.4600466 328.025600
   2196   2194   2203     1   109.7800468 425.094400
   2198   2197   4436     1   109.7800468 425.094400
   2198   2197   2199     1   108.4600466 328.025600
   2199   2197   4436     1   109.7800468 425.094400
   2201   2200   4465     1   109.7800468 425.094400
   2201   2200   2202     1   108.4600466 328.025600
   2202   2200   4465     1   109.7800468 425.094400
   2204   2205   2206     1   109.8800469 414.216000
   2204   2205   2207     1   109.8800469 414.216000
   2204   2208   2209     1   109.8800469 414.216000
   2204   2208   2210     1   109.8800469 414.216000
   2204   2211   2212     1   109.8800469 414.216000
   2204   2211   2213     1   109.8800469 414.216000
   2205   2217   2218     1   109.8000471 387.438400
   2205   2217   2219     1   109.8000471 387.438400
   2206   2205   2217     1   109.5600471 388.275200
   2206   2205   2207     1   108.4600466 328.025600
   2207   2205   2217     1   109.5600471 388.275200
   2208   2220   2221     1   109.8000471 387.438400
   2208   2220   2222     1   109.8000471 387.438400
   2209   2208   2220     1   109.5600471 388.275200
   2209   2208   2210     1   108.4600466 328.025600
   2210   2208   2220     1   109.5600471 388.275200
   2211   2214   2215     1   109.8000471 387.438400
   2211   2214   2216     1   109.8000471 387.438400
   2212   2211   2214     1   109.5600471 388.275200
   2212   2211   2213     1   108.4600466 328.025600
   2213   2211   2214     1   109.5600471 388.275200
   2214   2223   2224     1   109.5600471 388.275200
   2214   2223   2225     1   109.5600471 388.275200
   2215   2214   2223     1   109.8000471 387.438400
   2215   2214   2216     1   107.5800459 329.699200
   2216   2214   2223     1   109.8000471 387.438400
   2217   2229   2230     1   109.5600471 388.275200
   2217   2229   2231     1   109.5600471 388.275200
   2218   2217   2229     1   109.8000471 387.438400
   2218   2217   2219     1   107.5800459 329.699200
   2219   2217   2229     1   109.8000471 387.438400
   2220   2226   2227     1   109.5600471 388.275200
   2220   2226   2228     1   109.5600471 388.275200
   2221   2220   2226     1   109.8000471 387.438400
   2221   2220   2222     1   107.5800459 329.699200
   2222   2220   2226     1   109.8000471 387.438400
   2224   2223   2232     1   109.7800468 425.094400
   2224   2223   2225     1   108.4600466 328.025600
   2225   2223   2232     1   109.7800468 425.094400
   2227   2226   4494     1   109.7800468 425.094400
   2227   2226   2228     1   108.4600466 328.025600
   2228   2226   4494     1   109.7800468 425.094400
   2230   2229   4523     1   109.7800468 425.094400
   2230   2229   2231     1   108.4600466 328.025600
   2231   2229   4523     1   109.7800468 425.094400
   2233   2234   2235     1   109.8800469 414.216000
   2233   2234   2236     1   109.8800469 414.216000
   2233   2237   2238     1   109.8800469 414.216000
   2233   2237   2239     1   109.8800469 414.216000
   2233   2240   2241     1   109.8800469 414.216000
   2233   2240   2242     1   109.8800469 414.216000
   2234   2246   2247     1   109.8000471 387.438400
   2234   2246   2248     1   109.8000471 387.438400
   2235   2234   2246     1   109.5600471 388.275200
   2235   2234   2236     1   108.4600466 328.025600
   2236   2234   2246     1   109.5600471 388.275200
   2237   2249   2250     1   109.8000471 387.438400
   2237   2249   2251     1   109.8000471 387.438400
   2238   2237   2249     1   109.5600471 388.275200
   2238   2237   2239     1   108.4600466 328.025600
   2239   2237   2249     1   109.5600471 388.275200
   2240   2243   2244     1   109.8000471 387.438400
   2240   2243   2245     1   109.8000471 387.438400
   2241   2240   2243     1   109.5600471 388.275200
   2241   2240   2242     1   108.4600466 328.025600
   2242   2240   2243     1   109.5600471 388.275200
   2243   2252   2253     1   109.5600471 388.275200
   2243   2252   2254     1   109.5600471 388.275200
   2244   2243   2252     1   109.8000471 387.438400
   2244   2243   2245     1   107.5800459 329.699200
   2245   2243   2252     1   109.8000471 387.438400
   2246   2258   2259     1   109.5600471 388.275200
   2246   2258   2260     1   109.5600471 388.275200
   2247   2246   2258     1   109.8000471 387.438400
   2247   2246   2248     1   107.5800459 329.699200
   2248   2246   2258     1   109.8000471 387.438400
   2249   2255   2256     1   109.5600471 388.275200
   2249   2255   2257     1   109.5600471 388.275200
   2250   2249   2255     1   109.8000471 387.438400
   2250   2249   2251     1   107.5800459 329.699200
   2251   2249   2255     1   109.8000471 387.438400
   2253   2252   2261     1   109.7800468 425.094400
   2253   2252   2254     1   108.4600466 328.025600
   2254   2252   2261     1   109.7800468 425.094400
   2256   2255   4552     1   109.7800468 425.094400
   2256   2255   2257     1   108.4600466 328.025600
   2257   2255   4552     1   109.7800468 425.094400
   2259   2258   4581     1   109.7800468 425.094400
   2259   2258   2260     1   108.4600466 328.025600
   2260   2258   4581     1   109.7800468 425.094400
   2262   2263   2264     1   109.8800469 414.216000
   2262   2263   2265     1   109.8800469 414.216000
   2262   2266   2267     1   109.8800469 414.216000
   2262   2266   2268     1   109.8800469 414.216000
   2262   2269   2270     1   109.8800469 414.216000
   2262   2269   2271     1   109.8800469 414.216000
   2263   2275   2276     1   109.8000471 387.438400
   2263   2275   2277     1   109.8000471 387.438400
   2264   2263   2275     1   109.5600471 388.275200
   2264   2263   2265     1   108.4600466 328.025600
   2265   2263   2275     1   109.5600471 388.275200
   2266   2278   2279     1   109.8000471 387.438400
   2266   2278   2280     1   109.8000471 387.438400
   2267   2266   2278     1   109.5600471 388.275200
   2267   2266   2268     1   108.4600466 328.025600
   2268   2266   2278     1   109.5600471 388.275200
   2269   2272   2273     1   109.8000471 387.438400
   2269   2272   2274     1   109.8000471 387.438400
   2270   2269   2272     1   109.5600471 388.275200
   2270   2269   2271     1   108.4600466 328.025600
   2271   2269   2272     1   109.5600471 388.275200
   2272   2281   2282     1   109.5600471 388.275200
   2272   2281   2283     1   109.5600471 388.275200
   2273   2272   2281     1   109.8000471 387.438400
   2273   2272   2274     1   107.5800459 329.699200
   2274   2272   2281     1   109.8000471 387.438400
   2275   2287   2288     1   109.5600471 388.275200
   2275   2287   2289     1   109.5600471 388.275200
   2276   2275   2287     1   109.8000471 387.438400
   2276   2275   2277     1   107.5800459 329.699200
   2277   2275   2287     1   109.8000471 387.438400
   2278   2284   2285     1   109.5600471 388.275200
   2278   2284   2286     1   109.5600471 388.275200
   2279   2278   2284     1   109.8000471 387.438400
   2279   2278   2280     1   107.5800459 329.699200
   2280   2278   2284     1   109.8000471 387.438400
   2282   2281   2290     1   109.7800468 425.094400
   2282   2281   2283     1   108.4600466 328.025600
   2283   2281   2290     1   109.7800468 425.094400
   2285   2284   4610     1   109.7800468 425.094400
   2285   2284   2286     1   108.4600466 328.025600
   2286   2284   4610     1   109.7800468 425.094400
   2288   2287   4639     1   109.7800468 425.094400
   2288   2287   2289     1   108.4600466 328.025600
   2289   2287   4639     1   109.7800468 425.094400
   2291   2292   2293     1   109.8800469 414.216000
   2291   2292   2294     1   109.8800469 414.216000
   2291   2295   2296     1   109.8800469 414.216000
   2291   2295   2297     1   109.8800469 414.216000
   2291   2298   2299     1   109.8800469 414.216000
   2291   2298   2300     1   109.8800469 414.216000
   2292   2304   2305     1   109.8000471 387.438400
   2292   2304   2306     1   109.8000471 387.438400
   2293   2292   2304     1   109.5600471 388.275200
   2293   2292   2294     1   108.4600466 328.025600
   2294   2292   2304     1   109.5600471 388.275200
   2295   2307   2308     1   109.8000471 387.438400
   2295   2307   2309     1   109.8000471 387.438400
   2296   2295   2307     1   109.5600471 388.275200
   2296   2295   2297     1   108.4600466 328.025600
   2297   2295   2307     1   109.5600471 388.275200
   2298   2301   2302     1   109.8000471 387.438400
   2298   2301   2303     1   109.8000471 387.438400
   2299   2298   2301     1   109.5600471 388.275200
   2299   2298   2300     1   108.4600466 328.025600
   2300   2298   2301     1   109.5600471 388.275200
   2301   2310   2311     1   109.5600471 388.275200
   2301   2310   2312     1   109.5600471 388.275200
   2302   2301   2310     1   109.8000471 387.438400
   2302   2301   2303     1   107.5800459 329.699200
   2303   2301   2310     1   109.8000471 387.438400
   2304   2316   2317     1   109.5600471 388.275200
   2304   2316   2318     1   109.5600471 388.275200
   2305   2304   2316     1   109.8000471 387.438400
   2305   2304   2306     1   107.5800459 329.699200
   2306   2304   2316     1   109.8000471 387.438400
   2307   2313   2314     1   109.5600471 388.275200
   2307   2313   2315     1   109.5600471 388.275200
   2308   2307   2313     1   109.8000471 387.438400
   2308   2307   2309     1   107.5800459 329.699200
   2309   2307   2313     1   109.8000471 387.438400
   2311   2310   2319     1   109.7800468 425.094400
   2311   2310   2312     1   108.4600466 328.025600
   2312   2310   2319     1   109.7800468 425.094400
   2314   2313   4668     1   109.7800468 425.094400
   2314   2313   2315     1   108.4600466 328.025600
   2315   2313   4668     1   109.7800468 425.094400
   2317   2316   4697     1   109.7800468 425.094400
   2317   2316   2318     1   108.4600466 328.025600
   2318   2316   4697     1   109.7800468 425.094400
   2320   2321   2322     1   109.8800469 414.216000
   2320   2321   2323     1   109.8800469 414.216000
   2320   2324   2325     1   109.8800469 414.216000
   2320   2324   2326     1   109.8800469 414.216000
   2320   2327   2328     1   109.8800469 414.216000
   2320   2327   2329     1   109.8800469 414.216000
   2321   2333   2334     1   109.8000471 387.438400
   2321   2333   2335     1   109.8000471 387.438400
   2322   2321   2333     1   109.5600471 388.275200
   2322   2321   2323     1   108.4600466 328.025600
   2323   2321   2333     1   109.5600471 388.275200
   2324   2336   2337     1   109.8000471 387.438400
   2324   2336   2338     1   109.8000471 387.438400
   2325   2324   2336     1   109.5600471 388.275200
   2325   2324   2326     1   108.4600466 328.025600
   2326   2324   2336     1   109.5600471 388.275200
   2327   2330   2331     1   109.8000471 387.438400
   2327   2330   2332     1   109.8000471 387.438400
   2328   2327   2330     1   109.5600471 388.275200
   2328   2327   2329     1   108.4600466 328.025600
   2329   2327   2330     1   109.5600471 388.275200
   2330   2339   2340     1   109.5600471 388.275200
   2330   2339   2341     1   109.5600471 388.275200
   2331   2330   2339     1   109.8000471 387.438400
   2331   2330   2332     1   107.5800459 329.699200
   2332   2330   2339     1   109.8000471 387.438400
   2333   2345   2346     1   109.5600471 388.275200
   2333   2345   2347     1   109.5600471 388.275200
   2334   2333   2345     1   109.8000471 387.438400
   2334   2333   2335     1   107.5800459 329.699200
   2335   2333   2345     1   109.8000471 387.438400
   2336   2342   2343     1   109.5600471 388.275200
   2336   2342   2344     1   109.5600471 388.275200
   2337   2336   2342     1   109.8000471 387.438400
   2337   2336   2338     1   107.5800459 329.699200
   2338   2336   2342     1   109.8000471 387.438400
   2340   2339   2348     1   109.7800468 425.094400
   2340   2339   2341     1   108.4600466 328.025600
   2341   2339   2348     1   109.7800468 425.094400
   2343   2342   4726     1   109.7800468 425.094400
   2343   2342   2344     1   108.4600466 328.025600
   2344   2342   4726     1   109.7800468 425.094400
   2346   2345   4755     1   109.7800468 425.094400
   2346   2345   2347     1   108.4600466 328.025600
   2347   2345   4755     1   109.7800468 425.094400
   2349   2350   2351     1   109.8800469 414.216000
   2349   2350   2352     1   109.8800469 414.216000
   2349   2353   2354     1   109.8800469 414.216000
   2349   2353   2355     1   109.8800469 414.216000
   2349   2356   2357     1   109.8800469 414.216000
   2349   2356   2358     1   109.8800469 414.216000
   2350   2362   2363     1   109.8000471 387.438400
   2350   2362   2364     1   109.8000471 387.438400
   2351   2350   2362     1   109.5600471 388.275200
   2351   2350   2352     1   108.4600466 328.025600
   2352   2350   2362     1   109.5600471 388.275200
   2353   2365   2366     1   109.8000471 387.438400
   2353   2365   2367     1   109.8000471 387.438400
   2354   2353   2365     1   109.5600471 388.275200
   2354   2353   2355     1   108.4600466 328.025600
   2355   2353   2365     1   109.5600471 388.275200
   2356   2359   2360     1   109.8000471 387.438400
   2356   2359   2361     1   109.8000471 387.438400
   2357   2356   2359     1   109.5600471 388.275200
   2357   2356   2358     1   108.4600466 328.025600
   2358   2356   2359     1   109.5600471 388.275200
   2359   2368   2369     1   109.5600471 388.275200
   2359   2368   2370     1   109.5600471 388.275200
   2360   2359   2368     1   109.8000471 387.438400
   2360   2359   2361     1   107.5800459 329.699200
   2361   2359   2368     1   109.8000471 387.438400
   2362   2374   2375     1   109.5600471 388.275200
   2362   2374   2376     1   109.5600471 388.275200
   2363   2362   2374     1   109.8000471 387.438400
   2363   2362   2364     1   107.5800459 329.699200
   2364   2362   2374     1   109.8000471 387.438400
   2365   2371   2372     1   109.5600471 388.275200
   2365   2371   2373     1   109.5600471 388.275200
   2366   2365   2371     1   109.8000471 387.438400
   2366   2365   2367     1   107.5800459 329.699200
   2367   2365   2371     1   109.8000471 387.438400
   2369   2368   2377     1   109.7800468 425.094400
   2369   2368   2370     1   108.4600466 328.025600
   2370   2368   2377     1   109.7800468 425.094400
   2372   2371   4784     1   109.7800468 425.094400
   2372   2371   2373     1   108.4600466 328.025600
   2373   2371   4784     1   109.7800468 425.094400
   2375   2374   4813     1   109.7800468 425.094400
   2375   2374   2376     1   108.4600466 328.025600
   2376   2374   4813     1   109.7800468 425.094400
   2378   2379   2380     1   109.8800469 414.216000
   2378   2379   2381     1   109.8800469 414.216000
   2378   2382   2383     1   109.8800469 414.216000
   2378   2382   2384     1   109.8800469 414.216000
   2378   2385   2386     1   109.8800469 414.216000
   2378   2385   2387     1   109.8800469 414.216000
   2379   2391   2392     1   109.8000471 387.438400
   2379   2391   2393     1   109.8000471 387.438400
   2380   2379   2391     1   109.5600471 388.275200
   2380   2379   2381     1   108.4600466 328.025600
   2381   2379   2391     1   109.5600471 388.275200
   2382   2394   2395     1   109.8000471 387.438400
   2382   2394   2396     1   109.8000471 387.438400
   2383   2382   2394     1   109.5600471 388.275200
   2383   2382   2384     1   108.4600466 328.025600
   2384   2382   2394     1   109.5600471 388.275200
   2385   2388   2389     1   109.8000471 387.438400
   2385   2388   2390     1   109.8000471 387.438400
   2386   2385   2388     1   109.5600471 388.275200
   2386   2385   2387     1   108.4600466 328.025600
   2387   2385   2388     1   109.5600471 388.275200
   2388   2397   2398     1   109.5600471 388.275200
   2388   2397   2399     1   109.5600471 388.275200
   2389   2388   2397     1   109.8000471 387.438400
   2389   2388   2390     1   107.5800459 329.699200
   2390   2388   2397     1   109.8000471 387.438400
   2391   2403   2404     1   109.5600471 388.275200
   2391   2403   2405     1   109.5600471 388.275200
   2392   2391   2403     1   109.8000471 387.438400
   2392   2391   2393     1   107.5800459 329.699200
   2393   2391   2403     1   109.8000471 387.438400
   2394   2400   2401     1   109.5600471 388.275200
   2394   2400   2402     1   109.5600471 388.275200
   2395   2394   2400     1   109.8000471 387.438400
   2395   2394   2396     1   107.5800459 329.699200
   2396   2394   2400     1   109.8000471 387.438400
   2398   2397   2406     1   109.7800468 425.094400
   2398   2397   2399     1   108.4600466 328.025600
   2399   2397   2406     1   109.7800468 425.094400
   2401   2400   4842     1   109.7800468 425.094400
   2401   2400   2402     1   108.4600466 328.025600
   2402   2400   4842     1   109.7800468 425.094400
   2404   2403   4871     1   109.7800468 425.094400
   2404   2403   2405     1   108.4600466 328.025600
   2405   2403   4871     1   109.7800468 425.094400
   2407   2408   2409     1   109.8800469 414.216000
   2407   2408   2410     1   109.8800469 414.216000
   2407   2411   2412     1   109.8800469 414.216000
   2407   2411   2413     1   109.8800469 414.216000
   2407   2414   2415     1   109.8800469 414.216000
   2407   2414   2416     1   109.8800469 414.216000
   2408   2420   2421     1   109.8000471 387.438400
   2408   2420   2422     1   109.8000471 387.438400
   2409   2408   2420     1   109.5600471 388.275200
   2409   2408   2410     1   108.4600466 328.025600
   2410   2408   2420     1   109.5600471 388.275200
   2411   2423   2424     1   109.8000471 387.438400
   2411   2423   2425     1   109.8000471 387.438400
   2412   2411   2423     1   109.5600471 388.275200
   2412   2411   2413     1   108.4600466 328.025600
   2413   2411   2423     1   109.5600471 388.275200
   2414   2417   2418     1   109.8000471 387.438400
   2414   2417   2419     1   109.8000471 387.438400
   2415   2414   2417     1   109.5600471 388.275200
   2415   2414   2416     1   108.4600466 328.025600
   2416   2414   2417     1   109.5600471 388.275200
   2417   2426   2427     1   109.5600471 388.275200
   2417   2426   2428     1   109.5600471 388.275200
   2418   2417   2426     1   109.8000471 387.438400
   2418   2417   2419     1   107.5800459 329.699200
   2419   2417   2426     1   109.8000471 387.438400
   2420   2432   2433     1   109.5600471 388.275200
   2420   2432   2434     1   109.5600471 388.275200
   2421   2420   2432     1   109.8000471 387.438400
   2421   2420   2422     1   107.5800459 329.699200
   2422   2420   2432     1   109.8000471 387.438400
   2423   2429   2430     1   109.5600471 388.275200
   2423   2429   2431     1   109.5600471 388.275200
   2424   2423   2429     1   109.8000471 387.438400
   2424   2423   2425     1   107.5800459 329.699200
   2425   2423   2429     1   109.8000471 387.438400
   2427   2426   2435     1   109.7800468 425.094400
   2427   2426   2428     1   108.4600466 328.025600
   2428   2426   2435     1   109.7800468 425.094400
   2430   2429   4900     1   109.7800468 425.094400
   2430   2429   2431     1   108.4600466 328.025600
   2431   2429   4900     1   109.7800468 425.094400
   2433   2432   4929     1   109.7800468 425.094400
   2433   2432   2434     1   108.4600466 328.025600
   2434   2432   4929     1   109.7800468 425.094400
   2436   2437   2438     1   109.8800469 414.216000
   2436   2437   2439     1   109.8800469 414.216000
   2436   2440   2441     1   109.8800469 414.216000
   2436   2440   2442     1   109.8800469 414.216000
   2436   2443   2444     1   109.8800469 414.216000
   2436   2443   2445     1   109.8800469 414.216000
   2437   2449   2450     1   109.8000471 387.438400
   2437   2449   2451     1   109.8000471 387.438400
   2438   2437   2449     1   109.5600471 388.275200
   2438   2437   2439     1   108.4600466 328.025600
   2439   2437   2449     1   109.5600471 388.275200
   2440   2452   2453     1   109.8000471 387.438400
   2440   2452   2454     1   109.8000471 387.438400
   2441   2440   2452     1   109.5600471 388.275200
   2441   2440   2442     1   108.4600466 328.025600
   2442   2440   2452     1   109.5600471 388.275200
   2443   2446   2447     1   109.8000471 387.438400
   2443   2446   2448     1   109.8000471 387.438400
   2444   2443   2446     1   109.5600471 388.275200
   2444   2443   2445     1   108.4600466 328.025600
   2445   2443   2446     1   109.5600471 388.275200
   2446   2455   2456     1   109.5600471 388.275200
   2446   2455   2457     1   109.5600471 388.275200
   2447   2446   2455     1   109.8000471 387.438400
   2447   2446   2448     1   107.5800459 329.699200
   2448   2446   2455     1   109.8000471 387.438400
   2449   2461   2462     1   109.5600471 388.275200
   2449   2461   2463     1   109.5600471 388.275200
   2450   2449   2461     1   109.8000471 387.438400
   2450   2449   2451     1   107.5800459 329.699200
   2451   2449   2461     1   109.8000471 387.438400
   2452   2458   2459     1   109.5600471 388.275200
   2452   2458   2460     1   109.5600471 388.275200
   2453   2452   2458     1   109.8000471 387.438400
   2453   2452   2454     1   107.5800459 329.699200
   2454   2452   2458     1   109.8000471 387.438400
   2456   2455   2464     1   109.7800468 425.094400
   2456   2455   2457     1   108.4600466 328.025600
   2457   2455   2464     1   109.7800468 425.094400
   2459   2458   4958     1   109.7800468 425.094400
   2459   2458   2460     1   108.4600466 328.025600
   2460   2458   4958     1   109.7800468 425.094400
   2462   2461   4987     1   109.7800468 425.094400
   2462   2461   2463     1   108.4600466 328.025600
   2463   2461   4987     1   109.7800468 425.094400
   2465   2466   2467     1   109.8800469 414.216000
   2465   2466   2468     1   109.8800469 414.216000
   2465   2469   2470     1   109.8800469 414.216000
   2465   2469   2471     1   109.8800469 414.216000
   2465   2472   2473     1   109.8800469 414.216000
   2465   2472   2474     1   109.8800469 414.216000
   2466   2478   2479     1   109.8000471 387.438400
   2466   2478   2480     1   109.8000471 387.438400
   2467   2466   2478     1   109.5600471 388.275200
   2467   2466   2468     1   108.4600466 328.025600
   2468   2466   2478     1   109.5600471 388.275200
   2469   2481   2482     1   109.8000471 387.438400
   2469   2481   2483     1   109.8000471 387.438400
   2470   2469   2481     1   109.5600471 388.275200
   2470   2469   2471     1   108.4600466 328.025600
   2471   2469   2481     1   109.5600471 388.275200
   2472   2475   2476     1   109.8000471 387.438400
   2472   2475   2477     1   109.8000471 387.438400
   2473   2472   2475     1   109.5600471 388.275200
   2473   2472   2474     1   108.4600466 328.025600
   2474   2472   2475     1   109.5600471 388.275200
   2475   2484   2485     1   109.5600471 388.275200
   2475   2484   2486     1   109.5600471 388.275200
   2476   2475   2484     1   109.8000471 387.438400
   2476   2475   2477     1   107.5800459 329.699200
   2477   2475   2484     1   109.8000471 387.438400
   2478   2490   2491     1   109.5600471 388.275200
   2478   2490   2492     1   109.5600471 388.275200
   2479   2478   2490     1   109.8000471 387.438400
   2479   2478   2480     1   107.5800459 329.699200
   2480   2478   2490     1   109.8000471 387.438400
   2481   2487   2488     1   109.5600471 388.275200
   2481   2487   2489     1   109.5600471 388.275200
   2482   2481   2487     1   109.8000471 387.438400
   2482   2481   2483     1   107.5800459 329.699200
   2483   2481   2487     1   109.8000471 387.438400
   2485   2484   2493     1   109.7800468 425.094400
   2485   2484   2486     1   108.4600466 328.025600
   2486   2484   2493     1   109.7800468 425.094400
   2488   2487   5016     1   109.7800468 425.094400
   2488   2487   2489     1   108.4600466 328.025600
   2489   2487   5016     1   109.7800468 425.094400
   2491   2490   5045     1   109.7800468 425.094400
   2491   2490   2492     1   108.4600466 328.025600
   2492   2490   5045     1   109.7800468 425.094400
   2494   2495   2496     1   109.8800469 414.216000
   2494   2495   2497     1   109.8800469 414.216000
   2494   2498   2499     1   109.8800469 414.216000
   2494   2498   2500     1   109.8800469 414.216000
   2494   2501   2502     1   109.8800469 414.216000
   2494   2501   2503     1   109.8800469 414.216000
   2495   2507   2508     1   109.8000471 387.438400
   2495   2507   2509     1   109.8000471 387.438400
   2496   2495   2507     1   109.5600471 388.275200
   2496   2495   2497     1   108.4600466 328.025600
   2497   2495   2507     1   109.5600471 388.275200
   2498   2510   2511     1   109.8000471 387.438400
   2498   2510   2512     1   109.8000471 387.438400
   2499   2498   2510     1   109.5600471 388.275200
   2499   2498   2500     1   108.4600466 328.025600
   2500   2498   2510     1   109.5600471 388.275200
   2501   2504   2505     1   109.8000471 387.438400
   2501   2504   2506     1   109.8000471 387.438400
   2502   2501   2504     1   109.5600471 388.275200
   2502   2501   2503     1   108.4600466 328.025600
   2503   2501   2504     1   109.5600471 388.275200
   2504   2513   2514     1   109.5600471 388.275200
   2504   2513   2515     1   109.5600471 388.275200
   2505   2504   2513     1   109.8000471 387.438400
   2505   2504   2506     1   107.5800459 329.699200
   2506   2504   2513     1   109.8000471 387.438400
   2507   2519   2520     1   109.5600471 388.275200
   2507   2519   2521     1   109.5600471 388.275200
   2508   2507   2519     1   109.8000471 387.438400
   2508   2507   2509     1   107.5800459 329.699200
   2509   2507   2519     1   109.8000471 387.438400
   2510   2516   2517     1   109.5600471 388.275200
   2510   2516   2518     1   109.5600471 388.275200
   2511   2510   2516     1   109.8000471 387.438400
   2511   2510   2512     1   107.5800459 329.699200
   2512   2510   2516     1   109.8000471 387.438400
   2514   2513   2522     1   109.7800468 425.094400
   2514   2513   2515     1   108.4600466 328.025600
   2515   2513   2522     1   109.7800468 425.094400
   2517   2516   5074     1   109.7800468 425.094400
   2517   2516   2518     1   108.4600466 328.025600
   2518   2516   5074     1   109.7800468 425.094400
   2520   2519   5103     1   109.7800468 425.094400
   2520   2519   2521     1   108.4600466 328.025600
   2521   2519   5103     1   109.7800468 425.094400
   2523   2524   2525     1   109.8800469 414.216000
   2523   2524   2526     1   109.8800469 414.216000
   2523   2527   2528     1   109.8800469 414.216000
   2523   2527   2529     1   109.8800469 414.216000
   2523   2530   2531     1   109.8800469 414.216000
   2523   2530   2532     1   109.8800469 414.216000
   2524   2536   2537     1   109.8000471 387.438400
   2524   2536   2538     1   109.8000471 387.438400
   2525   2524   2536     1   109.5600471 388.275200
   2525   2524   2526     1   108.4600466 328.025600
   2526   2524   2536     1   109.5600471 388.275200
   2527   2539   2540     1   109.8000471 387.438400
   2527   2539   2541     1   109.8000471 387.438400
   2528   2527   2539     1   109.5600471 388.275200
   2528   2527   2529     1   108.4600466 328.025600
   2529   2527   2539     1   109.5600471 388.275200
   2530   2533   2534     1   109.8000471 387.438400
   2530   2533   2535     1   109.8000471 387.438400
   2531   2530   2533     1   109.5600471 388.275200
   2531   2530   2532     1   108.4600466 328.025600
   2532   2530   2533     1   109.5600471 388.275200
   2533   2542   2543     1   109.5600471 388.275200
   2533   2542   2544     1   109.5600471 388.275200
   2534   2533   2542     1   109.8000471 387.438400
   2534   2533   2535     1   107.5800459 329.699200
   2535   2533   2542     1   109.8000471 387.438400
   2536   2548   2549     1   109.5600471 388.275200
   2536   2548   2550     1   109.5600471 388.275200
   2537   2536   2548     1   109.8000471 387.438400
   2537   2536   2538     1   107.5800459 329.699200
   2538   2536   2548     1   109.8000471 387.438400
   2539   2545   2546     1   109.5600471 388.275200
   2539   2545   2547     1   109.5600471 388.275200
   2540   2539   2545     1   109.8000471 387.438400
   2540   2539   2541     1   107.5800459 329.699200
   2541   2539   2545     1   109.8000471 387.438400
   2543   2542   2551     1   109.7800468 425.094400
   2543   2542   2544     1   108.4600466 328.025600
   2544   2542   2551     1   109.7800468 425.094400
   2546   2545   5132     1   109.7800468 425.094400
   2546   2545   2547     1   108.4600466 328.025600
   2547   2545   5132     1   109.7800468 425.094400
   2549   2548   5161     1   109.7800468 425.094400
   2549   2548   2550     1   108.4600466 328.025600
   2550   2548   5161     1   109.7800468 425.094400
   2552   2553   2554     1   109.8800469 414.216000
   2552   2553   2555     1   109.8800469 414.216000
   2552   2556   2557     1   109.8800469 414.216000
   2552   2556   2558     1   109.8800469 414.216000
   2552   2559   2560     1   109.8800469 414.216000
   2552   2559   2561     1   109.8800469 414.216000
   2553   2565   2566     1   109.8000471 387.438400
   2553   2565   2567     1   109.8000471 387.438400
   2554   2553   2565     1   109.5600471 388.275200
   2554   2553   2555     1   108.4600466 328.025600
   2555   2553   2565     1   109.5600471 388.275200
   2556   2568   2569     1   109.8000471 387.438400
   2556   2568   2570     1   109.8000471 387.438400
   2557   2556   2568     1   109.5600471 388.275200
   2557   2556   2558     1   108.4600466 328.025600
   2558   2556   2568     1   109.5600471 388.275200
   2559   2562   2563     1   109.8000471 387.438400
   2559   2562   2564     1   109.8000471 387.438400
   2560   2559   2562     1   109.5600471 388.275200
   2560   2559   2561     1   108.4600466 328.025600
   2561   2559   2562     1   109.5600471 388.275200
   2562   2571   2572     1   109.5600471 388.275200
   2562   2571   2573     1   109.5600471 388.275200
   2563   2562   2571     1   109.8000471 387.438400
   2563   2562   2564     1   107.5800459 329.699200
   2564   2562   2571     1   109.8000471 387.438400
   2565   2577   2578     1   109.5600471 388.275200
   2565   2577   2579     1   109.5600471 388.275200
   2566   2565   2577     1   109.8000471 387.438400
   2566   2565   2567     1   107.5800459 329.699200
   2567   2565   2577     1   109.8000471 387.438400
   2568   2574   2575     1   109.5600471 388.275200
   2568   2574   2576     1   109.5600471 388.275200
   2569   2568   2574     1   109.8000471 387.438400
   2569   2568   2570     1   107.5800459 329.699200
   2570   2568   2574     1   109.8000471 387.438400
   2572   2571   2580     1   109.7800468 425.094400
   2572   2571   2573     1   108.4600466 328.025600
   2573   2571   2580     1   109.7800468 425.094400
   2575   2574   5190     1   109.7800468 425.094400
   2575   2574   2576     1   108.4600466 328.025600
   2576   2574   5190     1   109.7800468 425.094400
   2578   2577   5219     1   109.7800468 425.094400
   2578   2577   2579     1   108.4600466 328.025600
   2579   2577   5219     1   109.7800468 425.094400
   2581   2582   2583     1   109.8800469 414.216000
   2581   2582   2584     1   109.8800469 414.216000
   2581   2585   2586     1   109.8800469 414.216000
   2581   2585   2587     1   109.8800469 414.216000
   2581   2588   2589     1   109.8800469 414.216000
   2581   2588   2590     1   109.8800469 414.216000
   2582   2594   2595     1   109.8000471 387.438400
   2582   2594   2596     1   109.8000471 387.438400
   2583   2582   2594     1   109.5600471 388.275200
   2583   2582   2584     1   108.4600466 328.025600
   2584   2582   2594     1   109.5600471 388.275200
   2585   2597   2598     1   109.8000471 387.438400
   2585   2597   2599     1   109.8000471 387.438400
   2586   2585   2597     1   109.5600471 388.275200
   2586   2585   2587     1   108.4600466 328.025600
   2587   2585   2597     1   109.5600471 388.275200
   2588   2591   2592     1   109.8000471 387.438400
   2588   2591   2593     1   109.8000471 387.438400
   2589   2588   2591     1   109.5600471 388.275200
   2589   2588   2590     1   108.4600466 328.025600
   2590   2588   2591     1   109.5600471 388.275200
   2591   2600   2601     1   109.5600471 388.275200
   2591   2600   2602     1   109.5600471 388.275200
   2592   2591   2600     1   109.8000471 387.438400
   2592   2591   2593     1   107.5800459 329.699200
   2593   2591   2600     1   109.8000471 387.438400
   2594   2606   2607     1   109.5600471 388.275200
   2594   2606   2608     1   109.5600471 388.275200
   2595   2594   2606     1   109.8000471 387.438400
   2595   2594   2596     1   107.5800459 329.699200
   2596   2594   2606     1   109.8000471 387.438400
   2597   2603   2604     1   109.5600471 388.275200
   2597   2603   2605     1   109.5600471 388.275200
   2598   2597   2603     1   109.8000471 387.438400
   2598   2597   2599     1   107.5800459 329.699200
   2599   2597   2603     1   109.8000471 387.438400
   2601   2600   2609     1   109.7800468 425.094400
   2601   2600   2602     1   108.4600466 328.025600
   2602   2600   2609     1   109.7800468 425.094400
   2604   2603   5248     1   109.7800468 425.094400
   2604   2603   2605     1   108.4600466 328.025600
   2605   2603   5248     1   109.7800468 425.094400
   2607   2606   5277     1   109.7800468 425.094400
   2607   2606   2608     1   108.4600466 328.025600
   2608   2606   5277     1   109.7800468 425.094400
   2610   2611   2612     1   109.8800469 414.216000
   2610   2611   2613     1   109.8800469 414.216000
   2610   2614   2615     1   109.8800469 414.216000
   2610   2614   2616     1   109.8800469 414.216000
   2610   2617   2618     1   109.8800469 414.216000
   2610   2617   2619     1   109.8800469 414.216000
   2611   2623   2624     1   109.8000471 387.438400
   2611   2623   2625     1   109.8000471 387.438400
   2612   2611   2623     1   109.5600471 388.275200
   2612   2611   2613     1   108.4600466 328.025600
   2613   2611   2623     1   109.5600471 388.275200
   2614   2626   2627     1   109.8000471 387.438400
   2614   2626   2628     1   109.8000471 387.438400
   2615   2614   2626     1   109.5600471 388.275200
   2615   2614   2616     1   108.4600466 328.025600
   2616   2614   2626     1   109.5600471 388.275200
   2617   2620   2621     1   109.8000471 387.438400
   2617   2620   2622     1   109.8000471 387.438400
   2618   2617   2620     1   109.5600471 388.275200
   2618   2617   2619     1   108.4600466 328.025600
   2619   2617   2620     1   109.5600471 388.275200
   2620   2629   2630     1   109.5600471 388.275200
   2620   2629   2631     1   109.5600471 388.275200
   2621   2620   2629     1   109.8000471 387.438400
   2621   2620   2622     1   107.5800459 329.699200
   2622   2620   2629     1   109.8000471 387.438400
   2623   2635   2636     1   109.5600471 388.275200
   2623   2635   2637     1   109.5600471 388.275200
   2624   2623   2635     1   109.8000471 387.438400
   2624   2623   2625     1   107.5800459 329.699200
   2625   2623   2635     1   109.8000471 387.438400
   2626   2632   2633     1   109.5600471 388.275200
   2626   2632   2634     1   109.5600471 388.275200
   2627   2626   2632     1   109.8000471 387.438400
   2627   2626   2628     1   107.5800459 329.699200
   2628   2626   2632     1   109.8000471 387.438400
   2630   2629   2638     1   109.7800468 425.094400
   2630   2629   2631     1   108.4600466 328.025600
   2631   2629   2638     1   109.7800468 425.094400
   2633   2632   5306     1   109.7800468 425.094400
   2633   2632   2634     1   108.4600466 328.025600
   2634   2632   5306     1   109.7800468 425.094400
   2636   2635   5335     1   109.7800468 425.094400
   2636   2635   2637     1   108.4600466 328.025600
   2637   2635   5335     1   109.7800468 425.094400
   2639   2640   2641     1   109.8800469 414.216000
   2639   2640   2642     1   109.8800469 414.216000
   2639   2643   2644     1   109.8800469 414.216000
   2639   2643   2645     1   109.8800469 414.216000
   2639   2646   2647     1   109.8800469 414.216000
   2639   2646   2648     1   109.8800469 414.216000
   2640   2652   2653     1   109.8000471 387.438400
   2640   2652   2654     1   109.8000471 387.438400
   2641   2640   2652     1   109.5600471 388.275200
   2641   2640   2642     1   108.4600466 328.025600
   2642   2640   2652     1   109.5600471 388.275200
   2643   2655   2656     1   109.8000471 387.438400
   2643   2655   2657     1   109.8000471 387.438400
   2644   2643   2655     1   109.5600471 388.275200
   2644   2643   2645     1   108.4600466 328.025600
   2645   2643   2655     1   109.5600471 388.275200
   2646   2649   2650     1   109.8000471 387.438400
   2646   2649   2651     1   109.8000471 387.438400
   2647   2646   2649     1   109.5600471 388.275200
   2647   2646   2648     1   108.4600466 328.025600
   2648   2646   2649     1   109.5600471 388.275200
   2649   2658   2659     1   109.5600471 388.275200
   2649   2658   2660     1   109.5600471 388.275200
   2650   2649   2658     1   109.8000471 387.438400
   2650   2649   2651     1   107.5800459 329.699200
   2651   2649   2658     1   109.8000471 387.438400
   2652   2664   2665     1   109.5600471 388.275200
   2652   2664   2666     1   109.5600471 388.275200
   2653   2652   2664     1   109.8000471 387.438400
   2653   2652   2654     1   107.5800459 329.699200
   2654   2652   2664     1   109.8000471 387.438400
   2655   2661   2662     1   109.5600471 388.275200
   2655   2661   2663     1   109.5600471 388.275200
   2656   2655   2661     1   109.8000471 387.438400
   2656   2655   2657     1   107.5800459 329.699200
   2657   2655   2661     1   109.8000471 387.438400
   2659   2658   2667     1   109.7800468 425.094400
   2659   2658   2660     1   108.4600466 328.025600
   2660   2658   2667     1   109.7800468 425.094400
   2662   2661   5364     1   109.7800468 425.094400
   2662   2661   2663     1   108.4600466 328.025600
   2663   2661   5364     1   109.7800468 425.094400
   2665   2664   5393     1   109.7800468 425.094400
   2665   2664   2666     1   108.4600466 328.025600
   2666   2664   5393     1   109.7800468 425.094400
   2668   2669   2670     1   109.8800469 414.216000
   2668   2669   2671     1   109.8800469 414.216000
   2668   2672   2673     1   109.8800469 414.216000
   2668   2672   2674     1   109.8800469 414.216000
   2668   2675   2676     1   109.8800469 414.216000
   2668   2675   2677     1   109.8800469 414.216000
   2669   2681   2682     1   109.8000471 387.438400
   2669   2681   2683     1   109.8000471 387.438400
   2670   2669   2681     1   109.5600471 388.275200
   2670   2669   2671     1   108.4600466 328.025600
   2671   2669   2681     1   109.5600471 388.275200
   2672   2684   2685     1   109.8000471 387.438400
   2672   2684   2686     1   109.8000471 387.438400
   2673   2672   2684     1   109.5600471 388.275200
   2673   2672   2674     1   108.4600466 328.025600
   2674   2672   2684     1   109.5600471 388.275200
   2675   2678   2679     1   109.8000471 387.438400
   2675   2678   2680     1   109.8000471 387.438400
   2676   2675   2678     1   109.5600471 388.275200
   2676   2675   2677     1   108.4600466 328.025600
   2677   2675   2678     1   109.5600471 388.275200
   2678   2687   2688     1   109.5600471 388.275200
   2678   2687   2689     1   109.5600471 388.275200
   2679   2678   2687     1   109.8000471 387.438400
   2679   2678   2680     1   107.5800459 329.699200
   2680   2678   2687     1   109.8000471 387.438400
   2681   2693   2694     1   109.5600471 388.275200
   2681   2693   2695     1   109.5600471 388.275200
   2682   2681   2693     1   109.8000471 387.438400
   2682   2681   2683     1   107.5800459 329.699200
   2683   2681   2693     1   109.8000471 387.438400
   2684   2690   2691     1   109.5600471 388.275200
   2684   2690   2692     1   109.5600471 388.275200
   2685   2684   2690     1   109.8000471 387.438400
   2685   2684   2686     1   107.5800459 329.699200
   2686   2684   2690     1   109.8000471 387.438400
   2688   2687   2696     1   109.7800468 425.094400
   2688   2687   2689     1   108.4600466 328.025600
   2689   2687   2696     1   109.7800468 425.094400
   2691   2690   5422     1   109.7800468 425.094400
   2691   2690   2692     1   108.4600466 328.025600
   2692   2690   5422     1   109.7800468 425.094400
   2694   2693   5451     1   109.7800468 425.094400
   2694   2693   2695     1   108.4600466 328.025600
   2695   2693   5451     1   109.7800468 425.094400
   2697   2698   2699     1   109.8800469 414.216000
   2697   2698   2700     1   109.8800469 414.216000
   2697   2701   2702     1   109.8800469 414.216000
   2697   2701   2703     1   109.8800469 414.216000
   2697   2704   2705     1   109.8800469 414.216000
   2697   2704   2706     1   109.8800469 414.216000
   2698   2710   2711     1   109.8000471 387.438400
   2698   2710   2712     1   109.8000471 387.438400
   2699   2698   2710     1   109.5600471 388.275200
   2699   2698   2700     1   108.4600466 328.025600
   2700   2698   2710     1   109.5600471 388.275200
   2701   2713   2714     1   109.8000471 387.438400
   2701   2713   2715     1   109.8000471 387.438400
   2702   2701   2713     1   109.5600471 388.275200
   2702   2701   2703     1   108.4600466 328.025600
   2703   2701   2713     1   109.5600471 388.275200
   2704   2707   2708     1   109.8000471 387.438400
   2704   2707   2709     1   109.8000471 387.438400
   2705   2704   2707     1   109.5600471 388.275200
   2705   2704   2706     1   108.4600466 328.025600
   2706   2704   2707     1   109.5600471 388.275200
   2707   2716   2717     1   109.5600471 388.275200
   2707   2716   2718     1   109.5600471 388.275200
   2708   2707   2716     1   109.8000471 387.438400
   2708   2707   2709     1   107.5800459 329.699200
   2709   2707   2716     1   109.8000471 387.438400
   2710   2722   2723     1   109.5600471 388.275200
   2710   2722   2724     1   109.5600471 388.275200
   2711   2710   2722     1   109.8000471 387.438400
   2711   2710   2712     1   107.5800459 329.699200
   2712   2710   2722     1   109.8000471 387.438400
   2713   2719   2720     1   109.5600471 388.275200
   2713   2719   2721     1   109.5600471 388.275200
   2714   2713   2719     1   109.8000471 387.438400
   2714   2713   2715     1   107.5800459 329.699200
   2715   2713   2719     1   109.8000471 387.438400
   2717   2716   2725     1   109.7800468 425.094400
   2717   2716   2718     1   108.4600466 328.025600
   2718   2716   2725     1   109.7800468 425.094400
   2720   2719   5480     1   109.7800468 425.094400
   2720   2719   2721     1   108.4600466 328.025600
   2721   2719   5480     1   109.7800468 425.094400
   2723   2722   5509     1   109.7800468 425.094400
   2723   2722   2724     1   108.4600466 328.025600
   2724   2722   5509     1   109.7800468 425.094400
   2726   2727   2728     1   109.8800469 414.216000
   2726   2727   2729     1   109.8800469 414.216000
   2726   2730   2731     1   109.8800469 414.216000
   2726   2730   2732     1   109.8800469 414.216000
   2726   2733   2734     1   109.8800469 414.216000
   2726   2733   2735     1   109.8800469 414.216000
   2727   2739   2740     1   109.8000471 387.438400
   2727   2739   2741     1   109.8000471 387.438400
   2728   2727   2739     1   109.5600471 388.275200
   2728   2727   2729     1   108.4600466 328.025600
   2729   2727   2739     1   109.5600471 388.275200
   2730   2742   2743     1   109.8000471 387.438400
   2730   2742   2744     1   109.8000471 387.438400
   2731   2730   2742     1   109.5600471 388.275200
   2731   2730   2732     1   108.4600466 328.025600
   2732   2730   2742     1   109.5600471 388.275200
   2733   2736   2737     1   109.8000471 387.438400
   2733   2736   2738     1   109.8000471 387.438400
   2734   2733   2736     1   109.5600471 388.275200
   2734   2733   2735     1   108.4600466 328.025600
   2735   2733   2736     1   109.5600471 388.275200
   2736   2745   2746     1   109.5600471 388.275200
   2736   2745   2747     1   109.5600471 388.275200
   2737   2736   2745     1   109.8000471 387.438400
   2737   2736   2738     1   107.5800459 329.699200
   2738   2736   2745     1   109.8000471 387.438400
   2739   2751   2752     1   109.5600471 388.275200
   2739   2751   2753     1   109.5600471 388.275200
   2740   2739   2751     1   109.8000471 387.438400
   2740   2739   2741     1   107.5800459 329.699200
   2741   2739   2751     1   109.8000471 387.438400
   2742   2748   2749     1   109.5600471 388.275200
   2742   2748   2750     1   109.5600471 388.275200
   2743   2742   2748     1   109.8000471 387.438400
   2743   2742   2744     1   107.5800459 329.699200
   2744   2742   2748     1   109.8000471 387.438400
   2746   2745   2754     1   109.7800468 425.094400
   2746   2745   2747     1   108.4600466 328.025600
   2747   2745   2754     1   109.7800468 425.094400
   2749   2748   5538     1   109.7800468 425.094400
   2749   2748   2750     1   108.4600466 328.025600
   2750   2748   5538     1   109.7800468 425.094400
   2752   2751   5567     1   109.7800468 425.094400
   2752   2751   2753     1   108.4600466 328.025600
   2753   2751   5567     1   109.7800468 425.094400
   2755   2756   2757     1   109.8800469 414.216000
   2755   2756   2758     1   109.8800469 414.216000
   2755   2759   2760     1   109.8800469 414.216000
   2755   2759   2761     1   109.8800469 414.216000
   2755   2762   2763     1   109.8800469 414.216000
   2755   2762   2764     1   109.8800469 414.216000
   2756   2768   2769     1   109.8000471 387.438400
   2756   2768   2770     1   109.8000471 387.438400
   2757   2756   2768     1   109.5600471 388.275200
   2757   2756   2758     1   108.4600466 328.025600
   2758   2756   2768     1   109.5600471 388.275200
   2759   2771   2772     1   109.8000471 387.438400
   2759   2771   2773     1   109.8000471 387.438400
   2760   2759   2771     1   109.5600471 388.275200
   2760   2759   2761     1   108.4600466 328.025600
   2761   2759   2771     1   109.5600471 388.275200
   2762   2765   2766     1   109.8000471 387.438400
   2762   2765   2767     1   109.8000471 387.438400
   2763   2762   2765     1   109.5600471 388.275200
   2763   2762   2764     1   108.4600466 328.025600
   2764   2762   2765     1   109.5600471 388.275200
   2765   2774   2775     1   109.5600471 388.275200
   2765   2774   2776     1   109.5600471 388.275200
   2766   2765   2774     1   109.8000471 387.438400
   2766   2765   2767     1   107.5800459 329.699200
   2767   2765   2774     1   109.8000471 387.438400
   2768   2780   2781     1   109.5600471 388.275200
   2768   2780   2782     1   109.5600471 388.275200
   2769   2768   2780     1   109.8000471 387.438400
   2769   2768   2770     1   107.5800459 329.699200
   2770   2768   2780     1   109.8000471 387.438400
   2771   2777   2778     1   109.5600471 388.275200
   2771   2777   2779     1   109.5600471 388.275200
   2772   2771   2777     1   109.8000471 387.438400
   2772   2771   2773     1   107.5800459 329.699200
   2773   2771   2777     1   109.8000471 387.438400
   2775   2774   2783     1   109.7800468 425.094400
   2775   2774   2776     1   108.4600466 328.025600
   2776   2774   2783     1   109.7800468 425.094400
   2778   2777   5596     1   109.7800468 425.094400
   2778   2777   2779     1   108.4600466 328.025600
   2779   2777   5596     1   109.7800468 425.094400
   2781   2780   5625     1   109.7800468 425.094400
   2781   2780   2782     1   108.4600466 328.025600
   2782   2780   5625     1   109.7800468 425.094400
   2784   2785   2786     1   109.8800469 414.216000
   2784   2785   2787     1   109.8800469 414.216000
   2784   2788   2789     1   109.8800469 414.216000
   2784   2788   2790     1   109.8800469 414.216000
   2784   2791   2792     1   109.8800469 414.216000
   2784   2791   2793     1   109.8800469 414.216000
   2785   2797   2798     1   109.8000471 387.438400
   2785   2797   2799     1   109.8000471 387.438400
   2786   2785   2797     1   109.5600471 388.275200
   2786   2785   2787     1   108.4600466 328.025600
   2787   2785   2797     1   109.5600471 388.275200
   2788   2800   2801     1   109.8000471 387.438400
   2788   2800   2802     1   109.8000471 387.438400
   2789   2788   2800     1   109.5600471 388.275200
   2789   2788   2790     1   108.4600466 328.025600
   2790   2788   2800     1   109.5600471 388.275200
   2791   2794   2795     1   109.8000471 387.438400
   2791   2794   2796     1   109.8000471 387.438400
   2792   2791   2794     1   109.5600471 388.275200
   2792   2791   2793     1   108.4600466 328.025600
   2793   2791   2794     1   109.5600471 388.275200
   2794   2803   2804     1   109.5600471 388.275200
   2794   2803   2805     1   109.5600471 388.275200
   2795   2794   2803     1   109.8000471 387.438400
   2795   2794   2796     1   107.5800459 329.699200
   2796   2794   2803     1   109.8000471 387.438400
   2797   2809   2810     1   109.5600471 388.275200
   2797   2809   2811     1   109.5600471 388.275200
   2798   2797   2809     1   109.8000471 387.438400
   2798   2797   2799     1   107.5800459 329.699200
   2799   2797   2809     1   109.8000471 387.438400
   2800   2806   2807     1   109.5600471 388.275200
   2800   2806   2808     1   109.5600471 388.275200
   2801   2800   2806     1   109.8000471 387.438400
   2801   2800   2802     1   107.5800459 329.699200
   2802   2800   2806     1   109.8000471 387.438400
   2804   2803   2812     1   109.7800468 425.094400
   2804   2803   2805     1   108.4600466 328.025600
   2805   2803   2812     1   109.7800468 425.094400
   2807   2806   5654     1   109.7800468 425.094400
   2807   2806   2808     1   108.4600466 328.025600
   2808   2806   5654     1   109.7800468 425.094400
   2810   2809   5683     1   109.7800468 425.094400
   2810   2809   2811     1   108.4600466 328.025600
   2811   2809   5683     1   109.7800468 425.094400
   2813   2814   2815     1   109.8800469 414.216000
   2813   2814   2816     1   109.8800469 414.216000
   2813   2817   2818     1   109.8800469 414.216000
   2813   2817   2819     1   109.8800469 414.216000
   2813   2820   2821     1   109.8800469 414.216000
   2813   2820   2822     1   109.8800469 414.216000
   2814   2826   2827     1   109.8000471 387.438400
   2814   2826   2828     1   109.8000471 387.438400
   2815   2814   2826     1   109.5600471 388.275200
   2815   2814   2816     1   108.4600466 328.025600
   2816   2814   2826     1   109.5600471 388.275200
   2817   2829   2830     1   109.8000471 387.438400
   2817   2829   2831     1   109.8000471 387.438400
   2818   2817   2829     1   109.5600471 388.275200
   2818   2817   2819     1   108.4600466 328.025600
   2819   2817   2829     1   109.5600471 388.275200
   2820   2823   2824     1   109.8000471 387.438400
   2820   2823   2825     1   109.8000471 387.438400
   2821   2820   2823     1   109.5600471 388.275200
   2821   2820   2822     1   108.4600466 328.025600
   2822   2820   2823     1   109.5600471 388.275200
   2823   2832   2833     1   109.5600471 388.275200
   2823   2832   2834     1   109.5600471 388.275200
   2824   2823   2832     1   109.8000471 387.438400
   2824   2823   2825     1   107.5800459 329.699200
   2825   2823   2832     1   109.8000471 387.438400
   2826   2838   2839     1   109.5600471 388.275200
   2826   2838   2840     1   109.5600471 388.275200
   2827   2826   2838     1   109.8000471 387.438400
   2827   2826   2828     1   107.5800459 329.699200
   2828   2826   2838     1   109.8000471 387.438400
   2829   2835   2836     1   109.5600471 388.275200
   2829   2835   2837     1   109.5600471 388.275200
   2830   2829   2835     1   109.8000471 387.438400
   2830   2829   2831     1   107.5800459 329.699200
   2831   2829   2835     1   109.8000471 387.438400
   2833   2832   2841     1   109.7800468 425.094400
   2833   2832   2834     1   108.4600466 328.025600
   2834   2832   2841     1   109.7800468 425.094400
   2836   2835   5712     1   109.7800468 425.094400
   2836   2835   2837     1   108.4600466 328.025600
   2837   2835   5712     1   109.7800468 425.094400
   2839   2838   5741     1   109.7800468 425.094400
   2839   2838   2840     1   108.4600466 328.025600
   2840   2838   5741     1   109.7800468 425.094400
   2842   2843   2844     1   109.8800469 414.216000
   2842   2843   2845     1   109.8800469 414.216000
   2842   2846   2847     1   109.8800469 414.216000
   2842   2846   2848     1   109.8800469 414.216000
   2842   2849   2850     1   109.8800469 414.216000
   2842   2849   2851     1   109.8800469 414.216000
   2843   2855   2856     1   109.8000471 387.438400
   2843   2855   2857     1   109.8000471 387.438400
   2844   2843   2855     1   109.5600471 388.275200
   2844   2843   2845     1   108.4600466 328.025600
   2845   2843   2855     1   109.5600471 388.275200
   2846   2858   2859     1   109.8000471 387.438400
   2846   2858   2860     1   109.8000471 387.438400
   2847   2846   2858     1   109.5600471 388.275200
   2847   2846   2848     1   108.4600466 328.025600
   2848   2846   2858     1   109.5600471 388.275200
   2849   2852   2853     1   109.8000471 387.438400
   2849   2852   2854     1   109.8000471 387.438400
   2850   2849   2852     1   109.5600471 388.275200
   2850   2849   2851     1   108.4600466 328.025600
   2851   2849   2852     1   109.5600471 388.275200
   2852   2861   2862     1   109.5600471 388.275200
   2852   2861   2863     1   109.5600471 388.275200
   2853   2852   2861     1   109.8000471 387.438400
   2853   2852   2854     1   107.5800459 329.699200
   2854   2852   2861     1   109.8000471 387.438400
   2855   2867   2868     1   109.5600471 388.275200
   2855   2867   2869     1   109.5600471 388.275200
   2856   2855   2867     1   109.8000471 387.438400
   2856   2855   2857     1   107.5800459 329.699200
   2857   2855   2867     1   109.8000471 387.438400
   2858   2864   2865     1   109.5600471 388.275200
   2858   2864   2866     1   109.5600471 388.275200
   2859   2858   2864     1   109.8000471 387.438400
   2859   2858   2860     1   107.5800459 329.699200
   2860   2858   2864     1   109.8000471 387.438400
   2862   2861   2870     1   109.7800468 425.094400
   2862   2861   2863     1   108.4600466 328.025600
   2863   2861   2870     1   109.7800468 425.094400
   2865   2864   5770     1   109.7800468 425.094400
   2865   2864   2866     1   108.4600466 328.025600
   2866   2864   5770     1   109.7800468 425.094400
   2868   2867   5799     1   109.7800468 425.094400
   2868   2867   2869     1   108.4600466 328.025600
   2869   2867   5799     1   109.7800468 425.094400
   2871   2872   2873     1   109.8800469 414.216000
   2871   2872   2874     1   109.8800469 414.216000
   2871   2875   2876     1   109.8800469 414.216000
   2871   2875   2877     1   109.8800469 414.216000
   2871   2878   2879     1   109.8800469 414.216000
   2871   2878   2880     1   109.8800469 414.216000
   2872   2884   2885     1   109.8000471 387.438400
   2872   2884   2886     1   109.8000471 387.438400
   2873   2872   2884     1   109.5600471 388.275200
   2873   2872   2874     1   108.4600466 328.025600
   2874   2872   2884     1   109.5600471 388.275200
   2875   2887   2888     1   109.8000471 387.438400
   2875   2887   2889     1   109.8000471 387.438400
   2876   2875   2887     1   109.5600471 388.275200
   2876   2875   2877     1   108.4600466 328.025600
   2877   2875   2887     1   109.5600471 388.275200
   2878   2881   2882     1   109.8000471 387.438400
   2878   2881   2883     1   109.8000471 387.438400
   2879   2878   2881     1   109.5600471 388.275200
   2879   2878   2880     1   108.4600466 328.025600
   2880   2878   2881     1   109.5600471 388.275200
   2881   2890   2891     1   109.5600471 388.275200
   2881   2890   2892     1   109.5600471 388.275200
   2882   2881   2890     1   109.8000471 387.438400
   2882   2881   2883     1   107.5800459 329.699200
   2883   2881   2890     1   109.8000471 387.438400
   2884   2896   2897     1   109.5600471 388.275200
   2884   2896   2898     1   109.5600471 388.275200
   2885   2884   2896     1   109.8000471 387.438400
   2885   2884   2886     1   107.5800459 329.699200
   2886   2884   2896     1   109.8000471 387.438400
   2887   2893   2894     1   109.5600471 388.275200
   2887   2893   2895     1   109.5600471 388.275200
   2888   2887   2893     1   109.8000471 387.438400
   2888   2887   2889     1   107.5800459 329.699200
   2889   2887   2893     1   109.8000471 387.438400
   2891   2890   2899     1   109.7800468 425.094400
   2891   2890   2892     1   108.4600466 328.025600
   2892   2890   2899     1   109.7800468 425.094400
   2894   2893   5828     1   109.7800468 425.094400
   2894   2893   2895     1   108.4600466 328.025600
   2895   2893   5828     1   109.7800468 425.094400
   2897   2896   5857     1   109.7800468 425.094400
   2897   2896   2898     1   108.4600466 328.025600
   2898   2896   5857     1   109.7800468 425.094400
   2900   2901   2902     1   109.8800469 414.216000
   2900   2901   2903     1   109.8800469 414.216000
   2900   2904   2905     1   109.8800469 414.216000
   2900   2904   2906     1   109.8800469 414.216000
   2900   2907   2908     1   109.8800469 414.216000
   2900   2907   2909     1   109.8800469 414.216000
   2901   2913   2914     1   109.8000471 387.438400
   2901   2913   2915     1   109.8000471 387.438400
   2902   2901   2913     1   109.5600471 388.275200
   2902   2901   2903     1   108.4600466 328.025600
   2903   2901   2913     1   109.5600471 388.275200
   2904   2916   2917     1   109.8000471 387.438400
   2904   2916   2918     1   109.8000471 387.438400
   2905   2904   2916     1   109.5600471 388.275200
   2905   2904   2906     1   108.4600466 328.025600
   2906   2904   2916     1   109.5600471 388.275200
   2907   2910   2911     1   109.8000471 387.438400
   2907   2910   2912     1   109.8000471 387.438400
   2908   2907   2910     1   109.5600471 388.275200
   2908   2907   2909     1   108.4600466 328.025600
   2909   2907   2910     1   109.5600471 388.275200
   2910   2919   2920     1   109.5600471 388.275200
   2910   2919   2921     1   109.5600471 388.275200
   2911   2910   2919     1   109.8000471 387.438400
   2911   2910   2912     1   107.5800459 329.699200
   2912   2910   2919     1   109.8000471 387.438400
   2913   2925   2926     1   109.5600471 388.275200
   2913   2925   2927     1   109.5600471 388.275200
   2914   2913   2925     1   109.8000471 387.438400
   2914   2913   2915     1   107.5800459 329.699200
   2915   2913   2925     1   109.8000471 387.438400
   2916   2922   2923     1   109.5600471 388.275200
   2916   2922   2924     1   109.5600471 388.275200
   2917   2916   2922     1   109.8000471 387.438400
   2917   2916   2918     1   107.5800459 329.699200
   2918   2916   2922     1   109.8000471 387.438400
   2920   2919   2928     1   109.7800468 425.094400
   2920   2919   2921     1   108.4600466 328.025600
   2921   2919   2928     1   109.7800468 425.094400
   2923   2922   5886     1   109.7800468 425.094400
   2923   2922   2924     1   108.4600466 328.025600
   2924   2922   5886     1   109.7800468 425.094400
   2926   2925   5915     1   109.7800468 425.094400
   2926   2925   2927     1   108.4600466 328.025600
   2927   2925   5915     1   109.7800468 425.094400
   2929   2930   2931     1   109.8800469 414.216000
   2929   2930   2932     1   109.8800469 414.216000
   2929   2933   2934     1   109.8800469 414.216000
   2929   2933   2935     1   109.8800469 414.216000
   2929   2936   2937     1   109.8800469 414.216000
   2929   2936   2938     1   109.8800469 414.216000
   2930   2942   2943     1   109.8000471 387.438400
   2930   2942   2944     1   109.8000471 387.438400
   2931   2930   2942     1   109.5600471 388.275200
   2931   2930   2932     1   108.4600466 328.025600
   2932   2930   2942     1   109.5600471 388.275200
   2933   2945   2946     1   109.8000471 387.438400
   2933   2945   2947     1   109.8000471 387.438400
   2934   2933   2945     1   109.5600471 388.275200
   2934   2933   2935     1   108.4600466 328.025600
   2935   2933   2945     1   109.5600471 388.275200
   2936   2939   2940     1   109.8000471 387.438400
   2936   2939   2941     1   109.8000471 387.438400
   2937   2936   2939     1   109.5600471 388.275200
   2937   2936   2938     1   108.4600466 328.025600
   2938   2936   2939     1   109.5600471 388.275200
   2939   2948   2949     1   109.5600471 388.275200
   2939   2948   2950     1   109.5600471 388.275200
   2940   2939   2948     1   109.8000471 387.438400
   2940   2939   2941     1   107.5800459 329.699200
   2941   2939   2948     1   109.8000471 387.438400
   2942   2954   2955     1   109.5600471 388.275200
   2942   2954   2956     1   109.5600471 388.275200
   2943   2942   2954     1   109.8000471 387.438400
   2943   2942   2944     1   107.5800459 329.699200
   2944   2942   2954     1   109.8000471 387.438400
   2945   2951   2952     1   109.5600471 388.275200
   2945   2951   2953     1   109.5600471 388.275200
   2946   2945   2951     1   109.8000471 387.438400
   2946   2945   2947     1   107.5800459 329.699200
   2947   2945   2951     1   109.8000471 387.438400
   2949   2948   2957     1   109.7800468 425.094400
   2949   2948   2950     1   108.4600466 328.025600
   2950   2948   2957     1   109.7800468 425.094400
   2952   2951   5944     1   109.7800468 425.094400
   2952   2951   2953     1   108.4600466 328.025600
   2953   2951   5944     1   109.7800468 425.094400
   2955   2954   5973     1   109.7800468 425.094400
   2955   2954   2956     1   108.4600466 328.025600
   2956   2954   5973     1   109.7800468 425.094400
   2958   2959   2960     1   109.8800469 414.216000
   2958   2959   2961     1   109.8800469 414.216000
   2958   2962   2963     1   109.8800469 414.216000
   2958   2962   2964     1   109.8800469 414.216000
   2958   2965   2966     1   109.8800469 414.216000
   2958   2965   2967     1   109.8800469 414.216000
   2959   2971   2972     1   109.8000471 387.438400
   2959   2971   2973     1   109.8000471 387.438400
   2960   2959   2971     1   109.5600471 388.275200
   2960   2959   2961     1   108.4600466 328.025600
   2961   2959   2971     1   109.5600471 388.275200
   2962   2974   2975     1   109.8000471 387.438400
   2962   2974   2976     1   109.8000471 387.438400
   2963   2962   2974     1   109.5600471 388.275200
   2963   2962   2964     1   108.4600466 328.025600
   2964   2962   2974     1   109.5600471 388.275200
   2965   2968   2969     1   109.8000471 387.438400
   2965   2968   2970     1   109.8000471 387.438400
   2966   2965   2968     1   109.5600471 388.275200
   2966   2965   2967     1   108.4600466 328.025600
   2967   2965   2968     1   109.5600471 388.275200
   2968   2977   2978     1   109.5600471 388.275200
   2968   2977   2979     1   109.5600471 388.275200
   2969   2968   2977     1   109.8000471 387.438400
   2969   2968   2970     1   107.5800459 329.699200
   2970   2968   2977     1   109.8000471 387.438400
   2971   2983   2984     1   109.5600471 388.275200
   2971   2983   2985     1   109.5600471 388.275200
   2972   2971   2983     1   109.8000471 387.438400
   2972   2971   2973     1   107.5800459 329.699200
   2973   2971   2983     1   109.8000471 387.438400
   2974   2980   2981     1   109.5600471 388.275200
   2974   2980   2982     1   109.5600471 388.275200
   2975   2974   2980     1   109.8000471 387.438400
   2975   2974   2976     1   107.5800459 329.699200
   2976   2974   2980     1   109.8000471 387.438400
   2978   2977   2986     1   109.7800468 425.094400
   2978   2977   2979     1   108.4600466 328.025600
   2979   2977   2986     1   109.7800468 425.094400
   2981   2980   6002     1   109.7800468 425.094400
   2981   2980   2982     1   108.4600466 328.025600
   2982   2980   6002     1   109.7800468 425.094400
   2984   2983   6031     1   109.7800468 425.094400
   2984   2983   2985     1   108.4600466 328.025600
   2985   2983   6031     1   109.7800468 425.094400
   2987   2988   2989     1   109.8800469 414.216000
   2987   2988   2990     1   109.8800469 414.216000
   2987   2991   2992     1   109.8800469 414.216000
   2987   2991   2993     1   109.8800469 414.216000
   2987   2994   2995     1   109.8800469 414.216000
   2987   2994   2996     1   109.8800469 414.216000
   2988   3000   3001     1   109.8000471 387.438400
   2988   3000   3002     1   109.8000471 387.438400
   2989   2988   3000     1   109.5600471 388.275200
   2989   2988   2990     1   108.4600466 328.025600
   2990   2988   3000     1   109.5600471 388.275200
   2991   3003   3004     1   109.8000471 387.438400
   2991   3003   3005     1   109.8000471 387.438400
   2992   2991   3003     1   109.5600471 388.275200
   2992   2991   2993     1   108.4600466 328.025600
   2993   2991   3003     1   109.5600471 388.275200
   2994   2997   2998     1   109.8000471 387.438400
   2994   2997   2999     1   109.8000471 387.438400
   2995   2994   2997     1   109.5600471 388.275200
   2995   2994   2996     1   108.4600466 328.025600
   2996   2994   2997     1   109.5600471 388.275200
   2997   3006   3007     1   109.5600471 388.275200
   2997   3006   3008     1   109.5600471 388.275200
   2998   2997   3006     1   109.8000471 387.438400
   2998   2997   2999     1   107.5800459 329.699200
   2999   2997   3006     1   109.8000471 387.438400
   3000   3012   3013     1   109.5600471 388.275200
   3000   3012   3014     1   109.5600471 388.275200
   3001   3000   3012     1   109.8000471 387.438400
   3001   3000   3002     1   107.5800459 329.699200
   3002   3000   3012     1   109.8000471 387.438400
   3003   3009   3010     1   109.5600471 388.275200
   3003   3009   3011     1   109.5600471 388.275200
   3004   3003   3009     1   109.8000471 387.438400
   3004   3003   3005     1   107.5800459 329.699200
   3005   3003   3009     1   109.8000471 387.438400
   3007   3006   3015     1   109.7800468 425.094400
   3007   3006   3008     1   108.4600466 328.025600
   3008   3006   3015     1   109.7800468 425.094400
   3010   3009   6060     1   109.7800468 425.094400
   3010   3009   3011     1   108.4600466 328.025600
   3011   3009   6060     1   109.7800468 425.094400
   3013   3012   6089     1   109.7800468 425.094400
   3013   3012   3014     1   108.4600466 328.025600
   3014   3012   6089     1   109.7800468 425.094400
   3016   3017   3018     1   109.8800469 414.216000
   3016   3017   3019     1   109.8800469 414.216000
   3016   3020   3021     1   109.8800469 414.216000
   3016   3020   3022     1   109.8800469 414.216000
   3016   3023   3024     1   109.8800469 414.216000
   3016   3023   3025     1   109.8800469 414.216000
   3017   3029   3030     1   109.8000471 387.438400
   3017   3029   3031     1   109.8000471 387.438400
   3018   3017   3029     1   109.5600471 388.275200
   3018   3017   3019     1   108.4600466 328.025600
   3019   3017   3029     1   109.5600471 388.275200
   3020   3032   3033     1   109.8000471 387.438400
   3020   3032   3034     1   109.8000471 387.438400
   3021   3020   3032     1   109.5600471 388.275200
   3021   3020   3022     1   108.4600466 328.025600
   3022   3020   3032     1   109.5600471 388.275200
   3023   3026   3027     1   109.8000471 387.438400
   3023   3026   3028     1   109.8000471 387.438400
   3024   3023   3026     1   109.5600471 388.275200
   3024   3023   3025     1   108.4600466 328.025600
   3025   3023   3026     1   109.5600471 388.275200
   3026   3035   3036     1   109.5600471 388.275200
   3026   3035   3037     1   109.5600471 388.275200
   3027   3026   3035     1   109.8000471 387.438400
   3027   3026   3028     1   107.5800459 329.699200
   3028   3026   3035     1   109.8000471 387.438400
   3029   3041   3042     1   109.5600471 388.275200
   3029   3041   3043     1   109.5600471 388.275200
   3030   3029   3041     1   109.8000471 387.438400
   3030   3029   3031     1   107.5800459 329.699200
   3031   3029   3041     1   109.8000471 387.438400
   3032   3038   3039     1   109.5600471 388.275200
   3032   3038   3040     1   109.5600471 388.275200
   3033   3032   3038     1   109.8000471 387.438400
   3033   3032   3034     1   107.5800459 329.699200
   3034   3032   3038     1   109.8000471 387.438400
   3036   3035   3044     1   109.7800468 425.094400
   3036   3035   3037     1   108.4600466 328.025600
   3037   3035   3044     1   109.7800468 425.094400
   3039   3038   6118     1   109.7800468 425.094400
   3039   3038   3040     1   108.4600466 328.025600
   3040   3038   6118     1   109.7800468 425.094400
   3042   3041   6147     1   109.7800468 425.094400
   3042   3041   3043     1   108.4600466 328.025600
   3043   3041   6147     1   109.7800468 425.094400
   3045   3046   3047     1   109.8800469 414.216000
   3045   3046   3048     1   109.8800469 414.216000
   3045   3049   3050     1   109.8800469 414.216000
   3045   3049   3051     1   109.8800469 414.216000
   3045   3052   3053     1   109.8800469 414.216000
   3045   3052   3054     1   109.8800469 414.216000
   3046   3058   3059     1   109.8000471 387.438400
   3046   3058   3060     1   109.8000471 387.438400
   3047   3046   3058     1   109.5600471 388.275200
   3047   3046   3048     1   108.4600466 328.025600
   3048   3046   3058     1   109.5600471 388.275200
   3049   3061   3062     1   109.8000471 387.438400
   3049   3061   3063     1   109.8000471 387.438400
   3050   3049   3061     1   109.5600471 388.275200
   3050   3049   3051     1   108.4600466 328.025600
   3051   3049   3061     1   109.5600471 388.275200
   3052   3055   3056     1   109.8000471 387.438400
   3052   3055   3057     1   109.8000471 387.438400
   3053   3052   3055     1   109.5600471 388.275200
   3053   3052   3054     1   108.4600466 328.025600
   3054   3052   3055     1   109.5600471 388.275200
   3055   3064   3065     1   109.5600471 388.275200
   3055   3064   3066     1   109.5600471 388.275200
   3056   3055   3064     1   109.8000471 387.438400
   3056   3055   3057     1   107.5800459 329.699200
   3057   3055   3064     1   109.8000471 387.438400
   3058   3070   3071     1   109.5600471 388.275200
   3058   3070   3072     1   109.5600471 388.275200
   3059   3058   3070     1   109.8000471 387.438400
   3059   3058   3060     1   107.5800459 329.699200
   3060   3058   3070     1   109.8000471 387.438400
   3061   3067   3068     1   109.5600471 388.275200
   3061   3067   3069     1   109.5600471 388.275200
   3062   3061   3067     1   109.8000471 387.438400
   3062   3061   3063     1   107.5800459 329.699200
   3063   3061   3067     1   109.8000471 387.438400
   3065   3064   3073     1   109.7800468 425.094400
   3065   3064   3066     1   108.4600466 328.025600
   3066   3064   3073     1   109.7800468 425.094400
   3068   3067   6176     1   109.7800468 425.094400
   3068   3067   3069     1   108.4600466 328.025600
   3069   3067   6176     1   109.7800468 425.094400
   3071   3070   6205     1   109.7800468 425.094400
   3071   3070   3072     1   108.4600466 328.025600
   3072   3070   6205     1   109.7800468 425.094400
   3074   3075   3076     1   109.8800469 414.216000
   3074   3075   3077     1   109.8800469 414.216000
   3074   3078   3079     1   109.8800469 414.216000
   3074   3078   3080     1   109.8800469 414.216000
   3074   3081   3082     1   109.8800469 414.216000
   3074   3081   3083     1   109.8800469 414.216000
   3075   3087   3088     1   109.8000471 387.438400
   3075   3087   3089     1   109.8000471 387.438400
   3076   3075   3087     1   109.5600471 388.275200
   3076   3075   3077     1   108.4600466 328.025600
   3077   3075   3087     1   109.5600471 388.275200
   3078   3090   3091     1   109.8000471 387.438400
   3078   3090   3092     1   109.8000471 387.438400
   3079   3078   3090     1   109.5600471 388.275200
   3079   3078   3080     1   108.4600466 328.025600
   3080   3078   3090     1   109.5600471 388.275200
   3081   3084   3085     1   109.8000471 387.438400
   3081   3084   3086     1   109.8000471 387.438400
   3082   3081   3084     1   109.5600471 388.275200
   3082   3081   3083     1   108.4600466 328.025600
   3083   3081   3084     1   109.5600471 388.275200
   3084   3093   3094     1   109.5600471 388.275200
   3084   3093   3095     1   109.5600471 388.275200
   3085   3084   3093     1   109.8000471 387.438400
   3085   3084   3086     1   107.5800459 329.699200
   3086   3084   3093     1   109.8000471 387.438400
   3087   3099   3100     1   109.5600471 388.275200
   3087   3099   3101     1   109.5600471 388.275200
   3088   3087   3099     1   109.8000471 387.438400
   3088   3087   3089     1   107.5800459 329.699200
   3089   3087   3099     1   109.8000471 387.438400
   3090   3096   3097     1   109.5600471 388.275200
   3090   3096   3098     1   109.5600471 388.275200
   3091   3090   3096     1   109.8000471 387.438400
   3091   3090   3092     1   107.5800459 329.699200
   3092   3090   3096     1   109.8000471 387.438400
   3094   3093   3102     1   109.7800468 425.094400
   3094   3093   3095     1   108.4600466 328.025600
   3095   3093   3102     1   109.7800468 425.094400
   3097   3096   6234     1   109.7800468 425.094400
   3097   3096   3098     1   108.4600466 328.025600
   3098   3096   6234     1   109.7800468 425.094400
   3100   3099   6263     1   109.7800468 425.094400
   3100   3099   3101     1   108.4600466 328.025600
   3101   3099   6263     1   109.7800468 425.094400
   3103   3104   3105     1   109.8800469 414.216000
   3103   3104   3106     1   109.8800469 414.216000
   3103   3107   3108     1   109.8800469 414.216000
   3103   3107   3109     1   109.8800469 414.216000
   3103   3110   3111     1   109.8800469 414.216000
   3103   3110   3112     1   109.8800469 414.216000
   3104   3116   3117     1   109.8000471 387.438400
   3104   3116   3118     1   109.8000471 387.438400
   3105   3104   3116     1   109.5600471 388.275200
   3105   3104   3106     1   108.4600466 328.025600
   3106   3104   3116     1   109.5600471 388.275200
   3107   3119   3120     1   109.8000471 387.438400
   3107   3119   3121     1   109.8000471 387.438400
   3108   3107   3119     1   109.5600471 388.275200
   3108   3107   3109     1   108.4600466 328.025600
   3109   3107   3119     1   109.5600471 388.275200
   3110   3113   3114     1   109.8000471 387.438400
   3110   3113   3115     1   109.8000471 387.438400
   3111   3110   3113     1   109.5600471 388.275200
   3111   3110   3112     1   108.4600466 328.025600
   3112   3110   3113     1   109.5600471 388.275200
   3113   3122   3123     1   109.5600471 388.275200
   3113   3122   3124     1   109.5600471 388.275200
   3114   3113   3122     1   109.8000471 387.438400
   3114   3113   3115     1   107.5800459 329.699200
   3115   3113   3122     1   109.8000471 387.438400
   3116   3128   3129     1   109.5600471 388.275200
   3116   3128   3130     1   109.5600471 388.275200
   3117   3116   3128     1   109.8000471 387.438400
   3117   3116   3118     1   107.5800459 329.699200
   3118   3116   3128     1   109.8000471 387.438400
   3119   3125   3126     1   109.5600471 388.275200
   3119   3125   3127     1   109.5600471 388.275200
   3120   3119   3125     1   109.8000471 387.438400
   3120   3119   3121     1   107.5800459 329.699200
   3121   3119   3125     1   109.8000471 387.438400
   3123   3122   3131     1   109.7800468 425.094400
   3123   3122   3124     1   108.4600466 328.025600
   3124   3122   3131     1   109.7800468 425.094400
   3126   3125   6292     1   109.7800468 425.094400
   3126   3125   3127     1   108.4600466 328.025600
   3127   3125   6292     1   109.7800468 425.094400
   3129   3128   6321     1   109.7800468 425.094400
   3129   3128   3130     1   108.4600466 328.025600
   3130   3128   6321     1   109.7800468 425.094400
   3132   3133   3134     1   109.8800469 414.216000
   3132   3133   3135     1   109.8800469 414.216000
   3132   3136   3137     1   109.8800469 414.216000
   3132   3136   3138     1   109.8800469 414.216000
   3132   3139   3140     1   109.8800469 414.216000
   3132   3139   3141     1   109.8800469 414.216000
   3133   3145   3146     1   109.8000471 387.438400
   3133   3145   3147     1   109.8000471 387.438400
   3134   3133   3145     1   109.5600471 388.275200
   3134   3133   3135     1   108.4600466 328.025600
   3135   3133   3145     1   109.5600471 388.275200
   3136   3148   3149     1   109.8000471 387.438400
   3136   3148   3150     1   109.8000471 387.438400
   3137   3136   3148     1   109.5600471 388.275200
   3137   3136   3138     1   108.4600466 328.025600
   3138   3136   3148     1   109.5600471 388.275200
   3139   3142   3143     1   109.8000471 387.438400
   3139   3142   3144     1   109.8000471 387.438400
   3140   3139   3142     1   109.5600471 388.275200
   3140   3139   3141     1   108.4600466 328.025600
   3141   3139   3142     1   109.5600471 388.275200
   3142   3151   3152     1   109.5600471 388.275200
   3142   3151   3153     1   109.5600471 388.275200
   3143   3142   3151     1   109.8000471 387.438400
   3143   3142   3144     1   107.5800459 329.699200
   3144   3142   3151     1   109.8000471 387.438400
   3145   3157   3158     1   109.5600471 388.275200
   3145   3157   3159     1   109.5600471 388.275200
   3146   3145   3157     1   109.8000471 387.438400
   3146   3145   3147     1   107.5800459 329.699200
   3147   3145   3157     1   109.8000471 387.438400
   3148   3154   3155     1   109.5600471 388.275200
   3148   3154   3156     1   109.5600471 388.275200
   3149   3148   3154     1   109.8000471 387.438400
   3149   3148   3150     1   107.5800459 329.699200
   3150   3148   3154     1   109.8000471 387.438400
   3152   3151   3160     1   109.7800468 425.094400
   3152   3151   3153     1   108.4600466 328.025600
   3153   3151   3160     1   109.7800468 425.094400
   3155   3154   6350     1   109.7800468 425.094400
   3155   3154   3156     1   108.4600466 328.025600
   3156   3154   6350     1   109.7800468 425.094400
   3158   3157   6379     1   109.7800468 425.094400
   3158   3157   3159     1   108.4600466 328.025600
   3159   3157   6379     1   109.7800468 425.094400
   3161   3162   3163     1   109.8800469 414.216000
   3161   3162   3164     1   109.8800469 414.216000
   3161   3165   3166     1   109.8800469 414.216000
   3161   3165   3167     1   109.8800469 414.216000
   3161   3168   3169     1   109.8800469 414.216000
   3161   3168   3170     1   109.8800469 414.216000
   3162   3174   3175     1   109.8000471 387.438400
   3162   3174   3176     1   109.8000471 387.438400
   3163   3162   3174     1   109.5600471 388.275200
   3163   3162   3164     1   108.4600466 328.025600
   3164   3162   3174     1   109.5600471 388.275200
   3165   3177   3178     1   109.8000471 387.438400
   3165   3177   3179     1   109.8000471 387.438400
   3166   3165   3177     1   109.5600471 388.275200
   3166   3165   3167     1   108.4600466 328.025600
   3167   3165   3177     1   109.5600471 388.275200
   3168   3171   3172     1   109.8000471 387.438400
   3168   3171   3173     1   109.8000471 387.438400
   3169   3168   3171     1   109.5600471 388.275200
   3169   3168   3170     1   108.4600466 328.025600
   3170   3168   3171     1   109.5600471 388.275200
   3171   3180   3181     1   109.5600471 388.275200
   3171   3180   3182     1   109.5600471 388.275200
   3172   3171   3180     1   109.8000471 387.438400
   3172   3171   3173     1   107.5800459 329.699200
   3173   3171   3180     1   109.8000471 387.438400
   3174   3186   3187     1   109.5600471 388.275200
   3174   3186   3188     1   109.5600471 388.275200
   3175   3174   3186     1   109.8000471 387.438400
   3175   3174   3176     1   107.5800459 329.699200
   3176   3174   3186     1   109.8000471 387.438400
   3177   3183   3184     1   109.5600471 388.275200
   3177   3183   3185     1   109.5600471 388.275200
   3178   3177   3183     1   109.8000471 387.438400
   3178   3177   3179     1   107.5800459 329.699200
   3179   3177   3183     1   109.8000471 387.438400
   3181   3180   3189     1   109.7800468 425.094400
   3181   3180   3182     1   108.4600466 328.025600
   3182   3180   3189     1   109.7800468 425.094400
   3184   3183   6408     1   109.7800468 425.094400
   3184   3183   3185     1   108.4600466 328.025600
   3185   3183   6408     1   109.7800468 425.094400
   3187   3186   6437     1   109.7800468 425.094400
   3187   3186   3188     1   108.4600466 328.025600
   3188   3186   6437     1   109.7800468 425.094400
   3190   3191   3192     1   109.8800469 414.216000
   3190   3191   3193     1   109.8800469 414.216000
   3190   3194   3195     1   109.8800469 414.216000
   3190   3194   3196     1   109.8800469 414.216000
   3190   3197   3198     1   109.8800469 414.216000
   3190   3197   3199     1   109.8800469 414.216000
   3191   3203   3204     1   109.8000471 387.438400
   3191   3203   3205     1   109.8000471 387.438400
   3192   3191   3203     1   109.5600471 388.275200
   3192   3191   3193     1   108.4600466 328.025600
   3193   3191   3203     1   109.5600471 388.275200
   3194   3206   3207     1   109.8000471 387.438400
   3194   3206   3208     1   109.8000471 387.438400
   3195   3194   3206     1   109.5600471 388.275200
   3195   3194   3196     1   108.4600466 328.025600
   3196   3194   3206     1   109.5600471 388.275200
   3197   3200   3201     1   109.8000471 387.438400
   3197   3200   3202     1   109.8000471 387.438400
   3198   3197   3200     1   109.5600471 388.275200
   3198   3197   3199     1   108.4600466 328.025600
   3199   3197   3200     1   109.5600471 388.275200
   3200   3209   3210     1   109.5600471 388.275200
   3200   3209   3211     1   109.5600471 388.275200
   3201   3200   3209     1   109.8000471 387.438400
   3201   3200   3202     1   107.5800459 329.699200
   3202   3200   3209     1   109.8000471 387.438400
   3203   3215   3216     1   109.5600471 388.275200
   3203   3215   3217     1   109.5600471 388.275200
   3204   3203   3215     1   109.8000471 387.438400
   3204   3203   3205     1   107.5800459 329.699200
   3205   3203   3215     1   109.8000471 387.438400
   3206   3212   3213     1   109.5600471 388.275200
   3206   3212   3214     1   109.5600471 388.275200
   3207   3206   3212     1   109.8000471 387.438400
   3207   3206   3208     1   107.5800459 329.699200
   3208   3206   3212     1   109.8000471 387.438400
   3210   3209   3218     1   109.7800468 425.094400
   3210   3209   3211     1   108.4600466 328.025600
   3211   3209   3218     1   109.7800468 425.094400
   3213   3212   6466     1   109.7800468 425.094400
   3213   3212   3214     1   108.4600466 328.025600
   3214   3212   6466     1   109.7800468 425.094400
   3216   3215   6495     1   109.7800468 425.094400
   3216   3215   3217     1   108.4600466 328.025600
   3217   3215   6495     1   109.7800468 425.094400
   3219   3220   3221     1   109.8800469 414.216000
   3219   3220   3222     1   109.8800469 414.216000
   3219   3223   3224     1   109.8800469 414.216000
   3219   3223   3225     1   109.8800469 414.216000
   3219   3226   3227     1   109.8800469 414.216000
   3219   3226   3228     1   109.8800469 414.216000
   3220   3232   3233     1   109.8000471 387.438400
   3220   3232   3234     1   109.8000471 387.438400
   3221   3220   3232     1   109.5600471 388.275200
   3221   3220   3222     1   108.4600466 328.025600
   3222   3220   3232     1   109.5600471 388.275200
   3223   3235   3236     1   109.8000471 387.438400
   3223   3235   3237     1   109.8000471 387.438400
   3224   3223   3235     1   109.5600471 388.275200
   3224   3223   3225     1   108.4600466 328.025600
   3225   3223   3235     1   109.5600471 388.275200
   3226   3229   3230     1   109.8000471 387.438400
   3226   3229   3231     1   109.8000471 387.438400
   3227   3226   3229     1   109.5600471 388.275200
   3227   3226   3228     1   108.4600466 328.025600
   3228   3226   3229     1   109.5600471 388.275200
   3229   3238   3239     1   109.5600471 388.275200
   3229   3238   3240     1   109.5600471 388.275200
   3230   3229   3238     1   109.8000471 387.438400
   3230   3229   3231     1   107.5800459 329.699200
   3231   3229   3238     1   109.8000471 387.438400
   3232   3244   3245     1   109.5600471 388.275200
   3232   3244   3246     1   109.5600471 388.275200
   3233   3232   3244     1   109.8000471 387.438400
   3233   3232   3234     1   107.5800459 329.699200
   3234   3232   3244     1   109.8000471 387.438400
   3235   3241   3242     1   109.5600471 388.275200
   3235   3241   3243     1   109.5600471 388.275200
   3236   3235   3241     1   109.8000471 387.438400
   3236   3235   3237     1   107.5800459 329.699200
   3237   3235   3241     1   109.8000471 387.438400
   3239   3238   3247     1   109.7800468 425.094400
   3239   3238   3240     1   108.4600466 328.025600
   3240   3238   3247     1   109.7800468 425.094400
   3242   3241   6524     1   109.7800468 425.094400
   3242   3241   3243     1   108.4600466 328.025600
   3243   3241   6524     1   109.7800468 425.094400
   3245   3244   6553     1   109.7800468 425.094400
   3245   3244   3246     1   108.4600466 328.025600
   3246   3244   6553     1   109.7800468 425.094400
   3248   3249   3250     1   109.8800469 414.216000
   3248   3249   3251     1   109.8800469 414.216000
   3248   3252   3253     1   109.8800469 414.216000
   3248   3252   3254     1   109.8800469 414.216000
   3248   3255   3256     1   109.8800469 414.216000
   3248   3255   3257     1   109.8800469 414.216000
   3249   3261   3262     1   109.8000471 387.438400
   3249   3261   3263     1   109.8000471 387.438400
   3250   3249   3261     1   109.5600471 388.275200
   3250   3249   3251     1   108.4600466 328.025600
   3251   3249   3261     1   109.5600471 388.275200
   3252   3264   3265     1   109.8000471 387.438400
   3252   3264   3266     1   109.8000471 387.438400
   3253   3252   3264     1   109.5600471 388.275200
   3253   3252   3254     1   108.4600466 328.025600
   3254   3252   3264     1   109.5600471 388.275200
   3255   3258   3259     1   109.8000471 387.438400
   3255   3258   3260     1   109.8000471 387.438400
   3256   3255   3258     1   109.5600471 388.275200
   3256   3255   3257     1   108.4600466 328.025600
   3257   3255   3258     1   109.5600471 388.275200
   3258   3267   3268     1   109.5600471 388.275200
   3258   3267   3269     1   109.5600471 388.275200
   3259   3258   3267     1   109.8000471 387.438400
   3259   3258   3260     1   107.5800459 329.699200
   3260   3258   3267     1   109.8000471 387.438400
   3261   3273   3274     1   109.5600471 388.275200
   3261   3273   3275     1   109.5600471 388.275200
   3262   3261   3273     1   109.8000471 387.438400
   3262   3261   3263     1   107.5800459 329.699200
   3263   3261   3273     1   109.8000471 387.438400
   3264   3270   3271     1   109.5600471 388.275200
   3264   3270   3272     1   109.5600471 388.275200
   3265   3264   3270     1   109.8000471 387.438400
   3265   3264   3266     1   107.5800459 329.699200
   3266   3264   3270     1   109.8000471 387.438400
   3268   3267   3276     1   109.7800468 425.094400
   3268   3267   3269     1   108.4600466 328.025600
   3269   3267   3276     1   109.7800468 425.094400
   3271   3270   6582     1   109.7800468 425.094400
   3271   3270   3272     1   108.4600466 328.025600
   3272   3270   6582     1   109.7800468 425.094400
   3274   3273   6611     1   109.7800468 425.094400
   3274   3273   3275     1   108.4600466 328.025600
   3275   3273   6611     1   109.7800468 425.094400
   3277   3278   3279     1   109.8800469 414.216000
   3277   3278   3280     1   109.8800469 414.216000
   3277   3281   3282     1   109.8800469 414.216000
   3277   3281   3283     1   109.8800469 414.216000
   3277   3284   3285     1   109.8800469 414.216000
   3277   3284   3286     1   109.8800469 414.216000
   3278   3290   3291     1   109.8000471 387.438400
   3278   3290   3292     1   109.8000471 387.438400
   3279   3278   3290     1   109.5600471 388.275200
   3279   3278   3280     1   108.4600466 328.025600
   3280   3278   3290     1   109.5600471 388.275200
   3281   3293   3294     1   109.8000471 387.438400
   3281   3293   3295     1   109.8000471 387.438400
   3282   3281   3293     1   109.5600471 388.275200
   3282   3281   3283     1   108.4600466 328.025600
   3283   3281   3293     1   109.5600471 388.275200
   3284   3287   3288     1   109.8000471 387.438400
   3284   3287   3289     1   109.8000471 387.438400
   3285   3284   3287     1   109.5600471 388.275200
   3285   3284   3286     1   108.4600466 328.025600
   3286   3284   3287     1   109.5600471 388.275200
   3287   3296   3297     1   109.5600471 388.275200
   3287   3296   3298     1   109.5600471 388.275200
   3288   3287   3296     1   109.8000471 387.438400
   3288   3287   3289     1   107.5800459 329.699200
   3289   3287   3296     1   109.8000471 387.438400
   3290   3302   3303     1   109.5600471 388.275200
   3290   3302   3304     1   109.5600471 388.275200
   3291   3290   3302     1   109.8000471 387.438400
   3291   3290   3292     1   107.5800459 329.699200
   3292   3290   3302     1   109.8000471 387.438400
   3293   3299   3300     1   109.5600471 388.275200
   3293   3299   3301     1   109.5600471 388.275200
   3294   3293   3299     1   109.8000471 387.438400
   3294   3293   3295     1   107.5800459 329.699200
   3295   3293   3299     1   109.8000471 387.438400
   3297   3296   3305     1   109.7800468 425.094400
   3297   3296   3298     1   108.4600466 328.025600
   3298   3296   3305     1   109.7800468 425.094400
   3300   3299   6640     1   109.7800468 425.094400
   3300   3299   3301     1   108.4600466 328.025600
   3301   3299   6640     1   109.7800468 425.094400
   3303   3302   6669     1   109.7800468 425.094400
   3303   3302   3304     1   108.4600466 328.025600
   3304   3302   6669     1   109.7800468 425.094400
   3306   3307   3308     1   109.8800469 414.216000
   3306   3307   3309     1   109.8800469 414.216000
   3306   3310   3311     1   109.8800469 414.216000
   3306   3310   3312     1   109.8800469 414.216000
   3306   3313   3314     1   109.8800469 414.216000
   3306   3313   3315     1   109.8800469 414.216000
   3307   3319   3320     1   109.8000471 387.438400
   3307   3319   3321     1   109.8000471 387.438400
   3308   3307   3319     1   109.5600471 388.275200
   3308   3307   3309     1   108.4600466 328.025600
   3309   3307   3319     1   109.5600471 388.275200
   3310   3322   3323     1   109.8000471 387.438400
   3310   3322   3324     1   109.8000471 387.438400
   3311   3310   3322     1   109.5600471 388.275200
   3311   3310   3312     1   108.4600466 328.025600
   3312   3310   3322     1   109.5600471 388.275200
   3313   3316   3317     1   109.8000471 387.438400
   3313   3316   3318     1   109.8000471 387.438400
   3314   3313   3316     1   109.5600471 388.275200
   3314   3313   3315     1   108.4600466 328.025600
   3315   3313   3316     1   109.5600471 388.275200
   3316   3325   3326     1   109.5600471 388.275200
   3316   3325   3327     1   109.5600471 388.275200
   3317   3316   3325     1   109.8000471 387.438400
   3317   3316   3318     1   107.5800459 329.699200
   3318   3316   3325     1   109.8000471 387.438400
   3319   3331   3332     1   109.5600471 388.275200
   3319   3331   3333     1   109.5600471 388.275200
   3320   3319   3331     1   109.8000471 387.438400
   3320   3319   3321     1   107.5800459 329.699200
   3321   3319   3331     1   109.8000471 387.438400
   3322   3328   3329     1   109.5600471 388.275200
   3322   3328   3330     1   109.5600471 388.275200
   3323   3322   3328     1   109.8000471 387.438400
   3323   3322   3324     1   107.5800459 329.699200
   3324   3322   3328     1   109.8000471 387.438400
   3326   3325   3334     1   109.7800468 425.094400
   3326   3325   3327     1   108.4600466 328.025600
   3327   3325   3334     1   109.7800468 425.094400
   3329   3328   6698     1   109.7800468 425.094400
   3329   3328   3330     1   108.4600466 328.025600
   3330   3328   6698     1   109.7800468 425.094400
   3332   3331   6727     1   109.7800468 425.094400
   3332   3331   3333     1   108.4600466 328.025600
   3333   3331   6727     1   109.7800468 425.094400
   3335   3336   3337     1   109.8800469 414.216000
   3335   3336   3338     1   109.8800469 414.216000
   3335   3339   3340     1   109.8800469 414.216000
   3335   3339   3341     1   109.8800469 414.216000
   3335   3342   3343     1   109.8800469 414.216000
   3335   3342   3344     1   109.8800469 414.216000
   3336   3348   3349     1   109.8000471 387.438400
   3336   3348   3350     1   109.8000471 387.438400
   3337   3336   3348     1   109.5600471 388.275200
   3337   3336   3338     1   108.4600466 328.025600
   3338   3336   3348     1   109.5600471 388.275200
   3339   3351   3352     1   109.8000471 387.438400
   3339   3351   3353     1   109.8000471 387.438400
   3340   3339   3351     1   109.5600471 388.275200
   3340   3339   3341     1   108.4600466 328.025600
   3341   3339   3351     1   109.5600471 388.275200
   3342   3345   3346     1   109.8000471 387.438400
   3342   3345   3347     1   109.8000471 387.438400
   3343   3342   3345     1   109.5600471 388.275200
   3343   3342   3344     1   108.4600466 328.025600
   3344   3342   3345     1   109.5600471 388.275200
   3345   3354   3355     1   109.5600471 388.275200
   3345   3354   3356     1   109.5600471 388.275200
   3346   3345   3354     1   109.8000471 387.438400
   3346   3345   3347     1   107.5800459 329.699200
   3347   3345   3354     1   109.8000471 387.438400
   3348   3360   3361     1   109.5600471 388.275200
   3348   3360   3362     1   109.5600471 388.275200
   3349   3348   3360     1   109.8000471 387.438400
   3349   3348   3350     1   107.5800459 329.699200
   3350   3348   3360     1   109.8000471 387.438400
   3351   3357   3358     1   109.5600471 388.275200
   3351   3357   3359     1   109.5600471 388.275200
   3352   3351   3357     1   109.8000471 387.438400
   3352   3351   3353     1   107.5800459 329.699200
   3353   3351   3357     1   109.8000471 387.438400
   3355   3354   3363     1   109.7800468 425.094400
   3355   3354   3356     1   108.4600466 328.025600
   3356   3354   3363     1   109.7800468 425.094400
   3358   3357   6756     1   109.7800468 425.094400
   3358   3357   3359     1   108.4600466 328.025600
   3359   3357   6756     1   109.7800468 425.094400
   3361   3360   6785     1   109.7800468 425.094400
   3361   3360   3362     1   108.4600466 328.025600
   3362   3360   6785     1   109.7800468 425.094400
   3364   3365   3366     1   109.8800469 414.216000
   3364   3365   3367     1   109.8800469 414.216000
   3364   3368   3369     1   109.8800469 414.216000
   3364   3368   3370     1   109.8800469 414.216000
   3364   3371   3372     1   109.8800469 414.216000
   3364   3371   3373     1   109.8800469 414.216000
   3365   3377   3378     1   109.8000471 387.438400
   3365   3377   3379     1   109.8000471 387.438400
   3366   3365   3377     1   109.5600471 388.275200
   3366   3365   3367     1   108.4600466 328.025600
   3367   3365   3377     1   109.5600471 388.275200
   3368   3380   3381     1   109.8000471 387.438400
   3368   3380   3382     1   109.8000471 387.438400
   3369   3368   3380     1   109.5600471 388.275200
   3369   3368   3370     1   108.4600466 328.025600
   3370   3368   3380     1   109.5600471 388.275200
   3371   3374   3375     1   109.8000471 387.438400
   3371   3374   3376     1   109.8000471 387.438400
   3372   3371   3374     1   109.5600471 388.275200
   3372   3371   3373     1   108.4600466 328.025600
   3373   3371   3374     1   109.5600471 388.275200
   3374   3383   3384     1   109.5600471 388.275200
   3374   3383   3385     1   109.5600471 388.275200
   3375   3374   3383     1   109.8000471 387.438400
   3375   3374   3376     1   107.5800459 329.699200
   3376   3374   3383     1   109.8000471 387.438400
   3377   3389   3390     1   109.5600471 388.275200
   3377   3389   3391     1   109.5600471 388.275200
   3378   3377   3389     1   109.8000471 387.438400
   3378   3377   3379     1   107.5800459 329.699200
   3379   3377   3389     1   109.8000471 387.438400
   3380   3386   3387     1   109.5600471 388.275200
   3380   3386   3388     1   109.5600471 388.275200
   3381   3380   3386     1   109.8000471 387.438400
   3381   3380   3382     1   107.5800459 329.699200
   3382   3380   3386     1   109.8000471 387.438400
   3384   3383   3392     1   109.7800468 425.094400
   3384   3383   3385     1   108.4600466 328.025600
   3385   3383   3392     1   109.7800468 425.094400
   3387   3386   6814     1   109.7800468 425.094400
   3387   3386   3388     1   108.4600466 328.025600
   3388   3386   6814     1   109.7800468 425.094400
   3390   3389   6843     1   109.7800468 425.094400
   3390   3389   3391     1   108.4600466 328.025600
   3391   3389   6843     1   109.7800468 425.094400
   3393   3394   3395     1   109.8800469 414.216000
   3393   3394   3396     1   109.8800469 414.216000
   3393   3397   3398     1   109.8800469 414.216000
   3393   3397   3399     1   109.8800469 414.216000
   3393   3400   3401     1   109.8800469 414.216000
   3393   3400   3402     1   109.8800469 414.216000
   3394   3406   3407     1   109.8000471 387.438400
   3394   3406   3408     1   109.8000471 387.438400
   3395   3394   3406     1   109.5600471 388.275200
   3395   3394   3396     1   108.4600466 328.025600
   3396   3394   3406     1   109.5600471 388.275200
   3397   3409   3410     1   109.8000471 387.438400
   3397   3409   3411     1   109.8000471 387.438400
   3398   3397   3409     1   109.5600471 388.275200
   3398   3397   3399     1   108.4600466 328.025600
   3399   3397   3409     1   109.5600471 388.275200
   3400   3403   3404     1   109.8000471 387.438400
   3400   3403   3405     1   109.8000471 387.438400
   3401   3400   3403     1   109.5600471 388.275200
   3401   3400   3402     1   108.4600466 328.025600
   3402   3400   3403     1   109.5600471 388.275200
   3403   3412   3413     1   109.5600471 388.275200
   3403   3412   3414     1   109.5600471 388.275200
   3404   3403   3412     1   109.8000471 387.438400
   3404   3403   3405     1   107.5800459 329.699200
   3405   3403   3412     1   109.8000471 387.438400
   3406   3418   3419     1   109.5600471 388.275200
   3406   3418   3420     1   109.5600471 388.275200
   3407   3406   3418     1   109.8000471 387.438400
   3407   3406   3408     1   107.5800459 329.699200
   3408   3406   3418     1   109.8000471 387.438400
   3409   3415   3416     1   109.5600471 388.275200
   3409   3415   3417     1   109.5600471 388.275200
   3410   3409   3415     1   109.8000471 387.438400
   3410   3409   3411     1   107.5800459 329.699200
   3411   3409   3415     1   109.8000471 387.438400
   3413   3412   3421     1   109.7800468 425.094400
   3413   3412   3414     1   108.4600466 328.025600
   3414   3412   3421     1   109.7800468 425.094400
   3416   3415   6872     1   109.7800468 425.094400
   3416   3415   3417     1   108.4600466 328.025600
   3417   3415   6872     1   109.7800468 425.094400
   3419   3418   6901     1   109.7800468 425.094400
   3419   3418   3420     1   108.4600466 328.025600
   3420   3418   6901     1   109.7800468 425.094400
   3422   3423   3424     1   109.8800469 414.216000
   3422   3423   3425     1   109.8800469 414.216000
   3422   3426   3427     1   109.8800469 414.216000
   3422   3426   3428     1   109.8800469 414.216000
   3422   3429   3430     1   109.8800469 414.216000
   3422   3429   3431     1   109.8800469 414.216000
   3423   3435   3436     1   109.8000471 387.438400
   3423   3435   3437     1   109.8000471 387.438400
   3424   3423   3435     1   109.5600471 388.275200
   3424   3423   3425     1   108.4600466 328.025600
   3425   3423   3435     1   109.5600471 388.275200
   3426   3438   3439     1   109.8000471 387.438400
   3426   3438   3440     1   109.8000471 387.438400
   3427   3426   3438     1   109.5600471 388.275200
   3427   3426   3428     1   108.4600466 328.025600
   3428   3426   3438     1   109.5600471 388.275200
   3429   3432   3433     1   109.8000471 387.438400
   3429   3432   3434     1   109.8000471 387.438400
   3430   3429   3432     1   109.5600471 388.275200
   3430   3429   3431     1   108.4600466 328.025600
   3431   3429   3432     1   109.5600471 388.275200
   3432   3441   3442     1   109.5600471 388.275200
   3432   3441   3443     1   109.5600471 388.275200
   3433   3432   3441     1   109.8000471 387.438400
   3433   3432   3434     1   107.5800459 329.699200
   3434   3432   3441     1   109.8000471 387.438400
   3435   3447   3448     1   109.5600471 388.275200
   3435   3447   3449     1   109.5600471 388.275200
   3436   3435   3447     1   109.8000471 387.438400
   3436   3435   3437     1   107.5800459 329.699200
   3437   3435   3447     1   109.8000471 387.438400
   3438   3444   3445     1   109.5600471 388.275200
   3438   3444   3446     1   109.5600471 388.275200
   3439   3438   3444     1   109.8000471 387.438400
   3439   3438   3440     1   107.5800459 329.699200
   3440   3438   3444     1   109.8000471 387.438400
   3442   3441   3450     1   109.7800468 425.094400
   3442   3441   3443     1   108.4600466 328.025600
   3443   3441   3450     1   109.7800468 425.094400
   3445   3444   6930     1   109.7800468 425.094400
   3445   3444   3446     1   108.4600466 328.025600
   3446   3444   6930     1   109.7800468 425.094400
   3448   3447   6959     1   109.7800468 425.094400
   3448   3447   3449     1   108.4600466 328.025600
   3449   3447   6959     1   109.7800468 425.094400
   3451   3452   3453     1   109.8800469 414.216000
   3451   3452   3454     1   109.8800469 414.216000
   3451   3455   3456     1   109.8800469 414.216000
   3451   3455   3457     1   109.8800469 414.216000
   3451   3458   3459     1   109.8800469 414.216000
   3451   3458   3460     1   109.8800469 414.216000
   3452   3464   3465     1   109.8000471 387.438400
   3452   3464   3466     1   109.8000471 387.438400
   3453   3452   3464     1   109.5600471 388.275200
   3453   3452   3454     1   108.4600466 328.025600
   3454   3452   3464     1   109.5600471 388.275200
   3455   3467   3468     1   109.8000471 387.438400
   3455   3467   3469     1   109.8000471 387.438400
   3456   3455   3467     1   109.5600471 388.275200
   3456   3455   3457     1   108.4600466 328.025600
   3457   3455   3467     1   109.5600471 388.275200
   3458   3461   3462     1   109.8000471 387.438400
   3458   3461   3463     1   109.8000471 387.438400
   3459   3458   3461     1   109.5600471 388.275200
   3459   3458   3460     1   108.4600466 328.025600
   3460   3458   3461     1   109.5600471 388.275200
   3461   3470   3471     1   109.5600471 388.275200
   3461   3470   3472     1   109.5600471 388.275200
   3462   3461   3470     1   109.8000471 387.438400
   3462   3461   3463     1   107.5800459 329.699200
   3463   3461   3470     1   109.8000471 387.438400
   3464   3476   3477     1   109.5600471 388.275200
   3464   3476   3478     1   109.5600471 388.275200
   3465   3464   3476     1   109.8000471 387.438400
   3465   3464   3466     1   107.5800459 329.699200
   3466   3464   3476     1   109.8000471 387.438400
   3467   3473   3474     1   109.5600471 388.275200
   3467   3473   3475     1   109.5600471 388.275200
   3468   3467   3473     1   109.8000471 387.438400
   3468   3467   3469     1   107.5800459 329.699200
   3469   3467   3473     1   109.8000471 387.438400
   3471   3470   3479     1   109.7800468 425.094400
   3471   3470   3472     1   108.4600466 328.025600
   3472   3470   3479     1   109.7800468 425.094400
   3474   3473   6988     1   109.7800468 425.094400
   3474   3473   3475     1   108.4600466 328.025600
   3475   3473   6988     1   109.7800468 425.094400
   3477   3476   7017     1   109.7800468 425.094400
   3477   3476   3478     1   108.4600466 328.025600
   3478   3476   7017     1   109.7800468 425.094400
   3480   3481   3482     1   109.8800469 414.216000
   3480   3481   3483     1   109.8800469 414.216000
   3480   3484   3485     1   109.8800469 414.216000
   3480   3484   3486     1   109.8800469 414.216000
   3480   3487   3488     1   109.8800469 414.216000
   3480   3487   3489     1   109.8800469 414.216000
   3481   3493   3494     1   109.8000471 387.438400
   3481   3493   3495     1   109.8000471 387.438400
   3482   3481   3493     1   109.5600471 388.275200
   3482   3481   3483     1   108.4600466 328.025600
   3483   3481   3493     1   109.5600471 388.275200
   3484   3496   3497     1   109.8000471 387.438400
   3484   3496   3498     1   109.8000471 387.438400
   3485   3484   3496     1   109.5600471 388.275200
   3485   3484   3486     1   108.4600466 328.025600
   3486   3484   3496     1   109.5600471 388.275200
   3487   3490   3491     1   109.8000471 387.438400
   3487   3490   3492     1   109.8000471 387.438400
   3488   3487   3490     1   109.5600471 388.275200
   3488   3487   3489     1   108.4600466 328.025600
   3489   3487   3490     1   109.5600471 388.275200
   3490   3499   3500     1   109.5600471 388.275200
   3490   3499   3501     1   109.5600471 388.275200
   3491   3490   3499     1   109.8000471 387.438400
   3491   3490   3492     1   107.5800459 329.699200
   3492   3490   3499     1   109.8000471 387.438400
   3493   3505   3506     1   109.5600471 388.275200
   3493   3505   3507     1   109.5600471 388.275200
   3494   3493   3505     1   109.8000471 387.438400
   3494   3493   3495     1   107.5800459 329.699200
   3495   3493   3505     1   109.8000471 387.438400
   3496   3502   3503     1   109.5600471 388.275200
   3496   3502   3504     1   109.5600471 388.275200
   3497   3496   3502     1   109.8000471 387.438400
   3497   3496   3498     1   107.5800459 329.699200
   3498   3496   3502     1   109.8000471 387.438400
   3500   3499   3508     1   109.7800468 425.094400
   3500   3499   3501     1   108.4600466 328.025600
   3501   3499   3508     1   109.7800468 425.094400
   3503   3502   7046     1   109.7800468 425.094400
   3503   3502   3504     1   108.4600466 328.025600
   3504   3502   7046     1   109.7800468 425.094400
   3506   3505   7075     1   109.7800468 425.094400
   3506   3505   3507     1   108.4600466 328.025600
   3507   3505   7075     1   109.7800468 425.094400
   3509   3510   3511     1   109.8800469 414.216000
   3509   3510   3512     1   109.8800469 414.216000
   3509   3513   3514     1   109.8800469 414.216000
   3509   3513   3515     1   109.8800469 414.216000
   3509   3516   3517     1   109.8800469 414.216000
   3509   3516   3518     1   109.8800469 414.216000
   3510   3522   3523     1   109.8000471 387.438400
   3510   3522   3524     1   109.8000471 387.438400
   3511   3510   3522     1   109.5600471 388.275200
   3511   3510   3512     1   108.4600466 328.025600
   3512   3510   3522     1   109.5600471 388.275200
   3513   3525   3526     1   109.8000471 387.438400
   3513   3525   3527     1   109.8000471 387.438400
   3514   3513   3525     1   109.5600471 388.275200
   3514   3513   3515     1   108.4600466 328.025600
   3515   3513   3525     1   109.5600471 388.275200
   3516   3519   3520     1   109.8000471 387.438400
   3516   3519   3521     1   109.8000471 387.438400
   3517   3516   3519     1   109.5600471 388.275200
   3517   3516   3518     1   108.4600466 328.025600
   3518   3516   3519     1   109.5600471 388.275200
   3519   3528   3529     1   109.5600471 388.275200
   3519   3528   3530     1   109.5600471 388.275200
   3520   3519   3528     1   109.8000471 387.438400
   3520   3519   3521     1   107.5800459 329.699200
   3521   3519   3528     1   109.8000471 387.438400
   3522   3534   3535     1   109.5600471 388.275200
   3522   3534   3536     1   109.5600471 388.275200
   3523   3522   3534     1   109.8000471 387.438400
   3523   3522   3524     1   107.5800459 329.699200
   3524   3522   3534     1   109.8000471 387.438400
   3525   3531   3532     1   109.5600471 388.275200
   3525   3531   3533     1   109.5600471 388.275200
   3526   3525   3531     1   109.8000471 387.438400
   3526   3525   3527     1   107.5800459 329.699200
   3527   3525   3531     1   109.8000471 387.438400
   3529   3528   3537     1   109.7800468 425.094400
   3529   3528   3530     1   108.4600466 328.025600
   3530   3528   3537     1   109.7800468 425.094400
   3532   3531   7104     1   109.7800468 425.094400
   3532   3531   3533     1   108.4600466 328.025600
   3533   3531   7104     1   109.7800468 425.094400
   3535   3534   7133     1   109.7800468 425.094400
   3535   3534   3536     1   108.4600466 328.025600
   3536   3534   7133     1   109.7800468 425.094400
   3538   3539   3540     1   109.8800469 414.216000
   3538   3539   3541     1   109.8800469 414.216000
   3538   3542   3543     1   109.8800469 414.216000
   3538   3542   3544     1   109.8800469 414.216000
   3538   3545   3546     1   109.8800469 414.216000
   3538   3545   3547     1   109.8800469 414.216000
   3539   3551   3552     1   109.8000471 387.438400
   3539   3551   3553     1   109.8000471 387.438400
   3540   3539   3551     1   109.5600471 388.275200
   3540   3539   3541     1   108.4600466 328.025600
   3541   3539   3551     1   109.5600471 388.275200
   3542   3554   3555     1   109.8000471 387.438400
   3542   3554   3556     1   109.8000471 387.438400
   3543   3542   3554     1   109.5600471 388.275200
   3543   3542   3544     1   108.4600466 328.025600
   3544   3542   3554     1   109.5600471 388.275200
   3545   3548   3549     1   109.8000471 387.438400
   3545   3548   3550     1   109.8000471 387.438400
   3546   3545   3548     1   109.5600471 388.275200
   3546   3545   3547     1   108.4600466 328.025600
   3547   3545   3548     1   109.5600471 388.275200
   3548   3557   3558     1   109.5600471 388.275200
   3548   3557   3559     1   109.5600471 388.275200
   3549   3548   3557     1   109.8000471 387.438400
   3549   3548   3550     1   107.5800459 329.699200
   3550   3548   3557     1   109.8000471 387.438400
   3551   3563   3564     1   109.5600471 388.275200
   3551   3563   3565     1   109.5600471 388.275200
   3552   3551   3563     1   109.8000471 387.438400
   3552   3551   3553     1   107.5800459 329.699200
   3553   3551   3563     1   109.8000471 387.438400
   3554   3560   3561     1   109.5600471 388.275200
   3554   3560   3562     1   109.5600471 388.275200
   3555   3554   3560     1   109.8000471 387.438400
   3555   3554   3556     1   107.5800459 329.699200
   3556   3554   3560     1   109.8000471 387.438400
   3558   3557   3566     1   109.7800468 425.094400
   3558   3557   3559     1   108.4600466 328.025600
   3559   3557   3566     1   109.7800468 425.094400
   3561   3560   7162     1   109.7800468 425.094400
   3561   3560   3562     1   108.4600466 328.025600
   3562   3560   7162     1   109.7800468 425.094400
   3564   3563   7191     1   109.7800468 425.094400
   3564   3563   3565     1   108.4600466 328.025600
   3565   3563   7191     1   109.7800468 425.094400
   3567   3568   3569     1   109.8800469 414.216000
   3567   3568   3570     1   109.8800469 414.216000
   3567   3571   3572     1   109.8800469 414.216000
   3567   3571   3573     1   109.8800469 414.216000
   3567   3574   3575     1   109.8800469 414.216000
   3567   3574   3576     1   109.8800469 414.216000
   3568   3580   3581     1   109.8000471 387.438400
   3568   3580   3582     1   109.8000471 387.438400
   3569   3568   3580     1   109.5600471 388.275200
   3569   3568   3570     1   108.4600466 328.025600
   3570   3568   3580     1   109.5600471 388.275200
   3571   3583   3584     1   109.8000471 387.438400
   3571   3583   3585     1   109.8000471 387.438400
   3572   3571   3583     1   109.5600471 388.275200
   3572   3571   3573     1   108.4600466 328.025600
   3573   3571   3583     1   109.5600471 388.275200
   3574   3577   3578     1   109.8000471 387.438400
   3574   3577   3579     1   109.8000471 387.438400
   3575   3574   3577     1   109.5600471 388.275200
   3575   3574   3576     1   108.4600466 328.025600
   3576   3574   3577     1   109.5600471 388.275200
   3577   3586   3587     1   109.5600471 388.275200
   3577   3586   3588     1   109.5600471 388.275200
   3578   3577   3586     1   109.8000471 387.438400
   3578   3577   3579     1   107.5800459 329.699200
   3579   3577   3586     1   109.8000471 387.438400
   3580   3592   3593     1   109.5600471 388.275200
   3580   3592   3594     1   109.5600471 388.275200
   3581   3580   3592     1   109.8000471 387.438400
   3581   3580   3582     1   107.5800459 329.699200
   3582   3580   3592     1   109.8000471 387.438400
   3583   3589   3590     1   109.5600471 388.275200
   3583   3589   3591     1   109.5600471 388.275200
   3584   3583   3589     1   109.8000471 387.438400
   3584   3583   3585     1   107.5800459 329.699200
   3585   3583   3589     1   109.8000471 387.438400
   3587   3586   3595     1   109.7800468 425.094400
   3587   3586   3588     1   108.4600466 328.025600
   3588   3586   3595     1   109.7800468 425.094400
   3590   3589   7220     1   109.7800468 425.094400
   3590   3589   3591     1   108.4600466 328.025600
   3591   3589   7220     1   109.7800468 425.094400
   3593   3592   7249     1   109.7800468 425.094400
   3593   3592   3594     1   108.4600466 328.025600
   3594   3592   7249     1   109.7800468 425.094400
   3596   3597   3598     1   109.8800469 414.216000
   3596   3597   3599     1   109.8800469 414.216000
   3596   3600   3601     1   109.8800469 414.216000
   3596   3600   3602     1   109.8800469 414.216000
   3596   3603   3604     1   109.8800469 414.216000
   3596   3603   3605     1   109.8800469 414.216000
   3597   3609   3610     1   109.8000471 387.438400
   3597   3609   3611     1   109.8000471 387.438400
   3598   3597   3609     1   109.5600471 388.275200
   3598   3597   3599     1   108.4600466 328.025600
   3599   3597   3609     1   109.5600471 388.275200
   3600   3612   3613     1   109.8000471 387.438400
   3600   3612   3614     1   109.8000471 387.438400
   3601   3600   3612     1   109.5600471 388.275200
   3601   3600   3602     1   108.4600466 328.025600
   3602   3600   3612     1   109.5600471 388.275200
   3603   3606   3607     1   109.8000471 387.438400
   3603   3606   3608     1   109.8000471 387.438400
   3604   3603   3606     1   109.5600471 388.275200
   3604   3603   3605     1   108.4600466 328.025600
   3605   3603   3606     1   109.5600471 388.275200
   3606   3615   3616     1   109.5600471 388.275200
   3606   3615   3617     1   109.5600471 388.275200
   3607   3606   3615     1   109.8000471 387.438400
   3607   3606   3608     1   107.5800459 329.699200
   3608   3606   3615     1   109.8000471 387.438400
   3609   3621   3622     1   109.5600471 388.275200
   3609   3621   3623     1   109.5600471 388.275200
   3610   3609   3621     1   109.8000471 387.438400
   3610   3609   3611     1   107.5800459 329.699200
   3611   3609   3621     1   109.8000471 387.438400
   3612   3618   3619     1   109.5600471 388.275200
   3612   3618   3620     1   109.5600471 388.275200
   3613   3612   3618     1   109.8000471 387.438400
   3613   3612   3614     1   107.5800459 329.699200
   3614   3612   3618     1   109.8000471 387.438400
   3616   3615   3624     1   109.7800468 425.094400
   3616   3615   3617     1   108.4600466 328.025600
   3617   3615   3624     1   109.7800468 425.094400
   3619   3618   7278     1   109.7800468 425.094400
   3619   3618   3620     1   108.4600466 328.025600
   3620   3618   7278     1   109.7800468 425.094400
   3622   3621   7307     1   109.7800468 425.094400
   3622   3621   3623     1   108.4600466 328.025600
   3623   3621   7307     1   109.7800468 425.094400
   3625   3626   3627     1   109.8800469 414.216000
   3625   3626   3628     1   109.8800469 414.216000
   3625   3629   3630     1   109.8800469 414.216000
   3625   3629   3631     1   109.8800469 414.216000
   3625   3632   3633     1   109.8800469 414.216000
   3625   3632   3634     1   109.8800469 414.216000
   3626   3638   3639     1   109.8000471 387.438400
   3626   3638   3640     1   109.8000471 387.438400
   3627   3626   3638     1   109.5600471 388.275200
   3627   3626   3628     1   108.4600466 328.025600
   3628   3626   3638     1   109.5600471 388.275200
   3629   3641   3642     1   109.8000471 387.438400
   3629   3641   3643     1   109.8000471 387.438400
   3630   3629   3641     1   109.5600471 388.275200
   3630   3629   3631     1   108.4600466 328.025600
   3631   3629   3641     1   109.5600471 388.275200
   3632   3635   3636     1   109.8000471 387.438400
   3632   3635   3637     1   109.8000471 387.438400
   3633   3632   3635     1   109.5600471 388.275200
   3633   3632   3634     1   108.4600466 328.025600
   3634   3632   3635     1   109.5600471 388.275200
   3635   3644   3645     1   109.5600471 388.275200
   3635   3644   3646     1   109.5600471 388.275200
   3636   3635   3644     1   109.8000471 387.438400
   3636   3635   3637     1   107.5800459 329.699200
   3637   3635   3644     1   109.8000471 387.438400
   3638   3650   3651     1   109.5600471 388.275200
   3638   3650   3652     1   109.5600471 388.275200
   3639   3638   3650     1   109.8000471 387.438400
   3639   3638   3640     1   107.5800459 329.699200
   3640   3638   3650     1   109.8000471 387.438400
   3641   3647   3648     1   109.5600471 388.275200
   3641   3647   3649     1   109.5600471 388.275200
   3642   3641   3647     1   109.8000471 387.438400
   3642   3641   3643     1   107.5800459 329.699200
   3643   3641   3647     1   109.8000471 387.438400
   3645   3644   3653     1   109.7800468 425.094400
   3645   3644   3646     1   108.4600466 328.025600
   3646   3644   3653     1   109.7800468 425.094400
   3648   3647   7336     1   109.7800468 425.094400
   3648   3647   3649     1   108.4600466 328.025600
   3649   3647   7336     1   109.7800468 425.094400
   3651   3650   7365     1   109.7800468 425.094400
   3651   3650   3652     1   108.4600466 328.025600
   3652   3650   7365     1   109.7800468 425.094400
   3654   3657   3658     1   109.8000471 387.438400
   3654   3657   3659     1   109.8000471 387.438400
   3655   3654   3657     1   109.5600471 388.275200
   3655   3654   3682     1   109.7800468 425.094400
   3655   3654   3656     1   108.4600466 328.025600
   3656   3654   3657     1   109.5600471 388.275200
   3656   3654   3682     1   109.7800468 425.094400
   3657   3660   3661     1   109.5600471 388.275200
   3657   3660   3662     1   109.5600471 388.275200
   3658   3657   3660     1   109.8000471 387.438400
   3658   3657   3659     1   107.5800459 329.699200
   3659   3657   3660     1   109.8000471 387.438400
   3661   3660   3663     1   109.8800469 414.216000
   3661   3660   3662     1   108.4600466 328.025600
   3662   3660   3663     1   109.8800469 414.216000
   3663   3664   3665     1   109.8800469 414.216000
   3663   3664   3666     1   109.8800469 414.216000
   3663   3673   3674     1   109.8800469 414.216000
   3663   3673   3675     1   109.8800469 414.216000
   3664   3667   3668     1   109.8000471 387.438400
   3664   3667   3669     1   109.8000471 387.438400
   3665   3664   3667     1   109.5600471 388.275200
   3665   3664   3666     1   108.4600466 328.025600
   3666   3664   3667     1   109.5600471 388.275200
   3668   3667   3670     1   108.7700466 392.459200
   3668   3667   3669     1   107.5800459 329.699200
   3669   3667   3670     1   108.7700466 392.459200
   3673   3676   3677     1   109.8000471 387.438400
   3673   3676   3678     1   109.8000471 387.438400
   3674   3673   3676     1   109.5600471 388.275200
   3674   3673   3675     1   108.4600466 328.025600
   3675   3673   3676     1   109.5600471 388.275200
   3677   3676   3679     1   108.7700466 392.459200
   3677   3676   3678     1   107.5800459 329.699200
   3678   3676   3679     1   108.7700466 392.459200
   3683   3686   3687     1   109.8000471 387.438400
   3683   3686   3688     1   109.8000471 387.438400
   3684   3683   3686     1   109.5600471 388.275200
   3684   3683   3711     1   109.7800468 425.094400
   3684   3683   3685     1   108.4600466 328.025600
   3685   3683   3686     1   109.5600471 388.275200
   3685   3683   3711     1   109.7800468 425.094400
   3686   3689   3690     1   109.5600471 388.275200
   3686   3689   3691     1   109.5600471 388.275200
   3687   3686   3689     1   109.8000471 387.438400
   3687   3686   3688     1   107.5800459 329.699200
   3688   3686   3689     1   109.8000471 387.438400
   3690   3689   3692     1   109.8800469 414.216000
   3690   3689   3691     1   108.4600466 328.025600
   3691   3689   3692     1   109.8800469 414.216000
   3692   3693   3694     1   109.8800469 414.216000
   3692   3693   3695     1   109.8800469 414.216000
   3692   3702   3703     1   109.8800469 414.216000
   3692   3702   3704     1   109.8800469 414.216000
   3693   3696   3697     1   109.8000471 387.438400
   3693   3696   3698     1   109.8000471 387.438400
   3694   3693   3696     1   109.5600471 388.275200
   3694   3693   3695     1   108.4600466 328.025600
   3695   3693   3696     1   109.5600471 388.275200
   3697   3696   3699     1   108.7700466 392.459200
   3697   3696   3698     1   107.5800459 329.699200
   3698   3696   3699     1   108.7700466 392.459200
   3702   3705   3706     1   109.8000471 387.438400
   3702   3705   3707     1   109.8000471 387.438400
   3703   3702   3705     1   109.5600471 388.275200
   3703   3702   3704     1   108.4600466 328.025600
   3704   3702   3705     1   109.5600471 388.275200
   3706   3705   3708     1   108.7700466 392.459200
   3706   3705   3707     1   107.5800459 329.699200
   3707   3705   3708     1   108.7700466 392.459200
   3712   3715   3716     1   109.8000471 387.438400
   3712   3715   3717     1   109.8000471 387.438400
   3713   3712   3715     1   109.5600471 388.275200
   3713   3712   3740     1   109.7800468 425.094400
   3713   3712   3714     1   108.4600466 328.025600
   3714   3712   3715     1   109.5600471 388.275200
   3714   3712   3740     1   109.7800468 425.094400
   3715   3718   3719     1   109.5600471 388.275200
   3715   3718   3720     1   109.5600471 388.275200
   3716   3715   3718     1   109.8000471 387.438400
   3716   3715   3717     1   107.5800459 329.699200
   3717   3715   3718     1   109.8000471 387.438400
   3719   3718   3721     1   109.8800469 414.216000
   3719   3718   3720     1   108.4600466 328.025600
   3720   3718   3721     1   109.8800469 414.216000
   3721   3722   3723     1   109.8800469 414.216000
   3721   3722   3724     1   109.8800469 414.216000
   3721   3731   3732     1   109.8800469 414.216000
   3721   3731   3733     1   109.8800469 414.216000
   3722   3725   3726     1   109.8000471 387.438400
   3722   3725   3727     1   109.8000471 387.438400
   3723   3722   3725     1   109.5600471 388.275200
   3723   3722   3724     1   108.4600466 328.025600
   3724   3722   3725     1   109.5600471 388.275200
   3726   3725   3728     1   108.7700466 392.459200
   3726   3725   3727     1   107.5800459 329.699200
   3727   3725   3728     1   108.7700466 392.459200
   3731   3734   3735     1   109.8000471 387.438400
   3731   3734   3736     1   109.8000471 387.438400
   3732   3731   3734     1   109.5600471 388.275200
   3732   3731   3733     1   108.4600466 328.025600
   3733   3731   3734     1   109.5600471 388.275200
   3735   3734   3737     1   108.7700466 392.459200
   3735   3734   3736     1   107.5800459 329.699200
   3736   3734   3737     1   108.7700466 392.459200
   3741   3744   3745     1   109.8000471 387.438400
   3741   3744   3746     1   109.8000471 387.438400
   3742   3741   3744     1   109.5600471 388.275200
   3742   3741   3769     1   109.7800468 425.094400
   3742   3741   3743     1   108.4600466 328.025600
   3743   3741   3744     1   109.5600471 388.275200
   3743   3741   3769     1   109.7800468 425.094400
   3744   3747   3748     1   109.5600471 388.275200
   3744   3747   3749     1   109.5600471 388.275200
   3745   3744   3747     1   109.8000471 387.438400
   3745   3744   3746     1   107.5800459 329.699200
   3746   3744   3747     1   109.8000471 387.438400
   3748   3747   3750     1   109.8800469 414.216000
   3748   3747   3749     1   108.4600466 328.025600
   3749   3747   3750     1   109.8800469 414.216000
   3750   3751   3752     1   109.8800469 414.216000
   3750   3751   3753     1   109.8800469 414.216000
   3750   3760   3761     1   109.8800469 414.216000
   3750   3760   3762     1   109.8800469 414.216000
   3751   3754   3755     1   109.8000471 387.438400
   3751   3754   3756     1   109.8000471 387.438400
   3752   3751   3754     1   109.5600471 388.275200
   3752   3751   3753     1   108.4600466 328.025600
   3753   3751   3754     1   109.5600471 388.275200
   3755   3754   3757     1   108.7700466 392.459200
   3755   3754   3756     1   107.5800459 329.699200
   3756   3754   3757     1   108.7700466 392.459200
   3760   3763   3764     1   109.8000471 387.438400
   3760   3763   3765     1   109.8000471 387.438400
   3761   3760   3763     1   109.5600471 388.275200
   3761   3760   3762     1   108.4600466 328.025600
   3762   3760   3763     1   109.5600471 388.275200
   3764   3763   3766     1   108.7700466 392.459200
   3764   3763   3765     1   107.5800459 329.699200
   3765   3763   3766     1   108.7700466 392.459200
   3770   3773   3774     1   109.8000471 387.438400
   3770   3773   3775     1   109.8000471 387.438400
   3771   3770   3773     1   109.5600471 388.275200
   3771   3770   3798     1   109.7800468 425.094400
   3771   3770   3772     1   108.4600466 328.025600
   3772   3770   3773     1   109.5600471 388.275200
   3772   3770   3798     1   109.7800468 425.094400
   3773   3776   3777     1   109.5600471 388.275200
   3773   3776   3778     1   109.5600471 388.275200
   3774   3773   3776     1   109.8000471 387.438400
   3774   3773   3775     1   107.5800459 329.699200
   3775   3773   3776     1   109.8000471 387.438400
   3777   3776   3779     1   109.8800469 414.216000
   3777   3776   3778     1   108.4600466 328.025600
   3778   3776   3779     1   109.8800469 414.216000
   3779   3780   3781     1   109.8800469 414.216000
   3779   3780   3782     1   109.8800469 414.216000
   3779   3789   3790     1   109.8800469 414.216000
   3779   3789   3791     1   109.8800469 414.216000
   3780   3783   3784     1   109.8000471 387.438400
   3780   3783   3785     1   109.8000471 387.438400
   3781   3780   3783     1   109.5600471 388.275200
   3781   3780   3782     1   108.4600466 328.025600
   3782   3780   3783     1   109.5600471 388.275200
   3784   3783   3786     1   108.7700466 392.459200
   3784   3783   3785     1   107.5800459 329.699200
   3785   3783   3786     1   108.7700466 392.459200
   3789   3792   3793     1   109.8000471 387.438400
   3789   3792   3794     1   109.8000471 387.438400
   3790   3789   3792     1   109.5600471 388.275200
   3790   3789   3791     1   108.4600466 328.025600
   3791   3789   3792     1   109.5600471 388.275200
   3793   3792   3795     1   108.7700466 392.459200
   3793   3792   3794     1   107.5800459 329.699200
   3794   3792   3795     1   108.7700466 392.459200
   3799   3802   3803     1   109.8000471 387.438400
   3799   3802   3804     1   109.8000471 387.438400
   3800   3799   3802     1   109.5600471 388.275200
   3800   3799   3827     1   109.7800468 425.094400
   3800   3799   3801     1   108.4600466 328.025600
   3801   3799   3802     1   109.5600471 388.275200
   3801   3799   3827     1   109.7800468 425.094400
   3802   3805   3806     1   109.5600471 388.275200
   3802   3805   3807     1   109.5600471 388.275200
   3803   3802   3805     1   109.8000471 387.438400
   3803   3802   3804     1   107.5800459 329.699200
   3804   3802   3805     1   109.8000471 387.438400
   3806   3805   3808     1   109.8800469 414.216000
   3806   3805   3807     1   108.4600466 328.025600
   3807   3805   3808     1   109.8800469 414.216000
   3808   3809   3810     1   109.8800469 414.216000
   3808   3809   3811     1   109.8800469 414.216000
   3808   3818   3819     1   109.8800469 414.216000
   3808   3818   3820     1   109.8800469 414.216000
   3809   3812   3813     1   109.8000471 387.438400
   3809   3812   3814     1   109.8000471 387.438400
   3810   3809   3812     1   109.5600471 388.275200
   3810   3809   3811     1   108.4600466 328.025600
   3811   3809   3812     1   109.5600471 388.275200
   3813   3812   3815     1   108.7700466 392.459200
   3813   3812   3814     1   107.5800459 329.699200
   3814   3812   3815     1   108.7700466 392.459200
   3818   3821   3822     1   109.8000471 387.438400
   3818   3821   3823     1   109.8000471 387.438400
   3819   3818   3821     1   109.5600471 388.275200
   3819   3818   3820     1   108.4600466 328.025600
   3820   3818   3821     1   109.5600471 388.275200
   3822   3821   3824     1   108.7700466 392.459200
   3822   3821   3823     1   107.5800459 329.699200
   3823   3821   3824     1   108.7700466 392.459200
   3828   3831   3832     1   109.8000471 387.438400
   3828   3831   3833     1   109.8000471 387.438400
   3829   3828   3831     1   109.5600471 388.275200
   3829   3828   3856     1   109.7800468 425.094400
   3829   3828   3830     1   108.4600466 328.025600
   3830   3828   3831     1   109.5600471 388.275200
   3830   3828   3856     1   109.7800468 425.094400
   3831   3834   3835     1   109.5600471 388.275200
   3831   3834   3836     1   109.5600471 388.275200
   3832   3831   3834     1   109.8000471 387.438400
   3832   3831   3833     1   107.5800459 329.699200
   3833   3831   3834     1   109.8000471 387.438400
   3835   3834   3837     1   109.8800469 414.216000
   3835   3834   3836     1   108.4600466 328.025600
   3836   3834   3837     1   109.8800469 414.216000
   3837   3838   3839     1   109.8800469 414.216000
   3837   3838   3840     1   109.8800469 414.216000
   3837   3847   3848     1   109.8800469 414.216000
   3837   3847   3849     1   109.8800469 414.216000
   3838   3841   3842     1   109.8000471 387.438400
   3838   3841   3843     1   109.8000471 387.438400
   3839   3838   3841     1   109.5600471 388.275200
   3839   3838   3840     1   108.4600466 328.025600
   3840   3838   3841     1   109.5600471 388.275200
   3842   3841   3844     1   108.7700466 392.459200
   3842   3841   3843     1   107.5800459 329.699200
   3843   3841   3844     1   108.7700466 392.459200
   3847   3850   3851     1   109.8000471 387.438400
   3847   3850   3852     1   109.8000471 387.438400
   3848   3847   3850     1   109.5600471 388.275200
   3848   3847   3849     1   108.4600466 328.025600
   3849   3847   3850     1   109.5600471 388.275200
   3851   3850   3853     1   108.7700466 392.459200
   3851   3850   3852     1   107.5800459 329.699200
   3852   3850   3853     1   108.7700466 392.459200
   3857   3860   3861     1   109.8000471 387.438400
   3857   3860   3862     1   109.8000471 387.438400
   3858   3857   3860     1   109.5600471 388.275200
   3858   3857   3885     1   109.7800468 425.094400
   3858   3857   3859     1   108.4600466 328.025600
   3859   3857   3860     1   109.5600471 388.275200
   3859   3857   3885     1   109.7800468 425.094400
   3860   3863   3864     1   109.5600471 388.275200
   3860   3863   3865     1   109.5600471 388.275200
   3861   3860   3863     1   109.8000471 387.438400
   3861   3860   3862     1   107.5800459 329.699200
   3862   3860   3863     1   109.8000471 387.438400
   3864   3863   3866     1   109.8800469 414.216000
   3864   3863   3865     1   108.4600466 328.025600
   3865   3863   3866     1   109.8800469 414.216000
   3866   3867   3868     1   109.8800469 414.216000
   3866   3867   3869     1   109.8800469 414.216000
   3866   3876   3877     1   109.8800469 414.216000
   3866   3876   3878     1   109.8800469 414.216000
   3867   3870   3871     1   109.8000471 387.438400
   3867   3870   3872     1   109.8000471 387.438400
   3868   3867   3870     1   109.5600471 388.275200
   3868   3867   3869     1   108.4600466 328.025600
   3869   3867   3870     1   109.5600471 388.275200
   3871   3870   3873     1   108.7700466 392.459200
   3871   3870   3872     1   107.5800459 329.699200
   3872   3870   3873     1   108.7700466 392.459200
   3876   3879   3880     1   109.8000471 387.438400
   3876   3879   3881     1   109.8000471 387.438400
   3877   3876   3879     1   109.5600471 388.275200
   3877   3876   3878     1   108.4600466 328.025600
   3878   3876   3879     1   109.5600471 388.275200
   3880   3879   3882     1   108.7700466 392.459200
   3880   3879   3881     1   107.5800459 329.699200
   3881   3879   3882     1   108.7700466 392.459200
   3886   3889   3890     1   109.8000471 387.438400
   3886   3889   3891     1   109.8000471 387.438400
   3887   3886   3889     1   109.5600471 388.275200
   3887   3886   3914     1   109.7800468 425.094400
   3887   3886   3888     1   108.4600466 328.025600
   3888   3886   3889     1   109.5600471 388.275200
   3888   3886   3914     1   109.7800468 425.094400
   3889   3892   3893     1   109.5600471 388.275200
   3889   3892   3894     1   109.5600471 388.275200
   3890   3889   3892     1   109.8000471 387.438400
   3890   3889   3891     1   107.5800459 329.699200
   3891   3889   3892     1   109.8000471 387.438400
   3893   3892   3895     1   109.8800469 414.216000
   3893   3892   3894     1   108.4600466 328.025600
   3894   3892   3895     1   109.8800469 414.216000
   3895   3896   3897     1   109.8800469 414.216000
   3895   3896   3898     1   109.8800469 414.216000
   3895   3905   3906     1   109.8800469 414.216000
   3895   3905   3907     1   109.8800469 414.216000
   3896   3899   3900     1   109.8000471 387.438400
   3896   3899   3901     1   109.8000471 387.438400
   3897   3896   3899     1   109.5600471 388.275200
   3897   3896   3898     1   108.4600466 328.025600
   3898   3896   3899     1   109.5600471 388.275200
   3900   3899   3902     1   108.7700466 392.459200
   3900   3899   3901     1   107.5800459 329.699200
   3901   3899   3902     1   108.7700466 392.459200
   3905   3908   3909     1   109.8000471 387.438400
   3905   3908   3910     1   109.8000471 387.438400
   3906   3905   3908     1   109.5600471 388.275200
   3906   3905   3907     1   108.4600466 328.025600
   3907   3905   3908     1   109.5600471 388.275200
   3909   3908   3911     1   108.7700466 392.459200
   3909   3908   3910     1   107.5800459 329.699200
   3910   3908   3911     1   108.7700466 392.459200
   3915   3918   3919     1   109.8000471 387.438400
   3915   3918   3920     1   109.8000471 387.438400
   3916   3915   3918     1   109.5600471 388.275200
   3916   3915   3943     1   109.7800468 425.094400
   3916   3915   3917     1   108.4600466 328.025600
   3917   3915   3918     1   109.5600471 388.275200
   3917   3915   3943     1   109.7800468 425.094400
   3918   3921   3922     1   109.5600471 388.275200
   3918   3921   3923     1   109.5600471 388.275200
   3919   3918   3921     1   109.8000471 387.438400
   3919   3918   3920     1   107.5800459 329.699200
   3920   3918   3921     1   109.8000471 387.438400
   3922   3921   3924     1   109.8800469 414.216000
   3922   3921   3923     1   108.4600466 328.025600
   3923   3921   3924     1   109.8800469 414.216000
   3924   3925   3926     1   109.8800469 414.216000
   3924   3925   3927     1   109.8800469 414.216000
   3924   3934   3935     1   109.8800469 414.216000
   3924   3934   3936     1   109.8800469 414.216000
   3925   3928   3929     1   109.8000471 387.438400
   3925   3928   3930     1   109.8000471 387.438400
   3926   3925   3928     1   109.5600471 388.275200
   3926   3925   3927     1   108.4600466 328.025600
   3927   3925   3928     1   109.5600471 388.275200
   3929   3928   3931     1   108.7700466 392.459200
   3929   3928   3930     1   107.5800459 329.699200
   3930   3928   3931     1   108.7700466 392.459200
   3934   3937   3938     1   109.8000471 387.438400
   3934   3937   3939     1   109.8000471 387.438400
   3935   3934   3937     1   109.5600471 388.275200
   3935   3934   3936     1   108.4600466 328.025600
   3936   3934   3937     1   109.5600471 388.275200
   3938   3937   3940     1   108.7700466 392.459200
   3938   3937   3939     1   107.5800459 329.699200
   3939   3937   3940     1   108.7700466 392.459200
   3944   3947   3948     1   109.8000471 387.438400
   3944   3947   3949     1   109.8000471 387.438400
   3945   3944   3947     1   109.5600471 388.275200
   3945   3944   3972     1   109.7800468 425.094400
   3945   3944   3946     1   108.4600466 328.025600
   3946   3944   3947     1   109.5600471 388.275200
   3946   3944   3972     1   109.7800468 425.094400
   3947   3950   3951     1   109.5600471 388.275200
   3947   3950   3952     1   109.5600471 388.275200
   3948   3947   3950     1   109.8000471 387.438400
   3948   3947   3949     1   107.5800459 329.699200
   3949   3947   3950     1   109.8000471 387.438400
   3951   3950   3953     1   109.8800469 414.216000
   3951   3950   3952     1   108.4600466 328.025600
   3952   3950   3953     1   109.8800469 414.216000
   3953   3954   3955     1   109.8800469 414.216000
   3953   3954   3956     1   109.8800469 414.216000
   3953   3963   3964     1   109.8800469 414.216000
   3953   3963   3965     1   109.8800469 414.216000
   3954   3957   3958     1   109.8000471 387.438400
   3954   3957   3959     1   109.8000471 387.438400
   3955   3954   3957     1   109.5600471 388.275200
   3955   3954   3956     1   108.4600466 328.025600
   3956   3954   3957     1   109.5600471 388.275200
   3958   3957   3960     1   108.7700466 392.459200
   3958   3957   3959     1   107.5800459 329.699200
   3959   3957   3960     1   108.7700466 392.459200
   3963   3966   3967     1   109.8000471 387.438400
   3963   3966   3968     1   109.8000471 387.438400
   3964   3963   3966     1   109.5600471 388.275200
   3964   3963   3965     1   108.4600466 328.025600
   3965   3963   3966     1   109.5600471 388.275200
   3967   3966   3969     1   108.7700466 392.459200
   3967   3966   3968     1   107.5800459 329.699200
   3968   3966   3969     1   108.7700466 392.459200
   3973   3976   3977     1   109.8000471 387.438400
   3973   3976   3978     1   109.8000471 387.438400
   3974   3973   3976     1   109.5600471 388.275200
   3974   3973   4001     1   109.7800468 425.094400
   3974   3973   3975     1   108.4600466 328.025600
   3975   3973   3976     1   109.5600471 388.275200
   3975   3973   4001     1   109.7800468 425.094400
   3976   3979   3980     1   109.5600471 388.275200
   3976   3979   3981     1   109.5600471 388.275200
   3977   3976   3979     1   109.8000471 387.438400
   3977   3976   3978     1   107.5800459 329.699200
   3978   3976   3979     1   109.8000471 387.438400
   3980   3979   3982     1   109.8800469 414.216000
   3980   3979   3981     1   108.4600466 328.025600
   3981   3979   3982     1   109.8800469 414.216000
   3982   3983   3984     1   109.8800469 414.216000
   3982   3983   3985     1   109.8800469 414.216000
   3982   3992   3993     1   109.8800469 414.216000
   3982   3992   3994     1   109.8800469 414.216000
   3983   3986   3987     1   109.8000471 387.438400
   3983   3986   3988     1   109.8000471 387.438400
   3984   3983   3986     1   109.5600471 388.275200
   3984   3983   3985     1   108.4600466 328.025600
   3985   3983   3986     1   109.5600471 388.275200
   3987   3986   3989     1   108.7700466 392.459200
   3987   3986   3988     1   107.5800459 329.699200
   3988   3986   3989     1   108.7700466 392.459200
   3992   3995   3996     1   109.8000471 387.438400
   3992   3995   3997     1   109.8000471 387.438400
   3993   3992   3995     1   109.5600471 388.275200
   3993   3992   3994     1   108.4600466 328.025600
   3994   3992   3995     1   109.5600471 388.275200
   3996   3995   3998     1   108.7700466 392.459200
   3996   3995   3997     1   107.5800459 329.699200
   3997   3995   3998     1   108.7700466 392.459200
   4002   4005   4006     1   109.8000471 387.438400
   4002   4005   4007     1   109.8000471 387.438400
   4003   4002   4005     1   109.5600471 388.275200
   4003   4002   4030     1   109.7800468 425.094400
   4003   4002   4004     1   108.4600466 328.025600
   4004   4002   4005     1   109.5600471 388.275200
   4004   4002   4030     1   109.7800468 425.094400
   4005   4008   4009     1   109.5600471 388.275200
   4005   4008   4010     1   109.5600471 388.275200
   4006   4005   4008     1   109.8000471 387.438400
   4006   4005   4007     1   107.5800459 329.699200
   4007   4005   4008     1   109.8000471 387.438400
   4009   4008   4011     1   109.8800469 414.216000
   4009   4008   4010     1   108.4600466 328.025600
   4010   4008   4011     1   109.8800469 414.216000
   4011   4012   4013     1   109.8800469 414.216000
   4011   4012   4014     1   109.8800469 414.216000
   4011   4021   4022     1   109.8800469 414.216000
   4011   4021   4023     1   109.8800469 414.216000
   4012   4015   4016     1   109.8000471 387.438400
   4012   4015   4017     1   109.8000471 387.438400
   4013   4012   4015     1   109.5600471 388.275200
   4013   4012   4014     1   108.4600466 328.025600
   4014   4012   4015     1   109.5600471 388.275200
   4016   4015   4018     1   108.7700466 392.459200
   4016   4015   4017     1   107.5800459 329.699200
   4017   4015   4018     1   108.7700466 392.459200
   4021   4024   4025     1   109.8000471 387.438400
   4021   4024   4026     1   109.8000471 387.438400
   4022   4021   4024     1   109.5600471 388.275200
   4022   4021   4023     1   108.4600466 328.025600
   4023   4021   4024     1   109.5600471 388.275200
   4025   4024   4027     1   108.7700466 392.459200
   4025   4024   4026     1   107.5800459 329.699200
   4026   4024   4027     1   108.7700466 392.459200
   4031   4034   4035     1   109.8000471 387.438400
   4031   4034   4036     1   109.8000471 387.438400
   4032   4031   4034     1   109.5600471 388.275200
   4032   4031   4059     1   109.7800468 425.094400
   4032   4031   4033     1   108.4600466 328.025600
   4033   4031   4034     1   109.5600471 388.275200
   4033   4031   4059     1   109.7800468 425.094400
   4034   4037   4038     1   109.5600471 388.275200
   4034   4037   4039     1   109.5600471 388.275200
   4035   4034   4037     1   109.8000471 387.438400
   4035   4034   4036     1   107.5800459 329.699200
   4036   4034   4037     1   109.8000471 387.438400
   4038   4037   4040     1   109.8800469 414.216000
   4038   4037   4039     1   108.4600466 328.025600
   4039   4037   4040     1   109.8800469 414.216000
   4040   4041   4042     1   109.8800469 414.216000
   4040   4041   4043     1   109.8800469 414.216000
   4040   4050   4051     1   109.8800469 414.216000
   4040   4050   4052     1   109.8800469 414.216000
   4041   4044   4045     1   109.8000471 387.438400
   4041   4044   4046     1   109.8000471 387.438400
   4042   4041   4044     1   109.5600471 388.275200
   4042   4041   4043     1   108.4600466 328.025600
   4043   4041   4044     1   109.5600471 388.275200
   4045   4044   4047     1   108.7700466 392.459200
   4045   4044   4046     1   107.5800459 329.699200
   4046   4044   4047     1   108.7700466 392.459200
   4050   4053   4054     1   109.8000471 387.438400
   4050   4053   4055     1   109.8000471 387.438400
   4051   4050   4053     1   109.5600471 388.275200
   4051   4050   4052     1   108.4600466 328.025600
   4052   4050   4053     1   109.5600471 388.275200
   4054   4053   4056     1   108.7700466 392.459200
   4054   4053   4055     1   107.5800459 329.699200
   4055   4053   4056     1   108.7700466 392.459200
   4060   4063   4064     1   109.8000471 387.438400
   4060   4063   4065     1   109.8000471 387.438400
   4061   4060   4063     1   109.5600471 388.275200
   4061   4060   4088     1   109.7800468 425.094400
   4061   4060   4062     1   108.4600466 328.025600
   4062   4060   4063     1   109.5600471 388.275200
   4062   4060   4088     1   109.7800468 425.094400
   4063   4066   4067     1   109.5600471 388.275200
   4063   4066   4068     1   109.5600471 388.275200
   4064   4063   4066     1   109.8000471 387.438400
   4064   4063   4065     1   107.5800459 329.699200
   4065   4063   4066     1   109.8000471 387.438400
   4067   4066   4069     1   109.8800469 414.216000
   4067   4066   4068     1   108.4600466 328.025600
   4068   4066   4069     1   109.8800469 414.216000
   4069   4070   4071     1   109.8800469 414.216000
   4069   4070   4072     1   109.8800469 414.216000
   4069   4079   4080     1   109.8800469 414.216000
   4069   4079   4081     1   109.8800469 414.216000
   4070   4073   4074     1   109.8000471 387.438400
   4070   4073   4075     1   109.8000471 387.438400
   4071   4070   4073     1   109.5600471 388.275200
   4071   4070   4072     1   108.4600466 328.025600
   4072   4070   4073     1   109.5600471 388.275200
   4074   4073   4076     1   108.7700466 392.459200
   4074   4073   4075     1   107.5800459 329.699200
   4075   4073   4076     1   108.7700466 392.459200
   4079   4082   4083     1   109.8000471 387.438400
   4079   4082   4084     1   109.8000471 387.438400
   4080   4079   4082     1   109.5600471 388.275200
   4080   4079   4081     1   108.4600466 328.025600
   4081   4079   4082     1   109.5600471 388.275200
   4083   4082   4085     1   108.7700466 392.459200
   4083   4082   4084     1   107.5800459 329.699200
   4084   4082   4085     1   108.7700466 392.459200
   4089   4092   4093     1   109.8000471 387.438400
   4089   4092   4094     1   109.8000471 387.438400
   4090   4089   4092     1   109.5600471 388.275200
   4090   4089   4117     1   109.7800468 425.094400
   4090   4089   4091     1   108.4600466 328.025600
   4091   4089   4092     1   109.5600471 388.275200
   4091   4089   4117     1   109.7800468 425.094400
   4092   4095   4096     1   109.5600471 388.275200
   4092   4095   4097     1   109.5600471 388.275200
   4093   4092   4095     1   109.8000471 387.438400
   4093   4092   4094     1   107.5800459 329.699200
   4094   4092   4095     1   109.8000471 387.438400
   4096   4095   4098     1   109.8800469 414.216000
   4096   4095   4097     1   108.4600466 328.025600
   4097   4095   4098     1   109.8800469 414.216000
   4098   4099   4100     1   109.8800469 414.216000
   4098   4099   4101     1   109.8800469 414.216000
   4098   4108   4109     1   109.8800469 414.216000
   4098   4108   4110     1   109.8800469 414.216000
   4099   4102   4103     1   109.8000471 387.438400
   4099   4102   4104     1   109.8000471 387.438400
   4100   4099   4102     1   109.5600471 388.275200
   4100   4099   4101     1   108.4600466 328.025600
   4101   4099   4102     1   109.5600471 388.275200
   4103   4102   4105     1   108.7700466 392.459200
   4103   4102   4104     1   107.5800459 329.699200
   4104   4102   4105     1   108.7700466 392.459200
   4108   4111   4112     1   109.8000471 387.438400
   4108   4111   4113     1   109.8000471 387.438400
   4109   4108   4111     1   109.5600471 388.275200
   4109   4108   4110     1   108.4600466 328.025600
   4110   4108   4111     1   109.5600471 388.275200
   4112   4111   4114     1   108.7700466 392.459200
   4112   4111   4113     1   107.5800459 329.699200
   4113   4111   4114     1   108.7700466 392.459200
   4118   4121   4122     1   109.8000471 387.438400
   4118   4121   4123     1   109.8000471 387.438400
   4119   4118   4121     1   109.5600471 388.275200
   4119   4118   4146     1   109.7800468 425.094400
   4119   4118   4120     1   108.4600466 328.025600
   4120   4118   4121     1   109.5600471 388.275200
   4120   4118   4146     1   109.7800468 425.094400
   4121   4124   4125     1   109.5600471 388.275200
   4121   4124   4126     1   109.5600471 388.275200
   4122   4121   4124     1   109.8000471 387.438400
   4122   4121   4123     1   107.5800459 329.699200
   4123   4121   4124     1   109.8000471 387.438400
   4125   4124   4127     1   109.8800469 414.216000
   4125   4124   4126     1   108.4600466 328.025600
   4126   4124   4127     1   109.8800469 414.216000
   4127   4128   4129     1   109.8800469 414.216000
   4127   4128   4130     1   109.8800469 414.216000
   4127   4137   4138     1   109.8800469 414.216000
   4127   4137   4139     1   109.8800469 414.216000
   4128   4131   4132     1   109.8000471 387.438400
   4128   4131   4133     1   109.8000471 387.438400
   4129   4128   4131     1   109.5600471 388.275200
   4129   4128   4130     1   108.4600466 328.025600
   4130   4128   4131     1   109.5600471 388.275200
   4132   4131   4134     1   108.7700466 392.459200
   4132   4131   4133     1   107.5800459 329.699200
   4133   4131   4134     1   108.7700466 392.459200
   4137   4140   4141     1   109.8000471 387.438400
   4137   4140   4142     1   109.8000471 387.438400
   4138   4137   4140     1   109.5600471 388.275200
   4138   4137   4139     1   108.4600466 328.025600
   4139   4137   4140     1   109.5600471 388.275200
   4141   4140   4143     1   108.7700466 392.459200
   4141   4140   4142     1   107.5800459 329.699200
   4142   4140   4143     1   108.7700466 392.459200
   4147   4150   4151     1   109.8000471 387.438400
   4147   4150   4152     1   109.8000471 387.438400
   4148   4147   4150     1   109.5600471 388.275200
   4148   4147   4175     1   109.7800468 425.094400
   4148   4147   4149     1   108.4600466 328.025600
   4149   4147   4150     1   109.5600471 388.275200
   4149   4147   4175     1   109.7800468 425.094400
   4150   4153   4154     1   109.5600471 388.275200
   4150   4153   4155     1   109.5600471 388.275200
   4151   4150   4153     1   109.8000471 387.438400
   4151   4150   4152     1   107.5800459 329.699200
   4152   4150   4153     1   109.8000471 387.438400
   4154   4153   4156     1   109.8800469 414.216000
   4154   4153   4155     1   108.4600466 328.025600
   4155   4153   4156     1   109.8800469 414.216000
   4156   4157   4158     1   109.8800469 414.216000
   4156   4157   4159     1   109.8800469 414.216000
   4156   4166   4167     1   109.8800469 414.216000
   4156   4166   4168     1   109.8800469 414.216000
   4157   4160   4161     1   109.8000471 387.438400
   4157   4160   4162     1   109.8000471 387.438400
   4158   4157   4160     1   109.5600471 388.275200
   4158   4157   4159     1   108.4600466 328.025600
   4159   4157   4160     1   109.5600471 388.275200
   4161   4160   4163     1   108.7700466 392.459200
   4161   4160   4162     1   107.5800459 329.699200
   4162   4160   4163     1   108.7700466 392.459200
   4166   4169   4170     1   109.8000471 387.438400
   4166   4169   4171     1   109.8000471 387.438400
   4167   4166   4169     1   109.5600471 388.275200
   4167   4166   4168     1   108.4600466 328.025600
   4168   4166   4169     1   109.5600471 388.275200
   4170   4169   4172     1   108.7700466 392.459200
   4170   4169   4171     1   107.5800459 329.699200
   4171   4169   4172     1   108.7700466 392.459200
   4176   4179   4180     1   109.8000471 387.438400
   4176   4179   4181     1   109.8000471 387.438400
   4177   4176   4179     1   109.5600471 388.275200
   4177   4176   4204     1   109.7800468 425.094400
   4177   4176   4178     1   108.4600466 328.025600
   4178   4176   4179     1   109.5600471 388.275200
   4178   4176   4204     1   109.7800468 425.094400
   4179   4182   4183     1   109.5600471 388.275200
   4179   4182   4184     1   109.5600471 388.275200
   4180   4179   4182     1   109.8000471 387.438400
   4180   4179   4181     1   107.5800459 329.699200
   4181   4179   4182     1   109.8000471 387.438400
   4183   4182   4185     1   109.8800469 414.216000
   4183   4182   4184     1   108.4600466 328.025600
   4184   4182   4185     1   109.8800469 414.216000
   4185   4186   4187     1   109.8800469 414.216000
   4185   4186   4188     1   109.8800469 414.216000
   4185   4195   4196     1   109.8800469 414.216000
   4185   4195   4197     1   109.8800469 414.216000
   4186   4189   4190     1   109.8000471 387.438400
   4186   4189   4191     1   109.8000471 387.438400
   4187   4186   4189     1   109.5600471 388.275200
   4187   4186   4188     1   108.4600466 328.025600
   4188   4186   4189     1   109.5600471 388.275200
   4190   4189   4192     1   108.7700466 392.459200
   4190   4189   4191     1   107.5800459 329.699200
   4191   4189   4192     1   108.7700466 392.459200
   4195   4198   4199     1   109.8000471 387.438400
   4195   4198   4200     1   109.8000471 387.438400
   4196   4195   4198     1   109.5600471 388.275200
   4196   4195   4197     1   108.4600466 328.025600
   4197   4195   4198     1   109.5600471 388.275200
   4199   4198   4201     1   108.7700466 392.459200
   4199   4198   4200     1   107.5800459 329.699200
   4200   4198   4201     1   108.7700466 392.459200
   4205   4208   4209     1   109.8000471 387.438400
   4205   4208   4210     1   109.8000471 387.438400
   4206   4205   4208     1   109.5600471 388.275200
   4206   4205   4233     1   109.7800468 425.094400
   4206   4205   4207     1   108.4600466 328.025600
   4207   4205   4208     1   109.5600471 388.275200
   4207   4205   4233     1   109.7800468 425.094400
   4208   4211   4212     1   109.5600471 388.275200
   4208   4211   4213     1   109.5600471 388.275200
   4209   4208   4211     1   109.8000471 387.438400
   4209   4208   4210     1   107.5800459 329.699200
   4210   4208   4211     1   109.8000471 387.438400
   4212   4211   4214     1   109.8800469 414.216000
   4212   4211   4213     1   108.4600466 328.025600
   4213   4211   4214     1   109.8800469 414.216000
   4214   4215   4216     1   109.8800469 414.216000
   4214   4215   4217     1   109.8800469 414.216000
   4214   4224   4225     1   109.8800469 414.216000
   4214   4224   4226     1   109.8800469 414.216000
   4215   4218   4219     1   109.8000471 387.438400
   4215   4218   4220     1   109.8000471 387.438400
   4216   4215   4218     1   109.5600471 388.275200
   4216   4215   4217     1   108.4600466 328.025600
   4217   4215   4218     1   109.5600471 388.275200
   4219   4218   4221     1   108.7700466 392.459200
   4219   4218   4220     1   107.5800459 329.699200
   4220   4218   4221     1   108.7700466 392.459200
   4224   4227   4228     1   109.8000471 387.438400
   4224   4227   4229     1   109.8000471 387.438400
   4225   4224   4227     1   109.5600471 388.275200
   4225   4224   4226     1   108.4600466 328.025600
   4226   4224   4227     1   109.5600471 388.275200
   4228   4227   4230     1   108.7700466 392.459200
   4228   4227   4229     1   107.5800459 329.699200
   4229   4227   4230     1   108.7700466 392.459200
   4234   4237   4238     1   109.8000471 387.438400
   4234   4237   4239     1   109.8000471 387.438400
   4235   4234   4237     1   109.5600471 388.275200
   4235   4234   4262     1   109.7800468 425.094400
   4235   4234   4236     1   108.4600466 328.025600
   4236   4234   4237     1   109.5600471 388.275200
   4236   4234   4262     1   109.7800468 425.094400
   4237   4240   4241     1   109.5600471 388.275200
   4237   4240   4242     1   109.5600471 388.275200
   4238   4237   4240     1   109.8000471 387.438400
   4238   4237   4239     1   107.5800459 329.699200
   4239   4237   4240     1   109.8000471 387.438400
   4241   4240   4243     1   109.8800469 414.216000
   4241   4240   4242     1   108.4600466 328.025600
   4242   4240   4243     1   109.8800469 414.216000
   4243   4244   4245     1   109.8800469 414.216000
   4243   4244   4246     1   109.8800469 414.216000
   4243   4253   4254     1   109.8800469 414.216000
   4243   4253   4255     1   109.8800469 414.216000
   4244   4247   4248     1   109.8000471 387.438400
   4244   4247   4249     1   109.8000471 387.438400
   4245   4244   4247     1   109.5600471 388.275200
   4245   4244   4246     1   108.4600466 328.025600
   4246   4244   4247     1   109.5600471 388.275200
   4248   4247   4250     1   108.7700466 392.459200
   4248   4247   4249     1   107.5800459 329.699200
   4249   4247   4250     1   108.7700466 392.459200
   4253   4256   4257     1   109.8000471 387.438400
   4253   4256   4258     1   109.8000471 387.438400
   4254   4253   4256     1   109.5600471 388.275200
   4254   4253   4255     1   108.4600466 328.025600
   4255   4253   4256     1   109.5600471 388.275200
   4257   4256   4259     1   108.7700466 392.459200
   4257   4256   4258     1   107.5800459 329.699200
   4258   4256   4259     1   108.7700466 392.459200
   4263   4266   4267     1   109.8000471 387.438400
   4263   4266   4268     1   109.8000471 387.438400
   4264   4263   4266     1   109.5600471 388.275200
   4264   4263   4291     1   109.7800468 425.094400
   4264   4263   4265     1   108.4600466 328.025600
   4265   4263   4266     1   109.5600471 388.275200
   4265   4263   4291     1   109.7800468 425.094400
   4266   4269   4270     1   109.5600471 388.275200
   4266   4269   4271     1   109.5600471 388.275200
   4267   4266   4269     1   109.8000471 387.438400
   4267   4266   4268     1   107.5800459 329.699200
   4268   4266   4269     1   109.8000471 387.438400
   4270   4269   4272     1   109.8800469 414.216000
   4270   4269   4271     1   108.4600466 328.025600
   4271   4269   4272     1   109.8800469 414.216000
   4272   4273   4274     1   109.8800469 414.216000
   4272   4273   4275     1   109.8800469 414.216000
   4272   4282   4283     1   109.8800469 414.216000
   4272   4282   4284     1   109.8800469 414.216000
   4273   4276   4277     1   109.8000471 387.438400
   4273   4276   4278     1   109.8000471 387.438400
   4274   4273   4276     1   109.5600471 388.275200
   4274   4273   4275     1   108.4600466 328.025600
   4275   4273   4276     1   109.5600471 388.275200
   4277   4276   4279     1   108.7700466 392.459200
   4277   4276   4278     1   107.5800459 329.699200
   4278   4276   4279     1   108.7700466 392.459200
   4282   4285   4286     1   109.8000471 387.438400
   4282   4285   4287     1   109.8000471 387.438400
   4283   4282   4285     1   109.5600471 388.275200
   4283   4282   4284     1   108.4600466 328.025600
   4284   4282   4285     1   109.5600471 388.275200
   4286   4285   4288     1   108.7700466 392.459200
   4286   4285   4287     1   107.5800459 329.699200
   4287   4285   4288     1   108.7700466 392.459200
   4292   4295   4296     1   109.8000471 387.438400
   4292   4295   4297     1   109.8000471 387.438400
   4293   4292   4295     1   109.5600471 388.275200
   4293   4292   4320     1   109.7800468 425.094400
   4293   4292   4294     1   108.4600466 328.025600
   4294   4292   4295     1   109.5600471 388.275200
   4294   4292   4320     1   109.7800468 425.094400
   4295   4298   4299     1   109.5600471 388.275200
   4295   4298   4300     1   109.5600471 388.275200
   4296   4295   4298     1   109.8000471 387.438400
   4296   4295   4297     1   107.5800459 329.699200
   4297   4295   4298     1   109.8000471 387.438400
   4299   4298   4301     1   109.8800469 414.216000
   4299   4298   4300     1   108.4600466 328.025600
   4300   4298   4301     1   109.8800469 414.216000
   4301   4302   4303     1   109.8800469 414.216000
   4301   4302   4304     1   109.8800469 414.216000
   4301   4311   4312     1   109.8800469 414.216000
   4301   4311   4313     1   109.8800469 414.216000
   4302   4305   4306     1   109.8000471 387.438400
   4302   4305   4307     1   109.8000471 387.438400
   4303   4302   4305     1   109.5600471 388.275200
   4303   4302   4304     1   108.4600466 328.025600
   4304   4302   4305     1   109.5600471 388.275200
   4306   4305   4308     1   108.7700466 392.459200
   4306   4305   4307     1   107.5800459 329.699200
   4307   4305   4308     1   108.7700466 392.459200
   4311   4314   4315     1   109.8000471 387.438400
   4311   4314   4316     1   109.8000471 387.438400
   4312   4311   4314     1   109.5600471 388.275200
   4312   4311   4313     1   108.4600466 328.025600
   4313   4311   4314     1   109.5600471 388.275200
   4315   4314   4317     1   108.7700466 392.459200
   4315   4314   4316     1   107.5800459 329.699200
   4316   4314   4317     1   108.7700466 392.459200
   4321   4324   4325     1   109.8000471 387.438400
   4321   4324   4326     1   109.8000471 387.438400
   4322   4321   4324     1   109.5600471 388.275200
   4322   4321   4349     1   109.7800468 425.094400
   4322   4321   4323     1   108.4600466 328.025600
   4323   4321   4324     1   109.5600471 388.275200
   4323   4321   4349     1   109.7800468 425.094400
   4324   4327   4328     1   109.5600471 388.275200
   4324   4327   4329     1   109.5600471 388.275200
   4325   4324   4327     1   109.8000471 387.438400
   4325   4324   4326     1   107.5800459 329.699200
   4326   4324   4327     1   109.8000471 387.438400
   4328   4327   4330     1   109.8800469 414.216000
   4328   4327   4329     1   108.4600466 328.025600
   4329   4327   4330     1   109.8800469 414.216000
   4330   4331   4332     1   109.8800469 414.216000
   4330   4331   4333     1   109.8800469 414.216000
   4330   4340   4341     1   109.8800469 414.216000
   4330   4340   4342     1   109.8800469 414.216000
   4331   4334   4335     1   109.8000471 387.438400
   4331   4334   4336     1   109.8000471 387.438400
   4332   4331   4334     1   109.5600471 388.275200
   4332   4331   4333     1   108.4600466 328.025600
   4333   4331   4334     1   109.5600471 388.275200
   4335   4334   4337     1   108.7700466 392.459200
   4335   4334   4336     1   107.5800459 329.699200
   4336   4334   4337     1   108.7700466 392.459200
   4340   4343   4344     1   109.8000471 387.438400
   4340   4343   4345     1   109.8000471 387.438400
   4341   4340   4343     1   109.5600471 388.275200
   4341   4340   4342     1   108.4600466 328.025600
   4342   4340   4343     1   109.5600471 388.275200
   4344   4343   4346     1   108.7700466 392.459200
   4344   4343   4345     1   107.5800459 329.699200
   4345   4343   4346     1   108.7700466 392.459200
   4350   4353   4354     1   109.8000471 387.438400
   4350   4353   4355     1   109.8000471 387.438400
   4351   4350   4353     1   109.5600471 388.275200
   4351   4350   4378     1   109.7800468 425.094400
   4351   4350   4352     1   108.4600466 328.025600
   4352   4350   4353     1   109.5600471 388.275200
   4352   4350   4378     1   109.7800468 425.094400
   4353   4356   4357     1   109.5600471 388.275200
   4353   4356   4358     1   109.5600471 388.275200
   4354   4353   4356     1   109.8000471 387.438400
   4354   4353   4355     1   107.5800459 329.699200
   4355   4353   4356     1   109.8000471 387.438400
   4357   4356   4359     1   109.8800469 414.216000
   4357   4356   4358     1   108.4600466 328.025600
   4358   4356   4359     1   109.8800469 414.216000
   4359   4360   4361     1   109.8800469 414.216000
   4359   4360   4362     1   109.8800469 414.216000
   4359   4369   4370     1   109.8800469 414.216000
   4359   4369   4371     1   109.8800469 414.216000
   4360   4363   4364     1   109.8000471 387.438400
   4360   4363   4365     1   109.8000471 387.438400
   4361   4360   4363     1   109.5600471 388.275200
   4361   4360   4362     1   108.4600466 328.025600
   4362   4360   4363     1   109.5600471 388.275200
   4364   4363   4366     1   108.7700466 392.459200
   4364   4363   4365     1   107.5800459 329.699200
   4365   4363   4366     1   108.7700466 392.459200
   4369   4372   4373     1   109.8000471 387.438400
   4369   4372   4374     1   109.8000471 387.438400
   4370   4369   4372     1   109.5600471 388.275200
   4370   4369   4371     1   108.4600466 328.025600
   4371   4369   4372     1   109.5600471 388.275200
   4373   4372   4375     1   108.7700466 392.459200
   4373   4372   4374     1   107.5800459 329.699200
   4374   4372   4375     1   108.7700466 392.459200
   4379   4382   4383     1   109.8000471 387.438400
   4379   4382   4384     1   109.8000471 387.438400
   4380   4379   4382     1   109.5600471 388.275200
   4380   4379   4407     1   109.7800468 425.094400
   4380   4379   4381     1   108.4600466 328.025600
   4381   4379   4382     1   109.5600471 388.275200
   4381   4379   4407     1   109.7800468 425.094400
   4382   4385   4386     1   109.5600471 388.275200
   4382   4385   4387     1   109.5600471 388.275200
   4383   4382   4385     1   109.8000471 387.438400
   4383   4382   4384     1   107.5800459 329.699200
   4384   4382   4385     1   109.8000471 387.438400
   4386   4385   4388     1   109.8800469 414.216000
   4386   4385   4387     1   108.4600466 328.025600
   4387   4385   4388     1   109.8800469 414.216000
   4388   4389   4390     1   109.8800469 414.216000
   4388   4389   4391     1   109.8800469 414.216000
   4388   4398   4399     1   109.8800469 414.216000
   4388   4398   4400     1   109.8800469 414.216000
   4389   4392   4393     1   109.8000471 387.438400
   4389   4392   4394     1   109.8000471 387.438400
   4390   4389   4392     1   109.5600471 388.275200
   4390   4389   4391     1   108.4600466 328.025600
   4391   4389   4392     1   109.5600471 388.275200
   4393   4392   4395     1   108.7700466 392.459200
   4393   4392   4394     1   107.5800459 329.699200
   4394   4392   4395     1   108.7700466 392.459200
   4398   4401   4402     1   109.8000471 387.438400
   4398   4401   4403     1   109.8000471 387.438400
   4399   4398   4401     1   109.5600471 388.275200
   4399   4398   4400     1   108.4600466 328.025600
   4400   4398   4401     1   109.5600471 388.275200
   4402   4401   4404     1   108.7700466 392.459200
   4402   4401   4403     1   107.5800459 329.699200
   4403   4401   4404     1   108.7700466 392.459200
   4408   4411   4412     1   109.8000471 387.438400
   4408   4411   4413     1   109.8000471 387.438400
   4409   4408   4411     1   109.5600471 388.275200
   4409   4408   4436     1   109.7800468 425.094400
   4409   4408   4410     1   108.4600466 328.025600
   4410   4408   4411     1   109.5600471 388.275200
   4410   4408   4436     1   109.7800468 425.094400
   4411   4414   4415     1   109.5600471 388.275200
   4411   4414   4416     1   109.5600471 388.275200
   4412   4411   4414     1   109.8000471 387.438400
   4412   4411   4413     1   107.5800459 329.699200
   4413   4411   4414     1   109.8000471 387.438400
   4415   4414   4417     1   109.8800469 414.216000
   4415   4414   4416     1   108.4600466 328.025600
   4416   4414   4417     1   109.8800469 414.216000
   4417   4418   4419     1   109.8800469 414.216000
   4417   4418   4420     1   109.8800469 414.216000
   4417   4427   4428     1   109.8800469 414.216000
   4417   4427   4429     1   109.8800469 414.216000
   4418   4421   4422     1   109.8000471 387.438400
   4418   4421   4423     1   109.8000471 387.438400
   4419   4418   4421     1   109.5600471 388.275200
   4419   4418   4420     1   108.4600466 328.025600
   4420   4418   4421     1   109.5600471 388.275200
   4422   4421   4424     1   108.7700466 392.459200
   4422   4421   4423     1   107.5800459 329.699200
   4423   4421   4424     1   108.7700466 392.459200
   4427   4430   4431     1   109.8000471 387.438400
   4427   4430   4432     1   109.8000471 387.438400
   4428   4427   4430     1   109.5600471 388.275200
   4428   4427   4429     1   108.4600466 328.025600
   4429   4427   4430     1   109.5600471 388.275200
   4431   4430   4433     1   108.7700466 392.459200
   4431   4430   4432     1   107.5800459 329.699200
   4432   4430   4433     1   108.7700466 392.459200
   4437   4440   4441     1   109.8000471 387.438400
   4437   4440   4442     1   109.8000471 387.438400
   4438   4437   4440     1   109.5600471 388.275200
   4438   4437   4465     1   109.7800468 425.094400
   4438   4437   4439     1   108.4600466 328.025600
   4439   4437   4440     1   109.5600471 388.275200
   4439   4437   4465     1   109.7800468 425.094400
   4440   4443   4444     1   109.5600471 388.275200
   4440   4443   4445     1   109.5600471 388.275200
   4441   4440   4443     1   109.8000471 387.438400
   4441   4440   4442     1   107.5800459 329.699200
   4442   4440   4443     1   109.8000471 387.438400
   4444   4443   4446     1   109.8800469 414.216000
   4444   4443   4445     1   108.4600466 328.025600
   4445   4443   4446     1   109.8800469 414.216000
   4446   4447   4448     1   109.8800469 414.216000
   4446   4447   4449     1   109.8800469 414.216000
   4446   4456   4457     1   109.8800469 414.216000
   4446   4456   4458     1   109.8800469 414.216000
   4447   4450   4451     1   109.8000471 387.438400
   4447   4450   4452     1   109.8000471 387.438400
   4448   4447   4450     1   109.5600471 388.275200
   4448   4447   4449     1   108.4600466 328.025600
   4449   4447   4450     1   109.5600471 388.275200
   4451   4450   4453     1   108.7700466 392.459200
   4451   4450   4452     1   107.5800459 329.699200
   4452   4450   4453     1   108.7700466 392.459200
   4456   4459   4460     1   109.8000471 387.438400
   4456   4459   4461     1   109.8000471 387.438400
   4457   4456   4459     1   109.5600471 388.275200
   4457   4456   4458     1   108.4600466 328.025600
   4458   4456   4459     1   109.5600471 388.275200
   4460   4459   4462     1   108.7700466 392.459200
   4460   4459   4461     1   107.5800459 329.699200
   4461   4459   4462     1   108.7700466 392.459200
   4466   4469   4470     1   109.8000471 387.438400
   4466   4469   4471     1   109.8000471 387.438400
   4467   4466   4469     1   109.5600471 388.275200
   4467   4466   4494     1   109.7800468 425.094400
   4467   4466   4468     1   108.4600466 328.025600
   4468   4466   4469     1   109.5600471 388.275200
   4468   4466   4494     1   109.7800468 425.094400
   4469   4472   4473     1   109.5600471 388.275200
   4469   4472   4474     1   109.5600471 388.275200
   4470   4469   4472     1   109.8000471 387.438400
   4470   4469   4471     1   107.5800459 329.699200
   4471   4469   4472     1   109.8000471 387.438400
   4473   4472   4475     1   109.8800469 414.216000
   4473   4472   4474     1   108.4600466 328.025600
   4474   4472   4475     1   109.8800469 414.216000
   4475   4476   4477     1   109.8800469 414.216000
   4475   4476   4478     1   109.8800469 414.216000
   4475   4485   4486     1   109.8800469 414.216000
   4475   4485   4487     1   109.8800469 414.216000
   4476   4479   4480     1   109.8000471 387.438400
   4476   4479   4481     1   109.8000471 387.438400
   4477   4476   4479     1   109.5600471 388.275200
   4477   4476   4478     1   108.4600466 328.025600
   4478   4476   4479     1   109.5600471 388.275200
   4480   4479   4482     1   108.7700466 392.459200
   4480   4479   4481     1   107.5800459 329.699200
   4481   4479   4482     1   108.7700466 392.459200
   4485   4488   4489     1   109.8000471 387.438400
   4485   4488   4490     1   109.8000471 387.438400
   4486   4485   4488     1   109.5600471 388.275200
   4486   4485   4487     1   108.4600466 328.025600
   4487   4485   4488     1   109.5600471 388.275200
   4489   4488   4491     1   108.7700466 392.459200
   4489   4488   4490     1   107.5800459 329.699200
   4490   4488   4491     1   108.7700466 392.459200
   4495   4498   4499     1   109.8000471 387.438400
   4495   4498   4500     1   109.8000471 387.438400
   4496   4495   4498     1   109.5600471 388.275200
   4496   4495   4523     1   109.7800468 425.094400
   4496   4495   4497     1   108.4600466 328.025600
   4497   4495   4498     1   109.5600471 388.275200
   4497   4495   4523     1   109.7800468 425.094400
   4498   4501   4502     1   109.5600471 388.275200
   4498   4501   4503     1   109.5600471 388.275200
   4499   4498   4501     1   109.8000471 387.438400
   4499   4498   4500     1   107.5800459 329.699200
   4500   4498   4501     1   109.8000471 387.438400
   4502   4501   4504     1   109.8800469 414.216000
   4502   4501   4503     1   108.4600466 328.025600
   4503   4501   4504     1   109.8800469 414.216000
   4504   4505   4506     1   109.8800469 414.216000
   4504   4505   4507     1   109.8800469 414.216000
   4504   4514   4515     1   109.8800469 414.216000
   4504   4514   4516     1   109.8800469 414.216000
   4505   4508   4509     1   109.8000471 387.438400
   4505   4508   4510     1   109.8000471 387.438400
   4506   4505   4508     1   109.5600471 388.275200
   4506   4505   4507     1   108.4600466 328.025600
   4507   4505   4508     1   109.5600471 388.275200
   4509   4508   4511     1   108.7700466 392.459200
   4509   4508   4510     1   107.5800459 329.699200
   4510   4508   4511     1   108.7700466 392.459200
   4514   4517   4518     1   109.8000471 387.438400
   4514   4517   4519     1   109.8000471 387.438400
   4515   4514   4517     1   109.5600471 388.275200
   4515   4514   4516     1   108.4600466 328.025600
   4516   4514   4517     1   109.5600471 388.275200
   4518   4517   4520     1   108.7700466 392.459200
   4518   4517   4519     1   107.5800459 329.699200
   4519   4517   4520     1   108.7700466 392.459200
   4524   4527   4528     1   109.8000471 387.438400
   4524   4527   4529     1   109.8000471 387.438400
   4525   4524   4527     1   109.5600471 388.275200
   4525   4524   4552     1   109.7800468 425.094400
   4525   4524   4526     1   108.4600466 328.025600
   4526   4524   4527     1   109.5600471 388.275200
   4526   4524   4552     1   109.7800468 425.094400
   4527   4530   4531     1   109.5600471 388.275200
   4527   4530   4532     1   109.5600471 388.275200
   4528   4527   4530     1   109.8000471 387.438400
   4528   4527   4529     1   107.5800459 329.699200
   4529   4527   4530     1   109.8000471 387.438400
   4531   4530   4533     1   109.8800469 414.216000
   4531   4530   4532     1   108.4600466 328.025600
   4532   4530   4533     1   109.8800469 414.216000
   4533   4534   4535     1   109.8800469 414.216000
   4533   4534   4536     1   109.8800469 414.216000
   4533   4543   4544     1   109.8800469 414.216000
   4533   4543   4545     1   109.8800469 414.216000
   4534   4537   4538     1   109.8000471 387.438400
   4534   4537   4539     1   109.8000471 387.438400
   4535   4534   4537     1   109.5600471 388.275200
   4535   4534   4536     1   108.4600466 328.025600
   4536   4534   4537     1   109.5600471 388.275200
   4538   4537   4540     1   108.7700466 392.459200
   4538   4537   4539     1   107.5800459 329.699200
   4539   4537   4540     1   108.7700466 392.459200
   4543   4546   4547     1   109.8000471 387.438400
   4543   4546   4548     1   109.8000471 387.438400
   4544   4543   4546     1   109.5600471 388.275200
   4544   4543   4545     1   108.4600466 328.025600
   4545   4543   4546     1   109.5600471 388.275200
   4547   4546   4549     1   108.7700466 392.459200
   4547   4546   4548     1   107.5800459 329.699200
   4548   4546   4549     1   108.7700466 392.459200
   4553   4556   4557     1   109.8000471 387.438400
   4553   4556   4558     1   109.8000471 387.438400
   4554   4553   4556     1   109.5600471 388.275200
   4554   4553   4581     1   109.7800468 425.094400
   4554   4553   4555     1   108.4600466 328.025600
   4555   4553   4556     1   109.5600471 388.275200
   4555   4553   4581     1   109.7800468 425.094400
   4556   4559   4560     1   109.5600471 388.275200
   4556   4559   4561     1   109.5600471 388.275200
   4557   4556   4559     1   109.8000471 387.438400
   4557   4556   4558     1   107.5800459 329.699200
   4558   4556   4559     1   109.8000471 387.438400
   4560   4559   4562     1   109.8800469 414.216000
   4560   4559   4561     1   108.4600466 328.025600
   4561   4559   4562     1   109.8800469 414.216000
   4562   4563   4564     1   109.8800469 414.216000
   4562   4563   4565     1   109.8800469 414.216000
   4562   4572   4573     1   109.8800469 414.216000
   4562   4572   4574     1   109.8800469 414.216000
   4563   4566   4567     1   109.8000471 387.438400
   4563   4566   4568     1   109.8000471 387.438400
   4564   4563   4566     1   109.5600471 388.275200
   4564   4563   4565     1   108.4600466 328.025600
   4565   4563   4566     1   109.5600471 388.275200
   4567   4566   4569     1   108.7700466 392.459200
   4567   4566   4568     1   107.5800459 329.699200
   4568   4566   4569     1   108.7700466 392.459200
   4572   4575   4576     1   109.8000471 387.438400
   4572   4575   4577     1   109.8000471 387.438400
   4573   4572   4575     1   109.5600471 388.275200
   4573   4572   4574     1   108.4600466 328.025600
   4574   4572   4575     1   109.5600471 388.275200
   4576   4575   4578     1   108.7700466 392.459200
   4576   4575   4577     1   107.5800459 329.699200
   4577   4575   4578     1   108.7700466 392.459200
   4582   4585   4586     1   109.8000471 387.438400
   4582   4585   4587     1   109.8000471 387.438400
   4583   4582   4585     1   109.5600471 388.275200
   4583   4582   4610     1   109.7800468 425.094400
   4583   4582   4584     1   108.4600466 328.025600
   4584   4582   4585     1   109.5600471 388.275200
   4584   4582   4610     1   109.7800468 425.094400
   4585   4588   4589     1   109.5600471 388.275200
   4585   4588   4590     1   109.5600471 388.275200
   4586   4585   4588     1   109.8000471 387.438400
   4586   4585   4587     1   107.5800459 329.699200
   4587   4585   4588     1   109.8000471 387.438400
   4589   4588   4591     1   109.8800469 414.216000
   4589   4588   4590     1   108.4600466 328.025600
   4590   4588   4591     1   109.8800469 414.216000
   4591   4592   4593     1   109.8800469 414.216000
   4591   4592   4594     1   109.8800469 414.216000
   4591   4601   4602     1   109.8800469 414.216000
   4591   4601   4603     1   109.8800469 414.216000
   4592   4595   4596     1   109.8000471 387.438400
   4592   4595   4597     1   109.8000471 387.438400
   4593   4592   4595     1   109.5600471 388.275200
   4593   4592   4594     1   108.4600466 328.025600
   4594   4592   4595     1   109.5600471 388.275200
   4596   4595   4598     1   108.7700466 392.459200
   4596   4595   4597     1   107.5800459 329.699200
   4597   4595   4598     1   108.7700466 392.459200
   4601   4604   4605     1   109.8000471 387.438400
   4601   4604   4606     1   109.8000471 387.438400
   4602   4601   4604     1   109.5600471 388.275200
   4602   4601   4603     1   108.4600466 328.025600
   4603   4601   4604     1   109.5600471 388.275200
   4605   4604   4607     1   108.7700466 392.459200
   4605   4604   4606     1   107.5800459 329.699200
   4606   4604   4607     1   108.7700466 392.459200
   4611   4614   4615     1   109.8000471 387.438400
   4611   4614   4616     1   109.8000471 387.438400
   4612   4611   4614     1   109.5600471 388.275200
   4612   4611   4639     1   109.7800468 425.094400
   4612   4611   4613     1   108.4600466 328.025600
   4613   4611   4614     1   109.5600471 388.275200
   4613   4611   4639     1   109.7800468 425.094400
   4614   4617   4618     1   109.5600471 388.275200
   4614   4617   4619     1   109.5600471 388.275200
   4615   4614   4617     1   109.8000471 387.438400
   4615   4614   4616     1   107.5800459 329.699200
   4616   4614   4617     1   109.8000471 387.438400
   4618   4617   4620     1   109.8800469 414.216000
   4618   4617   4619     1   108.4600466 328.025600
   4619   4617   4620     1   109.8800469 414.216000
   4620   4621   4622     1   109.8800469 414.216000
   4620   4621   4623     1   109.8800469 414.216000
   4620   4630   4631     1   109.8800469 414.216000
   4620   4630   4632     1   109.8800469 414.216000
   4621   4624   4625     1   109.8000471 387.438400
   4621   4624   4626     1   109.8000471 387.438400
   4622   4621   4624     1   109.5600471 388.275200
   4622   4621   4623     1   108.4600466 328.025600
   4623   4621   4624     1   109.5600471 388.275200
   4625   4624   4627     1   108.7700466 392.459200
   4625   4624   4626     1   107.5800459 329.699200
   4626   4624   4627     1   108.7700466 392.459200
   4630   4633   4634     1   109.8000471 387.438400
   4630   4633   4635     1   109.8000471 387.438400
   4631   4630   4633     1   109.5600471 388.275200
   4631   4630   4632     1   108.4600466 328.025600
   4632   4630   4633     1   109.5600471 388.275200
   4634   4633   4636     1   108.7700466 392.459200
   4634   4633   4635     1   107.5800459 329.699200
   4635   4633   4636     1   108.7700466 392.459200
   4640   4643   4644     1   109.8000471 387.438400
   4640   4643   4645     1   109.8000471 387.438400
   4641   4640   4643     1   109.5600471 388.275200
   4641   4640   4668     1   109.7800468 425.094400
   4641   4640   4642     1   108.4600466 328.025600
   4642   4640   4643     1   109.5600471 388.275200
   4642   4640   4668     1   109.7800468 425.094400
   4643   4646   4647     1   109.5600471 388.275200
   4643   4646   4648     1   109.5600471 388.275200
   4644   4643   4646     1   109.8000471 387.438400
   4644   4643   4645     1   107.5800459 329.699200
   4645   4643   4646     1   109.8000471 387.438400
   4647   4646   4649     1   109.8800469 414.216000
   4647   4646   4648     1   108.4600466 328.025600
   4648   4646   4649     1   109.8800469 414.216000
   4649   4650   4651     1   109.8800469 414.216000
   4649   4650   4652     1   109.8800469 414.216000
   4649   4659   4660     1   109.8800469 414.216000
   4649   4659   4661     1   109.8800469 414.216000
   4650   4653   4654     1   109.8000471 387.438400
   4650   4653   4655     1   109.8000471 387.438400
   4651   4650   4653     1   109.5600471 388.275200
   4651   4650   4652     1   108.4600466 328.025600
   4652   4650   4653     1   109.5600471 388.275200
   4654   4653   4656     1   108.7700466 392.459200
   4654   4653   4655     1   107.5800459 329.699200
   4655   4653   4656     1   108.7700466 392.459200
   4659   4662   4663     1   109.8000471 387.438400
   4659   4662   4664     1   109.8000471 387.438400
   4660   4659   4662     1   109.5600471 388.275200
   4660   4659   4661     1   108.4600466 328.025600
   4661   4659   4662     1   109.5600471 388.275200
   4663   4662   4665     1   108.7700466 392.459200
   4663   4662   4664     1   107.5800459 329.699200
   4664   4662   4665     1   108.7700466 392.459200
   4669   4672   4673     1   109.8000471 387.438400
   4669   4672   4674     1   109.8000471 387.438400
   4670   4669   4672     1   109.5600471 388.275200
   4670   4669   4697     1   109.7800468 425.094400
   4670   4669   4671     1   108.4600466 328.025600
   4671   4669   4672     1   109.5600471 388.275200
   4671   4669   4697     1   109.7800468 425.094400
   4672   4675   4676     1   109.5600471 388.275200
   4672   4675   4677     1   109.5600471 388.275200
   4673   4672   4675     1   109.8000471 387.438400
   4673   4672   4674     1   107.5800459 329.699200
   4674   4672   4675     1   109.8000471 387.438400
   4676   4675   4678     1   109.8800469 414.216000
   4676   4675   4677     1   108.4600466 328.025600
   4677   4675   4678     1   109.8800469 414.216000
   4678   4679   4680     1   109.8800469 414.216000
   4678   4679   4681     1   109.8800469 414.216000
   4678   4688   4689     1   109.8800469 414.216000
   4678   4688   4690     1   109.8800469 414.216000
   4679   4682   4683     1   109.8000471 387.438400
   4679   4682   4684     1   109.8000471 387.438400
   4680   4679   4682     1   109.5600471 388.275200
   4680   4679   4681     1   108.4600466 328.025600
   4681   4679   4682     1   109.5600471 388.275200
   4683   4682   4685     1   108.7700466 392.459200
   4683   4682   4684     1   107.5800459 329.699200
   4684   4682   4685     1   108.7700466 392.459200
   4688   4691   4692     1   109.8000471 387.438400
   4688   4691   4693     1   109.8000471 387.438400
   4689   4688   4691     1   109.5600471 388.275200
   4689   4688   4690     1   108.4600466 328.025600
   4690   4688   4691     1   109.5600471 388.275200
   4692   4691   4694     1   108.7700466 392.459200
   4692   4691   4693     1   107.5800459 329.699200
   4693   4691   4694     1   108.7700466 392.459200
   4698   4701   4702     1   109.8000471 387.438400
   4698   4701   4703     1   109.8000471 387.438400
   4699   4698   4701     1   109.5600471 388.275200
   4699   4698   4726     1   109.7800468 425.094400
   4699   4698   4700     1   108.4600466 328.025600
   4700   4698   4701     1   109.5600471 388.275200
   4700   4698   4726     1   109.7800468 425.094400
   4701   4704   4705     1   109.5600471 388.275200
   4701   4704   4706     1   109.5600471 388.275200
   4702   4701   4704     1   109.8000471 387.438400
   4702   4701   4703     1   107.5800459 329.699200
   4703   4701   4704     1   109.8000471 387.438400
   4705   4704   4707     1   109.8800469 414.216000
   4705   4704   4706     1   108.4600466 328.025600
   4706   4704   4707     1   109.8800469 414.216000
   4707   4708   4709     1   109.8800469 414.216000
   4707   4708   4710     1   109.8800469 414.216000
   4707   4717   4718     1   109.8800469 414.216000
   4707   4717   4719     1   109.8800469 414.216000
   4708   4711   4712     1   109.8000471 387.438400
   4708   4711   4713     1   109.8000471 387.438400
   4709   4708   4711     1   109.5600471 388.275200
   4709   4708   4710     1   108.4600466 328.025600
   4710   4708   4711     1   109.5600471 388.275200
   4712   4711   4714     1   108.7700466 392.459200
   4712   4711   4713     1   107.5800459 329.699200
   4713   4711   4714     1   108.7700466 392.459200
   4717   4720   4721     1   109.8000471 387.438400
   4717   4720   4722     1   109.8000471 387.438400
   4718   4717   4720     1   109.5600471 388.275200
   4718   4717   4719     1   108.4600466 328.025600
   4719   4717   4720     1   109.5600471 388.275200
   4721   4720   4723     1   108.7700466 392.459200
   4721   4720   4722     1   107.5800459 329.699200
   4722   4720   4723     1   108.7700466 392.459200
   4727   4730   4731     1   109.8000471 387.438400
   4727   4730   4732     1   109.8000471 387.438400
   4728   4727   4730     1   109.5600471 388.275200
   4728   4727   4755     1   109.7800468 425.094400
   4728   4727   4729     1   108.4600466 328.025600
   4729   4727   4730     1   109.5600471 388.275200
   4729   4727   4755     1   109.7800468 425.094400
   4730   4733   4734     1   109.5600471 388.275200
   4730   4733   4735     1   109.5600471 388.275200
   4731   4730   4733     1   109.8000471 387.438400
   4731   4730   4732     1   107.5800459 329.699200
   4732   4730   4733     1   109.8000471 387.438400
   4734   4733   4736     1   109.8800469 414.216000
   4734   4733   4735     1   108.4600466 328.025600
   4735   4733   4736     1   109.8800469 414.216000
   4736   4737   4738     1   109.8800469 414.216000
   4736   4737   4739     1   109.8800469 414.216000
   4736   4746   4747     1   109.8800469 414.216000
   4736   4746   4748     1   109.8800469 414.216000
   4737   4740   4741     1   109.8000471 387.438400
   4737   4740   4742     1   109.8000471 387.438400
   4738   4737   4740     1   109.5600471 388.275200
   4738   4737   4739     1   108.4600466 328.025600
   4739   4737   4740     1   109.5600471 388.275200
   4741   4740   4743     1   108.7700466 392.459200
   4741   4740   4742     1   107.5800459 329.699200
   4742   4740   4743     1   108.7700466 392.459200
   4746   4749   4750     1   109.8000471 387.438400
   4746   4749   4751     1   109.8000471 387.438400
   4747   4746   4749     1   109.5600471 388.275200
   4747   4746   4748     1   108.4600466 328.025600
   4748   4746   4749     1   109.5600471 388.275200
   4750   4749   4752     1   108.7700466 392.459200
   4750   4749   4751     1   107.5800459 329.699200
   4751   4749   4752     1   108.7700466 392.459200
   4756   4759   4760     1   109.8000471 387.438400
   4756   4759   4761     1   109.8000471 387.438400
   4757   4756   4759     1   109.5600471 388.275200
   4757   4756   4784     1   109.7800468 425.094400
   4757   4756   4758     1   108.4600466 328.025600
   4758   4756   4759     1   109.5600471 388.275200
   4758   4756   4784     1   109.7800468 425.094400
   4759   4762   4763     1   109.5600471 388.275200
   4759   4762   4764     1   109.5600471 388.275200
   4760   4759   4762     1   109.8000471 387.438400
   4760   4759   4761     1   107.5800459 329.699200
   4761   4759   4762     1   109.8000471 387.438400
   4763   4762   4765     1   109.8800469 414.216000
   4763   4762   4764     1   108.4600466 328.025600
   4764   4762   4765     1   109.8800469 414.216000
   4765   4766   4767     1   109.8800469 414.216000
   4765   4766   4768     1   109.8800469 414.216000
   4765   4775   4776     1   109.8800469 414.216000
   4765   4775   4777     1   109.8800469 414.216000
   4766   4769   4770     1   109.8000471 387.438400
   4766   4769   4771     1   109.8000471 387.438400
   4767   4766   4769     1   109.5600471 388.275200
   4767   4766   4768     1   108.4600466 328.025600
   4768   4766   4769     1   109.5600471 388.275200
   4770   4769   4772     1   108.7700466 392.459200
   4770   4769   4771     1   107.5800459 329.699200
   4771   4769   4772     1   108.7700466 392.459200
   4775   4778   4779     1   109.8000471 387.438400
   4775   4778   4780     1   109.8000471 387.438400
   4776   4775   4778     1   109.5600471 388.275200
   4776   4775   4777     1   108.4600466 328.025600
   4777   4775   4778     1   109.5600471 388.275200
   4779   4778   4781     1   108.7700466 392.459200
   4779   4778   4780     1   107.5800459 329.699200
   4780   4778   4781     1   108.7700466 392.459200
   4785   4788   4789     1   109.8000471 387.438400
   4785   4788   4790     1   109.8000471 387.438400
   4786   4785   4788     1   109.5600471 388.275200
   4786   4785   4813     1   109.7800468 425.094400
   4786   4785   4787     1   108.4600466 328.025600
   4787   4785   4788     1   109.5600471 388.275200
   4787   4785   4813     1   109.7800468 425.094400
   4788   4791   4792     1   109.5600471 388.275200
   4788   4791   4793     1   109.5600471 388.275200
   4789   4788   4791     1   109.8000471 387.438400
   4789   4788   4790     1   107.5800459 329.699200
   4790   4788   4791     1   109.8000471 387.438400
   4792   4791   4794     1   109.8800469 414.216000
   4792   4791   4793     1   108.4600466 328.025600
   4793   4791   4794     1   109.8800469 414.216000
   4794   4795   4796     1   109.8800469 414.216000
   4794   4795   4797     1   109.8800469 414.216000
   4794   4804   4805     1   109.8800469 414.216000
   4794   4804   4806     1   109.8800469 414.216000
   4795   4798   4799     1   109.8000471 387.438400
   4795   4798   4800     1   109.8000471 387.438400
   4796   4795   4798     1   109.5600471 388.275200
   4796   4795   4797     1   108.4600466 328.025600
   4797   4795   4798     1   109.5600471 388.275200
   4799   4798   4801     1   108.7700466 392.459200
   4799   4798   4800     1   107.5800459 329.699200
   4800   4798   4801     1   108.7700466 392.459200
   4804   4807   4808     1   109.8000471 387.438400
   4804   4807   4809     1   109.8000471 387.438400
   4805   4804   4807     1   109.5600471 388.275200
   4805   4804   4806     1   108.4600466 328.025600
   4806   4804   4807     1   109.5600471 388.275200
   4808   4807   4810     1   108.7700466 392.459200
   4808   4807   4809     1   107.5800459 329.699200
   4809   4807   4810     1   108.7700466 392.459200
   4814   4817   4818     1   109.8000471 387.438400
   4814   4817   4819     1   109.8000471 387.438400
   4815   4814   4817     1   109.5600471 388.275200
   4815   4814   4842     1   109.7800468 425.094400
   4815   4814   4816     1   108.4600466 328.025600
   4816   4814   4817     1   109.5600471 388.275200
   4816   4814   4842     1   109.7800468 425.094400
   4817   4820   4821     1   109.5600471 388.275200
   4817   4820   4822     1   109.5600471 388.275200
   4818   4817   4820     1   109.8000471 387.438400
   4818   4817   4819     1   107.5800459 329.699200
   4819   4817   4820     1   109.8000471 387.438400
   4821   4820   4823     1   109.8800469 414.216000
   4821   4820   4822     1   108.4600466 328.025600
   4822   4820   4823     1   109.8800469 414.216000
   4823   4824   4825     1   109.8800469 414.216000
   4823   4824   4826     1   109.8800469 414.216000
   4823   4833   4834     1   109.8800469 414.216000
   4823   4833   4835     1   109.8800469 414.216000
   4824   4827   4828     1   109.8000471 387.438400
   4824   4827   4829     1   109.8000471 387.438400
   4825   4824   4827     1   109.5600471 388.275200
   4825   4824   4826     1   108.4600466 328.025600
   4826   4824   4827     1   109.5600471 388.275200
   4828   4827   4830     1   108.7700466 392.459200
   4828   4827   4829     1   107.5800459 329.699200
   4829   4827   4830     1   108.7700466 392.459200
   4833   4836   4837     1   109.8000471 387.438400
   4833   4836   4838     1   109.8000471 387.438400
   4834   4833   4836     1   109.5600471 388.275200
   4834   4833   4835     1   108.4600466 328.025600
   4835   4833   4836     1   109.5600471 388.275200
   4837   4836   4839     1   108.7700466 392.459200
   4837   4836   4838     1   107.5800459 329.699200
   4838   4836   4839     1   108.7700466 392.459200
   4843   4846   4847     1   109.8000471 387.438400
   4843   4846   4848     1   109.8000471 387.438400
   4844   4843   4846     1   109.5600471 388.275200
   4844   4843   4871     1   109.7800468 425.094400
   4844   4843   4845     1   108.4600466 328.025600
   4845   4843   4846     1   109.5600471 388.275200
   4845   4843   4871     1   109.7800468 425.094400
   4846   4849   4850     1   109.5600471 388.275200
   4846   4849   4851     1   109.5600471 388.275200
   4847   4846   4849     1   109.8000471 387.438400
   4847   4846   4848     1   107.5800459 329.699200
   4848   4846   4849     1   109.8000471 387.438400
   4850   4849   4852     1   109.8800469 414.216000
   4850   4849   4851     1   108.4600466 328.025600
   4851   4849   4852     1   109.8800469 414.216000
   4852   4853   4854     1   109.8800469 414.216000
   4852   4853   4855     1   109.8800469 414.216000
   4852   4862   4863     1   109.8800469 414.216000
   4852   4862   4864     1   109.8800469 414.216000
   4853   4856   4857     1   109.8000471 387.438400
   4853   4856   4858     1   109.8000471 387.438400
   4854   4853   4856     1   109.5600471 388.275200
   4854   4853   4855     1   108.4600466 328.025600
   4855   4853   4856     1   109.5600471 388.275200
   4857   4856   4859     1   108.7700466 392.459200
   4857   4856   4858     1   107.5800459 329.699200
   4858   4856   4859     1   108.7700466 392.459200
   4862   4865   4866     1   109.8000471 387.438400
   4862   4865   4867     1   109.8000471 387.438400
   4863   4862   4865     1   109.5600471 388.275200
   4863   4862   4864     1   108.4600466 328.025600
   4864   4862   4865     1   109.5600471 388.275200
   4866   4865   4868     1   108.7700466 392.459200
   4866   4865   4867     1   107.5800459 329.699200
   4867   4865   4868     1   108.7700466 392.459200
   4872   4875   4876     1   109.8000471 387.438400
   4872   4875   4877     1   109.8000471 387.438400
   4873   4872   4875     1   109.5600471 388.275200
   4873   4872   4900     1   109.7800468 425.094400
   4873   4872   4874     1   108.4600466 328.025600
   4874   4872   4875     1   109.5600471 388.275200
   4874   4872   4900     1   109.7800468 425.094400
   4875   4878   4879     1   109.5600471 388.275200
   4875   4878   4880     1   109.5600471 388.275200
   4876   4875   4878     1   109.8000471 387.438400
   4876   4875   4877     1   107.5800459 329.699200
   4877   4875   4878     1   109.8000471 387.438400
   4879   4878   4881     1   109.8800469 414.216000
   4879   4878   4880     1   108.4600466 328.025600
   4880   4878   4881     1   109.8800469 414.216000
   4881   4882   4883     1   109.8800469 414.216000
   4881   4882   4884     1   109.8800469 414.216000
   4881   4891   4892     1   109.8800469 414.216000
   4881   4891   4893     1   109.8800469 414.216000
   4882   4885   4886     1   109.8000471 387.438400
   4882   4885   4887     1   109.8000471 387.438400
   4883   4882   4885     1   109.5600471 388.275200
   4883   4882   4884     1   108.4600466 328.025600
   4884   4882   4885     1   109.5600471 388.275200
   4886   4885   4888     1   108.7700466 392.459200
   4886   4885   4887     1   107.5800459 329.699200
   4887   4885   4888     1   108.7700466 392.459200
   4891   4894   4895     1   109.8000471 387.438400
   4891   4894   4896     1   109.8000471 387.438400
   4892   4891   4894     1   109.5600471 388.275200
   4892   4891   4893     1   108.4600466 328.025600
   4893   4891   4894     1   109.5600471 388.275200
   4895   4894   4897     1   108.7700466 392.459200
   4895   4894   4896     1   107.5800459 329.699200
   4896   4894   4897     1   108.7700466 392.459200
   4901   4904   4905     1   109.8000471 387.438400
   4901   4904   4906     1   109.8000471 387.438400
   4902   4901   4904     1   109.5600471 388.275200
   4902   4901   4929     1   109.7800468 425.094400
   4902   4901   4903     1   108.4600466 328.025600
   4903   4901   4904     1   109.5600471 388.275200
   4903   4901   4929     1   109.7800468 425.094400
   4904   4907   4908     1   109.5600471 388.275200
   4904   4907   4909     1   109.5600471 388.275200
   4905   4904   4907     1   109.8000471 387.438400
   4905   4904   4906     1   107.5800459 329.699200
   4906   4904   4907     1   109.8000471 387.438400
   4908   4907   4910     1   109.8800469 414.216000
   4908   4907   4909     1   108.4600466 328.025600
   4909   4907   4910     1   109.8800469 414.216000
   4910   4911   4912     1   109.8800469 414.216000
   4910   4911   4913     1   109.8800469 414.216000
   4910   4920   4921     1   109.8800469 414.216000
   4910   4920   4922     1   109.8800469 414.216000
   4911   4914   4915     1   109.8000471 387.438400
   4911   4914   4916     1   109.8000471 387.438400
   4912   4911   4914     1   109.5600471 388.275200
   4912   4911   4913     1   108.4600466 328.025600
   4913   4911   4914     1   109.5600471 388.275200
   4915   4914   4917     1   108.7700466 392.459200
   4915   4914   4916     1   107.5800459 329.699200
   4916   4914   4917     1   108.7700466 392.459200
   4920   4923   4924     1   109.8000471 387.438400
   4920   4923   4925     1   109.8000471 387.438400
   4921   4920   4923     1   109.5600471 388.275200
   4921   4920   4922     1   108.4600466 328.025600
   4922   4920   4923     1   109.5600471 388.275200
   4924   4923   4926     1   108.7700466 392.459200
   4924   4923   4925     1   107.5800459 329.699200
   4925   4923   4926     1   108.7700466 392.459200
   4930   4933   4934     1   109.8000471 387.438400
   4930   4933   4935     1   109.8000471 387.438400
   4931   4930   4933     1   109.5600471 388.275200
   4931   4930   4958     1   109.7800468 425.094400
   4931   4930   4932     1   108.4600466 328.025600
   4932   4930   4933     1   109.5600471 388.275200
   4932   4930   4958     1   109.7800468 425.094400
   4933   4936   4937     1   109.5600471 388.275200
   4933   4936   4938     1   109.5600471 388.275200
   4934   4933   4936     1   109.8000471 387.438400
   4934   4933   4935     1   107.5800459 329.699200
   4935   4933   4936     1   109.8000471 387.438400
   4937   4936   4939     1   109.8800469 414.216000
   4937   4936   4938     1   108.4600466 328.025600
   4938   4936   4939     1   109.8800469 414.216000
   4939   4940   4941     1   109.8800469 414.216000
   4939   4940   4942     1   109.8800469 414.216000
   4939   4949   4950     1   109.8800469 414.216000
   4939   4949   4951     1   109.8800469 414.216000
   4940   4943   4944     1   109.8000471 387.438400
   4940   4943   4945     1   109.8000471 387.438400
   4941   4940   4943     1   109.5600471 388.275200
   4941   4940   4942     1   108.4600466 328.025600
   4942   4940   4943     1   109.5600471 388.275200
   4944   4943   4946     1   108.7700466 392.459200
   4944   4943   4945     1   107.5800459 329.699200
   4945   4943   4946     1   108.7700466 392.459200
   4949   4952   4953     1   109.8000471 387.438400
   4949   4952   4954     1   109.8000471 387.438400
   4950   4949   4952     1   109.5600471 388.275200
   4950   4949   4951     1   108.4600466 328.025600
   4951   4949   4952     1   109.5600471 388.275200
   4953   4952   4955     1   108.7700466 392.459200
   4953   4952   4954     1   107.5800459 329.699200
   4954   4952   4955     1   108.7700466 392.459200
   4959   4962   4963     1   109.8000471 387.438400
   4959   4962   4964     1   109.8000471 387.438400
   4960   4959   4962     1   109.5600471 388.275200
   4960   4959   4987     1   109.7800468 425.094400
   4960   4959   4961     1   108.4600466 328.025600
   4961   4959   4962     1   109.5600471 388.275200
   4961   4959   4987     1   109.7800468 425.094400
   4962   4965   4966     1   109.5600471 388.275200
   4962   4965   4967     1   109.5600471 388.275200
   4963   4962   4965     1   109.8000471 387.438400
   4963   4962   4964     1   107.5800459 329.699200
   4964   4962   4965     1   109.8000471 387.438400
   4966   4965   4968     1   109.8800469 414.216000
   4966   4965   4967     1   108.4600466 328.025600
   4967   4965   4968     1   109.8800469 414.216000
   4968   4969   4970     1   109.8800469 414.216000
   4968   4969   4971     1   109.8800469 414.216000
   4968   4978   4979     1   109.8800469 414.216000
   4968   4978   4980     1   109.8800469 414.216000
   4969   4972   4973     1   109.8000471 387.438400
   4969   4972   4974     1   109.8000471 387.438400
   4970   4969   4972     1   109.5600471 388.275200
   4970   4969   4971     1   108.4600466 328.025600
   4971   4969   4972     1   109.5600471 388.275200
   4973   4972   4975     1   108.7700466 392.459200
   4973   4972   4974     1   107.5800459 329.699200
   4974   4972   4975     1   108.7700466 392.459200
   4978   4981   4982     1   109.8000471 387.438400
   4978   4981   4983     1   109.8000471 387.438400
   4979   4978   4981     1   109.5600471 388.275200
   4979   4978   4980     1   108.4600466 328.025600
   4980   4978   4981     1   109.5600471 388.275200
   4982   4981   4984     1   108.7700466 392.459200
   4982   4981   4983     1   107.5800459 329.699200
   4983   4981   4984     1   108.7700466 392.459200
   4988   4991   4992     1   109.8000471 387.438400
   4988   4991   4993     1   109.8000471 387.438400
   4989   4988   4991     1   109.5600471 388.275200
   4989   4988   5016     1   109.7800468 425.094400
   4989   4988   4990     1   108.4600466 328.025600
   4990   4988   4991     1   109.5600471 388.275200
   4990   4988   5016     1   109.7800468 425.094400
   4991   4994   4995     1   109.5600471 388.275200
   4991   4994   4996     1   109.5600471 388.275200
   4992   4991   4994     1   109.8000471 387.438400
   4992   4991   4993     1   107.5800459 329.699200
   4993   4991   4994     1   109.8000471 387.438400
   4995   4994   4997     1   109.8800469 414.216000
   4995   4994   4996     1   108.4600466 328.025600
   4996   4994   4997     1   109.8800469 414.216000
   4997   4998   4999     1   109.8800469 414.216000
   4997   4998   5000     1   109.8800469 414.216000
   4997   5007   5008     1   109.8800469 414.216000
   4997   5007   5009     1   109.8800469 414.216000
   4998   5001   5002     1   109.8000471 387.438400
   4998   5001   5003     1   109.8000471 387.438400
   4999   4998   5001     1   109.5600471 388.275200
   4999   4998   5000     1   108.4600466 328.025600
   5000   4998   5001     1   109.5600471 388.275200
   5002   5001   5004     1   108.7700466 392.459200
   5002   5001   5003     1   107.5800459 329.699200
   5003   5001   5004     1   108.7700466 392.459200
   5007   5010   5011     1   109.8000471 387.438400
   5007   5010   5012     1   109.8000471 387.438400
   5008   5007   5010     1   109.5600471 388.275200
   5008   5007   5009     1   108.4600466 328.025600
   5009   5007   5010     1   109.5600471 388.275200
   5011   5010   5013     1   108.7700466 392.459200
   5011   5010   5012     1   107.5800459 329.699200
   5012   5010   5013     1   108.7700466 392.459200
   5017   5020   5021     1   109.8000471 387.438400
   5017   5020   5022     1   109.8000471 387.438400
   5018   5017   5020     1   109.5600471 388.275200
   5018   5017   5045     1   109.7800468 425.094400
   5018   5017   5019     1   108.4600466 328.025600
   5019   5017   5020     1   109.5600471 388.275200
   5019   5017   5045     1   109.7800468 425.094400
   5020   5023   5024     1   109.5600471 388.275200
   5020   5023   5025     1   109.5600471 388.275200
   5021   5020   5023     1   109.8000471 387.438400
   5021   5020   5022     1   107.5800459 329.699200
   5022   5020   5023     1   109.8000471 387.438400
   5024   5023   5026     1   109.8800469 414.216000
   5024   5023   5025     1   108.4600466 328.025600
   5025   5023   5026     1   109.8800469 414.216000
   5026   5027   5028     1   109.8800469 414.216000
   5026   5027   5029     1   109.8800469 414.216000
   5026   5036   5037     1   109.8800469 414.216000
   5026   5036   5038     1   109.8800469 414.216000
   5027   5030   5031     1   109.8000471 387.438400
   5027   5030   5032     1   109.8000471 387.438400
   5028   5027   5030     1   109.5600471 388.275200
   5028   5027   5029     1   108.4600466 328.025600
   5029   5027   5030     1   109.5600471 388.275200
   5031   5030   5033     1   108.7700466 392.459200
   5031   5030   5032     1   107.5800459 329.699200
   5032   5030   5033     1   108.7700466 392.459200
   5036   5039   5040     1   109.8000471 387.438400
   5036   5039   5041     1   109.8000471 387.438400
   5037   5036   5039     1   109.5600471 388.275200
   5037   5036   5038     1   108.4600466 328.025600
   5038   5036   5039     1   109.5600471 388.275200
   5040   5039   5042     1   108.7700466 392.459200
   5040   5039   5041     1   107.5800459 329.699200
   5041   5039   5042     1   108.7700466 392.459200
   5046   5049   5050     1   109.8000471 387.438400
   5046   5049   5051     1   109.8000471 387.438400
   5047   5046   5049     1   109.5600471 388.275200
   5047   5046   5074     1   109.7800468 425.094400
   5047   5046   5048     1   108.4600466 328.025600
   5048   5046   5049     1   109.5600471 388.275200
   5048   5046   5074     1   109.7800468 425.094400
   5049   5052   5053     1   109.5600471 388.275200
   5049   5052   5054     1   109.5600471 388.275200
   5050   5049   5052     1   109.8000471 387.438400
   5050   5049   5051     1   107.5800459 329.699200
   5051   5049   5052     1   109.8000471 387.438400
   5053   5052   5055     1   109.8800469 414.216000
   5053   5052   5054     1   108.4600466 328.025600
   5054   5052   5055     1   109.8800469 414.216000
   5055   5056   5057     1   109.8800469 414.216000
   5055   5056   5058     1   109.8800469 414.216000
   5055   5065   5066     1   109.8800469 414.216000
   5055   5065   5067     1   109.8800469 414.216000
   5056   5059   5060     1   109.8000471 387.438400
   5056   5059   5061     1   109.8000471 387.438400
   5057   5056   5059     1   109.5600471 388.275200
   5057   5056   5058     1   108.4600466 328.025600
   5058   5056   5059     1   109.5600471 388.275200
   5060   5059   5062     1   108.7700466 392.459200
   5060   5059   5061     1   107.5800459 329.699200
   5061   5059   5062     1   108.7700466 392.459200
   5065   5068   5069     1   109.8000471 387.438400
   5065   5068   5070     1   109.8000471 387.438400
   5066   5065   5068     1   109.5600471 388.275200
   5066   5065   5067     1   108.4600466 328.025600
   5067   5065   5068     1   109.5600471 388.275200
   5069   5068   5071     1   108.7700466 392.459200
   5069   5068   5070     1   107.5800459 329.699200
   5070   5068   5071     1   108.7700466 392.459200
   5075   5078   5079     1   109.8000471 387.438400
   5075   5078   5080     1   109.8000471 387.438400
   5076   5075   5078     1   109.5600471 388.275200
   5076   5075   5103     1   109.7800468 425.094400
   5076   5075   5077     1   108.4600466 328.025600
   5077   5075   5078     1   109.5600471 388.275200
   5077   5075   5103     1   109.7800468 425.094400
   5078   5081   5082     1   109.5600471 388.275200
   5078   5081   5083     1   109.5600471 388.275200
   5079   5078   5081     1   109.8000471 387.438400
   5079   5078   5080     1   107.5800459 329.699200
   5080   5078   5081     1   109.8000471 387.438400
   5082   5081   5084     1   109.8800469 414.216000
   5082   5081   5083     1   108.4600466 328.025600
   5083   5081   5084     1   109.8800469 414.216000
   5084   5085   5086     1   109.8800469 414.216000
   5084   5085   5087     1   109.8800469 414.216000
   5084   5094   5095     1   109.8800469 414.216000
   5084   5094   5096     1   109.8800469 414.216000
   5085   5088   5089     1   109.8000471 387.438400
   5085   5088   5090     1   109.8000471 387.438400
   5086   5085   5088     1   109.5600471 388.275200
   5086   5085   5087     1   108.4600466 328.025600
   5087   5085   5088     1   109.5600471 388.275200
   5089   5088   5091     1   108.7700466 392.459200
   5089   5088   5090     1   107.5800459 329.699200
   5090   5088   5091     1   108.7700466 392.459200
   5094   5097   5098     1   109.8000471 387.438400
   5094   5097   5099     1   109.8000471 387.438400
   5095   5094   5097     1   109.5600471 388.275200
   5095   5094   5096     1   108.4600466 328.025600
   5096   5094   5097     1   109.5600471 388.275200
   5098   5097   5100     1   108.7700466 392.459200
   5098   5097   5099     1   107.5800459 329.699200
   5099   5097   5100     1   108.7700466 392.459200
   5104   5107   5108     1   109.8000471 387.438400
   5104   5107   5109     1   109.8000471 387.438400
   5105   5104   5107     1   109.5600471 388.275200
   5105   5104   5132     1   109.7800468 425.094400
   5105   5104   5106     1   108.4600466 328.025600
   5106   5104   5107     1   109.5600471 388.275200
   5106   5104   5132     1   109.7800468 425.094400
   5107   5110   5111     1   109.5600471 388.275200
   5107   5110   5112     1   109.5600471 388.275200
   5108   5107   5110     1   109.8000471 387.438400
   5108   5107   5109     1   107.5800459 329.699200
   5109   5107   5110     1   109.8000471 387.438400
   5111   5110   5113     1   109.8800469 414.216000
   5111   5110   5112     1   108.4600466 328.025600
   5112   5110   5113     1   109.8800469 414.216000
   5113   5114   5115     1   109.8800469 414.216000
   5113   5114   5116     1   109.8800469 414.216000
   5113   5123   5124     1   109.8800469 414.216000
   5113   5123   5125     1   109.8800469 414.216000
   5114   5117   5118     1   109.8000471 387.438400
   5114   5117   5119     1   109.8000471 387.438400
   5115   5114   5117     1   109.5600471 388.275200
   5115   5114   5116     1   108.4600466 328.025600
   5116   5114   5117     1   109.5600471 388.275200
   5118   5117   5120     1   108.7700466 392.459200
   5118   5117   5119     1   107.5800459 329.699200
   5119   5117   5120     1   108.7700466 392.459200
   5123   5126   5127     1   109.8000471 387.438400
   5123   5126   5128     1   109.8000471 387.438400
   5124   5123   5126     1   109.5600471 388.275200
   5124   5123   5125     1   108.4600466 328.025600
   5125   5123   5126     1   109.5600471 388.275200
   5127   5126   5129     1   108.7700466 392.459200
   5127   5126   5128     1   107.5800459 329.699200
   5128   5126   5129     1   108.7700466 392.459200
   5133   5136   5137     1   109.8000471 387.438400
   5133   5136   5138     1   109.8000471 387.438400
   5134   5133   5136     1   109.5600471 388.275200
   5134   5133   5161     1   109.7800468 425.094400
   5134   5133   5135     1   108.4600466 328.025600
   5135   5133   5136     1   109.5600471 388.275200
   5135   5133   5161     1   109.7800468 425.094400
   5136   5139   5140     1   109.5600471 388.275200
   5136   5139   5141     1   109.5600471 388.275200
   5137   5136   5139     1   109.8000471 387.438400
   5137   5136   5138     1   107.5800459 329.699200
   5138   5136   5139     1   109.8000471 387.438400
   5140   5139   5142     1   109.8800469 414.216000
   5140   5139   5141     1   108.4600466 328.025600
   5141   5139   5142     1   109.8800469 414.216000
   5142   5143   5144     1   109.8800469 414.216000
   5142   5143   5145     1   109.8800469 414.216000
   5142   5152   5153     1   109.8800469 414.216000
   5142   5152   5154     1   109.8800469 414.216000
   5143   5146   5147     1   109.8000471 387.438400
   5143   5146   5148     1   109.8000471 387.438400
   5144   5143   5146     1   109.5600471 388.275200
   5144   5143   5145     1   108.4600466 328.025600
   5145   5143   5146     1   109.5600471 388.275200
   5147   5146   5149     1   108.7700466 392.459200
   5147   5146   5148     1   107.5800459 329.699200
   5148   5146   5149     1   108.7700466 392.459200
   5152   5155   5156     1   109.8000471 387.438400
   5152   5155   5157     1   109.8000471 387.438400
   5153   5152   5155     1   109.5600471 388.275200
   5153   5152   5154     1   108.4600466 328.025600
   5154   5152   5155     1   109.5600471 388.275200
   5156   5155   5158     1   108.7700466 392.459200
   5156   5155   5157     1   107.5800459 329.699200
   5157   5155   5158     1   108.7700466 392.459200
   5162   5165   5166     1   109.8000471 387.438400
   5162   5165   5167     1   109.8000471 387.438400
   5163   5162   5165     1   109.5600471 388.275200
   5163   5162   5190     1   109.7800468 425.094400
   5163   5162   5164     1   108.4600466 328.025600
   5164   5162   5165     1   109.5600471 388.275200
   5164   5162   5190     1   109.7800468 425.094400
   5165   5168   5169     1   109.5600471 388.275200
   5165   5168   5170     1   109.5600471 388.275200
   5166   5165   5168     1   109.8000471 387.438400
   5166   5165   5167     1   107.5800459 329.699200
   5167   5165   5168     1   109.8000471 387.438400
   5169   5168   5171     1   109.8800469 414.216000
   5169   5168   5170     1   108.4600466 328.025600
   5170   5168   5171     1   109.8800469 414.216000
   5171   5172   5173     1   109.8800469 414.216000
   5171   5172   5174     1   109.8800469 414.216000
   5171   5181   5182     1   109.8800469 414.216000
   5171   5181   5183     1   109.8800469 414.216000
   5172   5175   5176     1   109.8000471 387.438400
   5172   5175   5177     1   109.8000471 387.438400
   5173   5172   5175     1   109.5600471 388.275200
   5173   5172   5174     1   108.4600466 328.025600
   5174   5172   5175     1   109.5600471 388.275200
   5176   5175   5178     1   108.7700466 392.459200
   5176   5175   5177     1   107.5800459 329.699200
   5177   5175   5178     1   108.7700466 392.459200
   5181   5184   5185     1   109.8000471 387.438400
   5181   5184   5186     1   109.8000471 387.438400
   5182   5181   5184     1   109.5600471 388.275200
   5182   5181   5183     1   108.4600466 328.025600
   5183   5181   5184     1   109.5600471 388.275200
   5185   5184   5187     1   108.7700466 392.459200
   5185   5184   5186     1   107.5800459 329.699200
   5186   5184   5187     1   108.7700466 392.459200
   5191   5194   5195     1   109.8000471 387.438400
   5191   5194   5196     1   109.8000471 387.438400
   5192   5191   5194     1   109.5600471 388.275200
   5192   5191   5219     1   109.7800468 425.094400
   5192   5191   5193     1   108.4600466 328.025600
   5193   5191   5194     1   109.5600471 388.275200
   5193   5191   5219     1   109.7800468 425.094400
   5194   5197   5198     1   109.5600471 388.275200
   5194   5197   5199     1   109.5600471 388.275200
   5195   5194   5197     1   109.8000471 387.438400
   5195   5194   5196     1   107.5800459 329.699200
   5196   5194   5197     1   109.8000471 387.438400
   5198   5197   5200     1   109.8800469 414.216000
   5198   5197   5199     1   108.4600466 328.025600
   5199   5197   5200     1   109.8800469 414.216000
   5200   5201   5202     1   109.8800469 414.216000
   5200   5201   5203     1   109.8800469 414.216000
   5200   5210   5211     1   109.8800469 414.216000
   5200   5210   5212     1   109.8800469 414.216000
   5201   5204   5205     1   109.8000471 387.438400
   5201   5204   5206     1   109.8000471 387.438400
   5202   5201   5204     1   109.5600471 388.275200
   5202   5201   5203     1   108.4600466 328.025600
   5203   5201   5204     1   109.5600471 388.275200
   5205   5204   5207     1   108.7700466 392.459200
   5205   5204   5206     1   107.5800459 329.699200
   5206   5204   5207     1   108.7700466 392.459200
   5210   5213   5214     1   109.8000471 387.438400
   5210   5213   5215     1   109.8000471 387.438400
   5211   5210   5213     1   109.5600471 388.275200
   5211   5210   5212     1   108.4600466 328.025600
   5212   5210   5213     1   109.5600471 388.275200
   5214   5213   5216     1   108.7700466 392.459200
   5214   5213   5215     1   107.5800459 329.699200
   5215   5213   5216     1   108.7700466 392.459200
   5220   5223   5224     1   109.8000471 387.438400
   5220   5223   5225     1   109.8000471 387.438400
   5221   5220   5223     1   109.5600471 388.275200
   5221   5220   5248     1   109.7800468 425.094400
   5221   5220   5222     1   108.4600466 328.025600
   5222   5220   5223     1   109.5600471 388.275200
   5222   5220   5248     1   109.7800468 425.094400
   5223   5226   5227     1   109.5600471 388.275200
   5223   5226   5228     1   109.5600471 388.275200
   5224   5223   5226     1   109.8000471 387.438400
   5224   5223   5225     1   107.5800459 329.699200
   5225   5223   5226     1   109.8000471 387.438400
   5227   5226   5229     1   109.8800469 414.216000
   5227   5226   5228     1   108.4600466 328.025600
   5228   5226   5229     1   109.8800469 414.216000
   5229   5230   5231     1   109.8800469 414.216000
   5229   5230   5232     1   109.8800469 414.216000
   5229   5239   5240     1   109.8800469 414.216000
   5229   5239   5241     1   109.8800469 414.216000
   5230   5233   5234     1   109.8000471 387.438400
   5230   5233   5235     1   109.8000471 387.438400
   5231   5230   5233     1   109.5600471 388.275200
   5231   5230   5232     1   108.4600466 328.025600
   5232   5230   5233     1   109.5600471 388.275200
   5234   5233   5236     1   108.7700466 392.459200
   5234   5233   5235     1   107.5800459 329.699200
   5235   5233   5236     1   108.7700466 392.459200
   5239   5242   5243     1   109.8000471 387.438400
   5239   5242   5244     1   109.8000471 387.438400
   5240   5239   5242     1   109.5600471 388.275200
   5240   5239   5241     1   108.4600466 328.025600
   5241   5239   5242     1   109.5600471 388.275200
   5243   5242   5245     1   108.7700466 392.459200
   5243   5242   5244     1   107.5800459 329.699200
   5244   5242   5245     1   108.7700466 392.459200
   5249   5252   5253     1   109.8000471 387.438400
   5249   5252   5254     1   109.8000471 387.438400
   5250   5249   5252     1   109.5600471 388.275200
   5250   5249   5277     1   109.7800468 425.094400
   5250   5249   5251     1   108.4600466 328.025600
   5251   5249   5252     1   109.5600471 388.275200
   5251   5249   5277     1   109.7800468 425.094400
   5252   5255   5256     1   109.5600471 388.275200
   5252   5255   5257     1   109.5600471 388.275200
   5253   5252   5255     1   109.8000471 387.438400
   5253   5252   5254     1   107.5800459 329.699200
   5254   5252   5255     1   109.8000471 387.438400
   5256   5255   5258     1   109.8800469 414.216000
   5256   5255   5257     1   108.4600466 328.025600
   5257   5255   5258     1   109.8800469 414.216000
   5258   5259   5260     1   109.8800469 414.216000
   5258   5259   5261     1   109.8800469 414.216000
   5258   5268   5269     1   109.8800469 414.216000
   5258   5268   5270     1   109.8800469 414.216000
   5259   5262   5263     1   109.8000471 387.438400
   5259   5262   5264     1   109.8000471 387.438400
   5260   5259   5262     1   109.5600471 388.275200
   5260   5259   5261     1   108.4600466 328.025600
   5261   5259   5262     1   109.5600471 388.275200
   5263   5262   5265     1   108.7700466 392.459200
   5263   5262   5264     1   107.5800459 329.699200
   5264   5262   5265     1   108.7700466 392.459200
   5268   5271   5272     1   109.8000471 387.438400
   5268   5271   5273     1   109.8000471 387.438400
   5269   5268   5271     1   109.5600471 388.275200
   5269   5268   5270     1   108.4600466 328.025600
   5270   5268   5271     1   109.5600471 388.275200
   5272   5271   5274     1   108.7700466 392.459200
   5272   5271   5273     1   107.5800459 329.699200
   5273   5271   5274     1   108.7700466 392.459200
   5278   5281   5282     1   109.8000471 387.438400
   5278   5281   5283     1   109.8000471 387.438400
   5279   5278   5281     1   109.5600471 388.275200
   5279   5278   5306     1   109.7800468 425.094400
   5279   5278   5280     1   108.4600466 328.025600
   5280   5278   5281     1   109.5600471 388.275200
   5280   5278   5306     1   109.7800468 425.094400
   5281   5284   5285     1   109.5600471 388.275200
   5281   5284   5286     1   109.5600471 388.275200
   5282   5281   5284     1   109.8000471 387.438400
   5282   5281   5283     1   107.5800459 329.699200
   5283   5281   5284     1   109.8000471 387.438400
   5285   5284   5287     1   109.8800469 414.216000
   5285   5284   5286     1   108.4600466 328.025600
   5286   5284   5287     1   109.8800469 414.216000
   5287   5288   5289     1   109.8800469 414.216000
   5287   5288   5290     1   109.8800469 414.216000
   5287   5297   5298     1   109.8800469 414.216000
   5287   5297   5299     1   109.8800469 414.216000
   5288   5291   5292     1   109.8000471 387.438400
   5288   5291   5293     1   109.8000471 387.438400
   5289   5288   5291     1   109.5600471 388.275200
   5289   5288   5290     1   108.4600466 328.025600
   5290   5288   5291     1   109.5600471 388.275200
   5292   5291   5294     1   108.7700466 392.459200
   5292   5291   5293     1   107.5800459 329.699200
   5293   5291   5294     1   108.7700466 392.459200
   5297   5300   5301     1   109.8000471 387.438400
   5297   5300   5302     1   109.8000471 387.438400
   5298   5297   5300     1   109.5600471 388.275200
   5298   5297   5299     1   108.4600466 328.025600
   5299   5297   5300     1   109.5600471 388.275200
   5301   5300   5303     1   108.7700466 392.459200
   5301   5300   5302     1   107.5800459 329.699200
   5302   5300   5303     1   108.7700466 392.459200
   5307   5310   5311     1   109.8000471 387.438400
   5307   5310   5312     1   109.8000471 387.438400
   5308   5307   5310     1   109.5600471 388.275200
   5308   5307   5335     1   109.7800468 425.094400
   5308   5307   5309     1   108.4600466 328.025600
   5309   5307   5310     1   109.5600471 388.275200
   5309   5307   5335     1   109.7800468 425.094400
   5310   5313   5314     1   109.5600471 388.275200
   5310   5313   5315     1   109.5600471 388.275200
   5311   5310   5313     1   109.8000471 387.438400
   5311   5310   5312     1   107.5800459 329.699200
   5312   5310   5313     1   109.8000471 387.438400
   5314   5313   5316     1   109.8800469 414.216000
   5314   5313   5315     1   108.4600466 328.025600
   5315   5313   5316     1   109.8800469 414.216000
   5316   5317   5318     1   109.8800469 414.216000
   5316   5317   5319     1   109.8800469 414.216000
   5316   5326   5327     1   109.8800469 414.216000
   5316   5326   5328     1   109.8800469 414.216000
   5317   5320   5321     1   109.8000471 387.438400
   5317   5320   5322     1   109.8000471 387.438400
   5318   5317   5320     1   109.5600471 388.275200
   5318   5317   5319     1   108.4600466 328.025600
   5319   5317   5320     1   109.5600471 388.275200
   5321   5320   5323     1   108.7700466 392.459200
   5321   5320   5322     1   107.5800459 329.699200
   5322   5320   5323     1   108.7700466 392.459200
   5326   5329   5330     1   109.8000471 387.438400
   5326   5329   5331     1   109.8000471 387.438400
   5327   5326   5329     1   109.5600471 388.275200
   5327   5326   5328     1   108.4600466 328.025600
   5328   5326   5329     1   109.5600471 388.275200
   5330   5329   5332     1   108.7700466 392.459200
   5330   5329   5331     1   107.5800459 329.699200
   5331   5329   5332     1   108.7700466 392.459200
   5336   5339   5340     1   109.8000471 387.438400
   5336   5339   5341     1   109.8000471 387.438400
   5337   5336   5339     1   109.5600471 388.275200
   5337   5336   5364     1   109.7800468 425.094400
   5337   5336   5338     1   108.4600466 328.025600
   5338   5336   5339     1   109.5600471 388.275200
   5338   5336   5364     1   109.7800468 425.094400
   5339   5342   5343     1   109.5600471 388.275200
   5339   5342   5344     1   109.5600471 388.275200
   5340   5339   5342     1   109.8000471 387.438400
   5340   5339   5341     1   107.5800459 329.699200
   5341   5339   5342     1   109.8000471 387.438400
   5343   5342   5345     1   109.8800469 414.216000
   5343   5342   5344     1   108.4600466 328.025600
   5344   5342   5345     1   109.8800469 414.216000
   5345   5346   5347     1   109.8800469 414.216000
   5345   5346   5348     1   109.8800469 414.216000
   5345   5355   5356     1   109.8800469 414.216000
   5345   5355   5357     1   109.8800469 414.216000
   5346   5349   5350     1   109.8000471 387.438400
   5346   5349   5351     1   109.8000471 387.438400
   5347   5346   5349     1   109.5600471 388.275200
   5347   5346   5348     1   108.4600466 328.025600
   5348   5346   5349     1   109.5600471 388.275200
   5350   5349   5352     1   108.7700466 392.459200
   5350   5349   5351     1   107.5800459 329.699200
   5351   5349   5352     1   108.7700466 392.459200
   5355   5358   5359     1   109.8000471 387.438400
   5355   5358   5360     1   109.8000471 387.438400
   5356   5355   5358     1   109.5600471 388.275200
   5356   5355   5357     1   108.4600466 328.025600
   5357   5355   5358     1   109.5600471 388.275200
   5359   5358   5361     1   108.7700466 392.459200
   5359   5358   5360     1   107.5800459 329.699200
   5360   5358   5361     1   108.7700466 392.459200
   5365   5368   5369     1   109.8000471 387.438400
   5365   5368   5370     1   109.8000471 387.438400
   5366   5365   5368     1   109.5600471 388.275200
   5366   5365   5393     1   109.7800468 425.094400
   5366   5365   5367     1   108.4600466 328.025600
   5367   5365   5368     1   109.5600471 388.275200
   5367   5365   5393     1   109.7800468 425.094400
   5368   5371   5372     1   109.5600471 388.275200
   5368   5371   5373     1   109.5600471 388.275200
   5369   5368   5371     1   109.8000471 387.438400
   5369   5368   5370     1   107.5800459 329.699200
   5370   5368   5371     1   109.8000471 387.438400
   5372   5371   5374     1   109.8800469 414.216000
   5372   5371   5373     1   108.4600466 328.025600
   5373   5371   5374     1   109.8800469 414.216000
   5374   5375   5376     1   109.8800469 414.216000
   5374   5375   5377     1   109.8800469 414.216000
   5374   5384   5385     1   109.8800469 414.216000
   5374   5384   5386     1   109.8800469 414.216000
   5375   5378   5379     1   109.8000471 387.438400
   5375   5378   5380     1   109.8000471 387.438400
   5376   5375   5378     1   109.5600471 388.275200
   5376   5375   5377     1   108.4600466 328.025600
   5377   5375   5378     1   109.5600471 388.275200
   5379   5378   5381     1   108.7700466 392.459200
   5379   5378   5380     1   107.5800459 329.699200
   5380   5378   5381     1   108.7700466 392.459200
   5384   5387   5388     1   109.8000471 387.438400
   5384   5387   5389     1   109.8000471 387.438400
   5385   5384   5387     1   109.5600471 388.275200
   5385   5384   5386     1   108.4600466 328.025600
   5386   5384   5387     1   109.5600471 388.275200
   5388   5387   5390     1   108.7700466 392.459200
   5388   5387   5389     1   107.5800459 329.699200
   5389   5387   5390     1   108.7700466 392.459200
   5394   5397   5398     1   109.8000471 387.438400
   5394   5397   5399     1   109.8000471 387.438400
   5395   5394   5397     1   109.5600471 388.275200
   5395   5394   5422     1   109.7800468 425.094400
   5395   5394   5396     1   108.4600466 328.025600
   5396   5394   5397     1   109.5600471 388.275200
   5396   5394   5422     1   109.7800468 425.094400
   5397   5400   5401     1   109.5600471 388.275200
   5397   5400   5402     1   109.5600471 388.275200
   5398   5397   5400     1   109.8000471 387.438400
   5398   5397   5399     1   107.5800459 329.699200
   5399   5397   5400     1   109.8000471 387.438400
   5401   5400   5403     1   109.8800469 414.216000
   5401   5400   5402     1   108.4600466 328.025600
   5402   5400   5403     1   109.8800469 414.216000
   5403   5404   5405     1   109.8800469 414.216000
   5403   5404   5406     1   109.8800469 414.216000
   5403   5413   5414     1   109.8800469 414.216000
   5403   5413   5415     1   109.8800469 414.216000
   5404   5407   5408     1   109.8000471 387.438400
   5404   5407   5409     1   109.8000471 387.438400
   5405   5404   5407     1   109.5600471 388.275200
   5405   5404   5406     1   108.4600466 328.025600
   5406   5404   5407     1   109.5600471 388.275200
   5408   5407   5410     1   108.7700466 392.459200
   5408   5407   5409     1   107.5800459 329.699200
   5409   5407   5410     1   108.7700466 392.459200
   5413   5416   5417     1   109.8000471 387.438400
   5413   5416   5418     1   109.8000471 387.438400
   5414   5413   5416     1   109.5600471 388.275200
   5414   5413   5415     1   108.4600466 328.025600
   5415   5413   5416     1   109.5600471 388.275200
   5417   5416   5419     1   108.7700466 392.459200
   5417   5416   5418     1   107.5800459 329.699200
   5418   5416   5419     1   108.7700466 392.459200
   5423   5426   5427     1   109.8000471 387.438400
   5423   5426   5428     1   109.8000471 387.438400
   5424   5423   5426     1   109.5600471 388.275200
   5424   5423   5451     1   109.7800468 425.094400
   5424   5423   5425     1   108.4600466 328.025600
   5425   5423   5426     1   109.5600471 388.275200
   5425   5423   5451     1   109.7800468 425.094400
   5426   5429   5430     1   109.5600471 388.275200
   5426   5429   5431     1   109.5600471 388.275200
   5427   5426   5429     1   109.8000471 387.438400
   5427   5426   5428     1   107.5800459 329.699200
   5428   5426   5429     1   109.8000471 387.438400
   5430   5429   5432     1   109.8800469 414.216000
   5430   5429   5431     1   108.4600466 328.025600
   5431   5429   5432     1   109.8800469 414.216000
   5432   5433   5434     1   109.8800469 414.216000
   5432   5433   5435     1   109.8800469 414.216000
   5432   5442   5443     1   109.8800469 414.216000
   5432   5442   5444     1   109.8800469 414.216000
   5433   5436   5437     1   109.8000471 387.438400
   5433   5436   5438     1   109.8000471 387.438400
   5434   5433   5436     1   109.5600471 388.275200
   5434   5433   5435     1   108.4600466 328.025600
   5435   5433   5436     1   109.5600471 388.275200
   5437   5436   5439     1   108.7700466 392.459200
   5437   5436   5438     1   107.5800459 329.699200
   5438   5436   5439     1   108.7700466 392.459200
   5442   5445   5446     1   109.8000471 387.438400
   5442   5445   5447     1   109.8000471 387.438400
   5443   5442   5445     1   109.5600471 388.275200
   5443   5442   5444     1   108.4600466 328.025600
   5444   5442   5445     1   109.5600471 388.275200
   5446   5445   5448     1   108.7700466 392.459200
   5446   5445   5447     1   107.5800459 329.699200
   5447   5445   5448     1   108.7700466 392.459200
   5452   5455   5456     1   109.8000471 387.438400
   5452   5455   5457     1   109.8000471 387.438400
   5453   5452   5455     1   109.5600471 388.275200
   5453   5452   5480     1   109.7800468 425.094400
   5453   5452   5454     1   108.4600466 328.025600
   5454   5452   5455     1   109.5600471 388.275200
   5454   5452   5480     1   109.7800468 425.094400
   5455   5458   5459     1   109.5600471 388.275200
   5455   5458   5460     1   109.5600471 388.275200
   5456   5455   5458     1   109.8000471 387.438400
   5456   5455   5457     1   107.5800459 329.699200
   5457   5455   5458     1   109.8000471 387.438400
   5459   5458   5461     1   109.8800469 414.216000
   5459   5458   5460     1   108.4600466 328.025600
   5460   5458   5461     1   109.8800469 414.216000
   5461   5462   5463     1   109.8800469 414.216000
   5461   5462   5464     1   109.8800469 414.216000
   5461   5471   5472     1   109.8800469 414.216000
   5461   5471   5473     1   109.8800469 414.216000
   5462   5465   5466     1   109.8000471 387.438400
   5462   5465   5467     1   109.8000471 387.438400
   5463   5462   5465     1   109.5600471 388.275200
   5463   5462   5464     1   108.4600466 328.025600
   5464   5462   5465     1   109.5600471 388.275200
   5466   5465   5468     1   108.7700466 392.459200
   5466   5465   5467     1   107.5800459 329.699200
   5467   5465   5468     1   108.7700466 392.459200
   5471   5474   5475     1   109.8000471 387.438400
   5471   5474   5476     1   109.8000471 387.438400
   5472   5471   5474     1   109.5600471 388.275200
   5472   5471   5473     1   108.4600466 328.025600
   5473   5471   5474     1   109.5600471 388.275200
   5475   5474   5477     1   108.7700466 392.459200
   5475   5474   5476     1   107.5800459 329.699200
   5476   5474   5477     1   108.7700466 392.459200
   5481   5484   5485     1   109.8000471 387.438400
   5481   5484   5486     1   109.8000471 387.438400
   5482   5481   5484     1   109.5600471 388.275200
   5482   5481   5509     1   109.7800468 425.094400
   5482   5481   5483     1   108.4600466 328.025600
   5483   5481   5484     1   109.5600471 388.275200
   5483   5481   5509     1   109.7800468 425.094400
   5484   5487   5488     1   109.5600471 388.275200
   5484   5487   5489     1   109.5600471 388.275200
   5485   5484   5487     1   109.8000471 387.438400
   5485   5484   5486     1   107.5800459 329.699200
   5486   5484   5487     1   109.8000471 387.438400
   5488   5487   5490     1   109.8800469 414.216000
   5488   5487   5489     1   108.4600466 328.025600
   5489   5487   5490     1   109.8800469 414.216000
   5490   5491   5492     1   109.8800469 414.216000
   5490   5491   5493     1   109.8800469 414.216000
   5490   5500   5501     1   109.8800469 414.216000
   5490   5500   5502     1   109.8800469 414.216000
   5491   5494   5495     1   109.8000471 387.438400
   5491   5494   5496     1   109.8000471 387.438400
   5492   5491   5494     1   109.5600471 388.275200
   5492   5491   5493     1   108.4600466 328.025600
   5493   5491   5494     1   109.5600471 388.275200
   5495   5494   5497     1   108.7700466 392.459200
   5495   5494   5496     1   107.5800459 329.699200
   5496   5494   5497     1   108.7700466 392.459200
   5500   5503   5504     1   109.8000471 387.438400
   5500   5503   5505     1   109.8000471 387.438400
   5501   5500   5503     1   109.5600471 388.275200
   5501   5500   5502     1   108.4600466 328.025600
   5502   5500   5503     1   109.5600471 388.275200
   5504   5503   5506     1   108.7700466 392.459200
   5504   5503   5505     1   107.5800459 329.699200
   5505   5503   5506     1   108.7700466 392.459200
   5510   5513   5514     1   109.8000471 387.438400
   5510   5513   5515     1   109.8000471 387.438400
   5511   5510   5513     1   109.5600471 388.275200
   5511   5510   5538     1   109.7800468 425.094400
   5511   5510   5512     1   108.4600466 328.025600
   5512   5510   5513     1   109.5600471 388.275200
   5512   5510   5538     1   109.7800468 425.094400
   5513   5516   5517     1   109.5600471 388.275200
   5513   5516   5518     1   109.5600471 388.275200
   5514   5513   5516     1   109.8000471 387.438400
   5514   5513   5515     1   107.5800459 329.699200
   5515   5513   5516     1   109.8000471 387.438400
   5517   5516   5519     1   109.8800469 414.216000
   5517   5516   5518     1   108.4600466 328.025600
   5518   5516   5519     1   109.8800469 414.216000
   5519   5520   5521     1   109.8800469 414.216000
   5519   5520   5522     1   109.8800469 414.216000
   5519   5529   5530     1   109.8800469 414.216000
   5519   5529   5531     1   109.8800469 414.216000
   5520   5523   5524     1   109.8000471 387.438400
   5520   5523   5525     1   109.8000471 387.438400
   5521   5520   5523     1   109.5600471 388.275200
   5521   5520   5522     1   108.4600466 328.025600
   5522   5520   5523     1   109.5600471 388.275200
   5524   5523   5526     1   108.7700466 392.459200
   5524   5523   5525     1   107.5800459 329.699200
   5525   5523   5526     1   108.7700466 392.459200
   5529   5532   5533     1   109.8000471 387.438400
   5529   5532   5534     1   109.8000471 387.438400
   5530   5529   5532     1   109.5600471 388.275200
   5530   5529   5531     1   108.4600466 328.025600
   5531   5529   5532     1   109.5600471 388.275200
   5533   5532   5535     1   108.7700466 392.459200
   5533   5532   5534     1   107.5800459 329.699200
   5534   5532   5535     1   108.7700466 392.459200
   5539   5542   5543     1   109.8000471 387.438400
   5539   5542   5544     1   109.8000471 387.438400
   5540   5539   5542     1   109.5600471 388.275200
   5540   5539   5567     1   109.7800468 425.094400
   5540   5539   5541     1   108.4600466 328.025600
   5541   5539   5542     1   109.5600471 388.275200
   5541   5539   5567     1   109.7800468 425.094400
   5542   5545   5546     1   109.5600471 388.275200
   5542   5545   5547     1   109.5600471 388.275200
   5543   5542   5545     1   109.8000471 387.438400
   5543   5542   5544     1   107.5800459 329.699200
   5544   5542   5545     1   109.8000471 387.438400
   5546   5545   5548     1   109.8800469 414.216000
   5546   5545   5547     1   108.4600466 328.025600
   5547   5545   5548     1   109.8800469 414.216000
   5548   5549   5550     1   109.8800469 414.216000
   5548   5549   5551     1   109.8800469 414.216000
   5548   5558   5559     1   109.8800469 414.216000
   5548   5558   5560     1   109.8800469 414.216000
   5549   5552   5553     1   109.8000471 387.438400
   5549   5552   5554     1   109.8000471 387.438400
   5550   5549   5552     1   109.5600471 388.275200
   5550   5549   5551     1   108.4600466 328.025600
   5551   5549   5552     1   109.5600471 388.275200
   5553   5552   5555     1   108.7700466 392.459200
   5553   5552   5554     1   107.5800459 329.699200
   5554   5552   5555     1   108.7700466 392.459200
   5558   5561   5562     1   109.8000471 387.438400
   5558   5561   5563     1   109.8000471 387.438400
   5559   5558   5561     1   109.5600471 388.275200
   5559   5558   5560     1   108.4600466 328.025600
   5560   5558   5561     1   109.5600471 388.275200
   5562   5561   5564     1   108.7700466 392.459200
   5562   5561   5563     1   107.5800459 329.699200
   5563   5561   5564     1   108.7700466 392.459200
   5568   5571   5572     1   109.8000471 387.438400
   5568   5571   5573     1   109.8000471 387.438400
   5569   5568   5571     1   109.5600471 388.275200
   5569   5568   5596     1   109.7800468 425.094400
   5569   5568   5570     1   108.4600466 328.025600
   5570   5568   5571     1   109.5600471 388.275200
   5570   5568   5596     1   109.7800468 425.094400
   5571   5574   5575     1   109.5600471 388.275200
   5571   5574   5576     1   109.5600471 388.275200
   5572   5571   5574     1   109.8000471 387.438400
   5572   5571   5573     1   107.5800459 329.699200
   5573   5571   5574     1   109.8000471 387.438400
   5575   5574   5577     1   109.8800469 414.216000
   5575   5574   5576     1   108.4600466 328.025600
   5576   5574   5577     1   109.8800469 414.216000
   5577   5578   5579     1   109.8800469 414.216000
   5577   5578   5580     1   109.8800469 414.216000
   5577   5587   5588     1   109.8800469 414.216000
   5577   5587   5589     1   109.8800469 414.216000
   5578   5581   5582     1   109.8000471 387.438400
   5578   5581   5583     1   109.8000471 387.438400
   5579   5578   5581     1   109.5600471 388.275200
   5579   5578   5580     1   108.4600466 328.025600
   5580   5578   5581     1   109.5600471 388.275200
   5582   5581   5584     1   108.7700466 392.459200
   5582   5581   5583     1   107.5800459 329.699200
   5583   5581   5584     1   108.7700466 392.459200
   5587   5590   5591     1   109.8000471 387.438400
   5587   5590   5592     1   109.8000471 387.438400
   5588   5587   5590     1   109.5600471 388.275200
   5588   5587   5589     1   108.4600466 328.025600
   5589   5587   5590     1   109.5600471 388.275200
   5591   5590   5593     1   108.7700466 392.459200
   5591   5590   5592     1   107.5800459 329.699200
   5592   5590   5593     1   108.7700466 392.459200
   5597   5600   5601     1   109.8000471 387.438400
   5597   5600   5602     1   109.8000471 387.438400
   5598   5597   5600     1   109.5600471 388.275200
   5598   5597   5625     1   109.7800468 425.094400
   5598   5597   5599     1   108.4600466 328.025600
   5599   5597   5600     1   109.5600471 388.275200
   5599   5597   5625     1   109.7800468 425.094400
   5600   5603   5604     1   109.5600471 388.275200
   5600   5603   5605     1   109.5600471 388.275200
   5601   5600   5603     1   109.8000471 387.438400
   5601   5600   5602     1   107.5800459 329.699200
   5602   5600   5603     1   109.8000471 387.438400
   5604   5603   5606     1   109.8800469 414.216000
   5604   5603   5605     1   108.4600466 328.025600
   5605   5603   5606     1   109.8800469 414.216000
   5606   5607   5608     1   109.8800469 414.216000
   5606   5607   5609     1   109.8800469 414.216000
   5606   5616   5617     1   109.8800469 414.216000
   5606   5616   5618     1   109.8800469 414.216000
   5607   5610   5611     1   109.8000471 387.438400
   5607   5610   5612     1   109.8000471 387.438400
   5608   5607   5610     1   109.5600471 388.275200
   5608   5607   5609     1   108.4600466 328.025600
   5609   5607   5610     1   109.5600471 388.275200
   5611   5610   5613     1   108.7700466 392.459200
   5611   5610   5612     1   107.5800459 329.699200
   5612   5610   5613     1   108.7700466 392.459200
   5616   5619   5620     1   109.8000471 387.438400
   5616   5619   5621     1   109.8000471 387.438400
   5617   5616   5619     1   109.5600471 388.275200
   5617   5616   5618     1   108.4600466 328.025600
   5618   5616   5619     1   109.5600471 388.275200
   5620   5619   5622     1   108.7700466 392.459200
   5620   5619   5621     1   107.5800459 329.699200
   5621   5619   5622     1   108.7700466 392.459200
   5626   5629   5630     1   109.8000471 387.438400
   5626   5629   5631     1   109.8000471 387.438400
   5627   5626   5629     1   109.5600471 388.275200
   5627   5626   5654     1   109.7800468 425.094400
   5627   5626   5628     1   108.4600466 328.025600
   5628   5626   5629     1   109.5600471 388.275200
   5628   5626   5654     1   109.7800468 425.094400
   5629   5632   5633     1   109.5600471 388.275200
   5629   5632   5634     1   109.5600471 388.275200
   5630   5629   5632     1   109.8000471 387.438400
   5630   5629   5631     1   107.5800459 329.699200
   5631   5629   5632     1   109.8000471 387.438400
   5633   5632   5635     1   109.8800469 414.216000
   5633   5632   5634     1   108.4600466 328.025600
   5634   5632   5635     1   109.8800469 414.216000
   5635   5636   5637     1   109.8800469 414.216000
   5635   5636   5638     1   109.8800469 414.216000
   5635   5645   5646     1   109.8800469 414.216000
   5635   5645   5647     1   109.8800469 414.216000
   5636   5639   5640     1   109.8000471 387.438400
   5636   5639   5641     1   109.8000471 387.438400
   5637   5636   5639     1   109.5600471 388.275200
   5637   5636   5638     1   108.4600466 328.025600
   5638   5636   5639     1   109.5600471 388.275200
   5640   5639   5642     1   108.7700466 392.459200
   5640   5639   5641     1   107.5800459 329.699200
   5641   5639   5642     1   108.7700466 392.459200
   5645   5648   5649     1   109.8000471 387.438400
   5645   5648   5650     1   109.8000471 387.438400
   5646   5645   5648     1   109.5600471 388.275200
   5646   5645   5647     1   108.4600466 328.025600
   5647   5645   5648     1   109.5600471 388.275200
   5649   5648   5651     1   108.7700466 392.459200
   5649   5648   5650     1   107.5800459 329.699200
   5650   5648   5651     1   108.7700466 392.459200
   5655   5658   5659     1   109.8000471 387.438400
   5655   5658   5660     1   109.8000471 387.438400
   5656   5655   5658     1   109.5600471 388.275200
   5656   5655   5683     1   109.7800468 425.094400
   5656   5655   5657     1   108.4600466 328.025600
   5657   5655   5658     1   109.5600471 388.275200
   5657   5655   5683     1   109.7800468 425.094400
   5658   5661   5662     1   109.5600471 388.275200
   5658   5661   5663     1   109.5600471 388.275200
   5659   5658   5661     1   109.8000471 387.438400
   5659   5658   5660     1   107.5800459 329.699200
   5660   5658   5661     1   109.8000471 387.438400
   5662   5661   5664     1   109.8800469 414.216000
   5662   5661   5663     1   108.4600466 328.025600
   5663   5661   5664     1   109.8800469 414.216000
   5664   5665   5666     1   109.8800469 414.216000
   5664   5665   5667     1   109.8800469 414.216000
   5664   5674   5675     1   109.8800469 414.216000
   5664   5674   5676     1   109.8800469 414.216000
   5665   5668   5669     1   109.8000471 387.438400
   5665   5668   5670     1   109.8000471 387.438400
   5666   5665   5668     1   109.5600471 388.275200
   5666   5665   5667     1   108.4600466 328.025600
   5667   5665   5668     1   109.5600471 388.275200
   5669   5668   5671     1   108.7700466 392.459200
   5669   5668   5670     1   107.5800459 329.699200
   5670   5668   5671     1   108.7700466 392.459200
   5674   5677   5678     1   109.8000471 387.438400
   5674   5677   5679     1   109.8000471 387.438400
   5675   5674   5677     1   109.5600471 388.275200
   5675   5674   5676     1   108.4600466 328.025600
   5676   5674   5677     1   109.5600471 388.275200
   5678   5677   5680     1   108.7700466 392.459200
   5678   5677   5679     1   107.5800459 329.699200
   5679   5677   5680     1   108.7700466 392.459200
   5684   5687   5688     1   109.8000471 387.438400
   5684   5687   5689     1   109.8000471 387.438400
   5685   5684   5687     1   109.5600471 388.275200
   5685   5684   5712     1   109.7800468 425.094400
   5685   5684   5686     1   108.4600466 328.025600
   5686   5684   5687     1   109.5600471 388.275200
   5686   5684   5712     1   109.7800468 425.094400
   5687   5690   5691     1   109.5600471 388.275200
   5687   5690   5692     1   109.5600471 388.275200
   5688   5687   5690     1   109.8000471 387.438400
   5688   5687   5689     1   107.5800459 329.699200
   5689   5687   5690     1   109.8000471 387.438400
   5691   5690   5693     1   109.8800469 414.216000
   5691   5690   5692     1   108.4600466 328.025600
   5692   5690   5693     1   109.8800469 414.216000
   5693   5694   5695     1   109.8800469 414.216000
   5693   5694   5696     1   109.8800469 414.216000
   5693   5703   5704     1   109.8800469 414.216000
   5693   5703   5705     1   109.8800469 414.216000
   5694   5697   5698     1   109.8000471 387.438400
   5694   5697   5699     1   109.8000471 387.438400
   5695   5694   5697     1   109.5600471 388.275200
   5695   5694   5696     1   108.4600466 328.025600
   5696   5694   5697     1   109.5600471 388.275200
   5698   5697   5700     1   108.7700466 392.459200
   5698   5697   5699     1   107.5800459 329.699200
   5699   5697   5700     1   108.7700466 392.459200
   5703   5706   5707     1   109.8000471 387.438400
   5703   5706   5708     1   109.8000471 387.438400
   5704   5703   5706     1   109.5600471 388.275200
   5704   5703   5705     1   108.4600466 328.025600
   5705   5703   5706     1   109.5600471 388.275200
   5707   5706   5709     1   108.7700466 392.459200
   5707   5706   5708     1   107.5800459 329.699200
   5708   5706   5709     1   108.7700466 392.459200
   5713   5716   5717     1   109.8000471 387.438400
   5713   5716   5718     1   109.8000471 387.438400
   5714   5713   5716     1   109.5600471 388.275200
   5714   5713   5741     1   109.7800468 425.094400
   5714   5713   5715     1   108.4600466 328.025600
   5715   5713   5716     1   109.5600471 388.275200
   5715   5713   5741     1   109.7800468 425.094400
   5716   5719   5720     1   109.5600471 388.275200
   5716   5719   5721     1   109.5600471 388.275200
   5717   5716   5719     1   109.8000471 387.438400
   5717   5716   5718     1   107.5800459 329.699200
   5718   5716   5719     1   109.8000471 387.438400
   5720   5719   5722     1   109.8800469 414.216000
   5720   5719   5721     1   108.4600466 328.025600
   5721   5719   5722     1   109.8800469 414.216000
   5722   5723   5724     1   109.8800469 414.216000
   5722   5723   5725     1   109.8800469 414.216000
   5722   5732   5733     1   109.8800469 414.216000
   5722   5732   5734     1   109.8800469 414.216000
   5723   5726   5727     1   109.8000471 387.438400
   5723   5726   5728     1   109.8000471 387.438400
   5724   5723   5726     1   109.5600471 388.275200
   5724   5723   5725     1   108.4600466 328.025600
   5725   5723   5726     1   109.5600471 388.275200
   5727   5726   5729     1   108.7700466 392.459200
   5727   5726   5728     1   107.5800459 329.699200
   5728   5726   5729     1   108.7700466 392.459200
   5732   5735   5736     1   109.8000471 387.438400
   5732   5735   5737     1   109.8000471 387.438400
   5733   5732   5735     1   109.5600471 388.275200
   5733   5732   5734     1   108.4600466 328.025600
   5734   5732   5735     1   109.5600471 388.275200
   5736   5735   5738     1   108.7700466 392.459200
   5736   5735   5737     1   107.5800459 329.699200
   5737   5735   5738     1   108.7700466 392.459200
   5742   5745   5746     1   109.8000471 387.438400
   5742   5745   5747     1   109.8000471 387.438400
   5743   5742   5745     1   109.5600471 388.275200
   5743   5742   5770     1   109.7800468 425.094400
   5743   5742   5744     1   108.4600466 328.025600
   5744   5742   5745     1   109.5600471 388.275200
   5744   5742   5770     1   109.7800468 425.094400
   5745   5748   5749     1   109.5600471 388.275200
   5745   5748   5750     1   109.5600471 388.275200
   5746   5745   5748     1   109.8000471 387.438400
   5746   5745   5747     1   107.5800459 329.699200
   5747   5745   5748     1   109.8000471 387.438400
   5749   5748   5751     1   109.8800469 414.216000
   5749   5748   5750     1   108.4600466 328.025600
   5750   5748   5751     1   109.8800469 414.216000
   5751   5752   5753     1   109.8800469 414.216000
   5751   5752   5754     1   109.8800469 414.216000
   5751   5761   5762     1   109.8800469 414.216000
   5751   5761   5763     1   109.8800469 414.216000
   5752   5755   5756     1   109.8000471 387.438400
   5752   5755   5757     1   109.8000471 387.438400
   5753   5752   5755     1   109.5600471 388.275200
   5753   5752   5754     1   108.4600466 328.025600
   5754   5752   5755     1   109.5600471 388.275200
   5756   5755   5758     1   108.7700466 392.459200
   5756   5755   5757     1   107.5800459 329.699200
   5757   5755   5758     1   108.7700466 392.459200
   5761   5764   5765     1   109.8000471 387.438400
   5761   5764   5766     1   109.8000471 387.438400
   5762   5761   5764     1   109.5600471 388.275200
   5762   5761   5763     1   108.4600466 328.025600
   5763   5761   5764     1   109.5600471 388.275200
   5765   5764   5767     1   108.7700466 392.459200
   5765   5764   5766     1   107.5800459 329.699200
   5766   5764   5767     1   108.7700466 392.459200
   5771   5774   5775     1   109.8000471 387.438400
   5771   5774   5776     1   109.8000471 387.438400
   5772   5771   5774     1   109.5600471 388.275200
   5772   5771   5799     1   109.7800468 425.094400
   5772   5771   5773     1   108.4600466 328.025600
   5773   5771   5774     1   109.5600471 388.275200
   5773   5771   5799     1   109.7800468 425.094400
   5774   5777   5778     1   109.5600471 388.275200
   5774   5777   5779     1   109.5600471 388.275200
   5775   5774   5777     1   109.8000471 387.438400
   5775   5774   5776     1   107.5800459 329.699200
   5776   5774   5777     1   109.8000471 387.438400
   5778   5777   5780     1   109.8800469 414.216000
   5778   5777   5779     1   108.4600466 328.025600
   5779   5777   5780     1   109.8800469 414.216000
   5780   5781   5782     1   109.8800469 414.216000
   5780   5781   5783     1   109.8800469 414.216000
   5780   5790   5791     1   109.8800469 414.216000
   5780   5790   5792     1   109.8800469 414.216000
   5781   5784   5785     1   109.8000471 387.438400
   5781   5784   5786     1   109.8000471 387.438400
   5782   5781   5784     1   109.5600471 388.275200
   5782   5781   5783     1   108.4600466 328.025600
   5783   5781   5784     1   109.5600471 388.275200
   5785   5784   5787     1   108.7700466 392.459200
   5785   5784   5786     1   107.5800459 329.699200
   5786   5784   5787     1   108.7700466 392.459200
   5790   5793   5794     1   109.8000471 387.438400
   5790   5793   5795     1   109.8000471 387.438400
   5791   5790   5793     1   109.5600471 388.275200
   5791   5790   5792     1   108.4600466 328.025600
   5792   5790   5793     1   109.5600471 388.275200
   5794   5793   5796     1   108.7700466 392.459200
   5794   5793   5795     1   107.5800459 329.699200
   5795   5793   5796     1   108.7700466 392.459200
   5800   5803   5804     1   109.8000471 387.438400
   5800   5803   5805     1   109.8000471 387.438400
   5801   5800   5803     1   109.5600471 388.275200
   5801   5800   5828     1   109.7800468 425.094400
   5801   5800   5802     1   108.4600466 328.025600
   5802   5800   5803     1   109.5600471 388.275200
   5802   5800   5828     1   109.7800468 425.094400
   5803   5806   5807     1   109.5600471 388.275200
   5803   5806   5808     1   109.5600471 388.275200
   5804   5803   5806     1   109.8000471 387.438400
   5804   5803   5805     1   107.5800459 329.699200
   5805   5803   5806     1   109.8000471 387.438400
   5807   5806   5809     1   109.8800469 414.216000
   5807   5806   5808     1   108.4600466 328.025600
   5808   5806   5809     1   109.8800469 414.216000
   5809   5810   5811     1   109.8800469 414.216000
   5809   5810   5812     1   109.8800469 414.216000
   5809   5819   5820     1   109.8800469 414.216000
   5809   5819   5821     1   109.8800469 414.216000
   5810   5813   5814     1   109.8000471 387.438400
   5810   5813   5815     1   109.8000471 387.438400
   5811   5810   5813     1   109.5600471 388.275200
   5811   5810   5812     1   108.4600466 328.025600
   5812   5810   5813     1   109.5600471 388.275200
   5814   5813   5816     1   108.7700466 392.459200
   5814   5813   5815     1   107.5800459 329.699200
   5815   5813   5816     1   108.7700466 392.459200
   5819   5822   5823     1   109.8000471 387.438400
   5819   5822   5824     1   109.8000471 387.438400
   5820   5819   5822     1   109.5600471 388.275200
   5820   5819   5821     1   108.4600466 328.025600
   5821   5819   5822     1   109.5600471 388.275200
   5823   5822   5825     1   108.7700466 392.459200
   5823   5822   5824     1   107.5800459 329.699200
   5824   5822   5825     1   108.7700466 392.459200
   5829   5832   5833     1   109.8000471 387.438400
   5829   5832   5834     1   109.8000471 387.438400
   5830   5829   5832     1   109.5600471 388.275200
   5830   5829   5857     1   109.7800468 425.094400
   5830   5829   5831     1   108.4600466 328.025600
   5831   5829   5832     1   109.5600471 388.275200
   5831   5829   5857     1   109.7800468 425.094400
   5832   5835   5836     1   109.5600471 388.275200
   5832   5835   5837     1   109.5600471 388.275200
   5833   5832   5835     1   109.8000471 387.438400
   5833   5832   5834     1   107.5800459 329.699200
   5834   5832   5835     1   109.8000471 387.438400
   5836   5835   5838     1   109.8800469 414.216000
   5836   5835   5837     1   108.4600466 328.025600
   5837   5835   5838     1   109.8800469 414.216000
   5838   5839   5840     1   109.8800469 414.216000
   5838   5839   5841     1   109.8800469 414.216000
   5838   5848   5849     1   109.8800469 414.216000
   5838   5848   5850     1   109.8800469 414.216000
   5839   5842   5843     1   109.8000471 387.438400
   5839   5842   5844     1   109.8000471 387.438400
   5840   5839   5842     1   109.5600471 388.275200
   5840   5839   5841     1   108.4600466 328.025600
   5841   5839   5842     1   109.5600471 388.275200
   5843   5842   5845     1   108.7700466 392.459200
   5843   5842   5844     1   107.5800459 329.699200
   5844   5842   5845     1   108.7700466 392.459200
   5848   5851   5852     1   109.8000471 387.438400
   5848   5851   5853     1   109.8000471 387.438400
   5849   5848   5851     1   109.5600471 388.275200
   5849   5848   5850     1   108.4600466 328.025600
   5850   5848   5851     1   109.5600471 388.275200
   5852   5851   5854     1   108.7700466 392.459200
   5852   5851   5853     1   107.5800459 329.699200
   5853   5851   5854     1   108.7700466 392.459200
   5858   5861   5862     1   109.8000471 387.438400
   5858   5861   5863     1   109.8000471 387.438400
   5859   5858   5861     1   109.5600471 388.275200
   5859   5858   5886     1   109.7800468 425.094400
   5859   5858   5860     1   108.4600466 328.025600
   5860   5858   5861     1   109.5600471 388.275200
   5860   5858   5886     1   109.7800468 425.094400
   5861   5864   5865     1   109.5600471 388.275200
   5861   5864   5866     1   109.5600471 388.275200
   5862   5861   5864     1   109.8000471 387.438400
   5862   5861   5863     1   107.5800459 329.699200
   5863   5861   5864     1   109.8000471 387.438400
   5865   5864   5867     1   109.8800469 414.216000
   5865   5864   5866     1   108.4600466 328.025600
   5866   5864   5867     1   109.8800469 414.216000
   5867   5868   5869     1   109.8800469 414.216000
   5867   5868   5870     1   109.8800469 414.216000
   5867   5877   5878     1   109.8800469 414.216000
   5867   5877   5879     1   109.8800469 414.216000
   5868   5871   5872     1   109.8000471 387.438400
   5868   5871   5873     1   109.8000471 387.438400
   5869   5868   5871     1   109.5600471 388.275200
   5869   5868   5870     1   108.4600466 328.025600
   5870   5868   5871     1   109.5600471 388.275200
   5872   5871   5874     1   108.7700466 392.459200
   5872   5871   5873     1   107.5800459 329.699200
   5873   5871   5874     1   108.7700466 392.459200
   5877   5880   5881     1   109.8000471 387.438400
   5877   5880   5882     1   109.8000471 387.438400
   5878   5877   5880     1   109.5600471 388.275200
   5878   5877   5879     1   108.4600466 328.025600
   5879   5877   5880     1   109.5600471 388.275200
   5881   5880   5883     1   108.7700466 392.459200
   5881   5880   5882     1   107.5800459 329.699200
   5882   5880   5883     1   108.7700466 392.459200
   5887   5890   5891     1   109.8000471 387.438400
   5887   5890   5892     1   109.8000471 387.438400
   5888   5887   5890     1   109.5600471 388.275200
   5888   5887   5915     1   109.7800468 425.094400
   5888   5887   5889     1   108.4600466 328.025600
   5889   5887   5890     1   109.5600471 388.275200
   5889   5887   5915     1   109.7800468 425.094400
   5890   5893   5894     1   109.5600471 388.275200
   5890   5893   5895     1   109.5600471 388.275200
   5891   5890   5893     1   109.8000471 387.438400
   5891   5890   5892     1   107.5800459 329.699200
   5892   5890   5893     1   109.8000471 387.438400
   5894   5893   5896     1   109.8800469 414.216000
   5894   5893   5895     1   108.4600466 328.025600
   5895   5893   5896     1   109.8800469 414.216000
   5896   5897   5898     1   109.8800469 414.216000
   5896   5897   5899     1   109.8800469 414.216000
   5896   5906   5907     1   109.8800469 414.216000
   5896   5906   5908     1   109.8800469 414.216000
   5897   5900   5901     1   109.8000471 387.438400
   5897   5900   5902     1   109.8000471 387.438400
   5898   5897   5900     1   109.5600471 388.275200
   5898   5897   5899     1   108.4600466 328.025600
   5899   5897   5900     1   109.5600471 388.275200
   5901   5900   5903     1   108.7700466 392.459200
   5901   5900   5902     1   107.5800459 329.699200
   5902   5900   5903     1   108.7700466 392.459200
   5906   5909   5910     1   109.8000471 387.438400
   5906   5909   5911     1   109.8000471 387.438400
   5907   5906   5909     1   109.5600471 388.275200
   5907   5906   5908     1   108.4600466 328.025600
   5908   5906   5909     1   109.5600471 388.275200
   5910   5909   5912     1   108.7700466 392.459200
   5910   5909   5911     1   107.5800459 329.699200
   5911   5909   5912     1   108.7700466 392.459200
   5916   5919   5920     1   109.8000471 387.438400
   5916   5919   5921     1   109.8000471 387.438400
   5917   5916   5919     1   109.5600471 388.275200
   5917   5916   5944     1   109.7800468 425.094400
   5917   5916   5918     1   108.4600466 328.025600
   5918   5916   5919     1   109.5600471 388.275200
   5918   5916   5944     1   109.7800468 425.094400
   5919   5922   5923     1   109.5600471 388.275200
   5919   5922   5924     1   109.5600471 388.275200
   5920   5919   5922     1   109.8000471 387.438400
   5920   5919   5921     1   107.5800459 329.699200
   5921   5919   5922     1   109.8000471 387.438400
   5923   5922   5925     1   109.8800469 414.216000
   5923   5922   5924     1   108.4600466 328.025600
   5924   5922   5925     1   109.8800469 414.216000
   5925   5926   5927     1   109.8800469 414.216000
   5925   5926   5928     1   109.8800469 414.216000
   5925   5935   5936     1   109.8800469 414.216000
   5925   5935   5937     1   109.8800469 414.216000
   5926   5929   5930     1   109.8000471 387.438400
   5926   5929   5931     1   109.8000471 387.438400
   5927   5926   5929     1   109.5600471 388.275200
   5927   5926   5928     1   108.4600466 328.025600
   5928   5926   5929     1   109.5600471 388.275200
   5930   5929   5932     1   108.7700466 392.459200
   5930   5929   5931     1   107.5800459 329.699200
   5931   5929   5932     1   108.7700466 392.459200
   5935   5938   5939     1   109.8000471 387.438400
   5935   5938   5940     1   109.8000471 387.438400
   5936   5935   5938     1   109.5600471 388.275200
   5936   5935   5937     1   108.4600466 328.025600
   5937   5935   5938     1   109.5600471 388.275200
   5939   5938   5941     1   108.7700466 392.459200
   5939   5938   5940     1   107.5800459 329.699200
   5940   5938   5941     1   108.7700466 392.459200
   5945   5948   5949     1   109.8000471 387.438400
   5945   5948   5950     1   109.8000471 387.438400
   5946   5945   5948     1   109.5600471 388.275200
   5946   5945   5973     1   109.7800468 425.094400
   5946   5945   5947     1   108.4600466 328.025600
   5947   5945   5948     1   109.5600471 388.275200
   5947   5945   5973     1   109.7800468 425.094400
   5948   5951   5952     1   109.5600471 388.275200
   5948   5951   5953     1   109.5600471 388.275200
   5949   5948   5951     1   109.8000471 387.438400
   5949   5948   5950     1   107.5800459 329.699200
   5950   5948   5951     1   109.8000471 387.438400
   5952   5951   5954     1   109.8800469 414.216000
   5952   5951   5953     1   108.4600466 328.025600
   5953   5951   5954     1   109.8800469 414.216000
   5954   5955   5956     1   109.8800469 414.216000
   5954   5955   5957     1   109.8800469 414.216000
   5954   5964   5965     1   109.8800469 414.216000
   5954   5964   5966     1   109.8800469 414.216000
   5955   5958   5959     1   109.8000471 387.438400
   5955   5958   5960     1   109.8000471 387.438400
   5956   5955   5958     1   109.5600471 388.275200
   5956   5955   5957     1   108.4600466 328.025600
   5957   5955   5958     1   109.5600471 388.275200
   5959   5958   5961     1   108.7700466 392.459200
   5959   5958   5960     1   107.5800459 329.699200
   5960   5958   5961     1   108.7700466 392.459200
   5964   5967   5968     1   109.8000471 387.438400
   5964   5967   5969     1   109.8000471 387.438400
   5965   5964   5967     1   109.5600471 388.275200
   5965   5964   5966     1   108.4600466 328.025600
   5966   5964   5967     1   109.5600471 388.275200
   5968   5967   5970     1   108.7700466 392.459200
   5968   5967   5969     1   107.5800459 329.699200
   5969   5967   5970     1   108.7700466 392.459200
   5974   5977   5978     1   109.8000471 387.438400
   5974   5977   5979     1   109.8000471 387.438400
   5975   5974   5977     1   109.5600471 388.275200
   5975   5974   6002     1   109.7800468 425.094400
   5975   5974   5976     1   108.4600466 328.025600
   5976   5974   5977     1   109.5600471 388.275200
   5976   5974   6002     1   109.7800468 425.094400
   5977   5980   5981     1   109.5600471 388.275200
   5977   5980   5982     1   109.5600471 388.275200
   5978   5977   5980     1   109.8000471 387.438400
   5978   5977   5979     1   107.5800459 329.699200
   5979   5977   5980     1   109.8000471 387.438400
   5981   5980   5983     1   109.8800469 414.216000
   5981   5980   5982     1   108.4600466 328.025600
   5982   5980   5983     1   109.8800469 414.216000
   5983   5984   5985     1   109.8800469 414.216000
   5983   5984   5986     1   109.8800469 414.216000
   5983   5993   5994     1   109.8800469 414.216000
   5983   5993   5995     1   109.8800469 414.216000
   5984   5987   5988     1   109.8000471 387.438400
   5984   5987   5989     1   109.8000471 387.438400
   5985   5984   5987     1   109.5600471 388.275200
   5985   5984   5986     1   108.4600466 328.025600
   5986   5984   5987     1   109.5600471 388.275200
   5988   5987   5990     1   108.7700466 392.459200
   5988   5987   5989     1   107.5800459 329.699200
   5989   5987   5990     1   108.7700466 392.459200
   5993   5996   5997     1   109.8000471 387.438400
   5993   5996   5998     1   109.8000471 387.438400
   5994   5993   5996     1   109.5600471 388.275200
   5994   5993   5995     1   108.4600466 328.025600
   5995   5993   5996     1   109.5600471 388.275200
   5997   5996   5999     1   108.7700466 392.459200
   5997   5996   5998     1   107.5800459 329.699200
   5998   5996   5999     1   108.7700466 392.459200
   6003   6006   6007     1   109.8000471 387.438400
   6003   6006   6008     1   109.8000471 387.438400
   6004   6003   6006     1   109.5600471 388.275200
   6004   6003   6031     1   109.7800468 425.094400
   6004   6003   6005     1   108.4600466 328.025600
   6005   6003   6006     1   109.5600471 388.275200
   6005   6003   6031     1   109.7800468 425.094400
   6006   6009   6010     1   109.5600471 388.275200
   6006   6009   6011     1   109.5600471 388.275200
   6007   6006   6009     1   109.8000471 387.438400
   6007   6006   6008     1   107.5800459 329.699200
   6008   6006   6009     1   109.8000471 387.438400
   6010   6009   6012     1   109.8800469 414.216000
   6010   6009   6011     1   108.4600466 328.025600
   6011   6009   6012     1   109.8800469 414.216000
   6012   6013   6014     1   109.8800469 414.216000
   6012   6013   6015     1   109.8800469 414.216000
   6012   6022   6023     1   109.8800469 414.216000
   6012   6022   6024     1   109.8800469 414.216000
   6013   6016   6017     1   109.8000471 387.438400
   6013   6016   6018     1   109.8000471 387.438400
   6014   6013   6016     1   109.5600471 388.275200
   6014   6013   6015     1   108.4600466 328.025600
   6015   6013   6016     1   109.5600471 388.275200
   6017   6016   6019     1   108.7700466 392.459200
   6017   6016   6018     1   107.5800459 329.699200
   6018   6016   6019     1   108.7700466 392.459200
   6022   6025   6026     1   109.8000471 387.438400
   6022   6025   6027     1   109.8000471 387.438400
   6023   6022   6025     1   109.5600471 388.275200
   6023   6022   6024     1   108.4600466 328.025600
   6024   6022   6025     1   109.5600471 388.275200
   6026   6025   6028     1   108.7700466 392.459200
   6026   6025   6027     1   107.5800459 329.699200
   6027   6025   6028     1   108.7700466 392.459200
   6032   6035   6036     1   109.8000471 387.438400
   6032   6035   6037     1   109.8000471 387.438400
   6033   6032   6035     1   109.5600471 388.275200
   6033   6032   6060     1   109.7800468 425.094400
   6033   6032   6034     1   108.4600466 328.025600
   6034   6032   6035     1   109.5600471 388.275200
   6034   6032   6060     1   109.7800468 425.094400
   6035   6038   6039     1   109.5600471 388.275200
   6035   6038   6040     1   109.5600471 388.275200
   6036   6035   6038     1   109.8000471 387.438400
   6036   6035   6037     1   107.5800459 329.699200
   6037   6035   6038     1   109.8000471 387.438400
   6039   6038   6041     1   109.8800469 414.216000
   6039   6038   6040     1   108.4600466 328.025600
   6040   6038   6041     1   109.8800469 414.216000
   6041   6042   6043     1   109.8800469 414.216000
   6041   6042   6044     1   109.8800469 414.216000
   6041   6051   6052     1   109.8800469 414.216000
   6041   6051   6053     1   109.8800469 414.216000
   6042   6045   6046     1   109.8000471 387.438400
   6042   6045   6047     1   109.8000471 387.438400
   6043   6042   6045     1   109.5600471 388.275200
   6043   6042   6044     1   108.4600466 328.025600
   6044   6042   6045     1   109.5600471 388.275200
   6046   6045   6048     1   108.7700466 392.459200
   6046   6045   6047     1   107.5800459 329.699200
   6047   6045   6048     1   108.7700466 392.459200
   6051   6054   6055     1   109.8000471 387.438400
   6051   6054   6056     1   109.8000471 387.438400
   6052   6051   6054     1   109.5600471 388.275200
   6052   6051   6053     1   108.4600466 328.025600
   6053   6051   6054     1   109.5600471 388.275200
   6055   6054   6057     1   108.7700466 392.459200
   6055   6054   6056     1   107.5800459 329.699200
   6056   6054   6057     1   108.7700466 392.459200
   6061   6064   6065     1   109.8000471 387.438400
   6061   6064   6066     1   109.8000471 387.438400
   6062   6061   6064     1   109.5600471 388.275200
   6062   6061   6089     1   109.7800468 425.094400
   6062   6061   6063     1   108.4600466 328.025600
   6063   6061   6064     1   109.5600471 388.275200
   6063   6061   6089     1   109.7800468 425.094400
   6064   6067   6068     1   109.5600471 388.275200
   6064   6067   6069     1   109.5600471 388.275200
   6065   6064   6067     1   109.8000471 387.438400
   6065   6064   6066     1   107.5800459 329.699200
   6066   6064   6067     1   109.8000471 387.438400
   6068   6067   6070     1   109.8800469 414.216000
   6068   6067   6069     1   108.4600466 328.025600
   6069   6067   6070     1   109.8800469 414.216000
   6070   6071   6072     1   109.8800469 414.216000
   6070   6071   6073     1   109.8800469 414.216000
   6070   6080   6081     1   109.8800469 414.216000
   6070   6080   6082     1   109.8800469 414.216000
   6071   6074   6075     1   109.8000471 387.438400
   6071   6074   6076     1   109.8000471 387.438400
   6072   6071   6074     1   109.5600471 388.275200
   6072   6071   6073     1   108.4600466 328.025600
   6073   6071   6074     1   109.5600471 388.275200
   6075   6074   6077     1   108.7700466 392.459200
   6075   6074   6076     1   107.5800459 329.699200
   6076   6074   6077     1   108.7700466 392.459200
   6080   6083   6084     1   109.8000471 387.438400
   6080   6083   6085     1   109.8000471 387.438400
   6081   6080   6083     1   109.5600471 388.275200
   6081   6080   6082     1   108.4600466 328.025600
   6082   6080   6083     1   109.5600471 388.275200
   6084   6083   6086     1   108.7700466 392.459200
   6084   6083   6085     1   107.5800459 329.699200
   6085   6083   6086     1   108.7700466 392.459200
   6090   6093   6094     1   109.8000471 387.438400
   6090   6093   6095     1   109.8000471 387.438400
   6091   6090   6093     1   109.5600471 388.275200
   6091   6090   6118     1   109.7800468 425.094400
   6091   6090   6092     1   108.4600466 328.025600
   6092   6090   6093     1   109.5600471 388.275200
   6092   6090   6118     1   109.7800468 425.094400
   6093   6096   6097     1   109.5600471 388.275200
   6093   6096   6098     1   109.5600471 388.275200
   6094   6093   6096     1   109.8000471 387.438400
   6094   6093   6095     1   107.5800459 329.699200
   6095   6093   6096     1   109.8000471 387.438400
   6097   6096   6099     1   109.8800469 414.216000
   6097   6096   6098     1   108.4600466 328.025600
   6098   6096   6099     1   109.8800469 414.216000
   6099   6100   6101     1   109.8800469 414.216000
   6099   6100   6102     1   109.8800469 414.216000
   6099   6109   6110     1   109.8800469 414.216000
   6099   6109   6111     1   109.8800469 414.216000
   6100   6103   6104     1   109.8000471 387.438400
   6100   6103   6105     1   109.8000471 387.438400
   6101   6100   6103     1   109.5600471 388.275200
   6101   6100   6102     1   108.4600466 328.025600
   6102   6100   6103     1   109.5600471 388.275200
   6104   6103   6106     1   108.7700466 392.459200
   6104   6103   6105     1   107.5800459 329.699200
   6105   6103   6106     1   108.7700466 392.459200
   6109   6112   6113     1   109.8000471 387.438400
   6109   6112   6114     1   109.8000471 387.438400
   6110   6109   6112     1   109.5600471 388.275200
   6110   6109   6111     1   108.4600466 328.025600
   6111   6109   6112     1   109.5600471 388.275200
   6113   6112   6115     1   108.7700466 392.459200
   6113   6112   6114     1   107.5800459 329.699200
   6114   6112   6115     1   108.7700466 392.459200
   6119   6122   6123     1   109.8000471 387.438400
   6119   6122   6124     1   109.8000471 387.438400
   6120   6119   6122     1   109.5600471 388.275200
   6120   6119   6147     1   109.7800468 425.094400
   6120   6119   6121     1   108.4600466 328.025600
   6121   6119   6122     1   109.5600471 388.275200
   6121   6119   6147     1   109.7800468 425.094400
   6122   6125   6126     1   109.5600471 388.275200
   6122   6125   6127     1   109.5600471 388.275200
   6123   6122   6125     1   109.8000471 387.438400
   6123   6122   6124     1   107.5800459 329.699200
   6124   6122   6125     1   109.8000471 387.438400
   6126   6125   6128     1   109.8800469 414.216000
   6126   6125   6127     1   108.4600466 328.025600
   6127   6125   6128     1   109.8800469 414.216000
   6128   6129   6130     1   109.8800469 414.216000
   6128   6129   6131     1   109.8800469 414.216000
   6128   6138   6139     1   109.8800469 414.216000
   6128   6138   6140     1   109.8800469 414.216000
   6129   6132   6133     1   109.8000471 387.438400
   6129   6132   6134     1   109.8000471 387.438400
   6130   6129   6132     1   109.5600471 388.275200
   6130   6129   6131     1   108.4600466 328.025600
   6131   6129   6132     1   109.5600471 388.275200
   6133   6132   6135     1   108.7700466 392.459200
   6133   6132   6134     1   107.5800459 329.699200
   6134   6132   6135     1   108.7700466 392.459200
   6138   6141   6142     1   109.8000471 387.438400
   6138   6141   6143     1   109.8000471 387.438400
   6139   6138   6141     1   109.5600471 388.275200
   6139   6138   6140     1   108.4600466 328.025600
   6140   6138   6141     1   109.5600471 388.275200
   6142   6141   6144     1   108.7700466 392.459200
   6142   6141   6143     1   107.5800459 329.699200
   6143   6141   6144     1   108.7700466 392.459200
   6148   6151   6152     1   109.8000471 387.438400
   6148   6151   6153     1   109.8000471 387.438400
   6149   6148   6151     1   109.5600471 388.275200
   6149   6148   6176     1   109.7800468 425.094400
   6149   6148   6150     1   108.4600466 328.025600
   6150   6148   6151     1   109.5600471 388.275200
   6150   6148   6176     1   109.7800468 425.094400
   6151   6154   6155     1   109.5600471 388.275200
   6151   6154   6156     1   109.5600471 388.275200
   6152   6151   6154     1   109.8000471 387.438400
   6152   6151   6153     1   107.5800459 329.699200
   6153   6151   6154     1   109.8000471 387.438400
   6155   6154   6157     1   109.8800469 414.216000
   6155   6154   6156     1   108.4600466 328.025600
   6156   6154   6157     1   109.8800469 414.216000
   6157   6158   6159     1   109.8800469 414.216000
   6157   6158   6160     1   109.8800469 414.216000
   6157   6167   6168     1   109.8800469 414.216000
   6157   6167   6169     1   109.8800469 414.216000
   6158   6161   6162     1   109.8000471 387.438400
   6158   6161   6163     1   109.8000471 387.438400
   6159   6158   6161     1   109.5600471 388.275200
   6159   6158   6160     1   108.4600466 328.025600
   6160   6158   6161     1   109.5600471 388.275200
   6162   6161   6164     1   108.7700466 392.459200
   6162   6161   6163     1   107.5800459 329.699200
   6163   6161   6164     1   108.7700466 392.459200
   6167   6170   6171     1   109.8000471 387.438400
   6167   6170   6172     1   109.8000471 387.438400
   6168   6167   6170     1   109.5600471 388.275200
   6168   6167   6169     1   108.4600466 328.025600
   6169   6167   6170     1   109.5600471 388.275200
   6171   6170   6173     1   108.7700466 392.459200
   6171   6170   6172     1   107.5800459 329.699200
   6172   6170   6173     1   108.7700466 392.459200
   6177   6180   6181     1   109.8000471 387.438400
   6177   6180   6182     1   109.8000471 387.438400
   6178   6177   6180     1   109.5600471 388.275200
   6178   6177   6205     1   109.7800468 425.094400
   6178   6177   6179     1   108.4600466 328.025600
   6179   6177   6180     1   109.5600471 388.275200
   6179   6177   6205     1   109.7800468 425.094400
   6180   6183   6184     1   109.5600471 388.275200
   6180   6183   6185     1   109.5600471 388.275200
   6181   6180   6183     1   109.8000471 387.438400
   6181   6180   6182     1   107.5800459 329.699200
   6182   6180   6183     1   109.8000471 387.438400
   6184   6183   6186     1   109.8800469 414.216000
   6184   6183   6185     1   108.4600466 328.025600
   6185   6183   6186     1   109.8800469 414.216000
   6186   6187   6188     1   109.8800469 414.216000
   6186   6187   6189     1   109.8800469 414.216000
   6186   6196   6197     1   109.8800469 414.216000
   6186   6196   6198     1   109.8800469 414.216000
   6187   6190   6191     1   109.8000471 387.438400
   6187   6190   6192     1   109.8000471 387.438400
   6188   6187   6190     1   109.5600471 388.275200
   6188   6187   6189     1   108.4600466 328.025600
   6189   6187   6190     1   109.5600471 388.275200
   6191   6190   6193     1   108.7700466 392.459200
   6191   6190   6192     1   107.5800459 329.699200
   6192   6190   6193     1   108.7700466 392.459200
   6196   6199   6200     1   109.8000471 387.438400
   6196   6199   6201     1   109.8000471 387.438400
   6197   6196   6199     1   109.5600471 388.275200
   6197   6196   6198     1   108.4600466 328.025600
   6198   6196   6199     1   109.5600471 388.275200
   6200   6199   6202     1   108.7700466 392.459200
   6200   6199   6201     1   107.5800459 329.699200
   6201   6199   6202     1   108.7700466 392.459200
   6206   6209   6210     1   109.8000471 387.438400
   6206   6209   6211     1   109.8000471 387.438400
   6207   6206   6209     1   109.5600471 388.275200
   6207   6206   6234     1   109.7800468 425.094400
   6207   6206   6208     1   108.4600466 328.025600
   6208   6206   6209     1   109.5600471 388.275200
   6208   6206   6234     1   109.7800468 425.094400
   6209   6212   6213     1   109.5600471 388.275200
   6209   6212   6214     1   109.5600471 388.275200
   6210   6209   6212     1   109.8000471 387.438400
   6210   6209   6211     1   107.5800459 329.699200
   6211   6209   6212     1   109.8000471 387.438400
   6213   6212   6215     1   109.8800469 414.216000
   6213   6212   6214     1   108.4600466 328.025600
   6214   6212   6215     1   109.8800469 414.216000
   6215   6216   6217     1   109.8800469 414.216000
   6215   6216   6218     1   109.8800469 414.216000
   6215   6225   6226     1   109.8800469 414.216000
   6215   6225   6227     1   109.8800469 414.216000
   6216   6219   6220     1   109.8000471 387.438400
   6216   6219   6221     1   109.8000471 387.438400
   6217   6216   6219     1   109.5600471 388.275200
   6217   6216   6218     1   108.4600466 328.025600
   6218   6216   6219     1   109.5600471 388.275200
   6220   6219   6222     1   108.7700466 392.459200
   6220   6219   6221     1   107.5800459 329.699200
   6221   6219   6222     1   108.7700466 392.459200
   6225   6228   6229     1   109.8000471 387.438400
   6225   6228   6230     1   109.8000471 387.438400
   6226   6225   6228     1   109.5600471 388.275200
   6226   6225   6227     1   108.4600466 328.025600
   6227   6225   6228     1   109.5600471 388.275200
   6229   6228   6231     1   108.7700466 392.459200
   6229   6228   6230     1   107.5800459 329.699200
   6230   6228   6231     1   108.7700466 392.459200
   6235   6238   6239     1   109.8000471 387.438400
   6235   6238   6240     1   109.8000471 387.438400
   6236   6235   6238     1   109.5600471 388.275200
   6236   6235   6263     1   109.7800468 425.094400
   6236   6235   6237     1   108.4600466 328.025600
   6237   6235   6238     1   109.5600471 388.275200
   6237   6235   6263     1   109.7800468 425.094400
   6238   6241   6242     1   109.5600471 388.275200
   6238   6241   6243     1   109.5600471 388.275200
   6239   6238   6241     1   109.8000471 387.438400
   6239   6238   6240     1   107.5800459 329.699200
   6240   6238   6241     1   109.8000471 387.438400
   6242   6241   6244     1   109.8800469 414.216000
   6242   6241   6243     1   108.4600466 328.025600
   6243   6241   6244     1   109.8800469 414.216000
   6244   6245   6246     1   109.8800469 414.216000
   6244   6245   6247     1   109.8800469 414.216000
   6244   6254   6255     1   109.8800469 414.216000
   6244   6254   6256     1   109.8800469 414.216000
   6245   6248   6249     1   109.8000471 387.438400
   6245   6248   6250     1   109.8000471 387.438400
   6246   6245   6248     1   109.5600471 388.275200
   6246   6245   6247     1   108.4600466 328.025600
   6247   6245   6248     1   109.5600471 388.275200
   6249   6248   6251     1   108.7700466 392.459200
   6249   6248   6250     1   107.5800459 329.699200
   6250   6248   6251     1   108.7700466 392.459200
   6254   6257   6258     1   109.8000471 387.438400
   6254   6257   6259     1   109.8000471 387.438400
   6255   6254   6257     1   109.5600471 388.275200
   6255   6254   6256     1   108.4600466 328.025600
   6256   6254   6257     1   109.5600471 388.275200
   6258   6257   6260     1   108.7700466 392.459200
   6258   6257   6259     1   107.5800459 329.699200
   6259   6257   6260     1   108.7700466 392.459200
   6264   6267   6268     1   109.8000471 387.438400
   6264   6267   6269     1   109.8000471 387.438400
   6265   6264   6267     1   109.5600471 388.275200
   6265   6264   6292     1   109.7800468 425.094400
   6265   6264   6266     1   108.4600466 328.025600
   6266   6264   6267     1   109.5600471 388.275200
   6266   6264   6292     1   109.7800468 425.094400
   6267   6270   6271     1   109.5600471 388.275200
   6267   6270   6272     1   109.5600471 388.275200
   6268   6267   6270     1   109.8000471 387.438400
   6268   6267   6269     1   107.5800459 329.699200
   6269   6267   6270     1   109.8000471 387.438400
   6271   6270   6273     1   109.8800469 414.216000
   6271   6270   6272     1   108.4600466 328.025600
   6272   6270   6273     1   109.8800469 414.216000
   6273   6274   6275     1   109.8800469 414.216000
   6273   6274   6276     1   109.8800469 414.216000
   6273   6283   6284     1   109.8800469 414.216000
   6273   6283   6285     1   109.8800469 414.216000
   6274   6277   6278     1   109.8000471 387.438400
   6274   6277   6279     1   109.8000471 387.438400
   6275   6274   6277     1   109.5600471 388.275200
   6275   6274   6276     1   108.4600466 328.025600
   6276   6274   6277     1   109.5600471 388.275200
   6278   6277   6280     1   108.7700466 392.459200
   6278   6277   6279     1   107.5800459 329.699200
   6279   6277   6280     1   108.7700466 392.459200
   6283   6286   6287     1   109.8000471 387.438400
   6283   6286   6288     1   109.8000471 387.438400
   6284   6283   6286     1   109.5600471 388.275200
   6284   6283   6285     1   108.4600466 328.025600
   6285   6283   6286     1   109.5600471 388.275200
   6287   6286   6289     1   108.7700466 392.459200
   6287   6286   6288     1   107.5800459 329.699200
   6288   6286   6289     1   108.7700466 392.459200
   6293   6296   6297     1   109.8000471 387.438400
   6293   6296   6298     1   109.8000471 387.438400
   6294   6293   6296     1   109.5600471 388.275200
   6294   6293   6321     1   109.7800468 425.094400
   6294   6293   6295     1   108.4600466 328.025600
   6295   6293   6296     1   109.5600471 388.275200
   6295   6293   6321     1   109.7800468 425.094400
   6296   6299   6300     1   109.5600471 388.275200
   6296   6299   6301     1   109.5600471 388.275200
   6297   6296   6299     1   109.8000471 387.438400
   6297   6296   6298     1   107.5800459 329.699200
   6298   6296   6299     1   109.8000471 387.438400
   6300   6299   6302     1   109.8800469 414.216000
   6300   6299   6301     1   108.4600466 328.025600
   6301   6299   6302     1   109.8800469 414.216000
   6302   6303   6304     1   109.8800469 414.216000
   6302   6303   6305     1   109.8800469 414.216000
   6302   6312   6313     1   109.8800469 414.216000
   6302   6312   6314     1   109.8800469 414.216000
   6303   6306   6307     1   109.8000471 387.438400
   6303   6306   6308     1   109.8000471 387.438400
   6304   6303   6306     1   109.5600471 388.275200
   6304   6303   6305     1   108.4600466 328.025600
   6305   6303   6306     1   109.5600471 388.275200
   6307   6306   6309     1   108.7700466 392.459200
   6307   6306   6308     1   107.5800459 329.699200
   6308   6306   6309     1   108.7700466 392.459200
   6312   6315   6316     1   109.8000471 387.438400
   6312   6315   6317     1   109.8000471 387.438400
   6313   6312   6315     1   109.5600471 388.275200
   6313   6312   6314     1   108.4600466 328.025600
   6314   6312   6315     1   109.5600471 388.275200
   6316   6315   6318     1   108.7700466 392.459200
   6316   6315   6317     1   107.5800459 329.699200
   6317   6315   6318     1   108.7700466 392.459200
   6322   6325   6326     1   109.8000471 387.438400
   6322   6325   6327     1   109.8000471 387.438400
   6323   6322   6325     1   109.5600471 388.275200
   6323   6322   6350     1   109.7800468 425.094400
   6323   6322   6324     1   108.4600466 328.025600
   6324   6322   6325     1   109.5600471 388.275200
   6324   6322   6350     1   109.7800468 425.094400
   6325   6328   6329     1   109.5600471 388.275200
   6325   6328   6330     1   109.5600471 388.275200
   6326   6325   6328     1   109.8000471 387.438400
   6326   6325   6327     1   107.5800459 329.699200
   6327   6325   6328     1   109.8000471 387.438400
   6329   6328   6331     1   109.8800469 414.216000
   6329   6328   6330     1   108.4600466 328.025600
   6330   6328   6331     1   109.8800469 414.216000
   6331   6332   6333     1   109.8800469 414.216000
   6331   6332   6334     1   109.8800469 414.216000
   6331   6341   6342     1   109.8800469 414.216000
   6331   6341   6343     1   109.8800469 414.216000
   6332   6335   6336     1   109.8000471 387.438400
   6332   6335   6337     1   109.8000471 387.438400
   6333   6332   6335     1   109.5600471 388.275200
   6333   6332   6334     1   108.4600466 328.025600
   6334   6332   6335     1   109.5600471 388.275200
   6336   6335   6338     1   108.7700466 392.459200
   6336   6335   6337     1   107.5800459 329.699200
   6337   6335   6338     1   108.7700466 392.459200
   6341   6344   6345     1   109.8000471 387.438400
   6341   6344   6346     1   109.8000471 387.438400
   6342   6341   6344     1   109.5600471 388.275200
   6342   6341   6343     1   108.4600466 328.025600
   6343   6341   6344     1   109.5600471 388.275200
   6345   6344   6347     1   108.7700466 392.459200
   6345   6344   6346     1   107.5800459 329.699200
   6346   6344   6347     1   108.7700466 392.459200
   6351   6354   6355     1   109.8000471 387.438400
   6351   6354   6356     1   109.8000471 387.438400
   6352   6351   6354     1   109.5600471 388.275200
   6352   6351   6379     1   109.7800468 425.094400
   6352   6351   6353     1   108.4600466 328.025600
   6353   6351   6354     1   109.5600471 388.275200
   6353   6351   6379     1   109.7800468 425.094400
   6354   6357   6358     1   109.5600471 388.275200
   6354   6357   6359     1   109.5600471 388.275200
   6355   6354   6357     1   109.8000471 387.438400
   6355   6354   6356     1   107.5800459 329.699200
   6356   6354   6357     1   109.8000471 387.438400
   6358   6357   6360     1   109.8800469 414.216000
   6358   6357   6359     1   108.4600466 328.025600
   6359   6357   6360     1   109.8800469 414.216000
   6360   6361   6362     1   109.8800469 414.216000
   6360   6361   6363     1   109.8800469 414.216000
   6360   6370   6371     1   109.8800469 414.216000
   6360   6370   6372     1   109.8800469 414.216000
   6361   6364   6365     1   109.8000471 387.438400
   6361   6364   6366     1   109.8000471 387.438400
   6362   6361   6364     1   109.5600471 388.275200
   6362   6361   6363     1   108.4600466 328.025600
   6363   6361   6364     1   109.5600471 388.275200
   6365   6364   6367     1   108.7700466 392.459200
   6365   6364   6366     1   107.5800459 329.699200
   6366   6364   6367     1   108.7700466 392.459200
   6370   6373   6374     1   109.8000471 387.438400
   6370   6373   6375     1   109.8000471 387.438400
   6371   6370   6373     1   109.5600471 388.275200
   6371   6370   6372     1   108.4600466 328.025600
   6372   6370   6373     1   109.5600471 388.275200
   6374   6373   6376     1   108.7700466 392.459200
   6374   6373   6375     1   107.5800459 329.699200
   6375   6373   6376     1   108.7700466 392.459200
   6380   6383   6384     1   109.8000471 387.438400
   6380   6383   6385     1   109.8000471 387.438400
   6381   6380   6383     1   109.5600471 388.275200
   6381   6380   6408     1   109.7800468 425.094400
   6381   6380   6382     1   108.4600466 328.025600
   6382   6380   6383     1   109.5600471 388.275200
   6382   6380   6408     1   109.7800468 425.094400
   6383   6386   6387     1   109.5600471 388.275200
   6383   6386   6388     1   109.5600471 388.275200
   6384   6383   6386     1   109.8000471 387.438400
   6384   6383   6385     1   107.5800459 329.699200
   6385   6383   6386     1   109.8000471 387.438400
   6387   6386   6389     1   109.8800469 414.216000
   6387   6386   6388     1   108.4600466 328.025600
   6388   6386   6389     1   109.8800469 414.216000
   6389   6390   6391     1   109.8800469 414.216000
   6389   6390   6392     1   109.8800469 414.216000
   6389   6399   6400     1   109.8800469 414.216000
   6389   6399   6401     1   109.8800469 414.216000
   6390   6393   6394     1   109.8000471 387.438400
   6390   6393   6395     1   109.8000471 387.438400
   6391   6390   6393     1   109.5600471 388.275200
   6391   6390   6392     1   108.4600466 328.025600
   6392   6390   6393     1   109.5600471 388.275200
   6394   6393   6396     1   108.7700466 392.459200
   6394   6393   6395     1   107.5800459 329.699200
   6395   6393   6396     1   108.7700466 392.459200
   6399   6402   6403     1   109.8000471 387.438400
   6399   6402   6404     1   109.8000471 387.438400
   6400   6399   6402     1   109.5600471 388.275200
   6400   6399   6401     1   108.4600466 328.025600
   6401   6399   6402     1   109.5600471 388.275200
   6403   6402   6405     1   108.7700466 392.459200
   6403   6402   6404     1   107.5800459 329.699200
   6404   6402   6405     1   108.7700466 392.459200
   6409   6412   6413     1   109.8000471 387.438400
   6409   6412   6414     1   109.8000471 387.438400
   6410   6409   6412     1   109.5600471 388.275200
   6410   6409   6437     1   109.7800468 425.094400
   6410   6409   6411     1   108.4600466 328.025600
   6411   6409   6412     1   109.5600471 388.275200
   6411   6409   6437     1   109.7800468 425.094400
   6412   6415   6416     1   109.5600471 388.275200
   6412   6415   6417     1   109.5600471 388.275200
   6413   6412   6415     1   109.8000471 387.438400
   6413   6412   6414     1   107.5800459 329.699200
   6414   6412   6415     1   109.8000471 387.438400
   6416   6415   6418     1   109.8800469 414.216000
   6416   6415   6417     1   108.4600466 328.025600
   6417   6415   6418     1   109.8800469 414.216000
   6418   6419   6420     1   109.8800469 414.216000
   6418   6419   6421     1   109.8800469 414.216000
   6418   6428   6429     1   109.8800469 414.216000
   6418   6428   6430     1   109.8800469 414.216000
   6419   6422   6423     1   109.8000471 387.438400
   6419   6422   6424     1   109.8000471 387.438400
   6420   6419   6422     1   109.5600471 388.275200
   6420   6419   6421     1   108.4600466 328.025600
   6421   6419   6422     1   109.5600471 388.275200
   6423   6422   6425     1   108.7700466 392.459200
   6423   6422   6424     1   107.5800459 329.699200
   6424   6422   6425     1   108.7700466 392.459200
   6428   6431   6432     1   109.8000471 387.438400
   6428   6431   6433     1   109.8000471 387.438400
   6429   6428   6431     1   109.5600471 388.275200
   6429   6428   6430     1   108.4600466 328.025600
   6430   6428   6431     1   109.5600471 388.275200
   6432   6431   6434     1   108.7700466 392.459200
   6432   6431   6433     1   107.5800459 329.699200
   6433   6431   6434     1   108.7700466 392.459200
   6438   6441   6442     1   109.8000471 387.438400
   6438   6441   6443     1   109.8000471 387.438400
   6439   6438   6441     1   109.5600471 388.275200
   6439   6438   6466     1   109.7800468 425.094400
   6439   6438   6440     1   108.4600466 328.025600
   6440   6438   6441     1   109.5600471 388.275200
   6440   6438   6466     1   109.7800468 425.094400
   6441   6444   6445     1   109.5600471 388.275200
   6441   6444   6446     1   109.5600471 388.275200
   6442   6441   6444     1   109.8000471 387.438400
   6442   6441   6443     1   107.5800459 329.699200
   6443   6441   6444     1   109.8000471 387.438400
   6445   6444   6447     1   109.8800469 414.216000
   6445   6444   6446     1   108.4600466 328.025600
   6446   6444   6447     1   109.8800469 414.216000
   6447   6448   6449     1   109.8800469 414.216000
   6447   6448   6450     1   109.8800469 414.216000
   6447   6457   6458     1   109.8800469 414.216000
   6447   6457   6459     1   109.8800469 414.216000
   6448   6451   6452     1   109.8000471 387.438400
   6448   6451   6453     1   109.8000471 387.438400
   6449   6448   6451     1   109.5600471 388.275200
   6449   6448   6450     1   108.4600466 328.025600
   6450   6448   6451     1   109.5600471 388.275200
   6452   6451   6454     1   108.7700466 392.459200
   6452   6451   6453     1   107.5800459 329.699200
   6453   6451   6454     1   108.7700466 392.459200
   6457   6460   6461     1   109.8000471 387.438400
   6457   6460   6462     1   109.8000471 387.438400
   6458   6457   6460     1   109.5600471 388.275200
   6458   6457   6459     1   108.4600466 328.025600
   6459   6457   6460     1   109.5600471 388.275200
   6461   6460   6463     1   108.7700466 392.459200
   6461   6460   6462     1   107.5800459 329.699200
   6462   6460   6463     1   108.7700466 392.459200
   6467   6470   6471     1   109.8000471 387.438400
   6467   6470   6472     1   109.8000471 387.438400
   6468   6467   6470     1   109.5600471 388.275200
   6468   6467   6495     1   109.7800468 425.094400
   6468   6467   6469     1   108.4600466 328.025600
   6469   6467   6470     1   109.5600471 388.275200
   6469   6467   6495     1   109.7800468 425.094400
   6470   6473   6474     1   109.5600471 388.275200
   6470   6473   6475     1   109.5600471 388.275200
   6471   6470   6473     1   109.8000471 387.438400
   6471   6470   6472     1   107.5800459 329.699200
   6472   6470   6473     1   109.8000471 387.438400
   6474   6473   6476     1   109.8800469 414.216000
   6474   6473   6475     1   108.4600466 328.025600
   6475   6473   6476     1   109.8800469 414.216000
   6476   6477   6478     1   109.8800469 414.216000
   6476   6477   6479     1   109.8800469 414.216000
   6476   6486   6487     1   109.8800469 414.216000
   6476   6486   6488     1   109.8800469 414.216000
   6477   6480   6481     1   109.8000471 387.438400
   6477   6480   6482     1   109.8000471 387.438400
   6478   6477   6480     1   109.5600471 388.275200
   6478   6477   6479     1   108.4600466 328.025600
   6479   6477   6480     1   109.5600471 388.275200
   6481   6480   6483     1   108.7700466 392.459200
   6481   6480   6482     1   107.5800459 329.699200
   6482   6480   6483     1   108.7700466 392.459200
   6486   6489   6490     1   109.8000471 387.438400
   6486   6489   6491     1   109.8000471 387.438400
   6487   6486   6489     1   109.5600471 388.275200
   6487   6486   6488     1   108.4600466 328.025600
   6488   6486   6489     1   109.5600471 388.275200
   6490   6489   6492     1   108.7700466 392.459200
   6490   6489   6491     1   107.5800459 329.699200
   6491   6489   6492     1   108.7700466 392.459200
   6496   6499   6500     1   109.8000471 387.438400
   6496   6499   6501     1   109.8000471 387.438400
   6497   6496   6499     1   109.5600471 388.275200
   6497   6496   6524     1   109.7800468 425.094400
   6497   6496   6498     1   108.4600466 328.025600
   6498   6496   6499     1   109.5600471 388.275200
   6498   6496   6524     1   109.7800468 425.094400
   6499   6502   6503     1   109.5600471 388.275200
   6499   6502   6504     1   109.5600471 388.275200
   6500   6499   6502     1   109.8000471 387.438400
   6500   6499   6501     1   107.5800459 329.699200
   6501   6499   6502     1   109.8000471 387.438400
   6503   6502   6505     1   109.8800469 414.216000
   6503   6502   6504     1   108.4600466 328.025600
   6504   6502   6505     1   109.8800469 414.216000
   6505   6506   6507     1   109.8800469 414.216000
   6505   6506   6508     1   109.8800469 414.216000
   6505   6515   6516     1   109.8800469 414.216000
   6505   6515   6517     1   109.8800469 414.216000
   6506   6509   6510     1   109.8000471 387.438400
   6506   6509   6511     1   109.8000471 387.438400
   6507   6506   6509     1   109.5600471 388.275200
   6507   6506   6508     1   108.4600466 328.025600
   6508   6506   6509     1   109.5600471 388.275200
   6510   6509   6512     1   108.7700466 392.459200
   6510   6509   6511     1   107.5800459 329.699200
   6511   6509   6512     1   108.7700466 392.459200
   6515   6518   6519     1   109.8000471 387.438400
   6515   6518   6520     1   109.8000471 387.438400
   6516   6515   6518     1   109.5600471 388.275200
   6516   6515   6517     1   108.4600466 328.025600
   6517   6515   6518     1   109.5600471 388.275200
   6519   6518   6521     1   108.7700466 392.459200
   6519   6518   6520     1   107.5800459 329.699200
   6520   6518   6521     1   108.7700466 392.459200
   6525   6528   6529     1   109.8000471 387.438400
   6525   6528   6530     1   109.8000471 387.438400
   6526   6525   6528     1   109.5600471 388.275200
   6526   6525   6553     1   109.7800468 425.094400
   6526   6525   6527     1   108.4600466 328.025600
   6527   6525   6528     1   109.5600471 388.275200
   6527   6525   6553     1   109.7800468 425.094400
   6528   6531   6532     1   109.5600471 388.275200
   6528   6531   6533     1   109.5600471 388.275200
   6529   6528   6531     1   109.8000471 387.438400
   6529   6528   6530     1   107.5800459 329.699200
   6530   6528   6531     1   109.8000471 387.438400
   6532   6531   6534     1   109.8800469 414.216000
   6532   6531   6533     1   108.4600466 328.025600
   6533   6531   6534     1   109.8800469 414.216000
   6534   6535   6536     1   109.8800469 414.216000
   6534   6535   6537     1   109.8800469 414.216000
   6534   6544   6545     1   109.8800469 414.216000
   6534   6544   6546     1   109.8800469 414.216000
   6535   6538   6539     1   109.8000471 387.438400
   6535   6538   6540     1   109.8000471 387.438400
   6536   6535   6538     1   109.5600471 388.275200
   6536   6535   6537     1   108.4600466 328.025600
   6537   6535   6538     1   109.5600471 388.275200
   6539   6538   6541     1   108.7700466 392.459200
   6539   6538   6540     1   107.5800459 329.699200
   6540   6538   6541     1   108.7700466 392.459200
   6544   6547   6548     1   109.8000471 387.438400
   6544   6547   6549     1   109.8000471 387.438400
   6545   6544   6547     1   109.5600471 388.275200
   6545   6544   6546     1   108.4600466 328.025600
   6546   6544   6547     1   109.5600471 388.275200
   6548   6547   6550     1   108.7700466 392.459200
   6548   6547   6549     1   107.5800459 329.699200
   6549   6547   6550     1   108.7700466 392.459200
   6554   6557   6558     1   109.8000471 387.438400
   6554   6557   6559     1   109.8000471 387.438400
   6555   6554   6557     1   109.5600471 388.275200
   6555   6554   6582     1   109.7800468 425.094400
   6555   6554   6556     1   108.4600466 328.025600
   6556   6554   6557     1   109.5600471 388.275200
   6556   6554   6582     1   109.7800468 425.094400
   6557   6560   6561     1   109.5600471 388.275200
   6557   6560   6562     1   109.5600471 388.275200
   6558   6557   6560     1   109.8000471 387.438400
   6558   6557   6559     1   107.5800459 329.699200
   6559   6557   6560     1   109.8000471 387.438400
   6561   6560   6563     1   109.8800469 414.216000
   6561   6560   6562     1   108.4600466 328.025600
   6562   6560   6563     1   109.8800469 414.216000
   6563   6564   6565     1   109.8800469 414.216000
   6563   6564   6566     1   109.8800469 414.216000
   6563   6573   6574     1   109.8800469 414.216000
   6563   6573   6575     1   109.8800469 414.216000
   6564   6567   6568     1   109.8000471 387.438400
   6564   6567   6569     1   109.8000471 387.438400
   6565   6564   6567     1   109.5600471 388.275200
   6565   6564   6566     1   108.4600466 328.025600
   6566   6564   6567     1   109.5600471 388.275200
   6568   6567   6570     1   108.7700466 392.459200
   6568   6567   6569     1   107.5800459 329.699200
   6569   6567   6570     1   108.7700466 392.459200
   6573   6576   6577     1   109.8000471 387.438400
   6573   6576   6578     1   109.8000471 387.438400
   6574   6573   6576     1   109.5600471 388.275200
   6574   6573   6575     1   108.4600466 328.025600
   6575   6573   6576     1   109.5600471 388.275200
   6577   6576   6579     1   108.7700466 392.459200
   6577   6576   6578     1   107.5800459 329.699200
   6578   6576   6579     1   108.7700466 392.459200
   6583   6586   6587     1   109.8000471 387.438400
   6583   6586   6588     1   109.8000471 387.438400
   6584   6583   6586     1   109.5600471 388.275200
   6584   6583   6611     1   109.7800468 425.094400
   6584   6583   6585     1   108.4600466 328.025600
   6585   6583   6586     1   109.5600471 388.275200
   6585   6583   6611     1   109.7800468 425.094400
   6586   6589   6590     1   109.5600471 388.275200
   6586   6589   6591     1   109.5600471 388.275200
   6587   6586   6589     1   109.8000471 387.438400
   6587   6586   6588     1   107.5800459 329.699200
   6588   6586   6589     1   109.8000471 387.438400
   6590   6589   6592     1   109.8800469 414.216000
   6590   6589   6591     1   108.4600466 328.025600
   6591   6589   6592     1   109.8800469 414.216000
   6592   6593   6594     1   109.8800469 414.216000
   6592   6593   6595     1   109.8800469 414.216000
   6592   6602   6603     1   109.8800469 414.216000
   6592   6602   6604     1   109.8800469 414.216000
   6593   6596   6597     1   109.8000471 387.438400
   6593   6596   6598     1   109.8000471 387.438400
   6594   6593   6596     1   109.5600471 388.275200
   6594   6593   6595     1   108.4600466 328.025600
   6595   6593   6596     1   109.5600471 388.275200
   6597   6596   6599     1   108.7700466 392.459200
   6597   6596   6598     1   107.5800459 329.699200
   6598   6596   6599     1   108.7700466 392.459200
   6602   6605   6606     1   109.8000471 387.438400
   6602   6605   6607     1   109.8000471 387.438400
   6603   6602   6605     1   109.5600471 388.275200
   6603   6602   6604     1   108.4600466 328.025600
   6604   6602   6605     1   109.5600471 388.275200
   6606   6605   6608     1   108.7700466 392.459200
   6606   6605   6607     1   107.5800459 329.699200
   6607   6605   6608     1   108.7700466 392.459200
   6612   6615   6616     1   109.8000471 387.438400
   6612   6615   6617     1   109.8000471 387.438400
   6613   6612   6615     1   109.5600471 388.275200
   6613   6612   6640     1   109.7800468 425.094400
   6613   6612   6614     1   108.4600466 328.025600
   6614   6612   6615     1   109.5600471 388.275200
   6614   6612   6640     1   109.7800468 425.094400
   6615   6618   6619     1   109.5600471 388.275200
   6615   6618   6620     1   109.5600471 388.275200
   6616   6615   6618     1   109.8000471 387.438400
   6616   6615   6617     1   107.5800459 329.699200
   6617   6615   6618     1   109.8000471 387.438400
   6619   6618   6621     1   109.8800469 414.216000
   6619   6618   6620     1   108.4600466 328.025600
   6620   6618   6621     1   109.8800469 414.216000
   6621   6622   6623     1   109.8800469 414.216000
   6621   6622   6624     1   109.8800469 414.216000
   6621   6631   6632     1   109.8800469 414.216000
   6621   6631   6633     1   109.8800469 414.216000
   6622   6625   6626     1   109.8000471 387.438400
   6622   6625   6627     1   109.8000471 387.438400
   6623   6622   6625     1   109.5600471 388.275200
   6623   6622   6624     1   108.4600466 328.025600
   6624   6622   6625     1   109.5600471 388.275200
   6626   6625   6628     1   108.7700466 392.459200
   6626   6625   6627     1   107.5800459 329.699200
   6627   6625   6628     1   108.7700466 392.459200
   6631   6634   6635     1   109.8000471 387.438400
   6631   6634   6636     1   109.8000471 387.438400
   6632   6631   6634     1   109.5600471 388.275200
   6632   6631   6633     1   108.4600466 328.025600
   6633   6631   6634     1   109.5600471 388.275200
   6635   6634   6637     1   108.7700466 392.459200
   6635   6634   6636     1   107.5800459 329.699200
   6636   6634   6637     1   108.7700466 392.459200
   6641   6644   6645     1   109.8000471 387.438400
   6641   6644   6646     1   109.8000471 387.438400
   6642   6641   6644     1   109.5600471 388.275200
   6642   6641   6669     1   109.7800468 425.094400
   6642   6641   6643     1   108.4600466 328.025600
   6643   6641   6644     1   109.5600471 388.275200
   6643   6641   6669     1   109.7800468 425.094400
   6644   6647   6648     1   109.5600471 388.275200
   6644   6647   6649     1   109.5600471 388.275200
   6645   6644   6647     1   109.8000471 387.438400
   6645   6644   6646     1   107.5800459 329.699200
   6646   6644   6647     1   109.8000471 387.438400
   6648   6647   6650     1   109.8800469 414.216000
   6648   6647   6649     1   108.4600466 328.025600
   6649   6647   6650     1   109.8800469 414.216000
   6650   6651   6652     1   109.8800469 414.216000
   6650   6651   6653     1   109.8800469 414.216000
   6650   6660   6661     1   109.8800469 414.216000
   6650   6660   6662     1   109.8800469 414.216000
   6651   6654   6655     1   109.8000471 387.438400
   6651   6654   6656     1   109.8000471 387.438400
   6652   6651   6654     1   109.5600471 388.275200
   6652   6651   6653     1   108.4600466 328.025600
   6653   6651   6654     1   109.5600471 388.275200
   6655   6654   6657     1   108.7700466 392.459200
   6655   6654   6656     1   107.5800459 329.699200
   6656   6654   6657     1   108.7700466 392.459200
   6660   6663   6664     1   109.8000471 387.438400
   6660   6663   6665     1   109.8000471 387.438400
   6661   6660   6663     1   109.5600471 388.275200
   6661   6660   6662     1   108.4600466 328.025600
   6662   6660   6663     1   109.5600471 388.275200
   6664   6663   6666     1   108.7700466 392.459200
   6664   6663   6665     1   107.5800459 329.699200
   6665   6663   6666     1   108.7700466 392.459200
   6670   6673   6674     1   109.8000471 387.438400
   6670   6673   6675     1   109.8000471 387.438400
   6671   6670   6673     1   109.5600471 388.275200
   6671   6670   6698     1   109.7800468 425.094400
   6671   6670   6672     1   108.4600466 328.025600
   6672   6670   6673     1   109.5600471 388.275200
   6672   6670   6698     1   109.7800468 425.094400
   6673   6676   6677     1   109.5600471 388.275200
   6673   6676   6678     1   109.5600471 388.275200
   6674   6673   6676     1   109.8000471 387.438400
   6674   6673   6675     1   107.5800459 329.699200
   6675   6673   6676     1   109.8000471 387.438400
   6677   6676   6679     1   109.8800469 414.216000
   6677   6676   6678     1   108.4600466 328.025600
   6678   6676   6679     1   109.8800469 414.216000
   6679   6680   6681     1   109.8800469 414.216000
   6679   6680   6682     1   109.8800469 414.216000
   6679   6689   6690     1   109.8800469 414.216000
   6679   6689   6691     1   109.8800469 414.216000
   6680   6683   6684     1   109.8000471 387.438400
   6680   6683   6685     1   109.8000471 387.438400
   6681   6680   6683     1   109.5600471 388.275200
   6681   6680   6682     1   108.4600466 328.025600
   6682   6680   6683     1   109.5600471 388.275200
   6684   6683   6686     1   108.7700466 392.459200
   6684   6683   6685     1   107.5800459 329.699200
   6685   6683   6686     1   108.7700466 392.459200
   6689   6692   6693     1   109.8000471 387.438400
   6689   6692   6694     1   109.8000471 387.438400
   6690   6689   6692     1   109.5600471 388.275200
   6690   6689   6691     1   108.4600466 328.025600
   6691   6689   6692     1   109.5600471 388.275200
   6693   6692   6695     1   108.7700466 392.459200
   6693   6692   6694     1   107.5800459 329.699200
   6694   6692   6695     1   108.7700466 392.459200
   6699   6702   6703     1   109.8000471 387.438400
   6699   6702   6704     1   109.8000471 387.438400
   6700   6699   6702     1   109.5600471 388.275200
   6700   6699   6727     1   109.7800468 425.094400
   6700   6699   6701     1   108.4600466 328.025600
   6701   6699   6702     1   109.5600471 388.275200
   6701   6699   6727     1   109.7800468 425.094400
   6702   6705   6706     1   109.5600471 388.275200
   6702   6705   6707     1   109.5600471 388.275200
   6703   6702   6705     1   109.8000471 387.438400
   6703   6702   6704     1   107.5800459 329.699200
   6704   6702   6705     1   109.8000471 387.438400
   6706   6705   6708     1   109.8800469 414.216000
   6706   6705   6707     1   108.4600466 328.025600
   6707   6705   6708     1   109.8800469 414.216000
   6708   6709   6710     1   109.8800469 414.216000
   6708   6709   6711     1   109.8800469 414.216000
   6708   6718   6719     1   109.8800469 414.216000
   6708   6718   6720     1   109.8800469 414.216000
   6709   6712   6713     1   109.8000471 387.438400
   6709   6712   6714     1   109.8000471 387.438400
   6710   6709   6712     1   109.5600471 388.275200
   6710   6709   6711     1   108.4600466 328.025600
   6711   6709   6712     1   109.5600471 388.275200
   6713   6712   6715     1   108.7700466 392.459200
   6713   6712   6714     1   107.5800459 329.699200
   6714   6712   6715     1   108.7700466 392.459200
   6718   6721   6722     1   109.8000471 387.438400
   6718   6721   6723     1   109.8000471 387.438400
   6719   6718   6721     1   109.5600471 388.275200
   6719   6718   6720     1   108.4600466 328.025600
   6720   6718   6721     1   109.5600471 388.275200
   6722   6721   6724     1   108.7700466 392.459200
   6722   6721   6723     1   107.5800459 329.699200
   6723   6721   6724     1   108.7700466 392.459200
   6728   6731   6732     1   109.8000471 387.438400
   6728   6731   6733     1   109.8000471 387.438400
   6729   6728   6731     1   109.5600471 388.275200
   6729   6728   6756     1   109.7800468 425.094400
   6729   6728   6730     1   108.4600466 328.025600
   6730   6728   6731     1   109.5600471 388.275200
   6730   6728   6756     1   109.7800468 425.094400
   6731   6734   6735     1   109.5600471 388.275200
   6731   6734   6736     1   109.5600471 388.275200
   6732   6731   6734     1   109.8000471 387.438400
   6732   6731   6733     1   107.5800459 329.699200
   6733   6731   6734     1   109.8000471 387.438400
   6735   6734   6737     1   109.8800469 414.216000
   6735   6734   6736     1   108.4600466 328.025600
   6736   6734   6737     1   109.8800469 414.216000
   6737   6738   6739     1   109.8800469 414.216000
   6737   6738   6740     1   109.8800469 414.216000
   6737   6747   6748     1   109.8800469 414.216000
   6737   6747   6749     1   109.8800469 414.216000
   6738   6741   6742     1   109.8000471 387.438400
   6738   6741   6743     1   109.8000471 387.438400
   6739   6738   6741     1   109.5600471 388.275200
   6739   6738   6740     1   108.4600466 328.025600
   6740   6738   6741     1   109.5600471 388.275200
   6742   6741   6744     1   108.7700466 392.459200
   6742   6741   6743     1   107.5800459 329.699200
   6743   6741   6744     1   108.7700466 392.459200
   6747   6750   6751     1   109.8000471 387.438400
   6747   6750   6752     1   109.8000471 387.438400
   6748   6747   6750     1   109.5600471 388.275200
   6748   6747   6749     1   108.4600466 328.025600
   6749   6747   6750     1   109.5600471 388.275200
   6751   6750   6753     1   108.7700466 392.459200
   6751   6750   6752     1   107.5800459 329.699200
   6752   6750   6753     1   108.7700466 392.459200
   6757   6760   6761     1   109.8000471 387.438400
   6757   6760   6762     1   109.8000471 387.438400
   6758   6757   6760     1   109.5600471 388.275200
   6758   6757   6785     1   109.7800468 425.094400
   6758   6757   6759     1   108.4600466 328.025600
   6759   6757   6760     1   109.5600471 388.275200
   6759   6757   6785     1   109.7800468 425.094400
   6760   6763   6764     1   109.5600471 388.275200
   6760   6763   6765     1   109.5600471 388.275200
   6761   6760   6763     1   109.8000471 387.438400
   6761   6760   6762     1   107.5800459 329.699200
   6762   6760   6763     1   109.8000471 387.438400
   6764   6763   6766     1   109.8800469 414.216000
   6764   6763   6765     1   108.4600466 328.025600
   6765   6763   6766     1   109.8800469 414.216000
   6766   6767   6768     1   109.8800469 414.216000
   6766   6767   6769     1   109.8800469 414.216000
   6766   6776   6777     1   109.8800469 414.216000
   6766   6776   6778     1   109.8800469 414.216000
   6767   6770   6771     1   109.8000471 387.438400
   6767   6770   6772     1   109.8000471 387.438400
   6768   6767   6770     1   109.5600471 388.275200
   6768   6767   6769     1   108.4600466 328.025600
   6769   6767   6770     1   109.5600471 388.275200
   6771   6770   6773     1   108.7700466 392.459200
   6771   6770   6772     1   107.5800459 329.699200
   6772   6770   6773     1   108.7700466 392.459200
   6776   6779   6780     1   109.8000471 387.438400
   6776   6779   6781     1   109.8000471 387.438400
   6777   6776   6779     1   109.5600471 388.275200
   6777   6776   6778     1   108.4600466 328.025600
   6778   6776   6779     1   109.5600471 388.275200
   6780   6779   6782     1   108.7700466 392.459200
   6780   6779   6781     1   107.5800459 329.699200
   6781   6779   6782     1   108.7700466 392.459200
   6786   6789   6790     1   109.8000471 387.438400
   6786   6789   6791     1   109.8000471 387.438400
   6787   6786   6789     1   109.5600471 388.275200
   6787   6786   6814     1   109.7800468 425.094400
   6787   6786   6788     1   108.4600466 328.025600
   6788   6786   6789     1   109.5600471 388.275200
   6788   6786   6814     1   109.7800468 425.094400
   6789   6792   6793     1   109.5600471 388.275200
   6789   6792   6794     1   109.5600471 388.275200
   6790   6789   6792     1   109.8000471 387.438400
   6790   6789   6791     1   107.5800459 329.699200
   6791   6789   6792     1   109.8000471 387.438400
   6793   6792   6795     1   109.8800469 414.216000
   6793   6792   6794     1   108.4600466 328.025600
   6794   6792   6795     1   109.8800469 414.216000
   6795   6796   6797     1   109.8800469 414.216000
   6795   6796   6798     1   109.8800469 414.216000
   6795   6805   6806     1   109.8800469 414.216000
   6795   6805   6807     1   109.8800469 414.216000
   6796   6799   6800     1   109.8000471 387.438400
   6796   6799   6801     1   109.8000471 387.438400
   6797   6796   6799     1   109.5600471 388.275200
   6797   6796   6798     1   108.4600466 328.025600
   6798   6796   6799     1   109.5600471 388.275200
   6800   6799   6802     1   108.7700466 392.459200
   6800   6799   6801     1   107.5800459 329.699200
   6801   6799   6802     1   108.7700466 392.459200
   6805   6808   6809     1   109.8000471 387.438400
   6805   6808   6810     1   109.8000471 387.438400
   6806   6805   6808     1   109.5600471 388.275200
   6806   6805   6807     1   108.4600466 328.025600
   6807   6805   6808     1   109.5600471 388.275200
   6809   6808   6811     1   108.7700466 392.459200
   6809   6808   6810     1   107.5800459 329.699200
   6810   6808   6811     1   108.7700466 392.459200
   6815   6818   6819     1   109.8000471 387.438400
   6815   6818   6820     1   109.8000471 387.438400
   6816   6815   6818     1   109.5600471 388.275200
   6816   6815   6843     1   109.7800468 425.094400
   6816   6815   6817     1   108.4600466 328.025600
   6817   6815   6818     1   109.5600471 388.275200
   6817   6815   6843     1   109.7800468 425.094400
   6818   6821   6822     1   109.5600471 388.275200
   6818   6821   6823     1   109.5600471 388.275200
   6819   6818   6821     1   109.8000471 387.438400
   6819   6818   6820     1   107.5800459 329.699200
   6820   6818   6821     1   109.8000471 387.438400
   6822   6821   6824     1   109.8800469 414.216000
   6822   6821   6823     1   108.4600466 328.025600
   6823   6821   6824     1   109.8800469 414.216000
   6824   6825   6826     1   109.8800469 414.216000
   6824   6825   6827     1   109.8800469 414.216000
   6824   6834   6835     1   109.8800469 414.216000
   6824   6834   6836     1   109.8800469 414.216000
   6825   6828   6829     1   109.8000471 387.438400
   6825   6828   6830     1   109.8000471 387.438400
   6826   6825   6828     1   109.5600471 388.275200
   6826   6825   6827     1   108.4600466 328.025600
   6827   6825   6828     1   109.5600471 388.275200
   6829   6828   6831     1   108.7700466 392.459200
   6829   6828   6830     1   107.5800459 329.699200
   6830   6828   6831     1   108.7700466 392.459200
   6834   6837   6838     1   109.8000471 387.438400
   6834   6837   6839     1   109.8000471 387.438400
   6835   6834   6837     1   109.5600471 388.275200
   6835   6834   6836     1   108.4600466 328.025600
   6836   6834   6837     1   109.5600471 388.275200
   6838   6837   6840     1   108.7700466 392.459200
   6838   6837   6839     1   107.5800459 329.699200
   6839   6837   6840     1   108.7700466 392.459200
   6844   6847   6848     1   109.8000471 387.438400
   6844   6847   6849     1   109.8000471 387.438400
   6845   6844   6847     1   109.5600471 388.275200
   6845   6844   6872     1   109.7800468 425.094400
   6845   6844   6846     1   108.4600466 328.025600
   6846   6844   6847     1   109.5600471 388.275200
   6846   6844   6872     1   109.7800468 425.094400
   6847   6850   6851     1   109.5600471 388.275200
   6847   6850   6852     1   109.5600471 388.275200
   6848   6847   6850     1   109.8000471 387.438400
   6848   6847   6849     1   107.5800459 329.699200
   6849   6847   6850     1   109.8000471 387.438400
   6851   6850   6853     1   109.8800469 414.216000
   6851   6850   6852     1   108.4600466 328.025600
   6852   6850   6853     1   109.8800469 414.216000
   6853   6854   6855     1   109.8800469 414.216000
   6853   6854   6856     1   109.8800469 414.216000
   6853   6863   6864     1   109.8800469 414.216000
   6853   6863   6865     1   109.8800469 414.216000
   6854   6857   6858     1   109.8000471 387.438400
   6854   6857   6859     1   109.8000471 387.438400
   6855   6854   6857     1   109.5600471 388.275200
   6855   6854   6856     1   108.4600466 328.025600
   6856   6854   6857     1   109.5600471 388.275200
   6858   6857   6860     1   108.7700466 392.459200
   6858   6857   6859     1   107.5800459 329.699200
   6859   6857   6860     1   108.7700466 392.459200
   6863   6866   6867     1   109.8000471 387.438400
   6863   6866   6868     1   109.8000471 387.438400
   6864   6863   6866     1   109.5600471 388.275200
   6864   6863   6865     1   108.4600466 328.025600
   6865   6863   6866     1   109.5600471 388.275200
   6867   6866   6869     1   108.7700466 392.459200
   6867   6866   6868     1   107.5800459 329.699200
   6868   6866   6869     1   108.7700466 392.459200
   6873   6876   6877     1   109.8000471 387.438400
   6873   6876   6878     1   109.8000471 387.438400
   6874   6873   6876     1   109.5600471 388.275200
   6874   6873   6901     1   109.7800468 425.094400
   6874   6873   6875     1   108.4600466 328.025600
   6875   6873   6876     1   109.5600471 388.275200
   6875   6873   6901     1   109.7800468 425.094400
   6876   6879   6880     1   109.5600471 388.275200
   6876   6879   6881     1   109.5600471 388.275200
   6877   6876   6879     1   109.8000471 387.438400
   6877   6876   6878     1   107.5800459 329.699200
   6878   6876   6879     1   109.8000471 387.438400
   6880   6879   6882     1   109.8800469 414.216000
   6880   6879   6881     1   108.4600466 328.025600
   6881   6879   6882     1   109.8800469 414.216000
   6882   6883   6884     1   109.8800469 414.216000
   6882   6883   6885     1   109.8800469 414.216000
   6882   6892   6893     1   109.8800469 414.216000
   6882   6892   6894     1   109.8800469 414.216000
   6883   6886   6887     1   109.8000471 387.438400
   6883   6886   6888     1   109.8000471 387.438400
   6884   6883   6886     1   109.5600471 388.275200
   6884   6883   6885     1   108.4600466 328.025600
   6885   6883   6886     1   109.5600471 388.275200
   6887   6886   6889     1   108.7700466 392.459200
   6887   6886   6888     1   107.5800459 329.699200
   6888   6886   6889     1   108.7700466 392.459200
   6892   6895   6896     1   109.8000471 387.438400
   6892   6895   6897     1   109.8000471 387.438400
   6893   6892   6895     1   109.5600471 388.275200
   6893   6892   6894     1   108.4600466 328.025600
   6894   6892   6895     1   109.5600471 388.275200
   6896   6895   6898     1   108.7700466 392.459200
   6896   6895   6897     1   107.5800459 329.699200
   6897   6895   6898     1   108.7700466 392.459200
   6902   6905   6906     1   109.8000471 387.438400
   6902   6905   6907     1   109.8000471 387.438400
   6903   6902   6905     1   109.5600471 388.275200
   6903   6902   6930     1   109.7800468 425.094400
   6903   6902   6904     1   108.4600466 328.025600
   6904   6902   6905     1   109.5600471 388.275200
   6904   6902   6930     1   109.7800468 425.094400
   6905   6908   6909     1   109.5600471 388.275200
   6905   6908   6910     1   109.5600471 388.275200
   6906   6905   6908     1   109.8000471 387.438400
   6906   6905   6907     1   107.5800459 329.699200
   6907   6905   6908     1   109.8000471 387.438400
   6909   6908   6911     1   109.8800469 414.216000
   6909   6908   6910     1   108.4600466 328.025600
   6910   6908   6911     1   109.8800469 414.216000
   6911   6912   6913     1   109.8800469 414.216000
   6911   6912   6914     1   109.8800469 414.216000
   6911   6921   6922     1   109.8800469 414.216000
   6911   6921   6923     1   109.8800469 414.216000
   6912   6915   6916     1   109.8000471 387.438400
   6912   6915   6917     1   109.8000471 387.438400
   6913   6912   6915     1   109.5600471 388.275200
   6913   6912   6914     1   108.4600466 328.025600
   6914   6912   6915     1   109.5600471 388.275200
   6916   6915   6918     1   108.7700466 392.459200
   6916   6915   6917     1   107.5800459 329.699200
   6917   6915   6918     1   108.7700466 392.459200
   6921   6924   6925     1   109.8000471 387.438400
   6921   6924   6926     1   109.8000471 387.438400
   6922   6921   6924     1   109.5600471 388.275200
   6922   6921   6923     1   108.4600466 328.025600
   6923   6921   6924     1   109.5600471 388.275200
   6925   6924   6927     1   108.7700466 392.459200
   6925   6924   6926     1   107.5800459 329.699200
   6926   6924   6927     1   108.7700466 392.459200
   6931   6934   6935     1   109.8000471 387.438400
   6931   6934   6936     1   109.8000471 387.438400
   6932   6931   6934     1   109.5600471 388.275200
   6932   6931   6959     1   109.7800468 425.094400
   6932   6931   6933     1   108.4600466 328.025600
   6933   6931   6934     1   109.5600471 388.275200
   6933   6931   6959     1   109.7800468 425.094400
   6934   6937   6938     1   109.5600471 388.275200
   6934   6937   6939     1   109.5600471 388.275200
   6935   6934   6937     1   109.8000471 387.438400
   6935   6934   6936     1   107.5800459 329.699200
   6936   6934   6937     1   109.8000471 387.438400
   6938   6937   6940     1   109.8800469 414.216000
   6938   6937   6939     1   108.4600466 328.025600
   6939   6937   6940     1   109.8800469 414.216000
   6940   6941   6942     1   109.8800469 414.216000
   6940   6941   6943     1   109.8800469 414.216000
   6940   6950   6951     1   109.8800469 414.216000
   6940   6950   6952     1   109.8800469 414.216000
   6941   6944   6945     1   109.8000471 387.438400
   6941   6944   6946     1   109.8000471 387.438400
   6942   6941   6944     1   109.5600471 388.275200
   6942   6941   6943     1   108.4600466 328.025600
   6943   6941   6944     1   109.5600471 388.275200
   6945   6944   6947     1   108.7700466 392.459200
   6945   6944   6946     1   107.5800459 329.699200
   6946   6944   6947     1   108.7700466 392.459200
   6950   6953   6954     1   109.8000471 387.438400
   6950   6953   6955     1   109.8000471 387.438400
   6951   6950   6953     1   109.5600471 388.275200
   6951   6950   6952     1   108.4600466 328.025600
   6952   6950   6953     1   109.5600471 388.275200
   6954   6953   6956     1   108.7700466 392.459200
   6954   6953   6955     1   107.5800459 329.699200
   6955   6953   6956     1   108.7700466 392.459200
   6960   6963   6964     1   109.8000471 387.438400
   6960   6963   6965     1   109.8000471 387.438400
   6961   6960   6963     1   109.5600471 388.275200
   6961   6960   6988     1   109.7800468 425.094400
   6961   6960   6962     1   108.4600466 328.025600
   6962   6960   6963     1   109.5600471 388.275200
   6962   6960   6988     1   109.7800468 425.094400
   6963   6966   6967     1   109.5600471 388.275200
   6963   6966   6968     1   109.5600471 388.275200
   6964   6963   6966     1   109.8000471 387.438400
   6964   6963   6965     1   107.5800459 329.699200
   6965   6963   6966     1   109.8000471 387.438400
   6967   6966   6969     1   109.8800469 414.216000
   6967   6966   6968     1   108.4600466 328.025600
   6968   6966   6969     1   109.8800469 414.216000
   6969   6970   6971     1   109.8800469 414.216000
   6969   6970   6972     1   109.8800469 414.216000
   6969   6979   6980     1   109.8800469 414.216000
   6969   6979   6981     1   109.8800469 414.216000
   6970   6973   6974     1   109.8000471 387.438400
   6970   6973   6975     1   109.8000471 387.438400
   6971   6970   6973     1   109.5600471 388.275200
   6971   6970   6972     1   108.4600466 328.025600
   6972   6970   6973     1   109.5600471 388.275200
   6974   6973   6976     1   108.7700466 392.459200
   6974   6973   6975     1   107.5800459 329.699200
   6975   6973   6976     1   108.7700466 392.459200
   6979   6982   6983     1   109.8000471 387.438400
   6979   6982   6984     1   109.8000471 387.438400
   6980   6979   6982     1   109.5600471 388.275200
   6980   6979   6981     1   108.4600466 328.025600
   6981   6979   6982     1   109.5600471 388.275200
   6983   6982   6985     1   108.7700466 392.459200
   6983   6982   6984     1   107.5800459 329.699200
   6984   6982   6985     1   108.7700466 392.459200
   6989   6992   6993     1   109.8000471 387.438400
   6989   6992   6994     1   109.8000471 387.438400
   6990   6989   6992     1   109.5600471 388.275200
   6990   6989   7017     1   109.7800468 425.094400
   6990   6989   6991     1   108.4600466 328.025600
   6991   6989   6992     1   109.5600471 388.275200
   6991   6989   7017     1   109.7800468 425.094400
   6992   6995   6996     1   109.5600471 388.275200
   6992   6995   6997     1   109.5600471 388.275200
   6993   6992   6995     1   109.8000471 387.438400
   6993   6992   6994     1   107.5800459 329.699200
   6994   6992   6995     1   109.8000471 387.438400
   6996   6995   6998     1   109.8800469 414.216000
   6996   6995   6997     1   108.4600466 328.025600
   6997   6995   6998     1   109.8800469 414.216000
   6998   6999   7000     1   109.8800469 414.216000
   6998   6999   7001     1   109.8800469 414.216000
   6998   7008   7009     1   109.8800469 414.216000
   6998   7008   7010     1   109.8800469 414.216000
   6999   7002   7003     1   109.8000471 387.438400
   6999   7002   7004     1   109.8000471 387.438400
   7000   6999   7002     1   109.5600471 388.275200
   7000   6999   7001     1   108.4600466 328.025600
   7001   6999   7002     1   109.5600471 388.275200
   7003   7002   7005     1   108.7700466 392.459200
   7003   7002   7004     1   107.5800459 329.699200
   7004   7002   7005     1   108.7700466 392.459200
   7008   7011   7012     1   109.8000471 387.438400
   7008   7011   7013     1   109.8000471 387.438400
   7009   7008   7011     1   109.5600471 388.275200
   7009   7008   7010     1   108.4600466 328.025600
   7010   7008   7011     1   109.5600471 388.275200
   7012   7011   7014     1   108.7700466 392.459200
   7012   7011   7013     1   107.5800459 329.699200
   7013   7011   7014     1   108.7700466 392.459200
   7018   7021   7022     1   109.8000471 387.438400
   7018   7021   7023     1   109.8000471 387.438400
   7019   7018   7021     1   109.5600471 388.275200
   7019   7018   7046     1   109.7800468 425.094400
   7019   7018   7020     1   108.4600466 328.025600
   7020   7018   7021     1   109.5600471 388.275200
   7020   7018   7046     1   109.7800468 425.094400
   7021   7024   7025     1   109.5600471 388.275200
   7021   7024   7026     1   109.5600471 388.275200
   7022   7021   7024     1   109.8000471 387.438400
   7022   7021   7023     1   107.5800459 329.699200
   7023   7021   7024     1   109.8000471 387.438400
   7025   7024   7027     1   109.8800469 414.216000
   7025   7024   7026     1   108.4600466 328.025600
   7026   7024   7027     1   109.8800469 414.216000
   7027   7028   7029     1   109.8800469 414.216000
   7027   7028   7030     1   109.8800469 414.216000
   7027   7037   7038     1   109.8800469 414.216000
   7027   7037   7039     1   109.8800469 414.216000
   7028   7031   7032     1   109.8000471 387.438400
   7028   7031   7033     1   109.8000471 387.438400
   7029   7028   7031     1   109.5600471 388.275200
   7029   7028   7030     1   108.4600466 328.025600
   7030   7028   7031     1   109.5600471 388.275200
   7032   7031   7034     1   108.7700466 392.459200
   7032   7031   7033     1   107.5800459 329.699200
   7033   7031   7034     1   108.7700466 392.459200
   7037   7040   7041     1   109.8000471 387.438400
   7037   7040   7042     1   109.8000471 387.438400
   7038   7037   7040     1   109.5600471 388.275200
   7038   7037   7039     1   108.4600466 328.025600
   7039   7037   7040     1   109.5600471 388.275200
   7041   7040   7043     1   108.7700466 392.459200
   7041   7040   7042     1   107.5800459 329.699200
   7042   7040   7043     1   108.7700466 392.459200
   7047   7050   7051     1   109.8000471 387.438400
   7047   7050   7052     1   109.8000471 387.438400
   7048   7047   7050     1   109.5600471 388.275200
   7048   7047   7075     1   109.7800468 425.094400
   7048   7047   7049     1   108.4600466 328.025600
   7049   7047   7050     1   109.5600471 388.275200
   7049   7047   7075     1   109.7800468 425.094400
   7050   7053   7054     1   109.5600471 388.275200
   7050   7053   7055     1   109.5600471 388.275200
   7051   7050   7053     1   109.8000471 387.438400
   7051   7050   7052     1   107.5800459 329.699200
   7052   7050   7053     1   109.8000471 387.438400
   7054   7053   7056     1   109.8800469 414.216000
   7054   7053   7055     1   108.4600466 328.025600
   7055   7053   7056     1   109.8800469 414.216000
   7056   7057   7058     1   109.8800469 414.216000
   7056   7057   7059     1   109.8800469 414.216000
   7056   7066   7067     1   109.8800469 414.216000
   7056   7066   7068     1   109.8800469 414.216000
   7057   7060   7061     1   109.8000471 387.438400
   7057   7060   7062     1   109.8000471 387.438400
   7058   7057   7060     1   109.5600471 388.275200
   7058   7057   7059     1   108.4600466 328.025600
   7059   7057   7060     1   109.5600471 388.275200
   7061   7060   7063     1   108.7700466 392.459200
   7061   7060   7062     1   107.5800459 329.699200
   7062   7060   7063     1   108.7700466 392.459200
   7066   7069   7070     1   109.8000471 387.438400
   7066   7069   7071     1   109.8000471 387.438400
   7067   7066   7069     1   109.5600471 388.275200
   7067   7066   7068     1   108.4600466 328.025600
   7068   7066   7069     1   109.5600471 388.275200
   7070   7069   7072     1   108.7700466 392.459200
   7070   7069   7071     1   107.5800459 329.699200
   7071   7069   7072     1   108.7700466 392.459200
   7076   7079   7080     1   109.8000471 387.438400
   7076   7079   7081     1   109.8000471 387.438400
   7077   7076   7079     1   109.5600471 388.275200
   7077   7076   7104     1   109.7800468 425.094400
   7077   7076   7078     1   108.4600466 328.025600
   7078   7076   7079     1   109.5600471 388.275200
   7078   7076   7104     1   109.7800468 425.094400
   7079   7082   7083     1   109.5600471 388.275200
   7079   7082   7084     1   109.5600471 388.275200
   7080   7079   7082     1   109.8000471 387.438400
   7080   7079   7081     1   107.5800459 329.699200
   7081   7079   7082     1   109.8000471 387.438400
   7083   7082   7085     1   109.8800469 414.216000
   7083   7082   7084     1   108.4600466 328.025600
   7084   7082   7085     1   109.8800469 414.216000
   7085   7086   7087     1   109.8800469 414.216000
   7085   7086   7088     1   109.8800469 414.216000
   7085   7095   7096     1   109.8800469 414.216000
   7085   7095   7097     1   109.8800469 414.216000
   7086   7089   7090     1   109.8000471 387.438400
   7086   7089   7091     1   109.8000471 387.438400
   7087   7086   7089     1   109.5600471 388.275200
   7087   7086   7088     1   108.4600466 328.025600
   7088   7086   7089     1   109.5600471 388.275200
   7090   7089   7092     1   108.7700466 392.459200
   7090   7089   7091     1   107.5800459 329.699200
   7091   7089   7092     1   108.7700466 392.459200
   7095   7098   7099     1   109.8000471 387.438400
   7095   7098   7100     1   109.8000471 387.438400
   7096   7095   7098     1   109.5600471 388.275200
   7096   7095   7097     1   108.4600466 328.025600
   7097   7095   7098     1   109.5600471 388.275200
   7099   7098   7101     1   108.7700466 392.459200
   7099   7098   7100     1   107.5800459 329.699200
   7100   7098   7101     1   108.7700466 392.459200
   7105   7108   7109     1   109.8000471 387.438400
   7105   7108   7110     1   109.8000471 387.438400
   7106   7105   7108     1   109.5600471 388.275200
   7106   7105   7133     1   109.7800468 425.094400
   7106   7105   7107     1   108.4600466 328.025600
   7107   7105   7108     1   109.5600471 388.275200
   7107   7105   7133     1   109.7800468 425.094400
   7108   7111   7112     1   109.5600471 388.275200
   7108   7111   7113     1   109.5600471 388.275200
   7109   7108   7111     1   109.8000471 387.438400
   7109   7108   7110     1   107.5800459 329.699200
   7110   7108   7111     1   109.8000471 387.438400
   7112   7111   7114     1   109.8800469 414.216000
   7112   7111   7113     1   108.4600466 328.025600
   7113   7111   7114     1   109.8800469 414.216000
   7114   7115   7116     1   109.8800469 414.216000
   7114   7115   7117     1   109.8800469 414.216000
   7114   7124   7125     1   109.8800469 414.216000
   7114   7124   7126     1   109.8800469 414.216000
   7115   7118   7119     1   109.8000471 387.438400
   7115   7118   7120     1   109.8000471 387.438400
   7116   7115   7118     1   109.5600471 388.275200
   7116   7115   7117     1   108.4600466 328.025600
   7117   7115   7118     1   109.5600471 388.275200
   7119   7118   7121     1   108.7700466 392.459200
   7119   7118   7120     1   107.5800459 329.699200
   7120   7118   7121     1   108.7700466 392.459200
   7124   7127   7128     1   109.8000471 387.438400
   7124   7127   7129     1   109.8000471 387.438400
   7125   7124   7127     1   109.5600471 388.275200
   7125   7124   7126     1   108.4600466 328.025600
   7126   7124   7127     1   109.5600471 388.275200
   7128   7127   7130     1   108.7700466 392.459200
   7128   7127   7129     1   107.5800459 329.699200
   7129   7127   7130     1   108.7700466 392.459200
   7134   7137   7138     1   109.8000471 387.438400
   7134   7137   7139     1   109.8000471 387.438400
   7135   7134   7137     1   109.5600471 388.275200
   7135   7134   7162     1   109.7800468 425.094400
   7135   7134   7136     1   108.4600466 328.025600
   7136   7134   7137     1   109.5600471 388.275200
   7136   7134   7162     1   109.7800468 425.094400
   7137   7140   7141     1   109.5600471 388.275200
   7137   7140   7142     1   109.5600471 388.275200
   7138   7137   7140     1   109.8000471 387.438400
   7138   7137   7139     1   107.5800459 329.699200
   7139   7137   7140     1   109.8000471 387.438400
   7141   7140   7143     1   109.8800469 414.216000
   7141   7140   7142     1   108.4600466 328.025600
   7142   7140   7143     1   109.8800469 414.216000
   7143   7144   7145     1   109.8800469 414.216000
   7143   7144   7146     1   109.8800469 414.216000
   7143   7153   7154     1   109.8800469 414.216000
   7143   7153   7155     1   109.8800469 414.216000
   7144   7147   7148     1   109.8000471 387.438400
   7144   7147   7149     1   109.8000471 387.438400
   7145   7144   7147     1   109.5600471 388.275200
   7145   7144   7146     1   108.4600466 328.025600
   7146   7144   7147     1   109.5600471 388.275200
   7148   7147   7150     1   108.7700466 392.459200
   7148   7147   7149     1   107.5800459 329.699200
   7149   7147   7150     1   108.7700466 392.459200
   7153   7156   7157     1   109.8000471 387.438400
   7153   7156   7158     1   109.8000471 387.438400
   7154   7153   7156     1   109.5600471 388.275200
   7154   7153   7155     1   108.4600466 328.025600
   7155   7153   7156     1   109.5600471 388.275200
   7157   7156   7159     1   108.7700466 392.459200
   7157   7156   7158     1   107.5800459 329.699200
   7158   7156   7159     1   108.7700466 392.459200
   7163   7166   7167     1   109.8000471 387.438400
   7163   7166   7168     1   109.8000471 387.438400
   7164   7163   7166     1   109.5600471 388.275200
   7164   7163   7191     1   109.7800468 425.094400
   7164   7163   7165     1   108.4600466 328.025600
   7165   7163   7166     1   109.5600471 388.275200
   7165   7163   7191     1   109.7800468 425.094400
   7166   7169   7170     1   109.5600471 388.275200
   7166   7169   7171     1   109.5600471 388.275200
   7167   7166   7169     1   109.8000471 387.438400
   7167   7166   7168     1   107.5800459 329.699200
   7168   7166   7169     1   109.8000471 387.438400
   7170   7169   7172     1   109.8800469 414.216000
   7170   7169   7171     1   108.4600466 328.025600
   7171   7169   7172     1   109.8800469 414.216000
   7172   7173   7174     1   109.8800469 414.216000
   7172   7173   7175     1   109.8800469 414.216000
   7172   7182   7183     1   109.8800469 414.216000
   7172   7182   7184     1   109.8800469 414.216000
   7173   7176   7177     1   109.8000471 387.438400
   7173   7176   7178     1   109.8000471 387.438400
   7174   7173   7176     1   109.5600471 388.275200
   7174   7173   7175     1   108.4600466 328.025600
   7175   7173   7176     1   109.5600471 388.275200
   7177   7176   7179     1   108.7700466 392.459200
   7177   7176   7178     1   107.5800459 329.699200
   7178   7176   7179     1   108.7700466 392.459200
   7182   7185   7186     1   109.8000471 387.438400
   7182   7185   7187     1   109.8000471 387.438400
   7183   7182   7185     1   109.5600471 388.275200
   7183   7182   7184     1   108.4600466 328.025600
   7184   7182   7185     1   109.5600471 388.275200
   7186   7185   7188     1   108.7700466 392.459200
   7186   7185   7187     1   107.5800459 329.699200
   7187   7185   7188     1   108.7700466 392.459200
   7192   7195   7196     1   109.8000471 387.438400
   7192   7195   7197     1   109.8000471 387.438400
   7193   7192   7195     1   109.5600471 388.275200
   7193   7192   7220     1   109.7800468 425.094400
   7193   7192   7194     1   108.4600466 328.025600
   7194   7192   7195     1   109.5600471 388.275200
   7194   7192   7220     1   109.7800468 425.094400
   7195   7198   7199     1   109.5600471 388.275200
   7195   7198   7200     1   109.5600471 388.275200
   7196   7195   7198     1   109.8000471 387.438400
   7196   7195   7197     1   107.5800459 329.699200
   7197   7195   7198     1   109.8000471 387.438400
   7199   7198   7201     1   109.8800469 414.216000
   7199   7198   7200     1   108.4600466 328.025600
   7200   7198   7201     1   109.8800469 414.216000
   7201   7202   7203     1   109.8800469 414.216000
   7201   7202   7204     1   109.8800469 414.216000
   7201   7211   7212     1   109.8800469 414.216000
   7201   7211   7213     1   109.8800469 414.216000
   7202   7205   7206     1   109.8000471 387.438400
   7202   7205   7207     1   109.8000471 387.438400
   7203   7202   7205     1   109.5600471 388.275200
   7203   7202   7204     1   108.4600466 328.025600
   7204   7202   7205     1   109.5600471 388.275200
   7206   7205   7208     1   108.7700466 392.459200
   7206   7205   7207     1   107.5800459 329.699200
   7207   7205   7208     1   108.7700466 392.459200
   7211   7214   7215     1   109.8000471 387.438400
   7211   7214   7216     1   109.8000471 387.438400
   7212   7211   7214     1   109.5600471 388.275200
   7212   7211   7213     1   108.4600466 328.025600
   7213   7211   7214     1   109.5600471 388.275200
   7215   7214   7217     1   108.7700466 392.459200
   7215   7214   7216     1   107.5800459 329.699200
   7216   7214   7217     1   108.7700466 392.459200
   7221   7224   7225     1   109.8000471 387.438400
   7221   7224   7226     1   109.8000471 387.438400
   7222   7221   7224     1   109.5600471 388.275200
   7222   7221   7249     1   109.7800468 425.094400
   7222   7221   7223     1   108.4600466 328.025600
   7223   7221   7224     1   109.5600471 388.275200
   7223   7221   7249     1   109.7800468 425.094400
   7224   7227   7228     1   109.5600471 388.275200
   7224   7227   7229     1   109.5600471 388.275200
   7225   7224   7227     1   109.8000471 387.438400
   7225   7224   7226     1   107.5800459 329.699200
   7226   7224   7227     1   109.8000471 387.438400
   7228   7227   7230     1   109.8800469 414.216000
   7228   7227   7229     1   108.4600466 328.025600
   7229   7227   7230     1   109.8800469 414.216000
   7230   7231   7232     1   109.8800469 414.216000
   7230   7231   7233     1   109.8800469 414.216000
   7230   7240   7241     1   109.8800469 414.216000
   7230   7240   7242     1   109.8800469 414.216000
   7231   7234   7235     1   109.8000471 387.438400
   7231   7234   7236     1   109.8000471 387.438400
   7232   7231   7234     1   109.5600471 388.275200
   7232   7231   7233     1   108.4600466 328.025600
   7233   7231   7234     1   109.5600471 388.275200
   7235   7234   7237     1   108.7700466 392.459200
   7235   7234   7236     1   107.5800459 329.699200
   7236   7234   7237     1   108.7700466 392.459200
   7240   7243   7244     1   109.8000471 387.438400
   7240   7243   7245     1   109.8000471 387.438400
   7241   7240   7243     1   109.5600471 388.275200
   7241   7240   7242     1   108.4600466 328.025600
   7242   7240   7243     1   109.5600471 388.275200
   7244   7243   7246     1   108.7700466 392.459200
   7244   7243   7245     1   107.5800459 329.699200
   7245   7243   7246     1   108.7700466 392.459200
   7250   7253   7254     1   109.8000471 387.438400
   7250   7253   7255     1   109.8000471 387.438400
   7251   7250   7253     1   109.5600471 388.275200
   7251   7250   7278     1   109.7800468 425.094400
   7251   7250   7252     1   108.4600466 328.025600
   7252   7250   7253     1   109.5600471 388.275200
   7252   7250   7278     1   109.7800468 425.094400
   7253   7256   7257     1   109.5600471 388.275200
   7253   7256   7258     1   109.5600471 388.275200
   7254   7253   7256     1   109.8000471 387.438400
   7254   7253   7255     1   107.5800459 329.699200
   7255   7253   7256     1   109.8000471 387.438400
   7257   7256   7259     1   109.8800469 414.216000
   7257   7256   7258     1   108.4600466 328.025600
   7258   7256   7259     1   109.8800469 414.216000
   7259   7260   7261     1   109.8800469 414.216000
   7259   7260   7262     1   109.8800469 414.216000
   7259   7269   7270     1   109.8800469 414.216000
   7259   7269   7271     1   109.8800469 414.216000
   7260   7263   7264     1   109.8000471 387.438400
   7260   7263   7265     1   109.8000471 387.438400
   7261   7260   7263     1   109.5600471 388.275200
   7261   7260   7262     1   108.4600466 328.025600
   7262   7260   7263     1   109.5600471 388.275200
   7264   7263   7266     1   108.7700466 392.459200
   7264   7263   7265     1   107.5800459 329.699200
   7265   7263   7266     1   108.7700466 392.459200
   7269   7272   7273     1   109.8000471 387.438400
   7269   7272   7274     1   109.8000471 387.438400
   7270   7269   7272     1   109.5600471 388.275200
   7270   7269   7271     1   108.4600466 328.025600
   7271   7269   7272     1   109.5600471 388.275200
   7273   7272   7275     1   108.7700466 392.459200
   7273   7272   7274     1   107.5800459 329.699200
   7274   7272   7275     1   108.7700466 392.459200
   7279   7282   7283     1   109.8000471 387.438400
   7279   7282   7284     1   109.8000471 387.438400
   7280   7279   7282     1   109.5600471 388.275200
   7280   7279   7307     1   109.7800468 425.094400
   7280   7279   7281     1   108.4600466 328.025600
   7281   7279   7282     1   109.5600471 388.275200
   7281   7279   7307     1   109.7800468 425.094400
   7282   7285   7286     1   109.5600471 388.275200
   7282   7285   7287     1   109.5600471 388.275200
   7283   7282   7285     1   109.8000471 387.438400
   7283   7282   7284     1   107.5800459 329.699200
   7284   7282   7285     1   109.8000471 387.438400
   7286   7285   7288     1   109.8800469 414.216000
   7286   7285   7287     1   108.4600466 328.025600
   7287   7285   7288     1   109.8800469 414.216000
   7288   7289   7290     1   109.8800469 414.216000
   7288   7289   7291     1   109.8800469 414.216000
   7288   7298   7299     1   109.8800469 414.216000
   7288   7298   7300     1   109.8800469 414.216000
   7289   7292   7293     1   109.8000471 387.438400
   7289   7292   7294     1   109.8000471 387.438400
   7290   7289   7292     1   109.5600471 388.275200
   7290   7289   7291     1   108.4600466 328.025600
   7291   7289   7292     1   109.5600471 388.275200
   7293   7292   7295     1   108.7700466 392.459200
   7293   7292   7294     1   107.5800459 329.699200
   7294   7292   7295     1   108.7700466 392.459200
   7298   7301   7302     1   109.8000471 387.438400
   7298   7301   7303     1   109.8000471 387.438400
   7299   7298   7301     1   109.5600471 388.275200
   7299   7298   7300     1   108.4600466 328.025600
   7300   7298   7301     1   109.5600471 388.275200
   7302   7301   7304     1   108.7700466 392.459200
   7302   7301   7303     1   107.5800459 329.699200
   7303   7301   7304     1   108.7700466 392.459200
   7308   7311   7312     1   109.8000471 387.438400
   7308   7311   7313     1   109.8000471 387.438400
   7309   7308   7311     1   109.5600471 388.275200
   7309   7308   7336     1   109.7800468 425.094400
   7309   7308   7310     1   108.4600466 328.025600
   7310   7308   7311     1   109.5600471 388.275200
   7310   7308   7336     1   109.7800468 425.094400
   7311   7314   7315     1   109.5600471 388.275200
   7311   7314   7316     1   109.5600471 388.275200
   7312   7311   7314     1   109.8000471 387.438400
   7312   7311   7313     1   107.5800459 329.699200
   7313   7311   7314     1   109.8000471 387.438400
   7315   7314   7317     1   109.8800469 414.216000
   7315   7314   7316     1   108.4600466 328.025600
   7316   7314   7317     1   109.8800469 414.216000
   7317   7318   7319     1   109.8800469 414.216000
   7317   7318   7320     1   109.8800469 414.216000
   7317   7327   7328     1   109.8800469 414.216000
   7317   7327   7329     1   109.8800469 414.216000
   7318   7321   7322     1   109.8000471 387.438400
   7318   7321   7323     1   109.8000471 387.438400
   7319   7318   7321     1   109.5600471 388.275200
   7319   7318   7320     1   108.4600466 328.025600
   7320   7318   7321     1   109.5600471 388.275200
   7322   7321   7324     1   108.7700466 392.459200
   7322   7321   7323     1   107.5800459 329.699200
   7323   7321   7324     1   108.7700466 392.459200
   7327   7330   7331     1   109.8000471 387.438400
   7327   7330   7332     1   109.8000471 387.438400
   7328   7327   7330     1   109.5600471 388.275200
   7328   7327   7329     1   108.4600466 328.025600
   7329   7327   7330     1   109.5600471 388.275200
   7331   7330   7333     1   108.7700466 392.459200
   7331   7330   7332     1   107.5800459 329.699200
   7332   7330   7333     1   108.7700466 392.459200
   7337   7340   7341     1   109.8000471 387.438400
   7337   7340   7342     1   109.8000471 387.438400
   7338   7337   7340     1   109.5600471 388.275200
   7338   7337   7365     1   109.7800468 425.094400
   7338   7337   7339     1   108.4600466 328.025600
   7339   7337   7340     1   109.5600471 388.275200
   7339   7337   7365     1   109.7800468 425.094400
   7340   7343   7344     1   109.5600471 388.275200
   7340   7343   7345     1   109.5600471 388.275200
   7341   7340   7343     1   109.8000471 387.438400
   7341   7340   7342     1   107.5800459 329.699200
   7342   7340   7343     1   109.8000471 387.438400
   7344   7343   7346     1   109.8800469 414.216000
   7344   7343   7345     1   108.4600466 328.025600
   7345   7343   7346     1   109.8800469 414.216000
   7346   7347   7348     1   109.8800469 414.216000
   7346   7347   7349     1   109.8800469 414.216000
   7346   7356   7357     1   109.8800469 414.216000
   7346   7356   7358     1   109.8800469 414.216000
   7347   7350   7351     1   109.8000471 387.438400
   7347   7350   7352     1   109.8000471 387.438400
   7348   7347   7350     1   109.5600471 388.275200
   7348   7347   7349     1   108.4600466 328.025600
   7349   7347   7350     1   109.5600471 388.275200
   7351   7350   7353     1   108.7700466 392.459200
   7351   7350   7352     1   107.5800459 329.699200
   7352   7350   7353     1   108.7700466 392.459200
   7356   7359   7360     1   109.8000471 387.438400
   7356   7359   7361     1   109.8000471 387.438400
   7357   7356   7359     1   109.5600471 388.275200
   7357   7356   7358     1   108.4600466 328.025600
   7358   7356   7359     1   109.5600471 388.275200
   7360   7359   7362     1   108.7700466 392.459200
   7360   7359   7361     1   107.5800459 329.699200
   7361   7359   7362     1   108.7700466 392.459200

[ dihedrals ]
;    ai     aj     ak     al funct         c0         c1         c2         c3         c4         c5
      1      2      8     14     1  0.0000000  0.6508444  3
      1      5     11     17     1  0.0000000  0.6508444  3
      2      1      5     11     1  180.0000771  0.4184000  2
      2      1      5     11     1  0.0000000  1.6024720  3
      2      8     14     20     1  0.0000000  0.6508444  3
      5      1      2      8     1  180.0000771  0.4184000  2
      5      1      2      8     1  0.0000000  1.6024720  3
      5     11     17     21     1  0.0000000  0.6508444  3
      8     14     20     28     1  180.0000771  2.0083200  2
      8     14     20     28     1  0.0000000  1.2552000  3
      8     14     20     31     1  180.0000771  2.0083200  2
      8     14     20     31     1  0.0000000  1.2552000  3
     11     17     21     22     1  180.0000771  2.0083200  2
     11     17     21     22     1  0.0000000  1.2552000  3
     11     17     21     25     1  180.0000771  2.0083200  2
     11     17     21     25     1  0.0000000  1.2552000  3
     14     20     28     40     1  180.0000771  2.0083200  2
     14     20     28     40     1  0.0000000  1.2552000  3
     14     20     31     43     1  180.0000771  2.0083200  2
     14     20     31     43     1  0.0000000  1.2552000  3
     17     21     22     34     1  180.0000771  2.0083200  2
     17     21     22     34     1  0.0000000  1.2552000  3
     17     21     25     37     1  180.0000771  2.0083200  2
     17     21     25     37     1  0.0000000  1.2552000  3
     20     28     40     49     1  0.0000000  0.6508444  3
     20     31     43     46     1  0.0000000  0.6508444  3
     21     22     34     55     1  0.0000000  0.6508444  3
     21     25     37     52     1  0.0000000  0.6508444  3
     22     21     25     37     1  180.0000771  2.0083200  2
     22     21     25     37     1  0.0000000  1.2552000  3
     22     34     55    173     1  0.0000000  0.6508444  3
     25     21     22     34     1  180.0000771  2.0083200  2
     25     21     22     34     1  0.0000000  1.2552000  3
     25     37     52    144     1  0.0000000  0.6508444  3
     28     20     31     43     1  180.0000771  2.0083200  2
     28     20     31     43     1  0.0000000  1.2552000  3
     28     40     49    115     1  0.0000000  0.6508444  3
     31     20     28     40     1  180.0000771  2.0083200  2
     31     20     28     40     1  0.0000000  1.2552000  3
     31     43     46     86     1  0.0000000  0.6508444  3
     34     55    173    164     1  180.0000771  0.4184000  2
     34     55    173    164     1  0.0000000  1.6024720  3
     37     52    144    135     1  180.0000771  0.4184000  2
     37     52    144    135     1  0.0000000  1.6024720  3
     40     49    115    106     1  180.0000771  0.4184000  2
     40     49    115    106     1  0.0000000  1.6024720  3
     43     46     86     77     1  180.0000771  0.4184000  2
     43     46     86     77     1  0.0000000  1.6024720  3
     46     86     77     68     1  180.0000771  0.4184000  2
     46     86     77     68     1  0.0000000  1.6024720  3
     49    115    106     97     1  180.0000771  0.4184000  2
     49    115    106     97     1  0.0000000  1.6024720  3
     52    144    135    126     1  180.0000771  0.4184000  2
     52    144    135    126     1  0.0000000  1.6024720  3
     55    173    164    155     1  180.0000771  0.4184000  2
     55    173    164    155     1  0.0000000  1.6024720  3
     58     59     71     83     1  0.0000000  0.6508444  3
     58     62     74     80     1  0.0000000  0.6508444  3
     58     65     68     77     1  0.0000000  0.6508444  3
     59     58     62     74     1  180.0000771  2.0083200  2
     59     58     62     74     1  0.0000000  1.2552000  3
     59     58     65     68     1  180.0000771  2.0083200  2
     59     58     65     68     1  0.0000000  1.2552000  3
     59     71     83    231     1  0.0000000  0.6508444  3
     62     58     59     71     1  180.0000771  2.0083200  2
     62     58     59     71     1  0.0000000  1.2552000  3
     62     58     65     68     1  180.0000771  2.0083200  2
     62     58     65     68     1  0.0000000  1.2552000  3
     62     74     80    202     1  0.0000000  0.6508444  3
     65     58     59     71     1  180.0000771  2.0083200  2
     65     58     59     71     1  0.0000000  1.2552000  3
     65     58     62     74     1  180.0000771  2.0083200  2
     65     58     62     74     1  0.0000000  1.2552000  3
     65     68     77     86     1  0.0000000  0.6508444  3
     71     83    231    222     1  180.0000771  0.4184000  2
     71     83    231    222     1  0.0000000  1.6024720  3
     74     80    202    193     1  180.0000771  0.4184000  2
     74     80    202    193     1  0.0000000  1.6024720  3
     80    202    193    184     1  180.0000771  0.4184000  2
     80    202    193    184     1  0.0000000  1.6024720  3
     83    231    222    213     1  180.0000771  0.4184000  2
     83    231    222    213     1  0.0000000  1.6024720  3
     87     88    100    112     1  0.0000000  0.6508444  3
     87     91    103    109     1  0.0000000  0.6508444  3
     87     94     97    106     1  0.0000000  0.6508444  3
     88     87     91    103     1  180.0000771  2.0083200  2
     88     87     91    103     1  0.0000000  1.2552000  3
     88     87     94     97     1  180.0000771  2.0083200  2
     88     87     94     97     1  0.0000000  1.2552000  3
     88    100    112    289     1  0.0000000  0.6508444  3
     91     87     88    100     1  180.0000771  2.0083200  2
     91     87     88    100     1  0.0000000  1.2552000  3
     91     87     94     97     1  180.0000771  2.0083200  2
     91     87     94     97     1  0.0000000  1.2552000  3
     91    103    109    260     1  0.0000000  0.6508444  3
     94     87     88    100     1  180.0000771  2.0083200  2
     94     87     88    100     1  0.0000000  1.2552000  3
     94     87     91    103     1  180.0000771  2.0083200  2
     94     87     91    103     1  0.0000000  1.2552000  3
     94     97    106    115     1  0.0000000  0.6508444  3
    100    112    289    280     1  180.0000771  0.4184000  2
    100    112    289    280     1  0.0000000  1.6024720  3
    103    109    260    251     1  180.0000771  0.4184000  2
    103    109    260    251     1  0.0000000  1.6024720  3
    109    260    251    242     1  180.0000771  0.4184000  2
    109    260    251    242     1  0.0000000  1.6024720  3
    112    289    280    271     1  180.0000771  0.4184000  2
    112    289    280    271     1  0.0000000  1.6024720  3
    116    117    129    141     1  0.0000000  0.6508444  3
    116    120    132    138     1  0.0000000  0.6508444  3
    116    123    126    135     1  0.0000000  0.6508444  3
    117    116    120    132     1  180.0000771  2.0083200  2
    117    116    120    132     1  0.0000000  1.2552000  3
    117    116    123    126     1  180.0000771  2.0083200  2
    117    116    123    126     1  0.0000000  1.2552000  3
    117    129    141    347     1  0.0000000  0.6508444  3
    120    116    117    129     1  180.0000771  2.0083200  2
    120    116    117    129     1  0.0000000  1.2552000  3
    120    116    123    126     1  180.0000771  2.0083200  2
    120    116    123    126     1  0.0000000  1.2552000  3
    120    132    138    318     1  0.0000000  0.6508444  3
    123    116    117    129     1  180.0000771  2.0083200  2
    123    116    117    129     1  0.0000000  1.2552000  3
    123    116    120    132     1  180.0000771  2.0083200  2
    123    116    120    132     1  0.0000000  1.2552000  3
    123    126    135    144     1  0.0000000  0.6508444  3
    129    141    347    338     1  180.0000771  0.4184000  2
    129    141    347    338     1  0.0000000  1.6024720  3
    132    138    318    309     1  180.0000771  0.4184000  2
    132    138    318    309     1  0.0000000  1.6024720  3
    138    318    309    300     1  180.0000771  0.4184000  2
    138    318    309    300     1  0.0000000  1.6024720  3
    141    347    338    329     1  180.0000771  0.4184000  2
    141    347    338    329     1  0.0000000  1.6024720  3
    145    146    158    170     1  0.0000000  0.6508444  3
    145    149    161    167     1  0.0000000  0.6508444  3
    145    152    155    164     1  0.0000000  0.6508444  3
    146    145    149    161     1  180.0000771  2.0083200  2
    146    145    149    161     1  0.0000000  1.2552000  3
    146    145    152    155     1  180.0000771  2.0083200  2
    146    145    152    155     1  0.0000000  1.2552000  3
    146    158    170    405     1  0.0000000  0.6508444  3
    149    145    146    158     1  180.0000771  2.0083200  2
    149    145    146    158     1  0.0000000  1.2552000  3
    149    145    152    155     1  180.0000771  2.0083200  2
    149    145    152    155     1  0.0000000  1.2552000  3
    149    161    167    376     1  0.0000000  0.6508444  3
    152    145    146    158     1  180.0000771  2.0083200  2
    152    145    146    158     1  0.0000000  1.2552000  3
    152    145    149    161     1  180.0000771  2.0083200  2
    152    145    149    161     1  0.0000000  1.2552000  3
    152    155    164    173     1  0.0000000  0.6508444  3
    158    170    405    396     1  180.0000771  0.4184000  2
    158    170    405    396     1  0.0000000  1.6024720  3
    161    167    376    367     1  180.0000771  0.4184000  2
    161    167    376    367     1  0.0000000  1.6024720  3
    167    376    367    358     1  180.0000771  0.4184000  2
    167    376    367    358     1  0.0000000  1.6024720  3
    170    405    396    387     1  180.0000771  0.4184000  2
    170    405    396    387     1  0.0000000  1.6024720  3
    174    175    187    199     1  0.0000000  0.6508444  3
    174    178    190    196     1  0.0000000  0.6508444  3
    174    181    184    193     1  0.0000000  0.6508444  3
    175    174    178    190     1  180.0000771  2.0083200  2
    175    174    178    190     1  0.0000000  1.2552000  3
    175    174    181    184     1  180.0000771  2.0083200  2
    175    174    181    184     1  0.0000000  1.2552000  3
    175    187    199    463     1  0.0000000  0.6508444  3
    178    174    175    187     1  180.0000771  2.0083200  2
    178    174    175    187     1  0.0000000  1.2552000  3
    178    174    181    184     1  180.0000771  2.0083200  2
    178    174    181    184     1  0.0000000  1.2552000  3
    178    190    196    434     1  0.0000000  0.6508444  3
    181    174    175    187     1  180.0000771  2.0083200  2
    181    174    175    187     1  0.0000000  1.2552000  3
    181    174    178    190     1  180.0000771  2.0083200  2
    181    174    178    190     1  0.0000000  1.2552000  3
    181    184    193    202     1  0.0000000  0.6508444  3
    187    199    463    454     1  180.0000771  0.4184000  2
    187    199    463    454     1  0.0000000  1.6024720  3
    190    196    434    425     1  180.0000771  0.4184000  2
    190    196    434    425     1  0.0000000  1.6024720  3
    196    434    425    416     1  180.0000771  0.4184000  2
    196    434    425    416     1  0.0000000  1.6024720  3
    199    463    454    445     1  180.0000771  0.4184000  2
    199    463    454    445     1  0.0000000  1.6024720  3
    203    204    216    228     1  0.0000000  0.6508444  3
    203    207    219    225     1  0.0000000  0.6508444  3
    203    210    213    222     1  0.0000000  0.6508444  3
    204    203    207    219     1  180.0000771  2.0083200  2
    204    203    207    219     1  0.0000000  1.2552000  3
    204    203    210    213     1  180.0000771  2.0083200  2
    204    203    210    213     1  0.0000000  1.2552000  3
    204    216    228    521     1  0.0000000  0.6508444  3
    207    203    204    216     1  180.0000771  2.0083200  2
    207    203    204    216     1  0.0000000  1.2552000  3
    207    203    210    213     1  180.0000771  2.0083200  2
    207    203    210    213     1  0.0000000  1.2552000  3
    207    219    225    492     1  0.0000000  0.6508444  3
    210    203    204    216     1  180.0000771  2.0083200  2
    210    203    204    216     1  0.0000000  1.2552000  3
    210    203    207    219     1  180.0000771  2.0083200  2
    210    203    207    219     1  0.0000000  1.2552000  3
    210    213    222    231     1  0.0000000  0.6508444  3
    216    228    521    512     1  180.0000771  0.4184000  2
    216    228    521    512     1  0.0000000  1.6024720  3
    219    225    492    483     1  180.0000771  0.4184000  2
    219    225    492    483     1  0.0000000  1.6024720  3
    225    492    483    474     1  180.0000771  0.4184000  2
    225    492    483    474     1  0.0000000  1.6024720  3
    228    521    512    503     1  180.0000771  0.4184000  2
    228    521    512    503     1  0.0000000  1.6024720  3
    232    233    245    257     1  0.0000000  0.6508444  3
    232    236    248    254     1  0.0000000  0.6508444  3
    232    239    242    251     1  0.0000000  0.6508444  3
    233    232    236    248     1  180.0000771  2.0083200  2
    233    232    236    248     1  0.0000000  1.2552000  3
    233    232    239    242     1  180.0000771  2.0083200  2
    233    232    239    242     1  0.0000000  1.2552000  3
    233    245    257    579     1  0.0000000  0.6508444  3
    236    232    233    245     1  180.0000771  2.0083200  2
    236    232    233    245     1  0.0000000  1.2552000  3
    236    232    239    242     1  180.0000771  2.0083200  2
    236    232    239    242     1  0.0000000  1.2552000  3
    236    248    254    550     1  0.0000000  0.6508444  3
    239    232    233    245     1  180.0000771  2.0083200  2
    239    232    233    245     1  0.0000000  1.2552000  3
    239    232    236    248     1  180.0000771  2.0083200  2
    239    232    236    248     1  0.0000000  1.2552000  3
    239    242    251    260     1  0.0000000  0.6508444  3
    245    257    579    570     1  180.0000771  0.4184000  2
    245    257    579    570     1  0.0000000  1.6024720  3
    248    254    550    541     1  180.0000771  0.4184000  2
    248    254    550    541     1  0.0000000  1.6024720  3
    254    550    541    532     1  180.0000771  0.4184000  2
    254    550    541    532     1  0.0000000  1.6024720  3
    257    579    570    561     1  180.0000771  0.4184000  2
    257    579    570    561     1  0.0000000  1.6024720  3
    261    262    274    286     1  0.0000000  0.6508444  3
    261    265    277    283     1  0.0000000  0.6508444  3
    261    268    271    280     1  0.0000000  0.6508444  3
    262    261    265    277     1  180.0000771  2.0083200  2
    262    261    265    277     1  0.0000000  1.2552000  3
    262    261    268    271     1  180.0000771  2.0083200  2
    262    261    268    271     1  0.0000000  1.2552000  3
    262    274    286    637     1  0.0000000  0.6508444  3
    265    261    262    274     1  180.0000771  2.0083200  2
    265    261    262    274     1  0.0000000  1.2552000  3
    265    261    268    271     1  180.0000771  2.0083200  2
    265    261    268    271     1  0.0000000  1.2552000  3
    265    277    283    608     1  0.0000000  0.6508444  3
    268    261    262    274     1  180.0000771  2.0083200  2
    268    261    262    274     1  0.0000000  1.2552000  3
    268    261    265    277     1  180.0000771  2.0083200  2
    268    261    265    277     1  0.0000000  1.2552000  3
    268    271    280    289     1  0.0000000  0.6508444  3
    274    286    637    628     1  180.0000771  0.4184000  2
    274    286    637    628     1  0.0000000  1.6024720  3
    277    283    608    599     1  180.0000771  0.4184000  2
    277    283    608    599     1  0.0000000  1.6024720  3
    283    608    599    590     1  180.0000771  0.4184000  2
    283    608    599    590     1  0.0000000  1.6024720  3
    286    637    628    619     1  180.0000771  0.4184000  2
    286    637    628    619     1  0.0000000  1.6024720  3
    290    291    303    315     1  0.0000000  0.6508444  3
    290    294    306    312     1  0.0000000  0.6508444  3
    290    297    300    309     1  0.0000000  0.6508444  3
    291    290    294    306     1  180.0000771  2.0083200  2
    291    290    294    306     1  0.0000000  1.2552000  3
    291    290    297    300     1  180.0000771  2.0083200  2
    291    290    297    300     1  0.0000000  1.2552000  3
    291    303    315    695     1  0.0000000  0.6508444  3
    294    290    291    303     1  180.0000771  2.0083200  2
    294    290    291    303     1  0.0000000  1.2552000  3
    294    290    297    300     1  180.0000771  2.0083200  2
    294    290    297    300     1  0.0000000  1.2552000  3
    294    306    312    666     1  0.0000000  0.6508444  3
    297    290    291    303     1  180.0000771  2.0083200  2
    297    290    291    303     1  0.0000000  1.2552000  3
    297    290    294    306     1  180.0000771  2.0083200  2
    297    290    294    306     1  0.0000000  1.2552000  3
    297    300    309    318     1  0.0000000  0.6508444  3
    303    315    695    686     1  180.0000771  0.4184000  2
    303    315    695    686     1  0.0000000  1.6024720  3
    306    312    666    657     1  180.0000771  0.4184000  2
    306    312    666    657     1  0.0000000  1.6024720  3
    312    666    657    648     1  180.0000771  0.4184000  2
    312    666    657    648     1  0.0000000  1.6024720  3
    315    695    686    677     1  180.0000771  0.4184000  2
    315    695    686    677     1  0.0000000  1.6024720  3
    319    320    332    344     1  0.0000000  0.6508444  3
    319    323    335    341     1  0.0000000  0.6508444  3
    319    326    329    338     1  0.0000000  0.6508444  3
    320    319    323    335     1  180.0000771  2.0083200  2
    320    319    323    335     1  0.0000000  1.2552000  3
    320    319    326    329     1  180.0000771  2.0083200  2
    320    319    326    329     1  0.0000000  1.2552000  3
    320    332    344    753     1  0.0000000  0.6508444  3
    323    319    320    332     1  180.0000771  2.0083200  2
    323    319    320    332     1  0.0000000  1.2552000  3
    323    319    326    329     1  180.0000771  2.0083200  2
    323    319    326    329     1  0.0000000  1.2552000  3
    323    335    341    724     1  0.0000000  0.6508444  3
    326    319    320    332     1  180.0000771  2.0083200  2
    326    319    320    332     1  0.0000000  1.2552000  3
    326    319    323    335     1  180.0000771  2.0083200  2
    326    319    323    335     1  0.0000000  1.2552000  3
    326    329    338    347     1  0.0000000  0.6508444  3
    332    344    753    744     1  180.0000771  0.4184000  2
    332    344    753    744     1  0.0000000  1.6024720  3
    335    341    724    715     1  180.0000771  0.4184000  2
    335    341    724    715     1  0.0000000  1.6024720  3
    341    724    715    706     1  180.0000771  0.4184000  2
    341    724    715    706     1  0.0000000  1.6024720  3
    344    753    744    735     1  180.0000771  0.4184000  2
    344    753    744    735     1  0.0000000  1.6024720  3
    348    349    361    373     1  0.0000000  0.6508444  3
    348    352    364    370     1  0.0000000  0.6508444  3
    348    355    358    367     1  0.0000000  0.6508444  3
    349    348    352    364     1  180.0000771  2.0083200  2
    349    348    352    364     1  0.0000000  1.2552000  3
    349    348    355    358     1  180.0000771  2.0083200  2
    349    348    355    358     1  0.0000000  1.2552000  3
    349    361    373    811     1  0.0000000  0.6508444  3
    352    348    349    361     1  180.0000771  2.0083200  2
    352    348    349    361     1  0.0000000  1.2552000  3
    352    348    355    358     1  180.0000771  2.0083200  2
    352    348    355    358     1  0.0000000  1.2552000  3
    352    364    370    782     1  0.0000000  0.6508444  3
    355    348    349    361     1  180.0000771  2.0083200  2
    355    348    349    361     1  0.0000000  1.2552000  3
    355    348    352    364     1  180.0000771  2.0083200  2
    355    348    352    364     1  0.0000000  1.2552000  3
    355    358    367    376     1  0.0000000  0.6508444  3
    361    373    811    802     1  180.0000771  0.4184000  2
    361    373    811    802     1  0.0000000  1.6024720  3
    364    370    782    773     1  180.0000771  0.4184000  2
    364    370    782    773     1  0.0000000  1.6024720  3
    370    782    773    764     1  180.0000771  0.4184000  2
    370    782    773    764     1  0.0000000  1.6024720  3
    373    811    802    793     1  180.0000771  0.4184000  2
    373    811    802    793     1  0.0000000  1.6024720  3
    377    378    390    402     1  0.0000000  0.6508444  3
    377    381    393    399     1  0.0000000  0.6508444  3
    377    384    387    396     1  0.0000000  0.6508444  3
    378    377    381    393     1  180.0000771  2.0083200  2
    378    377    381    393     1  0.0000000  1.2552000  3
    378    377    384    387     1  180.0000771  2.0083200  2
    378    377    384    387     1  0.0000000  1.2552000  3
    378    390    402    869     1  0.0000000  0.6508444  3
    381    377    378    390     1  180.0000771  2.0083200  2
    381    377    378    390     1  0.0000000  1.2552000  3
    381    377    384    387     1  180.0000771  2.0083200  2
    381    377    384    387     1  0.0000000  1.2552000  3
    381    393    399    840     1  0.0000000  0.6508444  3
    384    377    378    390     1  180.0000771  2.0083200  2
    384    377    378    390     1  0.0000000  1.2552000  3
    384    377    381    393     1  180.0000771  2.0083200  2
    384    377    381    393     1  0.0000000  1.2552000  3
    384    387    396    405     1  0.0000000  0.6508444  3
    390    402    869    860     1  180.0000771  0.4184000  2
    390    402    869    860     1  0.0000000  1.6024720  3
    393    399    840    831     1  180.0000771  0.4184000  2
    393    399    840    831     1  0.0000000  1.6024720  3
    399    840    831    822     1  180.0000771  0.4184000  2
    399    840    831    822     1  0.0000000  1.6024720  3
    402    869    860    851     1  180.0000771  0.4184000  2
    402    869    860    851     1  0.0000000  1.6024720  3
    406    407    419    431     1  0.0000000  0.6508444  3
    406    410    422    428     1  0.0000000  0.6508444  3
    406    413    416    425     1  0.0000000  0.6508444  3
    407    406    410    422     1  180.0000771  2.0083200  2
    407    406    410    422     1  0.0000000  1.2552000  3
    407    406    413    416     1  180.0000771  2.0083200  2
    407    406    413    416     1  0.0000000  1.2552000  3
    407    419    431    927     1  0.0000000  0.6508444  3
    410    406    407    419     1  180.0000771  2.0083200  2
    410    406    407    419     1  0.0000000  1.2552000  3
    410    406    413    416     1  180.0000771  2.0083200  2
    410    406    413    416     1  0.0000000  1.2552000  3
    410    422    428    898     1  0.0000000  0.6508444  3
    413    406    407    419     1  180.0000771  2.0083200  2
    413    406    407    419     1  0.0000000  1.2552000  3
    413    406    410    422     1  180.0000771  2.0083200  2
    413    406    410    422     1  0.0000000  1.2552000  3
    413    416    425    434     1  0.0000000  0.6508444  3
    419    431    927    918     1  180.0000771  0.4184000  2
    419    431    927    918     1  0.0000000  1.6024720  3
    422    428    898    889     1  180.0000771  0.4184000  2
    422    428    898    889     1  0.0000000  1.6024720  3
    428    898    889    880     1  180.0000771  0.4184000  2
    428    898    889    880     1  0.0000000  1.6024720  3
    431    927    918    909     1  180.0000771  0.4184000  2
    431    927    918    909     1  0.0000000  1.6024720  3
    435    436    448    460     1  0.0000000  0.6508444  3
    435    439    451    457     1  0.0000000  0.6508444  3
    435    442    445    454     1  0.0000000  0.6508444  3
    436    435    439    451     1  180.0000771  2.0083200  2
    436    435    439    451     1  0.0000000  1.2552000  3
    436    435    442    445     1  180.0000771  2.0083200  2
    436    435    442    445     1  0.0000000  1.2552000  3
    436    448    460    985     1  0.0000000  0.6508444  3
    439    435    436    448     1  180.0000771  2.0083200  2
    439    435    436    448     1  0.0000000  1.2552000  3
    439    435    442    445     1  180.0000771  2.0083200  2
    439    435    442    445     1  0.0000000  1.2552000  3
    439    451    457    956     1  0.0000000  0.6508444  3
    442    435    436    448     1  180.0000771  2.0083200  2
    442    435    436    448     1  0.0000000  1.2552000  3
    442    435    439    451     1  180.0000771  2.0083200  2
    442    435    439    451     1  0.0000000  1.2552000  3
    442    445    454    463     1  0.0000000  0.6508444  3
    448    460    985    976     1  180.0000771  0.4184000  2
    448    460    985    976     1  0.0000000  1.6024720  3
    451    457    956    947     1  180.0000771  0.4184000  2
    451    457    956    947     1  0.0000000  1.6024720  3
    457    956    947    938     1  180.0000771  0.4184000  2
    457    956    947    938     1  0.0000000  1.6024720  3
    460    985    976    967     1  180.0000771  0.4184000  2
    460    985    976    967     1  0.0000000  1.6024720  3
    464    465    477    489     1  0.0000000  0.6508444  3
    464    468    480    486     1  0.0000000  0.6508444  3
    464    471    474    483     1  0.0000000  0.6508444  3
    465    464    468    480     1  180.0000771  2.0083200  2
    465    464    468    480     1  0.0000000  1.2552000  3
    465    464    471    474     1  180.0000771  2.0083200  2
    465    464    471    474     1  0.0000000  1.2552000  3
    465    477    489   1043     1  0.0000000  0.6508444  3
    468    464    465    477     1  180.0000771  2.0083200  2
    468    464    465    477     1  0.0000000  1.2552000  3
    468    464    471    474     1  180.0000771  2.0083200  2
    468    464    471    474     1  0.0000000  1.2552000  3
    468    480    486   1014     1  0.0000000  0.6508444  3
    471    464    465    477     1  180.0000771  2.0083200  2
    471    464    465    477     1  0.0000000  1.2552000  3
    471    464    468    480     1  180.0000771  2.0083200  2
    471    464    468    480     1  0.0000000  1.2552000  3
    471    474    483    492     1  0.0000000  0.6508444  3
    477    489   1043   1034     1  180.0000771  0.4184000  2
    477    489   1043   1034     1  0.0000000  1.6024720  3
    480    486   1014   1005     1  180.0000771  0.4184000  2
    480    486   1014   1005     1  0.0000000  1.6024720  3
    486   1014   1005    996     1  180.0000771  0.4184000  2
    486   1014   1005    996     1  0.0000000  1.6024720  3
    489   1043   1034   1025     1  180.0000771  0.4184000  2
    489   1043   1034   1025     1  0.0000000  1.6024720  3
    493    494    506    518     1  0.0000000  0.6508444  3
    493    497    509    515     1  0.0000000  0.6508444  3
    493    500    503    512     1  0.0000000  0.6508444  3
    494    493    497    509     1  180.0000771  2.0083200  2
    494    493    497    509     1  0.0000000  1.2552000  3
    494    493    500    503     1  180.0000771  2.0083200  2
    494    493    500    503     1  0.0000000  1.2552000  3
    494    506    518   1101     1  0.0000000  0.6508444  3
    497    493    494    506     1  180.0000771  2.0083200  2
    497    493    494    506     1  0.0000000  1.2552000  3
    497    493    500    503     1  180.0000771  2.0083200  2
    497    493    500    503     1  0.0000000  1.2552000  3
    497    509    515   1072     1  0.0000000  0.6508444  3
    500    493    494    506     1  180.0000771  2.0083200  2
    500    493    494    506     1  0.0000000  1.2552000  3
    500    493    497    509     1  180.0000771  2.0083200  2
    500    493    497    509     1  0.0000000  1.2552000  3
    500    503    512    521     1  0.0000000  0.6508444  3
    506    518   1101   1092     1  180.0000771  0.4184000  2
    506    518   1101   1092     1  0.0000000  1.6024720  3
    509    515   1072   1063     1  180.0000771  0.4184000  2
    509    515   1072   1063     1  0.0000000  1.6024720  3
    515   1072   1063   1054     1  180.0000771  0.4184000  2
    515   1072   1063   1054     1  0.0000000  1.6024720  3
    518   1101   1092   1083     1  180.0000771  0.4184000  2
    518   1101   1092   1083     1  0.0000000  1.6024720  3
    522    523    535    547     1  0.0000000  0.6508444  3
    522    526    538    544     1  0.0000000  0.6508444  3
    522    529    532    541     1  0.0000000  0.6508444  3
    523    522    526    538     1  180.0000771  2.0083200  2
    523    522    526    538     1  0.0000000  1.2552000  3
    523    522    529    532     1  180.0000771  2.0083200  2
    523    522    529    532     1  0.0000000  1.2552000  3
    523    535    547   1159     1  0.0000000  0.6508444  3
    526    522    523    535     1  180.0000771  2.0083200  2
    526    522    523    535     1  0.0000000  1.2552000  3
    526    522    529    532     1  180.0000771  2.0083200  2
    526    522    529    532     1  0.0000000  1.2552000  3
    526    538    544   1130     1  0.0000000  0.6508444  3
    529    522    523    535     1  180.0000771  2.0083200  2
    529    522    523    535     1  0.0000000  1.2552000  3
    529    522    526    538     1  180.0000771  2.0083200  2
    529    522    526    538     1  0.0000000  1.2552000  3
    529    532    541    550     1  0.0000000  0.6508444  3
    535    547   1159   1150     1  180.0000771  0.4184000  2
    535    547   1159   1150     1  0.0000000  1.6024720  3
    538    544   1130   1121     1  180.0000771  0.4184000  2
    538    544   1130   1121     1  0.0000000  1.6024720  3
    544   1130   1121   1112     1  180.0000771  0.4184000  2
    544   1130   1121   1112     1  0.0000000  1.6024720  3
    547   1159   1150   1141     1  180.0000771  0.4184000  2
    547   1159   1150   1141     1  0.0000000  1.6024720  3
    551    552    564    576     1  0.0000000  0.6508444  3
    551    555    567    573     1  0.0000000  0.6508444  3
    551    558    561    570     1  0.0000000  0.6508444  3
    552    551    555    567     1  180.0000771  2.0083200  2
    552    551    555    567     1  0.0000000  1.2552000  3
    552    551    558    561     1  180.0000771  2.0083200  2
    552    551    558    561     1  0.0000000  1.2552000  3
    552    564    576   1217     1  0.0000000  0.6508444  3
    555    551    552    564     1  180.0000771  2.0083200  2
    555    551    552    564     1  0.0000000  1.2552000  3
    555    551    558    561     1  180.0000771  2.0083200  2
    555    551    558    561     1  0.0000000  1.2552000  3
    555    567    573   1188     1  0.0000000  0.6508444  3
    558    551    552    564     1  180.0000771  2.0083200  2
    558    551    552    564     1  0.0000000  1.2552000  3
    558    551    555    567     1  180.0000771  2.0083200  2
    558    551    555    567     1  0.0000000  1.2552000  3
    558    561    570    579     1  0.0000000  0.6508444  3
    564    576   1217   1208     1  180.0000771  0.4184000  2
    564    576   1217   1208     1  0.0000000  1.6024720  3
    567    573   1188   1179     1  180.0000771  0.4184000  2
    567    573   1188   1179     1  0.0000000  1.6024720  3
    573   1188   1179   1170     1  180.0000771  0.4184000  2
    573   1188   1179   1170     1  0.0000000  1.6024720  3
    576   1217   1208   1199     1  180.0000771  0.4184000  2
    576   1217   1208   1199     1  0.0000000  1.6024720  3
    580    581    593    605     1  0.0000000  0.6508444  3
    580    584    596    602     1  0.0000000  0.6508444  3
    580    587    590    599     1  0.0000000  0.6508444  3
    581    580    584    596     1  180.0000771  2.0083200  2
    581    580    584    596     1  0.0000000  1.2552000  3
    581    580    587    590     1  180.0000771  2.0083200  2
    581    580    587    590     1  0.0000000  1.2552000  3
    581    593    605   1275     1  0.0000000  0.6508444  3
    584    580    581    593     1  180.0000771  2.0083200  2
    584    580    581    593     1  0.0000000  1.2552000  3
    584    580    587    590     1  180.0000771  2.0083200  2
    584    580    587    590     1  0.0000000  1.2552000  3
    584    596    602   1246     1  0.0000000  0.6508444  3
    587    580    581    593     1  180.0000771  2.0083200  2
    587    580    581    593     1  0.0000000  1.2552000  3
    587    580    584    596     1  180.0000771  2.0083200  2
    587    580    584    596     1  0.0000000  1.2552000  3
    587    590    599    608     1  0.0000000  0.6508444  3
    593    605   1275   1266     1  180.0000771  0.4184000  2
    593    605   1275   1266     1  0.0000000  1.6024720  3
    596    602   1246   1237     1  180.0000771  0.4184000  2
    596    602   1246   1237     1  0.0000000  1.6024720  3
    602   1246   1237   1228     1  180.0000771  0.4184000  2
    602   1246   1237   1228     1  0.0000000  1.6024720  3
    605   1275   1266   1257     1  180.0000771  0.4184000  2
    605   1275   1266   1257     1  0.0000000  1.6024720  3
    609    610    622    634     1  0.0000000  0.6508444  3
    609    613    625    631     1  0.0000000  0.6508444  3
    609    616    619    628     1  0.0000000  0.6508444  3
    610    609    613    625     1  180.0000771  2.0083200  2
    610    609    613    625     1  0.0000000  1.2552000  3
    610    609    616    619     1  180.0000771  2.0083200  2
    610    609    616    619     1  0.0000000  1.2552000  3
    610    622    634   1333     1  0.0000000  0.6508444  3
    613    609    610    622     1  180.0000771  2.0083200  2
    613    609    610    622     1  0.0000000  1.2552000  3
    613    609    616    619     1  180.0000771  2.0083200  2
    613    609    616    619     1  0.0000000  1.2552000  3
    613    625    631   1304     1  0.0000000  0.6508444  3
    616    609    610    622     1  180.0000771  2.0083200  2
    616    609    610    622     1  0.0000000  1.2552000  3
    616    609    613    625     1  180.0000771  2.0083200  2
    616    609    613    625     1  0.0000000  1.2552000  3
    616    619    628    637     1  0.0000000  0.6508444  3
    622    634   1333   1324     1  180.0000771  0.4184000  2
    622    634   1333   1324     1  0.0000000  1.6024720  3
    625    631   1304   1295     1  180.0000771  0.4184000  2
    625    631   1304   1295     1  0.0000000  1.6024720  3
    631   1304   1295   1286     1  180.0000771  0.4184000  2
    631   1304   1295   1286     1  0.0000000  1.6024720  3
    634   1333   1324   1315     1  180.0000771  0.4184000  2
    634   1333   1324   1315     1  0.0000000  1.6024720  3
    638    639    651    663     1  0.0000000  0.6508444  3
    638    642    654    660     1  0.0000000  0.6508444  3
    638    645    648    657     1  0.0000000  0.6508444  3
    639    638    642    654     1  180.0000771  2.0083200  2
    639    638    642    654     1  0.0000000  1.2552000  3
    639    638    645    648     1  180.0000771  2.0083200  2
    639    638    645    648     1  0.0000000  1.2552000  3
    639    651    663   1391     1  0.0000000  0.6508444  3
    642    638    639    651     1  180.0000771  2.0083200  2
    642    638    639    651     1  0.0000000  1.2552000  3
    642    638    645    648     1  180.0000771  2.0083200  2
    642    638    645    648     1  0.0000000  1.2552000  3
    642    654    660   1362     1  0.0000000  0.6508444  3
    645    638    639    651     1  180.0000771  2.0083200  2
    645    638    639    651     1  0.0000000  1.2552000  3
    645    638    642    654     1  180.0000771  2.0083200  2
    645    638    642    654     1  0.0000000  1.2552000  3
    645    648    657    666     1  0.0000000  0.6508444  3
    651    663   1391   1382     1  180.0000771  0.4184000  2
    651    663   1391   1382     1  0.0000000  1.6024720  3
    654    660   1362   1353     1  180.0000771  0.4184000  2
    654    660   1362   1353     1  0.0000000  1.6024720  3
    660   1362   1353   1344     1  180.0000771  0.4184000  2
    660   1362   1353   1344     1  0.0000000  1.6024720  3
    663   1391   1382   1373     1  180.0000771  0.4184000  2
    663   1391   1382   1373     1  0.0000000  1.6024720  3
    667    668    680    692     1  0.0000000  0.6508444  3
    667    671    683    689     1  0.0000000  0.6508444  3
    667    674    677    686     1  0.0000000  0.6508444  3
    668    667    671    683     1  180.0000771  2.0083200  2
    668    667    671    683     1  0.0000000  1.2552000  3
    668    667    674    677     1  180.0000771  2.0083200  2
    668    667    674    677     1  0.0000000  1.2552000  3
    668    680    692   1449     1  0.0000000  0.6508444  3
    671    667    668    680     1  180.0000771  2.0083200  2
    671    667    668    680     1  0.0000000  1.2552000  3
    671    667    674    677     1  180.0000771  2.0083200  2
    671    667    674    677     1  0.0000000  1.2552000  3
    671    683    689   1420     1  0.0000000  0.6508444  3
    674    667    668    680     1  180.0000771  2.0083200  2
    674    667    668    680     1  0.0000000  1.2552000  3
    674    667    671    683     1  180.0000771  2.0083200  2
    674    667    671    683     1  0.0000000  1.2552000  3
    674    677    686    695     1  0.0000000  0.6508444  3
    680    692   1449   1440     1  180.0000771  0.4184000  2
    680    692   1449   1440     1  0.0000000  1.6024720  3
    683    689   1420   1411     1  180.0000771  0.4184000  2
    683    689   1420   1411     1  0.0000000  1.6024720  3
    689   1420   1411   1402     1  180.0000771  0.4184000  2
    689   1420   1411   1402     1  0.0000000  1.6024720  3
    692   1449   1440   1431     1  180.0000771  0.4184000  2
    692   1449   1440   1431     1  0.0000000  1.6024720  3
    696    697    709    721     1  0.0000000  0.6508444  3
    696    700    712    718     1  0.0000000  0.6508444  3
    696    703    706    715     1  0.0000000  0.6508444  3
    697    696    700    712     1  180.0000771  2.0083200  2
    697    696    700    712     1  0.0000000  1.2552000  3
    697    696    703    706     1  180.0000771  2.0083200  2
    697    696    703    706     1  0.0000000  1.2552000  3
    697    709    721   1507     1  0.0000000  0.6508444  3
    700    696    697    709     1  180.0000771  2.0083200  2
    700    696    697    709     1  0.0000000  1.2552000  3
    700    696    703    706     1  180.0000771  2.0083200  2
    700    696    703    706     1  0.0000000  1.2552000  3
    700    712    718   1478     1  0.0000000  0.6508444  3
    703    696    697    709     1  180.0000771  2.0083200  2
    703    696    697    709     1  0.0000000  1.2552000  3
    703    696    700    712     1  180.0000771  2.0083200  2
    703    696    700    712     1  0.0000000  1.2552000  3
    703    706    715    724     1  0.0000000  0.6508444  3
    709    721   1507   1498     1  180.0000771  0.4184000  2
    709    721   1507   1498     1  0.0000000  1.6024720  3
    712    718   1478   1469     1  180.0000771  0.4184000  2
    712    718   1478   1469     1  0.0000000  1.6024720  3
    718   1478   1469   1460     1  180.0000771  0.4184000  2
    718   1478   1469   1460     1  0.0000000  1.6024720  3
    721   1507   1498   1489     1  180.0000771  0.4184000  2
    721   1507   1498   1489     1  0.0000000  1.6024720  3
    725    726    738    750     1  0.0000000  0.6508444  3
    725    729    741    747     1  0.0000000  0.6508444  3
    725    732    735    744     1  0.0000000  0.6508444  3
    726    725    729    741     1  180.0000771  2.0083200  2
    726    725    729    741     1  0.0000000  1.2552000  3
    726    725    732    735     1  180.0000771  2.0083200  2
    726    725    732    735     1  0.0000000  1.2552000  3
    726    738    750   1565     1  0.0000000  0.6508444  3
    729    725    726    738     1  180.0000771  2.0083200  2
    729    725    726    738     1  0.0000000  1.2552000  3
    729    725    732    735     1  180.0000771  2.0083200  2
    729    725    732    735     1  0.0000000  1.2552000  3
    729    741    747   1536     1  0.0000000  0.6508444  3
    732    725    726    738     1  180.0000771  2.0083200  2
    732    725    726    738     1  0.0000000  1.2552000  3
    732    725    729    741     1  180.0000771  2.0083200  2
    732    725    729    741     1  0.0000000  1.2552000  3
    732    735    744    753     1  0.0000000  0.6508444  3
    738    750   1565   1556     1  180.0000771  0.4184000  2
    738    750   1565   1556     1  0.0000000  1.6024720  3
    741    747   1536   1527     1  180.0000771  0.4184000  2
    741    747   1536   1527     1  0.0000000  1.6024720  3
    747   1536   1527   1518     1  180.0000771  0.4184000  2
    747   1536   1527   1518     1  0.0000000  1.6024720  3
    750   1565   1556   1547     1  180.0000771  0.4184000  2
    750   1565   1556   1547     1  0.0000000  1.6024720  3
    754    755    767    779     1  0.0000000  0.6508444  3
    754    758    770    776     1  0.0000000  0.6508444  3
    754    761    764    773     1  0.0000000  0.6508444  3
    755    754    758    770     1  180.0000771  2.0083200  2
    755    754    758    770     1  0.0000000  1.2552000  3
    755    754    761    764     1  180.0000771  2.0083200  2
    755    754    761    764     1  0.0000000  1.2552000  3
    755    767    779   1623     1  0.0000000  0.6508444  3
    758    754    755    767     1  180.0000771  2.0083200  2
    758    754    755    767     1  0.0000000  1.2552000  3
    758    754    761    764     1  180.0000771  2.0083200  2
    758    754    761    764     1  0.0000000  1.2552000  3
    758    770    776   1594     1  0.0000000  0.6508444  3
    761    754    755    767     1  180.0000771  2.0083200  2
    761    754    755    767     1  0.0000000  1.2552000  3
    761    754    758    770     1  180.0000771  2.0083200  2
    761    754    758    770     1  0.0000000  1.2552000  3
    761    764    773    782     1  0.0000000  0.6508444  3
    767    779   1623   1614     1  180.0000771  0.4184000  2
    767    779   1623   1614     1  0.0000000  1.6024720  3
    770    776   1594   1585     1  180.0000771  0.4184000  2
    770    776   1594   1585     1  0.0000000  1.6024720  3
    776   1594   1585   1576     1  180.0000771  0.4184000  2
    776   1594   1585   1576     1  0.0000000  1.6024720  3
    779   1623   1614   1605     1  180.0000771  0.4184000  2
    779   1623   1614   1605     1  0.0000000  1.6024720  3
    783    784    796    808     1  0.0000000  0.6508444  3
    783    787    799    805     1  0.0000000  0.6508444  3
    783    790    793    802     1  0.0000000  0.6508444  3
    784    783    787    799     1  180.0000771  2.0083200  2
    784    783    787    799     1  0.0000000  1.2552000  3
    784    783    790    793     1  180.0000771  2.0083200  2
    784    783    790    793     1  0.0000000  1.2552000  3
    784    796    808   1681     1  0.0000000  0.6508444  3
    787    783    784    796     1  180.0000771  2.0083200  2
    787    783    784    796     1  0.0000000  1.2552000  3
    787    783    790    793     1  180.0000771  2.0083200  2
    787    783    790    793     1  0.0000000  1.2552000  3
    787    799    805   1652     1  0.0000000  0.6508444  3
    790    783    784    796     1  180.0000771  2.0083200  2
    790    783    784    796     1  0.0000000  1.2552000  3
    790    783    787    799     1  180.0000771  2.0083200  2
    790    783    787    799     1  0.0000000  1.2552000  3
    790    793    802    811     1  0.0000000  0.6508444  3
    796    808   1681   1672     1  180.0000771  0.4184000  2
    796    808   1681   1672     1  0.0000000  1.6024720  3
    799    805   1652   1643     1  180.0000771  0.4184000  2
    799    805   1652   1643     1  0.0000000  1.6024720  3
    805   1652   1643   1634     1  180.0000771  0.4184000  2
    805   1652   1643   1634     1  0.0000000  1.6024720  3
    808   1681   1672   1663     1  180.0000771  0.4184000  2
    808   1681   1672   1663     1  0.0000000  1.6024720  3
    812    813    825    837     1  0.0000000  0.6508444  3
    812    816    828    834     1  0.0000000  0.6508444  3
    812    819    822    831     1  0.0000000  0.6508444  3
    813    812    816    828     1  180.0000771  2.0083200  2
    813    812    816    828     1  0.0000000  1.2552000  3
    813    812    819    822     1  180.0000771  2.0083200  2
    813    812    819    822     1  0.0000000  1.2552000  3
    813    825    837   1739     1  0.0000000  0.6508444  3
    816    812    813    825     1  180.0000771  2.0083200  2
    816    812    813    825     1  0.0000000  1.2552000  3
    816    812    819    822     1  180.0000771  2.0083200  2
    816    812    819    822     1  0.0000000  1.2552000  3
    816    828    834   1710     1  0.0000000  0.6508444  3
    819    812    813    825     1  180.0000771  2.0083200  2
    819    812    813    825     1  0.0000000  1.2552000  3
    819    812    816    828     1  180.0000771  2.0083200  2
    819    812    816    828     1  0.0000000  1.2552000  3
    819    822    831    840     1  0.0000000  0.6508444  3
    825    837   1739   1730     1  180.0000771  0.4184000  2
    825    837   1739   1730     1  0.0000000  1.6024720  3
    828    834   1710   1701     1  180.0000771  0.4184000  2
    828    834   1710   1701     1  0.0000000  1.6024720  3
    834   1710   1701   1692     1  180.0000771  0.4184000  2
    834   1710   1701   1692     1  0.0000000  1.6024720  3
    837   1739   1730   1721     1  180.0000771  0.4184000  2
    837   1739   1730   1721     1  0.0000000  1.6024720  3
    841    842    854    866     1  0.0000000  0.6508444  3
    841    845    857    863     1  0.0000000  0.6508444  3
    841    848    851    860     1  0.0000000  0.6508444  3
    842    841    845    857     1  180.0000771  2.0083200  2
    842    841    845    857     1  0.0000000  1.2552000  3
    842    841    848    851     1  180.0000771  2.0083200  2
    842    841    848    851     1  0.0000000  1.2552000  3
    842    854    866   1797     1  0.0000000  0.6508444  3
    845    841    842    854     1  180.0000771  2.0083200  2
    845    841    842    854     1  0.0000000  1.2552000  3
    845    841    848    851     1  180.0000771  2.0083200  2
    845    841    848    851     1  0.0000000  1.2552000  3
    845    857    863   1768     1  0.0000000  0.6508444  3
    848    841    842    854     1  180.0000771  2.0083200  2
    848    841    842    854     1  0.0000000  1.2552000  3
    848    841    845    857     1  180.0000771  2.0083200  2
    848    841    845    857     1  0.0000000  1.2552000  3
    848    851    860    869     1  0.0000000  0.6508444  3
    854    866   1797   1788     1  180.0000771  0.4184000  2
    854    866   1797   1788     1  0.0000000  1.6024720  3
    857    863   1768   1759     1  180.0000771  0.4184000  2
    857    863   1768   1759     1  0.0000000  1.6024720  3
    863   1768   1759   1750     1  180.0000771  0.4184000  2
    863   1768   1759   1750     1  0.0000000  1.6024720  3
    866   1797   1788   1779     1  180.0000771  0.4184000  2
    866   1797   1788   1779     1  0.0000000  1.6024720  3
    870    871    883    895     1  0.0000000  0.6508444  3
    870    874    886    892     1  0.0000000  0.6508444  3
    870    877    880    889     1  0.0000000  0.6508444  3
    871    870    874    886     1  180.0000771  2.0083200  2
    871    870    874    886     1  0.0000000  1.2552000  3
    871    870    877    880     1  180.0000771  2.0083200  2
    871    870    877    880     1  0.0000000  1.2552000  3
    871    883    895   1855     1  0.0000000  0.6508444  3
    874    870    871    883     1  180.0000771  2.0083200  2
    874    870    871    883     1  0.0000000  1.2552000  3
    874    870    877    880     1  180.0000771  2.0083200  2
    874    870    877    880     1  0.0000000  1.2552000  3
    874    886    892   1826     1  0.0000000  0.6508444  3
    877    870    871    883     1  180.0000771  2.0083200  2
    877    870    871    883     1  0.0000000  1.2552000  3
    877    870    874    886     1  180.0000771  2.0083200  2
    877    870    874    886     1  0.0000000  1.2552000  3
    877    880    889    898     1  0.0000000  0.6508444  3
    883    895   1855   1846     1  180.0000771  0.4184000  2
    883    895   1855   1846     1  0.0000000  1.6024720  3
    886    892   1826   1817     1  180.0000771  0.4184000  2
    886    892   1826   1817     1  0.0000000  1.6024720  3
    892   1826   1817   1808     1  180.0000771  0.4184000  2
    892   1826   1817   1808     1  0.0000000  1.6024720  3
    895   1855   1846   1837     1  180.0000771  0.4184000  2
    895   1855   1846   1837     1  0.0000000  1.6024720  3
    899    900    912    924     1  0.0000000  0.6508444  3
    899    903    915    921     1  0.0000000  0.6508444  3
    899    906    909    918     1  0.0000000  0.6508444  3
    900    899    903    915     1  180.0000771  2.0083200  2
    900    899    903    915     1  0.0000000  1.2552000  3
    900    899    906    909     1  180.0000771  2.0083200  2
    900    899    906    909     1  0.0000000  1.2552000  3
    900    912    924   1913     1  0.0000000  0.6508444  3
    903    899    900    912     1  180.0000771  2.0083200  2
    903    899    900    912     1  0.0000000  1.2552000  3
    903    899    906    909     1  180.0000771  2.0083200  2
    903    899    906    909     1  0.0000000  1.2552000  3
    903    915    921   1884     1  0.0000000  0.6508444  3
    906    899    900    912     1  180.0000771  2.0083200  2
    906    899    900    912     1  0.0000000  1.2552000  3
    906    899    903    915     1  180.0000771  2.0083200  2
    906    899    903    915     1  0.0000000  1.2552000  3
    906    909    918    927     1  0.0000000  0.6508444  3
    912    924   1913   1904     1  180.0000771  0.4184000  2
    912    924   1913   1904     1  0.0000000  1.6024720  3
    915    921   1884   1875     1  180.0000771  0.4184000  2
    915    921   1884   1875     1  0.0000000  1.6024720  3
    921   1884   1875   1866     1  180.0000771  0.4184000  2
    921   1884   1875   1866     1  0.0000000  1.6024720  3
    924   1913   1904   1895     1  180.0000771  0.4184000  2
    924   1913   1904   1895     1  0.0000000  1.6024720  3
    928    929    941    953     1  0.0000000  0.6508444  3
    928    932    944    950     1  0.0000000  0.6508444  3
    928    935    938    947     1  0.0000000  0.6508444  3
    929    928    932    944     1  180.0000771  2.0083200  2
    929    928    932    944     1  0.0000000  1.2552000  3
    929    928    935    938     1  180.0000771  2.0083200  2
    929    928    935    938     1  0.0000000  1.2552000  3
    929    941    953   1971     1  0.0000000  0.6508444  3
    932    928    929    941     1  180.0000771  2.0083200  2
    932    928    929    941     1  0.0000000  1.2552000  3
    932    928    935    938     1  180.0000771  2.0083200  2
    932    928    935    938     1  0.0000000  1.2552000  3
    932    944    950   1942     1  0.0000000  0.6508444  3
    935    928    929    941     1  180.0000771  2.0083200  2
    935    928    929    941     1  0.0000000  1.2552000  3
    935    928    932    944     1  180.0000771  2.0083200  2
    935    928    932    944     1  0.0000000  1.2552000  3
    935    938    947    956     1  0.0000000  0.6508444  3
    941    953   1971   1962     1  180.0000771  0.4184000  2
    941    953   1971   1962     1  0.0000000  1.6024720  3
    944    950   1942   1933     1  180.0000771  0.4184000  2
    944    950   1942   1933     1  0.0000000  1.6024720  3
    950   1942   1933   1924     1  180.0000771  0.4184000  2
    950   1942   1933   1924     1  0.0000000  1.6024720  3
    953   1971   1962   1953     1  180.0000771  0.4184000  2
    953   1971   1962   1953     1  0.0000000  1.6024720  3
    957    958    970    982     1  0.0000000  0.6508444  3
    957    961    973    979     1  0.0000000  0.6508444  3
    957    964    967    976     1  0.0000000  0.6508444  3
    958    957    961    973     1  180.0000771  2.0083200  2
    958    957    961    973     1  0.0000000  1.2552000  3
    958    957    964    967     1  180.0000771  2.0083200  2
    958    957    964    967     1  0.0000000  1.2552000  3
    958    970    982   2029     1  0.0000000  0.6508444  3
    961    957    958    970     1  180.0000771  2.0083200  2
    961    957    958    970     1  0.0000000  1.2552000  3
    961    957    964    967     1  180.0000771  2.0083200  2
    961    957    964    967     1  0.0000000  1.2552000  3
    961    973    979   2000     1  0.0000000  0.6508444  3
    964    957    958    970     1  180.0000771  2.0083200  2
    964    957    958    970     1  0.0000000  1.2552000  3
    964    957    961    973     1  180.0000771  2.0083200  2
    964    957    961    973     1  0.0000000  1.2552000  3
    964    967    976    985     1  0.0000000  0.6508444  3
    970    982   2029   2020     1  180.0000771  0.4184000  2
    970    982   2029   2020     1  0.0000000  1.6024720  3
    973    979   2000   1991     1  180.0000771  0.4184000  2
    973    979   2000   1991     1  0.0000000  1.6024720  3
    979   2000   1991   1982     1  180.0000771  0.4184000  2
    979   2000   1991   1982     1  0.0000000  1.6024720  3
    982   2029   2020   2011     1  180.0000771  0.4184000  2
    982   2029   2020   2011     1  0.0000000  1.6024720  3
    986    987    999   1011     1  0.0000000  0.6508444  3
    986    990   1002   1008     1  0.0000000  0.6508444  3
    986    993    996   1005     1  0.0000000  0.6508444  3
    987    986    990   1002     1  180.0000771  2.0083200  2
    987    986    990   1002     1  0.0000000  1.2552000  3
    987    986    993    996     1  180.0000771  2.0083200  2
    987    986    993    996     1  0.0000000  1.2552000  3
    987    999   1011   2087     1  0.0000000  0.6508444  3
    990    986    987    999     1  180.0000771  2.0083200  2
    990    986    987    999     1  0.0000000  1.2552000  3
    990    986    993    996     1  180.0000771  2.0083200  2
    990    986    993    996     1  0.0000000  1.2552000  3
    990   1002   1008   2058     1  0.0000000  0.6508444  3
    993    986    987    999     1  180.0000771  2.0083200  2
    993    986    987    999     1  0.0000000  1.2552000  3
    993    986    990   1002     1  180.0000771  2.0083200  2
    993    986    990   1002     1  0.0000000  1.2552000  3
    993    996   1005   1014     1  0.0000000  0.6508444  3
    999   1011   2087   2078     1  180.0000771  0.4184000  2
    999   1011   2087   2078     1  0.0000000  1.6024720  3
   1002   1008   2058   2049     1  180.0000771  0.4184000  2
   1002   1008   2058   2049     1  0.0000000  1.6024720  3
   1008   2058   2049   2040     1  180.0000771  0.4184000  2
   1008   2058   2049   2040     1  0.0000000  1.6024720  3
   1011   2087   2078   2069     1  180.0000771  0.4184000  2
   1011   2087   2078   2069     1  0.0000000  1.6024720  3
   1015   1016   1028   1040     1  0.0000000  0.6508444  3
   1015   1019   1031   1037     1  0.0000000  0.6508444  3
   1015   1022   1025   1034     1  0.0000000  0.6508444  3
   1016   1015   1019   1031     1  180.0000771  2.0083200  2
   1016   1015   1019   1031     1  0.0000000  1.2552000  3
   1016   1015   1022   1025     1  180.0000771  2.0083200  2
   1016   1015   1022   1025     1  0.0000000  1.2552000  3
   1016   1028   1040   2145     1  0.0000000  0.6508444  3
   1019   1015   1016   1028     1  180.0000771  2.0083200  2
   1019   1015   1016   1028     1  0.0000000  1.2552000  3
   1019   1015   1022   1025     1  180.0000771  2.0083200  2
   1019   1015   1022   1025     1  0.0000000  1.2552000  3
   1019   1031   1037   2116     1  0.0000000  0.6508444  3
   1022   1015   1016   1028     1  180.0000771  2.0083200  2
   1022   1015   1016   1028     1  0.0000000  1.2552000  3
   1022   1015   1019   1031     1  180.0000771  2.0083200  2
   1022   1015   1019   1031     1  0.0000000  1.2552000  3
   1022   1025   1034   1043     1  0.0000000  0.6508444  3
   1028   1040   2145   2136     1  180.0000771  0.4184000  2
   1028   1040   2145   2136     1  0.0000000  1.6024720  3
   1031   1037   2116   2107     1  180.0000771  0.4184000  2
   1031   1037   2116   2107     1  0.0000000  1.6024720  3
   1037   2116   2107   2098     1  180.0000771  0.4184000  2
   1037   2116   2107   2098     1  0.0000000  1.6024720  3
   1040   2145   2136   2127     1  180.0000771  0.4184000  2
   1040   2145   2136   2127     1  0.0000000  1.6024720  3
   1044   1045   1057   1069     1  0.0000000  0.6508444  3
   1044   1048   1060   1066     1  0.0000000  0.6508444  3
   1044   1051   1054   1063     1  0.0000000  0.6508444  3
   1045   1044   1048   1060     1  180.0000771  2.0083200  2
   1045   1044   1048   1060     1  0.0000000  1.2552000  3
   1045   1044   1051   1054     1  180.0000771  2.0083200  2
   1045   1044   1051   1054     1  0.0000000  1.2552000  3
   1045   1057   1069   2203     1  0.0000000  0.6508444  3
   1048   1044   1045   1057     1  180.0000771  2.0083200  2
   1048   1044   1045   1057     1  0.0000000  1.2552000  3
   1048   1044   1051   1054     1  180.0000771  2.0083200  2
   1048   1044   1051   1054     1  0.0000000  1.2552000  3
   1048   1060   1066   2174     1  0.0000000  0.6508444  3
   1051   1044   1045   1057     1  180.0000771  2.0083200  2
   1051   1044   1045   1057     1  0.0000000  1.2552000  3
   1051   1044   1048   1060     1  180.0000771  2.0083200  2
   1051   1044   1048   1060     1  0.0000000  1.2552000  3
   1051   1054   1063   1072     1  0.0000000  0.6508444  3
   1057   1069   2203   2194     1  180.0000771  0.4184000  2
   1057   1069   2203   2194     1  0.0000000  1.6024720  3
   1060   1066   2174   2165     1  180.0000771  0.4184000  2
   1060   1066   2174   2165     1  0.0000000  1.6024720  3
   1066   2174   2165   2156     1  180.0000771  0.4184000  2
   1066   2174   2165   2156     1  0.0000000  1.6024720  3
   1069   2203   2194   2185     1  180.0000771  0.4184000  2
   1069   2203   2194   2185     1  0.0000000  1.6024720  3
   1073   1074   1086   1098     1  0.0000000  0.6508444  3
   1073   1077   1089   1095     1  0.0000000  0.6508444  3
   1073   1080   1083   1092     1  0.0000000  0.6508444  3
   1074   1073   1077   1089     1  180.0000771  2.0083200  2
   1074   1073   1077   1089     1  0.0000000  1.2552000  3
   1074   1073   1080   1083     1  180.0000771  2.0083200  2
   1074   1073   1080   1083     1  0.0000000  1.2552000  3
   1074   1086   1098   2261     1  0.0000000  0.6508444  3
   1077   1073   1074   1086     1  180.0000771  2.0083200  2
   1077   1073   1074   1086     1  0.0000000  1.2552000  3
   1077   1073   1080   1083     1  180.0000771  2.0083200  2
   1077   1073   1080   1083     1  0.0000000  1.2552000  3
   1077   1089   1095   2232     1  0.0000000  0.6508444  3
   1080   1073   1074   1086     1  180.0000771  2.0083200  2
   1080   1073   1074   1086     1  0.0000000  1.2552000  3
   1080   1073   1077   1089     1  180.0000771  2.0083200  2
   1080   1073   1077   1089     1  0.0000000  1.2552000  3
   1080   1083   1092   1101     1  0.0000000  0.6508444  3
   1086   1098   2261   2252     1  180.0000771  0.4184000  2
   1086   1098   2261   2252     1  0.0000000  1.6024720  3
   1089   1095   2232   2223     1  180.0000771  0.4184000  2
   1089   1095   2232   2223     1  0.0000000  1.6024720  3
   1095   2232   2223   2214     1  180.0000771  0.4184000  2
   1095   2232   2223   2214     1  0.0000000  1.6024720  3
   1098   2261   2252   2243     1  180.0000771  0.4184000  2
   1098   2261   2252   2243     1  0.0000000  1.6024720  3
   1102   1103   1115   1127     1  0.0000000  0.6508444  3
   1102   1106   1118   1124     1  0.0000000  0.6508444  3
   1102   1109   1112   1121     1  0.0000000  0.6508444  3
   1103   1102   1106   1118     1  180.0000771  2.0083200  2
   1103   1102   1106   1118     1  0.0000000  1.2552000  3
   1103   1102   1109   1112     1  180.0000771  2.0083200  2
   1103   1102   1109   1112     1  0.0000000  1.2552000  3
   1103   1115   1127   2319     1  0.0000000  0.6508444  3
   1106   1102   1103   1115     1  180.0000771  2.0083200  2
   1106   1102   1103   1115     1  0.0000000  1.2552000  3
   1106   1102   1109   1112     1  180.0000771  2.0083200  2
   1106   1102   1109   1112     1  0.0000000  1.2552000  3
   1106   1118   1124   2290     1  0.0000000  0.6508444  3
   1109   1102   1103   1115     1  180.0000771  2.0083200  2
   1109   1102   1103   1115     1  0.0000000  1.2552000  3
   1109   1102   1106   1118     1  180.0000771  2.0083200  2
   1109   1102   1106   1118     1  0.0000000  1.2552000  3
   1109   1112   1121   1130     1  0.0000000  0.6508444  3
   1115   1127   2319   2310     1  180.0000771  0.4184000  2
   1115   1127   2319   2310     1  0.0000000  1.6024720  3
   1118   1124   2290   2281     1  180.0000771  0.4184000  2
   1118   1124   2290   2281     1  0.0000000  1.6024720  3
   1124   2290   2281   2272     1  180.0000771  0.4184000  2
   1124   2290   2281   2272     1  0.0000000  1.6024720  3
   1127   2319   2310   2301     1  180.0000771  0.4184000  2
   1127   2319   2310   2301     1  0.0000000  1.6024720  3
   1131   1132   1144   1156     1  0.0000000  0.6508444  3
   1131   1135   1147   1153     1  0.0000000  0.6508444  3
   1131   1138   1141   1150     1  0.0000000  0.6508444  3
   1132   1131   1135   1147     1  180.0000771  2.0083200  2
   1132   1131   1135   1147     1  0.0000000  1.2552000  3
   1132   1131   1138   1141     1  180.0000771  2.0083200  2
   1132   1131   1138   1141     1  0.0000000  1.2552000  3
   1132   1144   1156   2377     1  0.0000000  0.6508444  3
   1135   1131   1132   1144     1  180.0000771  2.0083200  2
   1135   1131   1132   1144     1  0.0000000  1.2552000  3
   1135   1131   1138   1141     1  180.0000771  2.0083200  2
   1135   1131   1138   1141     1  0.0000000  1.2552000  3
   1135   1147   1153   2348     1  0.0000000  0.6508444  3
   1138   1131   1132   1144     1  180.0000771  2.0083200  2
   1138   1131   1132   1144     1  0.0000000  1.2552000  3
   1138   1131   1135   1147     1  180.0000771  2.0083200  2
   1138   1131   1135   1147     1  0.0000000  1.2552000  3
   1138   1141   1150   1159     1  0.0000000  0.6508444  3
   1144   1156   2377   2368     1  180.0000771  0.4184000  2
   1144   1156   2377   2368     1  0.0000000  1.6024720  3
   1147   1153   2348   2339     1  180.0000771  0.4184000  2
   1147   1153   2348   2339     1  0.0000000  1.6024720  3
   1153   2348   2339   2330     1  180.0000771  0.4184000  2
   1153   2348   2339   2330     1  0.0000000  1.6024720  3
   1156   2377   2368   2359     1  180.0000771  0.4184000  2
   1156   2377   2368   2359     1  0.0000000  1.6024720  3
   1160   1161   1173   1185     1  0.0000000  0.6508444  3
   1160   1164   1176   1182     1  0.0000000  0.6508444  3
   1160   1167   1170   1179     1  0.0000000  0.6508444  3
   1161   1160   1164   1176     1  180.0000771  2.0083200  2
   1161   1160   1164   1176     1  0.0000000  1.2552000  3
   1161   1160   1167   1170     1  180.0000771  2.0083200  2
   1161   1160   1167   1170     1  0.0000000  1.2552000  3
   1161   1173   1185   2435     1  0.0000000  0.6508444  3
   1164   1160   1161   1173     1  180.0000771  2.0083200  2
   1164   1160   1161   1173     1  0.0000000  1.2552000  3
   1164   1160   1167   1170     1  180.0000771  2.0083200  2
   1164   1160   1167   1170     1  0.0000000  1.2552000  3
   1164   1176   1182   2406     1  0.0000000  0.6508444  3
   1167   1160   1161   1173     1  180.0000771  2.0083200  2
   1167   1160   1161   1173     1  0.0000000  1.2552000  3
   1167   1160   1164   1176     1  180.0000771  2.0083200  2
   1167   1160   1164   1176     1  0.0000000  1.2552000  3
   1167   1170   1179   1188     1  0.0000000  0.6508444  3
   1173   1185   2435   2426     1  180.0000771  0.4184000  2
   1173   1185   2435   2426     1  0.0000000  1.6024720  3
   1176   1182   2406   2397     1  180.0000771  0.4184000  2
   1176   1182   2406   2397     1  0.0000000  1.6024720  3
   1182   2406   2397   2388     1  180.0000771  0.4184000  2
   1182   2406   2397   2388     1  0.0000000  1.6024720  3
   1185   2435   2426   2417     1  180.0000771  0.4184000  2
   1185   2435   2426   2417     1  0.0000000  1.6024720  3
   1189   1190   1202   1214     1  0.0000000  0.6508444  3
   1189   1193   1205   1211     1  0.0000000  0.6508444  3
   1189   1196   1199   1208     1  0.0000000  0.6508444  3
   1190   1189   1193   1205     1  180.0000771  2.0083200  2
   1190   1189   1193   1205     1  0.0000000  1.2552000  3
   1190   1189   1196   1199     1  180.0000771  2.0083200  2
   1190   1189   1196   1199     1  0.0000000  1.2552000  3
   1190   1202   1214   2493     1  0.0000000  0.6508444  3
   1193   1189   1190   1202     1  180.0000771  2.0083200  2
   1193   1189   1190   1202     1  0.0000000  1.2552000  3
   1193   1189   1196   1199     1  180.0000771  2.0083200  2
   1193   1189   1196   1199     1  0.0000000  1.2552000  3
   1193   1205   1211   2464     1  0.0000000  0.6508444  3
   1196   1189   1190   1202     1  180.0000771  2.0083200  2
   1196   1189   1190   1202     1  0.0000000  1.2552000  3
   1196   1189   1193   1205     1  180.0000771  2.0083200  2
   1196   1189   1193   1205     1  0.0000000  1.2552000  3
   1196   1199   1208   1217     1  0.0000000  0.6508444  3
   1202   1214   2493   2484     1  180.0000771  0.4184000  2
   1202   1214   2493   2484     1  0.0000000  1.6024720  3
   1205   1211   2464   2455     1  180.0000771  0.4184000  2
   1205   1211   2464   2455     1  0.0000000  1.6024720  3
   1211   2464   2455   2446     1  180.0000771  0.4184000  2
   1211   2464   2455   2446     1  0.0000000  1.6024720  3
   1214   2493   2484   2475     1  180.0000771  0.4184000  2
   1214   2493   2484   2475     1  0.0000000  1.6024720  3
   1218   1219   1231   1243     1  0.0000000  0.6508444  3
   1218   1222   1234   1240     1  0.0000000  0.6508444  3
   1218   1225   1228   1237     1  0.0000000  0.6508444  3
   1219   1218   1222   1234     1  180.0000771  2.0083200  2
   1219   1218   1222   1234     1  0.0000000  1.2552000  3
   1219   1218   1225   1228     1  180.0000771  2.0083200  2
   1219   1218   1225   1228     1  0.0000000  1.2552000  3
   1219   1231   1243   2551     1  0.0000000  0.6508444  3
   1222   1218   1219   1231     1  180.0000771  2.0083200  2
   1222   1218   1219   1231     1  0.0000000  1.2552000  3
   1222   1218   1225   1228     1  180.0000771  2.0083200  2
   1222   1218   1225   1228     1  0.0000000  1.2552000  3
   1222   1234   1240   2522     1  0.0000000  0.6508444  3
   1225   1218   1219   1231     1  180.0000771  2.0083200  2
   1225   1218   1219   1231     1  0.0000000  1.2552000  3
   1225   1218   1222   1234     1  180.0000771  2.0083200  2
   1225   1218   1222   1234     1  0.0000000  1.2552000  3
   1225   1228   1237   1246     1  0.0000000  0.6508444  3
   1231   1243   2551   2542     1  180.0000771  0.4184000  2
   1231   1243   2551   2542     1  0.0000000  1.6024720  3
   1234   1240   2522   2513     1  180.0000771  0.4184000  2
   1234   1240   2522   2513     1  0.0000000  1.6024720  3
   1240   2522   2513   2504     1  180.0000771  0.4184000  2
   1240   2522   2513   2504     1  0.0000000  1.6024720  3
   1243   2551   2542   2533     1  180.0000771  0.4184000  2
   1243   2551   2542   2533     1  0.0000000  1.6024720  3
   1247   1248   1260   1272     1  0.0000000  0.6508444  3
   1247   1251   1263   1269     1  0.0000000  0.6508444  3
   1247   1254   1257   1266     1  0.0000000  0.6508444  3
   1248   1247   1251   1263     1  180.0000771  2.0083200  2
   1248   1247   1251   1263     1  0.0000000  1.2552000  3
   1248   1247   1254   1257     1  180.0000771  2.0083200  2
   1248   1247   1254   1257     1  0.0000000  1.2552000  3
   1248   1260   1272   2609     1  0.0000000  0.6508444  3
   1251   1247   1248   1260     1  180.0000771  2.0083200  2
   1251   1247   1248   1260     1  0.0000000  1.2552000  3
   1251   1247   1254   1257     1  180.0000771  2.0083200  2
   1251   1247   1254   1257     1  0.0000000  1.2552000  3
   1251   1263   1269   2580     1  0.0000000  0.6508444  3
   1254   1247   1248   1260     1  180.0000771  2.0083200  2
   1254   1247   1248   1260     1  0.0000000  1.2552000  3
   1254   1247   1251   1263     1  180.0000771  2.0083200  2
   1254   1247   1251   1263     1  0.0000000  1.2552000  3
   1254   1257   1266   1275     1  0.0000000  0.6508444  3
   1260   1272   2609   2600     1  180.0000771  0.4184000  2
   1260   1272   2609   2600     1  0.0000000  1.6024720  3
   1263   1269   2580   2571     1  180.0000771  0.4184000  2
   1263   1269   2580   2571     1  0.0000000  1.6024720  3
   1269   2580   2571   2562     1  180.0000771  0.4184000  2
   1269   2580   2571   2562     1  0.0000000  1.6024720  3
   1272   2609   2600   2591     1  180.0000771  0.4184000  2
   1272   2609   2600   2591     1  0.0000000  1.6024720  3
   1276   1277   1289   1301     1  0.0000000  0.6508444  3
   1276   1280   1292   1298     1  0.0000000  0.6508444  3
   1276   1283   1286   1295     1  0.0000000  0.6508444  3
   1277   1276   1280   1292     1  180.0000771  2.0083200  2
   1277   1276   1280   1292     1  0.0000000  1.2552000  3
   1277   1276   1283   1286     1  180.0000771  2.0083200  2
   1277   1276   1283   1286     1  0.0000000  1.2552000  3
   1277   1289   1301   2667     1  0.0000000  0.6508444  3
   1280   1276   1277   1289     1  180.0000771  2.0083200  2
   1280   1276   1277   1289     1  0.0000000  1.2552000  3
   1280   1276   1283   1286     1  180.0000771  2.0083200  2
   1280   1276   1283   1286     1  0.0000000  1.2552000  3
   1280   1292   1298   2638     1  0.0000000  0.6508444  3
   1283   1276   1277   1289     1  180.0000771  2.0083200  2
   1283   1276   1277   1289     1  0.0000000  1.2552000  3
   1283   1276   1280   1292     1  180.0000771  2.0083200  2
   1283   1276   1280   1292     1  0.0000000  1.2552000  3
   1283   1286   1295   1304     1  0.0000000  0.6508444  3
   1289   1301   2667   2658     1  180.0000771  0.4184000  2
   1289   1301   2667   2658     1  0.0000000  1.6024720  3
   1292   1298   2638   2629     1  180.0000771  0.4184000  2
   1292   1298   2638   2629     1  0.0000000  1.6024720  3
   1298   2638   2629   2620     1  180.0000771  0.4184000  2
   1298   2638   2629   2620     1  0.0000000  1.6024720  3
   1301   2667   2658   2649     1  180.0000771  0.4184000  2
   1301   2667   2658   2649     1  0.0000000  1.6024720  3
   1305   1306   1318   1330     1  0.0000000  0.6508444  3
   1305   1309   1321   1327     1  0.0000000  0.6508444  3
   1305   1312   1315   1324     1  0.0000000  0.6508444  3
   1306   1305   1309   1321     1  180.0000771  2.0083200  2
   1306   1305   1309   1321     1  0.0000000  1.2552000  3
   1306   1305   1312   1315     1  180.0000771  2.0083200  2
   1306   1305   1312   1315     1  0.0000000  1.2552000  3
   1306   1318   1330   2725     1  0.0000000  0.6508444  3
   1309   1305   1306   1318     1  180.0000771  2.0083200  2
   1309   1305   1306   1318     1  0.0000000  1.2552000  3
   1309   1305   1312   1315     1  180.0000771  2.0083200  2
   1309   1305   1312   1315     1  0.0000000  1.2552000  3
   1309   1321   1327   2696     1  0.0000000  0.6508444  3
   1312   1305   1306   1318     1  180.0000771  2.0083200  2
   1312   1305   1306   1318     1  0.0000000  1.2552000  3
   1312   1305   1309   1321     1  180.0000771  2.0083200  2
   1312   1305   1309   1321     1  0.0000000  1.2552000  3
   1312   1315   1324   1333     1  0.0000000  0.6508444  3
   1318   1330   2725   2716     1  180.0000771  0.4184000  2
   1318   1330   2725   2716     1  0.0000000  1.6024720  3
   1321   1327   2696   2687     1  180.0000771  0.4184000  2
   1321   1327   2696   2687     1  0.0000000  1.6024720  3
   1327   2696   2687   2678     1  180.0000771  0.4184000  2
   1327   2696   2687   2678     1  0.0000000  1.6024720  3
   1330   2725   2716   2707     1  180.0000771  0.4184000  2
   1330   2725   2716   2707     1  0.0000000  1.6024720  3
   1334   1335   1347   1359     1  0.0000000  0.6508444  3
   1334   1338   1350   1356     1  0.0000000  0.6508444  3
   1334   1341   1344   1353     1  0.0000000  0.6508444  3
   1335   1334   1338   1350     1  180.0000771  2.0083200  2
   1335   1334   1338   1350     1  0.0000000  1.2552000  3
   1335   1334   1341   1344     1  180.0000771  2.0083200  2
   1335   1334   1341   1344     1  0.0000000  1.2552000  3
   1335   1347   1359   2783     1  0.0000000  0.6508444  3
   1338   1334   1335   1347     1  180.0000771  2.0083200  2
   1338   1334   1335   1347     1  0.0000000  1.2552000  3
   1338   1334   1341   1344     1  180.0000771  2.0083200  2
   1338   1334   1341   1344     1  0.0000000  1.2552000  3
   1338   1350   1356   2754     1  0.0000000  0.6508444  3
   1341   1334   1335   1347     1  180.0000771  2.0083200  2
   1341   1334   1335   1347     1  0.0000000  1.2552000  3
   1341   1334   1338   1350     1  180.0000771  2.0083200  2
   1341   1334   1338   1350     1  0.0000000  1.2552000  3
   1341   1344   1353   1362     1  0.0000000  0.6508444  3
   1347   1359   2783   2774     1  180.0000771  0.4184000  2
   1347   1359   2783   2774     1  0.0000000  1.6024720  3
   1350   1356   2754   2745     1  180.0000771  0.4184000  2
   1350   1356   2754   2745     1  0.0000000  1.6024720  3
   1356   2754   2745   2736     1  180.0000771  0.4184000  2
   1356   2754   2745   2736     1  0.0000000  1.6024720  3
   1359   2783   2774   2765     1  180.0000771  0.4184000  2
   1359   2783   2774   2765     1  0.0000000  1.6024720  3
   1363   1364   1376   1388     1  0.0000000  0.6508444  3
   1363   1367   1379   1385     1  0.0000000  0.6508444  3
   1363   1370   1373   1382     1  0.0000000  0.6508444  3
   1364   1363   1367   1379     1  180.0000771  2.0083200  2
   1364   1363   1367   1379     1  0.0000000  1.2552000  3
   1364   1363   1370   1373     1  180.0000771  2.0083200  2
   1364   1363   1370   1373     1  0.0000000  1.2552000  3
   1364   1376   1388   2841     1  0.0000000  0.6508444  3
   1367   1363   1364   1376     1  180.0000771  2.0083200  2
   1367   1363   1364   1376     1  0.0000000  1.2552000  3
   1367   1363   1370   1373     1  180.0000771  2.0083200  2
   1367   1363   1370   1373     1  0.0000000  1.2552000  3
   1367   1379   1385   2812     1  0.0000000  0.6508444  3
   1370   1363   1364   1376     1  180.0000771  2.0083200  2
   1370   1363   1364   1376     1  0.0000000  1.2552000  3
   1370   1363   1367   1379     1  180.0000771  2.0083200  2
   1370   1363   1367   1379     1  0.0000000  1.2552000  3
   1370   1373   1382   1391     1  0.0000000  0.6508444  3
   1376   1388   2841   2832     1  180.0000771  0.4184000  2
   1376   1388   2841   2832     1  0.0000000  1.6024720  3
   1379   1385   2812   2803     1  180.0000771  0.4184000  2
   1379   1385   2812   2803     1  0.0000000  1.6024720  3
   1385   2812   2803   2794     1  180.0000771  0.4184000  2
   1385   2812   2803   2794     1  0.0000000  1.6024720  3
   1388   2841   2832   2823     1  180.0000771  0.4184000  2
   1388   2841   2832   2823     1  0.0000000  1.6024720  3
   1392   1393   1405   1417     1  0.0000000  0.6508444  3
   1392   1396   1408   1414     1  0.0000000  0.6508444  3
   1392   1399   1402   1411     1  0.0000000  0.6508444  3
   1393   1392   1396   1408     1  180.0000771  2.0083200  2
   1393   1392   1396   1408     1  0.0000000  1.2552000  3
   1393   1392   1399   1402     1  180.0000771  2.0083200  2
   1393   1392   1399   1402     1  0.0000000  1.2552000  3
   1393   1405   1417   2899     1  0.0000000  0.6508444  3
   1396   1392   1393   1405     1  180.0000771  2.0083200  2
   1396   1392   1393   1405     1  0.0000000  1.2552000  3
   1396   1392   1399   1402     1  180.0000771  2.0083200  2
   1396   1392   1399   1402     1  0.0000000  1.2552000  3
   1396   1408   1414   2870     1  0.0000000  0.6508444  3
   1399   1392   1393   1405     1  180.0000771  2.0083200  2
   1399   1392   1393   1405     1  0.0000000  1.2552000  3
   1399   1392   1396   1408     1  180.0000771  2.0083200  2
   1399   1392   1396   1408     1  0.0000000  1.2552000  3
   1399   1402   1411   1420     1  0.0000000  0.6508444  3
   1405   1417   2899   2890     1  180.0000771  0.4184000  2
   1405   1417   2899   2890     1  0.0000000  1.6024720  3
   1408   1414   2870   2861     1  180.0000771  0.4184000  2
   1408   1414   2870   2861     1  0.0000000  1.6024720  3
   1414   2870   2861   2852     1  180.0000771  0.4184000  2
   1414   2870   2861   2852     1  0.0000000  1.6024720  3
   1417   2899   2890   2881     1  180.0000771  0.4184000  2
   1417   2899   2890   2881     1  0.0000000  1.6024720  3
   1421   1422   1434   1446     1  0.0000000  0.6508444  3
   1421   1425   1437   1443     1  0.0000000  0.6508444  3
   1421   1428   1431   1440     1  0.0000000  0.6508444  3
   1422   1421   1425   1437     1  180.0000771  2.0083200  2
   1422   1421   1425   1437     1  0.0000000  1.2552000  3
   1422   1421   1428   1431     1  180.0000771  2.0083200  2
   1422   1421   1428   1431     1  0.0000000  1.2552000  3
   1422   1434   1446   2957     1  0.0000000  0.6508444  3
   1425   1421   1422   1434     1  180.0000771  2.0083200  2
   1425   1421   1422   1434     1  0.0000000  1.2552000  3
   1425   1421   1428   1431     1  180.0000771  2.0083200  2
   1425   1421   1428   1431     1  0.0000000  1.2552000  3
   1425   1437   1443   2928     1  0.0000000  0.6508444  3
   1428   1421   1422   1434     1  180.0000771  2.0083200  2
   1428   1421   1422   1434     1  0.0000000  1.2552000  3
   1428   1421   1425   1437     1  180.0000771  2.0083200  2
   1428   1421   1425   1437     1  0.0000000  1.2552000  3
   1428   1431   1440   1449     1  0.0000000  0.6508444  3
   1434   1446   2957   2948     1  180.0000771  0.4184000  2
   1434   1446   2957   2948     1  0.0000000  1.6024720  3
   1437   1443   2928   2919     1  180.0000771  0.4184000  2
   1437   1443   2928   2919     1  0.0000000  1.6024720  3
   1443   2928   2919   2910     1  180.0000771  0.4184000  2
   1443   2928   2919   2910     1  0.0000000  1.6024720  3
   1446   2957   2948   2939     1  180.0000771  0.4184000  2
   1446   2957   2948   2939     1  0.0000000  1.6024720  3
   1450   1451   1463   1475     1  0.0000000  0.6508444  3
   1450   1454   1466   1472     1  0.0000000  0.6508444  3
   1450   1457   1460   1469     1  0.0000000  0.6508444  3
   1451   1450   1454   1466     1  180.0000771  2.0083200  2
   1451   1450   1454   1466     1  0.0000000  1.2552000  3
   1451   1450   1457   1460     1  180.0000771  2.0083200  2
   1451   1450   1457   1460     1  0.0000000  1.2552000  3
   1451   1463   1475   3015     1  0.0000000  0.6508444  3
   1454   1450   1451   1463     1  180.0000771  2.0083200  2
   1454   1450   1451   1463     1  0.0000000  1.2552000  3
   1454   1450   1457   1460     1  180.0000771  2.0083200  2
   1454   1450   1457   1460     1  0.0000000  1.2552000  3
   1454   1466   1472   2986     1  0.0000000  0.6508444  3
   1457   1450   1451   1463     1  180.0000771  2.0083200  2
   1457   1450   1451   1463     1  0.0000000  1.2552000  3
   1457   1450   1454   1466     1  180.0000771  2.0083200  2
   1457   1450   1454   1466     1  0.0000000  1.2552000  3
   1457   1460   1469   1478     1  0.0000000  0.6508444  3
   1463   1475   3015   3006     1  180.0000771  0.4184000  2
   1463   1475   3015   3006     1  0.0000000  1.6024720  3
   1466   1472   2986   2977     1  180.0000771  0.4184000  2
   1466   1472   2986   2977     1  0.0000000  1.6024720  3
   1472   2986   2977   2968     1  180.0000771  0.4184000  2
   1472   2986   2977   2968     1  0.0000000  1.6024720  3
   1475   3015   3006   2997     1  180.0000771  0.4184000  2
   1475   3015   3006   2997     1  0.0000000  1.6024720  3
   1479   1480   1492   1504     1  0.0000000  0.6508444  3
   1479   1483   1495   1501     1  0.0000000  0.6508444  3
   1479   1486   1489   1498     1  0.0000000  0.6508444  3
   1480   1479   1483   1495     1  180.0000771  2.0083200  2
   1480   1479   1483   1495     1  0.0000000  1.2552000  3
   1480   1479   1486   1489     1  180.0000771  2.0083200  2
   1480   1479   1486   1489     1  0.0000000  1.2552000  3
   1480   1492   1504   3073     1  0.0000000  0.6508444  3
   1483   1479   1480   1492     1  180.0000771  2.0083200  2
   1483   1479   1480   1492     1  0.0000000  1.2552000  3
   1483   1479   1486   1489     1  180.0000771  2.0083200  2
   1483   1479   1486   1489     1  0.0000000  1.2552000  3
   1483   1495   1501   3044     1  0.0000000  0.6508444  3
   1486   1479   1480   1492     1  180.0000771  2.0083200  2
   1486   1479   1480   1492     1  0.0000000  1.2552000  3
   1486   1479   1483   1495     1  180.0000771  2.0083200  2
   1486   1479   1483   1495     1  0.0000000  1.2552000  3
   1486   1489   1498   1507     1  0.0000000  0.6508444  3
   1492   1504   3073   3064     1  180.0000771  0.4184000  2
   1492   1504   3073   3064     1  0.0000000  1.6024720  3
   1495   1501   3044   3035     1  180.0000771  0.4184000  2
   1495   1501   3044   3035     1  0.0000000  1.6024720  3
   1501   3044   3035   3026     1  180.0000771  0.4184000  2
   1501   3044   3035   3026     1  0.0000000  1.6024720  3
   1504   3073   3064   3055     1  180.0000771  0.4184000  2
   1504   3073   3064   3055     1  0.0000000  1.6024720  3
   1508   1509   1521   1533     1  0.0000000  0.6508444  3
   1508   1512   1524   1530     1  0.0000000  0.6508444  3
   1508   1515   1518   1527     1  0.0000000  0.6508444  3
   1509   1508   1512   1524     1  180.0000771  2.0083200  2
   1509   1508   1512   1524     1  0.0000000  1.2552000  3
   1509   1508   1515   1518     1  180.0000771  2.0083200  2
   1509   1508   1515   1518     1  0.0000000  1.2552000  3
   1509   1521   1533   3131     1  0.0000000  0.6508444  3
   1512   1508   1509   1521     1  180.0000771  2.0083200  2
   1512   1508   1509   1521     1  0.0000000  1.2552000  3
   1512   1508   1515   1518     1  180.0000771  2.0083200  2
   1512   1508   1515   1518     1  0.0000000  1.2552000  3
   1512   1524   1530   3102     1  0.0000000  0.6508444  3
   1515   1508   1509   1521     1  180.0000771  2.0083200  2
   1515   1508   1509   1521     1  0.0000000  1.2552000  3
   1515   1508   1512   1524     1  180.0000771  2.0083200  2
   1515   1508   1512   1524     1  0.0000000  1.2552000  3
   1515   1518   1527   1536     1  0.0000000  0.6508444  3
   1521   1533   3131   3122     1  180.0000771  0.4184000  2
   1521   1533   3131   3122     1  0.0000000  1.6024720  3
   1524   1530   3102   3093     1  180.0000771  0.4184000  2
   1524   1530   3102   3093     1  0.0000000  1.6024720  3
   1530   3102   3093   3084     1  180.0000771  0.4184000  2
   1530   3102   3093   3084     1  0.0000000  1.6024720  3
   1533   3131   3122   3113     1  180.0000771  0.4184000  2
   1533   3131   3122   3113     1  0.0000000  1.6024720  3
   1537   1538   1550   1562     1  0.0000000  0.6508444  3
   1537   1541   1553   1559     1  0.0000000  0.6508444  3
   1537   1544   1547   1556     1  0.0000000  0.6508444  3
   1538   1537   1541   1553     1  180.0000771  2.0083200  2
   1538   1537   1541   1553     1  0.0000000  1.2552000  3
   1538   1537   1544   1547     1  180.0000771  2.0083200  2
   1538   1537   1544   1547     1  0.0000000  1.2552000  3
   1538   1550   1562   3189     1  0.0000000  0.6508444  3
   1541   1537   1538   1550     1  180.0000771  2.0083200  2
   1541   1537   1538   1550     1  0.0000000  1.2552000  3
   1541   1537   1544   1547     1  180.0000771  2.0083200  2
   1541   1537   1544   1547     1  0.0000000  1.2552000  3
   1541   1553   1559   3160     1  0.0000000  0.6508444  3
   1544   1537   1538   1550     1  180.0000771  2.0083200  2
   1544   1537   1538   1550     1  0.0000000  1.2552000  3
   1544   1537   1541   1553     1  180.0000771  2.0083200  2
   1544   1537   1541   1553     1  0.0000000  1.2552000  3
   1544   1547   1556   1565     1  0.0000000  0.6508444  3
   1550   1562   3189   3180     1  180.0000771  0.4184000  2
   1550   1562   3189   3180     1  0.0000000  1.6024720  3
   1553   1559   3160   3151     1  180.0000771  0.4184000  2
   1553   1559   3160   3151     1  0.0000000  1.6024720  3
   1559   3160   3151   3142     1  180.0000771  0.4184000  2
   1559   3160   3151   3142     1  0.0000000  1.6024720  3
   1562   3189   3180   3171     1  180.0000771  0.4184000  2
   1562   3189   3180   3171     1  0.0000000  1.6024720  3
   1566   1567   1579   1591     1  0.0000000  0.6508444  3
   1566   1570   1582   1588     1  0.0000000  0.6508444  3
   1566   1573   1576   1585     1  0.0000000  0.6508444  3
   1567   1566   1570   1582     1  180.0000771  2.0083200  2
   1567   1566   1570   1582     1  0.0000000  1.2552000  3
   1567   1566   1573   1576     1  180.0000771  2.0083200  2
   1567   1566   1573   1576     1  0.0000000  1.2552000  3
   1567   1579   1591   3247     1  0.0000000  0.6508444  3
   1570   1566   1567   1579     1  180.0000771  2.0083200  2
   1570   1566   1567   1579     1  0.0000000  1.2552000  3
   1570   1566   1573   1576     1  180.0000771  2.0083200  2
   1570   1566   1573   1576     1  0.0000000  1.2552000  3
   1570   1582   1588   3218     1  0.0000000  0.6508444  3
   1573   1566   1567   1579     1  180.0000771  2.0083200  2
   1573   1566   1567   1579     1  0.0000000  1.2552000  3
   1573   1566   1570   1582     1  180.0000771  2.0083200  2
   1573   1566   1570   1582     1  0.0000000  1.2552000  3
   1573   1576   1585   1594     1  0.0000000  0.6508444  3
   1579   1591   3247   3238     1  180.0000771  0.4184000  2
   1579   1591   3247   3238     1  0.0000000  1.6024720  3
   1582   1588   3218   3209     1  180.0000771  0.4184000  2
   1582   1588   3218   3209     1  0.0000000  1.6024720  3
   1588   3218   3209   3200     1  180.0000771  0.4184000  2
   1588   3218   3209   3200     1  0.0000000  1.6024720  3
   1591   3247   3238   3229     1  180.0000771  0.4184000  2
   1591   3247   3238   3229     1  0.0000000  1.6024720  3
   1595   1596   1608   1620     1  0.0000000  0.6508444  3
   1595   1599   1611   1617     1  0.0000000  0.6508444  3
   1595   1602   1605   1614     1  0.0000000  0.6508444  3
   1596   1595   1599   1611     1  180.0000771  2.0083200  2
   1596   1595   1599   1611     1  0.0000000  1.2552000  3
   1596   1595   1602   1605     1  180.0000771  2.0083200  2
   1596   1595   1602   1605     1  0.0000000  1.2552000  3
   1596   1608   1620   3305     1  0.0000000  0.6508444  3
   1599   1595   1596   1608     1  180.0000771  2.0083200  2
   1599   1595   1596   1608     1  0.0000000  1.2552000  3
   1599   1595   1602   1605     1  180.0000771  2.0083200  2
   1599   1595   1602   1605     1  0.0000000  1.2552000  3
   1599   1611   1617   3276     1  0.0000000  0.6508444  3
   1602   1595   1596   1608     1  180.0000771  2.0083200  2
   1602   1595   1596   1608     1  0.0000000  1.2552000  3
   1602   1595   1599   1611     1  180.0000771  2.0083200  2
   1602   1595   1599   1611     1  0.0000000  1.2552000  3
   1602   1605   1614   1623     1  0.0000000  0.6508444  3
   1608   1620   3305   3296     1  180.0000771  0.4184000  2
   1608   1620   3305   3296     1  0.0000000  1.6024720  3
   1611   1617   3276   3267     1  180.0000771  0.4184000  2
   1611   1617   3276   3267     1  0.0000000  1.6024720  3
   1617   3276   3267   3258     1  180.0000771  0.4184000  2
   1617   3276   3267   3258     1  0.0000000  1.6024720  3
   1620   3305   3296   3287     1  180.0000771  0.4184000  2
   1620   3305   3296   3287     1  0.0000000  1.6024720  3
   1624   1625   1637   1649     1  0.0000000  0.6508444  3
   1624   1628   1640   1646     1  0.0000000  0.6508444  3
   1624   1631   1634   1643     1  0.0000000  0.6508444  3
   1625   1624   1628   1640     1  180.0000771  2.0083200  2
   1625   1624   1628   1640     1  0.0000000  1.2552000  3
   1625   1624   1631   1634     1  180.0000771  2.0083200  2
   1625   1624   1631   1634     1  0.0000000  1.2552000  3
   1625   1637   1649   3363     1  0.0000000  0.6508444  3
   1628   1624   1625   1637     1  180.0000771  2.0083200  2
   1628   1624   1625   1637     1  0.0000000  1.2552000  3
   1628   1624   1631   1634     1  180.0000771  2.0083200  2
   1628   1624   1631   1634     1  0.0000000  1.2552000  3
   1628   1640   1646   3334     1  0.0000000  0.6508444  3
   1631   1624   1625   1637     1  180.0000771  2.0083200  2
   1631   1624   1625   1637     1  0.0000000  1.2552000  3
   1631   1624   1628   1640     1  180.0000771  2.0083200  2
   1631   1624   1628   1640     1  0.0000000  1.2552000  3
   1631   1634   1643   1652     1  0.0000000  0.6508444  3
   1637   1649   3363   3354     1  180.0000771  0.4184000  2
   1637   1649   3363   3354     1  0.0000000  1.6024720  3
   1640   1646   3334   3325     1  180.0000771  0.4184000  2
   1640   1646   3334   3325     1  0.0000000  1.6024720  3
   1646   3334   3325   3316     1  180.0000771  0.4184000  2
   1646   3334   3325   3316     1  0.0000000  1.6024720  3
   1649   3363   3354   3345     1  180.0000771  0.4184000  2
   1649   3363   3354   3345     1  0.0000000  1.6024720  3
   1653   1654   1666   1678     1  0.0000000  0.6508444  3
   1653   1657   1669   1675     1  0.0000000  0.6508444  3
   1653   1660   1663   1672     1  0.0000000  0.6508444  3
   1654   1653   1657   1669     1  180.0000771  2.0083200  2
   1654   1653   1657   1669     1  0.0000000  1.2552000  3
   1654   1653   1660   1663     1  180.0000771  2.0083200  2
   1654   1653   1660   1663     1  0.0000000  1.2552000  3
   1654   1666   1678   3421     1  0.0000000  0.6508444  3
   1657   1653   1654   1666     1  180.0000771  2.0083200  2
   1657   1653   1654   1666     1  0.0000000  1.2552000  3
   1657   1653   1660   1663     1  180.0000771  2.0083200  2
   1657   1653   1660   1663     1  0.0000000  1.2552000  3
   1657   1669   1675   3392     1  0.0000000  0.6508444  3
   1660   1653   1654   1666     1  180.0000771  2.0083200  2
   1660   1653   1654   1666     1  0.0000000  1.2552000  3
   1660   1653   1657   1669     1  180.0000771  2.0083200  2
   1660   1653   1657   1669     1  0.0000000  1.2552000  3
   1660   1663   1672   1681     1  0.0000000  0.6508444  3
   1666   1678   3421   3412     1  180.0000771  0.4184000  2
   1666   1678   3421   3412     1  0.0000000  1.6024720  3
   1669   1675   3392   3383     1  180.0000771  0.4184000  2
   1669   1675   3392   3383     1  0.0000000  1.6024720  3
   1675   3392   3383   3374     1  180.0000771  0.4184000  2
   1675   3392   3383   3374     1  0.0000000  1.6024720  3
   1678   3421   3412   3403     1  180.0000771  0.4184000  2
   1678   3421   3412   3403     1  0.0000000  1.6024720  3
   1682   1683   1695   1707     1  0.0000000  0.6508444  3
   1682   1686   1698   1704     1  0.0000000  0.6508444  3
   1682   1689   1692   1701     1  0.0000000  0.6508444  3
   1683   1682   1686   1698     1  180.0000771  2.0083200  2
   1683   1682   1686   1698     1  0.0000000  1.2552000  3
   1683   1682   1689   1692     1  180.0000771  2.0083200  2
   1683   1682   1689   1692     1  0.0000000  1.2552000  3
   1683   1695   1707   3479     1  0.0000000  0.6508444  3
   1686   1682   1683   1695     1  180.0000771  2.0083200  2
   1686   1682   1683   1695     1  0.0000000  1.2552000  3
   1686   1682   1689   1692     1  180.0000771  2.0083200  2
   1686   1682   1689   1692     1  0.0000000  1.2552000  3
   1686   1698   1704   3450     1  0.0000000  0.6508444  3
   1689   1682   1683   1695     1  180.0000771  2.0083200  2
   1689   1682   1683   1695     1  0.0000000  1.2552000  3
   1689   1682   1686   1698     1  180.0000771  2.0083200  2
   1689   1682   1686   1698     1  0.0000000  1.2552000  3
   1689   1692   1701   1710     1  0.0000000  0.6508444  3
   1695   1707   3479   3470     1  180.0000771  0.4184000  2
   1695   1707   3479   3470     1  0.0000000  1.6024720  3
   1698   1704   3450   3441     1  180.0000771  0.4184000  2
   1698   1704   3450   3441     1  0.0000000  1.6024720  3
   1704   3450   3441   3432     1  180.0000771  0.4184000  2
   1704   3450   3441   3432     1  0.0000000  1.6024720  3
   1707   3479   3470   3461     1  180.0000771  0.4184000  2
   1707   3479   3470   3461     1  0.0000000  1.6024720  3
   1711   1712   1724   1736     1  0.0000000  0.6508444  3
   1711   1715   1727   1733     1  0.0000000  0.6508444  3
   1711   1718   1721   1730     1  0.0000000  0.6508444  3
   1712   1711   1715   1727     1  180.0000771  2.0083200  2
   1712   1711   1715   1727     1  0.0000000  1.2552000  3
   1712   1711   1718   1721     1  180.0000771  2.0083200  2
   1712   1711   1718   1721     1  0.0000000  1.2552000  3
   1712   1724   1736   3537     1  0.0000000  0.6508444  3
   1715   1711   1712   1724     1  180.0000771  2.0083200  2
   1715   1711   1712   1724     1  0.0000000  1.2552000  3
   1715   1711   1718   1721     1  180.0000771  2.0083200  2
   1715   1711   1718   1721     1  0.0000000  1.2552000  3
   1715   1727   1733   3508     1  0.0000000  0.6508444  3
   1718   1711   1712   1724     1  180.0000771  2.0083200  2
   1718   1711   1712   1724     1  0.0000000  1.2552000  3
   1718   1711   1715   1727     1  180.0000771  2.0083200  2
   1718   1711   1715   1727     1  0.0000000  1.2552000  3
   1718   1721   1730   1739     1  0.0000000  0.6508444  3
   1724   1736   3537   3528     1  180.0000771  0.4184000  2
   1724   1736   3537   3528     1  0.0000000  1.6024720  3
   1727   1733   3508   3499     1  180.0000771  0.4184000  2
   1727   1733   3508   3499     1  0.0000000  1.6024720  3
   1733   3508   3499   3490     1  180.0000771  0.4184000  2
   1733   3508   3499   3490     1  0.0000000  1.6024720  3
   1736   3537   3528   3519     1  180.0000771  0.4184000  2
   1736   3537   3528   3519     1  0.0000000  1.6024720  3
   1740   1741   1753   1765     1  0.0000000  0.6508444  3
   1740   1744   1756   1762     1  0.0000000  0.6508444  3
   1740   1747   1750   1759     1  0.0000000  0.6508444  3
   1741   1740   1744   1756     1  180.0000771  2.0083200  2
   1741   1740   1744   1756     1  0.0000000  1.2552000  3
   1741   1740   1747   1750     1  180.0000771  2.0083200  2
   1741   1740   1747   1750     1  0.0000000  1.2552000  3
   1741   1753   1765   3595     1  0.0000000  0.6508444  3
   1744   1740   1741   1753     1  180.0000771  2.0083200  2
   1744   1740   1741   1753     1  0.0000000  1.2552000  3
   1744   1740   1747   1750     1  180.0000771  2.0083200  2
   1744   1740   1747   1750     1  0.0000000  1.2552000  3
   1744   1756   1762   3566     1  0.0000000  0.6508444  3
   1747   1740   1741   1753     1  180.0000771  2.0083200  2
   1747   1740   1741   1753     1  0.0000000  1.2552000  3
   1747   1740   1744   1756     1  180.0000771  2.0083200  2
   1747   1740   1744   1756     1  0.0000000  1.2552000  3
   1747   1750   1759   1768     1  0.0000000  0.6508444  3
   1753   1765   3595   3586     1  180.0000771  0.4184000  2
   1753   1765   3595   3586     1  0.0000000  1.6024720  3
   1756   1762   3566   3557     1  180.0000771  0.4184000  2
   1756   1762   3566   3557     1  0.0000000  1.6024720  3
   1762   3566   3557   3548     1  180.0000771  0.4184000  2
   1762   3566   3557   3548     1  0.0000000  1.6024720  3
   1765   3595   3586   3577     1  180.0000771  0.4184000  2
   1765   3595   3586   3577     1  0.0000000  1.6024720  3
   1769   1770   1782   1794     1  0.0000000  0.6508444  3
   1769   1773   1785   1791     1  0.0000000  0.6508444  3
   1769   1776   1779   1788     1  0.0000000  0.6508444  3
   1770   1769   1773   1785     1  180.0000771  2.0083200  2
   1770   1769   1773   1785     1  0.0000000  1.2552000  3
   1770   1769   1776   1779     1  180.0000771  2.0083200  2
   1770   1769   1776   1779     1  0.0000000  1.2552000  3
   1770   1782   1794   3653     1  0.0000000  0.6508444  3
   1773   1769   1770   1782     1  180.0000771  2.0083200  2
   1773   1769   1770   1782     1  0.0000000  1.2552000  3
   1773   1769   1776   1779     1  180.0000771  2.0083200  2
   1773   1769   1776   1779     1  0.0000000  1.2552000  3
   1773   1785   1791   3624     1  0.0000000  0.6508444  3
   1776   1769   1770   1782     1  180.0000771  2.0083200  2
   1776   1769   1770   1782     1  0.0000000  1.2552000  3
   1776   1769   1773   1785     1  180.0000771  2.0083200  2
   1776   1769   1773   1785     1  0.0000000  1.2552000  3
   1776   1779   1788   1797     1  0.0000000  0.6508444  3
   1782   1794   3653   3644     1  180.0000771  0.4184000  2
   1782   1794   3653   3644     1  0.0000000  1.6024720  3
   1785   1791   3624   3615     1  180.0000771  0.4184000  2
   1785   1791   3624   3615     1  0.0000000  1.6024720  3
   1791   3624   3615   3606     1  180.0000771  0.4184000  2
   1791   3624   3615   3606     1  0.0000000  1.6024720  3
   1794   3653   3644   3635     1  180.0000771  0.4184000  2
   1794   3653   3644   3635     1  0.0000000  1.6024720  3
   1798   1799   1811   1823     1  0.0000000  0.6508444  3
   1798   1802   1814   1820     1  0.0000000  0.6508444  3
   1798   1805   1808   1817     1  0.0000000  0.6508444  3
   1799   1798   1802   1814     1  180.0000771  2.0083200  2
   1799   1798   1802   1814     1  0.0000000  1.2552000  3
   1799   1798   1805   1808     1  180.0000771  2.0083200  2
   1799   1798   1805   1808     1  0.0000000  1.2552000  3
   1799   1811   1823   3711     1  0.0000000  0.6508444  3
   1802   1798   1799   1811     1  180.0000771  2.0083200  2
   1802   1798   1799   1811     1  0.0000000  1.2552000  3
   1802   1798   1805   1808     1  180.0000771  2.0083200  2
   1802   1798   1805   1808     1  0.0000000  1.2552000  3
   1802   1814   1820   3682     1  0.0000000  0.6508444  3
   1805   1798   1799   1811     1  180.0000771  2.0083200  2
   1805   1798   1799   1811     1  0.0000000  1.2552000  3
   1805   1798   1802   1814     1  180.0000771  2.0083200  2
   1805   1798   1802   1814     1  0.0000000  1.2552000  3
   1805   1808   1817   1826     1  0.0000000  0.6508444  3
   1811   1823   3711   3683     1  180.0000771  0.4184000  2
   1811   1823   3711   3683     1  0.0000000  1.6024720  3
   1814   1820   3682   3654     1  180.0000771  0.4184000  2
   1814   1820   3682   3654     1  0.0000000  1.6024720  3
   1820   3682   3654   3657     1  180.0000771  0.4184000  2
   1820   3682   3654   3657     1  0.0000000  1.6024720  3
   1823   3711   3683   3686     1  180.0000771  0.4184000  2
   1823   3711   3683   3686     1  0.0000000  1.6024720  3
   1827   1828   1840   1852     1  0.0000000  0.6508444  3
   1827   1831   1843   1849     1  0.0000000  0.6508444  3
   1827   1834   1837   1846     1  0.0000000  0.6508444  3
   1828   1827   1831   1843     1  180.0000771  2.0083200  2
   1828   1827   1831   1843     1  0.0000000  1.2552000  3
   1828   1827   1834   1837     1  180.0000771  2.0083200  2
   1828   1827   1834   1837     1  0.0000000  1.2552000  3
   1828   1840   1852   3769     1  0.0000000  0.6508444  3
   1831   1827   1828   1840     1  180.0000771  2.0083200  2
   1831   1827   1828   1840     1  0.0000000  1.2552000  3
   1831   1827   1834   1837     1  180.0000771  2.0083200  2
   1831   1827   1834   1837     1  0.0000000  1.2552000  3
   1831   1843   1849   3740     1  0.0000000  0.6508444  3
   1834   1827   1828   1840     1  180.0000771  2.0083200  2
   1834   1827   1828   1840     1  0.0000000  1.2552000  3
   1834   1827   1831   1843     1  180.0000771  2.0083200  2
   1834   1827   1831   1843     1  0.0000000  1.2552000  3
   1834   1837   1846   1855     1  0.0000000  0.6508444  3
   1840   1852   3769   3741     1  180.0000771  0.4184000  2
   1840   1852   3769   3741     1  0.0000000  1.6024720  3
   1843   1849   3740   3712     1  180.0000771  0.4184000  2
   1843   1849   3740   3712     1  0.0000000  1.6024720  3
   1849   3740   3712   3715     1  180.0000771  0.4184000  2
   1849   3740   3712   3715     1  0.0000000  1.6024720  3
   1852   3769   3741   3744     1  180.0000771  0.4184000  2
   1852   3769   3741   3744     1  0.0000000  1.6024720  3
   1856   1857   1869   1881     1  0.0000000  0.6508444  3
   1856   1860   1872   1878     1  0.0000000  0.6508444  3
   1856   1863   1866   1875     1  0.0000000  0.6508444  3
   1857   1856   1860   1872     1  180.0000771  2.0083200  2
   1857   1856   1860   1872     1  0.0000000  1.2552000  3
   1857   1856   1863   1866     1  180.0000771  2.0083200  2
   1857   1856   1863   1866     1  0.0000000  1.2552000  3
   1857   1869   1881   3827     1  0.0000000  0.6508444  3
   1860   1856   1857   1869     1  180.0000771  2.0083200  2
   1860   1856   1857   1869     1  0.0000000  1.2552000  3
   1860   1856   1863   1866     1  180.0000771  2.0083200  2
   1860   1856   1863   1866     1  0.0000000  1.2552000  3
   1860   1872   1878   3798     1  0.0000000  0.6508444  3
   1863   1856   1857   1869     1  180.0000771  2.0083200  2
   1863   1856   1857   1869     1  0.0000000  1.2552000  3
   1863   1856   1860   1872     1  180.0000771  2.0083200  2
   1863   1856   1860   1872     1  0.0000000  1.2552000  3
   1863   1866   1875   1884     1  0.0000000  0.6508444  3
   1869   1881   3827   3799     1  180.0000771  0.4184000  2
   1869   1881   3827   3799     1  0.0000000  1.6024720  3
   1872   1878   3798   3770     1  180.0000771  0.4184000  2
   1872   1878   3798   3770     1  0.0000000  1.6024720  3
   1878   3798   3770   3773     1  180.0000771  0.4184000  2
   1878   3798   3770   3773     1  0.0000000  1.6024720  3
   1881   3827   3799   3802     1  180.0000771  0.4184000  2
   1881   3827   3799   3802     1  0.0000000  1.6024720  3
   1885   1886   1898   1910     1  0.0000000  0.6508444  3
   1885   1889   1901   1907     1  0.0000000  0.6508444  3
   1885   1892   1895   1904     1  0.0000000  0.6508444  3
   1886   1885   1889   1901     1  180.0000771  2.0083200  2
   1886   1885   1889   1901     1  0.0000000  1.2552000  3
   1886   1885   1892   1895     1  180.0000771  2.0083200  2
   1886   1885   1892   1895     1  0.0000000  1.2552000  3
   1886   1898   1910   3885     1  0.0000000  0.6508444  3
   1889   1885   1886   1898     1  180.0000771  2.0083200  2
   1889   1885   1886   1898     1  0.0000000  1.2552000  3
   1889   1885   1892   1895     1  180.0000771  2.0083200  2
   1889   1885   1892   1895     1  0.0000000  1.2552000  3
   1889   1901   1907   3856     1  0.0000000  0.6508444  3
   1892   1885   1886   1898     1  180.0000771  2.0083200  2
   1892   1885   1886   1898     1  0.0000000  1.2552000  3
   1892   1885   1889   1901     1  180.0000771  2.0083200  2
   1892   1885   1889   1901     1  0.0000000  1.2552000  3
   1892   1895   1904   1913     1  0.0000000  0.6508444  3
   1898   1910   3885   3857     1  180.0000771  0.4184000  2
   1898   1910   3885   3857     1  0.0000000  1.6024720  3
   1901   1907   3856   3828     1  180.0000771  0.4184000  2
   1901   1907   3856   3828     1  0.0000000  1.6024720  3
   1907   3856   3828   3831     1  180.0000771  0.4184000  2
   1907   3856   3828   3831     1  0.0000000  1.6024720  3
   1910   3885   3857   3860     1  180.0000771  0.4184000  2
   1910   3885   3857   3860     1  0.0000000  1.6024720  3
   1914   1915   1927   1939     1  0.0000000  0.6508444  3
   1914   1918   1930   1936     1  0.0000000  0.6508444  3
   1914   1921   1924   1933     1  0.0000000  0.6508444  3
   1915   1914   1918   1930     1  180.0000771  2.0083200  2
   1915   1914   1918   1930     1  0.0000000  1.2552000  3
   1915   1914   1921   1924     1  180.0000771  2.0083200  2
   1915   1914   1921   1924     1  0.0000000  1.2552000  3
   1915   1927   1939   3943     1  0.0000000  0.6508444  3
   1918   1914   1915   1927     1  180.0000771  2.0083200  2
   1918   1914   1915   1927     1  0.0000000  1.2552000  3
   1918   1914   1921   1924     1  180.0000771  2.0083200  2
   1918   1914   1921   1924     1  0.0000000  1.2552000  3
   1918   1930   1936   3914     1  0.0000000  0.6508444  3
   1921   1914   1915   1927     1  180.0000771  2.0083200  2
   1921   1914   1915   1927     1  0.0000000  1.2552000  3
   1921   1914   1918   1930     1  180.0000771  2.0083200  2
   1921   1914   1918   1930     1  0.0000000  1.2552000  3
   1921   1924   1933   1942     1  0.0000000  0.6508444  3
   1927   1939   3943   3915     1  180.0000771  0.4184000  2
   1927   1939   3943   3915     1  0.0000000  1.6024720  3
   1930   1936   3914   3886     1  180.0000771  0.4184000  2
   1930   1936   3914   3886     1  0.0000000  1.6024720  3
   1936   3914   3886   3889     1  180.0000771  0.4184000  2
   1936   3914   3886   3889     1  0.0000000  1.6024720  3
   1939   3943   3915   3918     1  180.0000771  0.4184000  2
   1939   3943   3915   3918     1  0.0000000  1.6024720  3
   1943   1944   1956   1968     1  0.0000000  0.6508444  3
   1943   1947   1959   1965     1  0.0000000  0.6508444  3
   1943   1950   1953   1962     1  0.0000000  0.6508444  3
   1944   1943   1947   1959     1  180.0000771  2.0083200  2
   1944   1943   1947   1959     1  0.0000000  1.2552000  3
   1944   1943   1950   1953     1  180.0000771  2.0083200  2
   1944   1943   1950   1953     1  0.0000000  1.2552000  3
   1944   1956   1968   4001     1  0.0000000  0.6508444  3
   1947   1943   1944   1956     1  180.0000771  2.0083200  2
   1947   1943   1944   1956     1  0.0000000  1.2552000  3
   1947   1943   1950   1953     1  180.0000771  2.0083200  2
   1947   1943   1950   1953     1  0.0000000  1.2552000  3
   1947   1959   1965   3972     1  0.0000000  0.6508444  3
   1950   1943   1944   1956     1  180.0000771  2.0083200  2
   1950   1943   1944   1956     1  0.0000000  1.2552000  3
   1950   1943   1947   1959     1  180.0000771  2.0083200  2
   1950   1943   1947   1959     1  0.0000000  1.2552000  3
   1950   1953   1962   1971     1  0.0000000  0.6508444  3
   1956   1968   4001   3973     1  180.0000771  0.4184000  2
   1956   1968   4001   3973     1  0.0000000  1.6024720  3
   1959   1965   3972   3944     1  180.0000771  0.4184000  2
   1959   1965   3972   3944     1  0.0000000  1.6024720  3
   1965   3972   3944   3947     1  180.0000771  0.4184000  2
   1965   3972   3944   3947     1  0.0000000  1.6024720  3
   1968   4001   3973   3976     1  180.0000771  0.4184000  2
   1968   4001   3973   3976     1  0.0000000  1.6024720  3
   1972   1973   1985   1997     1  0.0000000  0.6508444  3
   1972   1976   1988   1994     1  0.0000000  0.6508444  3
   1972   1979   1982   1991     1  0.0000000  0.6508444  3
   1973   1972   1976   1988     1  180.0000771  2.0083200  2
   1973   1972   1976   1988     1  0.0000000  1.2552000  3
   1973   1972   1979   1982     1  180.0000771  2.0083200  2
   1973   1972   1979   1982     1  0.0000000  1.2552000  3
   1973   1985   1997   4059     1  0.0000000  0.6508444  3
   1976   1972   1973   1985     1  180.0000771  2.0083200  2
   1976   1972   1973   1985     1  0.0000000  1.2552000  3
   1976   1972   1979   1982     1  180.0000771  2.0083200  2
   1976   1972   1979   1982     1  0.0000000  1.2552000  3
   1976   1988   1994   4030     1  0.0000000  0.6508444  3
   1979   1972   1973   1985     1  180.0000771  2.0083200  2
   1979   1972   1973   1985     1  0.0000000  1.2552000  3
   1979   1972   1976   1988     1  180.0000771  2.0083200  2
   1979   1972   1976   1988     1  0.0000000  1.2552000  3
   1979   1982   1991   2000     1  0.0000000  0.6508444  3
   1985   1997   4059   4031     1  180.0000771  0.4184000  2
   1985   1997   4059   4031     1  0.0000000  1.6024720  3
   1988   1994   4030   4002     1  180.0000771  0.4184000  2
   1988   1994   4030   4002     1  0.0000000  1.6024720  3
   1994   4030   4002   4005     1  180.0000771  0.4184000  2
   1994   4030   4002   4005     1  0.0000000  1.6024720  3
   1997   4059   4031   4034     1  180.0000771  0.4184000  2
   1997   4059   4031   4034     1  0.0000000  1.6024720  3
   2001   2002   2014   2026     1  0.0000000  0.6508444  3
   2001   2005   2017   2023     1  0.0000000  0.6508444  3
   2001   2008   2011   2020     1  0.0000000  0.6508444  3
   2002   2001   2005   2017     1  180.0000771  2.0083200  2
   2002   2001   2005   2017     1  0.0000000  1.2552000  3
   2002   2001   2008   2011     1  180.0000771  2.0083200  2
   2002   2001   2008   2011     1  0.0000000  1.2552000  3
   2002   2014   2026   4117     1  0.0000000  0.6508444  3
   2005   2001   2002   2014     1  180.0000771  2.0083200  2
   2005   2001   2002   2014     1  0.0000000  1.2552000  3
   2005   2001   2008   2011     1  180.0000771  2.0083200  2
   2005   2001   2008   2011     1  0.0000000  1.2552000  3
   2005   2017   2023   4088     1  0.0000000  0.6508444  3
   2008   2001   2002   2014     1  180.0000771  2.0083200  2
   2008   2001   2002   2014     1  0.0000000  1.2552000  3
   2008   2001   2005   2017     1  180.0000771  2.0083200  2
   2008   2001   2005   2017     1  0.0000000  1.2552000  3
   2008   2011   2020   2029     1  0.0000000  0.6508444  3
   2014   2026   4117   4089     1  180.0000771  0.4184000  2
   2014   2026   4117   4089     1  0.0000000  1.6024720  3
   2017   2023   4088   4060     1  180.0000771  0.4184000  2
   2017   2023   4088   4060     1  0.0000000  1.6024720  3
   2023   4088   4060   4063     1  180.0000771  0.4184000  2
   2023   4088   4060   4063     1  0.0000000  1.6024720  3
   2026   4117   4089   4092     1  180.0000771  0.4184000  2
   2026   4117   4089   4092     1  0.0000000  1.6024720  3
   2030   2031   2043   2055     1  0.0000000  0.6508444  3
   2030   2034   2046   2052     1  0.0000000  0.6508444  3
   2030   2037   2040   2049     1  0.0000000  0.6508444  3
   2031   2030   2034   2046     1  180.0000771  2.0083200  2
   2031   2030   2034   2046     1  0.0000000  1.2552000  3
   2031   2030   2037   2040     1  180.0000771  2.0083200  2
   2031   2030   2037   2040     1  0.0000000  1.2552000  3
   2031   2043   2055   4175     1  0.0000000  0.6508444  3
   2034   2030   2031   2043     1  180.0000771  2.0083200  2
   2034   2030   2031   2043     1  0.0000000  1.2552000  3
   2034   2030   2037   2040     1  180.0000771  2.0083200  2
   2034   2030   2037   2040     1  0.0000000  1.2552000  3
   2034   2046   2052   4146     1  0.0000000  0.6508444  3
   2037   2030   2031   2043     1  180.0000771  2.0083200  2
   2037   2030   2031   2043     1  0.0000000  1.2552000  3
   2037   2030   2034   2046     1  180.0000771  2.0083200  2
   2037   2030   2034   2046     1  0.0000000  1.2552000  3
   2037   2040   2049   2058     1  0.0000000  0.6508444  3
   2043   2055   4175   4147     1  180.0000771  0.4184000  2
   2043   2055   4175   4147     1  0.0000000  1.6024720  3
   2046   2052   4146   4118     1  180.0000771  0.4184000  2
   2046   2052   4146   4118     1  0.0000000  1.6024720  3
   2052   4146   4118   4121     1  180.0000771  0.4184000  2
   2052   4146   4118   4121     1  0.0000000  1.6024720  3
   2055   4175   4147   4150     1  180.0000771  0.4184000  2
   2055   4175   4147   4150     1  0.0000000  1.6024720  3
   2059   2060   2072   2084     1  0.0000000  0.6508444  3
   2059   2063   2075   2081     1  0.0000000  0.6508444  3
   2059   2066   2069   2078     1  0.0000000  0.6508444  3
   2060   2059   2063   2075     1  180.0000771  2.0083200  2
   2060   2059   2063   2075     1  0.0000000  1.2552000  3
   2060   2059   2066   2069     1  180.0000771  2.0083200  2
   2060   2059   2066   2069     1  0.0000000  1.2552000  3
   2060   2072   2084   4233     1  0.0000000  0.6508444  3
   2063   2059   2060   2072     1  180.0000771  2.0083200  2
   2063   2059   2060   2072     1  0.0000000  1.2552000  3
   2063   2059   2066   2069     1  180.0000771  2.0083200  2
   2063   2059   2066   2069     1  0.0000000  1.2552000  3
   2063   2075   2081   4204     1  0.0000000  0.6508444  3
   2066   2059   2060   2072     1  180.0000771  2.0083200  2
   2066   2059   2060   2072     1  0.0000000  1.2552000  3
   2066   2059   2063   2075     1  180.0000771  2.0083200  2
   2066   2059   2063   2075     1  0.0000000  1.2552000  3
   2066   2069   2078   2087     1  0.0000000  0.6508444  3
   2072   2084   4233   4205     1  180.0000771  0.4184000  2
   2072   2084   4233   4205     1  0.0000000  1.6024720  3
   2075   2081   4204   4176     1  180.0000771  0.4184000  2
   2075   2081   4204   4176     1  0.0000000  1.6024720  3
   2081   4204   4176   4179     1  180.0000771  0.4184000  2
   2081   4204   4176   4179     1  0.0000000  1.6024720  3
   2084   4233   4205   4208     1  180.0000771  0.4184000  2
   2084   4233   4205   4208     1  0.0000000  1.6024720  3
   2088   2089   2101   2113     1  0.0000000  0.6508444  3
   2088   2092   2104   2110     1  0.0000000  0.6508444  3
   2088   2095   2098   2107     1  0.0000000  0.6508444  3
   2089   2088   2092   2104     1  180.0000771  2.0083200  2
   2089   2088   2092   2104     1  0.0000000  1.2552000  3
   2089   2088   2095   2098     1  180.0000771  2.0083200  2
   2089   2088   2095   2098     1  0.0000000  1.2552000  3
   2089   2101   2113   4291     1  0.0000000  0.6508444  3
   2092   2088   2089   2101     1  180.0000771  2.0083200  2
   2092   2088   2089   2101     1  0.0000000  1.2552000  3
   2092   2088   2095   2098     1  180.0000771  2.0083200  2
   2092   2088   2095   2098     1  0.0000000  1.2552000  3
   2092   2104   2110   4262     1  0.0000000  0.6508444  3
   2095   2088   2089   2101     1  180.0000771  2.0083200  2
   2095   2088   2089   2101     1  0.0000000  1.2552000  3
   2095   2088   2092   2104     1  180.0000771  2.0083200  2
   2095   2088   2092   2104     1  0.0000000  1.2552000  3
   2095   2098   2107   2116     1  0.0000000  0.6508444  3
   2101   2113   4291   4263     1  180.0000771  0.4184000  2
   2101   2113   4291   4263     1  0.0000000  1.6024720  3
   2104   2110   4262   4234     1  180.0000771  0.4184000  2
   2104   2110   4262   4234     1  0.0000000  1.6024720  3
   2110   4262   4234   4237     1  180.0000771  0.4184000  2
   2110   4262   4234   4237     1  0.0000000  1.6024720  3
   2113   4291   4263   4266     1  180.0000771  0.4184000  2
   2113   4291   4263   4266     1  0.0000000  1.6024720  3
   2117   2118   2130   2142     1  0.0000000  0.6508444  3
   2117   2121   2133   2139     1  0.0000000  0.6508444  3
   2117   2124   2127   2136     1  0.0000000  0.6508444  3
   2118   2117   2121   2133     1  180.0000771  2.0083200  2
   2118   2117   2121   2133     1  0.0000000  1.2552000  3
   2118   2117   2124   2127     1  180.0000771  2.0083200  2
   2118   2117   2124   2127     1  0.0000000  1.2552000  3
   2118   2130   2142   4349     1  0.0000000  0.6508444  3
   2121   2117   2118   2130     1  180.0000771  2.0083200  2
   2121   2117   2118   2130     1  0.0000000  1.2552000  3
   2121   2117   2124   2127     1  180.0000771  2.0083200  2
   2121   2117   2124   2127     1  0.0000000  1.2552000  3
   2121   2133   2139   4320     1  0.0000000  0.6508444  3
   2124   2117   2118   2130     1  180.0000771  2.0083200  2
   2124   2117   2118   2130     1  0.0000000  1.2552000  3
   2124   2117   2121   2133     1  180.0000771  2.0083200  2
   2124   2117   2121   2133     1  0.0000000  1.2552000  3
   2124   2127   2136   2145     1  0.0000000  0.6508444  3
   2130   2142   4349   4321     1  180.0000771  0.4184000  2
   2130   2142   4349   4321     1  0.0000000  1.6024720  3
   2133   2139   4320   4292     1  180.0000771  0.4184000  2
   2133   2139   4320   4292     1  0.0000000  1.6024720  3
   2139   4320   4292   4295     1  180.0000771  0.4184000  2
   2139   4320   4292   4295     1  0.0000000  1.6024720  3
   2142   4349   4321   4324     1  180.0000771  0.4184000  2
   2142   4349   4321   4324     1  0.0000000  1.6024720  3
   2146   2147   2159   2171     1  0.0000000  0.6508444  3
   2146   2150   2162   2168     1  0.0000000  0.6508444  3
   2146   2153   2156   2165     1  0.0000000  0.6508444  3
   2147   2146   2150   2162     1  180.0000771  2.0083200  2
   2147   2146   2150   2162     1  0.0000000  1.2552000  3
   2147   2146   2153   2156     1  180.0000771  2.0083200  2
   2147   2146   2153   2156     1  0.0000000  1.2552000  3
   2147   2159   2171   4407     1  0.0000000  0.6508444  3
   2150   2146   2147   2159     1  180.0000771  2.0083200  2
   2150   2146   2147   2159     1  0.0000000  1.2552000  3
   2150   2146   2153   2156     1  180.0000771  2.0083200  2
   2150   2146   2153   2156     1  0.0000000  1.2552000  3
   2150   2162   2168   4378     1  0.0000000  0.6508444  3
   2153   2146   2147   2159     1  180.0000771  2.0083200  2
   2153   2146   2147   2159     1  0.0000000  1.2552000  3
   2153   2146   2150   2162     1  180.0000771  2.0083200  2
   2153   2146   2150   2162     1  0.0000000  1.2552000  3
   2153   2156   2165   2174     1  0.0000000  0.6508444  3
   2159   2171   4407   4379     1  180.0000771  0.4184000  2
   2159   2171   4407   4379     1  0.0000000  1.6024720  3
   2162   2168   4378   4350     1  180.0000771  0.4184000  2
   2162   2168   4378   4350     1  0.0000000  1.6024720  3
   2168   4378   4350   4353     1  180.0000771  0.4184000  2
   2168   4378   4350   4353     1  0.0000000  1.6024720  3
   2171   4407   4379   4382     1  180.0000771  0.4184000  2
   2171   4407   4379   4382     1  0.0000000  1.6024720  3
   2175   2176   2188   2200     1  0.0000000  0.6508444  3
   2175   2179   2191   2197     1  0.0000000  0.6508444  3
   2175   2182   2185   2194     1  0.0000000  0.6508444  3
   2176   2175   2179   2191     1  180.0000771  2.0083200  2
   2176   2175   2179   2191     1  0.0000000  1.2552000  3
   2176   2175   2182   2185     1  180.0000771  2.0083200  2
   2176   2175   2182   2185     1  0.0000000  1.2552000  3
   2176   2188   2200   4465     1  0.0000000  0.6508444  3
   2179   2175   2176   2188     1  180.0000771  2.0083200  2
   2179   2175   2176   2188     1  0.0000000  1.2552000  3
   2179   2175   2182   2185     1  180.0000771  2.0083200  2
   2179   2175   2182   2185     1  0.0000000  1.2552000  3
   2179   2191   2197   4436     1  0.0000000  0.6508444  3
   2182   2175   2176   2188     1  180.0000771  2.0083200  2
   2182   2175   2176   2188     1  0.0000000  1.2552000  3
   2182   2175   2179   2191     1  180.0000771  2.0083200  2
   2182   2175   2179   2191     1  0.0000000  1.2552000  3
   2182   2185   2194   2203     1  0.0000000  0.6508444  3
   2188   2200   4465   4437     1  180.0000771  0.4184000  2
   2188   2200   4465   4437     1  0.0000000  1.6024720  3
   2191   2197   4436   4408     1  180.0000771  0.4184000  2
   2191   2197   4436   4408     1  0.0000000  1.6024720  3
   2197   4436   4408   4411     1  180.0000771  0.4184000  2
   2197   4436   4408   4411     1  0.0000000  1.6024720  3
   2200   4465   4437   4440     1  180.0000771  0.4184000  2
   2200   4465   4437   4440     1  0.0000000  1.6024720  3
   2204   2205   2217   2229     1  0.0000000  0.6508444  3
   2204   2208   2220   2226     1  0.0000000  0.6508444  3
   2204   2211   2214   2223     1  0.0000000  0.6508444  3
   2205   2204   2208   2220     1  180.0000771  2.0083200  2
   2205   2204   2208   2220     1  0.0000000  1.2552000  3
   2205   2204   2211   2214     1  180.0000771  2.0083200  2
   2205   2204   2211   2214     1  0.0000000  1.2552000  3
   2205   2217   2229   4523     1  0.0000000  0.6508444  3
   2208   2204   2205   2217     1  180.0000771  2.0083200  2
   2208   2204   2205   2217     1  0.0000000  1.2552000  3
   2208   2204   2211   2214     1  180.0000771  2.0083200  2
   2208   2204   2211   2214     1  0.0000000  1.2552000  3
   2208   2220   2226   4494     1  0.0000000  0.6508444  3
   2211   2204   2205   2217     1  180.0000771  2.0083200  2
   2211   2204   2205   2217     1  0.0000000  1.2552000  3
   2211   2204   2208   2220     1  180.0000771  2.0083200  2
   2211   2204   2208   2220     1  0.0000000  1.2552000  3
   2211   2214   2223   2232     1  0.0000000  0.6508444  3
   2217   2229   4523   4495     1  180.0000771  0.4184000  2
   2217   2229   4523   4495     1  0.0000000  1.6024720  3
   2220   2226   4494   4466     1  180.0000771  0.4184000  2
   2220   2226   4494   4466     1  0.0000000  1.6024720  3
   2226   4494   4466   4469     1  180.0000771  0.4184000  2
   2226   4494   4466   4469     1  0.0000000  1.6024720  3
   2229   4523   4495   4498     1  180.0000771  0.4184000  2
   2229   4523   4495   4498     1  0.0000000  1.6024720  3
   2233   2234   2246   2258     1  0.0000000  0.6508444  3
   2233   2237   2249   2255     1  0.0000000  0.6508444  3
   2233   2240   2243   2252     1  0.0000000  0.6508444  3
   2234   2233   2237   2249     1  180.0000771  2.0083200  2
   2234   2233   2237   2249     1  0.0000000  1.2552000  3
   2234   2233   2240   2243     1  180.0000771  2.0083200  2
   2234   2233   2240   2243     1  0.0000000  1.2552000  3
   2234   2246   2258   4581     1  0.0000000  0.6508444  3
   2237   2233   2234   2246     1  180.0000771  2.0083200  2
   2237   2233   2234   2246     1  0.0000000  1.2552000  3
   2237   2233   2240   2243     1  180.0000771  2.0083200  2
   2237   2233   2240   2243     1  0.0000000  1.2552000  3
   2237   2249   2255   4552     1  0.0000000  0.6508444  3
   2240   2233   2234   2246     1  180.0000771  2.0083200  2
   2240   2233   2234   2246     1  0.0000000  1.2552000  3
   2240   2233   2237   2249     1  180.0000771  2.0083200  2
   2240   2233   2237   2249     1  0.0000000  1.2552000  3
   2240   2243   2252   2261     1  0.0000000  0.6508444  3
   2246   2258   4581   4553     1  180.0000771  0.4184000  2
   2246   2258   4581   4553     1  0.0000000  1.6024720  3
   2249   2255   4552   4524     1  180.0000771  0.4184000  2
   2249   2255   4552   4524     1  0.0000000  1.6024720  3
   2255   4552   4524   4527     1  180.0000771  0.4184000  2
   2255   4552   4524   4527     1  0.0000000  1.6024720  3
   2258   4581   4553   4556     1  180.0000771  0.4184000  2
   2258   4581   4553   4556     1  0.0000000  1.6024720  3
   2262   2263   2275   2287     1  0.0000000  0.6508444  3
   2262   2266   2278   2284     1  0.0000000  0.6508444  3
   2262   2269   2272   2281     1  0.0000000  0.6508444  3
   2263   2262   2266   2278     1  180.0000771  2.0083200  2
   2263   2262   2266   2278     1  0.0000000  1.2552000  3
   2263   2262   2269   2272     1  180.0000771  2.0083200  2
   2263   2262   2269   2272     1  0.0000000  1.2552000  3
   2263   2275   2287   4639     1  0.0000000  0.6508444  3
   2266   2262   2263   2275     1  180.0000771  2.0083200  2
   2266   2262   2263   2275     1  0.0000000  1.2552000  3
   2266   2262   2269   2272     1  180.0000771  2.0083200  2
   2266   2262   2269   2272     1  0.0000000  1.2552000  3
   2266   2278   2284   4610     1  0.0000000  0.6508444  3
   2269   2262   2263   2275     1  180.0000771  2.0083200  2
   2269   2262   2263   2275     1  0.0000000  1.2552000  3
   2269   2262   2266   2278     1  180.0000771  2.0083200  2
   2269   2262   2266   2278     1  0.0000000  1.2552000  3
   2269   2272   2281   2290     1  0.0000000  0.6508444  3
   2275   2287   4639   4611     1  180.0000771  0.4184000  2
   2275   2287   4639   4611     1  0.0000000  1.6024720  3
   2278   2284   4610   4582     1  180.0000771  0.4184000  2
   2278   2284   4610   4582     1  0.0000000  1.6024720  3
   2284   4610   4582   4585     1  180.0000771  0.4184000  2
   2284   4610   4582   4585     1  0.0000000  1.6024720  3
   2287   4639   4611   4614     1  180.0000771  0.4184000  2
   2287   4639   4611   4614     1  0.0000000  1.6024720  3
   2291   2292   2304   2316     1  0.0000000  0.6508444  3
   2291   2295   2307   2313     1  0.0000000  0.6508444  3
   2291   2298   2301   2310     1  0.0000000  0.6508444  3
   2292   2291   2295   2307     1  180.0000771  2.0083200  2
   2292   2291   2295   2307     1  0.0000000  1.2552000  3
   2292   2291   2298   2301     1  180.0000771  2.0083200  2
   2292   2291   2298   2301     1  0.0000000  1.2552000  3
   2292   2304   2316   4697     1  0.0000000  0.6508444  3
   2295   2291   2292   2304     1  180.0000771  2.0083200  2
   2295   2291   2292   2304     1  0.0000000  1.2552000  3
   2295   2291   2298   2301     1  180.0000771  2.0083200  2
   2295   2291   2298   2301     1  0.0000000  1.2552000  3
   2295   2307   2313   4668     1  0.0000000  0.6508444  3
   2298   2291   2292   2304     1  180.0000771  2.0083200  2
   2298   2291   2292   2304     1  0.0000000  1.2552000  3
   2298   2291   2295   2307     1  180.0000771  2.0083200  2
   2298   2291   2295   2307     1  0.0000000  1.2552000  3
   2298   2301   2310   2319     1  0.0000000  0.6508444  3
   2304   2316   4697   4669     1  180.0000771  0.4184000  2
   2304   2316   4697   4669     1  0.0000000  1.6024720  3
   2307   2313   4668   4640     1  180.0000771  0.4184000  2
   2307   2313   4668   4640     1  0.0000000  1.6024720  3
   2313   4668   4640   4643     1  180.0000771  0.4184000  2
   2313   4668   4640   4643     1  0.0000000  1.6024720  3
   2316   4697   4669   4672     1  180.0000771  0.4184000  2
   2316   4697   4669   4672     1  0.0000000  1.6024720  3
   2320   2321   2333   2345     1  0.0000000  0.6508444  3
   2320   2324   2336   2342     1  0.0000000  0.6508444  3
   2320   2327   2330   2339     1  0.0000000  0.6508444  3
   2321   2320   2324   2336     1  180.0000771  2.0083200  2
   2321   2320   2324   2336     1  0.0000000  1.2552000  3
   2321   2320   2327   2330     1  180.0000771  2.0083200  2
   2321   2320   2327   2330     1  0.0000000  1.2552000  3
   2321   2333   2345   4755     1  0.0000000  0.6508444  3
   2324   2320   2321   2333     1  180.0000771  2.0083200  2
   2324   2320   2321   2333     1  0.0000000  1.2552000  3
   2324   2320   2327   2330     1  180.0000771  2.0083200  2
   2324   2320   2327   2330     1  0.0000000  1.2552000  3
   2324   2336   2342   4726     1  0.0000000  0.6508444  3
   2327   2320   2321   2333     1  180.0000771  2.0083200  2
   2327   2320   2321   2333     1  0.0000000  1.2552000  3
   2327   2320   2324   2336     1  180.0000771  2.0083200  2
   2327   2320   2324   2336     1  0.0000000  1.2552000  3
   2327   2330   2339   2348     1  0.0000000  0.6508444  3
   2333   2345   4755   4727     1  180.0000771  0.4184000  2
   2333   2345   4755   4727     1  0.0000000  1.6024720  3
   2336   2342   4726   4698     1  180.0000771  0.4184000  2
   2336   2342   4726   4698     1  0.0000000  1.6024720  3
   2342   4726   4698   4701     1  180.0000771  0.4184000  2
   2342   4726   4698   4701     1  0.0000000  1.6024720  3
   2345   4755   4727   4730     1  180.0000771  0.4184000  2
   2345   4755   4727   4730     1  0.0000000  1.6024720  3
   2349   2350   2362   2374     1  0.0000000  0.6508444  3
   2349   2353   2365   2371     1  0.0000000  0.6508444  3
   2349   2356   2359   2368     1  0.0000000  0.6508444  3
   2350   2349   2353   2365     1  180.0000771  2.0083200  2
   2350   2349   2353   2365     1  0.0000000  1.2552000  3
   2350   2349   2356   2359     1  180.0000771  2.0083200  2
   2350   2349   2356   2359     1  0.0000000  1.2552000  3
   2350   2362   2374   4813     1  0.0000000  0.6508444  3
   2353   2349   2350   2362     1  180.0000771  2.0083200  2
   2353   2349   2350   2362     1  0.0000000  1.2552000  3
   2353   2349   2356   2359     1  180.0000771  2.0083200  2
   2353   2349   2356   2359     1  0.0000000  1.2552000  3
   2353   2365   2371   4784     1  0.0000000  0.6508444  3
   2356   2349   2350   2362     1  180.0000771  2.0083200  2
   2356   2349   2350   2362     1  0.0000000  1.2552000  3
   2356   2349   2353   2365     1  180.0000771  2.0083200  2
   2356   2349   2353   2365     1  0.0000000  1.2552000  3
   2356   2359   2368   2377     1  0.0000000  0.6508444  3
   2362   2374   4813   4785     1  180.0000771  0.4184000  2
   2362   2374   4813   4785     1  0.0000000  1.6024720  3
   2365   2371   4784   4756     1  180.0000771  0.4184000  2
   2365   2371   4784   4756     1  0.0000000  1.6024720  3
   2371   4784   4756   4759     1  180.0000771  0.4184000  2
   2371   4784   4756   4759     1  0.0000000  1.6024720  3
   2374   4813   4785   4788     1  180.0000771  0.4184000  2
   2374   4813   4785   4788     1  0.0000000  1.6024720  3
   2378   2379   2391   2403     1  0.0000000  0.6508444  3
   2378   2382   2394   2400     1  0.0000000  0.6508444  3
   2378   2385   2388   2397     1  0.0000000  0.6508444  3
   2379   2378   2382   2394     1  180.0000771  2.0083200  2
   2379   2378   2382   2394     1  0.0000000  1.2552000  3
   2379   2378   2385   2388     1  180.0000771  2.0083200  2
   2379   2378   2385   2388     1  0.0000000  1.2552000  3
   2379   2391   2403   4871     1  0.0000000  0.6508444  3
   2382   2378   2379   2391     1  180.0000771  2.0083200  2
   2382   2378   2379   2391     1  0.0000000  1.2552000  3
   2382   2378   2385   2388     1  180.0000771  2.0083200  2
   2382   2378   2385   2388     1  0.0000000  1.2552000  3
   2382   2394   2400   4842     1  0.0000000  0.6508444  3
   2385   2378   2379   2391     1  180.0000771  2.0083200  2
   2385   2378   2379   2391     1  0.0000000  1.2552000  3
   2385   2378   2382   2394     1  180.0000771  2.0083200  2
   2385   2378   2382   2394     1  0.0000000  1.2552000  3
   2385   2388   2397   2406     1  0.0000000  0.6508444  3
   2391   2403   4871   4843     1  180.0000771  0.4184000  2
   2391   2403   4871   4843     1  0.0000000  1.6024720  3
   2394   2400   4842   4814     1  180.0000771  0.4184000  2
   2394   2400   4842   4814     1  0.0000000  1.6024720  3
   2400   4842   4814   4817     1  180.0000771  0.4184000  2
   2400   4842   4814   4817     1  0.0000000  1.6024720  3
   2403   4871   4843   4846     1  180.0000771  0.4184000  2
   2403   4871   4843   4846     1  0.0000000  1.6024720  3
   2407   2408   2420   2432     1  0.0000000  0.6508444  3
   2407   2411   2423   2429     1  0.0000000  0.6508444  3
   2407   2414   2417   2426     1  0.0000000  0.6508444  3
   2408   2407   2411   2423     1  180.0000771  2.0083200  2
   2408   2407   2411   2423     1  0.0000000  1.2552000  3
   2408   2407   2414   2417     1  180.0000771  2.0083200  2
   2408   2407   2414   2417     1  0.0000000  1.2552000  3
   2408   2420   2432   4929     1  0.0000000  0.6508444  3
   2411   2407   2408   2420     1  180.0000771  2.0083200  2
   2411   2407   2408   2420     1  0.0000000  1.2552000  3
   2411   2407   2414   2417     1  180.0000771  2.0083200  2
   2411   2407   2414   2417     1  0.0000000  1.2552000  3
   2411   2423   2429   4900     1  0.0000000  0.6508444  3
   2414   2407   2408   2420     1  180.0000771  2.0083200  2
   2414   2407   2408   2420     1  0.0000000  1.2552000  3
   2414   2407   2411   2423     1  180.0000771  2.0083200  2
   2414   2407   2411   2423     1  0.0000000  1.2552000  3
   2414   2417   2426   2435     1  0.0000000  0.6508444  3
   2420   2432   4929   4901     1  180.0000771  0.4184000  2
   2420   2432   4929   4901     1  0.0000000  1.6024720  3
   2423   2429   4900   4872     1  180.0000771  0.4184000  2
   2423   2429   4900   4872     1  0.0000000  1.6024720  3
   2429   4900   4872   4875     1  180.0000771  0.4184000  2
   2429   4900   4872   4875     1  0.0000000  1.6024720  3
   2432   4929   4901   4904     1  180.0000771  0.4184000  2
   2432   4929   4901   4904     1  0.0000000  1.6024720  3
   2436   2437   2449   2461     1  0.0000000  0.6508444  3
   2436   2440   2452   2458     1  0.0000000  0.6508444  3
   2436   2443   2446   2455     1  0.0000000  0.6508444  3
   2437   2436   2440   2452     1  180.0000771  2.0083200  2
   2437   2436   2440   2452     1  0.0000000  1.2552000  3
   2437   2436   2443   2446     1  180.0000771  2.0083200  2
   2437   2436   2443   2446     1  0.0000000  1.2552000  3
   2437   2449   2461   4987     1  0.0000000  0.6508444  3
   2440   2436   2437   2449     1  180.0000771  2.0083200  2
   2440   2436   2437   2449     1  0.0000000  1.2552000  3
   2440   2436   2443   2446     1  180.0000771  2.0083200  2
   2440   2436   2443   2446     1  0.0000000  1.2552000  3
   2440   2452   2458   4958     1  0.0000000  0.6508444  3
   2443   2436   2437   2449     1  180.0000771  2.0083200  2
   2443   2436   2437   2449     1  0.0000000  1.2552000  3
   2443   2436   2440   2452     1  180.0000771  2.0083200  2
   2443   2436   2440   2452     1  0.0000000  1.2552000  3
   2443   2446   2455   2464     1  0.0000000  0.6508444  3
   2449   2461   4987   4959     1  180.0000771  0.4184000  2
   2449   2461   4987   4959     1  0.0000000  1.6024720  3
   2452   2458   4958   4930     1  180.0000771  0.4184000  2
   2452   2458   4958   4930     1  0.0000000  1.6024720  3
   2458   4958   4930   4933     1  180.0000771  0.4184000  2
   2458   4958   4930   4933     1  0.0000000  1.6024720  3
   2461   4987   4959   4962     1  180.0000771  0.4184000  2
   2461   4987   4959   4962     1  0.0000000  1.6024720  3
   2465   2466   2478   2490     1  0.0000000  0.6508444  3
   2465   2469   2481   2487     1  0.0000000  0.6508444  3
   2465   2472   2475   2484     1  0.0000000  0.6508444  3
   2466   2465   2469   2481     1  180.0000771  2.0083200  2
   2466   2465   2469   2481     1  0.0000000  1.2552000  3
   2466   2465   2472   2475     1  180.0000771  2.0083200  2
   2466   2465   2472   2475     1  0.0000000  1.2552000  3
   2466   2478   2490   5045     1  0.0000000  0.6508444  3
   2469   2465   2466   2478     1  180.0000771  2.0083200  2
   2469   2465   2466   2478     1  0.0000000  1.2552000  3
   2469   2465   2472   2475     1  180.0000771  2.0083200  2
   2469   2465   2472   2475     1  0.0000000  1.2552000  3
   2469   2481   2487   5016     1  0.0000000  0.6508444  3
   2472   2465   2466   2478     1  180.0000771  2.0083200  2
   2472   2465   2466   2478     1  0.0000000  1.2552000  3
   2472   2465   2469   2481     1  180.0000771  2.0083200  2
   2472   2465   2469   2481     1  0.0000000  1.2552000  3
   2472   2475   2484   2493     1  0.0000000  0.6508444  3
   2478   2490   5045   5017     1  180.0000771  0.4184000  2
   2478   2490   5045   5017     1  0.0000000  1.6024720  3
   2481   2487   5016   4988     1  180.0000771  0.4184000  2
   2481   2487   5016   4988     1  0.0000000  1.6024720  3
   2487   5016   4988   4991     1  180.0000771  0.4184000  2
   2487   5016   4988   4991     1  0.0000000  1.6024720  3
   2490   5045   5017   5020     1  180.0000771  0.4184000  2
   2490   5045   5017   5020     1  0.0000000  1.6024720  3
   2494   2495   2507   2519     1  0.0000000  0.6508444  3
   2494   2498   2510   2516     1  0.0000000  0.6508444  3
   2494   2501   2504   2513     1  0.0000000  0.6508444  3
   2495   2494   2498   2510     1  180.0000771  2.0083200  2
   2495   2494   2498   2510     1  0.0000000  1.2552000  3
   2495   2494   2501   2504     1  180.0000771  2.0083200  2
   2495   2494   2501   2504     1  0.0000000  1.2552000  3
   2495   2507   2519   5103     1  0.0000000  0.6508444  3
   2498   2494   2495   2507     1  180.0000771  2.0083200  2
   2498   2494   2495   2507     1  0.0000000  1.2552000  3
   2498   2494   2501   2504     1  180.0000771  2.0083200  2
   2498   2494   2501   2504     1  0.0000000  1.2552000  3
   2498   2510   2516   5074     1  0.0000000  0.6508444  3
   2501   2494   2495   2507     1  180.0000771  2.0083200  2
   2501   2494   2495   2507     1  0.0000000  1.2552000  3
   2501   2494   2498   2510     1  180.0000771  2.0083200  2
   2501   2494   2498   2510     1  0.0000000  1.2552000  3
   2501   2504   2513   2522     1  0.0000000  0.6508444  3
   2507   2519   5103   5075     1  180.0000771  0.4184000  2
   2507   2519   5103   5075     1  0.0000000  1.6024720  3
   2510   2516   5074   5046     1  180.0000771  0.4184000  2
   2510   2516   5074   5046     1  0.0000000  1.6024720  3
   2516   5074   5046   5049     1  180.0000771  0.4184000  2
   2516   5074   5046   5049     1  0.0000000  1.6024720  3
   2519   5103   5075   5078     1  180.0000771  0.4184000  2
   2519   5103   5075   5078     1  0.0000000  1.6024720  3
   2523   2524   2536   2548     1  0.0000000  0.6508444  3
   2523   2527   2539   2545     1  0.0000000  0.6508444  3
   2523   2530   2533   2542     1  0.0000000  0.6508444  3
   2524   2523   2527   2539     1  180.0000771  2.0083200  2
   2524   2523   2527   2539     1  0.0000000  1.2552000  3
   2524   2523   2530   2533     1  180.0000771  2.0083200  2
   2524   2523   2530   2533     1  0.0000000  1.2552000  3
   2524   2536   2548   5161     1  0.0000000  0.6508444  3
   2527   2523   2524   2536     1  180.0000771  2.0083200  2
   2527   2523   2524   2536     1  0.0000000  1.2552000  3
   2527   2523   2530   2533     1  180.0000771  2.0083200  2
   2527   2523   2530   2533     1  0.0000000  1.2552000  3
   2527   2539   2545   5132     1  0.0000000  0.6508444  3
   2530   2523   2524   2536     1  180.0000771  2.0083200  2
   2530   2523   2524   2536     1  0.0000000  1.2552000  3
   2530   2523   2527   2539     1  180.0000771  2.0083200  2
   2530   2523   2527   2539     1  0.0000000  1.2552000  3
   2530   2533   2542   2551     1  0.0000000  0.6508444  3
   2536   2548   5161   5133     1  180.0000771  0.4184000  2
   2536   2548   5161   5133     1  0.0000000  1.6024720  3
   2539   2545   5132   5104     1  180.0000771  0.4184000  2
   2539   2545   5132   5104     1  0.0000000  1.6024720  3
   2545   5132   5104   5107     1  180.0000771  0.4184000  2
   2545   5132   5104   5107     1  0.0000000  1.6024720  3
   2548   5161   5133   5136     1  180.0000771  0.4184000  2
   2548   5161   5133   5136     1  0.0000000  1.6024720  3
   2552   2553   2565   2577     1  0.0000000  0.6508444  3
   2552   2556   2568   2574     1  0.0000000  0.6508444  3
   2552   2559   2562   2571     1  0.0000000  0.6508444  3
   2553   2552   2556   2568     1  180.0000771  2.0083200  2
   2553   2552   2556   2568     1  0.0000000  1.2552000  3
   2553   2552   2559   2562     1  180.0000771  2.0083200  2
   2553   2552   2559   2562     1  0.0000000  1.2552000  3
   2553   2565   2577   5219     1  0.0000000  0.6508444  3
   2556   2552   2553   2565     1  180.0000771  2.0083200  2
   2556   2552   2553   2565     1  0.0000000  1.2552000  3
   2556   2552   2559   2562     1  180.0000771  2.0083200  2
   2556   2552   2559   2562     1  0.0000000  1.2552000  3
   2556   2568   2574   5190     1  0.0000000  0.6508444  3
   2559   2552   2553   2565     1  180.0000771  2.0083200  2
   2559   2552   2553   2565     1  0.0000000  1.2552000  3
   2559   2552   2556   2568     1  180.0000771  2.0083200  2
   2559   2552   2556   2568     1  0.0000000  1.2552000  3
   2559   2562   2571   2580     1  0.0000000  0.6508444  3
   2565   2577   5219   5191     1  180.0000771  0.4184000  2
   2565   2577   5219   5191     1  0.0000000  1.6024720  3
   2568   2574   5190   5162     1  180.0000771  0.4184000  2
   2568   2574   5190   5162     1  0.0000000  1.6024720  3
   2574   5190   5162   5165     1  180.0000771  0.4184000  2
   2574   5190   5162   5165     1  0.0000000  1.6024720  3
   2577   5219   5191   5194     1  180.0000771  0.4184000  2
   2577   5219   5191   5194     1  0.0000000  1.6024720  3
   2581   2582   2594   2606     1  0.0000000  0.6508444  3
   2581   2585   2597   2603     1  0.0000000  0.6508444  3
   2581   2588   2591   2600     1  0.0000000  0.6508444  3
   2582   2581   2585   2597     1  180.0000771  2.0083200  2
   2582   2581   2585   2597     1  0.0000000  1.2552000  3
   2582   2581   2588   2591     1  180.0000771  2.0083200  2
   2582   2581   2588   2591     1  0.0000000  1.2552000  3
   2582   2594   2606   5277     1  0.0000000  0.6508444  3
   2585   2581   2582   2594     1  180.0000771  2.0083200  2
   2585   2581   2582   2594     1  0.0000000  1.2552000  3
   2585   2581   2588   2591     1  180.0000771  2.0083200  2
   2585   2581   2588   2591     1  0.0000000  1.2552000  3
   2585   2597   2603   5248     1  0.0000000  0.6508444  3
   2588   2581   2582   2594     1  180.0000771  2.0083200  2
   2588   2581   2582   2594     1  0.0000000  1.2552000  3
   2588   2581   2585   2597     1  180.0000771  2.0083200  2
   2588   2581   2585   2597     1  0.0000000  1.2552000  3
   2588   2591   2600   2609     1  0.0000000  0.6508444  3
   2594   2606   5277   5249     1  180.0000771  0.4184000  2
   2594   2606   5277   5249     1  0.0000000  1.6024720  3
   2597   2603   5248   5220     1  180.0000771  0.4184000  2
   2597   2603   5248   5220     1  0.0000000  1.6024720  3
   2603   5248   5220   5223     1  180.0000771  0.4184000  2
   2603   5248   5220   5223     1  0.0000000  1.6024720  3
   2606   5277   5249   5252     1  180.0000771  0.4184000  2
   2606   5277   5249   5252     1  0.0000000  1.6024720  3
   2610   2611   2623   2635     1  0.0000000  0.6508444  3
   2610   2614   2626   2632     1  0.0000000  0.6508444  3
   2610   2617   2620   2629     1  0.0000000  0.6508444  3
   2611   2610   2614   2626     1  180.0000771  2.0083200  2
   2611   2610   2614   2626     1  0.0000000  1.2552000  3
   2611   2610   2617   2620     1  180.0000771  2.0083200  2
   2611   2610   2617   2620     1  0.0000000  1.2552000  3
   2611   2623   2635   5335     1  0.0000000  0.6508444  3
   2614   2610   2611   2623     1  180.0000771  2.0083200  2
   2614   2610   2611   2623     1  0.0000000  1.2552000  3
   2614   2610   2617   2620     1  180.0000771  2.0083200  2
   2614   2610   2617   2620     1  0.0000000  1.2552000  3
   2614   2626   2632   5306     1  0.0000000  0.6508444  3
   2617   2610   2611   2623     1  180.0000771  2.0083200  2
   2617   2610   2611   2623     1  0.0000000  1.2552000  3
   2617   2610   2614   2626     1  180.0000771  2.0083200  2
   2617   2610   2614   2626     1  0.0000000  1.2552000  3
   2617   2620   2629   2638     1  0.0000000  0.6508444  3
   2623   2635   5335   5307     1  180.0000771  0.4184000  2
   2623   2635   5335   5307     1  0.0000000  1.6024720  3
   2626   2632   5306   5278     1  180.0000771  0.4184000  2
   2626   2632   5306   5278     1  0.0000000  1.6024720  3
   2632   5306   5278   5281     1  180.0000771  0.4184000  2
   2632   5306   5278   5281     1  0.0000000  1.6024720  3
   2635   5335   5307   5310     1  180.0000771  0.4184000  2
   2635   5335   5307   5310     1  0.0000000  1.6024720  3
   2639   2640   2652   2664     1  0.0000000  0.6508444  3
   2639   2643   2655   2661     1  0.0000000  0.6508444  3
   2639   2646   2649   2658     1  0.0000000  0.6508444  3
   2640   2639   2643   2655     1  180.0000771  2.0083200  2
   2640   2639   2643   2655     1  0.0000000  1.2552000  3
   2640   2639   2646   2649     1  180.0000771  2.0083200  2
   2640   2639   2646   2649     1  0.0000000  1.2552000  3
   2640   2652   2664   5393     1  0.0000000  0.6508444  3
   2643   2639   2640   2652     1  180.0000771  2.0083200  2
   2643   2639   2640   2652     1  0.0000000  1.2552000  3
   2643   2639   2646   2649     1  180.0000771  2.0083200  2
   2643   2639   2646   2649     1  0.0000000  1.2552000  3
   2643   2655   2661   5364     1  0.0000000  0.6508444  3
   2646   2639   2640   2652     1  180.0000771  2.0083200  2
   2646   2639   2640   2652     1  0.0000000  1.2552000  3
   2646   2639   2643   2655     1  180.0000771  2.0083200  2
   2646   2639   2643   2655     1  0.0000000  1.2552000  3
   2646   2649   2658   2667     1  0.0000000  0.6508444  3
   2652   2664   5393   5365     1  180.0000771  0.4184000  2
   2652   2664   5393   5365     1  0.0000000  1.6024720  3
   2655   2661   5364   5336     1  180.0000771  0.4184000  2
   2655   2661   5364   5336     1  0.0000000  1.6024720  3
   2661   5364   5336   5339     1  180.0000771  0.4184000  2
   2661   5364   5336   5339     1  0.0000000  1.6024720  3
   2664   5393   5365   5368     1  180.0000771  0.4184000  2
   2664   5393   5365   5368     1  0.0000000  1.6024720  3
   2668   2669   2681   2693     1  0.0000000  0.6508444  3
   2668   2672   2684   2690     1  0.0000000  0.6508444  3
   2668   2675   2678   2687     1  0.0000000  0.6508444  3
   2669   2668   2672   2684     1  180.0000771  2.0083200  2
   2669   2668   2672   2684     1  0.0000000  1.2552000  3
   2669   2668   2675   2678     1  180.0000771  2.0083200  2
   2669   2668   2675   2678     1  0.0000000  1.2552000  3
   2669   2681   2693   5451     1  0.0000000  0.6508444  3
   2672   2668   2669   2681     1  180.0000771  2.0083200  2
   2672   2668   2669   2681     1  0.0000000  1.2552000  3
   2672   2668   2675   2678     1  180.0000771  2.0083200  2
   2672   2668   2675   2678     1  0.0000000  1.2552000  3
   2672   2684   2690   5422     1  0.0000000  0.6508444  3
   2675   2668   2669   2681     1  180.0000771  2.0083200  2
   2675   2668   2669   2681     1  0.0000000  1.2552000  3
   2675   2668   2672   2684     1  180.0000771  2.0083200  2
   2675   2668   2672   2684     1  0.0000000  1.2552000  3
   2675   2678   2687   2696     1  0.0000000  0.6508444  3
   2681   2693   5451   5423     1  180.0000771  0.4184000  2
   2681   2693   5451   5423     1  0.0000000  1.6024720  3
   2684   2690   5422   5394     1  180.0000771  0.4184000  2
   2684   2690   5422   5394     1  0.0000000  1.6024720  3
   2690   5422   5394   5397     1  180.0000771  0.4184000  2
   2690   5422   5394   5397     1  0.0000000  1.6024720  3
   2693   5451   5423   5426     1  180.0000771  0.4184000  2
   2693   5451   5423   5426     1  0.0000000  1.6024720  3
   2697   2698   2710   2722     1  0.0000000  0.6508444  3
   2697   2701   2713   2719     1  0.0000000  0.6508444  3
   2697   2704   2707   2716     1  0.0000000  0.6508444  3
   2698   2697   2701   2713     1  180.0000771  2.0083200  2
   2698   2697   2701   2713     1  0.0000000  1.2552000  3
   2698   2697   2704   2707     1  180.0000771  2.0083200  2
   2698   2697   2704   2707     1  0.0000000  1.2552000  3
   2698   2710   2722   5509     1  0.0000000  0.6508444  3
   2701   2697   2698   2710     1  180.0000771  2.0083200  2
   2701   2697   2698   2710     1  0.0000000  1.2552000  3
   2701   2697   2704   2707     1  180.0000771  2.0083200  2
   2701   2697   2704   2707     1  0.0000000  1.2552000  3
   2701   2713   2719   5480     1  0.0000000  0.6508444  3
   2704   2697   2698   2710     1  180.0000771  2.0083200  2
   2704   2697   2698   2710     1  0.0000000  1.2552000  3
   2704   2697   2701   2713     1  180.0000771  2.0083200  2
   2704   2697   2701   2713     1  0.0000000  1.2552000  3
   2704   2707   2716   2725     1  0.0000000  0.6508444  3
   2710   2722   5509   5481     1  180.0000771  0.4184000  2
   2710   2722   5509   5481     1  0.0000000  1.6024720  3
   2713   2719   5480   5452     1  180.0000771  0.4184000  2
   2713   2719   5480   5452     1  0.0000000  1.6024720  3
   2719   5480   5452   5455     1  180.0000771  0.4184000  2
   2719   5480   5452   5455     1  0.0000000  1.6024720  3
   2722   5509   5481   5484     1  180.0000771  0.4184000  2
   2722   5509   5481   5484     1  0.0000000  1.6024720  3
   2726   2727   2739   2751     1  0.0000000  0.6508444  3
   2726   2730   2742   2748     1  0.0000000  0.6508444  3
   2726   2733   2736   2745     1  0.0000000  0.6508444  3
   2727   2726   2730   2742     1  180.0000771  2.0083200  2
   2727   2726   2730   2742     1  0.0000000  1.2552000  3
   2727   2726   2733   2736     1  180.0000771  2.0083200  2
   2727   2726   2733   2736     1  0.0000000  1.2552000  3
   2727   2739   2751   5567     1  0.0000000  0.6508444  3
   2730   2726   2727   2739     1  180.0000771  2.0083200  2
   2730   2726   2727   2739     1  0.0000000  1.2552000  3
   2730   2726   2733   2736     1  180.0000771  2.0083200  2
   2730   2726   2733   2736     1  0.0000000  1.2552000  3
   2730   2742   2748   5538     1  0.0000000  0.6508444  3
   2733   2726   2727   2739     1  180.0000771  2.0083200  2
   2733   2726   2727   2739     1  0.0000000  1.2552000  3
   2733   2726   2730   2742     1  180.0000771  2.0083200  2
   2733   2726   2730   2742     1  0.0000000  1.2552000  3
   2733   2736   2745   2754     1  0.0000000  0.6508444  3
   2739   2751   5567   5539     1  180.0000771  0.4184000  2
   2739   2751   5567   5539     1  0.0000000  1.6024720  3
   2742   2748   5538   5510     1  180.0000771  0.4184000  2
   2742   2748   5538   5510     1  0.0000000  1.6024720  3
   2748   5538   5510   5513     1  180.0000771  0.4184000  2
   2748   5538   5510   5513     1  0.0000000  1.6024720  3
   2751   5567   5539   5542     1  180.0000771  0.4184000  2
   2751   5567   5539   5542     1  0.0000000  1.6024720  3
   2755   2756   2768   2780     1  0.0000000  0.6508444  3
   2755   2759   2771   2777     1  0.0000000  0.6508444  3
   2755   2762   2765   2774     1  0.0000000  0.6508444  3
   2756   2755   2759   2771     1  180.0000771  2.0083200  2
   2756   2755   2759   2771     1  0.0000000  1.2552000  3
   2756   2755   2762   2765     1  180.0000771  2.0083200  2
   2756   2755   2762   2765     1  0.0000000  1.2552000  3
   2756   2768   2780   5625     1  0.0000000  0.6508444  3
   2759   2755   2756   2768     1  180.0000771  2.0083200  2
   2759   2755   2756   2768     1  0.0000000  1.2552000  3
   2759   2755   2762   2765     1  180.0000771  2.0083200  2
   2759   2755   2762   2765     1  0.0000000  1.2552000  3
   2759   2771   2777   5596     1  0.0000000  0.6508444  3
   2762   2755   2756   2768     1  180.0000771  2.0083200  2
   2762   2755   2756   2768     1  0.0000000  1.2552000  3
   2762   2755   2759   2771     1  180.0000771  2.0083200  2
   2762   2755   2759   2771     1  0.0000000  1.2552000  3
   2762   2765   2774   2783     1  0.0000000  0.6508444  3
   2768   2780   5625   5597     1  180.0000771  0.4184000  2
   2768   2780   5625   5597     1  0.0000000  1.6024720  3
   2771   2777   5596   5568     1  180.0000771  0.4184000  2
   2771   2777   5596   5568     1  0.0000000  1.6024720  3
   2777   5596   5568   5571     1  180.0000771  0.4184000  2
   2777   5596   5568   5571     1  0.0000000  1.6024720  3
   2780   5625   5597   5600     1  180.0000771  0.4184000  2
   2780   5625   5597   5600     1  0.0000000  1.6024720  3
   2784   2785   2797   2809     1  0.0000000  0.6508444  3
   2784   2788   2800   2806     1  0.0000000  0.6508444  3
   2784   2791   2794   2803     1  0.0000000  0.6508444  3
   2785   2784   2788   2800     1  180.0000771  2.0083200  2
   2785   2784   2788   2800     1  0.0000000  1.2552000  3
   2785   2784   2791   2794     1  180.0000771  2.0083200  2
   2785   2784   2791   2794     1  0.0000000  1.2552000  3
   2785   2797   2809   5683     1  0.0000000  0.6508444  3
   2788   2784   2785   2797     1  180.0000771  2.0083200  2
   2788   2784   2785   2797     1  0.0000000  1.2552000  3
   2788   2784   2791   2794     1  180.0000771  2.0083200  2
   2788   2784   2791   2794     1  0.0000000  1.2552000  3
   2788   2800   2806   5654     1  0.0000000  0.6508444  3
   2791   2784   2785   2797     1  180.0000771  2.0083200  2
   2791   2784   2785   2797     1  0.0000000  1.2552000  3
   2791   2784   2788   2800     1  180.0000771  2.0083200  2
   2791   2784   2788   2800     1  0.0000000  1.2552000  3
   2791   2794   2803   2812     1  0.0000000  0.6508444  3
   2797   2809   5683   5655     1  180.0000771  0.4184000  2
   2797   2809   5683   5655     1  0.0000000  1.6024720  3
   2800   2806   5654   5626     1  180.0000771  0.4184000  2
   2800   2806   5654   5626     1  0.0000000  1.6024720  3
   2806   5654   5626   5629     1  180.0000771  0.4184000  2
   2806   5654   5626   5629     1  0.0000000  1.6024720  3
   2809   5683   5655   5658     1  180.0000771  0.4184000  2
   2809   5683   5655   5658     1  0.0000000  1.6024720  3
   2813   2814   2826   2838     1  0.0000000  0.6508444  3
   2813   2817   2829   2835     1  0.0000000  0.6508444  3
   2813   2820   2823   2832     1  0.0000000  0.6508444  3
   2814   2813   2817   2829     1  180.0000771  2.0083200  2
   2814   2813   2817   2829     1  0.0000000  1.2552000  3
   2814   2813   2820   2823     1  180.0000771  2.0083200  2
   2814   2813   2820   2823     1  0.0000000  1.2552000  3
   2814   2826   2838   5741     1  0.0000000  0.6508444  3
   2817   2813   2814   2826     1  180.0000771  2.0083200  2
   2817   2813   2814   2826     1  0.0000000  1.2552000  3
   2817   2813   2820   2823     1  180.0000771  2.0083200  2
   2817   2813   2820   2823     1  0.0000000  1.2552000  3
   2817   2829   2835   5712     1  0.0000000  0.6508444  3
   2820   2813   2814   2826     1  180.0000771  2.0083200  2
   2820   2813   2814   2826     1  0.0000000  1.2552000  3
   2820   2813   2817   2829     1  180.0000771  2.0083200  2
   2820   2813   2817   2829     1  0.0000000  1.2552000  3
   2820   2823   2832   2841     1  0.0000000  0.6508444  3
   2826   2838   5741   5713     1  180.0000771  0.4184000  2
   2826   2838   5741   5713     1  0.0000000  1.6024720  3
   2829   2835   5712   5684     1  180.0000771  0.4184000  2
   2829   2835   5712   5684     1  0.0000000  1.6024720  3
   2835   5712   5684   5687     1  180.0000771  0.4184000  2
   2835   5712   5684   5687     1  0.0000000  1.6024720  3
   2838   5741   5713   5716     1  180.0000771  0.4184000  2
   2838   5741   5713   5716     1  0.0000000  1.6024720  3
   2842   2843   2855   2867     1  0.0000000  0.6508444  3
   2842   2846   2858   2864     1  0.0000000  0.6508444  3
   2842   2849   2852   2861     1  0.0000000  0.6508444  3
   2843   2842   2846   2858     1  180.0000771  2.0083200  2
   2843   2842   2846   2858     1  0.0000000  1.2552000  3
   2843   2842   2849   2852     1  180.0000771  2.0083200  2
   2843   2842   2849   2852     1  0.0000000  1.2552000  3
   2843   2855   2867   5799     1  0.0000000  0.6508444  3
   2846   2842   2843   2855     1  180.0000771  2.0083200  2
   2846   2842   2843   2855     1  0.0000000  1.2552000  3
   2846   2842   2849   2852     1  180.0000771  2.0083200  2
   2846   2842   2849   2852     1  0.0000000  1.2552000  3
   2846   2858   2864   5770     1  0.0000000  0.6508444  3
   2849   2842   2843   2855     1  180.0000771  2.0083200  2
   2849   2842   2843   2855     1  0.0000000  1.2552000  3
   2849   2842   2846   2858     1  180.0000771  2.0083200  2
   2849   2842   2846   2858     1  0.0000000  1.2552000  3
   2849   2852   2861   2870     1  0.0000000  0.6508444  3
   2855   2867   5799   5771     1  180.0000771  0.4184000  2
   2855   2867   5799   5771     1  0.0000000  1.6024720  3
   2858   2864   5770   5742     1  180.0000771  0.4184000  2
   2858   2864   5770   5742     1  0.0000000  1.6024720  3
   2864   5770   5742   5745     1  180.0000771  0.4184000  2
   2864   5770   5742   5745     1  0.0000000  1.6024720  3
   2867   5799   5771   5774     1  180.0000771  0.4184000  2
   2867   5799   5771   5774     1  0.0000000  1.6024720  3
   2871   2872   2884   2896     1  0.0000000  0.6508444  3
   2871   2875   2887   2893     1  0.0000000  0.6508444  3
   2871   2878   2881   2890     1  0.0000000  0.6508444  3
   2872   2871   2875   2887     1  180.0000771  2.0083200  2
   2872   2871   2875   2887     1  0.0000000  1.2552000  3
   2872   2871   2878   2881     1  180.0000771  2.0083200  2
   2872   2871   2878   2881     1  0.0000000  1.2552000  3
   2872   2884   2896   5857     1  0.0000000  0.6508444  3
   2875   2871   2872   2884     1  180.0000771  2.0083200  2
   2875   2871   2872   2884     1  0.0000000  1.2552000  3
   2875   2871   2878   2881     1  180.0000771  2.0083200  2
   2875   2871   2878   2881     1  0.0000000  1.2552000  3
   2875   2887   2893   5828     1  0.0000000  0.6508444  3
   2878   2871   2872   2884     1  180.0000771  2.0083200  2
   2878   2871   2872   2884     1  0.0000000  1.2552000  3
   2878   2871   2875   2887     1  180.0000771  2.0083200  2
   2878   2871   2875   2887     1  0.0000000  1.2552000  3
   2878   2881   2890   2899     1  0.0000000  0.6508444  3
   2884   2896   5857   5829     1  180.0000771  0.4184000  2
   2884   2896   5857   5829     1  0.0000000  1.6024720  3
   2887   2893   5828   5800     1  180.0000771  0.4184000  2
   2887   2893   5828   5800     1  0.0000000  1.6024720  3
   2893   5828   5800   5803     1  180.0000771  0.4184000  2
   2893   5828   5800   5803     1  0.0000000  1.6024720  3
   2896   5857   5829   5832     1  180.0000771  0.4184000  2
   2896   5857   5829   5832     1  0.0000000  1.6024720  3
   2900   2901   2913   2925     1  0.0000000  0.6508444  3
   2900   2904   2916   2922     1  0.0000000  0.6508444  3
   2900   2907   2910   2919     1  0.0000000  0.6508444  3
   2901   2900   2904   2916     1  180.0000771  2.0083200  2
   2901   2900   2904   2916     1  0.0000000  1.2552000  3
   2901   2900   2907   2910     1  180.0000771  2.0083200  2
   2901   2900   2907   2910     1  0.0000000  1.2552000  3
   2901   2913   2925   5915     1  0.0000000  0.6508444  3
   2904   2900   2901   2913     1  180.0000771  2.0083200  2
   2904   2900   2901   2913     1  0.0000000  1.2552000  3
   2904   2900   2907   2910     1  180.0000771  2.0083200  2
   2904   2900   2907   2910     1  0.0000000  1.2552000  3
   2904   2916   2922   5886     1  0.0000000  0.6508444  3
   2907   2900   2901   2913     1  180.0000771  2.0083200  2
   2907   2900   2901   2913     1  0.0000000  1.2552000  3
   2907   2900   2904   2916     1  180.0000771  2.0083200  2
   2907   2900   2904   2916     1  0.0000000  1.2552000  3
   2907   2910   2919   2928     1  0.0000000  0.6508444  3
   2913   2925   5915   5887     1  180.0000771  0.4184000  2
   2913   2925   5915   5887     1  0.0000000  1.6024720  3
   2916   2922   5886   5858     1  180.0000771  0.4184000  2
   2916   2922   5886   5858     1  0.0000000  1.6024720  3
   2922   5886   5858   5861     1  180.0000771  0.4184000  2
   2922   5886   5858   5861     1  0.0000000  1.6024720  3
   2925   5915   5887   5890     1  180.0000771  0.4184000  2
   2925   5915   5887   5890     1  0.0000000  1.6024720  3
   2929   2930   2942   2954     1  0.0000000  0.6508444  3
   2929   2933   2945   2951     1  0.0000000  0.6508444  3
   2929   2936   2939   2948     1  0.0000000  0.6508444  3
   2930   2929   2933   2945     1  180.0000771  2.0083200  2
   2930   2929   2933   2945     1  0.0000000  1.2552000  3
   2930   2929   2936   2939     1  180.0000771  2.0083200  2
   2930   2929   2936   2939     1  0.0000000  1.2552000  3
   2930   2942   2954   5973     1  0.0000000  0.6508444  3
   2933   2929   2930   2942     1  180.0000771  2.0083200  2
   2933   2929   2930   2942     1  0.0000000  1.2552000  3
   2933   2929   2936   2939     1  180.0000771  2.0083200  2
   2933   2929   2936   2939     1  0.0000000  1.2552000  3
   2933   2945   2951   5944     1  0.0000000  0.6508444  3
   2936   2929   2930   2942     1  180.0000771  2.0083200  2
   2936   2929   2930   2942     1  0.0000000  1.2552000  3
   2936   2929   2933   2945     1  180.0000771  2.0083200  2
   2936   2929   2933   2945     1  0.0000000  1.2552000  3
   2936   2939   2948   2957     1  0.0000000  0.6508444  3
   2942   2954   5973   5945     1  180.0000771  0.4184000  2
   2942   2954   5973   5945     1  0.0000000  1.6024720  3
   2945   2951   5944   5916     1  180.0000771  0.4184000  2
   2945   2951   5944   5916     1  0.0000000  1.6024720  3
   2951   5944   5916   5919     1  180.0000771  0.4184000  2
   2951   5944   5916   5919     1  0.0000000  1.6024720  3
   2954   5973   5945   5948     1  180.0000771  0.4184000  2
   2954   5973   5945   5948     1  0.0000000  1.6024720  3
   2958   2959   2971   2983     1  0.0000000  0.6508444  3
   2958   2962   2974   2980     1  0.0000000  0.6508444  3
   2958   2965   2968   2977     1  0.0000000  0.6508444  3
   2959   2958   2962   2974     1  180.0000771  2.0083200  2
   2959   2958   2962   2974     1  0.0000000  1.2552000  3
   2959   2958   2965   2968     1  180.0000771  2.0083200  2
   2959   2958   2965   2968     1  0.0000000  1.2552000  3
   2959   2971   2983   6031     1  0.0000000  0.6508444  3
   2962   2958   2959   2971     1  180.0000771  2.0083200  2
   2962   2958   2959   2971     1  0.0000000  1.2552000  3
   2962   2958   2965   2968     1  180.0000771  2.0083200  2
   2962   2958   2965   2968     1  0.0000000  1.2552000  3
   2962   2974   2980   6002     1  0.0000000  0.6508444  3
   2965   2958   2959   2971     1  180.0000771  2.0083200  2
   2965   2958   2959   2971     1  0.0000000  1.2552000  3
   2965   2958   2962   2974     1  180.0000771  2.0083200  2
   2965   2958   2962   2974     1  0.0000000  1.2552000  3
   2965   2968   2977   2986     1  0.0000000  0.6508444  3
   2971   2983   6031   6003     1  180.0000771  0.4184000  2
   2971   2983   6031   6003     1  0.0000000  1.6024720  3
   2974   2980   6002   5974     1  180.0000771  0.4184000  2
   2974   2980   6002   5974     1  0.0000000  1.6024720  3
   2980   6002   5974   5977     1  180.0000771  0.4184000  2
   2980   6002   5974   5977     1  0.0000000  1.6024720  3
   2983   6031   6003   6006     1  180.0000771  0.4184000  2
   2983   6031   6003   6006     1  0.0000000  1.6024720  3
   2987   2988   3000   3012     1  0.0000000  0.6508444  3
   2987   2991   3003   3009     1  0.0000000  0.6508444  3
   2987   2994   2997   3006     1  0.0000000  0.6508444  3
   2988   2987   2991   3003     1  180.0000771  2.0083200  2
   2988   2987   2991   3003     1  0.0000000  1.2552000  3
   2988   2987   2994   2997     1  180.0000771  2.0083200  2
   2988   2987   2994   2997     1  0.0000000  1.2552000  3
   2988   3000   3012   6089     1  0.0000000  0.6508444  3
   2991   2987   2988   3000     1  180.0000771  2.0083200  2
   2991   2987   2988   3000     1  0.0000000  1.2552000  3
   2991   2987   2994   2997     1  180.0000771  2.0083200  2
   2991   2987   2994   2997     1  0.0000000  1.2552000  3
   2991   3003   3009   6060     1  0.0000000  0.6508444  3
   2994   2987   2988   3000     1  180.0000771  2.0083200  2
   2994   2987   2988   3000     1  0.0000000  1.2552000  3
   2994   2987   2991   3003     1  180.0000771  2.0083200  2
   2994   2987   2991   3003     1  0.0000000  1.2552000  3
   2994   2997   3006   3015     1  0.0000000  0.6508444  3
   3000   3012   6089   6061     1  180.0000771  0.4184000  2
   3000   3012   6089   6061     1  0.0000000  1.6024720  3
   3003   3009   6060   6032     1  180.0000771  0.4184000  2
   3003   3009   6060   6032     1  0.0000000  1.6024720  3
   3009   6060   6032   6035     1  180.0000771  0.4184000  2
   3009   6060   6032   6035     1  0.0000000  1.6024720  3
   3012   6089   6061   6064     1  180.0000771  0.4184000  2
   3012   6089   6061   6064     1  0.0000000  1.6024720  3
   3016   3017   3029   3041     1  0.0000000  0.6508444  3
   3016   3020   3032   3038     1  0.0000000  0.6508444  3
   3016   3023   3026   3035     1  0.0000000  0.6508444  3
   3017   3016   3020   3032     1  180.0000771  2.0083200  2
   3017   3016   3020   3032     1  0.0000000  1.2552000  3
   3017   3016   3023   3026     1  180.0000771  2.0083200  2
   3017   3016   3023   3026     1  0.0000000  1.2552000  3
   3017   3029   3041   6147     1  0.0000000  0.6508444  3
   3020   3016   3017   3029     1  180.0000771  2.0083200  2
   3020   3016   3017   3029     1  0.0000000  1.2552000  3
   3020   3016   3023   3026     1  180.0000771  2.0083200  2
   3020   3016   3023   3026     1  0.0000000  1.2552000  3
   3020   3032   3038   6118     1  0.0000000  0.6508444  3
   3023   3016   3017   3029     1  180.0000771  2.0083200  2
   3023   3016   3017   3029     1  0.0000000  1.2552000  3
   3023   3016   3020   3032     1  180.0000771  2.0083200  2
   3023   3016   3020   3032     1  0.0000000  1.2552000  3
   3023   3026   3035   3044     1  0.0000000  0.6508444  3
   3029   3041   6147   6119     1  180.0000771  0.4184000  2
   3029   3041   6147   6119     1  0.0000000  1.6024720  3
   3032   3038   6118   6090     1  180.0000771  0.4184000  2
   3032   3038   6118   6090     1  0.0000000  1.6024720  3
   3038   6118   6090   6093     1  180.0000771  0.4184000  2
   3038   6118   6090   6093     1  0.0000000  1.6024720  3
   3041   6147   6119   6122     1  180.0000771  0.4184000  2
   3041   6147   6119   6122     1  0.0000000  1.6024720  3
   3045   3046   3058   3070     1  0.0000000  0.6508444  3
   3045   3049   3061   3067     1  0.0000000  0.6508444  3
   3045   3052   3055   3064     1  0.0000000  0.6508444  3
   3046   3045   3049   3061     1  180.0000771  2.0083200  2
   3046   3045   3049   3061     1  0.0000000  1.2552000  3
   3046   3045   3052   3055     1  180.0000771  2.0083200  2
   3046   3045   3052   3055     1  0.0000000  1.2552000  3
   3046   3058   3070   6205     1  0.0000000  0.6508444  3
   3049   3045   3046   3058     1  180.0000771  2.0083200  2
   3049   3045   3046   3058     1  0.0000000  1.2552000  3
   3049   3045   3052   3055     1  180.0000771  2.0083200  2
   3049   3045   3052   3055     1  0.0000000  1.2552000  3
   3049   3061   3067   6176     1  0.0000000  0.6508444  3
   3052   3045   3046   3058     1  180.0000771  2.0083200  2
   3052   3045   3046   3058     1  0.0000000  1.2552000  3
   3052   3045   3049   3061     1  180.0000771  2.0083200  2
   3052   3045   3049   3061     1  0.0000000  1.2552000  3
   3052   3055   3064   3073     1  0.0000000  0.6508444  3
   3058   3070   6205   6177     1  180.0000771  0.4184000  2
   3058   3070   6205   6177     1  0.0000000  1.6024720  3
   3061   3067   6176   6148     1  180.0000771  0.4184000  2
   3061   3067   6176   6148     1  0.0000000  1.6024720  3
   3067   6176   6148   6151     1  180.0000771  0.4184000  2
   3067   6176   6148   6151     1  0.0000000  1.6024720  3
   3070   6205   6177   6180     1  180.0000771  0.4184000  2
   3070   6205   6177   6180     1  0.0000000  1.6024720  3
   3074   3075   3087   3099     1  0.0000000  0.6508444  3
   3074   3078   3090   3096     1  0.0000000  0.6508444  3
   3074   3081   3084   3093     1  0.0000000  0.6508444  3
   3075   3074   3078   3090     1  180.0000771  2.0083200  2
   3075   3074   3078   3090     1  0.0000000  1.2552000  3
   3075   3074   3081   3084     1  180.0000771  2.0083200  2
   3075   3074   3081   3084     1  0.0000000  1.2552000  3
   3075   3087   3099   6263     1  0.0000000  0.6508444  3
   3078   3074   3075   3087     1  180.0000771  2.0083200  2
   3078   3074   3075   3087     1  0.0000000  1.2552000  3
   3078   3074   3081   3084     1  180.0000771  2.0083200  2
   3078   3074   3081   3084     1  0.0000000  1.2552000  3
   3078   3090   3096   6234     1  0.0000000  0.6508444  3
   3081   3074   3075   3087     1  180.0000771  2.0083200  2
   3081   3074   3075   3087     1  0.0000000  1.2552000  3
   3081   3074   3078   3090     1  180.0000771  2.0083200  2
   3081   3074   3078   3090     1  0.0000000  1.2552000  3
   3081   3084   3093   3102     1  0.0000000  0.6508444  3
   3087   3099   6263   6235     1  180.0000771  0.4184000  2
   3087   3099   6263   6235     1  0.0000000  1.6024720  3
   3090   3096   6234   6206     1  180.0000771  0.4184000  2
   3090   3096   6234   6206     1  0.0000000  1.6024720  3
   3096   6234   6206   6209     1  180.0000771  0.4184000  2
   3096   6234   6206   6209     1  0.0000000  1.6024720  3
   3099   6263   6235   6238     1  180.0000771  0.4184000  2
   3099   6263   6235   6238     1  0.0000000  1.6024720  3
   3103   3104   3116   3128     1  0.0000000  0.6508444  3
   3103   3107   3119   3125     1  0.0000000  0.6508444  3
   3103   3110   3113   3122     1  0.0000000  0.6508444  3
   3104   3103   3107   3119     1  180.0000771  2.0083200  2
   3104   3103   3107   3119     1  0.0000000  1.2552000  3
   3104   3103   3110   3113     1  180.0000771  2.0083200  2
   3104   3103   3110   3113     1  0.0000000  1.2552000  3
   3104   3116   3128   6321     1  0.0000000  0.6508444  3
   3107   3103   3104   3116     1  180.0000771  2.0083200  2
   3107   3103   3104   3116     1  0.0000000  1.2552000  3
   3107   3103   3110   3113     1  180.0000771  2.0083200  2
   3107   3103   3110   3113     1  0.0000000  1.2552000  3
   3107   3119   3125   6292     1  0.0000000  0.6508444  3
   3110   3103   3104   3116     1  180.0000771  2.0083200  2
   3110   3103   3104   3116     1  0.0000000  1.2552000  3
   3110   3103   3107   3119     1  180.0000771  2.0083200  2
   3110   3103   3107   3119     1  0.0000000  1.2552000  3
   3110   3113   3122   3131     1  0.0000000  0.6508444  3
   3116   3128   6321   6293     1  180.0000771  0.4184000  2
   3116   3128   6321   6293     1  0.0000000  1.6024720  3
   3119   3125   6292   6264     1  180.0000771  0.4184000  2
   3119   3125   6292   6264     1  0.0000000  1.6024720  3
   3125   6292   6264   6267     1  180.0000771  0.4184000  2
   3125   6292   6264   6267     1  0.0000000  1.6024720  3
   3128   6321   6293   6296     1  180.0000771  0.4184000  2
   3128   6321   6293   6296     1  0.0000000  1.6024720  3
   3132   3133   3145   3157     1  0.0000000  0.6508444  3
   3132   3136   3148   3154     1  0.0000000  0.6508444  3
   3132   3139   3142   3151     1  0.0000000  0.6508444  3
   3133   3132   3136   3148     1  180.0000771  2.0083200  2
   3133   3132   3136   3148     1  0.0000000  1.2552000  3
   3133   3132   3139   3142     1  180.0000771  2.0083200  2
   3133   3132   3139   3142     1  0.0000000  1.2552000  3
   3133   3145   3157   6379     1  0.0000000  0.6508444  3
   3136   3132   3133   3145     1  180.0000771  2.0083200  2
   3136   3132   3133   3145     1  0.0000000  1.2552000  3
   3136   3132   3139   3142     1  180.0000771  2.0083200  2
   3136   3132   3139   3142     1  0.0000000  1.2552000  3
   3136   3148   3154   6350     1  0.0000000  0.6508444  3
   3139   3132   3133   3145     1  180.0000771  2.0083200  2
   3139   3132   3133   3145     1  0.0000000  1.2552000  3
   3139   3132   3136   3148     1  180.0000771  2.0083200  2
   3139   3132   3136   3148     1  0.0000000  1.2552000  3
   3139   3142   3151   3160     1  0.0000000  0.6508444  3
   3145   3157   6379   6351     1  180.0000771  0.4184000  2
   3145   3157   6379   6351     1  0.0000000  1.6024720  3
   3148   3154   6350   6322     1  180.0000771  0.4184000  2
   3148   3154   6350   6322     1  0.0000000  1.6024720  3
   3154   6350   6322   6325     1  180.0000771  0.4184000  2
   3154   6350   6322   6325     1  0.0000000  1.6024720  3
   3157   6379   6351   6354     1  180.0000771  0.4184000  2
   3157   6379   6351   6354     1  0.0000000  1.6024720  3
   3161   3162   3174   3186     1  0.0000000  0.6508444  3
   3161   3165   3177   3183     1  0.0000000  0.6508444  3
   3161   3168   3171   3180     1  0.0000000  0.6508444  3
   3162   3161   3165   3177     1  180.0000771  2.0083200  2
   3162   3161   3165   3177     1  0.0000000  1.2552000  3
   3162   3161   3168   3171     1  180.0000771  2.0083200  2
   3162   3161   3168   3171     1  0.0000000  1.2552000  3
   3162   3174   3186   6437     1  0.0000000  0.6508444  3
   3165   3161   3162   3174     1  180.0000771  2.0083200  2
   3165   3161   3162   3174     1  0.0000000  1.2552000  3
   3165   3161   3168   3171     1  180.0000771  2.0083200  2
   3165   3161   3168   3171     1  0.0000000  1.2552000  3
   3165   3177   3183   6408     1  0.0000000  0.6508444  3
   3168   3161   3162   3174     1  180.0000771  2.0083200  2
   3168   3161   3162   3174     1  0.0000000  1.2552000  3
   3168   3161   3165   3177     1  180.0000771  2.0083200  2
   3168   3161   3165   3177     1  0.0000000  1.2552000  3
   3168   3171   3180   3189     1  0.0000000  0.6508444  3
   3174   3186   6437   6409     1  180.0000771  0.4184000  2
   3174   3186   6437   6409     1  0.0000000  1.6024720  3
   3177   3183   6408   6380     1  180.0000771  0.4184000  2
   3177   3183   6408   6380     1  0.0000000  1.6024720  3
   3183   6408   6380   6383     1  180.0000771  0.4184000  2
   3183   6408   6380   6383     1  0.0000000  1.6024720  3
   3186   6437   6409   6412     1  180.0000771  0.4184000  2
   3186   6437   6409   6412     1  0.0000000  1.6024720  3
   3190   3191   3203   3215     1  0.0000000  0.6508444  3
   3190   3194   3206   3212     1  0.0000000  0.6508444  3
   3190   3197   3200   3209     1  0.0000000  0.6508444  3
   3191   3190   3194   3206     1  180.0000771  2.0083200  2
   3191   3190   3194   3206     1  0.0000000  1.2552000  3
   3191   3190   3197   3200     1  180.0000771  2.0083200  2
   3191   3190   3197   3200     1  0.0000000  1.2552000  3
   3191   3203   3215   6495     1  0.0000000  0.6508444  3
   3194   3190   3191   3203     1  180.0000771  2.0083200  2
   3194   3190   3191   3203     1  0.0000000  1.2552000  3
   3194   3190   3197   3200     1  180.0000771  2.0083200  2
   3194   3190   3197   3200     1  0.0000000  1.2552000  3
   3194   3206   3212   6466     1  0.0000000  0.6508444  3
   3197   3190   3191   3203     1  180.0000771  2.0083200  2
   3197   3190   3191   3203     1  0.0000000  1.2552000  3
   3197   3190   3194   3206     1  180.0000771  2.0083200  2
   3197   3190   3194   3206     1  0.0000000  1.2552000  3
   3197   3200   3209   3218     1  0.0000000  0.6508444  3
   3203   3215   6495   6467     1  180.0000771  0.4184000  2
   3203   3215   6495   6467     1  0.0000000  1.6024720  3
   3206   3212   6466   6438     1  180.0000771  0.4184000  2
   3206   3212   6466   6438     1  0.0000000  1.6024720  3
   3212   6466   6438   6441     1  180.0000771  0.4184000  2
   3212   6466   6438   6441     1  0.0000000  1.6024720  3
   3215   6495   6467   6470     1  180.0000771  0.4184000  2
   3215   6495   6467   6470     1  0.0000000  1.6024720  3
   3219   3220   3232   3244     1  0.0000000  0.6508444  3
   3219   3223   3235   3241     1  0.0000000  0.6508444  3
   3219   3226   3229   3238     1  0.0000000  0.6508444  3
   3220   3219   3223   3235     1  180.0000771  2.0083200  2
   3220   3219   3223   3235     1  0.0000000  1.2552000  3
   3220   3219   3226   3229     1  180.0000771  2.0083200  2
   3220   3219   3226   3229     1  0.0000000  1.2552000  3
   3220   3232   3244   6553     1  0.0000000  0.6508444  3
   3223   3219   3220   3232     1  180.0000771  2.0083200  2
   3223   3219   3220   3232     1  0.0000000  1.2552000  3
   3223   3219   3226   3229     1  180.0000771  2.0083200  2
   3223   3219   3226   3229     1  0.0000000  1.2552000  3
   3223   3235   3241   6524     1  0.0000000  0.6508444  3
   3226   3219   3220   3232     1  180.0000771  2.0083200  2
   3226   3219   3220   3232     1  0.0000000  1.2552000  3
   3226   3219   3223   3235     1  180.0000771  2.0083200  2
   3226   3219   3223   3235     1  0.0000000  1.2552000  3
   3226   3229   3238   3247     1  0.0000000  0.6508444  3
   3232   3244   6553   6525     1  180.0000771  0.4184000  2
   3232   3244   6553   6525     1  0.0000000  1.6024720  3
   3235   3241   6524   6496     1  180.0000771  0.4184000  2
   3235   3241   6524   6496     1  0.0000000  1.6024720  3
   3241   6524   6496   6499     1  180.0000771  0.4184000  2
   3241   6524   6496   6499     1  0.0000000  1.6024720  3
   3244   6553   6525   6528     1  180.0000771  0.4184000  2
   3244   6553   6525   6528     1  0.0000000  1.6024720  3
   3248   3249   3261   3273     1  0.0000000  0.6508444  3
   3248   3252   3264   3270     1  0.0000000  0.6508444  3
   3248   3255   3258   3267     1  0.0000000  0.6508444  3
   3249   3248   3252   3264     1  180.0000771  2.0083200  2
   3249   3248   3252   3264     1  0.0000000  1.2552000  3
   3249   3248   3255   3258     1  180.0000771  2.0083200  2
   3249   3248   3255   3258     1  0.0000000  1.2552000  3
   3249   3261   3273   6611     1  0.0000000  0.6508444  3
   3252   3248   3249   3261     1  180.0000771  2.0083200  2
   3252   3248   3249   3261     1  0.0000000  1.2552000  3
   3252   3248   3255   3258     1  180.0000771  2.0083200  2
   3252   3248   3255   3258     1  0.0000000  1.2552000  3
   3252   3264   3270   6582     1  0.0000000  0.6508444  3
   3255   3248   3249   3261     1  180.0000771  2.0083200  2
   3255   3248   3249   3261     1  0.0000000  1.2552000  3
   3255   3248   3252   3264     1  180.0000771  2.0083200  2
   3255   3248   3252   3264     1  0.0000000  1.2552000  3
   3255   3258   3267   3276     1  0.0000000  0.6508444  3
   3261   3273   6611   6583     1  180.0000771  0.4184000  2
   3261   3273   6611   6583     1  0.0000000  1.6024720  3
   3264   3270   6582   6554     1  180.0000771  0.4184000  2
   3264   3270   6582   6554     1  0.0000000  1.6024720  3
   3270   6582   6554   6557     1  180.0000771  0.4184000  2
   3270   6582   6554   6557     1  0.0000000  1.6024720  3
   3273   6611   6583   6586     1  180.0000771  0.4184000  2
   3273   6611   6583   6586     1  0.0000000  1.6024720  3
   3277   3278   3290   3302     1  0.0000000  0.6508444  3
   3277   3281   3293   3299     1  0.0000000  0.6508444  3
   3277   3284   3287   3296     1  0.0000000  0.6508444  3
   3278   3277   3281   3293     1  180.0000771  2.0083200  2
   3278   3277   3281   3293     1  0.0000000  1.2552000  3
   3278   3277   3284   3287     1  180.0000771  2.0083200  2
   3278   3277   3284   3287     1  0.0000000  1.2552000  3
   3278   3290   3302   6669     1  0.0000000  0.6508444  3
   3281   3277   3278   3290     1  180.0000771  2.0083200  2
   3281   3277   3278   3290     1  0.0000000  1.2552000  3
   3281   3277   3284   3287     1  180.0000771  2.0083200  2
   3281   3277   3284   3287     1  0.0000000  1.2552000  3
   3281   3293   3299   6640     1  0.0000000  0.6508444  3
   3284   3277   3278   3290     1  180.0000771  2.0083200  2
   3284   3277   3278   3290     1  0.0000000  1.2552000  3
   3284   3277   3281   3293     1  180.0000771  2.0083200  2
   3284   3277   3281   3293     1  0.0000000  1.2552000  3
   3284   3287   3296   3305     1  0.0000000  0.6508444  3
   3290   3302   6669   6641     1  180.0000771  0.4184000  2
   3290   3302   6669   6641     1  0.0000000  1.6024720  3
   3293   3299   6640   6612     1  180.0000771  0.4184000  2
   3293   3299   6640   6612     1  0.0000000  1.6024720  3
   3299   6640   6612   6615     1  180.0000771  0.4184000  2
   3299   6640   6612   6615     1  0.0000000  1.6024720  3
   3302   6669   6641   6644     1  180.0000771  0.4184000  2
   3302   6669   6641   6644     1  0.0000000  1.6024720  3
   3306   3307   3319   3331     1  0.0000000  0.6508444  3
   3306   3310   3322   3328     1  0.0000000  0.6508444  3
   3306   3313   3316   3325     1  0.0000000  0.6508444  3
   3307   3306   3310   3322     1  180.0000771  2.0083200  2
   3307   3306   3310   3322     1  0.0000000  1.2552000  3
   3307   3306   3313   3316     1  180.0000771  2.0083200  2
   3307   3306   3313   3316     1  0.0000000  1.2552000  3
   3307   3319   3331   6727     1  0.0000000  0.6508444  3
   3310   3306   3307   3319     1  180.0000771  2.0083200  2
   3310   3306   3307   3319     1  0.0000000  1.2552000  3
   3310   3306   3313   3316     1  180.0000771  2.0083200  2
   3310   3306   3313   3316     1  0.0000000  1.2552000  3
   3310   3322   3328   6698     1  0.0000000  0.6508444  3
   3313   3306   3307   3319     1  180.0000771  2.0083200  2
   3313   3306   3307   3319     1  0.0000000  1.2552000  3
   3313   3306   3310   3322     1  180.0000771  2.0083200  2
   3313   3306   3310   3322     1  0.0000000  1.2552000  3
   3313   3316   3325   3334     1  0.0000000  0.6508444  3
   3319   3331   6727   6699     1  180.0000771  0.4184000  2
   3319   3331   6727   6699     1  0.0000000  1.6024720  3
   3322   3328   6698   6670     1  180.0000771  0.4184000  2
   3322   3328   6698   6670     1  0.0000000  1.6024720  3
   3328   6698   6670   6673     1  180.0000771  0.4184000  2
   3328   6698   6670   6673     1  0.0000000  1.6024720  3
   3331   6727   6699   6702     1  180.0000771  0.4184000  2
   3331   6727   6699   6702     1  0.0000000  1.6024720  3
   3335   3336   3348   3360     1  0.0000000  0.6508444  3
   3335   3339   3351   3357     1  0.0000000  0.6508444  3
   3335   3342   3345   3354     1  0.0000000  0.6508444  3
   3336   3335   3339   3351     1  180.0000771  2.0083200  2
   3336   3335   3339   3351     1  0.0000000  1.2552000  3
   3336   3335   3342   3345     1  180.0000771  2.0083200  2
   3336   3335   3342   3345     1  0.0000000  1.2552000  3
   3336   3348   3360   6785     1  0.0000000  0.6508444  3
   3339   3335   3336   3348     1  180.0000771  2.0083200  2
   3339   3335   3336   3348     1  0.0000000  1.2552000  3
   3339   3335   3342   3345     1  180.0000771  2.0083200  2
   3339   3335   3342   3345     1  0.0000000  1.2552000  3
   3339   3351   3357   6756     1  0.0000000  0.6508444  3
   3342   3335   3336   3348     1  180.0000771  2.0083200  2
   3342   3335   3336   3348     1  0.0000000  1.2552000  3
   3342   3335   3339   3351     1  180.0000771  2.0083200  2
   3342   3335   3339   3351     1  0.0000000  1.2552000  3
   3342   3345   3354   3363     1  0.0000000  0.6508444  3
   3348   3360   6785   6757     1  180.0000771  0.4184000  2
   3348   3360   6785   6757     1  0.0000000  1.6024720  3
   3351   3357   6756   6728     1  180.0000771  0.4184000  2
   3351   3357   6756   6728     1  0.0000000  1.6024720  3
   3357   6756   6728   6731     1  180.0000771  0.4184000  2
   3357   6756   6728   6731     1  0.0000000  1.6024720  3
   3360   6785   6757   6760     1  180.0000771  0.4184000  2
   3360   6785   6757   6760     1  0.0000000  1.6024720  3
   3364   3365   3377   3389     1  0.0000000  0.6508444  3
   3364   3368   3380   3386     1  0.0000000  0.6508444  3
   3364   3371   3374   3383     1  0.0000000  0.6508444  3
   3365   3364   3368   3380     1  180.0000771  2.0083200  2
   3365   3364   3368   3380     1  0.0000000  1.2552000  3
   3365   3364   3371   3374     1  180.0000771  2.0083200  2
   3365   3364   3371   3374     1  0.0000000  1.2552000  3
   3365   3377   3389   6843     1  0.0000000  0.6508444  3
   3368   3364   3365   3377     1  180.0000771  2.0083200  2
   3368   3364   3365   3377     1  0.0000000  1.2552000  3
   3368   3364   3371   3374     1  180.0000771  2.0083200  2
   3368   3364   3371   3374     1  0.0000000  1.2552000  3
   3368   3380   3386   6814     1  0.0000000  0.6508444  3
   3371   3364   3365   3377     1  180.0000771  2.0083200  2
   3371   3364   3365   3377     1  0.0000000  1.2552000  3
   3371   3364   3368   3380     1  180.0000771  2.0083200  2
   3371   3364   3368   3380     1  0.0000000  1.2552000  3
   3371   3374   3383   3392     1  0.0000000  0.6508444  3
   3377   3389   6843   6815     1  180.0000771  0.4184000  2
   3377   3389   6843   6815     1  0.0000000  1.6024720  3
   3380   3386   6814   6786     1  180.0000771  0.4184000  2
   3380   3386   6814   6786     1  0.0000000  1.6024720  3
   3386   6814   6786   6789     1  180.0000771  0.4184000  2
   3386   6814   6786   6789     1  0.0000000  1.6024720  3
   3389   6843   6815   6818     1  180.0000771  0.4184000  2
   3389   6843   6815   6818     1  0.0000000  1.6024720  3
   3393   3394   3406   3418     1  0.0000000  0.6508444  3
   3393   3397   3409   3415     1  0.0000000  0.6508444  3
   3393   3400   3403   3412     1  0.0000000  0.6508444  3
   3394   3393   3397   3409     1  180.0000771  2.0083200  2
   3394   3393   3397   3409     1  0.0000000  1.2552000  3
   3394   3393   3400   3403     1  180.0000771  2.0083200  2
   3394   3393   3400   3403     1  0.0000000  1.2552000  3
   3394   3406   3418   6901     1  0.0000000  0.6508444  3
   3397   3393   3394   3406     1  180.0000771  2.0083200  2
   3397   3393   3394   3406     1  0.0000000  1.2552000  3
   3397   3393   3400   3403     1  180.0000771  2.0083200  2
   3397   3393   3400   3403     1  0.0000000  1.2552000  3
   3397   3409   3415   6872     1  0.0000000  0.6508444  3
   3400   3393   3394   3406     1  180.0000771  2.0083200  2
   3400   3393   3394   3406     1  0.0000000  1.2552000  3
   3400   3393   3397   3409     1  180.0000771  2.0083200  2
   3400   3393   3397   3409     1  0.0000000  1.2552000  3
   3400   3403   3412   3421     1  0.0000000  0.6508444  3
   3406   3418   6901   6873     1  180.0000771  0.4184000  2
   3406   3418   6901   6873     1  0.0000000  1.6024720  3
   3409   3415   6872   6844     1  180.0000771  0.4184000  2
   3409   3415   6872   6844     1  0.0000000  1.6024720  3
   3415   6872   6844   6847     1  180.0000771  0.4184000  2
   3415   6872   6844   6847     1  0.0000000  1.6024720  3
   3418   6901   6873   6876     1  180.0000771  0.4184000  2
   3418   6901   6873   6876     1  0.0000000  1.6024720  3
   3422   3423   3435   3447     1  0.0000000  0.6508444  3
   3422   3426   3438   3444     1  0.0000000  0.6508444  3
   3422   3429   3432   3441     1  0.0000000  0.6508444  3
   3423   3422   3426   3438     1  180.0000771  2.0083200  2
   3423   3422   3426   3438     1  0.0000000  1.2552000  3
   3423   3422   3429   3432     1  180.0000771  2.0083200  2
   3423   3422   3429   3432     1  0.0000000  1.2552000  3
   3423   3435   3447   6959     1  0.0000000  0.6508444  3
   3426   3422   3423   3435     1  180.0000771  2.0083200  2
   3426   3422   3423   3435     1  0.0000000  1.2552000  3
   3426   3422   3429   3432     1  180.0000771  2.0083200  2
   3426   3422   3429   3432     1  0.0000000  1.2552000  3
   3426   3438   3444   6930     1  0.0000000  0.6508444  3
   3429   3422   3423   3435     1  180.0000771  2.0083200  2
   3429   3422   3423   3435     1  0.0000000  1.2552000  3
   3429   3422   3426   3438     1  180.0000771  2.0083200  2
   3429   3422   3426   3438     1  0.0000000  1.2552000  3
   3429   3432   3441   3450     1  0.0000000  0.6508444  3
   3435   3447   6959   6931     1  180.0000771  0.4184000  2
   3435   3447   6959   6931     1  0.0000000  1.6024720  3
   3438   3444   6930   6902     1  180.0000771  0.4184000  2
   3438   3444   6930   6902     1  0.0000000  1.6024720  3
   3444   6930   6902   6905     1  180.0000771  0.4184000  2
   3444   6930   6902   6905     1  0.0000000  1.6024720  3
   3447   6959   6931   6934     1  180.0000771  0.4184000  2
   3447   6959   6931   6934     1  0.0000000  1.6024720  3
   3451   3452   3464   3476     1  0.0000000  0.6508444  3
   3451   3455   3467   3473     1  0.0000000  0.6508444  3
   3451   3458   3461   3470     1  0.0000000  0.6508444  3
   3452   3451   3455   3467     1  180.0000771  2.0083200  2
   3452   3451   3455   3467     1  0.0000000  1.2552000  3
   3452   3451   3458   3461     1  180.0000771  2.0083200  2
   3452   3451   3458   3461     1  0.0000000  1.2552000  3
   3452   3464   3476   7017     1  0.0000000  0.6508444  3
   3455   3451   3452   3464     1  180.0000771  2.0083200  2
   3455   3451   3452   3464     1  0.0000000  1.2552000  3
   3455   3451   3458   3461     1  180.0000771  2.0083200  2
   3455   3451   3458   3461     1  0.0000000  1.2552000  3
   3455   3467   3473   6988     1  0.0000000  0.6508444  3
   3458   3451   3452   3464     1  180.0000771  2.0083200  2
   3458   3451   3452   3464     1  0.0000000  1.2552000  3
   3458   3451   3455   3467     1  180.0000771  2.0083200  2
   3458   3451   3455   3467     1  0.0000000  1.2552000  3
   3458   3461   3470   3479     1  0.0000000  0.6508444  3
   3464   3476   7017   6989     1  180.0000771  0.4184000  2
   3464   3476   7017   6989     1  0.0000000  1.6024720  3
   3467   3473   6988   6960     1  180.0000771  0.4184000  2
   3467   3473   6988   6960     1  0.0000000  1.6024720  3
   3473   6988   6960   6963     1  180.0000771  0.4184000  2
   3473   6988   6960   6963     1  0.0000000  1.6024720  3
   3476   7017   6989   6992     1  180.0000771  0.4184000  2
   3476   7017   6989   6992     1  0.0000000  1.6024720  3
   3480   3481   3493   3505     1  0.0000000  0.6508444  3
   3480   3484   3496   3502     1  0.0000000  0.6508444  3
   3480   3487   3490   3499     1  0.0000000  0.6508444  3
   3481   3480   3484   3496     1  180.0000771  2.0083200  2
   3481   3480   3484   3496     1  0.0000000  1.2552000  3
   3481   3480   3487   3490     1  180.0000771  2.0083200  2
   3481   3480   3487   3490     1  0.0000000  1.2552000  3
   3481   3493   3505   7075     1  0.0000000  0.6508444  3
   3484   3480   3481   3493     1  180.0000771  2.0083200  2
   3484   3480   3481   3493     1  0.0000000  1.2552000  3
   3484   3480   3487   3490     1  180.0000771  2.0083200  2
   3484   3480   3487   3490     1  0.0000000  1.2552000  3
   3484   3496   3502   7046     1  0.0000000  0.6508444  3
   3487   3480   3481   3493     1  180.0000771  2.0083200  2
   3487   3480   3481   3493     1  0.0000000  1.2552000  3
   3487   3480   3484   3496     1  180.0000771  2.0083200  2
   3487   3480   3484   3496     1  0.0000000  1.2552000  3
   3487   3490   3499   3508     1  0.0000000  0.6508444  3
   3493   3505   7075   7047     1  180.0000771  0.4184000  2
   3493   3505   7075   7047     1  0.0000000  1.6024720  3
   3496   3502   7046   7018     1  180.0000771  0.4184000  2
   3496   3502   7046   7018     1  0.0000000  1.6024720  3
   3502   7046   7018   7021     1  180.0000771  0.4184000  2
   3502   7046   7018   7021     1  0.0000000  1.6024720  3
   3505   7075   7047   7050     1  180.0000771  0.4184000  2
   3505   7075   7047   7050     1  0.0000000  1.6024720  3
   3509   3510   3522   3534     1  0.0000000  0.6508444  3
   3509   3513   3525   3531     1  0.0000000  0.6508444  3
   3509   3516   3519   3528     1  0.0000000  0.6508444  3
   3510   3509   3513   3525     1  180.0000771  2.0083200  2
   3510   3509   3513   3525     1  0.0000000  1.2552000  3
   3510   3509   3516   3519     1  180.0000771  2.0083200  2
   3510   3509   3516   3519     1  0.0000000  1.2552000  3
   3510   3522   3534   7133     1  0.0000000  0.6508444  3
   3513   3509   3510   3522     1  180.0000771  2.0083200  2
   3513   3509   3510   3522     1  0.0000000  1.2552000  3
   3513   3509   3516   3519     1  180.0000771  2.0083200  2
   3513   3509   3516   3519     1  0.0000000  1.2552000  3
   3513   3525   3531   7104     1  0.0000000  0.6508444  3
   3516   3509   3510   3522     1  180.0000771  2.0083200  2
   3516   3509   3510   3522     1  0.0000000  1.2552000  3
   3516   3509   3513   3525     1  180.0000771  2.0083200  2
   3516   3509   3513   3525     1  0.0000000  1.2552000  3
   3516   3519   3528   3537     1  0.0000000  0.6508444  3
   3522   3534   7133   7105     1  180.0000771  0.4184000  2
   3522   3534   7133   7105     1  0.0000000  1.6024720  3
   3525   3531   7104   7076     1  180.0000771  0.4184000  2
   3525   3531   7104   7076     1  0.0000000  1.6024720  3
   3531   7104   7076   7079     1  180.0000771  0.4184000  2
   3531   7104   7076   7079     1  0.0000000  1.6024720  3
   3534   7133   7105   7108     1  180.0000771  0.4184000  2
   3534   7133   7105   7108     1  0.0000000  1.6024720  3
   3538   3539   3551   3563     1  0.0000000  0.6508444  3
   3538   3542   3554   3560     1  0.0000000  0.6508444  3
   3538   3545   3548   3557     1  0.0000000  0.6508444  3
   3539   3538   3542   3554     1  180.0000771  2.0083200  2
   3539   3538   3542   3554     1  0.0000000  1.2552000  3
   3539   3538   3545   3548     1  180.0000771  2.0083200  2
   3539   3538   3545   3548     1  0.0000000  1.2552000  3
   3539   3551   3563   7191     1  0.0000000  0.6508444  3
   3542   3538   3539   3551     1  180.0000771  2.0083200  2
   3542   3538   3539   3551     1  0.0000000  1.2552000  3
   3542   3538   3545   3548     1  180.0000771  2.0083200  2
   3542   3538   3545   3548     1  0.0000000  1.2552000  3
   3542   3554   3560   7162     1  0.0000000  0.6508444  3
   3545   3538   3539   3551     1  180.0000771  2.0083200  2
   3545   3538   3539   3551     1  0.0000000  1.2552000  3
   3545   3538   3542   3554     1  180.0000771  2.0083200  2
   3545   3538   3542   3554     1  0.0000000  1.2552000  3
   3545   3548   3557   3566     1  0.0000000  0.6508444  3
   3551   3563   7191   7163     1  180.0000771  0.4184000  2
   3551   3563   7191   7163     1  0.0000000  1.6024720  3
   3554   3560   7162   7134     1  180.0000771  0.4184000  2
   3554   3560   7162   7134     1  0.0000000  1.6024720  3
   3560   7162   7134   7137     1  180.0000771  0.4184000  2
   3560   7162   7134   7137     1  0.0000000  1.6024720  3
   3563   7191   7163   7166     1  180.0000771  0.4184000  2
   3563   7191   7163   7166     1  0.0000000  1.6024720  3
   3567   3568   3580   3592     1  0.0000000  0.6508444  3
   3567   3571   3583   3589     1  0.0000000  0.6508444  3
   3567   3574   3577   3586     1  0.0000000  0.6508444  3
   3568   3567   3571   3583     1  180.0000771  2.0083200  2
   3568   3567   3571   3583     1  0.0000000  1.2552000  3
   3568   3567   3574   3577     1  180.0000771  2.0083200  2
   3568   3567   3574   3577     1  0.0000000  1.2552000  3
   3568   3580   3592   7249     1  0.0000000  0.6508444  3
   3571   3567   3568   3580     1  180.0000771  2.0083200  2
   3571   3567   3568   3580     1  0.0000000  1.2552000  3
   3571   3567   3574   3577     1  180.0000771  2.0083200  2
   3571   3567   3574   3577     1  0.0000000  1.2552000  3
   3571   3583   3589   7220     1  0.0000000  0.6508444  3
   3574   3567   3568   3580     1  180.0000771  2.0083200  2
   3574   3567   3568   3580     1  0.0000000  1.2552000  3
   3574   3567   3571   3583     1  180.0000771  2.0083200  2
   3574   3567   3571   3583     1  0.0000000  1.2552000  3
   3574   3577   3586   3595     1  0.0000000  0.6508444  3
   3580   3592   7249   7221     1  180.0000771  0.4184000  2
   3580   3592   7249   7221     1  0.0000000  1.6024720  3
   3583   3589   7220   7192     1  180.0000771  0.4184000  2
   3583   3589   7220   7192     1  0.0000000  1.6024720  3
   3589   7220   7192   7195     1  180.0000771  0.4184000  2
   3589   7220   7192   7195     1  0.0000000  1.6024720  3
   3592   7249   7221   7224     1  180.0000771  0.4184000  2
   3592   7249   7221   7224     1  0.0000000  1.6024720  3
   3596   3597   3609   3621     1  0.0000000  0.6508444  3
   3596   3600   3612   3618     1  0.0000000  0.6508444  3
   3596   3603   3606   3615     1  0.0000000  0.6508444  3
   3597   3596   3600   3612     1  180.0000771  2.0083200  2
   3597   3596   3600   3612     1  0.0000000  1.2552000  3
   3597   3596   3603   3606     1  180.0000771  2.0083200  2
   3597   3596   3603   3606     1  0.0000000  1.2552000  3
   3597   3609   3621   7307     1  0.0000000  0.6508444  3
   3600   3596   3597   3609     1  180.0000771  2.0083200  2
   3600   3596   3597   3609     1  0.0000000  1.2552000  3
   3600   3596   3603   3606     1  180.0000771  2.0083200  2
   3600   3596   3603   3606     1  0.0000000  1.2552000  3
   3600   3612   3618   7278     1  0.0000000  0.6508444  3
   3603   3596   3597   3609     1  180.0000771  2.0083200  2
   3603   3596   3597   3609     1  0.0000000  1.2552000  3
   3603   3596   3600   3612     1  180.0000771  2.0083200  2
   3603   3596   3600   3612     1  0.0000000  1.2552000  3
   3603   3606   3615   3624     1  0.0000000  0.6508444  3
   3609   3621   7307   7279     1  180.0000771  0.4184000  2
   3609   3621   7307   7279     1  0.0000000  1.6024720  3
   3612   3618   7278   7250     1  180.0000771  0.4184000  2
   3612   3618   7278   7250     1  0.0000000  1.6024720  3
   3618   7278   7250   7253     1  180.0000771  0.4184000  2
   3618   7278   7250   7253     1  0.0000000  1.6024720  3
   3621   7307   7279   7282     1  180.0000771  0.4184000  2
   3621   7307   7279   7282     1  0.0000000  1.6024720  3
   3625   3626   3638   3650     1  0.0000000  0.6508444  3
   3625   3629   3641   3647     1  0.0000000  0.6508444  3
   3625   3632   3635   3644     1  0.0000000  0.6508444  3
   3626   3625   3629   3641     1  180.0000771  2.0083200  2
   3626   3625   3629   3641     1  0.0000000  1.2552000  3
   3626   3625   3632   3635     1  180.0000771  2.0083200  2
   3626   3625   3632   3635     1  0.0000000  1.2552000  3
   3626   3638   3650   7365     1  0.0000000  0.6508444  3
   3629   3625   3626   3638     1  180.0000771  2.0083200  2
   3629   3625   3626   3638     1  0.0000000  1.2552000  3
   3629   3625   3632   3635     1  180.0000771  2.0083200  2
   3629   3625   3632   3635     1  0.0000000  1.2552000  3
   3629   3641   3647   7336     1  0.0000000  0.6508444  3
   3632   3625   3626   3638     1  180.0000771  2.0083200  2
   3632   3625   3626   3638     1  0.0000000  1.2552000  3
   3632   3625   3629   3641     1  180.0000771  2.0083200  2
   3632   3625   3629   3641     1  0.0000000  1.2552000  3
   3632   3635   3644   3653     1  0.0000000  0.6508444  3
   3638   3650   7365   7337     1  180.0000771  0.4184000  2
   3638   3650   7365   7337     1  0.0000000  1.6024720  3
   3641   3647   7336   7308     1  180.0000771  0.4184000  2
   3641   3647   7336   7308     1  0.0000000  1.6024720  3
   3647   7336   7308   7311     1  180.0000771  0.4184000  2
   3647   7336   7308   7311     1  0.0000000  1.6024720  3
   3650   7365   7337   7340     1  180.0000771  0.4184000  2
   3650   7365   7337   7340     1  0.0000000  1.6024720  3
   3654   3657   3660   3663     1  0.0000000  0.6508444  3
   3657   3660   3663   3664     1  180.0000771  2.0083200  2
   3657   3660   3663   3664     1  0.0000000  1.2552000  3
   3657   3660   3663   3673     1  180.0000771  2.0083200  2
   3657   3660   3663   3673     1  0.0000000  1.2552000  3
   3660   3657   3654   3682     1  0.0000000  0.6508444  3
   3660   3663   3664   3667     1  180.0000771  2.0083200  2
   3660   3663   3664   3667     1  0.0000000  1.2552000  3
   3660   3663   3673   3676     1  180.0000771  2.0083200  2
   3660   3663   3673   3676     1  0.0000000  1.2552000  3
   3663   3664   3667   3670     1  0.0000000  0.6508444  3
   3663   3673   3676   3679     1  0.0000000  0.6508444  3
   3664   3663   3673   3676     1  180.0000771  2.0083200  2
   3664   3663   3673   3676     1  0.0000000  1.2552000  3
   3664   3667   3670   3671     1  180.0000771  0.0000000  2
   3664   3667   3670   3672     1  180.0000771  0.0000000  2
   3667   3664   3663   3673     1  180.0000771  2.0083200  2
   3667   3664   3663   3673     1  0.0000000  1.2552000  3
   3673   3676   3679   3680     1  180.0000771  0.0000000  2
   3673   3676   3679   3681     1  180.0000771  0.0000000  2
   3683   3686   3689   3692     1  0.0000000  0.6508444  3
   3686   3689   3692   3693     1  180.0000771  2.0083200  2
   3686   3689   3692   3693     1  0.0000000  1.2552000  3
   3686   3689   3692   3702     1  180.0000771  2.0083200  2
   3686   3689   3692   3702     1  0.0000000  1.2552000  3
   3689   3692   3693   3696     1  180.0000771  2.0083200  2
   3689   3692   3693   3696     1  0.0000000  1.2552000  3
   3689   3692   3702   3705     1  180.0000771  2.0083200  2
   3689   3692   3702   3705     1  0.0000000  1.2552000  3
   3689   3686   3683   3711     1  0.0000000  0.6508444  3
   3692   3693   3696   3699     1  0.0000000  0.6508444  3
   3692   3702   3705   3708     1  0.0000000  0.6508444  3
   3693   3696   3699   3700     1  180.0000771  0.0000000  2
   3693   3696   3699   3701     1  180.0000771  0.0000000  2
   3693   3692   3702   3705     1  180.0000771  2.0083200  2
   3693   3692   3702   3705     1  0.0000000  1.2552000  3
   3696   3693   3692   3702     1  180.0000771  2.0083200  2
   3696   3693   3692   3702     1  0.0000000  1.2552000  3
   3702   3705   3708   3709     1  180.0000771  0.0000000  2
   3702   3705   3708   3710     1  180.0000771  0.0000000  2
   3712   3715   3718   3721     1  0.0000000  0.6508444  3
   3715   3718   3721   3722     1  180.0000771  2.0083200  2
   3715   3718   3721   3722     1  0.0000000  1.2552000  3
   3715   3718   3721   3731     1  180.0000771  2.0083200  2
   3715   3718   3721   3731     1  0.0000000  1.2552000  3
   3718   3715   3712   3740     1  0.0000000  0.6508444  3
   3718   3721   3722   3725     1  180.0000771  2.0083200  2
   3718   3721   3722   3725     1  0.0000000  1.2552000  3
   3718   3721   3731   3734     1  180.0000771  2.0083200  2
   3718   3721   3731   3734     1  0.0000000  1.2552000  3
   3721   3722   3725   3728     1  0.0000000  0.6508444  3
   3721   3731   3734   3737     1  0.0000000  0.6508444  3
   3722   3721   3731   3734     1  180.0000771  2.0083200  2
   3722   3721   3731   3734     1  0.0000000  1.2552000  3
   3722   3725   3728   3729     1  180.0000771  0.0000000  2
   3722   3725   3728   3730     1  180.0000771  0.0000000  2
   3725   3722   3721   3731     1  180.0000771  2.0083200  2
   3725   3722   3721   3731     1  0.0000000  1.2552000  3
   3731   3734   3737   3738     1  180.0000771  0.0000000  2
   3731   3734   3737   3739     1  180.0000771  0.0000000  2
   3741   3744   3747   3750     1  0.0000000  0.6508444  3
   3744   3747   3750   3751     1  180.0000771  2.0083200  2
   3744   3747   3750   3751     1  0.0000000  1.2552000  3
   3744   3747   3750   3760     1  180.0000771  2.0083200  2
   3744   3747   3750   3760     1  0.0000000  1.2552000  3
   3747   3750   3751   3754     1  180.0000771  2.0083200  2
   3747   3750   3751   3754     1  0.0000000  1.2552000  3
   3747   3750   3760   3763     1  180.0000771  2.0083200  2
   3747   3750   3760   3763     1  0.0000000  1.2552000  3
   3747   3744   3741   3769     1  0.0000000  0.6508444  3
   3750   3751   3754   3757     1  0.0000000  0.6508444  3
   3750   3760   3763   3766     1  0.0000000  0.6508444  3
   3751   3754   3757   3758     1  180.0000771  0.0000000  2
   3751   3754   3757   3759     1  180.0000771  0.0000000  2
   3751   3750   3760   3763     1  180.0000771  2.0083200  2
   3751   3750   3760   3763     1  0.0000000  1.2552000  3
   3754   3751   3750   3760     1  180.0000771  2.0083200  2
   3754   3751   3750   3760     1  0.0000000  1.2552000  3
   3760   3763   3766   3767     1  180.0000771  0.0000000  2
   3760   3763   3766   3768     1  180.0000771  0.0000000  2
   3770   3773   3776   3779     1  0.0000000  0.6508444  3
   3773   3776   3779   3780     1  180.0000771  2.0083200  2
   3773   3776   3779   3780     1  0.0000000  1.2552000  3
   3773   3776   3779   3789     1  180.0000771  2.0083200  2
   3773   3776   3779   3789     1  0.0000000  1.2552000  3
   3776   3773   3770   3798     1  0.0000000  0.6508444  3
   3776   3779   3780   3783     1  180.0000771  2.0083200  2
   3776   3779   3780   3783     1  0.0000000  1.2552000  3
   3776   3779   3789   3792     1  180.0000771  2.0083200  2
   3776   3779   3789   3792     1  0.0000000  1.2552000  3
   3779   3780   3783   3786     1  0.0000000  0.6508444  3
   3779   3789   3792   3795     1  0.0000000  0.6508444  3
   3780   3779   3789   3792     1  180.0000771  2.0083200  2
   3780   3779   3789   3792     1  0.0000000  1.2552000  3
   3780   3783   3786   3787     1  180.0000771  0.0000000  2
   3780   3783   3786   3788     1  180.0000771  0.0000000  2
   3783   3780   3779   3789     1  180.0000771  2.0083200  2
   3783   3780   3779   3789     1  0.0000000  1.2552000  3
   3789   3792   3795   3796     1  180.0000771  0.0000000  2
   3789   3792   3795   3797     1  180.0000771  0.0000000  2
   3799   3802   3805   3808     1  0.0000000  0.6508444  3
   3802   3805   3808   3809     1  180.0000771  2.0083200  2
   3802   3805   3808   3809     1  0.0000000  1.2552000  3
   3802   3805   3808   3818     1  180.0000771  2.0083200  2
   3802   3805   3808   3818     1  0.0000000  1.2552000  3
   3805   3808   3809   3812     1  180.0000771  2.0083200  2
   3805   3808   3809   3812     1  0.0000000  1.2552000  3
   3805   3808   3818   3821     1  180.0000771  2.0083200  2
   3805   3808   3818   3821     1  0.0000000  1.2552000  3
   3805   3802   3799   3827     1  0.0000000  0.6508444  3
   3808   3809   3812   3815     1  0.0000000  0.6508444  3
   3808   3818   3821   3824     1  0.0000000  0.6508444  3
   3809   3812   3815   3816     1  180.0000771  0.0000000  2
   3809   3812   3815   3817     1  180.0000771  0.0000000  2
   3809   3808   3818   3821     1  180.0000771  2.0083200  2
   3809   3808   3818   3821     1  0.0000000  1.2552000  3
   3812   3809   3808   3818     1  180.0000771  2.0083200  2
   3812   3809   3808   3818     1  0.0000000  1.2552000  3
   3818   3821   3824   3825     1  180.0000771  0.0000000  2
   3818   3821   3824   3826     1  180.0000771  0.0000000  2
   3828   3831   3834   3837     1  0.0000000  0.6508444  3
   3831   3834   3837   3838     1  180.0000771  2.0083200  2
   3831   3834   3837   3838     1  0.0000000  1.2552000  3
   3831   3834   3837   3847     1  180.0000771  2.0083200  2
   3831   3834   3837   3847     1  0.0000000  1.2552000  3
   3834   3831   3828   3856     1  0.0000000  0.6508444  3
   3834   3837   3838   3841     1  180.0000771  2.0083200  2
   3834   3837   3838   3841     1  0.0000000  1.2552000  3
   3834   3837   3847   3850     1  180.0000771  2.0083200  2
   3834   3837   3847   3850     1  0.0000000  1.2552000  3
   3837   3838   3841   3844     1  0.0000000  0.6508444  3
   3837   3847   3850   3853     1  0.0000000  0.6508444  3
   3838   3837   3847   3850     1  180.0000771  2.0083200  2
   3838   3837   3847   3850     1  0.0000000  1.2552000  3
   3838   3841   3844   3845     1  180.0000771  0.0000000  2
   3838   3841   3844   3846     1  180.0000771  0.0000000  2
   3841   3838   3837   3847     1  180.0000771  2.0083200  2
   3841   3838   3837   3847     1  0.0000000  1.2552000  3
   3847   3850   3853   3854     1  180.0000771  0.0000000  2
   3847   3850   3853   3855     1  180.0000771  0.0000000  2
   3857   3860   3863   3866     1  0.0000000  0.6508444  3
   3860   3863   3866   3867     1  180.0000771  2.0083200  2
   3860   3863   3866   3867     1  0.0000000  1.2552000  3
   3860   3863   3866   3876     1  180.0000771  2.0083200  2
   3860   3863   3866   3876     1  0.0000000  1.2552000  3
   3863   3866   3867   3870     1  180.0000771  2.0083200  2
   3863   3866   3867   3870     1  0.0000000  1.2552000  3
   3863   3866   3876   3879     1  180.0000771  2.0083200  2
   3863   3866   3876   3879     1  0.0000000  1.2552000  3
   3863   3860   3857   3885     1  0.0000000  0.6508444  3
   3866   3867   3870   3873     1  0.0000000  0.6508444  3
   3866   3876   3879   3882     1  0.0000000  0.6508444  3
   3867   3870   3873   3874     1  180.0000771  0.0000000  2
   3867   3870   3873   3875     1  180.0000771  0.0000000  2
   3867   3866   3876   3879     1  180.0000771  2.0083200  2
   3867   3866   3876   3879     1  0.0000000  1.2552000  3
   3870   3867   3866   3876     1  180.0000771  2.0083200  2
   3870   3867   3866   3876     1  0.0000000  1.2552000  3
   3876   3879   3882   3883     1  180.0000771  0.0000000  2
   3876   3879   3882   3884     1  180.0000771  0.0000000  2
   3886   3889   3892   3895     1  0.0000000  0.6508444  3
   3889   3892   3895   3896     1  180.0000771  2.0083200  2
   3889   3892   3895   3896     1  0.0000000  1.2552000  3
   3889   3892   3895   3905     1  180.0000771  2.0083200  2
   3889   3892   3895   3905     1  0.0000000  1.2552000  3
   3892   3889   3886   3914     1  0.0000000  0.6508444  3
   3892   3895   3896   3899     1  180.0000771  2.0083200  2
   3892   3895   3896   3899     1  0.0000000  1.2552000  3
   3892   3895   3905   3908     1  180.0000771  2.0083200  2
   3892   3895   3905   3908     1  0.0000000  1.2552000  3
   3895   3896   3899   3902     1  0.0000000  0.6508444  3
   3895   3905   3908   3911     1  0.0000000  0.6508444  3
   3896   3895   3905   3908     1  180.0000771  2.0083200  2
   3896   3895   3905   3908     1  0.0000000  1.2552000  3
   3896   3899   3902   3903     1  180.0000771  0.0000000  2
   3896   3899   3902   3904     1  180.0000771  0.0000000  2
   3899   3896   3895   3905     1  180.0000771  2.0083200  2
   3899   3896   3895   3905     1  0.0000000  1.2552000  3
   3905   3908   3911   3912     1  180.0000771  0.0000000  2
   3905   3908   3911   3913     1  180.0000771  0.0000000  2
   3915   3918   3921   3924     1  0.0000000  0.6508444  3
   3918   3921   3924   3925     1  180.0000771  2.0083200  2
   3918   3921   3924   3925     1  0.0000000  1.2552000  3
   3918   3921   3924   3934     1  180.0000771  2.0083200  2
   3918   3921   3924   3934     1  0.0000000  1.2552000  3
   3921   3924   3925   3928     1  180.0000771  2.0083200  2
   3921   3924   3925   3928     1  0.0000000  1.2552000  3
   3921   3924   3934   3937     1  180.0000771  2.0083200  2
   3921   3924   3934   3937     1  0.0000000  1.2552000  3
   3921   3918   3915   3943     1  0.0000000  0.6508444  3
   3924   3925   3928   3931     1  0.0000000  0.6508444  3
   3924   3934   3937   3940     1  0.0000000  0.6508444  3
   3925   3928   3931   3932     1  180.0000771  0.0000000  2
   3925   3928   3931   3933     1  180.0000771  0.0000000  2
   3925   3924   3934   3937     1  180.0000771  2.0083200  2
   3925   3924   3934   3937     1  0.0000000  1.2552000  3
   3928   3925   3924   3934     1  180.0000771  2.0083200  2
   3928   3925   3924   3934     1  0.0000000  1.2552000  3
   3934   3937   3940   3941     1  180.0000771  0.0000000  2
   3934   3937   3940   3942     1  180.0000771  0.0000000  2
   3944   3947   3950   3953     1  0.0000000  0.6508444  3
   3947   3950   3953   3954     1  180.0000771  2.0083200  2
   3947   3950   3953   3954     1  0.0000000  1.2552000  3
   3947   3950   3953   3963     1  180.0000771  2.0083200  2
   3947   3950   3953   3963     1  0.0000000  1.2552000  3
   3950   3947   3944   3972     1  0.0000000  0.6508444  3
   3950   3953   3954   3957     1  180.0000771  2.0083200  2
   3950   3953   3954   3957     1  0.0000000  1.2552000  3
   3950   3953   3963   3966     1  180.0000771  2.0083200  2
   3950   3953   3963   3966     1  0.0000000  1.2552000  3
   3953   3954   3957   3960     1  0.0000000  0.6508444  3
   3953   3963   3966   3969     1  0.0000000  0.6508444  3
   3954   3953   3963   3966     1  180.0000771  2.0083200  2
   3954   3953   3963   3966     1  0.0000000  1.2552000  3
   3954   3957   3960   3961     1  180.0000771  0.0000000  2
   3954   3957   3960   3962     1  180.0000771  0.0000000  2
   3957   3954   3953   3963     1  180.0000771  2.0083200  2
   3957   3954   3953   3963     1  0.0000000  1.2552000  3
   3963   3966   3969   3970     1  180.0000771  0.0000000  2
   3963   3966   3969   3971     1  180.0000771  0.0000000  2
   3973   3976   3979   3982     1  0.0000000  0.6508444  3
   3976   3979   3982   3983     1  180.0000771  2.0083200  2
   3976   3979   3982   3983     1  0.0000000  1.2552000  3
   3976   3979   3982   3992     1  180.0000771  2.0083200  2
   3976   3979   3982   3992     1  0.0000000  1.2552000  3
   3979   3982   3983   3986     1  180.0000771  2.0083200  2
   3979   3982   3983   3986     1  0.0000000  1.2552000  3
   3979   3982   3992   3995     1  180.0000771  2.0083200  2
   3979   3982   3992   3995     1  0.0000000  1.2552000  3
   3979   3976   3973   4001     1  0.0000000  0.6508444  3
   3982   3983   3986   3989     1  0.0000000  0.6508444  3
   3982   3992   3995   3998     1  0.0000000  0.6508444  3
   3983   3986   3989   3990     1  180.0000771  0.0000000  2
   3983   3986   3989   3991     1  180.0000771  0.0000000  2
   3983   3982   3992   3995     1  180.0000771  2.0083200  2
   3983   3982   3992   3995     1  0.0000000  1.2552000  3
   3986   3983   3982   3992     1  180.0000771  2.0083200  2
   3986   3983   3982   3992     1  0.0000000  1.2552000  3
   3992   3995   3998   3999     1  180.0000771  0.0000000  2
   3992   3995   3998   4000     1  180.0000771  0.0000000  2
   4002   4005   4008   4011     1  0.0000000  0.6508444  3
   4005   4008   4011   4012     1  180.0000771  2.0083200  2
   4005   4008   4011   4012     1  0.0000000  1.2552000  3
   4005   4008   4011   4021     1  180.0000771  2.0083200  2
   4005   4008   4011   4021     1  0.0000000  1.2552000  3
   4008   4005   4002   4030     1  0.0000000  0.6508444  3
   4008   4011   4012   4015     1  180.0000771  2.0083200  2
   4008   4011   4012   4015     1  0.0000000  1.2552000  3
   4008   4011   4021   4024     1  180.0000771  2.0083200  2
   4008   4011   4021   4024     1  0.0000000  1.2552000  3
   4011   4012   4015   4018     1  0.0000000  0.6508444  3
   4011   4021   4024   4027     1  0.0000000  0.6508444  3
   4012   4011   4021   4024     1  180.0000771  2.0083200  2
   4012   4011   4021   4024     1  0.0000000  1.2552000  3
   4012   4015   4018   4019     1  180.0000771  0.0000000  2
   4012   4015   4018   4020     1  180.0000771  0.0000000  2
   4015   4012   4011   4021     1  180.0000771  2.0083200  2
   4015   4012   4011   4021     1  0.0000000  1.2552000  3
   4021   4024   4027   4028     1  180.0000771  0.0000000  2
   4021   4024   4027   4029     1  180.0000771  0.0000000  2
   4031   4034   4037   4040     1  0.0000000  0.6508444  3
   4034   4037   4040   4041     1  180.0000771  2.0083200  2
   4034   4037   4040   4041     1  0.0000000  1.2552000  3
   4034   4037   4040   4050     1  180.0000771  2.0083200  2
   4034   4037   4040   4050     1  0.0000000  1.2552000  3
   4037   4040   4041   4044     1  180.0000771  2.0083200  2
   4037   4040   4041   4044     1  0.0000000  1.2552000  3
   4037   4040   4050   4053     1  180.0000771  2.0083200  2
   4037   4040   4050   4053     1  0.0000000  1.2552000  3
   4037   4034   4031   4059     1  0.0000000  0.6508444  3
   4040   4041   4044   4047     1  0.0000000  0.6508444  3
   4040   4050   4053   4056     1  0.0000000  0.6508444  3
   4041   4044   4047   4048     1  180.0000771  0.0000000  2
   4041   4044   4047   4049     1  180.0000771  0.0000000  2
   4041   4040   4050   4053     1  180.0000771  2.0083200  2
   4041   4040   4050   4053     1  0.0000000  1.2552000  3
   4044   4041   4040   4050     1  180.0000771  2.0083200  2
   4044   4041   4040   4050     1  0.0000000  1.2552000  3
   4050   4053   4056   4057     1  180.0000771  0.0000000  2
   4050   4053   4056   4058     1  180.0000771  0.0000000  2
   4060   4063   4066   4069     1  0.0000000  0.6508444  3
   4063   4066   4069   4070     1  180.0000771  2.0083200  2
   4063   4066   4069   4070     1  0.0000000  1.2552000  3
   4063   4066   4069   4079     1  180.0000771  2.0083200  2
   4063   4066   4069   4079     1  0.0000000  1.2552000  3
   4066   4063   4060   4088     1  0.0000000  0.6508444  3
   4066   4069   4070   4073     1  180.0000771  2.0083200  2
   4066   4069   4070   4073     1  0.0000000  1.2552000  3
   4066   4069   4079   4082     1  180.0000771  2.0083200  2
   4066   4069   4079   4082     1  0.0000000  1.2552000  3
   4069   4070   4073   4076     1  0.0000000  0.6508444  3
   4069   4079   4082   4085     1  0.0000000  0.6508444  3
   4070   4069   4079   4082     1  180.0000771  2.0083200  2
   4070   4069   4079   4082     1  0.0000000  1.2552000  3
   4070   4073   4076   4077     1  180.0000771  0.0000000  2
   4070   4073   4076   4078     1  180.0000771  0.0000000  2
   4073   4070   4069   4079     1  180.0000771  2.0083200  2
   4073   4070   4069   4079     1  0.0000000  1.2552000  3
   4079   4082   4085   4086     1  180.0000771  0.0000000  2
   4079   4082   4085   4087     1  180.0000771  0.0000000  2
   4089   4092   4095   4098     1  0.0000000  0.6508444  3
   4092   4095   4098   4099     1  180.0000771  2.0083200  2
   4092   4095   4098   4099     1  0.0000000  1.2552000  3
   4092   4095   4098   4108     1  180.0000771  2.0083200  2
   4092   4095   4098   4108     1  0.0000000  1.2552000  3
   4095   4098   4099   4102     1  180.0000771  2.0083200  2
   4095   4098   4099   4102     1  0.0000000  1.2552000  3
   4095   4098   4108   4111     1  180.0000771  2.0083200  2
   4095   4098   4108   4111     1  0.0000000  1.2552000  3
   4095   4092   4089   4117     1  0.0000000  0.6508444  3
   4098   4099   4102   4105     1  0.0000000  0.6508444  3
   4098   4108   4111   4114     1  0.0000000  0.6508444  3
   4099   4102   4105   4106     1  180.0000771  0.0000000  2
   4099   4102   4105   4107     1  180.0000771  0.0000000  2
   4099   4098   4108   4111     1  180.0000771  2.0083200  2
   4099   4098   4108   4111     1  0.0000000  1.2552000  3
   4102   4099   4098   4108     1  180.0000771  2.0083200  2
   4102   4099   4098   4108     1  0.0000000  1.2552000  3
   4108   4111   4114   4115     1  180.0000771  0.0000000  2
   4108   4111   4114   4116     1  180.0000771  0.0000000  2
   4118   4121   4124   4127     1  0.0000000  0.6508444  3
   4121   4124   4127   4128     1  180.0000771  2.0083200  2
   4121   4124   4127   4128     1  0.0000000  1.2552000  3
   4121   4124   4127   4137     1  180.0000771  2.0083200  2
   4121   4124   4127   4137     1  0.0000000  1.2552000  3
   4124   4121   4118   4146     1  0.0000000  0.6508444  3
   4124   4127   4128   4131     1  180.0000771  2.0083200  2
   4124   4127   4128   4131     1  0.0000000  1.2552000  3
   4124   4127   4137   4140     1  180.0000771  2.0083200  2
   4124   4127   4137   4140     1  0.0000000  1.2552000  3
   4127   4128   4131   4134     1  0.0000000  0.6508444  3
   4127   4137   4140   4143     1  0.0000000  0.6508444  3
   4128   4127   4137   4140     1  180.0000771  2.0083200  2
   4128   4127   4137   4140     1  0.0000000  1.2552000  3
   4128   4131   4134   4135     1  180.0000771  0.0000000  2
   4128   4131   4134   4136     1  180.0000771  0.0000000  2
   4131   4128   4127   4137     1  180.0000771  2.0083200  2
   4131   4128   4127   4137     1  0.0000000  1.2552000  3
   4137   4140   4143   4144     1  180.0000771  0.0000000  2
   4137   4140   4143   4145     1  180.0000771  0.0000000  2
   4147   4150   4153   4156     1  0.0000000  0.6508444  3
   4150   4153   4156   4157     1  180.0000771  2.0083200  2
   4150   4153   4156   4157     1  0.0000000  1.2552000  3
   4150   4153   4156   4166     1  180.0000771  2.0083200  2
   4150   4153   4156   4166     1  0.0000000  1.2552000  3
   4153   4156   4157   4160     1  180.0000771  2.0083200  2
   4153   4156   4157   4160     1  0.0000000  1.2552000  3
   4153   4156   4166   4169     1  180.0000771  2.0083200  2
   4153   4156   4166   4169     1  0.0000000  1.2552000  3
   4153   4150   4147   4175     1  0.0000000  0.6508444  3
   4156   4157   4160   4163     1  0.0000000  0.6508444  3
   4156   4166   4169   4172     1  0.0000000  0.6508444  3
   4157   4160   4163   4164     1  180.0000771  0.0000000  2
   4157   4160   4163   4165     1  180.0000771  0.0000000  2
   4157   4156   4166   4169     1  180.0000771  2.0083200  2
   4157   4156   4166   4169     1  0.0000000  1.2552000  3
   4160   4157   4156   4166     1  180.0000771  2.0083200  2
   4160   4157   4156   4166     1  0.0000000  1.2552000  3
   4166   4169   4172   4173     1  180.0000771  0.0000000  2
   4166   4169   4172   4174     1  180.0000771  0.0000000  2
   4176   4179   4182   4185     1  0.0000000  0.6508444  3
   4179   4182   4185   4186     1  180.0000771  2.0083200  2
   4179   4182   4185   4186     1  0.0000000  1.2552000  3
   4179   4182   4185   4195     1  180.0000771  2.0083200  2
   4179   4182   4185   4195     1  0.0000000  1.2552000  3
   4182   4179   4176   4204     1  0.0000000  0.6508444  3
   4182   4185   4186   4189     1  180.0000771  2.0083200  2
   4182   4185   4186   4189     1  0.0000000  1.2552000  3
   4182   4185   4195   4198     1  180.0000771  2.0083200  2
   4182   4185   4195   4198     1  0.0000000  1.2552000  3
   4185   4186   4189   4192     1  0.0000000  0.6508444  3
   4185   4195   4198   4201     1  0.0000000  0.6508444  3
   4186   4185   4195   4198     1  180.0000771  2.0083200  2
   4186   4185   4195   4198     1  0.0000000  1.2552000  3
   4186   4189   4192   4193     1  180.0000771  0.0000000  2
   4186   4189   4192   4194     1  180.0000771  0.0000000  2
   4189   4186   4185   4195     1  180.0000771  2.0083200  2
   4189   4186   4185   4195     1  0.0000000  1.2552000  3
   4195   4198   4201   4202     1  180.0000771  0.0000000  2
   4195   4198   4201   4203     1  180.0000771  0.0000000  2
   4205   4208   4211   4214     1  0.0000000  0.6508444  3
   4208   4211   4214   4215     1  180.0000771  2.0083200  2
   4208   4211   4214   4215     1  0.0000000  1.2552000  3
   4208   4211   4214   4224     1  180.0000771  2.0083200  2
   4208   4211   4214   4224     1  0.0000000  1.2552000  3
   4211   4214   4215   4218     1  180.0000771  2.0083200  2
   4211   4214   4215   4218     1  0.0000000  1.2552000  3
   4211   4214   4224   4227     1  180.0000771  2.0083200  2
   4211   4214   4224   4227     1  0.0000000  1.2552000  3
   4211   4208   4205   4233     1  0.0000000  0.6508444  3
   4214   4215   4218   4221     1  0.0000000  0.6508444  3
   4214   4224   4227   4230     1  0.0000000  0.6508444  3
   4215   4218   4221   4222     1  180.0000771  0.0000000  2
   4215   4218   4221   4223     1  180.0000771  0.0000000  2
   4215   4214   4224   4227     1  180.0000771  2.0083200  2
   4215   4214   4224   4227     1  0.0000000  1.2552000  3
   4218   4215   4214   4224     1  180.0000771  2.0083200  2
   4218   4215   4214   4224     1  0.0000000  1.2552000  3
   4224   4227   4230   4231     1  180.0000771  0.0000000  2
   4224   4227   4230   4232     1  180.0000771  0.0000000  2
   4234   4237   4240   4243     1  0.0000000  0.6508444  3
   4237   4240   4243   4244     1  180.0000771  2.0083200  2
   4237   4240   4243   4244     1  0.0000000  1.2552000  3
   4237   4240   4243   4253     1  180.0000771  2.0083200  2
   4237   4240   4243   4253     1  0.0000000  1.2552000  3
   4240   4237   4234   4262     1  0.0000000  0.6508444  3
   4240   4243   4244   4247     1  180.0000771  2.0083200  2
   4240   4243   4244   4247     1  0.0000000  1.2552000  3
   4240   4243   4253   4256     1  180.0000771  2.0083200  2
   4240   4243   4253   4256     1  0.0000000  1.2552000  3
   4243   4244   4247   4250     1  0.0000000  0.6508444  3
   4243   4253   4256   4259     1  0.0000000  0.6508444  3
   4244   4243   4253   4256     1  180.0000771  2.0083200  2
   4244   4243   4253   4256     1  0.0000000  1.2552000  3
   4244   4247   4250   4251     1  180.0000771  0.0000000  2
   4244   4247   4250   4252     1  180.0000771  0.0000000  2
   4247   4244   4243   4253     1  180.0000771  2.0083200  2
   4247   4244   4243   4253     1  0.0000000  1.2552000  3
   4253   4256   4259   4260     1  180.0000771  0.0000000  2
   4253   4256   4259   4261     1  180.0000771  0.0000000  2
   4263   4266   4269   4272     1  0.0000000  0.6508444  3
   4266   4269   4272   4273     1  180.0000771  2.0083200  2
   4266   4269   4272   4273     1  0.0000000  1.2552000  3
   4266   4269   4272   4282     1  180.0000771  2.0083200  2
   4266   4269   4272   4282     1  0.0000000  1.2552000  3
   4269   4272   4273   4276     1  180.0000771  2.0083200  2
   4269   4272   4273   4276     1  0.0000000  1.2552000  3
   4269   4272   4282   4285     1  180.0000771  2.0083200  2
   4269   4272   4282   4285     1  0.0000000  1.2552000  3
   4269   4266   4263   4291     1  0.0000000  0.6508444  3
   4272   4273   4276   4279     1  0.0000000  0.6508444  3
   4272   4282   4285   4288     1  0.0000000  0.6508444  3
   4273   4276   4279   4280     1  180.0000771  0.0000000  2
   4273   4276   4279   4281     1  180.0000771  0.0000000  2
   4273   4272   4282   4285     1  180.0000771  2.0083200  2
   4273   4272   4282   4285     1  0.0000000  1.2552000  3
   4276   4273   4272   4282     1  180.0000771  2.0083200  2
   4276   4273   4272   4282     1  0.0000000  1.2552000  3
   4282   4285   4288   4289     1  180.0000771  0.0000000  2
   4282   4285   4288   4290     1  180.0000771  0.0000000  2
   4292   4295   4298   4301     1  0.0000000  0.6508444  3
   4295   4298   4301   4302     1  180.0000771  2.0083200  2
   4295   4298   4301   4302     1  0.0000000  1.2552000  3
   4295   4298   4301   4311     1  180.0000771  2.0083200  2
   4295   4298   4301   4311     1  0.0000000  1.2552000  3
   4298   4295   4292   4320     1  0.0000000  0.6508444  3
   4298   4301   4302   4305     1  180.0000771  2.0083200  2
   4298   4301   4302   4305     1  0.0000000  1.2552000  3
   4298   4301   4311   4314     1  180.0000771  2.0083200  2
   4298   4301   4311   4314     1  0.0000000  1.2552000  3
   4301   4302   4305   4308     1  0.0000000  0.6508444  3
   4301   4311   4314   4317     1  0.0000000  0.6508444  3
   4302   4301   4311   4314     1  180.0000771  2.0083200  2
   4302   4301   4311   4314     1  0.0000000  1.2552000  3
   4302   4305   4308   4309     1  180.0000771  0.0000000  2
   4302   4305   4308   4310     1  180.0000771  0.0000000  2
   4305   4302   4301   4311     1  180.0000771  2.0083200  2
   4305   4302   4301   4311     1  0.0000000  1.2552000  3
   4311   4314   4317   4318     1  180.0000771  0.0000000  2
   4311   4314   4317   4319     1  180.0000771  0.0000000  2
   4321   4324   4327   4330     1  0.0000000  0.6508444  3
   4324   4327   4330   4331     1  180.0000771  2.0083200  2
   4324   4327   4330   4331     1  0.0000000  1.2552000  3
   4324   4327   4330   4340     1  180.0000771  2.0083200  2
   4324   4327   4330   4340     1  0.0000000  1.2552000  3
   4327   4330   4331   4334     1  180.0000771  2.0083200  2
   4327   4330   4331   4334     1  0.0000000  1.2552000  3
   4327   4330   4340   4343     1  180.0000771  2.0083200  2
   4327   4330   4340   4343     1  0.0000000  1.2552000  3
   4327   4324   4321   4349     1  0.0000000  0.6508444  3
   4330   4331   4334   4337     1  0.0000000  0.6508444  3
   4330   4340   4343   4346     1  0.0000000  0.6508444  3
   4331   4334   4337   4338     1  180.0000771  0.0000000  2
   4331   4334   4337   4339     1  180.0000771  0.0000000  2
   4331   4330   4340   4343     1  180.0000771  2.0083200  2
   4331   4330   4340   4343     1  0.0000000  1.2552000  3
   4334   4331   4330   4340     1  180.0000771  2.0083200  2
   4334   4331   4330   4340     1  0.0000000  1.2552000  3
   4340   4343   4346   4347     1  180.0000771  0.0000000  2
   4340   4343   4346   4348     1  180.0000771  0.0000000  2
   4350   4353   4356   4359     1  0.0000000  0.6508444  3
   4353   4356   4359   4360     1  180.0000771  2.0083200  2
   4353   4356   4359   4360     1  0.0000000  1.2552000  3
   4353   4356   4359   4369     1  180.0000771  2.0083200  2
   4353   4356   4359   4369     1  0.0000000  1.2552000  3
   4356   4353   4350   4378     1  0.0000000  0.6508444  3
   4356   4359   4360   4363     1  180.0000771  2.0083200  2
   4356   4359   4360   4363     1  0.0000000  1.2552000  3
   4356   4359   4369   4372     1  180.0000771  2.0083200  2
   4356   4359   4369   4372     1  0.0000000  1.2552000  3
   4359   4360   4363   4366     1  0.0000000  0.6508444  3
   4359   4369   4372   4375     1  0.0000000  0.6508444  3
   4360   4359   4369   4372     1  180.0000771  2.0083200  2
   4360   4359   4369   4372     1  0.0000000  1.2552000  3
   4360   4363   4366   4367     1  180.0000771  0.0000000  2
   4360   4363   4366   4368     1  180.0000771  0.0000000  2
   4363   4360   4359   4369     1  180.0000771  2.0083200  2
   4363   4360   4359   4369     1  0.0000000  1.2552000  3
   4369   4372   4375   4376     1  180.0000771  0.0000000  2
   4369   4372   4375   4377     1  180.0000771  0.0000000  2
   4379   4382   4385   4388     1  0.0000000  0.6508444  3
   4382   4385   4388   4389     1  180.0000771  2.0083200  2
   4382   4385   4388   4389     1  0.0000000  1.2552000  3
   4382   4385   4388   4398     1  180.0000771  2.0083200  2
   4382   4385   4388   4398     1  0.0000000  1.2552000  3
   4385   4388   4389   4392     1  180.0000771  2.0083200  2
   4385   4388   4389   4392     1  0.0000000  1.2552000  3
   4385   4388   4398   4401     1  180.0000771  2.0083200  2
   4385   4388   4398   4401     1  0.0000000  1.2552000  3
   4385   4382   4379   4407     1  0.0000000  0.6508444  3
   4388   4389   4392   4395     1  0.0000000  0.6508444  3
   4388   4398   4401   4404     1  0.0000000  0.6508444  3
   4389   4392   4395   4396     1  180.0000771  0.0000000  2
   4389   4392   4395   4397     1  180.0000771  0.0000000  2
   4389   4388   4398   4401     1  180.0000771  2.0083200  2
   4389   4388   4398   4401     1  0.0000000  1.2552000  3
   4392   4389   4388   4398     1  180.0000771  2.0083200  2
   4392   4389   4388   4398     1  0.0000000  1.2552000  3
   4398   4401   4404   4405     1  180.0000771  0.0000000  2
   4398   4401   4404   4406     1  180.0000771  0.0000000  2
   4408   4411   4414   4417     1  0.0000000  0.6508444  3
   4411   4414   4417   4418     1  180.0000771  2.0083200  2
   4411   4414   4417   4418     1  0.0000000  1.2552000  3
   4411   4414   4417   4427     1  180.0000771  2.0083200  2
   4411   4414   4417   4427     1  0.0000000  1.2552000  3
   4414   4411   4408   4436     1  0.0000000  0.6508444  3
   4414   4417   4418   4421     1  180.0000771  2.0083200  2
   4414   4417   4418   4421     1  0.0000000  1.2552000  3
   4414   4417   4427   4430     1  180.0000771  2.0083200  2
   4414   4417   4427   4430     1  0.0000000  1.2552000  3
   4417   4418   4421   4424     1  0.0000000  0.6508444  3
   4417   4427   4430   4433     1  0.0000000  0.6508444  3
   4418   4417   4427   4430     1  180.0000771  2.0083200  2
   4418   4417   4427   4430     1  0.0000000  1.2552000  3
   4418   4421   4424   4425     1  180.0000771  0.0000000  2
   4418   4421   4424   4426     1  180.0000771  0.0000000  2
   4421   4418   4417   4427     1  180.0000771  2.0083200  2
   4421   4418   4417   4427     1  0.0000000  1.2552000  3
   4427   4430   4433   4434     1  180.0000771  0.0000000  2
   4427   4430   4433   4435     1  180.0000771  0.0000000  2
   4437   4440   4443   4446     1  0.0000000  0.6508444  3
   4440   4443   4446   4447     1  180.0000771  2.0083200  2
   4440   4443   4446   4447     1  0.0000000  1.2552000  3
   4440   4443   4446   4456     1  180.0000771  2.0083200  2
   4440   4443   4446   4456     1  0.0000000  1.2552000  3
   4443   4446   4447   4450     1  180.0000771  2.0083200  2
   4443   4446   4447   4450     1  0.0000000  1.2552000  3
   4443   4446   4456   4459     1  180.0000771  2.0083200  2
   4443   4446   4456   4459     1  0.0000000  1.2552000  3
   4443   4440   4437   4465     1  0.0000000  0.6508444  3
   4446   4447   4450   4453     1  0.0000000  0.6508444  3
   4446   4456   4459   4462     1  0.0000000  0.6508444  3
   4447   4450   4453   4454     1  180.0000771  0.0000000  2
   4447   4450   4453   4455     1  180.0000771  0.0000000  2
   4447   4446   4456   4459     1  180.0000771  2.0083200  2
   4447   4446   4456   4459     1  0.0000000  1.2552000  3
   4450   4447   4446   4456     1  180.0000771  2.0083200  2
   4450   4447   4446   4456     1  0.0000000  1.2552000  3
   4456   4459   4462   4463     1  180.0000771  0.0000000  2
   4456   4459   4462   4464     1  180.0000771  0.0000000  2
   4466   4469   4472   4475     1  0.0000000  0.6508444  3
   4469   4472   4475   4476     1  180.0000771  2.0083200  2
   4469   4472   4475   4476     1  0.0000000  1.2552000  3
   4469   4472   4475   4485     1  180.0000771  2.0083200  2
   4469   4472   4475   4485     1  0.0000000  1.2552000  3
   4472   4469   4466   4494     1  0.0000000  0.6508444  3
   4472   4475   4476   4479     1  180.0000771  2.0083200  2
   4472   4475   4476   4479     1  0.0000000  1.2552000  3
   4472   4475   4485   4488     1  180.0000771  2.0083200  2
   4472   4475   4485   4488     1  0.0000000  1.2552000  3
   4475   4476   4479   4482     1  0.0000000  0.6508444  3
   4475   4485   4488   4491     1  0.0000000  0.6508444  3
   4476   4475   4485   4488     1  180.0000771  2.0083200  2
   4476   4475   4485   4488     1  0.0000000  1.2552000  3
   4476   4479   4482   4483     1  180.0000771  0.0000000  2
   4476   4479   4482   4484     1  180.0000771  0.0000000  2
   4479   4476   4475   4485     1  180.0000771  2.0083200  2
   4479   4476   4475   4485     1  0.0000000  1.2552000  3
   4485   4488   4491   4492     1  180.0000771  0.0000000  2
   4485   4488   4491   4493     1  180.0000771  0.0000000  2
   4495   4498   4501   4504     1  0.0000000  0.6508444  3
   4498   4501   4504   4505     1  180.0000771  2.0083200  2
   4498   4501   4504   4505     1  0.0000000  1.2552000  3
   4498   4501   4504   4514     1  180.0000771  2.0083200  2
   4498   4501   4504   4514     1  0.0000000  1.2552000  3
   4501   4504   4505   4508     1  180.0000771  2.0083200  2
   4501   4504   4505   4508     1  0.0000000  1.2552000  3
   4501   4504   4514   4517     1  180.0000771  2.0083200  2
   4501   4504   4514   4517     1  0.0000000  1.2552000  3
   4501   4498   4495   4523     1  0.0000000  0.6508444  3
   4504   4505   4508   4511     1  0.0000000  0.6508444  3
   4504   4514   4517   4520     1  0.0000000  0.6508444  3
   4505   4508   4511   4512     1  180.0000771  0.0000000  2
   4505   4508   4511   4513     1  180.0000771  0.0000000  2
   4505   4504   4514   4517     1  180.0000771  2.0083200  2
   4505   4504   4514   4517     1  0.0000000  1.2552000  3
   4508   4505   4504   4514     1  180.0000771  2.0083200  2
   4508   4505   4504   4514     1  0.0000000  1.2552000  3
   4514   4517   4520   4521     1  180.0000771  0.0000000  2
   4514   4517   4520   4522     1  180.0000771  0.0000000  2
   4524   4527   4530   4533     1  0.0000000  0.6508444  3
   4527   4530   4533   4534     1  180.0000771  2.0083200  2
   4527   4530   4533   4534     1  0.0000000  1.2552000  3
   4527   4530   4533   4543     1  180.0000771  2.0083200  2
   4527   4530   4533   4543     1  0.0000000  1.2552000  3
   4530   4527   4524   4552     1  0.0000000  0.6508444  3
   4530   4533   4534   4537     1  180.0000771  2.0083200  2
   4530   4533   4534   4537     1  0.0000000  1.2552000  3
   4530   4533   4543   4546     1  180.0000771  2.0083200  2
   4530   4533   4543   4546     1  0.0000000  1.2552000  3
   4533   4534   4537   4540     1  0.0000000  0.6508444  3
   4533   4543   4546   4549     1  0.0000000  0.6508444  3
   4534   4533   4543   4546     1  180.0000771  2.0083200  2
   4534   4533   4543   4546     1  0.0000000  1.2552000  3
   4534   4537   4540   4541     1  180.0000771  0.0000000  2
   4534   4537   4540   4542     1  180.0000771  0.0000000  2
   4537   4534   4533   4543     1  180.0000771  2.0083200  2
   4537   4534   4533   4543     1  0.0000000  1.2552000  3
   4543   4546   4549   4550     1  180.0000771  0.0000000  2
   4543   4546   4549   4551     1  180.0000771  0.0000000  2
   4553   4556   4559   4562     1  0.0000000  0.6508444  3
   4556   4559   4562   4563     1  180.0000771  2.0083200  2
   4556   4559   4562   4563     1  0.0000000  1.2552000  3
   4556   4559   4562   4572     1  180.0000771  2.0083200  2
   4556   4559   4562   4572     1  0.0000000  1.2552000  3
   4559   4562   4563   4566     1  180.0000771  2.0083200  2
   4559   4562   4563   4566     1  0.0000000  1.2552000  3
   4559   4562   4572   4575     1  180.0000771  2.0083200  2
   4559   4562   4572   4575     1  0.0000000  1.2552000  3
   4559   4556   4553   4581     1  0.0000000  0.6508444  3
   4562   4563   4566   4569     1  0.0000000  0.6508444  3
   4562   4572   4575   4578     1  0.0000000  0.6508444  3
   4563   4566   4569   4570     1  180.0000771  0.0000000  2
   4563   4566   4569   4571     1  180.0000771  0.0000000  2
   4563   4562   4572   4575     1  180.0000771  2.0083200  2
   4563   4562   4572   4575     1  0.0000000  1.2552000  3
   4566   4563   4562   4572     1  180.0000771  2.0083200  2
   4566   4563   4562   4572     1  0.0000000  1.2552000  3
   4572   4575   4578   4579     1  180.0000771  0.0000000  2
   4572   4575   4578   4580     1  180.0000771  0.0000000  2
   4582   4585   4588   4591     1  0.0000000  0.6508444  3
   4585   4588   4591   4592     1  180.0000771  2.0083200  2
   4585   4588   4591   4592     1  0.0000000  1.2552000  3
   4585   4588   4591   4601     1  180.0000771  2.0083200  2
   4585   4588   4591   4601     1  0.0000000  1.2552000  3
   4588   4585   4582   4610     1  0.0000000  0.6508444  3
   4588   4591   4592   4595     1  180.0000771  2.0083200  2
   4588   4591   4592   4595     1  0.0000000  1.2552000  3
   4588   4591   4601   4604     1  180.0000771  2.0083200  2
   4588   4591   4601   4604     1  0.0000000  1.2552000  3
   4591   4592   4595   4598     1  0.0000000  0.6508444  3
   4591   4601   4604   4607     1  0.0000000  0.6508444  3
   4592   4591   4601   4604     1  180.0000771  2.0083200  2
   4592   4591   4601   4604     1  0.0000000  1.2552000  3
   4592   4595   4598   4599     1  180.0000771  0.0000000  2
   4592   4595   4598   4600     1  180.0000771  0.0000000  2
   4595   4592   4591   4601     1  180.0000771  2.0083200  2
   4595   4592   4591   4601     1  0.0000000  1.2552000  3
   4601   4604   4607   4608     1  180.0000771  0.0000000  2
   4601   4604   4607   4609     1  180.0000771  0.0000000  2
   4611   4614   4617   4620     1  0.0000000  0.6508444  3
   4614   4617   4620   4621     1  180.0000771  2.0083200  2
   4614   4617   4620   4621     1  0.0000000  1.2552000  3
   4614   4617   4620   4630     1  180.0000771  2.0083200  2
   4614   4617   4620   4630     1  0.0000000  1.2552000  3
   4617   4620   4621   4624     1  180.0000771  2.0083200  2
   4617   4620   4621   4624     1  0.0000000  1.2552000  3
   4617   4620   4630   4633     1  180.0000771  2.0083200  2
   4617   4620   4630   4633     1  0.0000000  1.2552000  3
   4617   4614   4611   4639     1  0.0000000  0.6508444  3
   4620   4621   4624   4627     1  0.0000000  0.6508444  3
   4620   4630   4633   4636     1  0.0000000  0.6508444  3
   4621   4624   4627   4628     1  180.0000771  0.0000000  2
   4621   4624   4627   4629     1  180.0000771  0.0000000  2
   4621   4620   4630   4633     1  180.0000771  2.0083200  2
   4621   4620   4630   4633     1  0.0000000  1.2552000  3
   4624   4621   4620   4630     1  180.0000771  2.0083200  2
   4624   4621   4620   4630     1  0.0000000  1.2552000  3
   4630   4633   4636   4637     1  180.0000771  0.0000000  2
   4630   4633   4636   4638     1  180.0000771  0.0000000  2
   4640   4643   4646   4649     1  0.0000000  0.6508444  3
   4643   4646   4649   4650     1  180.0000771  2.0083200  2
   4643   4646   4649   4650     1  0.0000000  1.2552000  3
   4643   4646   4649   4659     1  180.0000771  2.0083200  2
   4643   4646   4649   4659     1  0.0000000  1.2552000  3
   4646   4643   4640   4668     1  0.0000000  0.6508444  3
   4646   4649   4650   4653     1  180.0000771  2.0083200  2
   4646   4649   4650   4653     1  0.0000000  1.2552000  3
   4646   4649   4659   4662     1  180.0000771  2.0083200  2
   4646   4649   4659   4662     1  0.0000000  1.2552000  3
   4649   4650   4653   4656     1  0.0000000  0.6508444  3
   4649   4659   4662   4665     1  0.0000000  0.6508444  3
   4650   4649   4659   4662     1  180.0000771  2.0083200  2
   4650   4649   4659   4662     1  0.0000000  1.2552000  3
   4650   4653   4656   4657     1  180.0000771  0.0000000  2
   4650   4653   4656   4658     1  180.0000771  0.0000000  2
   4653   4650   4649   4659     1  180.0000771  2.0083200  2
   4653   4650   4649   4659     1  0.0000000  1.2552000  3
   4659   4662   4665   4666     1  180.0000771  0.0000000  2
   4659   4662   4665   4667     1  180.0000771  0.0000000  2
   4669   4672   4675   4678     1  0.0000000  0.6508444  3
   4672   4675   4678   4679     1  180.0000771  2.0083200  2
   4672   4675   4678   4679     1  0.0000000  1.2552000  3
   4672   4675   4678   4688     1  180.0000771  2.0083200  2
   4672   4675   4678   4688     1  0.0000000  1.2552000  3
   4675   4678   4679   4682     1  180.0000771  2.0083200  2
   4675   4678   4679   4682     1  0.0000000  1.2552000  3
   4675   4678   4688   4691     1  180.0000771  2.0083200  2
   4675   4678   4688   4691     1  0.0000000  1.2552000  3
   4675   4672   4669   4697     1  0.0000000  0.6508444  3
   4678   4679   4682   4685     1  0.0000000  0.6508444  3
   4678   4688   4691   4694     1  0.0000000  0.6508444  3
   4679   4682   4685   4686     1  180.0000771  0.0000000  2
   4679   4682   4685   4687     1  180.0000771  0.0000000  2
   4679   4678   4688   4691     1  180.0000771  2.0083200  2
   4679   4678   4688   4691     1  0.0000000  1.2552000  3
   4682   4679   4678   4688     1  180.0000771  2.0083200  2
   4682   4679   4678   4688     1  0.0000000  1.2552000  3
   4688   4691   4694   4695     1  180.0000771  0.0000000  2
   4688   4691   4694   4696     1  180.0000771  0.0000000  2
   4698   4701   4704   4707     1  0.0000000  0.6508444  3
   4701   4704   4707   4708     1  180.0000771  2.0083200  2
   4701   4704   4707   4708     1  0.0000000  1.2552000  3
   4701   4704   4707   4717     1  180.0000771  2.0083200  2
   4701   4704   4707   4717     1  0.0000000  1.2552000  3
   4704   4701   4698   4726     1  0.0000000  0.6508444  3
   4704   4707   4708   4711     1  180.0000771  2.0083200  2
   4704   4707   4708   4711     1  0.0000000  1.2552000  3
   4704   4707   4717   4720     1  180.0000771  2.0083200  2
   4704   4707   4717   4720     1  0.0000000  1.2552000  3
   4707   4708   4711   4714     1  0.0000000  0.6508444  3
   4707   4717   4720   4723     1  0.0000000  0.6508444  3
   4708   4707   4717   4720     1  180.0000771  2.0083200  2
   4708   4707   4717   4720     1  0.0000000  1.2552000  3
   4708   4711   4714   4715     1  180.0000771  0.0000000  2
   4708   4711   4714   4716     1  180.0000771  0.0000000  2
   4711   4708   4707   4717     1  180.0000771  2.0083200  2
   4711   4708   4707   4717     1  0.0000000  1.2552000  3
   4717   4720   4723   4724     1  180.0000771  0.0000000  2
   4717   4720   4723   4725     1  180.0000771  0.0000000  2
   4727   4730   4733   4736     1  0.0000000  0.6508444  3
   4730   4733   4736   4737     1  180.0000771  2.0083200  2
   4730   4733   4736   4737     1  0.0000000  1.2552000  3
   4730   4733   4736   4746     1  180.0000771  2.0083200  2
   4730   4733   4736   4746     1  0.0000000  1.2552000  3
   4733   4736   4737   4740     1  180.0000771  2.0083200  2
   4733   4736   4737   4740     1  0.0000000  1.2552000  3
   4733   4736   4746   4749     1  180.0000771  2.0083200  2
   4733   4736   4746   4749     1  0.0000000  1.2552000  3
   4733   4730   4727   4755     1  0.0000000  0.6508444  3
   4736   4737   4740   4743     1  0.0000000  0.6508444  3
   4736   4746   4749   4752     1  0.0000000  0.6508444  3
   4737   4740   4743   4744     1  180.0000771  0.0000000  2
   4737   4740   4743   4745     1  180.0000771  0.0000000  2
   4737   4736   4746   4749     1  180.0000771  2.0083200  2
   4737   4736   4746   4749     1  0.0000000  1.2552000  3
   4740   4737   4736   4746     1  180.0000771  2.0083200  2
   4740   4737   4736   4746     1  0.0000000  1.2552000  3
   4746   4749   4752   4753     1  180.0000771  0.0000000  2
   4746   4749   4752   4754     1  180.0000771  0.0000000  2
   4756   4759   4762   4765     1  0.0000000  0.6508444  3
   4759   4762   4765   4766     1  180.0000771  2.0083200  2
   4759   4762   4765   4766     1  0.0000000  1.2552000  3
   4759   4762   4765   4775     1  180.0000771  2.0083200  2
   4759   4762   4765   4775     1  0.0000000  1.2552000  3
   4762   4759   4756   4784     1  0.0000000  0.6508444  3
   4762   4765   4766   4769     1  180.0000771  2.0083200  2
   4762   4765   4766   4769     1  0.0000000  1.2552000  3
   4762   4765   4775   4778     1  180.0000771  2.0083200  2
   4762   4765   4775   4778     1  0.0000000  1.2552000  3
   4765   4766   4769   4772     1  0.0000000  0.6508444  3
   4765   4775   4778   4781     1  0.0000000  0.6508444  3
   4766   4765   4775   4778     1  180.0000771  2.0083200  2
   4766   4765   4775   4778     1  0.0000000  1.2552000  3
   4766   4769   4772   4773     1  180.0000771  0.0000000  2
   4766   4769   4772   4774     1  180.0000771  0.0000000  2
   4769   4766   4765   4775     1  180.0000771  2.0083200  2
   4769   4766   4765   4775     1  0.0000000  1.2552000  3
   4775   4778   4781   4782     1  180.0000771  0.0000000  2
   4775   4778   4781   4783     1  180.0000771  0.0000000  2
   4785   4788   4791   4794     1  0.0000000  0.6508444  3
   4788   4791   4794   4795     1  180.0000771  2.0083200  2
   4788   4791   4794   4795     1  0.0000000  1.2552000  3
   4788   4791   4794   4804     1  180.0000771  2.0083200  2
   4788   4791   4794   4804     1  0.0000000  1.2552000  3
   4791   4794   4795   4798     1  180.0000771  2.0083200  2
   4791   4794   4795   4798     1  0.0000000  1.2552000  3
   4791   4794   4804   4807     1  180.0000771  2.0083200  2
   4791   4794   4804   4807     1  0.0000000  1.2552000  3
   4791   4788   4785   4813     1  0.0000000  0.6508444  3
   4794   4795   4798   4801     1  0.0000000  0.6508444  3
   4794   4804   4807   4810     1  0.0000000  0.6508444  3
   4795   4798   4801   4802     1  180.0000771  0.0000000  2
   4795   4798   4801   4803     1  180.0000771  0.0000000  2
   4795   4794   4804   4807     1  180.0000771  2.0083200  2
   4795   4794   4804   4807     1  0.0000000  1.2552000  3
   4798   4795   4794   4804     1  180.0000771  2.0083200  2
   4798   4795   4794   4804     1  0.0000000  1.2552000  3
   4804   4807   4810   4811     1  180.0000771  0.0000000  2
   4804   4807   4810   4812     1  180.0000771  0.0000000  2
   4814   4817   4820   4823     1  0.0000000  0.6508444  3
   4817   4820   4823   4824     1  180.0000771  2.0083200  2
   4817   4820   4823   4824     1  0.0000000  1.2552000  3
   4817   4820   4823   4833     1  180.0000771  2.0083200  2
   4817   4820   4823   4833     1  0.0000000  1.2552000  3
   4820   4817   4814   4842     1  0.0000000  0.6508444  3
   4820   4823   4824   4827     1  180.0000771  2.0083200  2
   4820   4823   4824   4827     1  0.0000000  1.2552000  3
   4820   4823   4833   4836     1  180.0000771  2.0083200  2
   4820   4823   4833   4836     1  0.0000000  1.2552000  3
   4823   4824   4827   4830     1  0.0000000  0.6508444  3
   4823   4833   4836   4839     1  0.0000000  0.6508444  3
   4824   4823   4833   4836     1  180.0000771  2.0083200  2
   4824   4823   4833   4836     1  0.0000000  1.2552000  3
   4824   4827   4830   4831     1  180.0000771  0.0000000  2
   4824   4827   4830   4832     1  180.0000771  0.0000000  2
   4827   4824   4823   4833     1  180.0000771  2.0083200  2
   4827   4824   4823   4833     1  0.0000000  1.2552000  3
   4833   4836   4839   4840     1  180.0000771  0.0000000  2
   4833   4836   4839   4841     1  180.0000771  0.0000000  2
   4843   4846   4849   4852     1  0.0000000  0.6508444  3
   4846   4849   4852   4853     1  180.0000771  2.0083200  2
   4846   4849   4852   4853     1  0.0000000  1.2552000  3
   4846   4849   4852   4862     1  180.0000771  2.0083200  2
   4846   4849   4852   4862     1  0.0000000  1.2552000  3
   4849   4852   4853   4856     1  180.0000771  2.0083200  2
   4849   4852   4853   4856     1  0.0000000  1.2552000  3
   4849   4852   4862   4865     1  180.0000771  2.0083200  2
   4849   4852   4862   4865     1  0.0000000  1.2552000  3
   4849   4846   4843   4871     1  0.0000000  0.6508444  3
   4852   4853   4856   4859     1  0.0000000  0.6508444  3
   4852   4862   4865   4868     1  0.0000000  0.6508444  3
   4853   4856   4859   4860     1  180.0000771  0.0000000  2
   4853   4856   4859   4861     1  180.0000771  0.0000000  2
   4853   4852   4862   4865     1  180.0000771  2.0083200  2
   4853   4852   4862   4865     1  0.0000000  1.2552000  3
   4856   4853   4852   4862     1  180.0000771  2.0083200  2
   4856   4853   4852   4862     1  0.0000000  1.2552000  3
   4862   4865   4868   4869     1  180.0000771  0.0000000  2
   4862   4865   4868   4870     1  180.0000771  0.0000000  2
   4872   4875   4878   4881     1  0.0000000  0.6508444  3
   4875   4878   4881   4882     1  180.0000771  2.0083200  2
   4875   4878   4881   4882     1  0.0000000  1.2552000  3
   4875   4878   4881   4891     1  180.0000771  2.0083200  2
   4875   4878   4881   4891     1  0.0000000  1.2552000  3
   4878   4875   4872   4900     1  0.0000000  0.6508444  3
   4878   4881   4882   4885     1  180.0000771  2.0083200  2
   4878   4881   4882   4885     1  0.0000000  1.2552000  3
   4878   4881   4891   4894     1  180.0000771  2.0083200  2
   4878   4881   4891   4894     1  0.0000000  1.2552000  3
   4881   4882   4885   4888     1  0.0000000  0.6508444  3
   4881   4891   4894   4897     1  0.0000000  0.6508444  3
   4882   4881   4891   4894     1  180.0000771  2.0083200  2
   4882   4881   4891   4894     1  0.0000000  1.2552000  3
   4882   4885   4888   4889     1  180.0000771  0.0000000  2
   4882   4885   4888   4890     1  180.0000771  0.0000000  2
   4885   4882   4881   4891     1  180.0000771  2.0083200  2
   4885   4882   4881   4891     1  0.0000000  1.2552000  3
   4891   4894   4897   4898     1  180.0000771  0.0000000  2
   4891   4894   4897   4899     1  180.0000771  0.0000000  2
   4901   4904   4907   4910     1  0.0000000  0.6508444  3
   4904   4907   4910   4911     1  180.0000771  2.0083200  2
   4904   4907   4910   4911     1  0.0000000  1.2552000  3
   4904   4907   4910   4920     1  180.0000771  2.0083200  2
   4904   4907   4910   4920     1  0.0000000  1.2552000  3
   4907   4910   4911   4914     1  180.0000771  2.0083200  2
   4907   4910   4911   4914     1  0.0000000  1.2552000  3
   4907   4910   4920   4923     1  180.0000771  2.0083200  2
   4907   4910   4920   4923     1  0.0000000  1.2552000  3
   4907   4904   4901   4929     1  0.0000000  0.6508444  3
   4910   4911   4914   4917     1  0.0000000  0.6508444  3
   4910   4920   4923   4926     1  0.0000000  0.6508444  3
   4911   4914   4917   4918     1  180.0000771  0.0000000  2
   4911   4914   4917   4919     1  180.0000771  0.0000000  2
   4911   4910   4920   4923     1  180.0000771  2.0083200  2
   4911   4910   4920   4923     1  0.0000000  1.2552000  3
   4914   4911   4910   4920     1  180.0000771  2.0083200  2
   4914   4911   4910   4920     1  0.0000000  1.2552000  3
   4920   4923   4926   4927     1  180.0000771  0.0000000  2
   4920   4923   4926   4928     1  180.0000771  0.0000000  2
   4930   4933   4936   4939     1  0.0000000  0.6508444  3
   4933   4936   4939   4940     1  180.0000771  2.0083200  2
   4933   4936   4939   4940     1  0.0000000  1.2552000  3
   4933   4936   4939   4949     1  180.0000771  2.0083200  2
   4933   4936   4939   4949     1  0.0000000  1.2552000  3
   4936   4933   4930   4958     1  0.0000000  0.6508444  3
   4936   4939   4940   4943     1  180.0000771  2.0083200  2
   4936   4939   4940   4943     1  0.0000000  1.2552000  3
   4936   4939   4949   4952     1  180.0000771  2.0083200  2
   4936   4939   4949   4952     1  0.0000000  1.2552000  3
   4939   4940   4943   4946     1  0.0000000  0.6508444  3
   4939   4949   4952   4955     1  0.0000000  0.6508444  3
   4940   4939   4949   4952     1  180.0000771  2.0083200  2
   4940   4939   4949   4952     1  0.0000000  1.2552000  3
   4940   4943   4946   4947     1  180.0000771  0.0000000  2
   4940   4943   4946   4948     1  180.0000771  0.0000000  2
   4943   4940   4939   4949     1  180.0000771  2.0083200  2
   4943   4940   4939   4949     1  0.0000000  1.2552000  3
   4949   4952   4955   4956     1  180.0000771  0.0000000  2
   4949   4952   4955   4957     1  180.0000771  0.0000000  2
   4959   4962   4965   4968     1  0.0000000  0.6508444  3
   4962   4965   4968   4969     1  180.0000771  2.0083200  2
   4962   4965   4968   4969     1  0.0000000  1.2552000  3
   4962   4965   4968   4978     1  180.0000771  2.0083200  2
   4962   4965   4968   4978     1  0.0000000  1.2552000  3
   4965   4968   4969   4972     1  180.0000771  2.0083200  2
   4965   4968   4969   4972     1  0.0000000  1.2552000  3
   4965   4968   4978   4981     1  180.0000771  2.0083200  2
   4965   4968   4978   4981     1  0.0000000  1.2552000  3
   4965   4962   4959   4987     1  0.0000000  0.6508444  3
   4968   4969   4972   4975     1  0.0000000  0.6508444  3
   4968   4978   4981   4984     1  0.0000000  0.6508444  3
   4969   4972   4975   4976     1  180.0000771  0.0000000  2
   4969   4972   4975   4977     1  180.0000771  0.0000000  2
   4969   4968   4978   4981     1  180.0000771  2.0083200  2
   4969   4968   4978   4981     1  0.0000000  1.2552000  3
   4972   4969   4968   4978     1  180.0000771  2.0083200  2
   4972   4969   4968   4978     1  0.0000000  1.2552000  3
   4978   4981   4984   4985     1  180.0000771  0.0000000  2
   4978   4981   4984   4986     1  180.0000771  0.0000000  2
   4988   4991   4994   4997     1  0.0000000  0.6508444  3
   4991   4994   4997   4998     1  180.0000771  2.0083200  2
   4991   4994   4997   4998     1  0.0000000  1.2552000  3
   4991   4994   4997   5007     1  180.0000771  2.0083200  2
   4991   4994   4997   5007     1  0.0000000  1.2552000  3
   4994   4991   4988   5016     1  0.0000000  0.6508444  3
   4994   4997   4998   5001     1  180.0000771  2.0083200  2
   4994   4997   4998   5001     1  0.0000000  1.2552000  3
   4994   4997   5007   5010     1  180.0000771  2.0083200  2
   4994   4997   5007   5010     1  0.0000000  1.2552000  3
   4997   4998   5001   5004     1  0.0000000  0.6508444  3
   4997   5007   5010   5013     1  0.0000000  0.6508444  3
   4998   4997   5007   5010     1  180.0000771  2.0083200  2
   4998   4997   5007   5010     1  0.0000000  1.2552000  3
   4998   5001   5004   5005     1  180.0000771  0.0000000  2
   4998   5001   5004   5006     1  180.0000771  0.0000000  2
   5001   4998   4997   5007     1  180.0000771  2.0083200  2
   5001   4998   4997   5007     1  0.0000000  1.2552000  3
   5007   5010   5013   5014     1  180.0000771  0.0000000  2
   5007   5010   5013   5015     1  180.0000771  0.0000000  2
   5017   5020   5023   5026     1  0.0000000  0.6508444  3
   5020   5023   5026   5027     1  180.0000771  2.0083200  2
   5020   5023   5026   5027     1  0.0000000  1.2552000  3
   5020   5023   5026   5036     1  180.0000771  2.0083200  2
   5020   5023   5026   5036     1  0.0000000  1.2552000  3
   5023   5026   5027   5030     1  180.0000771  2.0083200  2
   5023   5026   5027   5030     1  0.0000000  1.2552000  3
   5023   5026   5036   5039     1  180.0000771  2.0083200  2
   5023   5026   5036   5039     1  0.0000000  1.2552000  3
   5023   5020   5017   5045     1  0.0000000  0.6508444  3
   5026   5027   5030   5033     1  0.0000000  0.6508444  3
   5026   5036   5039   5042     1  0.0000000  0.6508444  3
   5027   5030   5033   5034     1  180.0000771  0.0000000  2
   5027   5030   5033   5035     1  180.0000771  0.0000000  2
   5027   5026   5036   5039     1  180.0000771  2.0083200  2
   5027   5026   5036   5039     1  0.0000000  1.2552000  3
   5030   5027   5026   5036     1  180.0000771  2.0083200  2
   5030   5027   5026   5036     1  0.0000000  1.2552000  3
   5036   5039   5042   5043     1  180.0000771  0.0000000  2
   5036   5039   5042   5044     1  180.0000771  0.0000000  2
   5046   5049   5052   5055     1  0.0000000  0.6508444  3
   5049   5052   5055   5056     1  180.0000771  2.0083200  2
   5049   5052   5055   5056     1  0.0000000  1.2552000  3
   5049   5052   5055   5065     1  180.0000771  2.0083200  2
   5049   5052   5055   5065     1  0.0000000  1.2552000  3
   5052   5049   5046   5074     1  0.0000000  0.6508444  3
   5052   5055   5056   5059     1  180.0000771  2.0083200  2
   5052   5055   5056   5059     1  0.0000000  1.2552000  3
   5052   5055   5065   5068     1  180.0000771  2.0083200  2
   5052   5055   5065   5068     1  0.0000000  1.2552000  3
   5055   5056   5059   5062     1  0.0000000  0.6508444  3
   5055   5065   5068   5071     1  0.0000000  0.6508444  3
   5056   5055   5065   5068     1  180.0000771  2.0083200  2
   5056   5055   5065   5068     1  0.0000000  1.2552000  3
   5056   5059   5062   5063     1  180.0000771  0.0000000  2
   5056   5059   5062   5064     1  180.0000771  0.0000000  2
   5059   5056   5055   5065     1  180.0000771  2.0083200  2
   5059   5056   5055   5065     1  0.0000000  1.2552000  3
   5065   5068   5071   5072     1  180.0000771  0.0000000  2
   5065   5068   5071   5073     1  180.0000771  0.0000000  2
   5075   5078   5081   5084     1  0.0000000  0.6508444  3
   5078   5081   5084   5085     1  180.0000771  2.0083200  2
   5078   5081   5084   5085     1  0.0000000  1.2552000  3
   5078   5081   5084   5094     1  180.0000771  2.0083200  2
   5078   5081   5084   5094     1  0.0000000  1.2552000  3
   5081   5084   5085   5088     1  180.0000771  2.0083200  2
   5081   5084   5085   5088     1  0.0000000  1.2552000  3
   5081   5084   5094   5097     1  180.0000771  2.0083200  2
   5081   5084   5094   5097     1  0.0000000  1.2552000  3
   5081   5078   5075   5103     1  0.0000000  0.6508444  3
   5084   5085   5088   5091     1  0.0000000  0.6508444  3
   5084   5094   5097   5100     1  0.0000000  0.6508444  3
   5085   5088   5091   5092     1  180.0000771  0.0000000  2
   5085   5088   5091   5093     1  180.0000771  0.0000000  2
   5085   5084   5094   5097     1  180.0000771  2.0083200  2
   5085   5084   5094   5097     1  0.0000000  1.2552000  3
   5088   5085   5084   5094     1  180.0000771  2.0083200  2
   5088   5085   5084   5094     1  0.0000000  1.2552000  3
   5094   5097   5100   5101     1  180.0000771  0.0000000  2
   5094   5097   5100   5102     1  180.0000771  0.0000000  2
   5104   5107   5110   5113     1  0.0000000  0.6508444  3
   5107   5110   5113   5114     1  180.0000771  2.0083200  2
   5107   5110   5113   5114     1  0.0000000  1.2552000  3
   5107   5110   5113   5123     1  180.0000771  2.0083200  2
   5107   5110   5113   5123     1  0.0000000  1.2552000  3
   5110   5107   5104   5132     1  0.0000000  0.6508444  3
   5110   5113   5114   5117     1  180.0000771  2.0083200  2
   5110   5113   5114   5117     1  0.0000000  1.2552000  3
   5110   5113   5123   5126     1  180.0000771  2.0083200  2
   5110   5113   5123   5126     1  0.0000000  1.2552000  3
   5113   5114   5117   5120     1  0.0000000  0.6508444  3
   5113   5123   5126   5129     1  0.0000000  0.6508444  3
   5114   5113   5123   5126     1  180.0000771  2.0083200  2
   5114   5113   5123   5126     1  0.0000000  1.2552000  3
   5114   5117   5120   5121     1  180.0000771  0.0000000  2
   5114   5117   5120   5122     1  180.0000771  0.0000000  2
   5117   5114   5113   5123     1  180.0000771  2.0083200  2
   5117   5114   5113   5123     1  0.0000000  1.2552000  3
   5123   5126   5129   5130     1  180.0000771  0.0000000  2
   5123   5126   5129   5131     1  180.0000771  0.0000000  2
   5133   5136   5139   5142     1  0.0000000  0.6508444  3
   5136   5139   5142   5143     1  180.0000771  2.0083200  2
   5136   5139   5142   5143     1  0.0000000  1.2552000  3
   5136   5139   5142   5152     1  180.0000771  2.0083200  2
   5136   5139   5142   5152     1  0.0000000  1.2552000  3
   5139   5142   5143   5146     1  180.0000771  2.0083200  2
   5139   5142   5143   5146     1  0.0000000  1.2552000  3
   5139   5142   5152   5155     1  180.0000771  2.0083200  2
   5139   5142   5152   5155     1  0.0000000  1.2552000  3
   5139   5136   5133   5161     1  0.0000000  0.6508444  3
   5142   5143   5146   5149     1  0.0000000  0.6508444  3
   5142   5152   5155   5158     1  0.0000000  0.6508444  3
   5143   5146   5149   5150     1  180.0000771  0.0000000  2
   5143   5146   5149   5151     1  180.0000771  0.0000000  2
   5143   5142   5152   5155     1  180.0000771  2.0083200  2
   5143   5142   5152   5155     1  0.0000000  1.2552000  3
   5146   5143   5142   5152     1  180.0000771  2.0083200  2
   5146   5143   5142   5152     1  0.0000000  1.2552000  3
   5152   5155   5158   5159     1  180.0000771  0.0000000  2
   5152   5155   5158   5160     1  180.0000771  0.0000000  2
   5162   5165   5168   5171     1  0.0000000  0.6508444  3
   5165   5168   5171   5172     1  180.0000771  2.0083200  2
   5165   5168   5171   5172     1  0.0000000  1.2552000  3
   5165   5168   5171   5181     1  180.0000771  2.0083200  2
   5165   5168   5171   5181     1  0.0000000  1.2552000  3
   5168   5165   5162   5190     1  0.0000000  0.6508444  3
   5168   5171   5172   5175     1  180.0000771  2.0083200  2
   5168   5171   5172   5175     1  0.0000000  1.2552000  3
   5168   5171   5181   5184     1  180.0000771  2.0083200  2
   5168   5171   5181   5184     1  0.0000000  1.2552000  3
   5171   5172   5175   5178     1  0.0000000  0.6508444  3
   5171   5181   5184   5187     1  0.0000000  0.6508444  3
   5172   5171   5181   5184     1  180.0000771  2.0083200  2
   5172   5171   5181   5184     1  0.0000000  1.2552000  3
   5172   5175   5178   5179     1  180.0000771  0.0000000  2
   5172   5175   5178   5180     1  180.0000771  0.0000000  2
   5175   5172   5171   5181     1  180.0000771  2.0083200  2
   5175   5172   5171   5181     1  0.0000000  1.2552000  3
   5181   5184   5187   5188     1  180.0000771  0.0000000  2
   5181   5184   5187   5189     1  180.0000771  0.0000000  2
   5191   5194   5197   5200     1  0.0000000  0.6508444  3
   5194   5197   5200   5201     1  180.0000771  2.0083200  2
   5194   5197   5200   5201     1  0.0000000  1.2552000  3
   5194   5197   5200   5210     1  180.0000771  2.0083200  2
   5194   5197   5200   5210     1  0.0000000  1.2552000  3
   5197   5200   5201   5204     1  180.0000771  2.0083200  2
   5197   5200   5201   5204     1  0.0000000  1.2552000  3
   5197   5200   5210   5213     1  180.0000771  2.0083200  2
   5197   5200   5210   5213     1  0.0000000  1.2552000  3
   5197   5194   5191   5219     1  0.0000000  0.6508444  3
   5200   5201   5204   5207     1  0.0000000  0.6508444  3
   5200   5210   5213   5216     1  0.0000000  0.6508444  3
   5201   5204   5207   5208     1  180.0000771  0.0000000  2
   5201   5204   5207   5209     1  180.0000771  0.0000000  2
   5201   5200   5210   5213     1  180.0000771  2.0083200  2
   5201   5200   5210   5213     1  0.0000000  1.2552000  3
   5204   5201   5200   5210     1  180.0000771  2.0083200  2
   5204   5201   5200   5210     1  0.0000000  1.2552000  3
   5210   5213   5216   5217     1  180.0000771  0.0000000  2
   5210   5213   5216   5218     1  180.0000771  0.0000000  2
   5220   5223   5226   5229     1  0.0000000  0.6508444  3
   5223   5226   5229   5230     1  180.0000771  2.0083200  2
   5223   5226   5229   5230     1  0.0000000  1.2552000  3
   5223   5226   5229   5239     1  180.0000771  2.0083200  2
   5223   5226   5229   5239     1  0.0000000  1.2552000  3
   5226   5223   5220   5248     1  0.0000000  0.6508444  3
   5226   5229   5230   5233     1  180.0000771  2.0083200  2
   5226   5229   5230   5233     1  0.0000000  1.2552000  3
   5226   5229   5239   5242     1  180.0000771  2.0083200  2
   5226   5229   5239   5242     1  0.0000000  1.2552000  3
   5229   5230   5233   5236     1  0.0000000  0.6508444  3
   5229   5239   5242   5245     1  0.0000000  0.6508444  3
   5230   5229   5239   5242     1  180.0000771  2.0083200  2
   5230   5229   5239   5242     1  0.0000000  1.2552000  3
   5230   5233   5236   5237     1  180.0000771  0.0000000  2
   5230   5233   5236   5238     1  180.0000771  0.0000000  2
   5233   5230   5229   5239     1  180.0000771  2.0083200  2
   5233   5230   5229   5239     1  0.0000000  1.2552000  3
   5239   5242   5245   5246     1  180.0000771  0.0000000  2
   5239   5242   5245   5247     1  180.0000771  0.0000000  2
   5249   5252   5255   5258     1  0.0000000  0.6508444  3
   5252   5255   5258   5259     1  180.0000771  2.0083200  2
   5252   5255   5258   5259     1  0.0000000  1.2552000  3
   5252   5255   5258   5268     1  180.0000771  2.0083200  2
   5252   5255   5258   5268     1  0.0000000  1.2552000  3
   5255   5258   5259   5262     1  180.0000771  2.0083200  2
   5255   5258   5259   5262     1  0.0000000  1.2552000  3
   5255   5258   5268   5271     1  180.0000771  2.0083200  2
   5255   5258   5268   5271     1  0.0000000  1.2552000  3
   5255   5252   5249   5277     1  0.0000000  0.6508444  3
   5258   5259   5262   5265     1  0.0000000  0.6508444  3
   5258   5268   5271   5274     1  0.0000000  0.6508444  3
   5259   5262   5265   5266     1  180.0000771  0.0000000  2
   5259   5262   5265   5267     1  180.0000771  0.0000000  2
   5259   5258   5268   5271     1  180.0000771  2.0083200  2
   5259   5258   5268   5271     1  0.0000000  1.2552000  3
   5262   5259   5258   5268     1  180.0000771  2.0083200  2
   5262   5259   5258   5268     1  0.0000000  1.2552000  3
   5268   5271   5274   5275     1  180.0000771  0.0000000  2
   5268   5271   5274   5276     1  180.0000771  0.0000000  2
   5278   5281   5284   5287     1  0.0000000  0.6508444  3
   5281   5284   5287   5288     1  180.0000771  2.0083200  2
   5281   5284   5287   5288     1  0.0000000  1.2552000  3
   5281   5284   5287   5297     1  180.0000771  2.0083200  2
   5281   5284   5287   5297     1  0.0000000  1.2552000  3
   5284   5281   5278   5306     1  0.0000000  0.6508444  3
   5284   5287   5288   5291     1  180.0000771  2.0083200  2
   5284   5287   5288   5291     1  0.0000000  1.2552000  3
   5284   5287   5297   5300     1  180.0000771  2.0083200  2
   5284   5287   5297   5300     1  0.0000000  1.2552000  3
   5287   5288   5291   5294     1  0.0000000  0.6508444  3
   5287   5297   5300   5303     1  0.0000000  0.6508444  3
   5288   5287   5297   5300     1  180.0000771  2.0083200  2
   5288   5287   5297   5300     1  0.0000000  1.2552000  3
   5288   5291   5294   5295     1  180.0000771  0.0000000  2
   5288   5291   5294   5296     1  180.0000771  0.0000000  2
   5291   5288   5287   5297     1  180.0000771  2.0083200  2
   5291   5288   5287   5297     1  0.0000000  1.2552000  3
   5297   5300   5303   5304     1  180.0000771  0.0000000  2
   5297   5300   5303   5305     1  180.0000771  0.0000000  2
   5307   5310   5313   5316     1  0.0000000  0.6508444  3
   5310   5313   5316   5317     1  180.0000771  2.0083200  2
   5310   5313   5316   5317     1  0.0000000  1.2552000  3
   5310   5313   5316   5326     1  180.0000771  2.0083200  2
   5310   5313   5316   5326     1  0.0000000  1.2552000  3
   5313   5316   5317   5320     1  180.0000771  2.0083200  2
   5313   5316   5317   5320     1  0.0000000  1.2552000  3
   5313   5316   5326   5329     1  180.0000771  2.0083200  2
   5313   5316   5326   5329     1  0.0000000  1.2552000  3
   5313   5310   5307   5335     1  0.0000000  0.6508444  3
   5316   5317   5320   5323     1  0.0000000  0.6508444  3
   5316   5326   5329   5332     1  0.0000000  0.6508444  3
   5317   5320   5323   5324     1  180.0000771  0.0000000  2
   5317   5320   5323   5325     1  180.0000771  0.0000000  2
   5317   5316   5326   5329     1  180.0000771  2.0083200  2
   5317   5316   5326   5329     1  0.0000000  1.2552000  3
   5320   5317   5316   5326     1  180.0000771  2.0083200  2
   5320   5317   5316   5326     1  0.0000000  1.2552000  3
   5326   5329   5332   5333     1  180.0000771  0.0000000  2
   5326   5329   5332   5334     1  180.0000771  0.0000000  2
   5336   5339   5342   5345     1  0.0000000  0.6508444  3
   5339   5342   5345   5346     1  180.0000771  2.0083200  2
   5339   5342   5345   5346     1  0.0000000  1.2552000  3
   5339   5342   5345   5355     1  180.0000771  2.0083200  2
   5339   5342   5345   5355     1  0.0000000  1.2552000  3
   5342   5339   5336   5364     1  0.0000000  0.6508444  3
   5342   5345   5346   5349     1  180.0000771  2.0083200  2
   5342   5345   5346   5349     1  0.0000000  1.2552000  3
   5342   5345   5355   5358     1  180.0000771  2.0083200  2
   5342   5345   5355   5358     1  0.0000000  1.2552000  3
   5345   5346   5349   5352     1  0.0000000  0.6508444  3
   5345   5355   5358   5361     1  0.0000000  0.6508444  3
   5346   5345   5355   5358     1  180.0000771  2.0083200  2
   5346   5345   5355   5358     1  0.0000000  1.2552000  3
   5346   5349   5352   5353     1  180.0000771  0.0000000  2
   5346   5349   5352   5354     1  180.0000771  0.0000000  2
   5349   5346   5345   5355     1  180.0000771  2.0083200  2
   5349   5346   5345   5355     1  0.0000000  1.2552000  3
   5355   5358   5361   5362     1  180.0000771  0.0000000  2
   5355   5358   5361   5363     1  180.0000771  0.0000000  2
   5365   5368   5371   5374     1  0.0000000  0.6508444  3
   5368   5371   5374   5375     1  180.0000771  2.0083200  2
   5368   5371   5374   5375     1  0.0000000  1.2552000  3
   5368   5371   5374   5384     1  180.0000771  2.0083200  2
   5368   5371   5374   5384     1  0.0000000  1.2552000  3
   5371   5374   5375   5378     1  180.0000771  2.0083200  2
   5371   5374   5375   5378     1  0.0000000  1.2552000  3
   5371   5374   5384   5387     1  180.0000771  2.0083200  2
   5371   5374   5384   5387     1  0.0000000  1.2552000  3
   5371   5368   5365   5393     1  0.0000000  0.6508444  3
   5374   5375   5378   5381     1  0.0000000  0.6508444  3
   5374   5384   5387   5390     1  0.0000000  0.6508444  3
   5375   5378   5381   5382     1  180.0000771  0.0000000  2
   5375   5378   5381   5383     1  180.0000771  0.0000000  2
   5375   5374   5384   5387     1  180.0000771  2.0083200  2
   5375   5374   5384   5387     1  0.0000000  1.2552000  3
   5378   5375   5374   5384     1  180.0000771  2.0083200  2
   5378   5375   5374   5384     1  0.0000000  1.2552000  3
   5384   5387   5390   5391     1  180.0000771  0.0000000  2
   5384   5387   5390   5392     1  180.0000771  0.0000000  2
   5394   5397   5400   5403     1  0.0000000  0.6508444  3
   5397   5400   5403   5404     1  180.0000771  2.0083200  2
   5397   5400   5403   5404     1  0.0000000  1.2552000  3
   5397   5400   5403   5413     1  180.0000771  2.0083200  2
   5397   5400   5403   5413     1  0.0000000  1.2552000  3
   5400   5397   5394   5422     1  0.0000000  0.6508444  3
   5400   5403   5404   5407     1  180.0000771  2.0083200  2
   5400   5403   5404   5407     1  0.0000000  1.2552000  3
   5400   5403   5413   5416     1  180.0000771  2.0083200  2
   5400   5403   5413   5416     1  0.0000000  1.2552000  3
   5403   5404   5407   5410     1  0.0000000  0.6508444  3
   5403   5413   5416   5419     1  0.0000000  0.6508444  3
   5404   5403   5413   5416     1  180.0000771  2.0083200  2
   5404   5403   5413   5416     1  0.0000000  1.2552000  3
   5404   5407   5410   5411     1  180.0000771  0.0000000  2
   5404   5407   5410   5412     1  180.0000771  0.0000000  2
   5407   5404   5403   5413     1  180.0000771  2.0083200  2
   5407   5404   5403   5413     1  0.0000000  1.2552000  3
   5413   5416   5419   5420     1  180.0000771  0.0000000  2
   5413   5416   5419   5421     1  180.0000771  0.0000000  2
   5423   5426   5429   5432     1  0.0000000  0.6508444  3
   5426   5429   5432   5433     1  180.0000771  2.0083200  2
   5426   5429   5432   5433     1  0.0000000  1.2552000  3
   5426   5429   5432   5442     1  180.0000771  2.0083200  2
   5426   5429   5432   5442     1  0.0000000  1.2552000  3
   5429   5432   5433   5436     1  180.0000771  2.0083200  2
   5429   5432   5433   5436     1  0.0000000  1.2552000  3
   5429   5432   5442   5445     1  180.0000771  2.0083200  2
   5429   5432   5442   5445     1  0.0000000  1.2552000  3
   5429   5426   5423   5451     1  0.0000000  0.6508444  3
   5432   5433   5436   5439     1  0.0000000  0.6508444  3
   5432   5442   5445   5448     1  0.0000000  0.6508444  3
   5433   5436   5439   5440     1  180.0000771  0.0000000  2
   5433   5436   5439   5441     1  180.0000771  0.0000000  2
   5433   5432   5442   5445     1  180.0000771  2.0083200  2
   5433   5432   5442   5445     1  0.0000000  1.2552000  3
   5436   5433   5432   5442     1  180.0000771  2.0083200  2
   5436   5433   5432   5442     1  0.0000000  1.2552000  3
   5442   5445   5448   5449     1  180.0000771  0.0000000  2
   5442   5445   5448   5450     1  180.0000771  0.0000000  2
   5452   5455   5458   5461     1  0.0000000  0.6508444  3
   5455   5458   5461   5462     1  180.0000771  2.0083200  2
   5455   5458   5461   5462     1  0.0000000  1.2552000  3
   5455   5458   5461   5471     1  180.0000771  2.0083200  2
   5455   5458   5461   5471     1  0.0000000  1.2552000  3
   5458   5455   5452   5480     1  0.0000000  0.6508444  3
   5458   5461   5462   5465     1  180.0000771  2.0083200  2
   5458   5461   5462   5465     1  0.0000000  1.2552000  3
   5458   5461   5471   5474     1  180.0000771  2.0083200  2
   5458   5461   5471   5474     1  0.0000000  1.2552000  3
   5461   5462   5465   5468     1  0.0000000  0.6508444  3
   5461   5471   5474   5477     1  0.0000000  0.6508444  3
   5462   5461   5471   5474     1  180.0000771  2.0083200  2
   5462   5461   5471   5474     1  0.0000000  1.2552000  3
   5462   5465   5468   5469     1  180.0000771  0.0000000  2
   5462   5465   5468   5470     1  180.0000771  0.0000000  2
   5465   5462   5461   5471     1  180.0000771  2.0083200  2
   5465   5462   5461   5471     1  0.0000000  1.2552000  3
   5471   5474   5477   5478     1  180.0000771  0.0000000  2
   5471   5474   5477   5479     1  180.0000771  0.0000000  2
   5481   5484   5487   5490     1  0.0000000  0.6508444  3
   5484   5487   5490   5491     1  180.0000771  2.0083200  2
   5484   5487   5490   5491     1  0.0000000  1.2552000  3
   5484   5487   5490   5500     1  180.0000771  2.0083200  2
   5484   5487   5490   5500     1  0.0000000  1.2552000  3
   5487   5490   5491   5494     1  180.0000771  2.0083200  2
   5487   5490   5491   5494     1  0.0000000  1.2552000  3
   5487   5490   5500   5503     1  180.0000771  2.0083200  2
   5487   5490   5500   5503     1  0.0000000  1.2552000  3
   5487   5484   5481   5509     1  0.0000000  0.6508444  3
   5490   5491   5494   5497     1  0.0000000  0.6508444  3
   5490   5500   5503   5506     1  0.0000000  0.6508444  3
   5491   5494   5497   5498     1  180.0000771  0.0000000  2
   5491   5494   5497   5499     1  180.0000771  0.0000000  2
   5491   5490   5500   5503     1  180.0000771  2.0083200  2
   5491   5490   5500   5503     1  0.0000000  1.2552000  3
   5494   5491   5490   5500     1  180.0000771  2.0083200  2
   5494   5491   5490   5500     1  0.0000000  1.2552000  3
   5500   5503   5506   5507     1  180.0000771  0.0000000  2
   5500   5503   5506   5508     1  180.0000771  0.0000000  2
   5510   5513   5516   5519     1  0.0000000  0.6508444  3
   5513   5516   5519   5520     1  180.0000771  2.0083200  2
   5513   5516   5519   5520     1  0.0000000  1.2552000  3
   5513   5516   5519   5529     1  180.0000771  2.0083200  2
   5513   5516   5519   5529     1  0.0000000  1.2552000  3
   5516   5513   5510   5538     1  0.0000000  0.6508444  3
   5516   5519   5520   5523     1  180.0000771  2.0083200  2
   5516   5519   5520   5523     1  0.0000000  1.2552000  3
   5516   5519   5529   5532     1  180.0000771  2.0083200  2
   5516   5519   5529   5532     1  0.0000000  1.2552000  3
   5519   5520   5523   5526     1  0.0000000  0.6508444  3
   5519   5529   5532   5535     1  0.0000000  0.6508444  3
   5520   5519   5529   5532     1  180.0000771  2.0083200  2
   5520   5519   5529   5532     1  0.0000000  1.2552000  3
   5520   5523   5526   5527     1  180.0000771  0.0000000  2
   5520   5523   5526   5528     1  180.0000771  0.0000000  2
   5523   5520   5519   5529     1  180.0000771  2.0083200  2
   5523   5520   5519   5529     1  0.0000000  1.2552000  3
   5529   5532   5535   5536     1  180.0000771  0.0000000  2
   5529   5532   5535   5537     1  180.0000771  0.0000000  2
   5539   5542   5545   5548     1  0.0000000  0.6508444  3
   5542   5545   5548   5549     1  180.0000771  2.0083200  2
   5542   5545   5548   5549     1  0.0000000  1.2552000  3
   5542   5545   5548   5558     1  180.0000771  2.0083200  2
   5542   5545   5548   5558     1  0.0000000  1.2552000  3
   5545   5548   5549   5552     1  180.0000771  2.0083200  2
   5545   5548   5549   5552     1  0.0000000  1.2552000  3
   5545   5548   5558   5561     1  180.0000771  2.0083200  2
   5545   5548   5558   5561     1  0.0000000  1.2552000  3
   5545   5542   5539   5567     1  0.0000000  0.6508444  3
   5548   5549   5552   5555     1  0.0000000  0.6508444  3
   5548   5558   5561   5564     1  0.0000000  0.6508444  3
   5549   5552   5555   5556     1  180.0000771  0.0000000  2
   5549   5552   5555   5557     1  180.0000771  0.0000000  2
   5549   5548   5558   5561     1  180.0000771  2.0083200  2
   5549   5548   5558   5561     1  0.0000000  1.2552000  3
   5552   5549   5548   5558     1  180.0000771  2.0083200  2
   5552   5549   5548   5558     1  0.0000000  1.2552000  3
   5558   5561   5564   5565     1  180.0000771  0.0000000  2
   5558   5561   5564   5566     1  180.0000771  0.0000000  2
   5568   5571   5574   5577     1  0.0000000  0.6508444  3
   5571   5574   5577   5578     1  180.0000771  2.0083200  2
   5571   5574   5577   5578     1  0.0000000  1.2552000  3
   5571   5574   5577   5587     1  180.0000771  2.0083200  2
   5571   5574   5577   5587     1  0.0000000  1.2552000  3
   5574   5571   5568   5596     1  0.0000000  0.6508444  3
   5574   5577   5578   5581     1  180.0000771  2.0083200  2
   5574   5577   5578   5581     1  0.0000000  1.2552000  3
   5574   5577   5587   5590     1  180.0000771  2.0083200  2
   5574   5577   5587   5590     1  0.0000000  1.2552000  3
   5577   5578   5581   5584     1  0.0000000  0.6508444  3
   5577   5587   5590   5593     1  0.0000000  0.6508444  3
   5578   5577   5587   5590     1  180.0000771  2.0083200  2
   5578   5577   5587   5590     1  0.0000000  1.2552000  3
   5578   5581   5584   5585     1  180.0000771  0.0000000  2
   5578   5581   5584   5586     1  180.0000771  0.0000000  2
   5581   5578   5577   5587     1  180.0000771  2.0083200  2
   5581   5578   5577   5587     1  0.0000000  1.2552000  3
   5587   5590   5593   5594     1  180.0000771  0.0000000  2
   5587   5590   5593   5595     1  180.0000771  0.0000000  2
   5597   5600   5603   5606     1  0.0000000  0.6508444  3
   5600   5603   5606   5607     1  180.0000771  2.0083200  2
   5600   5603   5606   5607     1  0.0000000  1.2552000  3
   5600   5603   5606   5616     1  180.0000771  2.0083200  2
   5600   5603   5606   5616     1  0.0000000  1.2552000  3
   5603   5606   5607   5610     1  180.0000771  2.0083200  2
   5603   5606   5607   5610     1  0.0000000  1.2552000  3
   5603   5606   5616   5619     1  180.0000771  2.0083200  2
   5603   5606   5616   5619     1  0.0000000  1.2552000  3
   5603   5600   5597   5625     1  0.0000000  0.6508444  3
   5606   5607   5610   5613     1  0.0000000  0.6508444  3
   5606   5616   5619   5622     1  0.0000000  0.6508444  3
   5607   5610   5613   5614     1  180.0000771  0.0000000  2
   5607   5610   5613   5615     1  180.0000771  0.0000000  2
   5607   5606   5616   5619     1  180.0000771  2.0083200  2
   5607   5606   5616   5619     1  0.0000000  1.2552000  3
   5610   5607   5606   5616     1  180.0000771  2.0083200  2
   5610   5607   5606   5616     1  0.0000000  1.2552000  3
   5616   5619   5622   5623     1  180.0000771  0.0000000  2
   5616   5619   5622   5624     1  180.0000771  0.0000000  2
   5626   5629   5632   5635     1  0.0000000  0.6508444  3
   5629   5632   5635   5636     1  180.0000771  2.0083200  2
   5629   5632   5635   5636     1  0.0000000  1.2552000  3
   5629   5632   5635   5645     1  180.0000771  2.0083200  2
   5629   5632   5635   5645     1  0.0000000  1.2552000  3
   5632   5629   5626   5654     1  0.0000000  0.6508444  3
   5632   5635   5636   5639     1  180.0000771  2.0083200  2
   5632   5635   5636   5639     1  0.0000000  1.2552000  3
   5632   5635   5645   5648     1  180.0000771  2.0083200  2
   5632   5635   5645   5648     1  0.0000000  1.2552000  3
   5635   5636   5639   5642     1  0.0000000  0.6508444  3
   5635   5645   5648   5651     1  0.0000000  0.6508444  3
   5636   5635   5645   5648     1  180.0000771  2.0083200  2
   5636   5635   5645   5648     1  0.0000000  1.2552000  3
   5636   5639   5642   5643     1  180.0000771  0.0000000  2
   5636   5639   5642   5644     1  180.0000771  0.0000000  2
   5639   5636   5635   5645     1  180.0000771  2.0083200  2
   5639   5636   5635   5645     1  0.0000000  1.2552000  3
   5645   5648   5651   5652     1  180.0000771  0.0000000  2
   5645   5648   5651   5653     1  180.0000771  0.0000000  2
   5655   5658   5661   5664     1  0.0000000  0.6508444  3
   5658   5661   5664   5665     1  180.0000771  2.0083200  2
   5658   5661   5664   5665     1  0.0000000  1.2552000  3
   5658   5661   5664   5674     1  180.0000771  2.0083200  2
   5658   5661   5664   5674     1  0.0000000  1.2552000  3
   5661   5664   5665   5668     1  180.0000771  2.0083200  2
   5661   5664   5665   5668     1  0.0000000  1.2552000  3
   5661   5664   5674   5677     1  180.0000771  2.0083200  2
   5661   5664   5674   5677     1  0.0000000  1.2552000  3
   5661   5658   5655   5683     1  0.0000000  0.6508444  3
   5664   5665   5668   5671     1  0.0000000  0.6508444  3
   5664   5674   5677   5680     1  0.0000000  0.6508444  3
   5665   5668   5671   5672     1  180.0000771  0.0000000  2
   5665   5668   5671   5673     1  180.0000771  0.0000000  2
   5665   5664   5674   5677     1  180.0000771  2.0083200  2
   5665   5664   5674   5677     1  0.0000000  1.2552000  3
   5668   5665   5664   5674     1  180.0000771  2.0083200  2
   5668   5665   5664   5674     1  0.0000000  1.2552000  3
   5674   5677   5680   5681     1  180.0000771  0.0000000  2
   5674   5677   5680   5682     1  180.0000771  0.0000000  2
   5684   5687   5690   5693     1  0.0000000  0.6508444  3
   5687   5690   5693   5694     1  180.0000771  2.0083200  2
   5687   5690   5693   5694     1  0.0000000  1.2552000  3
   5687   5690   5693   5703     1  180.0000771  2.0083200  2
   5687   5690   5693   5703     1  0.0000000  1.2552000  3
   5690   5687   5684   5712     1  0.0000000  0.6508444  3
   5690   5693   5694   5697     1  180.0000771  2.0083200  2
   5690   5693   5694   5697     1  0.0000000  1.2552000  3
   5690   5693   5703   5706     1  180.0000771  2.0083200  2
   5690   5693   5703   5706     1  0.0000000  1.2552000  3
   5693   5694   5697   5700     1  0.0000000  0.6508444  3
   5693   5703   5706   5709     1  0.0000000  0.6508444  3
   5694   5693   5703   5706     1  180.0000771  2.0083200  2
   5694   5693   5703   5706     1  0.0000000  1.2552000  3
   5694   5697   5700   5701     1  180.0000771  0.0000000  2
   5694   5697   5700   5702     1  180.0000771  0.0000000  2
   5697   5694   5693   5703     1  180.0000771  2.0083200  2
   5697   5694   5693   5703     1  0.0000000  1.2552000  3
   5703   5706   5709   5710     1  180.0000771  0.0000000  2
   5703   5706   5709   5711     1  180.0000771  0.0000000  2
   5713   5716   5719   5722     1  0.0000000  0.6508444  3
   5716   5719   5722   5723     1  180.0000771  2.0083200  2
   5716   5719   5722   5723     1  0.0000000  1.2552000  3
   5716   5719   5722   5732     1  180.0000771  2.0083200  2
   5716   5719   5722   5732     1  0.0000000  1.2552000  3
   5719   5722   5723   5726     1  180.0000771  2.0083200  2
   5719   5722   5723   5726     1  0.0000000  1.2552000  3
   5719   5722   5732   5735     1  180.0000771  2.0083200  2
   5719   5722   5732   5735     1  0.0000000  1.2552000  3
   5719   5716   5713   5741     1  0.0000000  0.6508444  3
   5722   5723   5726   5729     1  0.0000000  0.6508444  3
   5722   5732   5735   5738     1  0.0000000  0.6508444  3
   5723   5726   5729   5730     1  180.0000771  0.0000000  2
   5723   5726   5729   5731     1  180.0000771  0.0000000  2
   5723   5722   5732   5735     1  180.0000771  2.0083200  2
   5723   5722   5732   5735     1  0.0000000  1.2552000  3
   5726   5723   5722   5732     1  180.0000771  2.0083200  2
   5726   5723   5722   5732     1  0.0000000  1.2552000  3
   5732   5735   5738   5739     1  180.0000771  0.0000000  2
   5732   5735   5738   5740     1  180.0000771  0.0000000  2
   5742   5745   5748   5751     1  0.0000000  0.6508444  3
   5745   5748   5751   5752     1  180.0000771  2.0083200  2
   5745   5748   5751   5752     1  0.0000000  1.2552000  3
   5745   5748   5751   5761     1  180.0000771  2.0083200  2
   5745   5748   5751   5761     1  0.0000000  1.2552000  3
   5748   5745   5742   5770     1  0.0000000  0.6508444  3
   5748   5751   5752   5755     1  180.0000771  2.0083200  2
   5748   5751   5752   5755     1  0.0000000  1.2552000  3
   5748   5751   5761   5764     1  180.0000771  2.0083200  2
   5748   5751   5761   5764     1  0.0000000  1.2552000  3
   5751   5752   5755   5758     1  0.0000000  0.6508444  3
   5751   5761   5764   5767     1  0.0000000  0.6508444  3
   5752   5751   5761   5764     1  180.0000771  2.0083200  2
   5752   5751   5761   5764     1  0.0000000  1.2552000  3
   5752   5755   5758   5759     1  180.0000771  0.0000000  2
   5752   5755   5758   5760     1  180.0000771  0.0000000  2
   5755   5752   5751   5761     1  180.0000771  2.0083200  2
   5755   5752   5751   5761     1  0.0000000  1.2552000  3
   5761   5764   5767   5768     1  180.0000771  0.0000000  2
   5761   5764   5767   5769     1  180.0000771  0.0000000  2
   5771   5774   5777   5780     1  0.0000000  0.6508444  3
   5774   5777   5780   5781     1  180.0000771  2.0083200  2
   5774   5777   5780   5781     1  0.0000000  1.2552000  3
   5774   5777   5780   5790     1  180.0000771  2.0083200  2
   5774   5777   5780   5790     1  0.0000000  1.2552000  3
   5777   5780   5781   5784     1  180.0000771  2.0083200  2
   5777   5780   5781   5784     1  0.0000000  1.2552000  3
   5777   5780   5790   5793     1  180.0000771  2.0083200  2
   5777   5780   5790   5793     1  0.0000000  1.2552000  3
   5777   5774   5771   5799     1  0.0000000  0.6508444  3
   5780   5781   5784   5787     1  0.0000000  0.6508444  3
   5780   5790   5793   5796     1  0.0000000  0.6508444  3
   5781   5784   5787   5788     1  180.0000771  0.0000000  2
   5781   5784   5787   5789     1  180.0000771  0.0000000  2
   5781   5780   5790   5793     1  180.0000771  2.0083200  2
   5781   5780   5790   5793     1  0.0000000  1.2552000  3
   5784   5781   5780   5790     1  180.0000771  2.0083200  2
   5784   5781   5780   5790     1  0.0000000  1.2552000  3
   5790   5793   5796   5797     1  180.0000771  0.0000000  2
   5790   5793   5796   5798     1  180.0000771  0.0000000  2
   5800   5803   5806   5809     1  0.0000000  0.6508444  3
   5803   5806   5809   5810     1  180.0000771  2.0083200  2
   5803   5806   5809   5810     1  0.0000000  1.2552000  3
   5803   5806   5809   5819     1  180.0000771  2.0083200  2
   5803   5806   5809   5819     1  0.0000000  1.2552000  3
   5806   5803   5800   5828     1  0.0000000  0.6508444  3
   5806   5809   5810   5813     1  180.0000771  2.0083200  2
   5806   5809   5810   5813     1  0.0000000  1.2552000  3
   5806   5809   5819   5822     1  180.0000771  2.0083200  2
   5806   5809   5819   5822     1  0.0000000  1.2552000  3
   5809   5810   5813   5816     1  0.0000000  0.6508444  3
   5809   5819   5822   5825     1  0.0000000  0.6508444  3
   5810   5809   5819   5822     1  180.0000771  2.0083200  2
   5810   5809   5819   5822     1  0.0000000  1.2552000  3
   5810   5813   5816   5817     1  180.0000771  0.0000000  2
   5810   5813   5816   5818     1  180.0000771  0.0000000  2
   5813   5810   5809   5819     1  180.0000771  2.0083200  2
   5813   5810   5809   5819     1  0.0000000  1.2552000  3
   5819   5822   5825   5826     1  180.0000771  0.0000000  2
   5819   5822   5825   5827     1  180.0000771  0.0000000  2
   5829   5832   5835   5838     1  0.0000000  0.6508444  3
   5832   5835   5838   5839     1  180.0000771  2.0083200  2
   5832   5835   5838   5839     1  0.0000000  1.2552000  3
   5832   5835   5838   5848     1  180.0000771  2.0083200  2
   5832   5835   5838   5848     1  0.0000000  1.2552000  3
   5835   5838   5839   5842     1  180.0000771  2.0083200  2
   5835   5838   5839   5842     1  0.0000000  1.2552000  3
   5835   5838   5848   5851     1  180.0000771  2.0083200  2
   5835   5838   5848   5851     1  0.0000000  1.2552000  3
   5835   5832   5829   5857     1  0.0000000  0.6508444  3
   5838   5839   5842   5845     1  0.0000000  0.6508444  3
   5838   5848   5851   5854     1  0.0000000  0.6508444  3
   5839   5842   5845   5846     1  180.0000771  0.0000000  2
   5839   5842   5845   5847     1  180.0000771  0.0000000  2
   5839   5838   5848   5851     1  180.0000771  2.0083200  2
   5839   5838   5848   5851     1  0.0000000  1.2552000  3
   5842   5839   5838   5848     1  180.0000771  2.0083200  2
   5842   5839   5838   5848     1  0.0000000  1.2552000  3
   5848   5851   5854   5855     1  180.0000771  0.0000000  2
   5848   5851   5854   5856     1  180.0000771  0.0000000  2
   5858   5861   5864   5867     1  0.0000000  0.6508444  3
   5861   5864   5867   5868     1  180.0000771  2.0083200  2
   5861   5864   5867   5868     1  0.0000000  1.2552000  3
   5861   5864   5867   5877     1  180.0000771  2.0083200  2
   5861   5864   5867   5877     1  0.0000000  1.2552000  3
   5864   5861   5858   5886     1  0.0000000  0.6508444  3
   5864   5867   5868   5871     1  180.0000771  2.0083200  2
   5864   5867   5868   5871     1  0.0000000  1.2552000  3
   5864   5867   5877   5880     1  180.0000771  2.0083200  2
   5864   5867   5877   5880     1  0.0000000  1.2552000  3
   5867   5868   5871   5874     1  0.0000000  0.6508444  3
   5867   5877   5880   5883     1  0.0000000  0.6508444  3
   5868   5867   5877   5880     1  180.0000771  2.0083200  2
   5868   5867   5877   5880     1  0.0000000  1.2552000  3
   5868   5871   5874   5875     1  180.0000771  0.0000000  2
   5868   5871   5874   5876     1  180.0000771  0.0000000  2
   5871   5868   5867   5877     1  180.0000771  2.0083200  2
   5871   5868   5867   5877     1  0.0000000  1.2552000  3
   5877   5880   5883   5884     1  180.0000771  0.0000000  2
   5877   5880   5883   5885     1  180.0000771  0.0000000  2
   5887   5890   5893   5896     1  0.0000000  0.6508444  3
   5890   5893   5896   5897     1  180.0000771  2.0083200  2
   5890   5893   5896   5897     1  0.0000000  1.2552000  3
   5890   5893   5896   5906     1  180.0000771  2.0083200  2
   5890   5893   5896   5906     1  0.0000000  1.2552000  3
   5893   5896   5897   5900     1  180.0000771  2.0083200  2
   5893   5896   5897   5900     1  0.0000000  1.2552000  3
   5893   5896   5906   5909     1  180.0000771  2.0083200  2
   5893   5896   5906   5909     1  0.0000000  1.2552000  3
   5893   5890   5887   5915     1  0.0000000  0.6508444  3
   5896   5897   5900   5903     1  0.0000000  0.6508444  3
   5896   5906   5909   5912     1  0.0000000  0.6508444  3
   5897   5900   5903   5904     1  180.0000771  0.0000000  2
   5897   5900   5903   5905     1  180.0000771  0.0000000  2
   5897   5896   5906   5909     1  180.0000771  2.0083200  2
   5897   5896   5906   5909     1  0.0000000  1.2552000  3
   5900   5897   5896   5906     1  180.0000771  2.0083200  2
   5900   5897   5896   5906     1  0.0000000  1.2552000  3
   5906   5909   5912   5913     1  180.0000771  0.0000000  2
   5906   5909   5912   5914     1  180.0000771  0.0000000  2
   5916   5919   5922   5925     1  0.0000000  0.6508444  3
   5919   5922   5925   5926     1  180.0000771  2.0083200  2
   5919   5922   5925   5926     1  0.0000000  1.2552000  3
   5919   5922   5925   5935     1  180.0000771  2.0083200  2
   5919   5922   5925   5935     1  0.0000000  1.2552000  3
   5922   5919   5916   5944     1  0.0000000  0.6508444  3
   5922   5925   5926   5929     1  180.0000771  2.0083200  2
   5922   5925   5926   5929     1  0.0000000  1.2552000  3
   5922   5925   5935   5938     1  180.0000771  2.0083200  2
   5922   5925   5935   5938     1  0.0000000  1.2552000  3
   5925   5926   5929   5932     1  0.0000000  0.6508444  3
   5925   5935   5938   5941     1  0.0000000  0.6508444  3
   5926   5925   5935   5938     1  180.0000771  2.0083200  2
   5926   5925   5935   5938     1  0.0000000  1.2552000  3
   5926   5929   5932   5933     1  180.0000771  0.0000000  2
   5926   5929   5932   5934     1  180.0000771  0.0000000  2
   5929   5926   5925   5935     1  180.0000771  2.0083200  2
   5929   5926   5925   5935     1  0.0000000  1.2552000  3
   5935   5938   5941   5942     1  180.0000771  0.0000000  2
   5935   5938   5941   5943     1  180.0000771  0.0000000  2
   5945   5948   5951   5954     1  0.0000000  0.6508444  3
   5948   5951   5954   5955     1  180.0000771  2.0083200  2
   5948   5951   5954   5955     1  0.0000000  1.2552000  3
   5948   5951   5954   5964     1  180.0000771  2.0083200  2
   5948   5951   5954   5964     1  0.0000000  1.2552000  3
   5951   5954   5955   5958     1  180.0000771  2.0083200  2
   5951   5954   5955   5958     1  0.0000000  1.2552000  3
   5951   5954   5964   5967     1  180.0000771  2.0083200  2
   5951   5954   5964   5967     1  0.0000000  1.2552000  3
   5951   5948   5945   5973     1  0.0000000  0.6508444  3
   5954   5955   5958   5961     1  0.0000000  0.6508444  3
   5954   5964   5967   5970     1  0.0000000  0.6508444  3
   5955   5958   5961   5962     1  180.0000771  0.0000000  2
   5955   5958   5961   5963     1  180.0000771  0.0000000  2
   5955   5954   5964   5967     1  180.0000771  2.0083200  2
   5955   5954   5964   5967     1  0.0000000  1.2552000  3
   5958   5955   5954   5964     1  180.0000771  2.0083200  2
   5958   5955   5954   5964     1  0.0000000  1.2552000  3
   5964   5967   5970   5971     1  180.0000771  0.0000000  2
   5964   5967   5970   5972     1  180.0000771  0.0000000  2
   5974   5977   5980   5983     1  0.0000000  0.6508444  3
   5977   5980   5983   5984     1  180.0000771  2.0083200  2
   5977   5980   5983   5984     1  0.0000000  1.2552000  3
   5977   5980   5983   5993     1  180.0000771  2.0083200  2
   5977   5980   5983   5993     1  0.0000000  1.2552000  3
   5980   5977   5974   6002     1  0.0000000  0.6508444  3
   5980   5983   5984   5987     1  180.0000771  2.0083200  2
   5980   5983   5984   5987     1  0.0000000  1.2552000  3
   5980   5983   5993   5996     1  180.0000771  2.0083200  2
   5980   5983   5993   5996     1  0.0000000  1.2552000  3
   5983   5984   5987   5990     1  0.0000000  0.6508444  3
   5983   5993   5996   5999     1  0.0000000  0.6508444  3
   5984   5983   5993   5996     1  180.0000771  2.0083200  2
   5984   5983   5993   5996     1  0.0000000  1.2552000  3
   5984   5987   5990   5991     1  180.0000771  0.0000000  2
   5984   5987   5990   5992     1  180.0000771  0.0000000  2
   5987   5984   5983   5993     1  180.0000771  2.0083200  2
   5987   5984   5983   5993     1  0.0000000  1.2552000  3
   5993   5996   5999   6000     1  180.0000771  0.0000000  2
   5993   5996   5999   6001     1  180.0000771  0.0000000  2
   6003   6006   6009   6012     1  0.0000000  0.6508444  3
   6006   6009   6012   6013     1  180.0000771  2.0083200  2
   6006   6009   6012   6013     1  0.0000000  1.2552000  3
   6006   6009   6012   6022     1  180.0000771  2.0083200  2
   6006   6009   6012   6022     1  0.0000000  1.2552000  3
   6009   6012   6013   6016     1  180.0000771  2.0083200  2
   6009   6012   6013   6016     1  0.0000000  1.2552000  3
   6009   6012   6022   6025     1  180.0000771  2.0083200  2
   6009   6012   6022   6025     1  0.0000000  1.2552000  3
   6009   6006   6003   6031     1  0.0000000  0.6508444  3
   6012   6013   6016   6019     1  0.0000000  0.6508444  3
   6012   6022   6025   6028     1  0.0000000  0.6508444  3
   6013   6016   6019   6020     1  180.0000771  0.0000000  2
   6013   6016   6019   6021     1  180.0000771  0.0000000  2
   6013   6012   6022   6025     1  180.0000771  2.0083200  2
   6013   6012   6022   6025     1  0.0000000  1.2552000  3
   6016   6013   6012   6022     1  180.0000771  2.0083200  2
   6016   6013   6012   6022     1  0.0000000  1.2552000  3
   6022   6025   6028   6029     1  180.0000771  0.0000000  2
   6022   6025   6028   6030     1  180.0000771  0.0000000  2
   6032   6035   6038   6041     1  0.0000000  0.6508444  3
   6035   6038   6041   6042     1  180.0000771  2.0083200  2
   6035   6038   6041   6042     1  0.0000000  1.2552000  3
   6035   6038   6041   6051     1  180.0000771  2.0083200  2
   6035   6038   6041   6051     1  0.0000000  1.2552000  3
   6038   6035   6032   6060     1  0.0000000  0.6508444  3
   6038   6041   6042   6045     1  180.0000771  2.0083200  2
   6038   6041   6042   6045     1  0.0000000  1.2552000  3
   6038   6041   6051   6054     1  180.0000771  2.0083200  2
   6038   6041   6051   6054     1  0.0000000  1.2552000  3
   6041   6042   6045   6048     1  0.0000000  0.6508444  3
   6041   6051   6054   6057     1  0.0000000  0.6508444  3
   6042   6041   6051   6054     1  180.0000771  2.0083200  2
   6042   6041   6051   6054     1  0.0000000  1.2552000  3
   6042   6045   6048   6049     1  180.0000771  0.0000000  2
   6042   6045   6048   6050     1  180.0000771  0.0000000  2
   6045   6042   6041   6051     1  180.0000771  2.0083200  2
   6045   6042   6041   6051     1  0.0000000  1.2552000  3
   6051   6054   6057   6058     1  180.0000771  0.0000000  2
   6051   6054   6057   6059     1  180.0000771  0.0000000  2
   6061   6064   6067   6070     1  0.0000000  0.6508444  3
   6064   6067   6070   6071     1  180.0000771  2.0083200  2
   6064   6067   6070   6071     1  0.0000000  1.2552000  3
   6064   6067   6070   6080     1  180.0000771  2.0083200  2
   6064   6067   6070   6080     1  0.0000000  1.2552000  3
   6067   6070   6071   6074     1  180.0000771  2.0083200  2
   6067   6070   6071   6074     1  0.0000000  1.2552000  3
   6067   6070   6080   6083     1  180.0000771  2.0083200  2
   6067   6070   6080   6083     1  0.0000000  1.2552000  3
   6067   6064   6061   6089     1  0.0000000  0.6508444  3
   6070   6071   6074   6077     1  0.0000000  0.6508444  3
   6070   6080   6083   6086     1  0.0000000  0.6508444  3
   6071   6074   6077   6078     1  180.0000771  0.0000000  2
   6071   6074   6077   6079     1  180.0000771  0.0000000  2
   6071   6070   6080   6083     1  180.0000771  2.0083200  2
   6071   6070   6080   6083     1  0.0000000  1.2552000  3
   6074   6071   6070   6080     1  180.0000771  2.0083200  2
   6074   6071   6070   6080     1  0.0000000  1.2552000  3
   6080   6083   6086   6087     1  180.0000771  0.0000000  2
   6080   6083   6086   6088     1  180.0000771  0.0000000  2
   6090   6093   6096   6099     1  0.0000000  0.6508444  3
   6093   6096   6099   6100     1  180.0000771  2.0083200  2
   6093   6096   6099   6100     1  0.0000000  1.2552000  3
   6093   6096   6099   6109     1  180.0000771  2.0083200  2
   6093   6096   6099   6109     1  0.0000000  1.2552000  3
   6096   6093   6090   6118     1  0.0000000  0.6508444  3
   6096   6099   6100   6103     1  180.0000771  2.0083200  2
   6096   6099   6100   6103     1  0.0000000  1.2552000  3
   6096   6099   6109   6112     1  180.0000771  2.0083200  2
   6096   6099   6109   6112     1  0.0000000  1.2552000  3
   6099   6100   6103   6106     1  0.0000000  0.6508444  3
   6099   6109   6112   6115     1  0.0000000  0.6508444  3
   6100   6099   6109   6112     1  180.0000771  2.0083200  2
   6100   6099   6109   6112     1  0.0000000  1.2552000  3
   6100   6103   6106   6107     1  180.0000771  0.0000000  2
   6100   6103   6106   6108     1  180.0000771  0.0000000  2
   6103   6100   6099   6109     1  180.0000771  2.0083200  2
   6103   6100   6099   6109     1  0.0000000  1.2552000  3
   6109   6112   6115   6116     1  180.0000771  0.0000000  2
   6109   6112   6115   6117     1  180.0000771  0.0000000  2
   6119   6122   6125   6128     1  0.0000000  0.6508444  3
   6122   6125   6128   6129     1  180.0000771  2.0083200  2
   6122   6125   6128   6129     1  0.0000000  1.2552000  3
   6122   6125   6128   6138     1  180.0000771  2.0083200  2
   6122   6125   6128   6138     1  0.0000000  1.2552000  3
   6125   6128   6129   6132     1  180.0000771  2.0083200  2
   6125   6128   6129   6132     1  0.0000000  1.2552000  3
   6125   6128   6138   6141     1  180.0000771  2.0083200  2
   6125   6128   6138   6141     1  0.0000000  1.2552000  3
   6125   6122   6119   6147     1  0.0000000  0.6508444  3
   6128   6129   6132   6135     1  0.0000000  0.6508444  3
   6128   6138   6141   6144     1  0.0000000  0.6508444  3
   6129   6132   6135   6136     1  180.0000771  0.0000000  2
   6129   6132   6135   6137     1  180.0000771  0.0000000  2
   6129   6128   6138   6141     1  180.0000771  2.0083200  2
   6129   6128   6138   6141     1  0.0000000  1.2552000  3
   6132   6129   6128   6138     1  180.0000771  2.0083200  2
   6132   6129   6128   6138     1  0.0000000  1.2552000  3
   6138   6141   6144   6145     1  180.0000771  0.0000000  2
   6138   6141   6144   6146     1  180.0000771  0.0000000  2
   6148   6151   6154   6157     1  0.0000000  0.6508444  3
   6151   6154   6157   6158     1  180.0000771  2.0083200  2
   6151   6154   6157   6158     1  0.0000000  1.2552000  3
   6151   6154   6157   6167     1  180.0000771  2.0083200  2
   6151   6154   6157   6167     1  0.0000000  1.2552000  3
   6154   6151   6148   6176     1  0.0000000  0.6508444  3
   6154   6157   6158   6161     1  180.0000771  2.0083200  2
   6154   6157   6158   6161     1  0.0000000  1.2552000  3
   6154   6157   6167   6170     1  180.0000771  2.0083200  2
   6154   6157   6167   6170     1  0.0000000  1.2552000  3
   6157   6158   6161   6164     1  0.0000000  0.6508444  3
   6157   6167   6170   6173     1  0.0000000  0.6508444  3
   6158   6157   6167   6170     1  180.0000771  2.0083200  2
   6158   6157   6167   6170     1  0.0000000  1.2552000  3
   6158   6161   6164   6165     1  180.0000771  0.0000000  2
   6158   6161   6164   6166     1  180.0000771  0.0000000  2
   6161   6158   6157   6167     1  180.0000771  2.0083200  2
   6161   6158   6157   6167     1  0.0000000  1.2552000  3
   6167   6170   6173   6174     1  180.0000771  0.0000000  2
   6167   6170   6173   6175     1  180.0000771  0.0000000  2
   6177   6180   6183   6186     1  0.0000000  0.6508444  3
   6180   6183   6186   6187     1  180.0000771  2.0083200  2
   6180   6183   6186   6187     1  0.0000000  1.2552000  3
   6180   6183   6186   6196     1  180.0000771  2.0083200  2
   6180   6183   6186   6196     1  0.0000000  1.2552000  3
   6183   6186   6187   6190     1  180.0000771  2.0083200  2
   6183   6186   6187   6190     1  0.0000000  1.2552000  3
   6183   6186   6196   6199     1  180.0000771  2.0083200  2
   6183   6186   6196   6199     1  0.0000000  1.2552000  3
   6183   6180   6177   6205     1  0.0000000  0.6508444  3
   6186   6187   6190   6193     1  0.0000000  0.6508444  3
   6186   6196   6199   6202     1  0.0000000  0.6508444  3
   6187   6190   6193   6194     1  180.0000771  0.0000000  2
   6187   6190   6193   6195     1  180.0000771  0.0000000  2
   6187   6186   6196   6199     1  180.0000771  2.0083200  2
   6187   6186   6196   6199     1  0.0000000  1.2552000  3
   6190   6187   6186   6196     1  180.0000771  2.0083200  2
   6190   6187   6186   6196     1  0.0000000  1.2552000  3
   6196   6199   6202   6203     1  180.0000771  0.0000000  2
   6196   6199   6202   6204     1  180.0000771  0.0000000  2
   6206   6209   6212   6215     1  0.0000000  0.6508444  3
   6209   6212   6215   6216     1  180.0000771  2.0083200  2
   6209   6212   6215   6216     1  0.0000000  1.2552000  3
   6209   6212   6215   6225     1  180.0000771  2.0083200  2
   6209   6212   6215   6225     1  0.0000000  1.2552000  3
   6212   6209   6206   6234     1  0.0000000  0.6508444  3
   6212   6215   6216   6219     1  180.0000771  2.0083200  2
   6212   6215   6216   6219     1  0.0000000  1.2552000  3
   6212   6215   6225   6228     1  180.0000771  2.0083200  2
   6212   6215   6225   6228     1  0.0000000  1.2552000  3
   6215   6216   6219   6222     1  0.0000000  0.6508444  3
   6215   6225   6228   6231     1  0.0000000  0.6508444  3
   6216   6215   6225   6228     1  180.0000771  2.0083200  2
   6216   6215   6225   6228     1  0.0000000  1.2552000  3
   6216   6219   6222   6223     1  180.0000771  0.0000000  2
   6216   6219   6222   6224     1  180.0000771  0.0000000  2
   6219   6216   6215   6225     1  180.0000771  2.0083200  2
   6219   6216   6215   6225     1  0.0000000  1.2552000  3
   6225   6228   6231   6232     1  180.0000771  0.0000000  2
   6225   6228   6231   6233     1  180.0000771  0.0000000  2
   6235   6238   6241   6244     1  0.0000000  0.6508444  3
   6238   6241   6244   6245     1  180.0000771  2.0083200  2
   6238   6241   6244   6245     1  0.0000000  1.2552000  3
   6238   6241   6244   6254     1  180.0000771  2.0083200  2
   6238   6241   6244   6254     1  0.0000000  1.2552000  3
   6241   6244   6245   6248     1  180.0000771  2.0083200  2
   6241   6244   6245   6248     1  0.0000000  1.2552000  3
   6241   6244   6254   6257     1  180.0000771  2.0083200  2
   6241   6244   6254   6257     1  0.0000000  1.2552000  3
   6241   6238   6235   6263     1  0.0000000  0.6508444  3
   6244   6245   6248   6251     1  0.0000000  0.6508444  3
   6244   6254   6257   6260     1  0.0000000  0.6508444  3
   6245   6248   6251   6252     1  180.0000771  0.0000000  2
   6245   6248   6251   6253     1  180.0000771  0.0000000  2
   6245   6244   6254   6257     1  180.0000771  2.0083200  2
   6245   6244   6254   6257     1  0.0000000  1.2552000  3
   6248   6245   6244   6254     1  180.0000771  2.0083200  2
   6248   6245   6244   6254     1  0.0000000  1.2552000  3
   6254   6257   6260   6261     1  180.0000771  0.0000000  2
   6254   6257   6260   6262     1  180.0000771  0.0000000  2
   6264   6267   6270   6273     1  0.0000000  0.6508444  3
   6267   6270   6273   6274     1  180.0000771  2.0083200  2
   6267   6270   6273   6274     1  0.0000000  1.2552000  3
   6267   6270   6273   6283     1  180.0000771  2.0083200  2
   6267   6270   6273   6283     1  0.0000000  1.2552000  3
   6270   6267   6264   6292     1  0.0000000  0.6508444  3
   6270   6273   6274   6277     1  180.0000771  2.0083200  2
   6270   6273   6274   6277     1  0.0000000  1.2552000  3
   6270   6273   6283   6286     1  180.0000771  2.0083200  2
   6270   6273   6283   6286     1  0.0000000  1.2552000  3
   6273   6274   6277   6280     1  0.0000000  0.6508444  3
   6273   6283   6286   6289     1  0.0000000  0.6508444  3
   6274   6273   6283   6286     1  180.0000771  2.0083200  2
   6274   6273   6283   6286     1  0.0000000  1.2552000  3
   6274   6277   6280   6281     1  180.0000771  0.0000000  2
   6274   6277   6280   6282     1  180.0000771  0.0000000  2
   6277   6274   6273   6283     1  180.0000771  2.0083200  2
   6277   6274   6273   6283     1  0.0000000  1.2552000  3
   6283   6286   6289   6290     1  180.0000771  0.0000000  2
   6283   6286   6289   6291     1  180.0000771  0.0000000  2
   6293   6296   6299   6302     1  0.0000000  0.6508444  3
   6296   6299   6302   6303     1  180.0000771  2.0083200  2
   6296   6299   6302   6303     1  0.0000000  1.2552000  3
   6296   6299   6302   6312     1  180.0000771  2.0083200  2
   6296   6299   6302   6312     1  0.0000000  1.2552000  3
   6299   6302   6303   6306     1  180.0000771  2.0083200  2
   6299   6302   6303   6306     1  0.0000000  1.2552000  3
   6299   6302   6312   6315     1  180.0000771  2.0083200  2
   6299   6302   6312   6315     1  0.0000000  1.2552000  3
   6299   6296   6293   6321     1  0.0000000  0.6508444  3
   6302   6303   6306   6309     1  0.0000000  0.6508444  3
   6302   6312   6315   6318     1  0.0000000  0.6508444  3
   6303   6306   6309   6310     1  180.0000771  0.0000000  2
   6303   6306   6309   6311     1  180.0000771  0.0000000  2
   6303   6302   6312   6315     1  180.0000771  2.0083200  2
   6303   6302   6312   6315     1  0.0000000  1.2552000  3
   6306   6303   6302   6312     1  180.0000771  2.0083200  2
   6306   6303   6302   6312     1  0.0000000  1.2552000  3
   6312   6315   6318   6319     1  180.0000771  0.0000000  2
   6312   6315   6318   6320     1  180.0000771  0.0000000  2
   6322   6325   6328   6331     1  0.0000000  0.6508444  3
   6325   6328   6331   6332     1  180.0000771  2.0083200  2
   6325   6328   6331   6332     1  0.0000000  1.2552000  3
   6325   6328   6331   6341     1  180.0000771  2.0083200  2
   6325   6328   6331   6341     1  0.0000000  1.2552000  3
   6328   6325   6322   6350     1  0.0000000  0.6508444  3
   6328   6331   6332   6335     1  180.0000771  2.0083200  2
   6328   6331   6332   6335     1  0.0000000  1.2552000  3
   6328   6331   6341   6344     1  180.0000771  2.0083200  2
   6328   6331   6341   6344     1  0.0000000  1.2552000  3
   6331   6332   6335   6338     1  0.0000000  0.6508444  3
   6331   6341   6344   6347     1  0.0000000  0.6508444  3
   6332   6331   6341   6344     1  180.0000771  2.0083200  2
   6332   6331   6341   6344     1  0.0000000  1.2552000  3
   6332   6335   6338   6339     1  180.0000771  0.0000000  2
   6332   6335   6338   6340     1  180.0000771  0.0000000  2
   6335   6332   6331   6341     1  180.0000771  2.0083200  2
   6335   6332   6331   6341     1  0.0000000  1.2552000  3
   6341   6344   6347   6348     1  180.0000771  0.0000000  2
   6341   6344   6347   6349     1  180.0000771  0.0000000  2
   6351   6354   6357   6360     1  0.0000000  0.6508444  3
   6354   6357   6360   6361     1  180.0000771  2.0083200  2
   6354   6357   6360   6361     1  0.0000000  1.2552000  3
   6354   6357   6360   6370     1  180.0000771  2.0083200  2
   6354   6357   6360   6370     1  0.0000000  1.2552000  3
   6357   6360   6361   6364     1  180.0000771  2.0083200  2
   6357   6360   6361   6364     1  0.0000000  1.2552000  3
   6357   6360   6370   6373     1  180.0000771  2.0083200  2
   6357   6360   6370   6373     1  0.0000000  1.2552000  3
   6357   6354   6351   6379     1  0.0000000  0.6508444  3
   6360   6361   6364   6367     1  0.0000000  0.6508444  3
   6360   6370   6373   6376     1  0.0000000  0.6508444  3
   6361   6364   6367   6368     1  180.0000771  0.0000000  2
   6361   6364   6367   6369     1  180.0000771  0.0000000  2
   6361   6360   6370   6373     1  180.0000771  2.0083200  2
   6361   6360   6370   6373     1  0.0000000  1.2552000  3
   6364   6361   6360   6370     1  180.0000771  2.0083200  2
   6364   6361   6360   6370     1  0.0000000  1.2552000  3
   6370   6373   6376   6377     1  180.0000771  0.0000000  2
   6370   6373   6376   6378     1  180.0000771  0.0000000  2
   6380   6383   6386   6389     1  0.0000000  0.6508444  3
   6383   6386   6389   6390     1  180.0000771  2.0083200  2
   6383   6386   6389   6390     1  0.0000000  1.2552000  3
   6383   6386   6389   6399     1  180.0000771  2.0083200  2
   6383   6386   6389   6399     1  0.0000000  1.2552000  3
   6386   6383   6380   6408     1  0.0000000  0.6508444  3
   6386   6389   6390   6393     1  180.0000771  2.0083200  2
   6386   6389   6390   6393     1  0.0000000  1.2552000  3
   6386   6389   6399   6402     1  180.0000771  2.0083200  2
   6386   6389   6399   6402     1  0.0000000  1.2552000  3
   6389   6390   6393   6396     1  0.0000000  0.6508444  3
   6389   6399   6402   6405     1  0.0000000  0.6508444  3
   6390   6389   6399   6402     1  180.0000771  2.0083200  2
   6390   6389   6399   6402     1  0.0000000  1.2552000  3
   6390   6393   6396   6397     1  180.0000771  0.0000000  2
   6390   6393   6396   6398     1  180.0000771  0.0000000  2
   6393   6390   6389   6399     1  180.0000771  2.0083200  2
   6393   6390   6389   6399     1  0.0000000  1.2552000  3
   6399   6402   6405   6406     1  180.0000771  0.0000000  2
   6399   6402   6405   6407     1  180.0000771  0.0000000  2
   6409   6412   6415   6418     1  0.0000000  0.6508444  3
   6412   6415   6418   6419     1  180.0000771  2.0083200  2
   6412   6415   6418   6419     1  0.0000000  1.2552000  3
   6412   6415   6418   6428     1  180.0000771  2.0083200  2
   6412   6415   6418   6428     1  0.0000000  1.2552000  3
   6415   6418   6419   6422     1  180.0000771  2.0083200  2
   6415   6418   6419   6422     1  0.0000000  1.2552000  3
   6415   6418   6428   6431     1  180.0000771  2.0083200  2
   6415   6418   6428   6431     1  0.0000000  1.2552000  3
   6415   6412   6409   6437     1  0.0000000  0.6508444  3
   6418   6419   6422   6425     1  0.0000000  0.6508444  3
   6418   6428   6431   6434     1  0.0000000  0.6508444  3
   6419   6422   6425   6426     1  180.0000771  0.0000000  2
   6419   6422   6425   6427     1  180.0000771  0.0000000  2
   6419   6418   6428   6431     1  180.0000771  2.0083200  2
   6419   6418   6428   6431     1  0.0000000  1.2552000  3
   6422   6419   6418   6428     1  180.0000771  2.0083200  2
   6422   6419   6418   6428     1  0.0000000  1.2552000  3
   6428   6431   6434   6435     1  180.0000771  0.0000000  2
   6428   6431   6434   6436     1  180.0000771  0.0000000  2
   6438   6441   6444   6447     1  0.0000000  0.6508444  3
   6441   6444   6447   6448     1  180.0000771  2.0083200  2
   6441   6444   6447   6448     1  0.0000000  1.2552000  3
   6441   6444   6447   6457     1  180.0000771  2.0083200  2
   6441   6444   6447   6457     1  0.0000000  1.2552000  3
   6444   6441   6438   6466     1  0.0000000  0.6508444  3
   6444   6447   6448   6451     1  180.0000771  2.0083200  2
   6444   6447   6448   6451     1  0.0000000  1.2552000  3
   6444   6447   6457   6460     1  180.0000771  2.0083200  2
   6444   6447   6457   6460     1  0.0000000  1.2552000  3
   6447   6448   6451   6454     1  0.0000000  0.6508444  3
   6447   6457   6460   6463     1  0.0000000  0.6508444  3
   6448   6447   6457   6460     1  180.0000771  2.0083200  2
   6448   6447   6457   6460     1  0.0000000  1.2552000  3
   6448   6451   6454   6455     1  180.0000771  0.0000000  2
   6448   6451   6454   6456     1  180.0000771  0.0000000  2
   6451   6448   6447   6457     1  180.0000771  2.0083200  2
   6451   6448   6447   6457     1  0.0000000  1.2552000  3
   6457   6460   6463   6464     1  180.0000771  0.0000000  2
   6457   6460   6463   6465     1  180.0000771  0.0000000  2
   6467   6470   6473   6476     1  0.0000000  0.6508444  3
   6470   6473   6476   6477     1  180.0000771  2.0083200  2
   6470   6473   6476   6477     1  0.0000000  1.2552000  3
   6470   6473   6476   6486     1  180.0000771  2.0083200  2
   6470   6473   6476   6486     1  0.0000000  1.2552000  3
   6473   6476   6477   6480     1  180.0000771  2.0083200  2
   6473   6476   6477   6480     1  0.0000000  1.2552000  3
   6473   6476   6486   6489     1  180.0000771  2.0083200  2
   6473   6476   6486   6489     1  0.0000000  1.2552000  3
   6473   6470   6467   6495     1  0.0000000  0.6508444  3
   6476   6477   6480   6483     1  0.0000000  0.6508444  3
   6476   6486   6489   6492     1  0.0000000  0.6508444  3
   6477   6480   6483   6484     1  180.0000771  0.0000000  2
   6477   6480   6483   6485     1  180.0000771  0.0000000  2
   6477   6476   6486   6489     1  180.0000771  2.0083200  2
   6477   6476   6486   6489     1  0.0000000  1.2552000  3
   6480   6477   6476   6486     1  180.0000771  2.0083200  2
   6480   6477   6476   6486     1  0.0000000  1.2552000  3
   6486   6489   6492   6493     1  180.0000771  0.0000000  2
   6486   6489   6492   6494     1  180.0000771  0.0000000  2
   6496   6499   6502   6505     1  0.0000000  0.6508444  3
   6499   6502   6505   6506     1  180.0000771  2.0083200  2
   6499   6502   6505   6506     1  0.0000000  1.2552000  3
   6499   6502   6505   6515     1  180.0000771  2.0083200  2
   6499   6502   6505   6515     1  0.0000000  1.2552000  3
   6502   6499   6496   6524     1  0.0000000  0.6508444  3
   6502   6505   6506   6509     1  180.0000771  2.0083200  2
   6502   6505   6506   6509     1  0.0000000  1.2552000  3
   6502   6505   6515   6518     1  180.0000771  2.0083200  2
   6502   6505   6515   6518     1  0.0000000  1.2552000  3
   6505   6506   6509   6512     1  0.0000000  0.6508444  3
   6505   6515   6518   6521     1  0.0000000  0.6508444  3
   6506   6505   6515   6518     1  180.0000771  2.0083200  2
   6506   6505   6515   6518     1  0.0000000  1.2552000  3
   6506   6509   6512   6513     1  180.0000771  0.0000000  2
   6506   6509   6512   6514     1  180.0000771  0.0000000  2
   6509   6506   6505   6515     1  180.0000771  2.0083200  2
   6509   6506   6505   6515     1  0.0000000  1.2552000  3
   6515   6518   6521   6522     1  180.0000771  0.0000000  2
   6515   6518   6521   6523     1  180.0000771  0.0000000  2
   6525   6528   6531   6534     1  0.0000000  0.6508444  3
   6528   6531   6534   6535     1  180.0000771  2.0083200  2
   6528   6531   6534   6535     1  0.0000000  1.2552000  3
   6528   6531   6534   6544     1  180.0000771  2.0083200  2
   6528   6531   6534   6544     1  0.0000000  1.2552000  3
   6531   6534   6535   6538     1  180.0000771  2.0083200  2
   6531   6534   6535   6538     1  0.0000000  1.2552000  3
   6531   6534   6544   6547     1  180.0000771  2.0083200  2
   6531   6534   6544   6547     1  0.0000000  1.2552000  3
   6531   6528   6525   6553     1  0.0000000  0.6508444  3
   6534   6535   6538   6541     1  0.0000000  0.6508444  3
   6534   6544   6547   6550     1  0.0000000  0.6508444  3
   6535   6538   6541   6542     1  180.0000771  0.0000000  2
   6535   6538   6541   6543     1  180.0000771  0.0000000  2
   6535   6534   6544   6547     1  180.0000771  2.0083200  2
   6535   6534   6544   6547     1  0.0000000  1.2552000  3
   6538   6535   6534   6544     1  180.0000771  2.0083200  2
   6538   6535   6534   6544     1  0.0000000  1.2552000  3
   6544   6547   6550   6551     1  180.0000771  0.0000000  2
   6544   6547   6550   6552     1  180.0000771  0.0000000  2
   6554   6557   6560   6563     1  0.0000000  0.6508444  3
   6557   6560   6563   6564     1  180.0000771  2.0083200  2
   6557   6560   6563   6564     1  0.0000000  1.2552000  3
   6557   6560   6563   6573     1  180.0000771  2.0083200  2
   6557   6560   6563   6573     1  0.0000000  1.2552000  3
   6560   6557   6554   6582     1  0.0000000  0.6508444  3
   6560   6563   6564   6567     1  180.0000771  2.0083200  2
   6560   6563   6564   6567     1  0.0000000  1.2552000  3
   6560   6563   6573   6576     1  180.0000771  2.0083200  2
   6560   6563   6573   6576     1  0.0000000  1.2552000  3
   6563   6564   6567   6570     1  0.0000000  0.6508444  3
   6563   6573   6576   6579     1  0.0000000  0.6508444  3
   6564   6563   6573   6576     1  180.0000771  2.0083200  2
   6564   6563   6573   6576     1  0.0000000  1.2552000  3
   6564   6567   6570   6571     1  180.0000771  0.0000000  2
   6564   6567   6570   6572     1  180.0000771  0.0000000  2
   6567   6564   6563   6573     1  180.0000771  2.0083200  2
   6567   6564   6563   6573     1  0.0000000  1.2552000  3
   6573   6576   6579   6580     1  180.0000771  0.0000000  2
   6573   6576   6579   6581     1  180.0000771  0.0000000  2
   6583   6586   6589   6592     1  0.0000000  0.6508444  3
   6586   6589   6592   6593     1  180.0000771  2.0083200  2
   6586   6589   6592   6593     1  0.0000000  1.2552000  3
   6586   6589   6592   6602     1  180.0000771  2.0083200  2
   6586   6589   6592   6602     1  0.0000000  1.2552000  3
   6589   6592   6593   6596     1  180.0000771  2.0083200  2
   6589   6592   6593   6596     1  0.0000000  1.2552000  3
   6589   6592   6602   6605     1  180.0000771  2.0083200  2
   6589   6592   6602   6605     1  0.0000000  1.2552000  3
   6589   6586   6583   6611     1  0.0000000  0.6508444  3
   6592   6593   6596   6599     1  0.0000000  0.6508444  3
   6592   6602   6605   6608     1  0.0000000  0.6508444  3
   6593   6596   6599   6600     1  180.0000771  0.0000000  2
   6593   6596   6599   6601     1  180.0000771  0.0000000  2
   6593   6592   6602   6605     1  180.0000771  2.0083200  2
   6593   6592   6602   6605     1  0.0000000  1.2552000  3
   6596   6593   6592   6602     1  180.0000771  2.0083200  2
   6596   6593   6592   6602     1  0.0000000  1.2552000  3
   6602   6605   6608   6609     1  180.0000771  0.0000000  2
   6602   6605   6608   6610     1  180.0000771  0.0000000  2
   6612   6615   6618   6621     1  0.0000000  0.6508444  3
   6615   6618   6621   6622     1  180.0000771  2.0083200  2
   6615   6618   6621   6622     1  0.0000000  1.2552000  3
   6615   6618   6621   6631     1  180.0000771  2.0083200  2
   6615   6618   6621   6631     1  0.0000000  1.2552000  3
   6618   6615   6612   6640     1  0.0000000  0.6508444  3
   6618   6621   6622   6625     1  180.0000771  2.0083200  2
   6618   6621   6622   6625     1  0.0000000  1.2552000  3
   6618   6621   6631   6634     1  180.0000771  2.0083200  2
   6618   6621   6631   6634     1  0.0000000  1.2552000  3
   6621   6622   6625   6628     1  0.0000000  0.6508444  3
   6621   6631   6634   6637     1  0.0000000  0.6508444  3
   6622   6621   6631   6634     1  180.0000771  2.0083200  2
   6622   6621   6631   6634     1  0.0000000  1.2552000  3
   6622   6625   6628   6629     1  180.0000771  0.0000000  2
   6622   6625   6628   6630     1  180.0000771  0.0000000  2
   6625   6622   6621   6631     1  180.0000771  2.0083200  2
   6625   6622   6621   6631     1  0.0000000  1.2552000  3
   6631   6634   6637   6638     1  180.0000771  0.0000000  2
   6631   6634   6637   6639     1  180.0000771  0.0000000  2
   6641   6644   6647   6650     1  0.0000000  0.6508444  3
   6644   6647   6650   6651     1  180.0000771  2.0083200  2
   6644   6647   6650   6651     1  0.0000000  1.2552000  3
   6644   6647   6650   6660     1  180.0000771  2.0083200  2
   6644   6647   6650   6660     1  0.0000000  1.2552000  3
   6647   6650   6651   6654     1  180.0000771  2.0083200  2
   6647   6650   6651   6654     1  0.0000000  1.2552000  3
   6647   6650   6660   6663     1  180.0000771  2.0083200  2
   6647   6650   6660   6663     1  0.0000000  1.2552000  3
   6647   6644   6641   6669     1  0.0000000  0.6508444  3
   6650   6651   6654   6657     1  0.0000000  0.6508444  3
   6650   6660   6663   6666     1  0.0000000  0.6508444  3
   6651   6654   6657   6658     1  180.0000771  0.0000000  2
   6651   6654   6657   6659     1  180.0000771  0.0000000  2
   6651   6650   6660   6663     1  180.0000771  2.0083200  2
   6651   6650   6660   6663     1  0.0000000  1.2552000  3
   6654   6651   6650   6660     1  180.0000771  2.0083200  2
   6654   6651   6650   6660     1  0.0000000  1.2552000  3
   6660   6663   6666   6667     1  180.0000771  0.0000000  2
   6660   6663   6666   6668     1  180.0000771  0.0000000  2
   6670   6673   6676   6679     1  0.0000000  0.6508444  3
   6673   6676   6679   6680     1  180.0000771  2.0083200  2
   6673   6676   6679   6680     1  0.0000000  1.2552000  3
   6673   6676   6679   6689     1  180.0000771  2.0083200  2
   6673   6676   6679   6689     1  0.0000000  1.2552000  3
   6676   6673   6670   6698     1  0.0000000  0.6508444  3
   6676   6679   6680   6683     1  180.0000771  2.0083200  2
   6676   6679   6680   6683     1  0.0000000  1.2552000  3
   6676   6679   6689   6692     1  180.0000771  2.0083200  2
   6676   6679   6689   6692     1  0.0000000  1.2552000  3
   6679   6680   6683   6686     1  0.0000000  0.6508444  3
   6679   6689   6692   6695     1  0.0000000  0.6508444  3
   6680   6679   6689   6692     1  180.0000771  2.0083200  2
   6680   6679   6689   6692     1  0.0000000  1.2552000  3
   6680   6683   6686   6687     1  180.0000771  0.0000000  2
   6680   6683   6686   6688     1  180.0000771  0.0000000  2
   6683   6680   6679   6689     1  180.0000771  2.0083200  2
   6683   6680   6679   6689     1  0.0000000  1.2552000  3
   6689   6692   6695   6696     1  180.0000771  0.0000000  2
   6689   6692   6695   6697     1  180.0000771  0.0000000  2
   6699   6702   6705   6708     1  0.0000000  0.6508444  3
   6702   6705   6708   6709     1  180.0000771  2.0083200  2
   6702   6705   6708   6709     1  0.0000000  1.2552000  3
   6702   6705   6708   6718     1  180.0000771  2.0083200  2
   6702   6705   6708   6718     1  0.0000000  1.2552000  3
   6705   6708   6709   6712     1  180.0000771  2.0083200  2
   6705   6708   6709   6712     1  0.0000000  1.2552000  3
   6705   6708   6718   6721     1  180.0000771  2.0083200  2
   6705   6708   6718   6721     1  0.0000000  1.2552000  3
   6705   6702   6699   6727     1  0.0000000  0.6508444  3
   6708   6709   6712   6715     1  0.0000000  0.6508444  3
   6708   6718   6721   6724     1  0.0000000  0.6508444  3
   6709   6712   6715   6716     1  180.0000771  0.0000000  2
   6709   6712   6715   6717     1  180.0000771  0.0000000  2
   6709   6708   6718   6721     1  180.0000771  2.0083200  2
   6709   6708   6718   6721     1  0.0000000  1.2552000  3
   6712   6709   6708   6718     1  180.0000771  2.0083200  2
   6712   6709   6708   6718     1  0.0000000  1.2552000  3
   6718   6721   6724   6725     1  180.0000771  0.0000000  2
   6718   6721   6724   6726     1  180.0000771  0.0000000  2
   6728   6731   6734   6737     1  0.0000000  0.6508444  3
   6731   6734   6737   6738     1  180.0000771  2.0083200  2
   6731   6734   6737   6738     1  0.0000000  1.2552000  3
   6731   6734   6737   6747     1  180.0000771  2.0083200  2
   6731   6734   6737   6747     1  0.0000000  1.2552000  3
   6734   6731   6728   6756     1  0.0000000  0.6508444  3
   6734   6737   6738   6741     1  180.0000771  2.0083200  2
   6734   6737   6738   6741     1  0.0000000  1.2552000  3
   6734   6737   6747   6750     1  180.0000771  2.0083200  2
   6734   6737   6747   6750     1  0.0000000  1.2552000  3
   6737   6738   6741   6744     1  0.0000000  0.6508444  3
   6737   6747   6750   6753     1  0.0000000  0.6508444  3
   6738   6737   6747   6750     1  180.0000771  2.0083200  2
   6738   6737   6747   6750     1  0.0000000  1.2552000  3
   6738   6741   6744   6745     1  180.0000771  0.0000000  2
   6738   6741   6744   6746     1  180.0000771  0.0000000  2
   6741   6738   6737   6747     1  180.0000771  2.0083200  2
   6741   6738   6737   6747     1  0.0000000  1.2552000  3
   6747   6750   6753   6754     1  180.0000771  0.0000000  2
   6747   6750   6753   6755     1  180.0000771  0.0000000  2
   6757   6760   6763   6766     1  0.0000000  0.6508444  3
   6760   6763   6766   6767     1  180.0000771  2.0083200  2
   6760   6763   6766   6767     1  0.0000000  1.2552000  3
   6760   6763   6766   6776     1  180.0000771  2.0083200  2
   6760   6763   6766   6776     1  0.0000000  1.2552000  3
   6763   6766   6767   6770     1  180.0000771  2.0083200  2
   6763   6766   6767   6770     1  0.0000000  1.2552000  3
   6763   6766   6776   6779     1  180.0000771  2.0083200  2
   6763   6766   6776   6779     1  0.0000000  1.2552000  3
   6763   6760   6757   6785     1  0.0000000  0.6508444  3
   6766   6767   6770   6773     1  0.0000000  0.6508444  3
   6766   6776   6779   6782     1  0.0000000  0.6508444  3
   6767   6770   6773   6774     1  180.0000771  0.0000000  2
   6767   6770   6773   6775     1  180.0000771  0.0000000  2
   6767   6766   6776   6779     1  180.0000771  2.0083200  2
   6767   6766   6776   6779     1  0.0000000  1.2552000  3
   6770   6767   6766   6776     1  180.0000771  2.0083200  2
   6770   6767   6766   6776     1  0.0000000  1.2552000  3
   6776   6779   6782   6783     1  180.0000771  0.0000000  2
   6776   6779   6782   6784     1  180.0000771  0.0000000  2
   6786   6789   6792   6795     1  0.0000000  0.6508444  3
   6789   6792   6795   6796     1  180.0000771  2.0083200  2
   6789   6792   6795   6796     1  0.0000000  1.2552000  3
   6789   6792   6795   6805     1  180.0000771  2.0083200  2
   6789   6792   6795   6805     1  0.0000000  1.2552000  3
   6792   6789   6786   6814     1  0.0000000  0.6508444  3
   6792   6795   6796   6799     1  180.0000771  2.0083200  2
   6792   6795   6796   6799     1  0.0000000  1.2552000  3
   6792   6795   6805   6808     1  180.0000771  2.0083200  2
   6792   6795   6805   6808     1  0.0000000  1.2552000  3
   6795   6796   6799   6802     1  0.0000000  0.6508444  3
   6795   6805   6808   6811     1  0.0000000  0.6508444  3
   6796   6795   6805   6808     1  180.0000771  2.0083200  2
   6796   6795   6805   6808     1  0.0000000  1.2552000  3
   6796   6799   6802   6803     1  180.0000771  0.0000000  2
   6796   6799   6802   6804     1  180.0000771  0.0000000  2
   6799   6796   6795   6805     1  180.0000771  2.0083200  2
   6799   6796   6795   6805     1  0.0000000  1.2552000  3
   6805   6808   6811   6812     1  180.0000771  0.0000000  2
   6805   6808   6811   6813     1  180.0000771  0.0000000  2
   6815   6818   6821   6824     1  0.0000000  0.6508444  3
   6818   6821   6824   6825     1  180.0000771  2.0083200  2
   6818   6821   6824   6825     1  0.0000000  1.2552000  3
   6818   6821   6824   6834     1  180.0000771  2.0083200  2
   6818   6821   6824   6834     1  0.0000000  1.2552000  3
   6821   6824   6825   6828     1  180.0000771  2.0083200  2
   6821   6824   6825   6828     1  0.0000000  1.2552000  3
   6821   6824   6834   6837     1  180.0000771  2.0083200  2
   6821   6824   6834   6837     1  0.0000000  1.2552000  3
   6821   6818   6815   6843     1  0.0000000  0.6508444  3
   6824   6825   6828   6831     1  0.0000000  0.6508444  3
   6824   6834   6837   6840     1  0.0000000  0.6508444  3
   6825   6828   6831   6832     1  180.0000771  0.0000000  2
   6825   6828   6831   6833     1  180.0000771  0.0000000  2
   6825   6824   6834   6837     1  180.0000771  2.0083200  2
   6825   6824   6834   6837     1  0.0000000  1.2552000  3
   6828   6825   6824   6834     1  180.0000771  2.0083200  2
   6828   6825   6824   6834     1  0.0000000  1.2552000  3
   6834   6837   6840   6841     1  180.0000771  0.0000000  2
   6834   6837   6840   6842     1  180.0000771  0.0000000  2
   6844   6847   6850   6853     1  0.0000000  0.6508444  3
   6847   6850   6853   6854     1  180.0000771  2.0083200  2
   6847   6850   6853   6854     1  0.0000000  1.2552000  3
   6847   6850   6853   6863     1  180.0000771  2.0083200  2
   6847   6850   6853   6863     1  0.0000000  1.2552000  3
   6850   6847   6844   6872     1  0.0000000  0.6508444  3
   6850   6853   6854   6857     1  180.0000771  2.0083200  2
   6850   6853   6854   6857     1  0.0000000  1.2552000  3
   6850   6853   6863   6866     1  180.0000771  2.0083200  2
   6850   6853   6863   6866     1  0.0000000  1.2552000  3
   6853   6854   6857   6860     1  0.0000000  0.6508444  3
   6853   6863   6866   6869     1  0.0000000  0.6508444  3
   6854   6853   6863   6866     1  180.0000771  2.0083200  2
   6854   6853   6863   6866     1  0.0000000  1.2552000  3
   6854   6857   6860   6861     1  180.0000771  0.0000000  2
   6854   6857   6860   6862     1  180.0000771  0.0000000  2
   6857   6854   6853   6863     1  180.0000771  2.0083200  2
   6857   6854   6853   6863     1  0.0000000  1.2552000  3
   6863   6866   6869   6870     1  180.0000771  0.0000000  2
   6863   6866   6869   6871     1  180.0000771  0.0000000  2
   6873   6876   6879   6882     1  0.0000000  0.6508444  3
   6876   6879   6882   6883     1  180.0000771  2.0083200  2
   6876   6879   6882   6883     1  0.0000000  1.2552000  3
   6876   6879   6882   6892     1  180.0000771  2.0083200  2
   6876   6879   6882   6892     1  0.0000000  1.2552000  3
   6879   6882   6883   6886     1  180.0000771  2.0083200  2
   6879   6882   6883   6886     1  0.0000000  1.2552000  3
   6879   6882   6892   6895     1  180.0000771  2.0083200  2
   6879   6882   6892   6895     1  0.0000000  1.2552000  3
   6879   6876   6873   6901     1  0.0000000  0.6508444  3
   6882   6883   6886   6889     1  0.0000000  0.6508444  3
   6882   6892   6895   6898     1  0.0000000  0.6508444  3
   6883   6886   6889   6890     1  180.0000771  0.0000000  2
   6883   6886   6889   6891     1  180.0000771  0.0000000  2
   6883   6882   6892   6895     1  180.0000771  2.0083200  2
   6883   6882   6892   6895     1  0.0000000  1.2552000  3
   6886   6883   6882   6892     1  180.0000771  2.0083200  2
   6886   6883   6882   6892     1  0.0000000  1.2552000  3
   6892   6895   6898   6899     1  180.0000771  0.0000000  2
   6892   6895   6898   6900     1  180.0000771  0.0000000  2
   6902   6905   6908   6911     1  0.0000000  0.6508444  3
   6905   6908   6911   6912     1  180.0000771  2.0083200  2
   6905   6908   6911   6912     1  0.0000000  1.2552000  3
   6905   6908   6911   6921     1  180.0000771  2.0083200  2
   6905   6908   6911   6921     1  0.0000000  1.2552000  3
   6908   6905   6902   6930     1  0.0000000  0.6508444  3
   6908   6911   6912   6915     1  180.0000771  2.0083200  2
   6908   6911   6912   6915     1  0.0000000  1.2552000  3
   6908   6911   6921   6924     1  180.0000771  2.0083200  2
   6908   6911   6921   6924     1  0.0000000  1.2552000  3
   6911   6912   6915   6918     1  0.0000000  0.6508444  3
   6911   6921   6924   6927     1  0.0000000  0.6508444  3
   6912   6911   6921   6924     1  180.0000771  2.0083200  2
   6912   6911   6921   6924     1  0.0000000  1.2552000  3
   6912   6915   6918   6919     1  180.0000771  0.0000000  2
   6912   6915   6918   6920     1  180.0000771  0.0000000  2
   6915   6912   6911   6921     1  180.0000771  2.0083200  2
   6915   6912   6911   6921     1  0.0000000  1.2552000  3
   6921   6924   6927   6928     1  180.0000771  0.0000000  2
   6921   6924   6927   6929     1  180.0000771  0.0000000  2
   6931   6934   6937   6940     1  0.0000000  0.6508444  3
   6934   6937   6940   6941     1  180.0000771  2.0083200  2
   6934   6937   6940   6941     1  0.0000000  1.2552000  3
   6934   6937   6940   6950     1  180.0000771  2.0083200  2
   6934   6937   6940   6950     1  0.0000000  1.2552000  3
   6937   6940   6941   6944     1  180.0000771  2.0083200  2
   6937   6940   6941   6944     1  0.0000000  1.2552000  3
   6937   6940   6950   6953     1  180.0000771  2.0083200  2
   6937   6940   6950   6953     1  0.0000000  1.2552000  3
   6937   6934   6931   6959     1  0.0000000  0.6508444  3
   6940   6941   6944   6947     1  0.0000000  0.6508444  3
   6940   6950   6953   6956     1  0.0000000  0.6508444  3
   6941   6944   6947   6948     1  180.0000771  0.0000000  2
   6941   6944   6947   6949     1  180.0000771  0.0000000  2
   6941   6940   6950   6953     1  180.0000771  2.0083200  2
   6941   6940   6950   6953     1  0.0000000  1.2552000  3
   6944   6941   6940   6950     1  180.0000771  2.0083200  2
   6944   6941   6940   6950     1  0.0000000  1.2552000  3
   6950   6953   6956   6957     1  180.0000771  0.0000000  2
   6950   6953   6956   6958     1  180.0000771  0.0000000  2
   6960   6963   6966   6969     1  0.0000000  0.6508444  3
   6963   6966   6969   6970     1  180.0000771  2.0083200  2
   6963   6966   6969   6970     1  0.0000000  1.2552000  3
   6963   6966   6969   6979     1  180.0000771  2.0083200  2
   6963   6966   6969   6979     1  0.0000000  1.2552000  3
   6966   6963   6960   6988     1  0.0000000  0.6508444  3
   6966   6969   6970   6973     1  180.0000771  2.0083200  2
   6966   6969   6970   6973     1  0.0000000  1.2552000  3
   6966   6969   6979   6982     1  180.0000771  2.0083200  2
   6966   6969   6979   6982     1  0.0000000  1.2552000  3
   6969   6970   6973   6976     1  0.0000000  0.6508444  3
   6969   6979   6982   6985     1  0.0000000  0.6508444  3
   6970   6969   6979   6982     1  180.0000771  2.0083200  2
   6970   6969   6979   6982     1  0.0000000  1.2552000  3
   6970   6973   6976   6977     1  180.0000771  0.0000000  2
   6970   6973   6976   6978     1  180.0000771  0.0000000  2
   6973   6970   6969   6979     1  180.0000771  2.0083200  2
   6973   6970   6969   6979     1  0.0000000  1.2552000  3
   6979   6982   6985   6986     1  180.0000771  0.0000000  2
   6979   6982   6985   6987     1  180.0000771  0.0000000  2
   6989   6992   6995   6998     1  0.0000000  0.6508444  3
   6992   6995   6998   6999     1  180.0000771  2.0083200  2
   6992   6995   6998   6999     1  0.0000000  1.2552000  3
   6992   6995   6998   7008     1  180.0000771  2.0083200  2
   6992   6995   6998   7008     1  0.0000000  1.2552000  3
   6995   6998   6999   7002     1  180.0000771  2.0083200  2
   6995   6998   6999   7002     1  0.0000000  1.2552000  3
   6995   6998   7008   7011     1  180.0000771  2.0083200  2
   6995   6998   7008   7011     1  0.0000000  1.2552000  3
   6995   6992   6989   7017     1  0.0000000  0.6508444  3
   6998   6999   7002   7005     1  0.0000000  0.6508444  3
   6998   7008   7011   7014     1  0.0000000  0.6508444  3
   6999   7002   7005   7006     1  180.0000771  0.0000000  2
   6999   7002   7005   7007     1  180.0000771  0.0000000  2
   6999   6998   7008   7011     1  180.0000771  2.0083200  2
   6999   6998   7008   7011     1  0.0000000  1.2552000  3
   7002   6999   6998   7008     1  180.0000771  2.0083200  2
   7002   6999   6998   7008     1  0.0000000  1.2552000  3
   7008   7011   7014   7015     1  180.0000771  0.0000000  2
   7008   7011   7014   7016     1  180.0000771  0.0000000  2
   7018   7021   7024   7027     1  0.0000000  0.6508444  3
   7021   7024   7027   7028     1  180.0000771  2.0083200  2
   7021   7024   7027   7028     1  0.0000000  1.2552000  3
   7021   7024   7027   7037     1  180.0000771  2.0083200  2
   7021   7024   7027   7037     1  0.0000000  1.2552000  3
   7024   7021   7018   7046     1  0.0000000  0.6508444  3
   7024   7027   7028   7031     1  180.0000771  2.0083200  2
   7024   7027   7028   7031     1  0.0000000  1.2552000  3
   7024   7027   7037   7040     1  180.0000771  2.0083200  2
   7024   7027   7037   7040     1  0.0000000  1.2552000  3
   7027   7028   7031   7034     1  0.0000000  0.6508444  3
   7027   7037   7040   7043     1  0.0000000  0.6508444  3
   7028   7027   7037   7040     1  180.0000771  2.0083200  2
   7028   7027   7037   7040     1  0.0000000  1.2552000  3
   7028   7031   7034   7035     1  180.0000771  0.0000000  2
   7028   7031   7034   7036     1  180.0000771  0.0000000  2
   7031   7028   7027   7037     1  180.0000771  2.0083200  2
   7031   7028   7027   7037     1  0.0000000  1.2552000  3
   7037   7040   7043   7044     1  180.0000771  0.0000000  2
   7037   7040   7043   7045     1  180.0000771  0.0000000  2
   7047   7050   7053   7056     1  0.0000000  0.6508444  3
   7050   7053   7056   7057     1  180.0000771  2.0083200  2
   7050   7053   7056   7057     1  0.0000000  1.2552000  3
   7050   7053   7056   7066     1  180.0000771  2.0083200  2
   7050   7053   7056   7066     1  0.0000000  1.2552000  3
   7053   7056   7057   7060     1  180.0000771  2.0083200  2
   7053   7056   7057   7060     1  0.0000000  1.2552000  3
   7053   7056   7066   7069     1  180.0000771  2.0083200  2
   7053   7056   7066   7069     1  0.0000000  1.2552000  3
   7053   7050   7047   7075     1  0.0000000  0.6508444  3
   7056   7057   7060   7063     1  0.0000000  0.6508444  3
   7056   7066   7069   7072     1  0.0000000  0.6508444  3
   7057   7060   7063   7064     1  180.0000771  0.0000000  2
   7057   7060   7063   7065     1  180.0000771  0.0000000  2
   7057   7056   7066   7069     1  180.0000771  2.0083200  2
   7057   7056   7066   7069     1  0.0000000  1.2552000  3
   7060   7057   7056   7066     1  180.0000771  2.0083200  2
   7060   7057   7056   7066     1  0.0000000  1.2552000  3
   7066   7069   7072   7073     1  180.0000771  0.0000000  2
   7066   7069   7072   7074     1  180.0000771  0.0000000  2
   7076   7079   7082   7085     1  0.0000000  0.6508444  3
   7079   7082   7085   7086     1  180.0000771  2.0083200  2
   7079   7082   7085   7086     1  0.0000000  1.2552000  3
   7079   7082   7085   7095     1  180.0000771  2.0083200  2
   7079   7082   7085   7095     1  0.0000000  1.2552000  3
   7082   7079   7076   7104     1  0.0000000  0.6508444  3
   7082   7085   7086   7089     1  180.0000771  2.0083200  2
   7082   7085   7086   7089     1  0.0000000  1.2552000  3
   7082   7085   7095   7098     1  180.0000771  2.0083200  2
   7082   7085   7095   7098     1  0.0000000  1.2552000  3
   7085   7086   7089   7092     1  0.0000000  0.6508444  3
   7085   7095   7098   7101     1  0.0000000  0.6508444  3
   7086   7085   7095   7098     1  180.0000771  2.0083200  2
   7086   7085   7095   7098     1  0.0000000  1.2552000  3
   7086   7089   7092   7093     1  180.0000771  0.0000000  2
   7086   7089   7092   7094     1  180.0000771  0.0000000  2
   7089   7086   7085   7095     1  180.0000771  2.0083200  2
   7089   7086   7085   7095     1  0.0000000  1.2552000  3
   7095   7098   7101   7102     1  180.0000771  0.0000000  2
   7095   7098   7101   7103     1  180.0000771  0.0000000  2
   7105   7108   7111   7114     1  0.0000000  0.6508444  3
   7108   7111   7114   7115     1  180.0000771  2.0083200  2
   7108   7111   7114   7115     1  0.0000000  1.2552000  3
   7108   7111   7114   7124     1  180.0000771  2.0083200  2
   7108   7111   7114   7124     1  0.0000000  1.2552000  3
   7111   7114   7115   7118     1  180.0000771  2.0083200  2
   7111   7114   7115   7118     1  0.0000000  1.2552000  3
   7111   7114   7124   7127     1  180.0000771  2.0083200  2
   7111   7114   7124   7127     1  0.0000000  1.2552000  3
   7111   7108   7105   7133     1  0.0000000  0.6508444  3
   7114   7115   7118   7121     1  0.0000000  0.6508444  3
   7114   7124   7127   7130     1  0.0000000  0.6508444  3
   7115   7118   7121   7122     1  180.0000771  0.0000000  2
   7115   7118   7121   7123     1  180.0000771  0.0000000  2
   7115   7114   7124   7127     1  180.0000771  2.0083200  2
   7115   7114   7124   7127     1  0.0000000  1.2552000  3
   7118   7115   7114   7124     1  180.0000771  2.0083200  2
   7118   7115   7114   7124     1  0.0000000  1.2552000  3
   7124   7127   7130   7131     1  180.0000771  0.0000000  2
   7124   7127   7130   7132     1  180.0000771  0.0000000  2
   7134   7137   7140   7143     1  0.0000000  0.6508444  3
   7137   7140   7143   7144     1  180.0000771  2.0083200  2
   7137   7140   7143   7144     1  0.0000000  1.2552000  3
   7137   7140   7143   7153     1  180.0000771  2.0083200  2
   7137   7140   7143   7153     1  0.0000000  1.2552000  3
   7140   7137   7134   7162     1  0.0000000  0.6508444  3
   7140   7143   7144   7147     1  180.0000771  2.0083200  2
   7140   7143   7144   7147     1  0.0000000  1.2552000  3
   7140   7143   7153   7156     1  180.0000771  2.0083200  2
   7140   7143   7153   7156     1  0.0000000  1.2552000  3
   7143   7144   7147   7150     1  0.0000000  0.6508444  3
   7143   7153   7156   7159     1  0.0000000  0.6508444  3
   7144   7143   7153   7156     1  180.0000771  2.0083200  2
   7144   7143   7153   7156     1  0.0000000  1.2552000  3
   7144   7147   7150   7151     1  180.0000771  0.0000000  2
   7144   7147   7150   7152     1  180.0000771  0.0000000  2
   7147   7144   7143   7153     1  180.0000771  2.0083200  2
   7147   7144   7143   7153     1  0.0000000  1.2552000  3
   7153   7156   7159   7160     1  180.0000771  0.0000000  2
   7153   7156   7159   7161     1  180.0000771  0.0000000  2
   7163   7166   7169   7172     1  0.0000000  0.6508444  3
   7166   7169   7172   7173     1  180.0000771  2.0083200  2
   7166   7169   7172   7173     1  0.0000000  1.2552000  3
   7166   7169   7172   7182     1  180.0000771  2.0083200  2
   7166   7169   7172   7182     1  0.0000000  1.2552000  3
   7169   7172   7173   7176     1  180.0000771  2.0083200  2
   7169   7172   7173   7176     1  0.0000000  1.2552000  3
   7169   7172   7182   7185     1  180.0000771  2.0083200  2
   7169   7172   7182   7185     1  0.0000000  1.2552000  3
   7169   7166   7163   7191     1  0.0000000  0.6508444  3
   7172   7173   7176   7179     1  0.0000000  0.6508444  3
   7172   7182   7185   7188     1  0.0000000  0.6508444  3
   7173   7176   7179   7180     1  180.0000771  0.0000000  2
   7173   7176   7179   7181     1  180.0000771  0.0000000  2
   7173   7172   7182   7185     1  180.0000771  2.0083200  2
   7173   7172   7182   7185     1  0.0000000  1.2552000  3
   7176   7173   7172   7182     1  180.0000771  2.0083200  2
   7176   7173   7172   7182     1  0.0000000  1.2552000  3
   7182   7185   7188   7189     1  180.0000771  0.0000000  2
   7182   7185   7188   7190     1  180.0000771  0.0000000  2
   7192   7195   7198   7201     1  0.0000000  0.6508444  3
   7195   7198   7201   7202     1  180.0000771  2.0083200  2
   7195   7198   7201   7202     1  0.0000000  1.2552000  3
   7195   7198   7201   7211     1  180.0000771  2.0083200  2
   7195   7198   7201   7211     1  0.0000000  1.2552000  3
   7198   7195   7192   7220     1  0.0000000  0.6508444  3
   7198   7201   7202   7205     1  180.0000771  2.0083200  2
   7198   7201   7202   7205     1  0.0000000  1.2552000  3
   7198   7201   7211   7214     1  180.0000771  2.0083200  2
   7198   7201   7211   7214     1  0.0000000  1.2552000  3
   7201   7202   7205   7208     1  0.0000000  0.6508444  3
   7201   7211   7214   7217     1  0.0000000  0.6508444  3
   7202   7201   7211   7214     1  180.0000771  2.0083200  2
   7202   7201   7211   7214     1  0.0000000  1.2552000  3
   7202   7205   7208   7209     1  180.0000771  0.0000000  2
   7202   7205   7208   7210     1  180.0000771  0.0000000  2
   7205   7202   7201   7211     1  180.0000771  2.0083200  2
   7205   7202   7201   7211     1  0.0000000  1.2552000  3
   7211   7214   7217   7218     1  180.0000771  0.0000000  2
   7211   7214   7217   7219     1  180.0000771  0.0000000  2
   7221   7224   7227   7230     1  0.0000000  0.6508444  3
   7224   7227   7230   7231     1  180.0000771  2.0083200  2
   7224   7227   7230   7231     1  0.0000000  1.2552000  3
   7224   7227   7230   7240     1  180.0000771  2.0083200  2
   7224   7227   7230   7240     1  0.0000000  1.2552000  3
   7227   7230   7231   7234     1  180.0000771  2.0083200  2
   7227   7230   7231   7234     1  0.0000000  1.2552000  3
   7227   7230   7240   7243     1  180.0000771  2.0083200  2
   7227   7230   7240   7243     1  0.0000000  1.2552000  3
   7227   7224   7221   7249     1  0.0000000  0.6508444  3
   7230   7231   7234   7237     1  0.0000000  0.6508444  3
   7230   7240   7243   7246     1  0.0000000  0.6508444  3
   7231   7234   7237   7238     1  180.0000771  0.0000000  2
   7231   7234   7237   7239     1  180.0000771  0.0000000  2
   7231   7230   7240   7243     1  180.0000771  2.0083200  2
   7231   7230   7240   7243     1  0.0000000  1.2552000  3
   7234   7231   7230   7240     1  180.0000771  2.0083200  2
   7234   7231   7230   7240     1  0.0000000  1.2552000  3
   7240   7243   7246   7247     1  180.0000771  0.0000000  2
   7240   7243   7246   7248     1  180.0000771  0.0000000  2
   7250   7253   7256   7259     1  0.0000000  0.6508444  3
   7253   7256   7259   7260     1  180.0000771  2.0083200  2
   7253   7256   7259   7260     1  0.0000000  1.2552000  3
   7253   7256   7259   7269     1  180.0000771  2.0083200  2
   7253   7256   7259   7269     1  0.0000000  1.2552000  3
   7256   7253   7250   7278     1  0.0000000  0.6508444  3
   7256   7259   7260   7263     1  180.0000771  2.0083200  2
   7256   7259   7260   7263     1  0.0000000  1.2552000  3
   7256   7259   7269   7272     1  180.0000771  2.0083200  2
   7256   7259   7269   7272     1  0.0000000  1.2552000  3
   7259   7260   7263   7266     1  0.0000000  0.6508444  3
   7259   7269   7272   7275     1  0.0000000  0.6508444  3
   7260   7259   7269   7272     1  180.0000771  2.0083200  2
   7260   7259   7269   7272     1  0.0000000  1.2552000  3
   7260   7263   7266   7267     1  180.0000771  0.0000000  2
   7260   7263   7266   7268     1  180.0000771  0.0000000  2
   7263   7260   7259   7269     1  180.0000771  2.0083200  2
   7263   7260   7259   7269     1  0.0000000  1.2552000  3
   7269   7272   7275   7276     1  180.0000771  0.0000000  2
   7269   7272   7275   7277     1  180.0000771  0.0000000  2
   7279   7282   7285   7288     1  0.0000000  0.6508444  3
   7282   7285   7288   7289     1  180.0000771  2.0083200  2
   7282   7285   7288   7289     1  0.0000000  1.2552000  3
   7282   7285   7288   7298     1  180.0000771  2.0083200  2
   7282   7285   7288   7298     1  0.0000000  1.2552000  3
   7285   7288   7289   7292     1  180.0000771  2.0083200  2
   7285   7288   7289   7292     1  0.0000000  1.2552000  3
   7285   7288   7298   7301     1  180.0000771  2.0083200  2
   7285   7288   7298   7301     1  0.0000000  1.2552000  3
   7285   7282   7279   7307     1  0.0000000  0.6508444  3
   7288   7289   7292   7295     1  0.0000000  0.6508444  3
   7288   7298   7301   7304     1  0.0000000  0.6508444  3
   7289   7292   7295   7296     1  180.0000771  0.0000000  2
   7289   7292   7295   7297     1  180.0000771  0.0000000  2
   7289   7288   7298   7301     1  180.0000771  2.0083200  2
   7289   7288   7298   7301     1  0.0000000  1.2552000  3
   7292   7289   7288   7298     1  180.0000771  2.0083200  2
   7292   7289   7288   7298     1  0.0000000  1.2552000  3
   7298   7301   7304   7305     1  180.0000771  0.0000000  2
   7298   7301   7304   7306     1  180.0000771  0.0000000  2
   7308   7311   7314   7317     1  0.0000000  0.6508444  3
   7311   7314   7317   7318     1  180.0000771  2.0083200  2
   7311   7314   7317   7318     1  0.0000000  1.2552000  3
   7311   7314   7317   7327     1  180.0000771  2.0083200  2
   7311   7314   7317   7327     1  0.0000000  1.2552000  3
   7314   7311   7308   7336     1  0.0000000  0.6508444  3
   7314   7317   7318   7321     1  180.0000771  2.0083200  2
   7314   7317   7318   7321     1  0.0000000  1.2552000  3
   7314   7317   7327   7330     1  180.0000771  2.0083200  2
   7314   7317   7327   7330     1  0.0000000  1.2552000  3
   7317   7318   7321   7324     1  0.0000000  0.6508444  3
   7317   7327   7330   7333     1  0.0000000  0.6508444  3
   7318   7317   7327   7330     1  180.0000771  2.0083200  2
   7318   7317   7327   7330     1  0.0000000  1.2552000  3
   7318   7321   7324   7325     1  180.0000771  0.0000000  2
   7318   7321   7324   7326     1  180.0000771  0.0000000  2
   7321   7318   7317   7327     1  180.0000771  2.0083200  2
   7321   7318   7317   7327     1  0.0000000  1.2552000  3
   7327   7330   7333   7334     1  180.0000771  0.0000000  2
   7327   7330   7333   7335     1  180.0000771  0.0000000  2
   7337   7340   7343   7346     1  0.0000000  0.6508444  3
   7340   7343   7346   7347     1  180.0000771  2.0083200  2
   7340   7343   7346   7347     1  0.0000000  1.2552000  3
   7340   7343   7346   7356     1  180.0000771  2.0083200  2
   7340   7343   7346   7356     1  0.0000000  1.2552000  3
   7343   7346   7347   7350     1  180.0000771  2.0083200  2
   7343   7346   7347   7350     1  0.0000000  1.2552000  3
   7343   7346   7356   7359     1  180.0000771  2.0083200  2
   7343   7346   7356   7359     1  0.0000000  1.2552000  3
   7343   7340   7337   7365     1  0.0000000  0.6508444  3
   7346   7347   7350   7353     1  0.0000000  0.6508444  3
   7346   7356   7359   7362     1  0.0000000  0.6508444  3
   7347   7350   7353   7354     1  180.0000771  0.0000000  2
   7347   7350   7353   7355     1  180.0000771  0.0000000  2
   7347   7346   7356   7359     1  180.0000771  2.0083200  2
   7347   7346   7356   7359     1  0.0000000  1.2552000  3
   7350   7347   7346   7356     1  180.0000771  2.0083200  2
   7350   7347   7346   7356     1  0.0000000  1.2552000  3
   7356   7359   7362   7363     1  180.0000771  0.0000000  2
   7356   7359   7362   7364     1  180.0000771  0.0000000  2
   3667   3671   3670   3672     4  180.0000771  4.6024000  2
   3676   3680   3679   3681     4  180.0000771  4.6024000  2
   3696   3700   3699   3701     4  180.0000771  4.6024000  2
   3705   3709   3708   3710     4  180.0000771  4.6024000  2
   3725   3729   3728   3730     4  180.0000771  4.6024000  2
   3734   3738   3737   3739     4  180.0000771  4.6024000  2
   3754   3758   3757   3759     4  180.0000771  4.6024000  2
   3763   3767   3766   3768     4  180.0000771  4.6024000  2
   3783   3787   3786   3788     4  180.0000771  4.6024000  2
   3792   3796   3795   3797     4  180.0000771  4.6024000  2
   3812   3816   3815   3817     4  180.0000771  4.6024000  2
   3821   3825   3824   3826     4  180.0000771  4.6024000  2
   3841   3845   3844   3846     4  180.0000771  4.6024000  2
   3850   3854   3853   3855     4  180.0000771  4.6024000  2
   3870   3874   3873   3875     4  180.0000771  4.6024000  2
   3879   3883   3882   3884     4  180.0000771  4.6024000  2
   3899   3903   3902   3904     4  180.0000771  4.6024000  2
   3908   3912   3911   3913     4  180.0000771  4.6024000  2
   3928   3932   3931   3933     4  180.0000771  4.6024000  2
   3937   3941   3940   3942     4  180.0000771  4.6024000  2
   3957   3961   3960   3962     4  180.0000771  4.6024000  2
   3966   3970   3969   3971     4  180.0000771  4.6024000  2
   3986   3990   3989   3991     4  180.0000771  4.6024000  2
   3995   3999   3998   4000     4  180.0000771  4.6024000  2
   4015   4019   4018   4020     4  180.0000771  4.6024000  2
   4024   4028   4027   4029     4  180.0000771  4.6024000  2
   4044   4048   4047   4049     4  180.0000771  4.6024000  2
   4053   4057   4056   4058     4  180.0000771  4.6024000  2
   4073   4077   4076   4078     4  180.0000771  4.6024000  2
   4082   4086   4085   4087     4  180.0000771  4.6024000  2
   4102   4106   4105   4107     4  180.0000771  4.6024000  2
   4111   4115   4114   4116     4  180.0000771  4.6024000  2
   4131   4135   4134   4136     4  180.0000771  4.6024000  2
   4140   4144   4143   4145     4  180.0000771  4.6024000  2
   4160   4164   4163   4165     4  180.0000771  4.6024000  2
   4169   4173   4172   4174     4  180.0000771  4.6024000  2
   4189   4193   4192   4194     4  180.0000771  4.6024000  2
   4198   4202   4201   4203     4  180.0000771  4.6024000  2
   4218   4222   4221   4223     4  180.0000771  4.6024000  2
   4227   4231   4230   4232     4  180.0000771  4.6024000  2
   4247   4251   4250   4252     4  180.0000771  4.6024000  2
   4256   4260   4259   4261     4  180.0000771  4.6024000  2
   4276   4280   4279   4281     4  180.0000771  4.6024000  2
   4285   4289   4288   4290     4  180.0000771  4.6024000  2
   4305   4309   4308   4310     4  180.0000771  4.6024000  2
   4314   4318   4317   4319     4  180.0000771  4.6024000  2
   4334   4338   4337   4339     4  180.0000771  4.6024000  2
   4343   4347   4346   4348     4  180.0000771  4.6024000  2
   4363   4367   4366   4368     4  180.0000771  4.6024000  2
   4372   4376   4375   4377     4  180.0000771  4.6024000  2
   4392   4396   4395   4397     4  180.0000771  4.6024000  2
   4401   4405   4404   4406     4  180.0000771  4.6024000  2
   4421   4425   4424   4426     4  180.0000771  4.6024000  2
   4430   4434   4433   4435     4  180.0000771  4.6024000  2
   4450   4454   4453   4455     4  180.0000771  4.6024000  2
   4459   4463   4462   4464     4  180.0000771  4.6024000  2
   4479   4483   4482   4484     4  180.0000771  4.6024000  2
   4488   4492   4491   4493     4  180.0000771  4.6024000  2
   4508   4512   4511   4513     4  180.0000771  4.6024000  2
   4517   4521   4520   4522     4  180.0000771  4.6024000  2
   4537   4541   4540   4542     4  180.0000771  4.6024000  2
   4546   4550   4549   4551     4  180.0000771  4.6024000  2
   4566   4570   4569   4571     4  180.0000771  4.6024000  2
   4575   4579   4578   4580     4  180.0000771  4.6024000  2
   4595   4599   4598   4600     4  180.0000771  4.6024000  2
   4604   4608   4607   4609     4  180.0000771  4.6024000  2
   4624   4628   4627   4629     4  180.0000771  4.6024000  2
   4633   4637   4636   4638     4  180.0000771  4.6024000  2
   4653   4657   4656   4658     4  180.0000771  4.6024000  2
   4662   4666   4665   4667     4  180.0000771  4.6024000  2
   4682   4686   4685   4687     4  180.0000771  4.6024000  2
   4691   4695   4694   4696     4  180.0000771  4.6024000  2
   4711   4715   4714   4716     4  180.0000771  4.6024000  2
   4720   4724   4723   4725     4  180.0000771  4.6024000  2
   4740   4744   4743   4745     4  180.0000771  4.6024000  2
   4749   4753   4752   4754     4  180.0000771  4.6024000  2
   4769   4773   4772   4774     4  180.0000771  4.6024000  2
   4778   4782   4781   4783     4  180.0000771  4.6024000  2
   4798   4802   4801   4803     4  180.0000771  4.6024000  2
   4807   4811   4810   4812     4  180.0000771  4.6024000  2
   4827   4831   4830   4832     4  180.0000771  4.6024000  2
   4836   4840   4839   4841     4  180.0000771  4.6024000  2
   4856   4860   4859   4861     4  180.0000771  4.6024000  2
   4865   4869   4868   4870     4  180.0000771  4.6024000  2
   4885   4889   4888   4890     4  180.0000771  4.6024000  2
   4894   4898   4897   4899     4  180.0000771  4.6024000  2
   4914   4918   4917   4919     4  180.0000771  4.6024000  2
   4923   4927   4926   4928     4  180.0000771  4.6024000  2
   4943   4947   4946   4948     4  180.0000771  4.6024000  2
   4952   4956   4955   4957     4  180.0000771  4.6024000  2
   4972   4976   4975   4977     4  180.0000771  4.6024000  2
   4981   4985   4984   4986     4  180.0000771  4.6024000  2
   5001   5005   5004   5006     4  180.0000771  4.6024000  2
   5010   5014   5013   5015     4  180.0000771  4.6024000  2
   5030   5034   5033   5035     4  180.0000771  4.6024000  2
   5039   5043   5042   5044     4  180.0000771  4.6024000  2
   5059   5063   5062   5064     4  180.0000771  4.6024000  2
   5068   5072   5071   5073     4  180.0000771  4.6024000  2
   5088   5092   5091   5093     4  180.0000771  4.6024000  2
   5097   5101   5100   5102     4  180.0000771  4.6024000  2
   5117   5121   5120   5122     4  180.0000771  4.6024000  2
   5126   5130   5129   5131     4  180.0000771  4.6024000  2
   5146   5150   5149   5151     4  180.0000771  4.6024000  2
   5155   5159   5158   5160     4  180.0000771  4.6024000  2
   5175   5179   5178   5180     4  180.0000771  4.6024000  2
   5184   5188   5187   5189     4  180.0000771  4.6024000  2
   5204   5208   5207   5209     4  180.0000771  4.6024000  2
   5213   5217   5216   5218     4  180.0000771  4.6024000  2
   5233   5237   5236   5238     4  180.0000771  4.6024000  2
   5242   5246   5245   5247     4  180.0000771  4.6024000  2
   5262   5266   5265   5267     4  180.0000771  4.6024000  2
   5271   5275   5274   5276     4  180.0000771  4.6024000  2
   5291   5295   5294   5296     4  180.0000771  4.6024000  2
   5300   5304   5303   5305     4  180.0000771  4.6024000  2
   5320   5324   5323   5325     4  180.0000771  4.6024000  2
   5329   5333   5332   5334     4  180.0000771  4.6024000  2
   5349   5353   5352   5354     4  180.0000771  4.6024000  2
   5358   5362   5361   5363     4  180.0000771  4.6024000  2
   5378   5382   5381   5383     4  180.0000771  4.6024000  2
   5387   5391   5390   5392     4  180.0000771  4.6024000  2
   5407   5411   5410   5412     4  180.0000771  4.6024000  2
   5416   5420   5419   5421     4  180.0000771  4.6024000  2
   5436   5440   5439   5441     4  180.0000771  4.6024000  2
   5445   5449   5448   5450     4  180.0000771  4.6024000  2
   5465   5469   5468   5470     4  180.0000771  4.6024000  2
   5474   5478   5477   5479     4  180.0000771  4.6024000  2
   5494   5498   5497   5499     4  180.0000771  4.6024000  2
   5503   5507   5506   5508     4  180.0000771  4.6024000  2
   5523   5527   5526   5528     4  180.0000771  4.6024000  2
   5532   5536   5535   5537     4  180.0000771  4.6024000  2
   5552   5556   5555   5557     4  180.0000771  4.6024000  2
   5561   5565   5564   5566     4  180.0000771  4.6024000  2
   5581   5585   5584   5586     4  180.0000771  4.6024000  2
   5590   5594   5593   5595     4  180.0000771  4.6024000  2
   5610   5614   5613   5615     4  180.0000771  4.6024000  2
   5619   5623   5622   5624     4  180.0000771  4.6024000  2
   5639   5643   5642   5644     4  180.0000771  4.6024000  2
   5648   5652   5651   5653     4  180.0000771  4.6024000  2
   5668   5672   5671   5673     4  180.0000771  4.6024000  2
   5677   5681   5680   5682     4  180.0000771  4.6024000  2
   5697   5701   5700   5702     4  180.0000771  4.6024000  2
   5706   5710   5709   5711     4  180.0000771  4.6024000  2
   5726   5730   5729   5731     4  180.0000771  4.6024000  2
   5735   5739   5738   5740     4  180.0000771  4.6024000  2
   5755   5759   5758   5760     4  180.0000771  4.6024000  2
   5764   5768   5767   5769     4  180.0000771  4.6024000  2
   5784   5788   5787   5789     4  180.0000771  4.6024000  2
   5793   5797   5796   5798     4  180.0000771  4.6024000  2
   5813   5817   5816   5818     4  180.0000771  4.6024000  2
   5822   5826   5825   5827     4  180.0000771  4.6024000  2
   5842   5846   5845   5847     4  180.0000771  4.6024000  2
   5851   5855   5854   5856     4  180.0000771  4.6024000  2
   5871   5875   5874   5876     4  180.0000771  4.6024000  2
   5880   5884   5883   5885     4  180.0000771  4.6024000  2
   5900   5904   5903   5905     4  180.0000771  4.6024000  2
   5909   5913   5912   5914     4  180.0000771  4.6024000  2
   5929   5933   5932   5934     4  180.0000771  4.6024000  2
   5938   5942   5941   5943     4  180.0000771  4.6024000  2
   5958   5962   5961   5963     4  180.0000771  4.6024000  2
   5967   5971   5970   5972     4  180.0000771  4.6024000  2
   5987   5991   5990   5992     4  180.0000771  4.6024000  2
   5996   6000   5999   6001     4  180.0000771  4.6024000  2
   6016   6020   6019   6021     4  180.0000771  4.6024000  2
   6025   6029   6028   6030     4  180.0000771  4.6024000  2
   6045   6049   6048   6050     4  180.0000771  4.6024000  2
   6054   6058   6057   6059     4  180.0000771  4.6024000  2
   6074   6078   6077   6079     4  180.0000771  4.6024000  2
   6083   6087   6086   6088     4  180.0000771  4.6024000  2
   6103   6107   6106   6108     4  180.0000771  4.6024000  2
   6112   6116   6115   6117     4  180.0000771  4.6024000  2
   6132   6136   6135   6137     4  180.0000771  4.6024000  2
   6141   6145   6144   6146     4  180.0000771  4.6024000  2
   6161   6165   6164   6166     4  180.0000771  4.6024000  2
   6170   6174   6173   6175     4  180.0000771  4.6024000  2
   6190   6194   6193   6195     4  180.0000771  4.6024000  2
   6199   6203   6202   6204     4  180.0000771  4.6024000  2
   6219   6223   6222   6224     4  180.0000771  4.6024000  2
   6228   6232   6231   6233     4  180.0000771  4.6024000  2
   6248   6252   6251   6253     4  180.0000771  4.6024000  2
   6257   6261   6260   6262     4  180.0000771  4.6024000  2
   6277   6281   6280   6282     4  180.0000771  4.6024000  2
   6286   6290   6289   6291     4  180.0000771  4.6024000  2
   6306   6310   6309   6311     4  180.0000771  4.6024000  2
   6315   6319   6318   6320     4  180.0000771  4.6024000  2
   6335   6339   6338   6340     4  180.0000771  4.6024000  2
   6344   6348   6347   6349     4  180.0000771  4.6024000  2
   6364   6368   6367   6369     4  180.0000771  4.6024000  2
   6373   6377   6376   6378     4  180.0000771  4.6024000  2
   6393   6397   6396   6398     4  180.0000771  4.6024000  2
   6402   6406   6405   6407     4  180.0000771  4.6024000  2
   6422   6426   6425   6427     4  180.0000771  4.6024000  2
   6431   6435   6434   6436     4  180.0000771  4.6024000  2
   6451   6455   6454   6456     4  180.0000771  4.6024000  2
   6460   6464   6463   6465     4  180.0000771  4.6024000  2
   6480   6484   6483   6485     4  180.0000771  4.6024000  2
   6489   6493   6492   6494     4  180.0000771  4.6024000  2
   6509   6513   6512   6514     4  180.0000771  4.6024000  2
   6518   6522   6521   6523     4  180.0000771  4.6024000  2
   6538   6542   6541   6543     4  180.0000771  4.6024000  2
   6547   6551   6550   6552     4  180.0000771  4.6024000  2
   6567   6571   6570   6572     4  180.0000771  4.6024000  2
   6576   6580   6579   6581     4  180.0000771  4.6024000  2
   6596   6600   6599   6601     4  180.0000771  4.6024000  2
   6605   6609   6608   6610     4  180.0000771  4.6024000  2
   6625   6629   6628   6630     4  180.0000771  4.6024000  2
   6634   6638   6637   6639     4  180.0000771  4.6024000  2
   6654   6658   6657   6659     4  180.0000771  4.6024000  2
   6663   6667   6666   6668     4  180.0000771  4.6024000  2
   6683   6687   6686   6688     4  180.0000771  4.6024000  2
   6692   6696   6695   6697     4  180.0000771  4.6024000  2
   6712   6716   6715   6717     4  180.0000771  4.6024000  2
   6721   6725   6724   6726     4  180.0000771  4.6024000  2
   6741   6745   6744   6746     4  180.0000771  4.6024000  2
   6750   6754   6753   6755     4  180.0000771  4.6024000  2
   6770   6774   6773   6775     4  180.0000771  4.6024000  2
   6779   6783   6782   6784     4  180.0000771  4.6024000  2
   6799   6803   6802   6804     4  180.0000771  4.6024000  2
   6808   6812   6811   6813     4  180.0000771  4.6024000  2
   6828   6832   6831   6833     4  180.0000771  4.6024000  2
   6837   6841   6840   6842     4  180.0000771  4.6024000  2
   6857   6861   6860   6862     4  180.0000771  4.6024000  2
   6866   6870   6869   6871     4  180.0000771  4.6024000  2
   6886   6890   6889   6891     4  180.0000771  4.6024000  2
   6895   6899   6898   6900     4  180.0000771  4.6024000  2
   6915   6919   6918   6920     4  180.0000771  4.6024000  2
   6924   6928   6927   6929     4  180.0000771  4.6024000  2
   6944   6948   6947   6949     4  180.0000771  4.6024000  2
   6953   6957   6956   6958     4  180.0000771  4.6024000  2
   6973   6977   6976   6978     4  180.0000771  4.6024000  2
   6982   6986   6985   6987     4  180.0000771  4.6024000  2
   7002   7006   7005   7007     4  180.0000771  4.6024000  2
   7011   7015   7014   7016     4  180.0000771  4.6024000  2
   7031   7035   7034   7036     4  180.0000771  4.6024000  2
   7040   7044   7043   7045     4  180.0000771  4.6024000  2
   7060   7064   7063   7065     4  180.0000771  4.6024000  2
   7069   7073   7072   7074     4  180.0000771  4.6024000  2
   7089   7093   7092   7094     4  180.0000771  4.6024000  2
   7098   7102   7101   7103     4  180.0000771  4.6024000  2
   7118   7122   7121   7123     4  180.0000771  4.6024000  2
   7127   7131   7130   7132     4  180.0000771  4.6024000  2
   7147   7151   7150   7152     4  180.0000771  4.6024000  2
   7156   7160   7159   7161     4  180.0000771  4.6024000  2
   7176   7180   7179   7181     4  180.0000771  4.6024000  2
   7185   7189   7188   7190     4  180.0000771  4.6024000  2
   7205   7209   7208   7210     4  180.0000771  4.6024000  2
   7214   7218   7217   7219     4  180.0000771  4.6024000  2
   7234   7238   7237   7239     4  180.0000771  4.6024000  2
   7243   7247   7246   7248     4  180.0000771  4.6024000  2
   7263   7267   7266   7268     4  180.0000771  4.6024000  2
   7272   7276   7275   7277     4  180.0000771  4.6024000  2
   7292   7296   7295   7297     4  180.0000771  4.6024000  2
   7301   7305   7304   7306     4  180.0000771  4.6024000  2
   7321   7325   7324   7326     4  180.0000771  4.6024000  2
   7330   7334   7333   7335     4  180.0000771  4.6024000  2
   7350   7354   7353   7355     4  180.0000771  4.6024000  2
   7359   7363   7362   7364     4  180.0000771  4.6024000  2
      1      2      8      9     1  0.0000000  1.0460000  1
      1      2      8      9     1  0.0000000  0.0000000  3
      1      2      8     10     1  0.0000000  1.0460000  1
      1      2      8     10     1  0.0000000  0.0000000  3
      1      5     11     12     1  0.0000000  1.0460000  1
      1      5     11     12     1  0.0000000  0.0000000  3
      1      5     11     13     1  0.0000000  1.0460000  1
      1      5     11     13     1  0.0000000  0.0000000  3
      2      1      5      6     1  0.0000000  1.6038667  3
      2      1      5      7     1  0.0000000  1.6038667  3
      2      8     14     15     1  0.0000000  0.6508444  3
      2      8     14     16     1  0.0000000  0.6508444  3
      5      1      2      3     1  0.0000000  1.6038667  3
      3      2      8     14     1  0.0000000  0.6508444  3
      3      2      8      9     1  0.0000000  0.6508444  3
      3      2      8     10     1  0.0000000  0.6508444  3
      5      1      2      4     1  0.0000000  1.6038667  3
      4      2      8     14     1  0.0000000  0.6508444  3
      4      2      8      9     1  0.0000000  0.6508444  3
      4      2      8     10     1  0.0000000  0.6508444  3
      5     11     17     18     1  0.0000000  0.6508444  3
      5     11     17     19     1  0.0000000  0.6508444  3
      6      5     11     17     1  0.0000000  0.6508444  3
      6      5     11     12     1  0.0000000  0.6508444  3
      6      5     11     13     1  0.0000000  0.6508444  3
      7      5     11     17     1  0.0000000  0.6508444  3
      7      5     11     12     1  0.0000000  0.6508444  3
      7      5     11     13     1  0.0000000  0.6508444  3
      9      8     14     20     1  0.0000000  0.6508444  3
      9      8     14     15     1  0.0000000  0.6508444  3
      9      8     14     16     1  0.0000000  0.6508444  3
     10      8     14     20     1  0.0000000  0.6508444  3
     10      8     14     15     1  0.0000000  0.6508444  3
     10      8     14     16     1  0.0000000  0.6508444  3
     12     11     17     21     1  0.0000000  0.6508444  3
     12     11     17     18     1  0.0000000  0.6508444  3
     12     11     17     19     1  0.0000000  0.6508444  3
     13     11     17     21     1  0.0000000  0.6508444  3
     13     11     17     18     1  0.0000000  0.6508444  3
     13     11     17     19     1  0.0000000  0.6508444  3
     14     20     28     29     1  0.0000000  1.2552000  3
     14     20     28     30     1  0.0000000  1.2552000  3
     14     20     31     32     1  0.0000000  1.2552000  3
     14     20     31     33     1  0.0000000  1.2552000  3
     15     14     20     28     1  0.0000000  1.2552000  3
     15     14     20     31     1  0.0000000  1.2552000  3
     16     14     20     28     1  0.0000000  1.2552000  3
     16     14     20     31     1  0.0000000  1.2552000  3
     17     21     22     23     1  0.0000000  1.2552000  3
     17     21     22     24     1  0.0000000  1.2552000  3
     17     21     25     26     1  0.0000000  1.2552000  3
     17     21     25     27     1  0.0000000  1.2552000  3
     18     17     21     22     1  0.0000000  1.2552000  3
     18     17     21     25     1  0.0000000  1.2552000  3
     19     17     21     22     1  0.0000000  1.2552000  3
     19     17     21     25     1  0.0000000  1.2552000  3
     20     28     40     41     1  0.0000000  0.6508444  3
     20     28     40     42     1  0.0000000  0.6508444  3
     20     31     43     44     1  0.0000000  0.6508444  3
     20     31     43     45     1  0.0000000  0.6508444  3
     21     22     34     35     1  0.0000000  0.6508444  3
     21     22     34     36     1  0.0000000  0.6508444  3
     21     25     37     38     1  0.0000000  0.6508444  3
     21     25     37     39     1  0.0000000  0.6508444  3
     22     21     25     26     1  0.0000000  1.2552000  3
     22     21     25     27     1  0.0000000  1.2552000  3
     22     34     55     56     1  0.0000000  0.6508444  3
     22     34     55     57     1  0.0000000  0.6508444  3
     23     22     21     25     1  0.0000000  1.2552000  3
     23     22     34     55     1  0.0000000  0.6508444  3
     23     22     34     35     1  0.0000000  0.6508444  3
     23     22     34     36     1  0.0000000  0.6508444  3
     24     22     21     25     1  0.0000000  1.2552000  3
     24     22     34     55     1  0.0000000  0.6508444  3
     24     22     34     35     1  0.0000000  0.6508444  3
     24     22     34     36     1  0.0000000  0.6508444  3
     25     37     52     53     1  0.0000000  0.6508444  3
     25     37     52     54     1  0.0000000  0.6508444  3
     26     25     37     52     1  0.0000000  0.6508444  3
     26     25     37     38     1  0.0000000  0.6508444  3
     26     25     37     39     1  0.0000000  0.6508444  3
     27     25     37     52     1  0.0000000  0.6508444  3
     27     25     37     38     1  0.0000000  0.6508444  3
     27     25     37     39     1  0.0000000  0.6508444  3
     28     20     31     32     1  0.0000000  1.2552000  3
     28     20     31     33     1  0.0000000  1.2552000  3
     28     40     49     50     1  0.0000000  0.6508444  3
     28     40     49     51     1  0.0000000  0.6508444  3
     29     28     20     31     1  0.0000000  1.2552000  3
     29     28     40     49     1  0.0000000  0.6508444  3
     29     28     40     41     1  0.0000000  0.6508444  3
     29     28     40     42     1  0.0000000  0.6508444  3
     30     28     20     31     1  0.0000000  1.2552000  3
     30     28     40     49     1  0.0000000  0.6508444  3
     30     28     40     41     1  0.0000000  0.6508444  3
     30     28     40     42     1  0.0000000  0.6508444  3
     31     43     46     47     1  0.0000000  0.6508444  3
     31     43     46     48     1  0.0000000  0.6508444  3
     32     31     43     46     1  0.0000000  0.6508444  3
     32     31     43     44     1  0.0000000  0.6508444  3
     32     31     43     45     1  0.0000000  0.6508444  3
     33     31     43     46     1  0.0000000  0.6508444  3
     33     31     43     44     1  0.0000000  0.6508444  3
     33     31     43     45     1  0.0000000  0.6508444  3
     35     34     55    173     1  0.0000000  1.0460000  1
     35     34     55    173     1  0.0000000  0.0000000  3
     35     34     55     56     1  0.0000000  0.6508444  3
     35     34     55     57     1  0.0000000  0.6508444  3
     36     34     55    173     1  0.0000000  1.0460000  1
     36     34     55    173     1  0.0000000  0.0000000  3
     36     34     55     56     1  0.0000000  0.6508444  3
     36     34     55     57     1  0.0000000  0.6508444  3
     38     37     52    144     1  0.0000000  1.0460000  1
     38     37     52    144     1  0.0000000  0.0000000  3
     38     37     52     53     1  0.0000000  0.6508444  3
     38     37     52     54     1  0.0000000  0.6508444  3
     39     37     52    144     1  0.0000000  1.0460000  1
     39     37     52    144     1  0.0000000  0.0000000  3
     39     37     52     53     1  0.0000000  0.6508444  3
     39     37     52     54     1  0.0000000  0.6508444  3
     41     40     49    115     1  0.0000000  1.0460000  1
     41     40     49    115     1  0.0000000  0.0000000  3
     41     40     49     50     1  0.0000000  0.6508444  3
     41     40     49     51     1  0.0000000  0.6508444  3
     42     40     49    115     1  0.0000000  1.0460000  1
     42     40     49    115     1  0.0000000  0.0000000  3
     42     40     49     50     1  0.0000000  0.6508444  3
     42     40     49     51     1  0.0000000  0.6508444  3
     44     43     46     86     1  0.0000000  1.0460000  1
     44     43     46     86     1  0.0000000  0.0000000  3
     44     43     46     47     1  0.0000000  0.6508444  3
     44     43     46     48     1  0.0000000  0.6508444  3
     45     43     46     86     1  0.0000000  1.0460000  1
     45     43     46     86     1  0.0000000  0.0000000  3
     45     43     46     47     1  0.0000000  0.6508444  3
     45     43     46     48     1  0.0000000  0.6508444  3
     46     86     77     78     1  0.0000000  1.6038667  3
     46     86     77     79     1  0.0000000  1.6038667  3
     47     46     86     77     1  0.0000000  1.6038667  3
     48     46     86     77     1  0.0000000  1.6038667  3
     49    115    106    107     1  0.0000000  1.6038667  3
     49    115    106    108     1  0.0000000  1.6038667  3
     50     49    115    106     1  0.0000000  1.6038667  3
     51     49    115    106     1  0.0000000  1.6038667  3
     52    144    135    136     1  0.0000000  1.6038667  3
     52    144    135    137     1  0.0000000  1.6038667  3
     53     52    144    135     1  0.0000000  1.6038667  3
     54     52    144    135     1  0.0000000  1.6038667  3
     55    173    164    165     1  0.0000000  1.6038667  3
     55    173    164    166     1  0.0000000  1.6038667  3
     56     55    173    164     1  0.0000000  1.6038667  3
     57     55    173    164     1  0.0000000  1.6038667  3
     58     59     71     72     1  0.0000000  0.6508444  3
     58     59     71     73     1  0.0000000  0.6508444  3
     58     62     74     75     1  0.0000000  0.6508444  3
     58     62     74     76     1  0.0000000  0.6508444  3
     58     65     68     69     1  0.0000000  0.6508444  3
     58     65     68     70     1  0.0000000  0.6508444  3
     59     58     62     63     1  0.0000000  1.2552000  3
     59     58     62     64     1  0.0000000  1.2552000  3
     59     58     65     66     1  0.0000000  1.2552000  3
     59     58     65     67     1  0.0000000  1.2552000  3
     59     71     83     84     1  0.0000000  0.6508444  3
     59     71     83     85     1  0.0000000  0.6508444  3
     60     59     58     62     1  0.0000000  1.2552000  3
     60     59     58     65     1  0.0000000  1.2552000  3
     60     59     71     83     1  0.0000000  0.6508444  3
     60     59     71     72     1  0.0000000  0.6508444  3
     60     59     71     73     1  0.0000000  0.6508444  3
     61     59     58     62     1  0.0000000  1.2552000  3
     61     59     58     65     1  0.0000000  1.2552000  3
     61     59     71     83     1  0.0000000  0.6508444  3
     61     59     71     72     1  0.0000000  0.6508444  3
     61     59     71     73     1  0.0000000  0.6508444  3
     62     58     65     66     1  0.0000000  1.2552000  3
     62     58     65     67     1  0.0000000  1.2552000  3
     62     74     80     81     1  0.0000000  0.6508444  3
     62     74     80     82     1  0.0000000  0.6508444  3
     63     62     58     65     1  0.0000000  1.2552000  3
     63     62     74     80     1  0.0000000  0.6508444  3
     63     62     74     75     1  0.0000000  0.6508444  3
     63     62     74     76     1  0.0000000  0.6508444  3
     64     62     58     65     1  0.0000000  1.2552000  3
     64     62     74     80     1  0.0000000  0.6508444  3
     64     62     74     75     1  0.0000000  0.6508444  3
     64     62     74     76     1  0.0000000  0.6508444  3
     65     68     77     78     1  0.0000000  0.6508444  3
     65     68     77     79     1  0.0000000  0.6508444  3
     66     65     68     77     1  0.0000000  0.6508444  3
     66     65     68     69     1  0.0000000  0.6508444  3
     66     65     68     70     1  0.0000000  0.6508444  3
     67     65     68     77     1  0.0000000  0.6508444  3
     67     65     68     69     1  0.0000000  0.6508444  3
     67     65     68     70     1  0.0000000  0.6508444  3
     69     68     77     86     1  0.0000000  1.0460000  1
     69     68     77     86     1  0.0000000  0.0000000  3
     69     68     77     78     1  0.0000000  0.6508444  3
     69     68     77     79     1  0.0000000  0.6508444  3
     70     68     77     86     1  0.0000000  1.0460000  1
     70     68     77     86     1  0.0000000  0.0000000  3
     70     68     77     78     1  0.0000000  0.6508444  3
     70     68     77     79     1  0.0000000  0.6508444  3
     72     71     83    231     1  0.0000000  1.0460000  1
     72     71     83    231     1  0.0000000  0.0000000  3
     72     71     83     84     1  0.0000000  0.6508444  3
     72     71     83     85     1  0.0000000  0.6508444  3
     73     71     83    231     1  0.0000000  1.0460000  1
     73     71     83    231     1  0.0000000  0.0000000  3
     73     71     83     84     1  0.0000000  0.6508444  3
     73     71     83     85     1  0.0000000  0.6508444  3
     75     74     80    202     1  0.0000000  1.0460000  1
     75     74     80    202     1  0.0000000  0.0000000  3
     75     74     80     81     1  0.0000000  0.6508444  3
     75     74     80     82     1  0.0000000  0.6508444  3
     76     74     80    202     1  0.0000000  1.0460000  1
     76     74     80    202     1  0.0000000  0.0000000  3
     76     74     80     81     1  0.0000000  0.6508444  3
     76     74     80     82     1  0.0000000  0.6508444  3
     80    202    193    194     1  0.0000000  1.6038667  3
     80    202    193    195     1  0.0000000  1.6038667  3
     81     80    202    193     1  0.0000000  1.6038667  3
     82     80    202    193     1  0.0000000  1.6038667  3
     83    231    222    223     1  0.0000000  1.6038667  3
     83    231    222    224     1  0.0000000  1.6038667  3
     84     83    231    222     1  0.0000000  1.6038667  3
     85     83    231    222     1  0.0000000  1.6038667  3
     87     88    100    101     1  0.0000000  0.6508444  3
     87     88    100    102     1  0.0000000  0.6508444  3
     87     91    103    104     1  0.0000000  0.6508444  3
     87     91    103    105     1  0.0000000  0.6508444  3
     87     94     97     98     1  0.0000000  0.6508444  3
     87     94     97     99     1  0.0000000  0.6508444  3
     88     87     91     92     1  0.0000000  1.2552000  3
     88     87     91     93     1  0.0000000  1.2552000  3
     88     87     94     95     1  0.0000000  1.2552000  3
     88     87     94     96     1  0.0000000  1.2552000  3
     88    100    112    113     1  0.0000000  0.6508444  3
     88    100    112    114     1  0.0000000  0.6508444  3
     89     88     87     91     1  0.0000000  1.2552000  3
     89     88     87     94     1  0.0000000  1.2552000  3
     89     88    100    112     1  0.0000000  0.6508444  3
     89     88    100    101     1  0.0000000  0.6508444  3
     89     88    100    102     1  0.0000000  0.6508444  3
     90     88     87     91     1  0.0000000  1.2552000  3
     90     88     87     94     1  0.0000000  1.2552000  3
     90     88    100    112     1  0.0000000  0.6508444  3
     90     88    100    101     1  0.0000000  0.6508444  3
     90     88    100    102     1  0.0000000  0.6508444  3
     91     87     94     95     1  0.0000000  1.2552000  3
     91     87     94     96     1  0.0000000  1.2552000  3
     91    103    109    110     1  0.0000000  0.6508444  3
     91    103    109    111     1  0.0000000  0.6508444  3
     92     91     87     94     1  0.0000000  1.2552000  3
     92     91    103    109     1  0.0000000  0.6508444  3
     92     91    103    104     1  0.0000000  0.6508444  3
     92     91    103    105     1  0.0000000  0.6508444  3
     93     91     87     94     1  0.0000000  1.2552000  3
     93     91    103    109     1  0.0000000  0.6508444  3
     93     91    103    104     1  0.0000000  0.6508444  3
     93     91    103    105     1  0.0000000  0.6508444  3
     94     97    106    107     1  0.0000000  0.6508444  3
     94     97    106    108     1  0.0000000  0.6508444  3
     95     94     97    106     1  0.0000000  0.6508444  3
     95     94     97     98     1  0.0000000  0.6508444  3
     95     94     97     99     1  0.0000000  0.6508444  3
     96     94     97    106     1  0.0000000  0.6508444  3
     96     94     97     98     1  0.0000000  0.6508444  3
     96     94     97     99     1  0.0000000  0.6508444  3
     98     97    106    115     1  0.0000000  1.0460000  1
     98     97    106    115     1  0.0000000  0.0000000  3
     98     97    106    107     1  0.0000000  0.6508444  3
     98     97    106    108     1  0.0000000  0.6508444  3
     99     97    106    115     1  0.0000000  1.0460000  1
     99     97    106    115     1  0.0000000  0.0000000  3
     99     97    106    107     1  0.0000000  0.6508444  3
     99     97    106    108     1  0.0000000  0.6508444  3
    101    100    112    289     1  0.0000000  1.0460000  1
    101    100    112    289     1  0.0000000  0.0000000  3
    101    100    112    113     1  0.0000000  0.6508444  3
    101    100    112    114     1  0.0000000  0.6508444  3
    102    100    112    289     1  0.0000000  1.0460000  1
    102    100    112    289     1  0.0000000  0.0000000  3
    102    100    112    113     1  0.0000000  0.6508444  3
    102    100    112    114     1  0.0000000  0.6508444  3
    104    103    109    260     1  0.0000000  1.0460000  1
    104    103    109    260     1  0.0000000  0.0000000  3
    104    103    109    110     1  0.0000000  0.6508444  3
    104    103    109    111     1  0.0000000  0.6508444  3
    105    103    109    260     1  0.0000000  1.0460000  1
    105    103    109    260     1  0.0000000  0.0000000  3
    105    103    109    110     1  0.0000000  0.6508444  3
    105    103    109    111     1  0.0000000  0.6508444  3
    109    260    251    252     1  0.0000000  1.6038667  3
    109    260    251    253     1  0.0000000  1.6038667  3
    110    109    260    251     1  0.0000000  1.6038667  3
    111    109    260    251     1  0.0000000  1.6038667  3
    112    289    280    281     1  0.0000000  1.6038667  3
    112    289    280    282     1  0.0000000  1.6038667  3
    113    112    289    280     1  0.0000000  1.6038667  3
    114    112    289    280     1  0.0000000  1.6038667  3
    116    117    129    130     1  0.0000000  0.6508444  3
    116    117    129    131     1  0.0000000  0.6508444  3
    116    120    132    133     1  0.0000000  0.6508444  3
    116    120    132    134     1  0.0000000  0.6508444  3
    116    123    126    127     1  0.0000000  0.6508444  3
    116    123    126    128     1  0.0000000  0.6508444  3
    117    116    120    121     1  0.0000000  1.2552000  3
    117    116    120    122     1  0.0000000  1.2552000  3
    117    116    123    124     1  0.0000000  1.2552000  3
    117    116    123    125     1  0.0000000  1.2552000  3
    117    129    141    142     1  0.0000000  0.6508444  3
    117    129    141    143     1  0.0000000  0.6508444  3
    118    117    116    120     1  0.0000000  1.2552000  3
    118    117    116    123     1  0.0000000  1.2552000  3
    118    117    129    141     1  0.0000000  0.6508444  3
    118    117    129    130     1  0.0000000  0.6508444  3
    118    117    129    131     1  0.0000000  0.6508444  3
    119    117    116    120     1  0.0000000  1.2552000  3
    119    117    116    123     1  0.0000000  1.2552000  3
    119    117    129    141     1  0.0000000  0.6508444  3
    119    117    129    130     1  0.0000000  0.6508444  3
    119    117    129    131     1  0.0000000  0.6508444  3
    120    116    123    124     1  0.0000000  1.2552000  3
    120    116    123    125     1  0.0000000  1.2552000  3
    120    132    138    139     1  0.0000000  0.6508444  3
    120    132    138    140     1  0.0000000  0.6508444  3
    121    120    116    123     1  0.0000000  1.2552000  3
    121    120    132    138     1  0.0000000  0.6508444  3
    121    120    132    133     1  0.0000000  0.6508444  3
    121    120    132    134     1  0.0000000  0.6508444  3
    122    120    116    123     1  0.0000000  1.2552000  3
    122    120    132    138     1  0.0000000  0.6508444  3
    122    120    132    133     1  0.0000000  0.6508444  3
    122    120    132    134     1  0.0000000  0.6508444  3
    123    126    135    136     1  0.0000000  0.6508444  3
    123    126    135    137     1  0.0000000  0.6508444  3
    124    123    126    135     1  0.0000000  0.6508444  3
    124    123    126    127     1  0.0000000  0.6508444  3
    124    123    126    128     1  0.0000000  0.6508444  3
    125    123    126    135     1  0.0000000  0.6508444  3
    125    123    126    127     1  0.0000000  0.6508444  3
    125    123    126    128     1  0.0000000  0.6508444  3
    127    126    135    144     1  0.0000000  1.0460000  1
    127    126    135    144     1  0.0000000  0.0000000  3
    127    126    135    136     1  0.0000000  0.6508444  3
    127    126    135    137     1  0.0000000  0.6508444  3
    128    126    135    144     1  0.0000000  1.0460000  1
    128    126    135    144     1  0.0000000  0.0000000  3
    128    126    135    136     1  0.0000000  0.6508444  3
    128    126    135    137     1  0.0000000  0.6508444  3
    130    129    141    347     1  0.0000000  1.0460000  1
    130    129    141    347     1  0.0000000  0.0000000  3
    130    129    141    142     1  0.0000000  0.6508444  3
    130    129    141    143     1  0.0000000  0.6508444  3
    131    129    141    347     1  0.0000000  1.0460000  1
    131    129    141    347     1  0.0000000  0.0000000  3
    131    129    141    142     1  0.0000000  0.6508444  3
    131    129    141    143     1  0.0000000  0.6508444  3
    133    132    138    318     1  0.0000000  1.0460000  1
    133    132    138    318     1  0.0000000  0.0000000  3
    133    132    138    139     1  0.0000000  0.6508444  3
    133    132    138    140     1  0.0000000  0.6508444  3
    134    132    138    318     1  0.0000000  1.0460000  1
    134    132    138    318     1  0.0000000  0.0000000  3
    134    132    138    139     1  0.0000000  0.6508444  3
    134    132    138    140     1  0.0000000  0.6508444  3
    138    318    309    310     1  0.0000000  1.6038667  3
    138    318    309    311     1  0.0000000  1.6038667  3
    139    138    318    309     1  0.0000000  1.6038667  3
    140    138    318    309     1  0.0000000  1.6038667  3
    141    347    338    339     1  0.0000000  1.6038667  3
    141    347    338    340     1  0.0000000  1.6038667  3
    142    141    347    338     1  0.0000000  1.6038667  3
    143    141    347    338     1  0.0000000  1.6038667  3
    145    146    158    159     1  0.0000000  0.6508444  3
    145    146    158    160     1  0.0000000  0.6508444  3
    145    149    161    162     1  0.0000000  0.6508444  3
    145    149    161    163     1  0.0000000  0.6508444  3
    145    152    155    156     1  0.0000000  0.6508444  3
    145    152    155    157     1  0.0000000  0.6508444  3
    146    145    149    150     1  0.0000000  1.2552000  3
    146    145    149    151     1  0.0000000  1.2552000  3
    146    145    152    153     1  0.0000000  1.2552000  3
    146    145    152    154     1  0.0000000  1.2552000  3
    146    158    170    171     1  0.0000000  0.6508444  3
    146    158    170    172     1  0.0000000  0.6508444  3
    147    146    145    149     1  0.0000000  1.2552000  3
    147    146    145    152     1  0.0000000  1.2552000  3
    147    146    158    170     1  0.0000000  0.6508444  3
    147    146    158    159     1  0.0000000  0.6508444  3
    147    146    158    160     1  0.0000000  0.6508444  3
    148    146    145    149     1  0.0000000  1.2552000  3
    148    146    145    152     1  0.0000000  1.2552000  3
    148    146    158    170     1  0.0000000  0.6508444  3
    148    146    158    159     1  0.0000000  0.6508444  3
    148    146    158    160     1  0.0000000  0.6508444  3
    149    145    152    153     1  0.0000000  1.2552000  3
    149    145    152    154     1  0.0000000  1.2552000  3
    149    161    167    168     1  0.0000000  0.6508444  3
    149    161    167    169     1  0.0000000  0.6508444  3
    150    149    145    152     1  0.0000000  1.2552000  3
    150    149    161    167     1  0.0000000  0.6508444  3
    150    149    161    162     1  0.0000000  0.6508444  3
    150    149    161    163     1  0.0000000  0.6508444  3
    151    149    145    152     1  0.0000000  1.2552000  3
    151    149    161    167     1  0.0000000  0.6508444  3
    151    149    161    162     1  0.0000000  0.6508444  3
    151    149    161    163     1  0.0000000  0.6508444  3
    152    155    164    165     1  0.0000000  0.6508444  3
    152    155    164    166     1  0.0000000  0.6508444  3
    153    152    155    164     1  0.0000000  0.6508444  3
    153    152    155    156     1  0.0000000  0.6508444  3
    153    152    155    157     1  0.0000000  0.6508444  3
    154    152    155    164     1  0.0000000  0.6508444  3
    154    152    155    156     1  0.0000000  0.6508444  3
    154    152    155    157     1  0.0000000  0.6508444  3
    156    155    164    173     1  0.0000000  1.0460000  1
    156    155    164    173     1  0.0000000  0.0000000  3
    156    155    164    165     1  0.0000000  0.6508444  3
    156    155    164    166     1  0.0000000  0.6508444  3
    157    155    164    173     1  0.0000000  1.0460000  1
    157    155    164    173     1  0.0000000  0.0000000  3
    157    155    164    165     1  0.0000000  0.6508444  3
    157    155    164    166     1  0.0000000  0.6508444  3
    159    158    170    405     1  0.0000000  1.0460000  1
    159    158    170    405     1  0.0000000  0.0000000  3
    159    158    170    171     1  0.0000000  0.6508444  3
    159    158    170    172     1  0.0000000  0.6508444  3
    160    158    170    405     1  0.0000000  1.0460000  1
    160    158    170    405     1  0.0000000  0.0000000  3
    160    158    170    171     1  0.0000000  0.6508444  3
    160    158    170    172     1  0.0000000  0.6508444  3
    162    161    167    376     1  0.0000000  1.0460000  1
    162    161    167    376     1  0.0000000  0.0000000  3
    162    161    167    168     1  0.0000000  0.6508444  3
    162    161    167    169     1  0.0000000  0.6508444  3
    163    161    167    376     1  0.0000000  1.0460000  1
    163    161    167    376     1  0.0000000  0.0000000  3
    163    161    167    168     1  0.0000000  0.6508444  3
    163    161    167    169     1  0.0000000  0.6508444  3
    167    376    367    368     1  0.0000000  1.6038667  3
    167    376    367    369     1  0.0000000  1.6038667  3
    168    167    376    367     1  0.0000000  1.6038667  3
    169    167    376    367     1  0.0000000  1.6038667  3
    170    405    396    397     1  0.0000000  1.6038667  3
    170    405    396    398     1  0.0000000  1.6038667  3
    171    170    405    396     1  0.0000000  1.6038667  3
    172    170    405    396     1  0.0000000  1.6038667  3
    174    175    187    188     1  0.0000000  0.6508444  3
    174    175    187    189     1  0.0000000  0.6508444  3
    174    178    190    191     1  0.0000000  0.6508444  3
    174    178    190    192     1  0.0000000  0.6508444  3
    174    181    184    185     1  0.0000000  0.6508444  3
    174    181    184    186     1  0.0000000  0.6508444  3
    175    174    178    179     1  0.0000000  1.2552000  3
    175    174    178    180     1  0.0000000  1.2552000  3
    175    174    181    182     1  0.0000000  1.2552000  3
    175    174    181    183     1  0.0000000  1.2552000  3
    175    187    199    200     1  0.0000000  0.6508444  3
    175    187    199    201     1  0.0000000  0.6508444  3
    176    175    174    178     1  0.0000000  1.2552000  3
    176    175    174    181     1  0.0000000  1.2552000  3
    176    175    187    199     1  0.0000000  0.6508444  3
    176    175    187    188     1  0.0000000  0.6508444  3
    176    175    187    189     1  0.0000000  0.6508444  3
    177    175    174    178     1  0.0000000  1.2552000  3
    177    175    174    181     1  0.0000000  1.2552000  3
    177    175    187    199     1  0.0000000  0.6508444  3
    177    175    187    188     1  0.0000000  0.6508444  3
    177    175    187    189     1  0.0000000  0.6508444  3
    178    174    181    182     1  0.0000000  1.2552000  3
    178    174    181    183     1  0.0000000  1.2552000  3
    178    190    196    197     1  0.0000000  0.6508444  3
    178    190    196    198     1  0.0000000  0.6508444  3
    179    178    174    181     1  0.0000000  1.2552000  3
    179    178    190    196     1  0.0000000  0.6508444  3
    179    178    190    191     1  0.0000000  0.6508444  3
    179    178    190    192     1  0.0000000  0.6508444  3
    180    178    174    181     1  0.0000000  1.2552000  3
    180    178    190    196     1  0.0000000  0.6508444  3
    180    178    190    191     1  0.0000000  0.6508444  3
    180    178    190    192     1  0.0000000  0.6508444  3
    181    184    193    194     1  0.0000000  0.6508444  3
    181    184    193    195     1  0.0000000  0.6508444  3
    182    181    184    193     1  0.0000000  0.6508444  3
    182    181    184    185     1  0.0000000  0.6508444  3
    182    181    184    186     1  0.0000000  0.6508444  3
    183    181    184    193     1  0.0000000  0.6508444  3
    183    181    184    185     1  0.0000000  0.6508444  3
    183    181    184    186     1  0.0000000  0.6508444  3
    185    184    193    202     1  0.0000000  1.0460000  1
    185    184    193    202     1  0.0000000  0.0000000  3
    185    184    193    194     1  0.0000000  0.6508444  3
    185    184    193    195     1  0.0000000  0.6508444  3
    186    184    193    202     1  0.0000000  1.0460000  1
    186    184    193    202     1  0.0000000  0.0000000  3
    186    184    193    194     1  0.0000000  0.6508444  3
    186    184    193    195     1  0.0000000  0.6508444  3
    188    187    199    463     1  0.0000000  1.0460000  1
    188    187    199    463     1  0.0000000  0.0000000  3
    188    187    199    200     1  0.0000000  0.6508444  3
    188    187    199    201     1  0.0000000  0.6508444  3
    189    187    199    463     1  0.0000000  1.0460000  1
    189    187    199    463     1  0.0000000  0.0000000  3
    189    187    199    200     1  0.0000000  0.6508444  3
    189    187    199    201     1  0.0000000  0.6508444  3
    191    190    196    434     1  0.0000000  1.0460000  1
    191    190    196    434     1  0.0000000  0.0000000  3
    191    190    196    197     1  0.0000000  0.6508444  3
    191    190    196    198     1  0.0000000  0.6508444  3
    192    190    196    434     1  0.0000000  1.0460000  1
    192    190    196    434     1  0.0000000  0.0000000  3
    192    190    196    197     1  0.0000000  0.6508444  3
    192    190    196    198     1  0.0000000  0.6508444  3
    196    434    425    426     1  0.0000000  1.6038667  3
    196    434    425    427     1  0.0000000  1.6038667  3
    197    196    434    425     1  0.0000000  1.6038667  3
    198    196    434    425     1  0.0000000  1.6038667  3
    199    463    454    455     1  0.0000000  1.6038667  3
    199    463    454    456     1  0.0000000  1.6038667  3
    200    199    463    454     1  0.0000000  1.6038667  3
    201    199    463    454     1  0.0000000  1.6038667  3
    203    204    216    217     1  0.0000000  0.6508444  3
    203    204    216    218     1  0.0000000  0.6508444  3
    203    207    219    220     1  0.0000000  0.6508444  3
    203    207    219    221     1  0.0000000  0.6508444  3
    203    210    213    214     1  0.0000000  0.6508444  3
    203    210    213    215     1  0.0000000  0.6508444  3
    204    203    207    208     1  0.0000000  1.2552000  3
    204    203    207    209     1  0.0000000  1.2552000  3
    204    203    210    211     1  0.0000000  1.2552000  3
    204    203    210    212     1  0.0000000  1.2552000  3
    204    216    228    229     1  0.0000000  0.6508444  3
    204    216    228    230     1  0.0000000  0.6508444  3
    205    204    203    207     1  0.0000000  1.2552000  3
    205    204    203    210     1  0.0000000  1.2552000  3
    205    204    216    228     1  0.0000000  0.6508444  3
    205    204    216    217     1  0.0000000  0.6508444  3
    205    204    216    218     1  0.0000000  0.6508444  3
    206    204    203    207     1  0.0000000  1.2552000  3
    206    204    203    210     1  0.0000000  1.2552000  3
    206    204    216    228     1  0.0000000  0.6508444  3
    206    204    216    217     1  0.0000000  0.6508444  3
    206    204    216    218     1  0.0000000  0.6508444  3
    207    203    210    211     1  0.0000000  1.2552000  3
    207    203    210    212     1  0.0000000  1.2552000  3
    207    219    225    226     1  0.0000000  0.6508444  3
    207    219    225    227     1  0.0000000  0.6508444  3
    208    207    203    210     1  0.0000000  1.2552000  3
    208    207    219    225     1  0.0000000  0.6508444  3
    208    207    219    220     1  0.0000000  0.6508444  3
    208    207    219    221     1  0.0000000  0.6508444  3
    209    207    203    210     1  0.0000000  1.2552000  3
    209    207    219    225     1  0.0000000  0.6508444  3
    209    207    219    220     1  0.0000000  0.6508444  3
    209    207    219    221     1  0.0000000  0.6508444  3
    210    213    222    223     1  0.0000000  0.6508444  3
    210    213    222    224     1  0.0000000  0.6508444  3
    211    210    213    222     1  0.0000000  0.6508444  3
    211    210    213    214     1  0.0000000  0.6508444  3
    211    210    213    215     1  0.0000000  0.6508444  3
    212    210    213    222     1  0.0000000  0.6508444  3
    212    210    213    214     1  0.0000000  0.6508444  3
    212    210    213    215     1  0.0000000  0.6508444  3
    214    213    222    231     1  0.0000000  1.0460000  1
    214    213    222    231     1  0.0000000  0.0000000  3
    214    213    222    223     1  0.0000000  0.6508444  3
    214    213    222    224     1  0.0000000  0.6508444  3
    215    213    222    231     1  0.0000000  1.0460000  1
    215    213    222    231     1  0.0000000  0.0000000  3
    215    213    222    223     1  0.0000000  0.6508444  3
    215    213    222    224     1  0.0000000  0.6508444  3
    217    216    228    521     1  0.0000000  1.0460000  1
    217    216    228    521     1  0.0000000  0.0000000  3
    217    216    228    229     1  0.0000000  0.6508444  3
    217    216    228    230     1  0.0000000  0.6508444  3
    218    216    228    521     1  0.0000000  1.0460000  1
    218    216    228    521     1  0.0000000  0.0000000  3
    218    216    228    229     1  0.0000000  0.6508444  3
    218    216    228    230     1  0.0000000  0.6508444  3
    220    219    225    492     1  0.0000000  1.0460000  1
    220    219    225    492     1  0.0000000  0.0000000  3
    220    219    225    226     1  0.0000000  0.6508444  3
    220    219    225    227     1  0.0000000  0.6508444  3
    221    219    225    492     1  0.0000000  1.0460000  1
    221    219    225    492     1  0.0000000  0.0000000  3
    221    219    225    226     1  0.0000000  0.6508444  3
    221    219    225    227     1  0.0000000  0.6508444  3
    225    492    483    484     1  0.0000000  1.6038667  3
    225    492    483    485     1  0.0000000  1.6038667  3
    226    225    492    483     1  0.0000000  1.6038667  3
    227    225    492    483     1  0.0000000  1.6038667  3
    228    521    512    513     1  0.0000000  1.6038667  3
    228    521    512    514     1  0.0000000  1.6038667  3
    229    228    521    512     1  0.0000000  1.6038667  3
    230    228    521    512     1  0.0000000  1.6038667  3
    232    233    245    246     1  0.0000000  0.6508444  3
    232    233    245    247     1  0.0000000  0.6508444  3
    232    236    248    249     1  0.0000000  0.6508444  3
    232    236    248    250     1  0.0000000  0.6508444  3
    232    239    242    243     1  0.0000000  0.6508444  3
    232    239    242    244     1  0.0000000  0.6508444  3
    233    232    236    237     1  0.0000000  1.2552000  3
    233    232    236    238     1  0.0000000  1.2552000  3
    233    232    239    240     1  0.0000000  1.2552000  3
    233    232    239    241     1  0.0000000  1.2552000  3
    233    245    257    258     1  0.0000000  0.6508444  3
    233    245    257    259     1  0.0000000  0.6508444  3
    234    233    232    236     1  0.0000000  1.2552000  3
    234    233    232    239     1  0.0000000  1.2552000  3
    234    233    245    257     1  0.0000000  0.6508444  3
    234    233    245    246     1  0.0000000  0.6508444  3
    234    233    245    247     1  0.0000000  0.6508444  3
    235    233    232    236     1  0.0000000  1.2552000  3
    235    233    232    239     1  0.0000000  1.2552000  3
    235    233    245    257     1  0.0000000  0.6508444  3
    235    233    245    246     1  0.0000000  0.6508444  3
    235    233    245    247     1  0.0000000  0.6508444  3
    236    232    239    240     1  0.0000000  1.2552000  3
    236    232    239    241     1  0.0000000  1.2552000  3
    236    248    254    255     1  0.0000000  0.6508444  3
    236    248    254    256     1  0.0000000  0.6508444  3
    237    236    232    239     1  0.0000000  1.2552000  3
    237    236    248    254     1  0.0000000  0.6508444  3
    237    236    248    249     1  0.0000000  0.6508444  3
    237    236    248    250     1  0.0000000  0.6508444  3
    238    236    232    239     1  0.0000000  1.2552000  3
    238    236    248    254     1  0.0000000  0.6508444  3
    238    236    248    249     1  0.0000000  0.6508444  3
    238    236    248    250     1  0.0000000  0.6508444  3
    239    242    251    252     1  0.0000000  0.6508444  3
    239    242    251    253     1  0.0000000  0.6508444  3
    240    239    242    251     1  0.0000000  0.6508444  3
    240    239    242    243     1  0.0000000  0.6508444  3
    240    239    242    244     1  0.0000000  0.6508444  3
    241    239    242    251     1  0.0000000  0.6508444  3
    241    239    242    243     1  0.0000000  0.6508444  3
    241    239    242    244     1  0.0000000  0.6508444  3
    243    242    251    260     1  0.0000000  1.0460000  1
    243    242    251    260     1  0.0000000  0.0000000  3
    243    242    251    252     1  0.0000000  0.6508444  3
    243    242    251    253     1  0.0000000  0.6508444  3
    244    242    251    260     1  0.0000000  1.0460000  1
    244    242    251    260     1  0.0000000  0.0000000  3
    244    242    251    252     1  0.0000000  0.6508444  3
    244    242    251    253     1  0.0000000  0.6508444  3
    246    245    257    579     1  0.0000000  1.0460000  1
    246    245    257    579     1  0.0000000  0.0000000  3
    246    245    257    258     1  0.0000000  0.6508444  3
    246    245    257    259     1  0.0000000  0.6508444  3
    247    245    257    579     1  0.0000000  1.0460000  1
    247    245    257    579     1  0.0000000  0.0000000  3
    247    245    257    258     1  0.0000000  0.6508444  3
    247    245    257    259     1  0.0000000  0.6508444  3
    249    248    254    550     1  0.0000000  1.0460000  1
    249    248    254    550     1  0.0000000  0.0000000  3
    249    248    254    255     1  0.0000000  0.6508444  3
    249    248    254    256     1  0.0000000  0.6508444  3
    250    248    254    550     1  0.0000000  1.0460000  1
    250    248    254    550     1  0.0000000  0.0000000  3
    250    248    254    255     1  0.0000000  0.6508444  3
    250    248    254    256     1  0.0000000  0.6508444  3
    254    550    541    542     1  0.0000000  1.6038667  3
    254    550    541    543     1  0.0000000  1.6038667  3
    255    254    550    541     1  0.0000000  1.6038667  3
    256    254    550    541     1  0.0000000  1.6038667  3
    257    579    570    571     1  0.0000000  1.6038667  3
    257    579    570    572     1  0.0000000  1.6038667  3
    258    257    579    570     1  0.0000000  1.6038667  3
    259    257    579    570     1  0.0000000  1.6038667  3
    261    262    274    275     1  0.0000000  0.6508444  3
    261    262    274    276     1  0.0000000  0.6508444  3
    261    265    277    278     1  0.0000000  0.6508444  3
    261    265    277    279     1  0.0000000  0.6508444  3
    261    268    271    272     1  0.0000000  0.6508444  3
    261    268    271    273     1  0.0000000  0.6508444  3
    262    261    265    266     1  0.0000000  1.2552000  3
    262    261    265    267     1  0.0000000  1.2552000  3
    262    261    268    269     1  0.0000000  1.2552000  3
    262    261    268    270     1  0.0000000  1.2552000  3
    262    274    286    287     1  0.0000000  0.6508444  3
    262    274    286    288     1  0.0000000  0.6508444  3
    263    262    261    265     1  0.0000000  1.2552000  3
    263    262    261    268     1  0.0000000  1.2552000  3
    263    262    274    286     1  0.0000000  0.6508444  3
    263    262    274    275     1  0.0000000  0.6508444  3
    263    262    274    276     1  0.0000000  0.6508444  3
    264    262    261    265     1  0.0000000  1.2552000  3
    264    262    261    268     1  0.0000000  1.2552000  3
    264    262    274    286     1  0.0000000  0.6508444  3
    264    262    274    275     1  0.0000000  0.6508444  3
    264    262    274    276     1  0.0000000  0.6508444  3
    265    261    268    269     1  0.0000000  1.2552000  3
    265    261    268    270     1  0.0000000  1.2552000  3
    265    277    283    284     1  0.0000000  0.6508444  3
    265    277    283    285     1  0.0000000  0.6508444  3
    266    265    261    268     1  0.0000000  1.2552000  3
    266    265    277    283     1  0.0000000  0.6508444  3
    266    265    277    278     1  0.0000000  0.6508444  3
    266    265    277    279     1  0.0000000  0.6508444  3
    267    265    261    268     1  0.0000000  1.2552000  3
    267    265    277    283     1  0.0000000  0.6508444  3
    267    265    277    278     1  0.0000000  0.6508444  3
    267    265    277    279     1  0.0000000  0.6508444  3
    268    271    280    281     1  0.0000000  0.6508444  3
    268    271    280    282     1  0.0000000  0.6508444  3
    269    268    271    280     1  0.0000000  0.6508444  3
    269    268    271    272     1  0.0000000  0.6508444  3
    269    268    271    273     1  0.0000000  0.6508444  3
    270    268    271    280     1  0.0000000  0.6508444  3
    270    268    271    272     1  0.0000000  0.6508444  3
    270    268    271    273     1  0.0000000  0.6508444  3
    272    271    280    289     1  0.0000000  1.0460000  1
    272    271    280    289     1  0.0000000  0.0000000  3
    272    271    280    281     1  0.0000000  0.6508444  3
    272    271    280    282     1  0.0000000  0.6508444  3
    273    271    280    289     1  0.0000000  1.0460000  1
    273    271    280    289     1  0.0000000  0.0000000  3
    273    271    280    281     1  0.0000000  0.6508444  3
    273    271    280    282     1  0.0000000  0.6508444  3
    275    274    286    637     1  0.0000000  1.0460000  1
    275    274    286    637     1  0.0000000  0.0000000  3
    275    274    286    287     1  0.0000000  0.6508444  3
    275    274    286    288     1  0.0000000  0.6508444  3
    276    274    286    637     1  0.0000000  1.0460000  1
    276    274    286    637     1  0.0000000  0.0000000  3
    276    274    286    287     1  0.0000000  0.6508444  3
    276    274    286    288     1  0.0000000  0.6508444  3
    278    277    283    608     1  0.0000000  1.0460000  1
    278    277    283    608     1  0.0000000  0.0000000  3
    278    277    283    284     1  0.0000000  0.6508444  3
    278    277    283    285     1  0.0000000  0.6508444  3
    279    277    283    608     1  0.0000000  1.0460000  1
    279    277    283    608     1  0.0000000  0.0000000  3
    279    277    283    284     1  0.0000000  0.6508444  3
    279    277    283    285     1  0.0000000  0.6508444  3
    283    608    599    600     1  0.0000000  1.6038667  3
    283    608    599    601     1  0.0000000  1.6038667  3
    284    283    608    599     1  0.0000000  1.6038667  3
    285    283    608    599     1  0.0000000  1.6038667  3
    286    637    628    629     1  0.0000000  1.6038667  3
    286    637    628    630     1  0.0000000  1.6038667  3
    287    286    637    628     1  0.0000000  1.6038667  3
    288    286    637    628     1  0.0000000  1.6038667  3
    290    291    303    304     1  0.0000000  0.6508444  3
    290    291    303    305     1  0.0000000  0.6508444  3
    290    294    306    307     1  0.0000000  0.6508444  3
    290    294    306    308     1  0.0000000  0.6508444  3
    290    297    300    301     1  0.0000000  0.6508444  3
    290    297    300    302     1  0.0000000  0.6508444  3
    291    290    294    295     1  0.0000000  1.2552000  3
    291    290    294    296     1  0.0000000  1.2552000  3
    291    290    297    298     1  0.0000000  1.2552000  3
    291    290    297    299     1  0.0000000  1.2552000  3
    291    303    315    316     1  0.0000000  0.6508444  3
    291    303    315    317     1  0.0000000  0.6508444  3
    292    291    290    294     1  0.0000000  1.2552000  3
    292    291    290    297     1  0.0000000  1.2552000  3
    292    291    303    315     1  0.0000000  0.6508444  3
    292    291    303    304     1  0.0000000  0.6508444  3
    292    291    303    305     1  0.0000000  0.6508444  3
    293    291    290    294     1  0.0000000  1.2552000  3
    293    291    290    297     1  0.0000000  1.2552000  3
    293    291    303    315     1  0.0000000  0.6508444  3
    293    291    303    304     1  0.0000000  0.6508444  3
    293    291    303    305     1  0.0000000  0.6508444  3
    294    290    297    298     1  0.0000000  1.2552000  3
    294    290    297    299     1  0.0000000  1.2552000  3
    294    306    312    313     1  0.0000000  0.6508444  3
    294    306    312    314     1  0.0000000  0.6508444  3
    295    294    290    297     1  0.0000000  1.2552000  3
    295    294    306    312     1  0.0000000  0.6508444  3
    295    294    306    307     1  0.0000000  0.6508444  3
    295    294    306    308     1  0.0000000  0.6508444  3
    296    294    290    297     1  0.0000000  1.2552000  3
    296    294    306    312     1  0.0000000  0.6508444  3
    296    294    306    307     1  0.0000000  0.6508444  3
    296    294    306    308     1  0.0000000  0.6508444  3
    297    300    309    310     1  0.0000000  0.6508444  3
    297    300    309    311     1  0.0000000  0.6508444  3
    298    297    300    309     1  0.0000000  0.6508444  3
    298    297    300    301     1  0.0000000  0.6508444  3
    298    297    300    302     1  0.0000000  0.6508444  3
    299    297    300    309     1  0.0000000  0.6508444  3
    299    297    300    301     1  0.0000000  0.6508444  3
    299    297    300    302     1  0.0000000  0.6508444  3
    301    300    309    318     1  0.0000000  1.0460000  1
    301    300    309    318     1  0.0000000  0.0000000  3
    301    300    309    310     1  0.0000000  0.6508444  3
    301    300    309    311     1  0.0000000  0.6508444  3
    302    300    309    318     1  0.0000000  1.0460000  1
    302    300    309    318     1  0.0000000  0.0000000  3
    302    300    309    310     1  0.0000000  0.6508444  3
    302    300    309    311     1  0.0000000  0.6508444  3
    304    303    315    695     1  0.0000000  1.0460000  1
    304    303    315    695     1  0.0000000  0.0000000  3
    304    303    315    316     1  0.0000000  0.6508444  3
    304    303    315    317     1  0.0000000  0.6508444  3
    305    303    315    695     1  0.0000000  1.0460000  1
    305    303    315    695     1  0.0000000  0.0000000  3
    305    303    315    316     1  0.0000000  0.6508444  3
    305    303    315    317     1  0.0000000  0.6508444  3
    307    306    312    666     1  0.0000000  1.0460000  1
    307    306    312    666     1  0.0000000  0.0000000  3
    307    306    312    313     1  0.0000000  0.6508444  3
    307    306    312    314     1  0.0000000  0.6508444  3
    308    306    312    666     1  0.0000000  1.0460000  1
    308    306    312    666     1  0.0000000  0.0000000  3
    308    306    312    313     1  0.0000000  0.6508444  3
    308    306    312    314     1  0.0000000  0.6508444  3
    312    666    657    658     1  0.0000000  1.6038667  3
    312    666    657    659     1  0.0000000  1.6038667  3
    313    312    666    657     1  0.0000000  1.6038667  3
    314    312    666    657     1  0.0000000  1.6038667  3
    315    695    686    687     1  0.0000000  1.6038667  3
    315    695    686    688     1  0.0000000  1.6038667  3
    316    315    695    686     1  0.0000000  1.6038667  3
    317    315    695    686     1  0.0000000  1.6038667  3
    319    320    332    333     1  0.0000000  0.6508444  3
    319    320    332    334     1  0.0000000  0.6508444  3
    319    323    335    336     1  0.0000000  0.6508444  3
    319    323    335    337     1  0.0000000  0.6508444  3
    319    326    329    330     1  0.0000000  0.6508444  3
    319    326    329    331     1  0.0000000  0.6508444  3
    320    319    323    324     1  0.0000000  1.2552000  3
    320    319    323    325     1  0.0000000  1.2552000  3
    320    319    326    327     1  0.0000000  1.2552000  3
    320    319    326    328     1  0.0000000  1.2552000  3
    320    332    344    345     1  0.0000000  0.6508444  3
    320    332    344    346     1  0.0000000  0.6508444  3
    321    320    319    323     1  0.0000000  1.2552000  3
    321    320    319    326     1  0.0000000  1.2552000  3
    321    320    332    344     1  0.0000000  0.6508444  3
    321    320    332    333     1  0.0000000  0.6508444  3
    321    320    332    334     1  0.0000000  0.6508444  3
    322    320    319    323     1  0.0000000  1.2552000  3
    322    320    319    326     1  0.0000000  1.2552000  3
    322    320    332    344     1  0.0000000  0.6508444  3
    322    320    332    333     1  0.0000000  0.6508444  3
    322    320    332    334     1  0.0000000  0.6508444  3
    323    319    326    327     1  0.0000000  1.2552000  3
    323    319    326    328     1  0.0000000  1.2552000  3
    323    335    341    342     1  0.0000000  0.6508444  3
    323    335    341    343     1  0.0000000  0.6508444  3
    324    323    319    326     1  0.0000000  1.2552000  3
    324    323    335    341     1  0.0000000  0.6508444  3
    324    323    335    336     1  0.0000000  0.6508444  3
    324    323    335    337     1  0.0000000  0.6508444  3
    325    323    319    326     1  0.0000000  1.2552000  3
    325    323    335    341     1  0.0000000  0.6508444  3
    325    323    335    336     1  0.0000000  0.6508444  3
    325    323    335    337     1  0.0000000  0.6508444  3
    326    329    338    339     1  0.0000000  0.6508444  3
    326    329    338    340     1  0.0000000  0.6508444  3
    327    326    329    338     1  0.0000000  0.6508444  3
    327    326    329    330     1  0.0000000  0.6508444  3
    327    326    329    331     1  0.0000000  0.6508444  3
    328    326    329    338     1  0.0000000  0.6508444  3
    328    326    329    330     1  0.0000000  0.6508444  3
    328    326    329    331     1  0.0000000  0.6508444  3
    330    329    338    347     1  0.0000000  1.0460000  1
    330    329    338    347     1  0.0000000  0.0000000  3
    330    329    338    339     1  0.0000000  0.6508444  3
    330    329    338    340     1  0.0000000  0.6508444  3
    331    329    338    347     1  0.0000000  1.0460000  1
    331    329    338    347     1  0.0000000  0.0000000  3
    331    329    338    339     1  0.0000000  0.6508444  3
    331    329    338    340     1  0.0000000  0.6508444  3
    333    332    344    753     1  0.0000000  1.0460000  1
    333    332    344    753     1  0.0000000  0.0000000  3
    333    332    344    345     1  0.0000000  0.6508444  3
    333    332    344    346     1  0.0000000  0.6508444  3
    334    332    344    753     1  0.0000000  1.0460000  1
    334    332    344    753     1  0.0000000  0.0000000  3
    334    332    344    345     1  0.0000000  0.6508444  3
    334    332    344    346     1  0.0000000  0.6508444  3
    336    335    341    724     1  0.0000000  1.0460000  1
    336    335    341    724     1  0.0000000  0.0000000  3
    336    335    341    342     1  0.0000000  0.6508444  3
    336    335    341    343     1  0.0000000  0.6508444  3
    337    335    341    724     1  0.0000000  1.0460000  1
    337    335    341    724     1  0.0000000  0.0000000  3
    337    335    341    342     1  0.0000000  0.6508444  3
    337    335    341    343     1  0.0000000  0.6508444  3
    341    724    715    716     1  0.0000000  1.6038667  3
    341    724    715    717     1  0.0000000  1.6038667  3
    342    341    724    715     1  0.0000000  1.6038667  3
    343    341    724    715     1  0.0000000  1.6038667  3
    344    753    744    745     1  0.0000000  1.6038667  3
    344    753    744    746     1  0.0000000  1.6038667  3
    345    344    753    744     1  0.0000000  1.6038667  3
    346    344    753    744     1  0.0000000  1.6038667  3
    348    349    361    362     1  0.0000000  0.6508444  3
    348    349    361    363     1  0.0000000  0.6508444  3
    348    352    364    365     1  0.0000000  0.6508444  3
    348    352    364    366     1  0.0000000  0.6508444  3
    348    355    358    359     1  0.0000000  0.6508444  3
    348    355    358    360     1  0.0000000  0.6508444  3
    349    348    352    353     1  0.0000000  1.2552000  3
    349    348    352    354     1  0.0000000  1.2552000  3
    349    348    355    356     1  0.0000000  1.2552000  3
    349    348    355    357     1  0.0000000  1.2552000  3
    349    361    373    374     1  0.0000000  0.6508444  3
    349    361    373    375     1  0.0000000  0.6508444  3
    350    349    348    352     1  0.0000000  1.2552000  3
    350    349    348    355     1  0.0000000  1.2552000  3
    350    349    361    373     1  0.0000000  0.6508444  3
    350    349    361    362     1  0.0000000  0.6508444  3
    350    349    361    363     1  0.0000000  0.6508444  3
    351    349    348    352     1  0.0000000  1.2552000  3
    351    349    348    355     1  0.0000000  1.2552000  3
    351    349    361    373     1  0.0000000  0.6508444  3
    351    349    361    362     1  0.0000000  0.6508444  3
    351    349    361    363     1  0.0000000  0.6508444  3
    352    348    355    356     1  0.0000000  1.2552000  3
    352    348    355    357     1  0.0000000  1.2552000  3
    352    364    370    371     1  0.0000000  0.6508444  3
    352    364    370    372     1  0.0000000  0.6508444  3
    353    352    348    355     1  0.0000000  1.2552000  3
    353    352    364    370     1  0.0000000  0.6508444  3
    353    352    364    365     1  0.0000000  0.6508444  3
    353    352    364    366     1  0.0000000  0.6508444  3
    354    352    348    355     1  0.0000000  1.2552000  3
    354    352    364    370     1  0.0000000  0.6508444  3
    354    352    364    365     1  0.0000000  0.6508444  3
    354    352    364    366     1  0.0000000  0.6508444  3
    355    358    367    368     1  0.0000000  0.6508444  3
    355    358    367    369     1  0.0000000  0.6508444  3
    356    355    358    367     1  0.0000000  0.6508444  3
    356    355    358    359     1  0.0000000  0.6508444  3
    356    355    358    360     1  0.0000000  0.6508444  3
    357    355    358    367     1  0.0000000  0.6508444  3
    357    355    358    359     1  0.0000000  0.6508444  3
    357    355    358    360     1  0.0000000  0.6508444  3
    359    358    367    376     1  0.0000000  1.0460000  1
    359    358    367    376     1  0.0000000  0.0000000  3
    359    358    367    368     1  0.0000000  0.6508444  3
    359    358    367    369     1  0.0000000  0.6508444  3
    360    358    367    376     1  0.0000000  1.0460000  1
    360    358    367    376     1  0.0000000  0.0000000  3
    360    358    367    368     1  0.0000000  0.6508444  3
    360    358    367    369     1  0.0000000  0.6508444  3
    362    361    373    811     1  0.0000000  1.0460000  1
    362    361    373    811     1  0.0000000  0.0000000  3
    362    361    373    374     1  0.0000000  0.6508444  3
    362    361    373    375     1  0.0000000  0.6508444  3
    363    361    373    811     1  0.0000000  1.0460000  1
    363    361    373    811     1  0.0000000  0.0000000  3
    363    361    373    374     1  0.0000000  0.6508444  3
    363    361    373    375     1  0.0000000  0.6508444  3
    365    364    370    782     1  0.0000000  1.0460000  1
    365    364    370    782     1  0.0000000  0.0000000  3
    365    364    370    371     1  0.0000000  0.6508444  3
    365    364    370    372     1  0.0000000  0.6508444  3
    366    364    370    782     1  0.0000000  1.0460000  1
    366    364    370    782     1  0.0000000  0.0000000  3
    366    364    370    371     1  0.0000000  0.6508444  3
    366    364    370    372     1  0.0000000  0.6508444  3
    370    782    773    774     1  0.0000000  1.6038667  3
    370    782    773    775     1  0.0000000  1.6038667  3
    371    370    782    773     1  0.0000000  1.6038667  3
    372    370    782    773     1  0.0000000  1.6038667  3
    373    811    802    803     1  0.0000000  1.6038667  3
    373    811    802    804     1  0.0000000  1.6038667  3
    374    373    811    802     1  0.0000000  1.6038667  3
    375    373    811    802     1  0.0000000  1.6038667  3
    377    378    390    391     1  0.0000000  0.6508444  3
    377    378    390    392     1  0.0000000  0.6508444  3
    377    381    393    394     1  0.0000000  0.6508444  3
    377    381    393    395     1  0.0000000  0.6508444  3
    377    384    387    388     1  0.0000000  0.6508444  3
    377    384    387    389     1  0.0000000  0.6508444  3
    378    377    381    382     1  0.0000000  1.2552000  3
    378    377    381    383     1  0.0000000  1.2552000  3
    378    377    384    385     1  0.0000000  1.2552000  3
    378    377    384    386     1  0.0000000  1.2552000  3
    378    390    402    403     1  0.0000000  0.6508444  3
    378    390    402    404     1  0.0000000  0.6508444  3
    379    378    377    381     1  0.0000000  1.2552000  3
    379    378    377    384     1  0.0000000  1.2552000  3
    379    378    390    402     1  0.0000000  0.6508444  3
    379    378    390    391     1  0.0000000  0.6508444  3
    379    378    390    392     1  0.0000000  0.6508444  3
    380    378    377    381     1  0.0000000  1.2552000  3
    380    378    377    384     1  0.0000000  1.2552000  3
    380    378    390    402     1  0.0000000  0.6508444  3
    380    378    390    391     1  0.0000000  0.6508444  3
    380    378    390    392     1  0.0000000  0.6508444  3
    381    377    384    385     1  0.0000000  1.2552000  3
    381    377    384    386     1  0.0000000  1.2552000  3
    381    393    399    400     1  0.0000000  0.6508444  3
    381    393    399    401     1  0.0000000  0.6508444  3
    382    381    377    384     1  0.0000000  1.2552000  3
    382    381    393    399     1  0.0000000  0.6508444  3
    382    381    393    394     1  0.0000000  0.6508444  3
    382    381    393    395     1  0.0000000  0.6508444  3
    383    381    377    384     1  0.0000000  1.2552000  3
    383    381    393    399     1  0.0000000  0.6508444  3
    383    381    393    394     1  0.0000000  0.6508444  3
    383    381    393    395     1  0.0000000  0.6508444  3
    384    387    396    397     1  0.0000000  0.6508444  3
    384    387    396    398     1  0.0000000  0.6508444  3
    385    384    387    396     1  0.0000000  0.6508444  3
    385    384    387    388     1  0.0000000  0.6508444  3
    385    384    387    389     1  0.0000000  0.6508444  3
    386    384    387    396     1  0.0000000  0.6508444  3
    386    384    387    388     1  0.0000000  0.6508444  3
    386    384    387    389     1  0.0000000  0.6508444  3
    388    387    396    405     1  0.0000000  1.0460000  1
    388    387    396    405     1  0.0000000  0.0000000  3
    388    387    396    397     1  0.0000000  0.6508444  3
    388    387    396    398     1  0.0000000  0.6508444  3
    389    387    396    405     1  0.0000000  1.0460000  1
    389    387    396    405     1  0.0000000  0.0000000  3
    389    387    396    397     1  0.0000000  0.6508444  3
    389    387    396    398     1  0.0000000  0.6508444  3
    391    390    402    869     1  0.0000000  1.0460000  1
    391    390    402    869     1  0.0000000  0.0000000  3
    391    390    402    403     1  0.0000000  0.6508444  3
    391    390    402    404     1  0.0000000  0.6508444  3
    392    390    402    869     1  0.0000000  1.0460000  1
    392    390    402    869     1  0.0000000  0.0000000  3
    392    390    402    403     1  0.0000000  0.6508444  3
    392    390    402    404     1  0.0000000  0.6508444  3
    394    393    399    840     1  0.0000000  1.0460000  1
    394    393    399    840     1  0.0000000  0.0000000  3
    394    393    399    400     1  0.0000000  0.6508444  3
    394    393    399    401     1  0.0000000  0.6508444  3
    395    393    399    840     1  0.0000000  1.0460000  1
    395    393    399    840     1  0.0000000  0.0000000  3
    395    393    399    400     1  0.0000000  0.6508444  3
    395    393    399    401     1  0.0000000  0.6508444  3
    399    840    831    832     1  0.0000000  1.6038667  3
    399    840    831    833     1  0.0000000  1.6038667  3
    400    399    840    831     1  0.0000000  1.6038667  3
    401    399    840    831     1  0.0000000  1.6038667  3
    402    869    860    861     1  0.0000000  1.6038667  3
    402    869    860    862     1  0.0000000  1.6038667  3
    403    402    869    860     1  0.0000000  1.6038667  3
    404    402    869    860     1  0.0000000  1.6038667  3
    406    407    419    420     1  0.0000000  0.6508444  3
    406    407    419    421     1  0.0000000  0.6508444  3
    406    410    422    423     1  0.0000000  0.6508444  3
    406    410    422    424     1  0.0000000  0.6508444  3
    406    413    416    417     1  0.0000000  0.6508444  3
    406    413    416    418     1  0.0000000  0.6508444  3
    407    406    410    411     1  0.0000000  1.2552000  3
    407    406    410    412     1  0.0000000  1.2552000  3
    407    406    413    414     1  0.0000000  1.2552000  3
    407    406    413    415     1  0.0000000  1.2552000  3
    407    419    431    432     1  0.0000000  0.6508444  3
    407    419    431    433     1  0.0000000  0.6508444  3
    408    407    406    410     1  0.0000000  1.2552000  3
    408    407    406    413     1  0.0000000  1.2552000  3
    408    407    419    431     1  0.0000000  0.6508444  3
    408    407    419    420     1  0.0000000  0.6508444  3
    408    407    419    421     1  0.0000000  0.6508444  3
    409    407    406    410     1  0.0000000  1.2552000  3
    409    407    406    413     1  0.0000000  1.2552000  3
    409    407    419    431     1  0.0000000  0.6508444  3
    409    407    419    420     1  0.0000000  0.6508444  3
    409    407    419    421     1  0.0000000  0.6508444  3
    410    406    413    414     1  0.0000000  1.2552000  3
    410    406    413    415     1  0.0000000  1.2552000  3
    410    422    428    429     1  0.0000000  0.6508444  3
    410    422    428    430     1  0.0000000  0.6508444  3
    411    410    406    413     1  0.0000000  1.2552000  3
    411    410    422    428     1  0.0000000  0.6508444  3
    411    410    422    423     1  0.0000000  0.6508444  3
    411    410    422    424     1  0.0000000  0.6508444  3
    412    410    406    413     1  0.0000000  1.2552000  3
    412    410    422    428     1  0.0000000  0.6508444  3
    412    410    422    423     1  0.0000000  0.6508444  3
    412    410    422    424     1  0.0000000  0.6508444  3
    413    416    425    426     1  0.0000000  0.6508444  3
    413    416    425    427     1  0.0000000  0.6508444  3
    414    413    416    425     1  0.0000000  0.6508444  3
    414    413    416    417     1  0.0000000  0.6508444  3
    414    413    416    418     1  0.0000000  0.6508444  3
    415    413    416    425     1  0.0000000  0.6508444  3
    415    413    416    417     1  0.0000000  0.6508444  3
    415    413    416    418     1  0.0000000  0.6508444  3
    417    416    425    434     1  0.0000000  1.0460000  1
    417    416    425    434     1  0.0000000  0.0000000  3
    417    416    425    426     1  0.0000000  0.6508444  3
    417    416    425    427     1  0.0000000  0.6508444  3
    418    416    425    434     1  0.0000000  1.0460000  1
    418    416    425    434     1  0.0000000  0.0000000  3
    418    416    425    426     1  0.0000000  0.6508444  3
    418    416    425    427     1  0.0000000  0.6508444  3
    420    419    431    927     1  0.0000000  1.0460000  1
    420    419    431    927     1  0.0000000  0.0000000  3
    420    419    431    432     1  0.0000000  0.6508444  3
    420    419    431    433     1  0.0000000  0.6508444  3
    421    419    431    927     1  0.0000000  1.0460000  1
    421    419    431    927     1  0.0000000  0.0000000  3
    421    419    431    432     1  0.0000000  0.6508444  3
    421    419    431    433     1  0.0000000  0.6508444  3
    423    422    428    898     1  0.0000000  1.0460000  1
    423    422    428    898     1  0.0000000  0.0000000  3
    423    422    428    429     1  0.0000000  0.6508444  3
    423    422    428    430     1  0.0000000  0.6508444  3
    424    422    428    898     1  0.0000000  1.0460000  1
    424    422    428    898     1  0.0000000  0.0000000  3
    424    422    428    429     1  0.0000000  0.6508444  3
    424    422    428    430     1  0.0000000  0.6508444  3
    428    898    889    890     1  0.0000000  1.6038667  3
    428    898    889    891     1  0.0000000  1.6038667  3
    429    428    898    889     1  0.0000000  1.6038667  3
    430    428    898    889     1  0.0000000  1.6038667  3
    431    927    918    919     1  0.0000000  1.6038667  3
    431    927    918    920     1  0.0000000  1.6038667  3
    432    431    927    918     1  0.0000000  1.6038667  3
    433    431    927    918     1  0.0000000  1.6038667  3
    435    436    448    449     1  0.0000000  0.6508444  3
    435    436    448    450     1  0.0000000  0.6508444  3
    435    439    451    452     1  0.0000000  0.6508444  3
    435    439    451    453     1  0.0000000  0.6508444  3
    435    442    445    446     1  0.0000000  0.6508444  3
    435    442    445    447     1  0.0000000  0.6508444  3
    436    435    439    440     1  0.0000000  1.2552000  3
    436    435    439    441     1  0.0000000  1.2552000  3
    436    435    442    443     1  0.0000000  1.2552000  3
    436    435    442    444     1  0.0000000  1.2552000  3
    436    448    460    461     1  0.0000000  0.6508444  3
    436    448    460    462     1  0.0000000  0.6508444  3
    437    436    435    439     1  0.0000000  1.2552000  3
    437    436    435    442     1  0.0000000  1.2552000  3
    437    436    448    460     1  0.0000000  0.6508444  3
    437    436    448    449     1  0.0000000  0.6508444  3
    437    436    448    450     1  0.0000000  0.6508444  3
    438    436    435    439     1  0.0000000  1.2552000  3
    438    436    435    442     1  0.0000000  1.2552000  3
    438    436    448    460     1  0.0000000  0.6508444  3
    438    436    448    449     1  0.0000000  0.6508444  3
    438    436    448    450     1  0.0000000  0.6508444  3
    439    435    442    443     1  0.0000000  1.2552000  3
    439    435    442    444     1  0.0000000  1.2552000  3
    439    451    457    458     1  0.0000000  0.6508444  3
    439    451    457    459     1  0.0000000  0.6508444  3
    440    439    435    442     1  0.0000000  1.2552000  3
    440    439    451    457     1  0.0000000  0.6508444  3
    440    439    451    452     1  0.0000000  0.6508444  3
    440    439    451    453     1  0.0000000  0.6508444  3
    441    439    435    442     1  0.0000000  1.2552000  3
    441    439    451    457     1  0.0000000  0.6508444  3
    441    439    451    452     1  0.0000000  0.6508444  3
    441    439    451    453     1  0.0000000  0.6508444  3
    442    445    454    455     1  0.0000000  0.6508444  3
    442    445    454    456     1  0.0000000  0.6508444  3
    443    442    445    454     1  0.0000000  0.6508444  3
    443    442    445    446     1  0.0000000  0.6508444  3
    443    442    445    447     1  0.0000000  0.6508444  3
    444    442    445    454     1  0.0000000  0.6508444  3
    444    442    445    446     1  0.0000000  0.6508444  3
    444    442    445    447     1  0.0000000  0.6508444  3
    446    445    454    463     1  0.0000000  1.0460000  1
    446    445    454    463     1  0.0000000  0.0000000  3
    446    445    454    455     1  0.0000000  0.6508444  3
    446    445    454    456     1  0.0000000  0.6508444  3
    447    445    454    463     1  0.0000000  1.0460000  1
    447    445    454    463     1  0.0000000  0.0000000  3
    447    445    454    455     1  0.0000000  0.6508444  3
    447    445    454    456     1  0.0000000  0.6508444  3
    449    448    460    985     1  0.0000000  1.0460000  1
    449    448    460    985     1  0.0000000  0.0000000  3
    449    448    460    461     1  0.0000000  0.6508444  3
    449    448    460    462     1  0.0000000  0.6508444  3
    450    448    460    985     1  0.0000000  1.0460000  1
    450    448    460    985     1  0.0000000  0.0000000  3
    450    448    460    461     1  0.0000000  0.6508444  3
    450    448    460    462     1  0.0000000  0.6508444  3
    452    451    457    956     1  0.0000000  1.0460000  1
    452    451    457    956     1  0.0000000  0.0000000  3
    452    451    457    458     1  0.0000000  0.6508444  3
    452    451    457    459     1  0.0000000  0.6508444  3
    453    451    457    956     1  0.0000000  1.0460000  1
    453    451    457    956     1  0.0000000  0.0000000  3
    453    451    457    458     1  0.0000000  0.6508444  3
    453    451    457    459     1  0.0000000  0.6508444  3
    457    956    947    948     1  0.0000000  1.6038667  3
    457    956    947    949     1  0.0000000  1.6038667  3
    458    457    956    947     1  0.0000000  1.6038667  3
    459    457    956    947     1  0.0000000  1.6038667  3
    460    985    976    977     1  0.0000000  1.6038667  3
    460    985    976    978     1  0.0000000  1.6038667  3
    461    460    985    976     1  0.0000000  1.6038667  3
    462    460    985    976     1  0.0000000  1.6038667  3
    464    465    477    478     1  0.0000000  0.6508444  3
    464    465    477    479     1  0.0000000  0.6508444  3
    464    468    480    481     1  0.0000000  0.6508444  3
    464    468    480    482     1  0.0000000  0.6508444  3
    464    471    474    475     1  0.0000000  0.6508444  3
    464    471    474    476     1  0.0000000  0.6508444  3
    465    464    468    469     1  0.0000000  1.2552000  3
    465    464    468    470     1  0.0000000  1.2552000  3
    465    464    471    472     1  0.0000000  1.2552000  3
    465    464    471    473     1  0.0000000  1.2552000  3
    465    477    489    490     1  0.0000000  0.6508444  3
    465    477    489    491     1  0.0000000  0.6508444  3
    466    465    464    468     1  0.0000000  1.2552000  3
    466    465    464    471     1  0.0000000  1.2552000  3
    466    465    477    489     1  0.0000000  0.6508444  3
    466    465    477    478     1  0.0000000  0.6508444  3
    466    465    477    479     1  0.0000000  0.6508444  3
    467    465    464    468     1  0.0000000  1.2552000  3
    467    465    464    471     1  0.0000000  1.2552000  3
    467    465    477    489     1  0.0000000  0.6508444  3
    467    465    477    478     1  0.0000000  0.6508444  3
    467    465    477    479     1  0.0000000  0.6508444  3
    468    464    471    472     1  0.0000000  1.2552000  3
    468    464    471    473     1  0.0000000  1.2552000  3
    468    480    486    487     1  0.0000000  0.6508444  3
    468    480    486    488     1  0.0000000  0.6508444  3
    469    468    464    471     1  0.0000000  1.2552000  3
    469    468    480    486     1  0.0000000  0.6508444  3
    469    468    480    481     1  0.0000000  0.6508444  3
    469    468    480    482     1  0.0000000  0.6508444  3
    470    468    464    471     1  0.0000000  1.2552000  3
    470    468    480    486     1  0.0000000  0.6508444  3
    470    468    480    481     1  0.0000000  0.6508444  3
    470    468    480    482     1  0.0000000  0.6508444  3
    471    474    483    484     1  0.0000000  0.6508444  3
    471    474    483    485     1  0.0000000  0.6508444  3
    472    471    474    483     1  0.0000000  0.6508444  3
    472    471    474    475     1  0.0000000  0.6508444  3
    472    471    474    476     1  0.0000000  0.6508444  3
    473    471    474    483     1  0.0000000  0.6508444  3
    473    471    474    475     1  0.0000000  0.6508444  3
    473    471    474    476     1  0.0000000  0.6508444  3
    475    474    483    492     1  0.0000000  1.0460000  1
    475    474    483    492     1  0.0000000  0.0000000  3
    475    474    483    484     1  0.0000000  0.6508444  3
    475    474    483    485     1  0.0000000  0.6508444  3
    476    474    483    492     1  0.0000000  1.0460000  1
    476    474    483    492     1  0.0000000  0.0000000  3
    476    474    483    484     1  0.0000000  0.6508444  3
    476    474    483    485     1  0.0000000  0.6508444  3
    478    477    489   1043     1  0.0000000  1.0460000  1
    478    477    489   1043     1  0.0000000  0.0000000  3
    478    477    489    490     1  0.0000000  0.6508444  3
    478    477    489    491     1  0.0000000  0.6508444  3
    479    477    489   1043     1  0.0000000  1.0460000  1
    479    477    489   1043     1  0.0000000  0.0000000  3
    479    477    489    490     1  0.0000000  0.6508444  3
    479    477    489    491     1  0.0000000  0.6508444  3
    481    480    486   1014     1  0.0000000  1.0460000  1
    481    480    486   1014     1  0.0000000  0.0000000  3
    481    480    486    487     1  0.0000000  0.6508444  3
    481    480    486    488     1  0.0000000  0.6508444  3
    482    480    486   1014     1  0.0000000  1.0460000  1
    482    480    486   1014     1  0.0000000  0.0000000  3
    482    480    486    487     1  0.0000000  0.6508444  3
    482    480    486    488     1  0.0000000  0.6508444  3
    486   1014   1005   1006     1  0.0000000  1.6038667  3
    486   1014   1005   1007     1  0.0000000  1.6038667  3
    487    486   1014   1005     1  0.0000000  1.6038667  3
    488    486   1014   1005     1  0.0000000  1.6038667  3
    489   1043   1034   1035     1  0.0000000  1.6038667  3
    489   1043   1034   1036     1  0.0000000  1.6038667  3
    490    489   1043   1034     1  0.0000000  1.6038667  3
    491    489   1043   1034     1  0.0000000  1.6038667  3
    493    494    506    507     1  0.0000000  0.6508444  3
    493    494    506    508     1  0.0000000  0.6508444  3
    493    497    509    510     1  0.0000000  0.6508444  3
    493    497    509    511     1  0.0000000  0.6508444  3
    493    500    503    504     1  0.0000000  0.6508444  3
    493    500    503    505     1  0.0000000  0.6508444  3
    494    493    497    498     1  0.0000000  1.2552000  3
    494    493    497    499     1  0.0000000  1.2552000  3
    494    493    500    501     1  0.0000000  1.2552000  3
    494    493    500    502     1  0.0000000  1.2552000  3
    494    506    518    519     1  0.0000000  0.6508444  3
    494    506    518    520     1  0.0000000  0.6508444  3
    495    494    493    497     1  0.0000000  1.2552000  3
    495    494    493    500     1  0.0000000  1.2552000  3
    495    494    506    518     1  0.0000000  0.6508444  3
    495    494    506    507     1  0.0000000  0.6508444  3
    495    494    506    508     1  0.0000000  0.6508444  3
    496    494    493    497     1  0.0000000  1.2552000  3
    496    494    493    500     1  0.0000000  1.2552000  3
    496    494    506    518     1  0.0000000  0.6508444  3
    496    494    506    507     1  0.0000000  0.6508444  3
    496    494    506    508     1  0.0000000  0.6508444  3
    497    493    500    501     1  0.0000000  1.2552000  3
    497    493    500    502     1  0.0000000  1.2552000  3
    497    509    515    516     1  0.0000000  0.6508444  3
    497    509    515    517     1  0.0000000  0.6508444  3
    498    497    493    500     1  0.0000000  1.2552000  3
    498    497    509    515     1  0.0000000  0.6508444  3
    498    497    509    510     1  0.0000000  0.6508444  3
    498    497    509    511     1  0.0000000  0.6508444  3
    499    497    493    500     1  0.0000000  1.2552000  3
    499    497    509    515     1  0.0000000  0.6508444  3
    499    497    509    510     1  0.0000000  0.6508444  3
    499    497    509    511     1  0.0000000  0.6508444  3
    500    503    512    513     1  0.0000000  0.6508444  3
    500    503    512    514     1  0.0000000  0.6508444  3
    501    500    503    512     1  0.0000000  0.6508444  3
    501    500    503    504     1  0.0000000  0.6508444  3
    501    500    503    505     1  0.0000000  0.6508444  3
    502    500    503    512     1  0.0000000  0.6508444  3
    502    500    503    504     1  0.0000000  0.6508444  3
    502    500    503    505     1  0.0000000  0.6508444  3
    504    503    512    521     1  0.0000000  1.0460000  1
    504    503    512    521     1  0.0000000  0.0000000  3
    504    503    512    513     1  0.0000000  0.6508444  3
    504    503    512    514     1  0.0000000  0.6508444  3
    505    503    512    521     1  0.0000000  1.0460000  1
    505    503    512    521     1  0.0000000  0.0000000  3
    505    503    512    513     1  0.0000000  0.6508444  3
    505    503    512    514     1  0.0000000  0.6508444  3
    507    506    518   1101     1  0.0000000  1.0460000  1
    507    506    518   1101     1  0.0000000  0.0000000  3
    507    506    518    519     1  0.0000000  0.6508444  3
    507    506    518    520     1  0.0000000  0.6508444  3
    508    506    518   1101     1  0.0000000  1.0460000  1
    508    506    518   1101     1  0.0000000  0.0000000  3
    508    506    518    519     1  0.0000000  0.6508444  3
    508    506    518    520     1  0.0000000  0.6508444  3
    510    509    515   1072     1  0.0000000  1.0460000  1
    510    509    515   1072     1  0.0000000  0.0000000  3
    510    509    515    516     1  0.0000000  0.6508444  3
    510    509    515    517     1  0.0000000  0.6508444  3
    511    509    515   1072     1  0.0000000  1.0460000  1
    511    509    515   1072     1  0.0000000  0.0000000  3
    511    509    515    516     1  0.0000000  0.6508444  3
    511    509    515    517     1  0.0000000  0.6508444  3
    515   1072   1063   1064     1  0.0000000  1.6038667  3
    515   1072   1063   1065     1  0.0000000  1.6038667  3
    516    515   1072   1063     1  0.0000000  1.6038667  3
    517    515   1072   1063     1  0.0000000  1.6038667  3
    518   1101   1092   1093     1  0.0000000  1.6038667  3
    518   1101   1092   1094     1  0.0000000  1.6038667  3
    519    518   1101   1092     1  0.0000000  1.6038667  3
    520    518   1101   1092     1  0.0000000  1.6038667  3
    522    523    535    536     1  0.0000000  0.6508444  3
    522    523    535    537     1  0.0000000  0.6508444  3
    522    526    538    539     1  0.0000000  0.6508444  3
    522    526    538    540     1  0.0000000  0.6508444  3
    522    529    532    533     1  0.0000000  0.6508444  3
    522    529    532    534     1  0.0000000  0.6508444  3
    523    522    526    527     1  0.0000000  1.2552000  3
    523    522    526    528     1  0.0000000  1.2552000  3
    523    522    529    530     1  0.0000000  1.2552000  3
    523    522    529    531     1  0.0000000  1.2552000  3
    523    535    547    548     1  0.0000000  0.6508444  3
    523    535    547    549     1  0.0000000  0.6508444  3
    524    523    522    526     1  0.0000000  1.2552000  3
    524    523    522    529     1  0.0000000  1.2552000  3
    524    523    535    547     1  0.0000000  0.6508444  3
    524    523    535    536     1  0.0000000  0.6508444  3
    524    523    535    537     1  0.0000000  0.6508444  3
    525    523    522    526     1  0.0000000  1.2552000  3
    525    523    522    529     1  0.0000000  1.2552000  3
    525    523    535    547     1  0.0000000  0.6508444  3
    525    523    535    536     1  0.0000000  0.6508444  3
    525    523    535    537     1  0.0000000  0.6508444  3
    526    522    529    530     1  0.0000000  1.2552000  3
    526    522    529    531     1  0.0000000  1.2552000  3
    526    538    544    545     1  0.0000000  0.6508444  3
    526    538    544    546     1  0.0000000  0.6508444  3
    527    526    522    529     1  0.0000000  1.2552000  3
    527    526    538    544     1  0.0000000  0.6508444  3
    527    526    538    539     1  0.0000000  0.6508444  3
    527    526    538    540     1  0.0000000  0.6508444  3
    528    526    522    529     1  0.0000000  1.2552000  3
    528    526    538    544     1  0.0000000  0.6508444  3
    528    526    538    539     1  0.0000000  0.6508444  3
    528    526    538    540     1  0.0000000  0.6508444  3
    529    532    541    542     1  0.0000000  0.6508444  3
    529    532    541    543     1  0.0000000  0.6508444  3
    530    529    532    541     1  0.0000000  0.6508444  3
    530    529    532    533     1  0.0000000  0.6508444  3
    530    529    532    534     1  0.0000000  0.6508444  3
    531    529    532    541     1  0.0000000  0.6508444  3
    531    529    532    533     1  0.0000000  0.6508444  3
    531    529    532    534     1  0.0000000  0.6508444  3
    533    532    541    550     1  0.0000000  1.0460000  1
    533    532    541    550     1  0.0000000  0.0000000  3
    533    532    541    542     1  0.0000000  0.6508444  3
    533    532    541    543     1  0.0000000  0.6508444  3
    534    532    541    550     1  0.0000000  1.0460000  1
    534    532    541    550     1  0.0000000  0.0000000  3
    534    532    541    542     1  0.0000000  0.6508444  3
    534    532    541    543     1  0.0000000  0.6508444  3
    536    535    547   1159     1  0.0000000  1.0460000  1
    536    535    547   1159     1  0.0000000  0.0000000  3
    536    535    547    548     1  0.0000000  0.6508444  3
    536    535    547    549     1  0.0000000  0.6508444  3
    537    535    547   1159     1  0.0000000  1.0460000  1
    537    535    547   1159     1  0.0000000  0.0000000  3
    537    535    547    548     1  0.0000000  0.6508444  3
    537    535    547    549     1  0.0000000  0.6508444  3
    539    538    544   1130     1  0.0000000  1.0460000  1
    539    538    544   1130     1  0.0000000  0.0000000  3
    539    538    544    545     1  0.0000000  0.6508444  3
    539    538    544    546     1  0.0000000  0.6508444  3
    540    538    544   1130     1  0.0000000  1.0460000  1
    540    538    544   1130     1  0.0000000  0.0000000  3
    540    538    544    545     1  0.0000000  0.6508444  3
    540    538    544    546     1  0.0000000  0.6508444  3
    544   1130   1121   1122     1  0.0000000  1.6038667  3
    544   1130   1121   1123     1  0.0000000  1.6038667  3
    545    544   1130   1121     1  0.0000000  1.6038667  3
    546    544   1130   1121     1  0.0000000  1.6038667  3
    547   1159   1150   1151     1  0.0000000  1.6038667  3
    547   1159   1150   1152     1  0.0000000  1.6038667  3
    548    547   1159   1150     1  0.0000000  1.6038667  3
    549    547   1159   1150     1  0.0000000  1.6038667  3
    551    552    564    565     1  0.0000000  0.6508444  3
    551    552    564    566     1  0.0000000  0.6508444  3
    551    555    567    568     1  0.0000000  0.6508444  3
    551    555    567    569     1  0.0000000  0.6508444  3
    551    558    561    562     1  0.0000000  0.6508444  3
    551    558    561    563     1  0.0000000  0.6508444  3
    552    551    555    556     1  0.0000000  1.2552000  3
    552    551    555    557     1  0.0000000  1.2552000  3
    552    551    558    559     1  0.0000000  1.2552000  3
    552    551    558    560     1  0.0000000  1.2552000  3
    552    564    576    577     1  0.0000000  0.6508444  3
    552    564    576    578     1  0.0000000  0.6508444  3
    553    552    551    555     1  0.0000000  1.2552000  3
    553    552    551    558     1  0.0000000  1.2552000  3
    553    552    564    576     1  0.0000000  0.6508444  3
    553    552    564    565     1  0.0000000  0.6508444  3
    553    552    564    566     1  0.0000000  0.6508444  3
    554    552    551    555     1  0.0000000  1.2552000  3
    554    552    551    558     1  0.0000000  1.2552000  3
    554    552    564    576     1  0.0000000  0.6508444  3
    554    552    564    565     1  0.0000000  0.6508444  3
    554    552    564    566     1  0.0000000  0.6508444  3
    555    551    558    559     1  0.0000000  1.2552000  3
    555    551    558    560     1  0.0000000  1.2552000  3
    555    567    573    574     1  0.0000000  0.6508444  3
    555    567    573    575     1  0.0000000  0.6508444  3
    556    555    551    558     1  0.0000000  1.2552000  3
    556    555    567    573     1  0.0000000  0.6508444  3
    556    555    567    568     1  0.0000000  0.6508444  3
    556    555    567    569     1  0.0000000  0.6508444  3
    557    555    551    558     1  0.0000000  1.2552000  3
    557    555    567    573     1  0.0000000  0.6508444  3
    557    555    567    568     1  0.0000000  0.6508444  3
    557    555    567    569     1  0.0000000  0.6508444  3
    558    561    570    571     1  0.0000000  0.6508444  3
    558    561    570    572     1  0.0000000  0.6508444  3
    559    558    561    570     1  0.0000000  0.6508444  3
    559    558    561    562     1  0.0000000  0.6508444  3
    559    558    561    563     1  0.0000000  0.6508444  3
    560    558    561    570     1  0.0000000  0.6508444  3
    560    558    561    562     1  0.0000000  0.6508444  3
    560    558    561    563     1  0.0000000  0.6508444  3
    562    561    570    579     1  0.0000000  1.0460000  1
    562    561    570    579     1  0.0000000  0.0000000  3
    562    561    570    571     1  0.0000000  0.6508444  3
    562    561    570    572     1  0.0000000  0.6508444  3
    563    561    570    579     1  0.0000000  1.0460000  1
    563    561    570    579     1  0.0000000  0.0000000  3
    563    561    570    571     1  0.0000000  0.6508444  3
    563    561    570    572     1  0.0000000  0.6508444  3
    565    564    576   1217     1  0.0000000  1.0460000  1
    565    564    576   1217     1  0.0000000  0.0000000  3
    565    564    576    577     1  0.0000000  0.6508444  3
    565    564    576    578     1  0.0000000  0.6508444  3
    566    564    576   1217     1  0.0000000  1.0460000  1
    566    564    576   1217     1  0.0000000  0.0000000  3
    566    564    576    577     1  0.0000000  0.6508444  3
    566    564    576    578     1  0.0000000  0.6508444  3
    568    567    573   1188     1  0.0000000  1.0460000  1
    568    567    573   1188     1  0.0000000  0.0000000  3
    568    567    573    574     1  0.0000000  0.6508444  3
    568    567    573    575     1  0.0000000  0.6508444  3
    569    567    573   1188     1  0.0000000  1.0460000  1
    569    567    573   1188     1  0.0000000  0.0000000  3
    569    567    573    574     1  0.0000000  0.6508444  3
    569    567    573    575     1  0.0000000  0.6508444  3
    573   1188   1179   1180     1  0.0000000  1.6038667  3
    573   1188   1179   1181     1  0.0000000  1.6038667  3
    574    573   1188   1179     1  0.0000000  1.6038667  3
    575    573   1188   1179     1  0.0000000  1.6038667  3
    576   1217   1208   1209     1  0.0000000  1.6038667  3
    576   1217   1208   1210     1  0.0000000  1.6038667  3
    577    576   1217   1208     1  0.0000000  1.6038667  3
    578    576   1217   1208     1  0.0000000  1.6038667  3
    580    581    593    594     1  0.0000000  0.6508444  3
    580    581    593    595     1  0.0000000  0.6508444  3
    580    584    596    597     1  0.0000000  0.6508444  3
    580    584    596    598     1  0.0000000  0.6508444  3
    580    587    590    591     1  0.0000000  0.6508444  3
    580    587    590    592     1  0.0000000  0.6508444  3
    581    580    584    585     1  0.0000000  1.2552000  3
    581    580    584    586     1  0.0000000  1.2552000  3
    581    580    587    588     1  0.0000000  1.2552000  3
    581    580    587    589     1  0.0000000  1.2552000  3
    581    593    605    606     1  0.0000000  0.6508444  3
    581    593    605    607     1  0.0000000  0.6508444  3
    582    581    580    584     1  0.0000000  1.2552000  3
    582    581    580    587     1  0.0000000  1.2552000  3
    582    581    593    605     1  0.0000000  0.6508444  3
    582    581    593    594     1  0.0000000  0.6508444  3
    582    581    593    595     1  0.0000000  0.6508444  3
    583    581    580    584     1  0.0000000  1.2552000  3
    583    581    580    587     1  0.0000000  1.2552000  3
    583    581    593    605     1  0.0000000  0.6508444  3
    583    581    593    594     1  0.0000000  0.6508444  3
    583    581    593    595     1  0.0000000  0.6508444  3
    584    580    587    588     1  0.0000000  1.2552000  3
    584    580    587    589     1  0.0000000  1.2552000  3
    584    596    602    603     1  0.0000000  0.6508444  3
    584    596    602    604     1  0.0000000  0.6508444  3
    585    584    580    587     1  0.0000000  1.2552000  3
    585    584    596    602     1  0.0000000  0.6508444  3
    585    584    596    597     1  0.0000000  0.6508444  3
    585    584    596    598     1  0.0000000  0.6508444  3
    586    584    580    587     1  0.0000000  1.2552000  3
    586    584    596    602     1  0.0000000  0.6508444  3
    586    584    596    597     1  0.0000000  0.6508444  3
    586    584    596    598     1  0.0000000  0.6508444  3
    587    590    599    600     1  0.0000000  0.6508444  3
    587    590    599    601     1  0.0000000  0.6508444  3
    588    587    590    599     1  0.0000000  0.6508444  3
    588    587    590    591     1  0.0000000  0.6508444  3
    588    587    590    592     1  0.0000000  0.6508444  3
    589    587    590    599     1  0.0000000  0.6508444  3
    589    587    590    591     1  0.0000000  0.6508444  3
    589    587    590    592     1  0.0000000  0.6508444  3
    591    590    599    608     1  0.0000000  1.0460000  1
    591    590    599    608     1  0.0000000  0.0000000  3
    591    590    599    600     1  0.0000000  0.6508444  3
    591    590    599    601     1  0.0000000  0.6508444  3
    592    590    599    608     1  0.0000000  1.0460000  1
    592    590    599    608     1  0.0000000  0.0000000  3
    592    590    599    600     1  0.0000000  0.6508444  3
    592    590    599    601     1  0.0000000  0.6508444  3
    594    593    605   1275     1  0.0000000  1.0460000  1
    594    593    605   1275     1  0.0000000  0.0000000  3
    594    593    605    606     1  0.0000000  0.6508444  3
    594    593    605    607     1  0.0000000  0.6508444  3
    595    593    605   1275     1  0.0000000  1.0460000  1
    595    593    605   1275     1  0.0000000  0.0000000  3
    595    593    605    606     1  0.0000000  0.6508444  3
    595    593    605    607     1  0.0000000  0.6508444  3
    597    596    602   1246     1  0.0000000  1.0460000  1
    597    596    602   1246     1  0.0000000  0.0000000  3
    597    596    602    603     1  0.0000000  0.6508444  3
    597    596    602    604     1  0.0000000  0.6508444  3
    598    596    602   1246     1  0.0000000  1.0460000  1
    598    596    602   1246     1  0.0000000  0.0000000  3
    598    596    602    603     1  0.0000000  0.6508444  3
    598    596    602    604     1  0.0000000  0.6508444  3
    602   1246   1237   1238     1  0.0000000  1.6038667  3
    602   1246   1237   1239     1  0.0000000  1.6038667  3
    603    602   1246   1237     1  0.0000000  1.6038667  3
    604    602   1246   1237     1  0.0000000  1.6038667  3
    605   1275   1266   1267     1  0.0000000  1.6038667  3
    605   1275   1266   1268     1  0.0000000  1.6038667  3
    606    605   1275   1266     1  0.0000000  1.6038667  3
    607    605   1275   1266     1  0.0000000  1.6038667  3
    609    610    622    623     1  0.0000000  0.6508444  3
    609    610    622    624     1  0.0000000  0.6508444  3
    609    613    625    626     1  0.0000000  0.6508444  3
    609    613    625    627     1  0.0000000  0.6508444  3
    609    616    619    620     1  0.0000000  0.6508444  3
    609    616    619    621     1  0.0000000  0.6508444  3
    610    609    613    614     1  0.0000000  1.2552000  3
    610    609    613    615     1  0.0000000  1.2552000  3
    610    609    616    617     1  0.0000000  1.2552000  3
    610    609    616    618     1  0.0000000  1.2552000  3
    610    622    634    635     1  0.0000000  0.6508444  3
    610    622    634    636     1  0.0000000  0.6508444  3
    611    610    609    613     1  0.0000000  1.2552000  3
    611    610    609    616     1  0.0000000  1.2552000  3
    611    610    622    634     1  0.0000000  0.6508444  3
    611    610    622    623     1  0.0000000  0.6508444  3
    611    610    622    624     1  0.0000000  0.6508444  3
    612    610    609    613     1  0.0000000  1.2552000  3
    612    610    609    616     1  0.0000000  1.2552000  3
    612    610    622    634     1  0.0000000  0.6508444  3
    612    610    622    623     1  0.0000000  0.6508444  3
    612    610    622    624     1  0.0000000  0.6508444  3
    613    609    616    617     1  0.0000000  1.2552000  3
    613    609    616    618     1  0.0000000  1.2552000  3
    613    625    631    632     1  0.0000000  0.6508444  3
    613    625    631    633     1  0.0000000  0.6508444  3
    614    613    609    616     1  0.0000000  1.2552000  3
    614    613    625    631     1  0.0000000  0.6508444  3
    614    613    625    626     1  0.0000000  0.6508444  3
    614    613    625    627     1  0.0000000  0.6508444  3
    615    613    609    616     1  0.0000000  1.2552000  3
    615    613    625    631     1  0.0000000  0.6508444  3
    615    613    625    626     1  0.0000000  0.6508444  3
    615    613    625    627     1  0.0000000  0.6508444  3
    616    619    628    629     1  0.0000000  0.6508444  3
    616    619    628    630     1  0.0000000  0.6508444  3
    617    616    619    628     1  0.0000000  0.6508444  3
    617    616    619    620     1  0.0000000  0.6508444  3
    617    616    619    621     1  0.0000000  0.6508444  3
    618    616    619    628     1  0.0000000  0.6508444  3
    618    616    619    620     1  0.0000000  0.6508444  3
    618    616    619    621     1  0.0000000  0.6508444  3
    620    619    628    637     1  0.0000000  1.0460000  1
    620    619    628    637     1  0.0000000  0.0000000  3
    620    619    628    629     1  0.0000000  0.6508444  3
    620    619    628    630     1  0.0000000  0.6508444  3
    621    619    628    637     1  0.0000000  1.0460000  1
    621    619    628    637     1  0.0000000  0.0000000  3
    621    619    628    629     1  0.0000000  0.6508444  3
    621    619    628    630     1  0.0000000  0.6508444  3
    623    622    634   1333     1  0.0000000  1.0460000  1
    623    622    634   1333     1  0.0000000  0.0000000  3
    623    622    634    635     1  0.0000000  0.6508444  3
    623    622    634    636     1  0.0000000  0.6508444  3
    624    622    634   1333     1  0.0000000  1.0460000  1
    624    622    634   1333     1  0.0000000  0.0000000  3
    624    622    634    635     1  0.0000000  0.6508444  3
    624    622    634    636     1  0.0000000  0.6508444  3
    626    625    631   1304     1  0.0000000  1.0460000  1
    626    625    631   1304     1  0.0000000  0.0000000  3
    626    625    631    632     1  0.0000000  0.6508444  3
    626    625    631    633     1  0.0000000  0.6508444  3
    627    625    631   1304     1  0.0000000  1.0460000  1
    627    625    631   1304     1  0.0000000  0.0000000  3
    627    625    631    632     1  0.0000000  0.6508444  3
    627    625    631    633     1  0.0000000  0.6508444  3
    631   1304   1295   1296     1  0.0000000  1.6038667  3
    631   1304   1295   1297     1  0.0000000  1.6038667  3
    632    631   1304   1295     1  0.0000000  1.6038667  3
    633    631   1304   1295     1  0.0000000  1.6038667  3
    634   1333   1324   1325     1  0.0000000  1.6038667  3
    634   1333   1324   1326     1  0.0000000  1.6038667  3
    635    634   1333   1324     1  0.0000000  1.6038667  3
    636    634   1333   1324     1  0.0000000  1.6038667  3
    638    639    651    652     1  0.0000000  0.6508444  3
    638    639    651    653     1  0.0000000  0.6508444  3
    638    642    654    655     1  0.0000000  0.6508444  3
    638    642    654    656     1  0.0000000  0.6508444  3
    638    645    648    649     1  0.0000000  0.6508444  3
    638    645    648    650     1  0.0000000  0.6508444  3
    639    638    642    643     1  0.0000000  1.2552000  3
    639    638    642    644     1  0.0000000  1.2552000  3
    639    638    645    646     1  0.0000000  1.2552000  3
    639    638    645    647     1  0.0000000  1.2552000  3
    639    651    663    664     1  0.0000000  0.6508444  3
    639    651    663    665     1  0.0000000  0.6508444  3
    640    639    638    642     1  0.0000000  1.2552000  3
    640    639    638    645     1  0.0000000  1.2552000  3
    640    639    651    663     1  0.0000000  0.6508444  3
    640    639    651    652     1  0.0000000  0.6508444  3
    640    639    651    653     1  0.0000000  0.6508444  3
    641    639    638    642     1  0.0000000  1.2552000  3
    641    639    638    645     1  0.0000000  1.2552000  3
    641    639    651    663     1  0.0000000  0.6508444  3
    641    639    651    652     1  0.0000000  0.6508444  3
    641    639    651    653     1  0.0000000  0.6508444  3
    642    638    645    646     1  0.0000000  1.2552000  3
    642    638    645    647     1  0.0000000  1.2552000  3
    642    654    660    661     1  0.0000000  0.6508444  3
    642    654    660    662     1  0.0000000  0.6508444  3
    643    642    638    645     1  0.0000000  1.2552000  3
    643    642    654    660     1  0.0000000  0.6508444  3
    643    642    654    655     1  0.0000000  0.6508444  3
    643    642    654    656     1  0.0000000  0.6508444  3
    644    642    638    645     1  0.0000000  1.2552000  3
    644    642    654    660     1  0.0000000  0.6508444  3
    644    642    654    655     1  0.0000000  0.6508444  3
    644    642    654    656     1  0.0000000  0.6508444  3
    645    648    657    658     1  0.0000000  0.6508444  3
    645    648    657    659     1  0.0000000  0.6508444  3
    646    645    648    657     1  0.0000000  0.6508444  3
    646    645    648    649     1  0.0000000  0.6508444  3
    646    645    648    650     1  0.0000000  0.6508444  3
    647    645    648    657     1  0.0000000  0.6508444  3
    647    645    648    649     1  0.0000000  0.6508444  3
    647    645    648    650     1  0.0000000  0.6508444  3
    649    648    657    666     1  0.0000000  1.0460000  1
    649    648    657    666     1  0.0000000  0.0000000  3
    649    648    657    658     1  0.0000000  0.6508444  3
    649    648    657    659     1  0.0000000  0.6508444  3
    650    648    657    666     1  0.0000000  1.0460000  1
    650    648    657    666     1  0.0000000  0.0000000  3
    650    648    657    658     1  0.0000000  0.6508444  3
    650    648    657    659     1  0.0000000  0.6508444  3
    652    651    663   1391     1  0.0000000  1.0460000  1
    652    651    663   1391     1  0.0000000  0.0000000  3
    652    651    663    664     1  0.0000000  0.6508444  3
    652    651    663    665     1  0.0000000  0.6508444  3
    653    651    663   1391     1  0.0000000  1.0460000  1
    653    651    663   1391     1  0.0000000  0.0000000  3
    653    651    663    664     1  0.0000000  0.6508444  3
    653    651    663    665     1  0.0000000  0.6508444  3
    655    654    660   1362     1  0.0000000  1.0460000  1
    655    654    660   1362     1  0.0000000  0.0000000  3
    655    654    660    661     1  0.0000000  0.6508444  3
    655    654    660    662     1  0.0000000  0.6508444  3
    656    654    660   1362     1  0.0000000  1.0460000  1
    656    654    660   1362     1  0.0000000  0.0000000  3
    656    654    660    661     1  0.0000000  0.6508444  3
    656    654    660    662     1  0.0000000  0.6508444  3
    660   1362   1353   1354     1  0.0000000  1.6038667  3
    660   1362   1353   1355     1  0.0000000  1.6038667  3
    661    660   1362   1353     1  0.0000000  1.6038667  3
    662    660   1362   1353     1  0.0000000  1.6038667  3
    663   1391   1382   1383     1  0.0000000  1.6038667  3
    663   1391   1382   1384     1  0.0000000  1.6038667  3
    664    663   1391   1382     1  0.0000000  1.6038667  3
    665    663   1391   1382     1  0.0000000  1.6038667  3
    667    668    680    681     1  0.0000000  0.6508444  3
    667    668    680    682     1  0.0000000  0.6508444  3
    667    671    683    684     1  0.0000000  0.6508444  3
    667    671    683    685     1  0.0000000  0.6508444  3
    667    674    677    678     1  0.0000000  0.6508444  3
    667    674    677    679     1  0.0000000  0.6508444  3
    668    667    671    672     1  0.0000000  1.2552000  3
    668    667    671    673     1  0.0000000  1.2552000  3
    668    667    674    675     1  0.0000000  1.2552000  3
    668    667    674    676     1  0.0000000  1.2552000  3
    668    680    692    693     1  0.0000000  0.6508444  3
    668    680    692    694     1  0.0000000  0.6508444  3
    669    668    667    671     1  0.0000000  1.2552000  3
    669    668    667    674     1  0.0000000  1.2552000  3
    669    668    680    692     1  0.0000000  0.6508444  3
    669    668    680    681     1  0.0000000  0.6508444  3
    669    668    680    682     1  0.0000000  0.6508444  3
    670    668    667    671     1  0.0000000  1.2552000  3
    670    668    667    674     1  0.0000000  1.2552000  3
    670    668    680    692     1  0.0000000  0.6508444  3
    670    668    680    681     1  0.0000000  0.6508444  3
    670    668    680    682     1  0.0000000  0.6508444  3
    671    667    674    675     1  0.0000000  1.2552000  3
    671    667    674    676     1  0.0000000  1.2552000  3
    671    683    689    690     1  0.0000000  0.6508444  3
    671    683    689    691     1  0.0000000  0.6508444  3
    672    671    667    674     1  0.0000000  1.2552000  3
    672    671    683    689     1  0.0000000  0.6508444  3
    672    671    683    684     1  0.0000000  0.6508444  3
    672    671    683    685     1  0.0000000  0.6508444  3
    673    671    667    674     1  0.0000000  1.2552000  3
    673    671    683    689     1  0.0000000  0.6508444  3
    673    671    683    684     1  0.0000000  0.6508444  3
    673    671    683    685     1  0.0000000  0.6508444  3
    674    677    686    687     1  0.0000000  0.6508444  3
    674    677    686    688     1  0.0000000  0.6508444  3
    675    674    677    686     1  0.0000000  0.6508444  3
    675    674    677    678     1  0.0000000  0.6508444  3
    675    674    677    679     1  0.0000000  0.6508444  3
    676    674    677    686     1  0.0000000  0.6508444  3
    676    674    677    678     1  0.0000000  0.6508444  3
    676    674    677    679     1  0.0000000  0.6508444  3
    678    677    686    695     1  0.0000000  1.0460000  1
    678    677    686    695     1  0.0000000  0.0000000  3
    678    677    686    687     1  0.0000000  0.6508444  3
    678    677    686    688     1  0.0000000  0.6508444  3
    679    677    686    695     1  0.0000000  1.0460000  1
    679    677    686    695     1  0.0000000  0.0000000  3
    679    677    686    687     1  0.0000000  0.6508444  3
    679    677    686    688     1  0.0000000  0.6508444  3
    681    680    692   1449     1  0.0000000  1.0460000  1
    681    680    692   1449     1  0.0000000  0.0000000  3
    681    680    692    693     1  0.0000000  0.6508444  3
    681    680    692    694     1  0.0000000  0.6508444  3
    682    680    692   1449     1  0.0000000  1.0460000  1
    682    680    692   1449     1  0.0000000  0.0000000  3
    682    680    692    693     1  0.0000000  0.6508444  3
    682    680    692    694     1  0.0000000  0.6508444  3
    684    683    689   1420     1  0.0000000  1.0460000  1
    684    683    689   1420     1  0.0000000  0.0000000  3
    684    683    689    690     1  0.0000000  0.6508444  3
    684    683    689    691     1  0.0000000  0.6508444  3
    685    683    689   1420     1  0.0000000  1.0460000  1
    685    683    689   1420     1  0.0000000  0.0000000  3
    685    683    689    690     1  0.0000000  0.6508444  3
    685    683    689    691     1  0.0000000  0.6508444  3
    689   1420   1411   1412     1  0.0000000  1.6038667  3
    689   1420   1411   1413     1  0.0000000  1.6038667  3
    690    689   1420   1411     1  0.0000000  1.6038667  3
    691    689   1420   1411     1  0.0000000  1.6038667  3
    692   1449   1440   1441     1  0.0000000  1.6038667  3
    692   1449   1440   1442     1  0.0000000  1.6038667  3
    693    692   1449   1440     1  0.0000000  1.6038667  3
    694    692   1449   1440     1  0.0000000  1.6038667  3
    696    697    709    710     1  0.0000000  0.6508444  3
    696    697    709    711     1  0.0000000  0.6508444  3
    696    700    712    713     1  0.0000000  0.6508444  3
    696    700    712    714     1  0.0000000  0.6508444  3
    696    703    706    707     1  0.0000000  0.6508444  3
    696    703    706    708     1  0.0000000  0.6508444  3
    697    696    700    701     1  0.0000000  1.2552000  3
    697    696    700    702     1  0.0000000  1.2552000  3
    697    696    703    704     1  0.0000000  1.2552000  3
    697    696    703    705     1  0.0000000  1.2552000  3
    697    709    721    722     1  0.0000000  0.6508444  3
    697    709    721    723     1  0.0000000  0.6508444  3
    698    697    696    700     1  0.0000000  1.2552000  3
    698    697    696    703     1  0.0000000  1.2552000  3
    698    697    709    721     1  0.0000000  0.6508444  3
    698    697    709    710     1  0.0000000  0.6508444  3
    698    697    709    711     1  0.0000000  0.6508444  3
    699    697    696    700     1  0.0000000  1.2552000  3
    699    697    696    703     1  0.0000000  1.2552000  3
    699    697    709    721     1  0.0000000  0.6508444  3
    699    697    709    710     1  0.0000000  0.6508444  3
    699    697    709    711     1  0.0000000  0.6508444  3
    700    696    703    704     1  0.0000000  1.2552000  3
    700    696    703    705     1  0.0000000  1.2552000  3
    700    712    718    719     1  0.0000000  0.6508444  3
    700    712    718    720     1  0.0000000  0.6508444  3
    701    700    696    703     1  0.0000000  1.2552000  3
    701    700    712    718     1  0.0000000  0.6508444  3
    701    700    712    713     1  0.0000000  0.6508444  3
    701    700    712    714     1  0.0000000  0.6508444  3
    702    700    696    703     1  0.0000000  1.2552000  3
    702    700    712    718     1  0.0000000  0.6508444  3
    702    700    712    713     1  0.0000000  0.6508444  3
    702    700    712    714     1  0.0000000  0.6508444  3
    703    706    715    716     1  0.0000000  0.6508444  3
    703    706    715    717     1  0.0000000  0.6508444  3
    704    703    706    715     1  0.0000000  0.6508444  3
    704    703    706    707     1  0.0000000  0.6508444  3
    704    703    706    708     1  0.0000000  0.6508444  3
    705    703    706    715     1  0.0000000  0.6508444  3
    705    703    706    707     1  0.0000000  0.6508444  3
    705    703    706    708     1  0.0000000  0.6508444  3
    707    706    715    724     1  0.0000000  1.0460000  1
    707    706    715    724     1  0.0000000  0.0000000  3
    707    706    715    716     1  0.0000000  0.6508444  3
    707    706    715    717     1  0.0000000  0.6508444  3
    708    706    715    724     1  0.0000000  1.0460000  1
    708    706    715    724     1  0.0000000  0.0000000  3
    708    706    715    716     1  0.0000000  0.6508444  3
    708    706    715    717     1  0.0000000  0.6508444  3
    710    709    721   1507     1  0.0000000  1.0460000  1
    710    709    721   1507     1  0.0000000  0.0000000  3
    710    709    721    722     1  0.0000000  0.6508444  3
    710    709    721    723     1  0.0000000  0.6508444  3
    711    709    721   1507     1  0.0000000  1.0460000  1
    711    709    721   1507     1  0.0000000  0.0000000  3
    711    709    721    722     1  0.0000000  0.6508444  3
    711    709    721    723     1  0.0000000  0.6508444  3
    713    712    718   1478     1  0.0000000  1.0460000  1
    713    712    718   1478     1  0.0000000  0.0000000  3
    713    712    718    719     1  0.0000000  0.6508444  3
    713    712    718    720     1  0.0000000  0.6508444  3
    714    712    718   1478     1  0.0000000  1.0460000  1
    714    712    718   1478     1  0.0000000  0.0000000  3
    714    712    718    719     1  0.0000000  0.6508444  3
    714    712    718    720     1  0.0000000  0.6508444  3
    718   1478   1469   1470     1  0.0000000  1.6038667  3
    718   1478   1469   1471     1  0.0000000  1.6038667  3
    719    718   1478   1469     1  0.0000000  1.6038667  3
    720    718   1478   1469     1  0.0000000  1.6038667  3
    721   1507   1498   1499     1  0.0000000  1.6038667  3
    721   1507   1498   1500     1  0.0000000  1.6038667  3
    722    721   1507   1498     1  0.0000000  1.6038667  3
    723    721   1507   1498     1  0.0000000  1.6038667  3
    725    726    738    739     1  0.0000000  0.6508444  3
    725    726    738    740     1  0.0000000  0.6508444  3
    725    729    741    742     1  0.0000000  0.6508444  3
    725    729    741    743     1  0.0000000  0.6508444  3
    725    732    735    736     1  0.0000000  0.6508444  3
    725    732    735    737     1  0.0000000  0.6508444  3
    726    725    729    730     1  0.0000000  1.2552000  3
    726    725    729    731     1  0.0000000  1.2552000  3
    726    725    732    733     1  0.0000000  1.2552000  3
    726    725    732    734     1  0.0000000  1.2552000  3
    726    738    750    751     1  0.0000000  0.6508444  3
    726    738    750    752     1  0.0000000  0.6508444  3
    727    726    725    729     1  0.0000000  1.2552000  3
    727    726    725    732     1  0.0000000  1.2552000  3
    727    726    738    750     1  0.0000000  0.6508444  3
    727    726    738    739     1  0.0000000  0.6508444  3
    727    726    738    740     1  0.0000000  0.6508444  3
    728    726    725    729     1  0.0000000  1.2552000  3
    728    726    725    732     1  0.0000000  1.2552000  3
    728    726    738    750     1  0.0000000  0.6508444  3
    728    726    738    739     1  0.0000000  0.6508444  3
    728    726    738    740     1  0.0000000  0.6508444  3
    729    725    732    733     1  0.0000000  1.2552000  3
    729    725    732    734     1  0.0000000  1.2552000  3
    729    741    747    748     1  0.0000000  0.6508444  3
    729    741    747    749     1  0.0000000  0.6508444  3
    730    729    725    732     1  0.0000000  1.2552000  3
    730    729    741    747     1  0.0000000  0.6508444  3
    730    729    741    742     1  0.0000000  0.6508444  3
    730    729    741    743     1  0.0000000  0.6508444  3
    731    729    725    732     1  0.0000000  1.2552000  3
    731    729    741    747     1  0.0000000  0.6508444  3
    731    729    741    742     1  0.0000000  0.6508444  3
    731    729    741    743     1  0.0000000  0.6508444  3
    732    735    744    745     1  0.0000000  0.6508444  3
    732    735    744    746     1  0.0000000  0.6508444  3
    733    732    735    744     1  0.0000000  0.6508444  3
    733    732    735    736     1  0.0000000  0.6508444  3
    733    732    735    737     1  0.0000000  0.6508444  3
    734    732    735    744     1  0.0000000  0.6508444  3
    734    732    735    736     1  0.0000000  0.6508444  3
    734    732    735    737     1  0.0000000  0.6508444  3
    736    735    744    753     1  0.0000000  1.0460000  1
    736    735    744    753     1  0.0000000  0.0000000  3
    736    735    744    745     1  0.0000000  0.6508444  3
    736    735    744    746     1  0.0000000  0.6508444  3
    737    735    744    753     1  0.0000000  1.0460000  1
    737    735    744    753     1  0.0000000  0.0000000  3
    737    735    744    745     1  0.0000000  0.6508444  3
    737    735    744    746     1  0.0000000  0.6508444  3
    739    738    750   1565     1  0.0000000  1.0460000  1
    739    738    750   1565     1  0.0000000  0.0000000  3
    739    738    750    751     1  0.0000000  0.6508444  3
    739    738    750    752     1  0.0000000  0.6508444  3
    740    738    750   1565     1  0.0000000  1.0460000  1
    740    738    750   1565     1  0.0000000  0.0000000  3
    740    738    750    751     1  0.0000000  0.6508444  3
    740    738    750    752     1  0.0000000  0.6508444  3
    742    741    747   1536     1  0.0000000  1.0460000  1
    742    741    747   1536     1  0.0000000  0.0000000  3
    742    741    747    748     1  0.0000000  0.6508444  3
    742    741    747    749     1  0.0000000  0.6508444  3
    743    741    747   1536     1  0.0000000  1.0460000  1
    743    741    747   1536     1  0.0000000  0.0000000  3
    743    741    747    748     1  0.0000000  0.6508444  3
    743    741    747    749     1  0.0000000  0.6508444  3
    747   1536   1527   1528     1  0.0000000  1.6038667  3
    747   1536   1527   1529     1  0.0000000  1.6038667  3
    748    747   1536   1527     1  0.0000000  1.6038667  3
    749    747   1536   1527     1  0.0000000  1.6038667  3
    750   1565   1556   1557     1  0.0000000  1.6038667  3
    750   1565   1556   1558     1  0.0000000  1.6038667  3
    751    750   1565   1556     1  0.0000000  1.6038667  3
    752    750   1565   1556     1  0.0000000  1.6038667  3
    754    755    767    768     1  0.0000000  0.6508444  3
    754    755    767    769     1  0.0000000  0.6508444  3
    754    758    770    771     1  0.0000000  0.6508444  3
    754    758    770    772     1  0.0000000  0.6508444  3
    754    761    764    765     1  0.0000000  0.6508444  3
    754    761    764    766     1  0.0000000  0.6508444  3
    755    754    758    759     1  0.0000000  1.2552000  3
    755    754    758    760     1  0.0000000  1.2552000  3
    755    754    761    762     1  0.0000000  1.2552000  3
    755    754    761    763     1  0.0000000  1.2552000  3
    755    767    779    780     1  0.0000000  0.6508444  3
    755    767    779    781     1  0.0000000  0.6508444  3
    756    755    754    758     1  0.0000000  1.2552000  3
    756    755    754    761     1  0.0000000  1.2552000  3
    756    755    767    779     1  0.0000000  0.6508444  3
    756    755    767    768     1  0.0000000  0.6508444  3
    756    755    767    769     1  0.0000000  0.6508444  3
    757    755    754    758     1  0.0000000  1.2552000  3
    757    755    754    761     1  0.0000000  1.2552000  3
    757    755    767    779     1  0.0000000  0.6508444  3
    757    755    767    768     1  0.0000000  0.6508444  3
    757    755    767    769     1  0.0000000  0.6508444  3
    758    754    761    762     1  0.0000000  1.2552000  3
    758    754    761    763     1  0.0000000  1.2552000  3
    758    770    776    777     1  0.0000000  0.6508444  3
    758    770    776    778     1  0.0000000  0.6508444  3
    759    758    754    761     1  0.0000000  1.2552000  3
    759    758    770    776     1  0.0000000  0.6508444  3
    759    758    770    771     1  0.0000000  0.6508444  3
    759    758    770    772     1  0.0000000  0.6508444  3
    760    758    754    761     1  0.0000000  1.2552000  3
    760    758    770    776     1  0.0000000  0.6508444  3
    760    758    770    771     1  0.0000000  0.6508444  3
    760    758    770    772     1  0.0000000  0.6508444  3
    761    764    773    774     1  0.0000000  0.6508444  3
    761    764    773    775     1  0.0000000  0.6508444  3
    762    761    764    773     1  0.0000000  0.6508444  3
    762    761    764    765     1  0.0000000  0.6508444  3
    762    761    764    766     1  0.0000000  0.6508444  3
    763    761    764    773     1  0.0000000  0.6508444  3
    763    761    764    765     1  0.0000000  0.6508444  3
    763    761    764    766     1  0.0000000  0.6508444  3
    765    764    773    782     1  0.0000000  1.0460000  1
    765    764    773    782     1  0.0000000  0.0000000  3
    765    764    773    774     1  0.0000000  0.6508444  3
    765    764    773    775     1  0.0000000  0.6508444  3
    766    764    773    782     1  0.0000000  1.0460000  1
    766    764    773    782     1  0.0000000  0.0000000  3
    766    764    773    774     1  0.0000000  0.6508444  3
    766    764    773    775     1  0.0000000  0.6508444  3
    768    767    779   1623     1  0.0000000  1.0460000  1
    768    767    779   1623     1  0.0000000  0.0000000  3
    768    767    779    780     1  0.0000000  0.6508444  3
    768    767    779    781     1  0.0000000  0.6508444  3
    769    767    779   1623     1  0.0000000  1.0460000  1
    769    767    779   1623     1  0.0000000  0.0000000  3
    769    767    779    780     1  0.0000000  0.6508444  3
    769    767    779    781     1  0.0000000  0.6508444  3
    771    770    776   1594     1  0.0000000  1.0460000  1
    771    770    776   1594     1  0.0000000  0.0000000  3
    771    770    776    777     1  0.0000000  0.6508444  3
    771    770    776    778     1  0.0000000  0.6508444  3
    772    770    776   1594     1  0.0000000  1.0460000  1
    772    770    776   1594     1  0.0000000  0.0000000  3
    772    770    776    777     1  0.0000000  0.6508444  3
    772    770    776    778     1  0.0000000  0.6508444  3
    776   1594   1585   1586     1  0.0000000  1.6038667  3
    776   1594   1585   1587     1  0.0000000  1.6038667  3
    777    776   1594   1585     1  0.0000000  1.6038667  3
    778    776   1594   1585     1  0.0000000  1.6038667  3
    779   1623   1614   1615     1  0.0000000  1.6038667  3
    779   1623   1614   1616     1  0.0000000  1.6038667  3
    780    779   1623   1614     1  0.0000000  1.6038667  3
    781    779   1623   1614     1  0.0000000  1.6038667  3
    783    784    796    797     1  0.0000000  0.6508444  3
    783    784    796    798     1  0.0000000  0.6508444  3
    783    787    799    800     1  0.0000000  0.6508444  3
    783    787    799    801     1  0.0000000  0.6508444  3
    783    790    793    794     1  0.0000000  0.6508444  3
    783    790    793    795     1  0.0000000  0.6508444  3
    784    783    787    788     1  0.0000000  1.2552000  3
    784    783    787    789     1  0.0000000  1.2552000  3
    784    783    790    791     1  0.0000000  1.2552000  3
    784    783    790    792     1  0.0000000  1.2552000  3
    784    796    808    809     1  0.0000000  0.6508444  3
    784    796    808    810     1  0.0000000  0.6508444  3
    785    784    783    787     1  0.0000000  1.2552000  3
    785    784    783    790     1  0.0000000  1.2552000  3
    785    784    796    808     1  0.0000000  0.6508444  3
    785    784    796    797     1  0.0000000  0.6508444  3
    785    784    796    798     1  0.0000000  0.6508444  3
    786    784    783    787     1  0.0000000  1.2552000  3
    786    784    783    790     1  0.0000000  1.2552000  3
    786    784    796    808     1  0.0000000  0.6508444  3
    786    784    796    797     1  0.0000000  0.6508444  3
    786    784    796    798     1  0.0000000  0.6508444  3
    787    783    790    791     1  0.0000000  1.2552000  3
    787    783    790    792     1  0.0000000  1.2552000  3
    787    799    805    806     1  0.0000000  0.6508444  3
    787    799    805    807     1  0.0000000  0.6508444  3
    788    787    783    790     1  0.0000000  1.2552000  3
    788    787    799    805     1  0.0000000  0.6508444  3
    788    787    799    800     1  0.0000000  0.6508444  3
    788    787    799    801     1  0.0000000  0.6508444  3
    789    787    783    790     1  0.0000000  1.2552000  3
    789    787    799    805     1  0.0000000  0.6508444  3
    789    787    799    800     1  0.0000000  0.6508444  3
    789    787    799    801     1  0.0000000  0.6508444  3
    790    793    802    803     1  0.0000000  0.6508444  3
    790    793    802    804     1  0.0000000  0.6508444  3
    791    790    793    802     1  0.0000000  0.6508444  3
    791    790    793    794     1  0.0000000  0.6508444  3
    791    790    793    795     1  0.0000000  0.6508444  3
    792    790    793    802     1  0.0000000  0.6508444  3
    792    790    793    794     1  0.0000000  0.6508444  3
    792    790    793    795     1  0.0000000  0.6508444  3
    794    793    802    811     1  0.0000000  1.0460000  1
    794    793    802    811     1  0.0000000  0.0000000  3
    794    793    802    803     1  0.0000000  0.6508444  3
    794    793    802    804     1  0.0000000  0.6508444  3
    795    793    802    811     1  0.0000000  1.0460000  1
    795    793    802    811     1  0.0000000  0.0000000  3
    795    793    802    803     1  0.0000000  0.6508444  3
    795    793    802    804     1  0.0000000  0.6508444  3
    797    796    808   1681     1  0.0000000  1.0460000  1
    797    796    808   1681     1  0.0000000  0.0000000  3
    797    796    808    809     1  0.0000000  0.6508444  3
    797    796    808    810     1  0.0000000  0.6508444  3
    798    796    808   1681     1  0.0000000  1.0460000  1
    798    796    808   1681     1  0.0000000  0.0000000  3
    798    796    808    809     1  0.0000000  0.6508444  3
    798    796    808    810     1  0.0000000  0.6508444  3
    800    799    805   1652     1  0.0000000  1.0460000  1
    800    799    805   1652     1  0.0000000  0.0000000  3
    800    799    805    806     1  0.0000000  0.6508444  3
    800    799    805    807     1  0.0000000  0.6508444  3
    801    799    805   1652     1  0.0000000  1.0460000  1
    801    799    805   1652     1  0.0000000  0.0000000  3
    801    799    805    806     1  0.0000000  0.6508444  3
    801    799    805    807     1  0.0000000  0.6508444  3
    805   1652   1643   1644     1  0.0000000  1.6038667  3
    805   1652   1643   1645     1  0.0000000  1.6038667  3
    806    805   1652   1643     1  0.0000000  1.6038667  3
    807    805   1652   1643     1  0.0000000  1.6038667  3
    808   1681   1672   1673     1  0.0000000  1.6038667  3
    808   1681   1672   1674     1  0.0000000  1.6038667  3
    809    808   1681   1672     1  0.0000000  1.6038667  3
    810    808   1681   1672     1  0.0000000  1.6038667  3
    812    813    825    826     1  0.0000000  0.6508444  3
    812    813    825    827     1  0.0000000  0.6508444  3
    812    816    828    829     1  0.0000000  0.6508444  3
    812    816    828    830     1  0.0000000  0.6508444  3
    812    819    822    823     1  0.0000000  0.6508444  3
    812    819    822    824     1  0.0000000  0.6508444  3
    813    812    816    817     1  0.0000000  1.2552000  3
    813    812    816    818     1  0.0000000  1.2552000  3
    813    812    819    820     1  0.0000000  1.2552000  3
    813    812    819    821     1  0.0000000  1.2552000  3
    813    825    837    838     1  0.0000000  0.6508444  3
    813    825    837    839     1  0.0000000  0.6508444  3
    814    813    812    816     1  0.0000000  1.2552000  3
    814    813    812    819     1  0.0000000  1.2552000  3
    814    813    825    837     1  0.0000000  0.6508444  3
    814    813    825    826     1  0.0000000  0.6508444  3
    814    813    825    827     1  0.0000000  0.6508444  3
    815    813    812    816     1  0.0000000  1.2552000  3
    815    813    812    819     1  0.0000000  1.2552000  3
    815    813    825    837     1  0.0000000  0.6508444  3
    815    813    825    826     1  0.0000000  0.6508444  3
    815    813    825    827     1  0.0000000  0.6508444  3
    816    812    819    820     1  0.0000000  1.2552000  3
    816    812    819    821     1  0.0000000  1.2552000  3
    816    828    834    835     1  0.0000000  0.6508444  3
    816    828    834    836     1  0.0000000  0.6508444  3
    817    816    812    819     1  0.0000000  1.2552000  3
    817    816    828    834     1  0.0000000  0.6508444  3
    817    816    828    829     1  0.0000000  0.6508444  3
    817    816    828    830     1  0.0000000  0.6508444  3
    818    816    812    819     1  0.0000000  1.2552000  3
    818    816    828    834     1  0.0000000  0.6508444  3
    818    816    828    829     1  0.0000000  0.6508444  3
    818    816    828    830     1  0.0000000  0.6508444  3
    819    822    831    832     1  0.0000000  0.6508444  3
    819    822    831    833     1  0.0000000  0.6508444  3
    820    819    822    831     1  0.0000000  0.6508444  3
    820    819    822    823     1  0.0000000  0.6508444  3
    820    819    822    824     1  0.0000000  0.6508444  3
    821    819    822    831     1  0.0000000  0.6508444  3
    821    819    822    823     1  0.0000000  0.6508444  3
    821    819    822    824     1  0.0000000  0.6508444  3
    823    822    831    840     1  0.0000000  1.0460000  1
    823    822    831    840     1  0.0000000  0.0000000  3
    823    822    831    832     1  0.0000000  0.6508444  3
    823    822    831    833     1  0.0000000  0.6508444  3
    824    822    831    840     1  0.0000000  1.0460000  1
    824    822    831    840     1  0.0000000  0.0000000  3
    824    822    831    832     1  0.0000000  0.6508444  3
    824    822    831    833     1  0.0000000  0.6508444  3
    826    825    837   1739     1  0.0000000  1.0460000  1
    826    825    837   1739     1  0.0000000  0.0000000  3
    826    825    837    838     1  0.0000000  0.6508444  3
    826    825    837    839     1  0.0000000  0.6508444  3
    827    825    837   1739     1  0.0000000  1.0460000  1
    827    825    837   1739     1  0.0000000  0.0000000  3
    827    825    837    838     1  0.0000000  0.6508444  3
    827    825    837    839     1  0.0000000  0.6508444  3
    829    828    834   1710     1  0.0000000  1.0460000  1
    829    828    834   1710     1  0.0000000  0.0000000  3
    829    828    834    835     1  0.0000000  0.6508444  3
    829    828    834    836     1  0.0000000  0.6508444  3
    830    828    834   1710     1  0.0000000  1.0460000  1
    830    828    834   1710     1  0.0000000  0.0000000  3
    830    828    834    835     1  0.0000000  0.6508444  3
    830    828    834    836     1  0.0000000  0.6508444  3
    834   1710   1701   1702     1  0.0000000  1.6038667  3
    834   1710   1701   1703     1  0.0000000  1.6038667  3
    835    834   1710   1701     1  0.0000000  1.6038667  3
    836    834   1710   1701     1  0.0000000  1.6038667  3
    837   1739   1730   1731     1  0.0000000  1.6038667  3
    837   1739   1730   1732     1  0.0000000  1.6038667  3
    838    837   1739   1730     1  0.0000000  1.6038667  3
    839    837   1739   1730     1  0.0000000  1.6038667  3
    841    842    854    855     1  0.0000000  0.6508444  3
    841    842    854    856     1  0.0000000  0.6508444  3
    841    845    857    858     1  0.0000000  0.6508444  3
    841    845    857    859     1  0.0000000  0.6508444  3
    841    848    851    852     1  0.0000000  0.6508444  3
    841    848    851    853     1  0.0000000  0.6508444  3
    842    841    845    846     1  0.0000000  1.2552000  3
    842    841    845    847     1  0.0000000  1.2552000  3
    842    841    848    849     1  0.0000000  1.2552000  3
    842    841    848    850     1  0.0000000  1.2552000  3
    842    854    866    867     1  0.0000000  0.6508444  3
    842    854    866    868     1  0.0000000  0.6508444  3
    843    842    841    845     1  0.0000000  1.2552000  3
    843    842    841    848     1  0.0000000  1.2552000  3
    843    842    854    866     1  0.0000000  0.6508444  3
    843    842    854    855     1  0.0000000  0.6508444  3
    843    842    854    856     1  0.0000000  0.6508444  3
    844    842    841    845     1  0.0000000  1.2552000  3
    844    842    841    848     1  0.0000000  1.2552000  3
    844    842    854    866     1  0.0000000  0.6508444  3
    844    842    854    855     1  0.0000000  0.6508444  3
    844    842    854    856     1  0.0000000  0.6508444  3
    845    841    848    849     1  0.0000000  1.2552000  3
    845    841    848    850     1  0.0000000  1.2552000  3
    845    857    863    864     1  0.0000000  0.6508444  3
    845    857    863    865     1  0.0000000  0.6508444  3
    846    845    841    848     1  0.0000000  1.2552000  3
    846    845    857    863     1  0.0000000  0.6508444  3
    846    845    857    858     1  0.0000000  0.6508444  3
    846    845    857    859     1  0.0000000  0.6508444  3
    847    845    841    848     1  0.0000000  1.2552000  3
    847    845    857    863     1  0.0000000  0.6508444  3
    847    845    857    858     1  0.0000000  0.6508444  3
    847    845    857    859     1  0.0000000  0.6508444  3
    848    851    860    861     1  0.0000000  0.6508444  3
    848    851    860    862     1  0.0000000  0.6508444  3
    849    848    851    860     1  0.0000000  0.6508444  3
    849    848    851    852     1  0.0000000  0.6508444  3
    849    848    851    853     1  0.0000000  0.6508444  3
    850    848    851    860     1  0.0000000  0.6508444  3
    850    848    851    852     1  0.0000000  0.6508444  3
    850    848    851    853     1  0.0000000  0.6508444  3
    852    851    860    869     1  0.0000000  1.0460000  1
    852    851    860    869     1  0.0000000  0.0000000  3
    852    851    860    861     1  0.0000000  0.6508444  3
    852    851    860    862     1  0.0000000  0.6508444  3
    853    851    860    869     1  0.0000000  1.0460000  1
    853    851    860    869     1  0.0000000  0.0000000  3
    853    851    860    861     1  0.0000000  0.6508444  3
    853    851    860    862     1  0.0000000  0.6508444  3
    855    854    866   1797     1  0.0000000  1.0460000  1
    855    854    866   1797     1  0.0000000  0.0000000  3
    855    854    866    867     1  0.0000000  0.6508444  3
    855    854    866    868     1  0.0000000  0.6508444  3
    856    854    866   1797     1  0.0000000  1.0460000  1
    856    854    866   1797     1  0.0000000  0.0000000  3
    856    854    866    867     1  0.0000000  0.6508444  3
    856    854    866    868     1  0.0000000  0.6508444  3
    858    857    863   1768     1  0.0000000  1.0460000  1
    858    857    863   1768     1  0.0000000  0.0000000  3
    858    857    863    864     1  0.0000000  0.6508444  3
    858    857    863    865     1  0.0000000  0.6508444  3
    859    857    863   1768     1  0.0000000  1.0460000  1
    859    857    863   1768     1  0.0000000  0.0000000  3
    859    857    863    864     1  0.0000000  0.6508444  3
    859    857    863    865     1  0.0000000  0.6508444  3
    863   1768   1759   1760     1  0.0000000  1.6038667  3
    863   1768   1759   1761     1  0.0000000  1.6038667  3
    864    863   1768   1759     1  0.0000000  1.6038667  3
    865    863   1768   1759     1  0.0000000  1.6038667  3
    866   1797   1788   1789     1  0.0000000  1.6038667  3
    866   1797   1788   1790     1  0.0000000  1.6038667  3
    867    866   1797   1788     1  0.0000000  1.6038667  3
    868    866   1797   1788     1  0.0000000  1.6038667  3
    870    871    883    884     1  0.0000000  0.6508444  3
    870    871    883    885     1  0.0000000  0.6508444  3
    870    874    886    887     1  0.0000000  0.6508444  3
    870    874    886    888     1  0.0000000  0.6508444  3
    870    877    880    881     1  0.0000000  0.6508444  3
    870    877    880    882     1  0.0000000  0.6508444  3
    871    870    874    875     1  0.0000000  1.2552000  3
    871    870    874    876     1  0.0000000  1.2552000  3
    871    870    877    878     1  0.0000000  1.2552000  3
    871    870    877    879     1  0.0000000  1.2552000  3
    871    883    895    896     1  0.0000000  0.6508444  3
    871    883    895    897     1  0.0000000  0.6508444  3
    872    871    870    874     1  0.0000000  1.2552000  3
    872    871    870    877     1  0.0000000  1.2552000  3
    872    871    883    895     1  0.0000000  0.6508444  3
    872    871    883    884     1  0.0000000  0.6508444  3
    872    871    883    885     1  0.0000000  0.6508444  3
    873    871    870    874     1  0.0000000  1.2552000  3
    873    871    870    877     1  0.0000000  1.2552000  3
    873    871    883    895     1  0.0000000  0.6508444  3
    873    871    883    884     1  0.0000000  0.6508444  3
    873    871    883    885     1  0.0000000  0.6508444  3
    874    870    877    878     1  0.0000000  1.2552000  3
    874    870    877    879     1  0.0000000  1.2552000  3
    874    886    892    893     1  0.0000000  0.6508444  3
    874    886    892    894     1  0.0000000  0.6508444  3
    875    874    870    877     1  0.0000000  1.2552000  3
    875    874    886    892     1  0.0000000  0.6508444  3
    875    874    886    887     1  0.0000000  0.6508444  3
    875    874    886    888     1  0.0000000  0.6508444  3
    876    874    870    877     1  0.0000000  1.2552000  3
    876    874    886    892     1  0.0000000  0.6508444  3
    876    874    886    887     1  0.0000000  0.6508444  3
    876    874    886    888     1  0.0000000  0.6508444  3
    877    880    889    890     1  0.0000000  0.6508444  3
    877    880    889    891     1  0.0000000  0.6508444  3
    878    877    880    889     1  0.0000000  0.6508444  3
    878    877    880    881     1  0.0000000  0.6508444  3
    878    877    880    882     1  0.0000000  0.6508444  3
    879    877    880    889     1  0.0000000  0.6508444  3
    879    877    880    881     1  0.0000000  0.6508444  3
    879    877    880    882     1  0.0000000  0.6508444  3
    881    880    889    898     1  0.0000000  1.0460000  1
    881    880    889    898     1  0.0000000  0.0000000  3
    881    880    889    890     1  0.0000000  0.6508444  3
    881    880    889    891     1  0.0000000  0.6508444  3
    882    880    889    898     1  0.0000000  1.0460000  1
    882    880    889    898     1  0.0000000  0.0000000  3
    882    880    889    890     1  0.0000000  0.6508444  3
    882    880    889    891     1  0.0000000  0.6508444  3
    884    883    895   1855     1  0.0000000  1.0460000  1
    884    883    895   1855     1  0.0000000  0.0000000  3
    884    883    895    896     1  0.0000000  0.6508444  3
    884    883    895    897     1  0.0000000  0.6508444  3
    885    883    895   1855     1  0.0000000  1.0460000  1
    885    883    895   1855     1  0.0000000  0.0000000  3
    885    883    895    896     1  0.0000000  0.6508444  3
    885    883    895    897     1  0.0000000  0.6508444  3
    887    886    892   1826     1  0.0000000  1.0460000  1
    887    886    892   1826     1  0.0000000  0.0000000  3
    887    886    892    893     1  0.0000000  0.6508444  3
    887    886    892    894     1  0.0000000  0.6508444  3
    888    886    892   1826     1  0.0000000  1.0460000  1
    888    886    892   1826     1  0.0000000  0.0000000  3
    888    886    892    893     1  0.0000000  0.6508444  3
    888    886    892    894     1  0.0000000  0.6508444  3
    892   1826   1817   1818     1  0.0000000  1.6038667  3
    892   1826   1817   1819     1  0.0000000  1.6038667  3
    893    892   1826   1817     1  0.0000000  1.6038667  3
    894    892   1826   1817     1  0.0000000  1.6038667  3
    895   1855   1846   1847     1  0.0000000  1.6038667  3
    895   1855   1846   1848     1  0.0000000  1.6038667  3
    896    895   1855   1846     1  0.0000000  1.6038667  3
    897    895   1855   1846     1  0.0000000  1.6038667  3
    899    900    912    913     1  0.0000000  0.6508444  3
    899    900    912    914     1  0.0000000  0.6508444  3
    899    903    915    916     1  0.0000000  0.6508444  3
    899    903    915    917     1  0.0000000  0.6508444  3
    899    906    909    910     1  0.0000000  0.6508444  3
    899    906    909    911     1  0.0000000  0.6508444  3
    900    899    903    904     1  0.0000000  1.2552000  3
    900    899    903    905     1  0.0000000  1.2552000  3
    900    899    906    907     1  0.0000000  1.2552000  3
    900    899    906    908     1  0.0000000  1.2552000  3
    900    912    924    925     1  0.0000000  0.6508444  3
    900    912    924    926     1  0.0000000  0.6508444  3
    901    900    899    903     1  0.0000000  1.2552000  3
    901    900    899    906     1  0.0000000  1.2552000  3
    901    900    912    924     1  0.0000000  0.6508444  3
    901    900    912    913     1  0.0000000  0.6508444  3
    901    900    912    914     1  0.0000000  0.6508444  3
    902    900    899    903     1  0.0000000  1.2552000  3
    902    900    899    906     1  0.0000000  1.2552000  3
    902    900    912    924     1  0.0000000  0.6508444  3
    902    900    912    913     1  0.0000000  0.6508444  3
    902    900    912    914     1  0.0000000  0.6508444  3
    903    899    906    907     1  0.0000000  1.2552000  3
    903    899    906    908     1  0.0000000  1.2552000  3
    903    915    921    922     1  0.0000000  0.6508444  3
    903    915    921    923     1  0.0000000  0.6508444  3
    904    903    899    906     1  0.0000000  1.2552000  3
    904    903    915    921     1  0.0000000  0.6508444  3
    904    903    915    916     1  0.0000000  0.6508444  3
    904    903    915    917     1  0.0000000  0.6508444  3
    905    903    899    906     1  0.0000000  1.2552000  3
    905    903    915    921     1  0.0000000  0.6508444  3
    905    903    915    916     1  0.0000000  0.6508444  3
    905    903    915    917     1  0.0000000  0.6508444  3
    906    909    918    919     1  0.0000000  0.6508444  3
    906    909    918    920     1  0.0000000  0.6508444  3
    907    906    909    918     1  0.0000000  0.6508444  3
    907    906    909    910     1  0.0000000  0.6508444  3
    907    906    909    911     1  0.0000000  0.6508444  3
    908    906    909    918     1  0.0000000  0.6508444  3
    908    906    909    910     1  0.0000000  0.6508444  3
    908    906    909    911     1  0.0000000  0.6508444  3
    910    909    918    927     1  0.0000000  1.0460000  1
    910    909    918    927     1  0.0000000  0.0000000  3
    910    909    918    919     1  0.0000000  0.6508444  3
    910    909    918    920     1  0.0000000  0.6508444  3
    911    909    918    927     1  0.0000000  1.0460000  1
    911    909    918    927     1  0.0000000  0.0000000  3
    911    909    918    919     1  0.0000000  0.6508444  3
    911    909    918    920     1  0.0000000  0.6508444  3
    913    912    924   1913     1  0.0000000  1.0460000  1
    913    912    924   1913     1  0.0000000  0.0000000  3
    913    912    924    925     1  0.0000000  0.6508444  3
    913    912    924    926     1  0.0000000  0.6508444  3
    914    912    924   1913     1  0.0000000  1.0460000  1
    914    912    924   1913     1  0.0000000  0.0000000  3
    914    912    924    925     1  0.0000000  0.6508444  3
    914    912    924    926     1  0.0000000  0.6508444  3
    916    915    921   1884     1  0.0000000  1.0460000  1
    916    915    921   1884     1  0.0000000  0.0000000  3
    916    915    921    922     1  0.0000000  0.6508444  3
    916    915    921    923     1  0.0000000  0.6508444  3
    917    915    921   1884     1  0.0000000  1.0460000  1
    917    915    921   1884     1  0.0000000  0.0000000  3
    917    915    921    922     1  0.0000000  0.6508444  3
    917    915    921    923     1  0.0000000  0.6508444  3
    921   1884   1875   1876     1  0.0000000  1.6038667  3
    921   1884   1875   1877     1  0.0000000  1.6038667  3
    922    921   1884   1875     1  0.0000000  1.6038667  3
    923    921   1884   1875     1  0.0000000  1.6038667  3
    924   1913   1904   1905     1  0.0000000  1.6038667  3
    924   1913   1904   1906     1  0.0000000  1.6038667  3
    925    924   1913   1904     1  0.0000000  1.6038667  3
    926    924   1913   1904     1  0.0000000  1.6038667  3
    928    929    941    942     1  0.0000000  0.6508444  3
    928    929    941    943     1  0.0000000  0.6508444  3
    928    932    944    945     1  0.0000000  0.6508444  3
    928    932    944    946     1  0.0000000  0.6508444  3
    928    935    938    939     1  0.0000000  0.6508444  3
    928    935    938    940     1  0.0000000  0.6508444  3
    929    928    932    933     1  0.0000000  1.2552000  3
    929    928    932    934     1  0.0000000  1.2552000  3
    929    928    935    936     1  0.0000000  1.2552000  3
    929    928    935    937     1  0.0000000  1.2552000  3
    929    941    953    954     1  0.0000000  0.6508444  3
    929    941    953    955     1  0.0000000  0.6508444  3
    930    929    928    932     1  0.0000000  1.2552000  3
    930    929    928    935     1  0.0000000  1.2552000  3
    930    929    941    953     1  0.0000000  0.6508444  3
    930    929    941    942     1  0.0000000  0.6508444  3
    930    929    941    943     1  0.0000000  0.6508444  3
    931    929    928    932     1  0.0000000  1.2552000  3
    931    929    928    935     1  0.0000000  1.2552000  3
    931    929    941    953     1  0.0000000  0.6508444  3
    931    929    941    942     1  0.0000000  0.6508444  3
    931    929    941    943     1  0.0000000  0.6508444  3
    932    928    935    936     1  0.0000000  1.2552000  3
    932    928    935    937     1  0.0000000  1.2552000  3
    932    944    950    951     1  0.0000000  0.6508444  3
    932    944    950    952     1  0.0000000  0.6508444  3
    933    932    928    935     1  0.0000000  1.2552000  3
    933    932    944    950     1  0.0000000  0.6508444  3
    933    932    944    945     1  0.0000000  0.6508444  3
    933    932    944    946     1  0.0000000  0.6508444  3
    934    932    928    935     1  0.0000000  1.2552000  3
    934    932    944    950     1  0.0000000  0.6508444  3
    934    932    944    945     1  0.0000000  0.6508444  3
    934    932    944    946     1  0.0000000  0.6508444  3
    935    938    947    948     1  0.0000000  0.6508444  3
    935    938    947    949     1  0.0000000  0.6508444  3
    936    935    938    947     1  0.0000000  0.6508444  3
    936    935    938    939     1  0.0000000  0.6508444  3
    936    935    938    940     1  0.0000000  0.6508444  3
    937    935    938    947     1  0.0000000  0.6508444  3
    937    935    938    939     1  0.0000000  0.6508444  3
    937    935    938    940     1  0.0000000  0.6508444  3
    939    938    947    956     1  0.0000000  1.0460000  1
    939    938    947    956     1  0.0000000  0.0000000  3
    939    938    947    948     1  0.0000000  0.6508444  3
    939    938    947    949     1  0.0000000  0.6508444  3
    940    938    947    956     1  0.0000000  1.0460000  1
    940    938    947    956     1  0.0000000  0.0000000  3
    940    938    947    948     1  0.0000000  0.6508444  3
    940    938    947    949     1  0.0000000  0.6508444  3
    942    941    953   1971     1  0.0000000  1.0460000  1
    942    941    953   1971     1  0.0000000  0.0000000  3
    942    941    953    954     1  0.0000000  0.6508444  3
    942    941    953    955     1  0.0000000  0.6508444  3
    943    941    953   1971     1  0.0000000  1.0460000  1
    943    941    953   1971     1  0.0000000  0.0000000  3
    943    941    953    954     1  0.0000000  0.6508444  3
    943    941    953    955     1  0.0000000  0.6508444  3
    945    944    950   1942     1  0.0000000  1.0460000  1
    945    944    950   1942     1  0.0000000  0.0000000  3
    945    944    950    951     1  0.0000000  0.6508444  3
    945    944    950    952     1  0.0000000  0.6508444  3
    946    944    950   1942     1  0.0000000  1.0460000  1
    946    944    950   1942     1  0.0000000  0.0000000  3
    946    944    950    951     1  0.0000000  0.6508444  3
    946    944    950    952     1  0.0000000  0.6508444  3
    950   1942   1933   1934     1  0.0000000  1.6038667  3
    950   1942   1933   1935     1  0.0000000  1.6038667  3
    951    950   1942   1933     1  0.0000000  1.6038667  3
    952    950   1942   1933     1  0.0000000  1.6038667  3
    953   1971   1962   1963     1  0.0000000  1.6038667  3
    953   1971   1962   1964     1  0.0000000  1.6038667  3
    954    953   1971   1962     1  0.0000000  1.6038667  3
    955    953   1971   1962     1  0.0000000  1.6038667  3
    957    958    970    971     1  0.0000000  0.6508444  3
    957    958    970    972     1  0.0000000  0.6508444  3
    957    961    973    974     1  0.0000000  0.6508444  3
    957    961    973    975     1  0.0000000  0.6508444  3
    957    964    967    968     1  0.0000000  0.6508444  3
    957    964    967    969     1  0.0000000  0.6508444  3
    958    957    961    962     1  0.0000000  1.2552000  3
    958    957    961    963     1  0.0000000  1.2552000  3
    958    957    964    965     1  0.0000000  1.2552000  3
    958    957    964    966     1  0.0000000  1.2552000  3
    958    970    982    983     1  0.0000000  0.6508444  3
    958    970    982    984     1  0.0000000  0.6508444  3
    959    958    957    961     1  0.0000000  1.2552000  3
    959    958    957    964     1  0.0000000  1.2552000  3
    959    958    970    982     1  0.0000000  0.6508444  3
    959    958    970    971     1  0.0000000  0.6508444  3
    959    958    970    972     1  0.0000000  0.6508444  3
    960    958    957    961     1  0.0000000  1.2552000  3
    960    958    957    964     1  0.0000000  1.2552000  3
    960    958    970    982     1  0.0000000  0.6508444  3
    960    958    970    971     1  0.0000000  0.6508444  3
    960    958    970    972     1  0.0000000  0.6508444  3
    961    957    964    965     1  0.0000000  1.2552000  3
    961    957    964    966     1  0.0000000  1.2552000  3
    961    973    979    980     1  0.0000000  0.6508444  3
    961    973    979    981     1  0.0000000  0.6508444  3
    962    961    957    964     1  0.0000000  1.2552000  3
    962    961    973    979     1  0.0000000  0.6508444  3
    962    961    973    974     1  0.0000000  0.6508444  3
    962    961    973    975     1  0.0000000  0.6508444  3
    963    961    957    964     1  0.0000000  1.2552000  3
    963    961    973    979     1  0.0000000  0.6508444  3
    963    961    973    974     1  0.0000000  0.6508444  3
    963    961    973    975     1  0.0000000  0.6508444  3
    964    967    976    977     1  0.0000000  0.6508444  3
    964    967    976    978     1  0.0000000  0.6508444  3
    965    964    967    976     1  0.0000000  0.6508444  3
    965    964    967    968     1  0.0000000  0.6508444  3
    965    964    967    969     1  0.0000000  0.6508444  3
    966    964    967    976     1  0.0000000  0.6508444  3
    966    964    967    968     1  0.0000000  0.6508444  3
    966    964    967    969     1  0.0000000  0.6508444  3
    968    967    976    985     1  0.0000000  1.0460000  1
    968    967    976    985     1  0.0000000  0.0000000  3
    968    967    976    977     1  0.0000000  0.6508444  3
    968    967    976    978     1  0.0000000  0.6508444  3
    969    967    976    985     1  0.0000000  1.0460000  1
    969    967    976    985     1  0.0000000  0.0000000  3
    969    967    976    977     1  0.0000000  0.6508444  3
    969    967    976    978     1  0.0000000  0.6508444  3
    971    970    982   2029     1  0.0000000  1.0460000  1
    971    970    982   2029     1  0.0000000  0.0000000  3
    971    970    982    983     1  0.0000000  0.6508444  3
    971    970    982    984     1  0.0000000  0.6508444  3
    972    970    982   2029     1  0.0000000  1.0460000  1
    972    970    982   2029     1  0.0000000  0.0000000  3
    972    970    982    983     1  0.0000000  0.6508444  3
    972    970    982    984     1  0.0000000  0.6508444  3
    974    973    979   2000     1  0.0000000  1.0460000  1
    974    973    979   2000     1  0.0000000  0.0000000  3
    974    973    979    980     1  0.0000000  0.6508444  3
    974    973    979    981     1  0.0000000  0.6508444  3
    975    973    979   2000     1  0.0000000  1.0460000  1
    975    973    979   2000     1  0.0000000  0.0000000  3
    975    973    979    980     1  0.0000000  0.6508444  3
    975    973    979    981     1  0.0000000  0.6508444  3
    979   2000   1991   1992     1  0.0000000  1.6038667  3
    979   2000   1991   1993     1  0.0000000  1.6038667  3
    980    979   2000   1991     1  0.0000000  1.6038667  3
    981    979   2000   1991     1  0.0000000  1.6038667  3
    982   2029   2020   2021     1  0.0000000  1.6038667  3
    982   2029   2020   2022     1  0.0000000  1.6038667  3
    983    982   2029   2020     1  0.0000000  1.6038667  3
    984    982   2029   2020     1  0.0000000  1.6038667  3
    986    987    999   1000     1  0.0000000  0.6508444  3
    986    987    999   1001     1  0.0000000  0.6508444  3
    986    990   1002   1003     1  0.0000000  0.6508444  3
    986    990   1002   1004     1  0.0000000  0.6508444  3
    986    993    996    997     1  0.0000000  0.6508444  3
    986    993    996    998     1  0.0000000  0.6508444  3
    987    986    990    991     1  0.0000000  1.2552000  3
    987    986    990    992     1  0.0000000  1.2552000  3
    987    986    993    994     1  0.0000000  1.2552000  3
    987    986    993    995     1  0.0000000  1.2552000  3
    987    999   1011   1012     1  0.0000000  0.6508444  3
    987    999   1011   1013     1  0.0000000  0.6508444  3
    988    987    986    990     1  0.0000000  1.2552000  3
    988    987    986    993     1  0.0000000  1.2552000  3
    988    987    999   1011     1  0.0000000  0.6508444  3
    988    987    999   1000     1  0.0000000  0.6508444  3
    988    987    999   1001     1  0.0000000  0.6508444  3
    989    987    986    990     1  0.0000000  1.2552000  3
    989    987    986    993     1  0.0000000  1.2552000  3
    989    987    999   1011     1  0.0000000  0.6508444  3
    989    987    999   1000     1  0.0000000  0.6508444  3
    989    987    999   1001     1  0.0000000  0.6508444  3
    990    986    993    994     1  0.0000000  1.2552000  3
    990    986    993    995     1  0.0000000  1.2552000  3
    990   1002   1008   1009     1  0.0000000  0.6508444  3
    990   1002   1008   1010     1  0.0000000  0.6508444  3
    991    990    986    993     1  0.0000000  1.2552000  3
    991    990   1002   1008     1  0.0000000  0.6508444  3
    991    990   1002   1003     1  0.0000000  0.6508444  3
    991    990   1002   1004     1  0.0000000  0.6508444  3
    992    990    986    993     1  0.0000000  1.2552000  3
    992    990   1002   1008     1  0.0000000  0.6508444  3
    992    990   1002   1003     1  0.0000000  0.6508444  3
    992    990   1002   1004     1  0.0000000  0.6508444  3
    993    996   1005   1006     1  0.0000000  0.6508444  3
    993    996   1005   1007     1  0.0000000  0.6508444  3
    994    993    996   1005     1  0.0000000  0.6508444  3
    994    993    996    997     1  0.0000000  0.6508444  3
    994    993    996    998     1  0.0000000  0.6508444  3
    995    993    996   1005     1  0.0000000  0.6508444  3
    995    993    996    997     1  0.0000000  0.6508444  3
    995    993    996    998     1  0.0000000  0.6508444  3
    997    996   1005   1014     1  0.0000000  1.0460000  1
    997    996   1005   1014     1  0.0000000  0.0000000  3
    997    996   1005   1006     1  0.0000000  0.6508444  3
    997    996   1005   1007     1  0.0000000  0.6508444  3
    998    996   1005   1014     1  0.0000000  1.0460000  1
    998    996   1005   1014     1  0.0000000  0.0000000  3
    998    996   1005   1006     1  0.0000000  0.6508444  3
    998    996   1005   1007     1  0.0000000  0.6508444  3
   1000    999   1011   2087     1  0.0000000  1.0460000  1
   1000    999   1011   2087     1  0.0000000  0.0000000  3
   1000    999   1011   1012     1  0.0000000  0.6508444  3
   1000    999   1011   1013     1  0.0000000  0.6508444  3
   1001    999   1011   2087     1  0.0000000  1.0460000  1
   1001    999   1011   2087     1  0.0000000  0.0000000  3
   1001    999   1011   1012     1  0.0000000  0.6508444  3
   1001    999   1011   1013     1  0.0000000  0.6508444  3
   1003   1002   1008   2058     1  0.0000000  1.0460000  1
   1003   1002   1008   2058     1  0.0000000  0.0000000  3
   1003   1002   1008   1009     1  0.0000000  0.6508444  3
   1003   1002   1008   1010     1  0.0000000  0.6508444  3
   1004   1002   1008   2058     1  0.0000000  1.0460000  1
   1004   1002   1008   2058     1  0.0000000  0.0000000  3
   1004   1002   1008   1009     1  0.0000000  0.6508444  3
   1004   1002   1008   1010     1  0.0000000  0.6508444  3
   1008   2058   2049   2050     1  0.0000000  1.6038667  3
   1008   2058   2049   2051     1  0.0000000  1.6038667  3
   1009   1008   2058   2049     1  0.0000000  1.6038667  3
   1010   1008   2058   2049     1  0.0000000  1.6038667  3
   1011   2087   2078   2079     1  0.0000000  1.6038667  3
   1011   2087   2078   2080     1  0.0000000  1.6038667  3
   1012   1011   2087   2078     1  0.0000000  1.6038667  3
   1013   1011   2087   2078     1  0.0000000  1.6038667  3
   1015   1016   1028   1029     1  0.0000000  0.6508444  3
   1015   1016   1028   1030     1  0.0000000  0.6508444  3
   1015   1019   1031   1032     1  0.0000000  0.6508444  3
   1015   1019   1031   1033     1  0.0000000  0.6508444  3
   1015   1022   1025   1026     1  0.0000000  0.6508444  3
   1015   1022   1025   1027     1  0.0000000  0.6508444  3
   1016   1015   1019   1020     1  0.0000000  1.2552000  3
   1016   1015   1019   1021     1  0.0000000  1.2552000  3
   1016   1015   1022   1023     1  0.0000000  1.2552000  3
   1016   1015   1022   1024     1  0.0000000  1.2552000  3
   1016   1028   1040   1041     1  0.0000000  0.6508444  3
   1016   1028   1040   1042     1  0.0000000  0.6508444  3
   1017   1016   1015   1019     1  0.0000000  1.2552000  3
   1017   1016   1015   1022     1  0.0000000  1.2552000  3
   1017   1016   1028   1040     1  0.0000000  0.6508444  3
   1017   1016   1028   1029     1  0.0000000  0.6508444  3
   1017   1016   1028   1030     1  0.0000000  0.6508444  3
   1018   1016   1015   1019     1  0.0000000  1.2552000  3
   1018   1016   1015   1022     1  0.0000000  1.2552000  3
   1018   1016   1028   1040     1  0.0000000  0.6508444  3
   1018   1016   1028   1029     1  0.0000000  0.6508444  3
   1018   1016   1028   1030     1  0.0000000  0.6508444  3
   1019   1015   1022   1023     1  0.0000000  1.2552000  3
   1019   1015   1022   1024     1  0.0000000  1.2552000  3
   1019   1031   1037   1038     1  0.0000000  0.6508444  3
   1019   1031   1037   1039     1  0.0000000  0.6508444  3
   1020   1019   1015   1022     1  0.0000000  1.2552000  3
   1020   1019   1031   1037     1  0.0000000  0.6508444  3
   1020   1019   1031   1032     1  0.0000000  0.6508444  3
   1020   1019   1031   1033     1  0.0000000  0.6508444  3
   1021   1019   1015   1022     1  0.0000000  1.2552000  3
   1021   1019   1031   1037     1  0.0000000  0.6508444  3
   1021   1019   1031   1032     1  0.0000000  0.6508444  3
   1021   1019   1031   1033     1  0.0000000  0.6508444  3
   1022   1025   1034   1035     1  0.0000000  0.6508444  3
   1022   1025   1034   1036     1  0.0000000  0.6508444  3
   1023   1022   1025   1034     1  0.0000000  0.6508444  3
   1023   1022   1025   1026     1  0.0000000  0.6508444  3
   1023   1022   1025   1027     1  0.0000000  0.6508444  3
   1024   1022   1025   1034     1  0.0000000  0.6508444  3
   1024   1022   1025   1026     1  0.0000000  0.6508444  3
   1024   1022   1025   1027     1  0.0000000  0.6508444  3
   1026   1025   1034   1043     1  0.0000000  1.0460000  1
   1026   1025   1034   1043     1  0.0000000  0.0000000  3
   1026   1025   1034   1035     1  0.0000000  0.6508444  3
   1026   1025   1034   1036     1  0.0000000  0.6508444  3
   1027   1025   1034   1043     1  0.0000000  1.0460000  1
   1027   1025   1034   1043     1  0.0000000  0.0000000  3
   1027   1025   1034   1035     1  0.0000000  0.6508444  3
   1027   1025   1034   1036     1  0.0000000  0.6508444  3
   1029   1028   1040   2145     1  0.0000000  1.0460000  1
   1029   1028   1040   2145     1  0.0000000  0.0000000  3
   1029   1028   1040   1041     1  0.0000000  0.6508444  3
   1029   1028   1040   1042     1  0.0000000  0.6508444  3
   1030   1028   1040   2145     1  0.0000000  1.0460000  1
   1030   1028   1040   2145     1  0.0000000  0.0000000  3
   1030   1028   1040   1041     1  0.0000000  0.6508444  3
   1030   1028   1040   1042     1  0.0000000  0.6508444  3
   1032   1031   1037   2116     1  0.0000000  1.0460000  1
   1032   1031   1037   2116     1  0.0000000  0.0000000  3
   1032   1031   1037   1038     1  0.0000000  0.6508444  3
   1032   1031   1037   1039     1  0.0000000  0.6508444  3
   1033   1031   1037   2116     1  0.0000000  1.0460000  1
   1033   1031   1037   2116     1  0.0000000  0.0000000  3
   1033   1031   1037   1038     1  0.0000000  0.6508444  3
   1033   1031   1037   1039     1  0.0000000  0.6508444  3
   1037   2116   2107   2108     1  0.0000000  1.6038667  3
   1037   2116   2107   2109     1  0.0000000  1.6038667  3
   1038   1037   2116   2107     1  0.0000000  1.6038667  3
   1039   1037   2116   2107     1  0.0000000  1.6038667  3
   1040   2145   2136   2137     1  0.0000000  1.6038667  3
   1040   2145   2136   2138     1  0.0000000  1.6038667  3
   1041   1040   2145   2136     1  0.0000000  1.6038667  3
   1042   1040   2145   2136     1  0.0000000  1.6038667  3
   1044   1045   1057   1058     1  0.0000000  0.6508444  3
   1044   1045   1057   1059     1  0.0000000  0.6508444  3
   1044   1048   1060   1061     1  0.0000000  0.6508444  3
   1044   1048   1060   1062     1  0.0000000  0.6508444  3
   1044   1051   1054   1055     1  0.0000000  0.6508444  3
   1044   1051   1054   1056     1  0.0000000  0.6508444  3
   1045   1044   1048   1049     1  0.0000000  1.2552000  3
   1045   1044   1048   1050     1  0.0000000  1.2552000  3
   1045   1044   1051   1052     1  0.0000000  1.2552000  3
   1045   1044   1051   1053     1  0.0000000  1.2552000  3
   1045   1057   1069   1070     1  0.0000000  0.6508444  3
   1045   1057   1069   1071     1  0.0000000  0.6508444  3
   1046   1045   1044   1048     1  0.0000000  1.2552000  3
   1046   1045   1044   1051     1  0.0000000  1.2552000  3
   1046   1045   1057   1069     1  0.0000000  0.6508444  3
   1046   1045   1057   1058     1  0.0000000  0.6508444  3
   1046   1045   1057   1059     1  0.0000000  0.6508444  3
   1047   1045   1044   1048     1  0.0000000  1.2552000  3
   1047   1045   1044   1051     1  0.0000000  1.2552000  3
   1047   1045   1057   1069     1  0.0000000  0.6508444  3
   1047   1045   1057   1058     1  0.0000000  0.6508444  3
   1047   1045   1057   1059     1  0.0000000  0.6508444  3
   1048   1044   1051   1052     1  0.0000000  1.2552000  3
   1048   1044   1051   1053     1  0.0000000  1.2552000  3
   1048   1060   1066   1067     1  0.0000000  0.6508444  3
   1048   1060   1066   1068     1  0.0000000  0.6508444  3
   1049   1048   1044   1051     1  0.0000000  1.2552000  3
   1049   1048   1060   1066     1  0.0000000  0.6508444  3
   1049   1048   1060   1061     1  0.0000000  0.6508444  3
   1049   1048   1060   1062     1  0.0000000  0.6508444  3
   1050   1048   1044   1051     1  0.0000000  1.2552000  3
   1050   1048   1060   1066     1  0.0000000  0.6508444  3
   1050   1048   1060   1061     1  0.0000000  0.6508444  3
   1050   1048   1060   1062     1  0.0000000  0.6508444  3
   1051   1054   1063   1064     1  0.0000000  0.6508444  3
   1051   1054   1063   1065     1  0.0000000  0.6508444  3
   1052   1051   1054   1063     1  0.0000000  0.6508444  3
   1052   1051   1054   1055     1  0.0000000  0.6508444  3
   1052   1051   1054   1056     1  0.0000000  0.6508444  3
   1053   1051   1054   1063     1  0.0000000  0.6508444  3
   1053   1051   1054   1055     1  0.0000000  0.6508444  3
   1053   1051   1054   1056     1  0.0000000  0.6508444  3
   1055   1054   1063   1072     1  0.0000000  1.0460000  1
   1055   1054   1063   1072     1  0.0000000  0.0000000  3
   1055   1054   1063   1064     1  0.0000000  0.6508444  3
   1055   1054   1063   1065     1  0.0000000  0.6508444  3
   1056   1054   1063   1072     1  0.0000000  1.0460000  1
   1056   1054   1063   1072     1  0.0000000  0.0000000  3
   1056   1054   1063   1064     1  0.0000000  0.6508444  3
   1056   1054   1063   1065     1  0.0000000  0.6508444  3
   1058   1057   1069   2203     1  0.0000000  1.0460000  1
   1058   1057   1069   2203     1  0.0000000  0.0000000  3
   1058   1057   1069   1070     1  0.0000000  0.6508444  3
   1058   1057   1069   1071     1  0.0000000  0.6508444  3
   1059   1057   1069   2203     1  0.0000000  1.0460000  1
   1059   1057   1069   2203     1  0.0000000  0.0000000  3
   1059   1057   1069   1070     1  0.0000000  0.6508444  3
   1059   1057   1069   1071     1  0.0000000  0.6508444  3
   1061   1060   1066   2174     1  0.0000000  1.0460000  1
   1061   1060   1066   2174     1  0.0000000  0.0000000  3
   1061   1060   1066   1067     1  0.0000000  0.6508444  3
   1061   1060   1066   1068     1  0.0000000  0.6508444  3
   1062   1060   1066   2174     1  0.0000000  1.0460000  1
   1062   1060   1066   2174     1  0.0000000  0.0000000  3
   1062   1060   1066   1067     1  0.0000000  0.6508444  3
   1062   1060   1066   1068     1  0.0000000  0.6508444  3
   1066   2174   2165   2166     1  0.0000000  1.6038667  3
   1066   2174   2165   2167     1  0.0000000  1.6038667  3
   1067   1066   2174   2165     1  0.0000000  1.6038667  3
   1068   1066   2174   2165     1  0.0000000  1.6038667  3
   1069   2203   2194   2195     1  0.0000000  1.6038667  3
   1069   2203   2194   2196     1  0.0000000  1.6038667  3
   1070   1069   2203   2194     1  0.0000000  1.6038667  3
   1071   1069   2203   2194     1  0.0000000  1.6038667  3
   1073   1074   1086   1087     1  0.0000000  0.6508444  3
   1073   1074   1086   1088     1  0.0000000  0.6508444  3
   1073   1077   1089   1090     1  0.0000000  0.6508444  3
   1073   1077   1089   1091     1  0.0000000  0.6508444  3
   1073   1080   1083   1084     1  0.0000000  0.6508444  3
   1073   1080   1083   1085     1  0.0000000  0.6508444  3
   1074   1073   1077   1078     1  0.0000000  1.2552000  3
   1074   1073   1077   1079     1  0.0000000  1.2552000  3
   1074   1073   1080   1081     1  0.0000000  1.2552000  3
   1074   1073   1080   1082     1  0.0000000  1.2552000  3
   1074   1086   1098   1099     1  0.0000000  0.6508444  3
   1074   1086   1098   1100     1  0.0000000  0.6508444  3
   1075   1074   1073   1077     1  0.0000000  1.2552000  3
   1075   1074   1073   1080     1  0.0000000  1.2552000  3
   1075   1074   1086   1098     1  0.0000000  0.6508444  3
   1075   1074   1086   1087     1  0.0000000  0.6508444  3
   1075   1074   1086   1088     1  0.0000000  0.6508444  3
   1076   1074   1073   1077     1  0.0000000  1.2552000  3
   1076   1074   1073   1080     1  0.0000000  1.2552000  3
   1076   1074   1086   1098     1  0.0000000  0.6508444  3
   1076   1074   1086   1087     1  0.0000000  0.6508444  3
   1076   1074   1086   1088     1  0.0000000  0.6508444  3
   1077   1073   1080   1081     1  0.0000000  1.2552000  3
   1077   1073   1080   1082     1  0.0000000  1.2552000  3
   1077   1089   1095   1096     1  0.0000000  0.6508444  3
   1077   1089   1095   1097     1  0.0000000  0.6508444  3
   1078   1077   1073   1080     1  0.0000000  1.2552000  3
   1078   1077   1089   1095     1  0.0000000  0.6508444  3
   1078   1077   1089   1090     1  0.0000000  0.6508444  3
   1078   1077   1089   1091     1  0.0000000  0.6508444  3
   1079   1077   1073   1080     1  0.0000000  1.2552000  3
   1079   1077   1089   1095     1  0.0000000  0.6508444  3
   1079   1077   1089   1090     1  0.0000000  0.6508444  3
   1079   1077   1089   1091     1  0.0000000  0.6508444  3
   1080   1083   1092   1093     1  0.0000000  0.6508444  3
   1080   1083   1092   1094     1  0.0000000  0.6508444  3
   1081   1080   1083   1092     1  0.0000000  0.6508444  3
   1081   1080   1083   1084     1  0.0000000  0.6508444  3
   1081   1080   1083   1085     1  0.0000000  0.6508444  3
   1082   1080   1083   1092     1  0.0000000  0.6508444  3
   1082   1080   1083   1084     1  0.0000000  0.6508444  3
   1082   1080   1083   1085     1  0.0000000  0.6508444  3
   1084   1083   1092   1101     1  0.0000000  1.0460000  1
   1084   1083   1092   1101     1  0.0000000  0.0000000  3
   1084   1083   1092   1093     1  0.0000000  0.6508444  3
   1084   1083   1092   1094     1  0.0000000  0.6508444  3
   1085   1083   1092   1101     1  0.0000000  1.0460000  1
   1085   1083   1092   1101     1  0.0000000  0.0000000  3
   1085   1083   1092   1093     1  0.0000000  0.6508444  3
   1085   1083   1092   1094     1  0.0000000  0.6508444  3
   1087   1086   1098   2261     1  0.0000000  1.0460000  1
   1087   1086   1098   2261     1  0.0000000  0.0000000  3
   1087   1086   1098   1099     1  0.0000000  0.6508444  3
   1087   1086   1098   1100     1  0.0000000  0.6508444  3
   1088   1086   1098   2261     1  0.0000000  1.0460000  1
   1088   1086   1098   2261     1  0.0000000  0.0000000  3
   1088   1086   1098   1099     1  0.0000000  0.6508444  3
   1088   1086   1098   1100     1  0.0000000  0.6508444  3
   1090   1089   1095   2232     1  0.0000000  1.0460000  1
   1090   1089   1095   2232     1  0.0000000  0.0000000  3
   1090   1089   1095   1096     1  0.0000000  0.6508444  3
   1090   1089   1095   1097     1  0.0000000  0.6508444  3
   1091   1089   1095   2232     1  0.0000000  1.0460000  1
   1091   1089   1095   2232     1  0.0000000  0.0000000  3
   1091   1089   1095   1096     1  0.0000000  0.6508444  3
   1091   1089   1095   1097     1  0.0000000  0.6508444  3
   1095   2232   2223   2224     1  0.0000000  1.6038667  3
   1095   2232   2223   2225     1  0.0000000  1.6038667  3
   1096   1095   2232   2223     1  0.0000000  1.6038667  3
   1097   1095   2232   2223     1  0.0000000  1.6038667  3
   1098   2261   2252   2253     1  0.0000000  1.6038667  3
   1098   2261   2252   2254     1  0.0000000  1.6038667  3
   1099   1098   2261   2252     1  0.0000000  1.6038667  3
   1100   1098   2261   2252     1  0.0000000  1.6038667  3
   1102   1103   1115   1116     1  0.0000000  0.6508444  3
   1102   1103   1115   1117     1  0.0000000  0.6508444  3
   1102   1106   1118   1119     1  0.0000000  0.6508444  3
   1102   1106   1118   1120     1  0.0000000  0.6508444  3
   1102   1109   1112   1113     1  0.0000000  0.6508444  3
   1102   1109   1112   1114     1  0.0000000  0.6508444  3
   1103   1102   1106   1107     1  0.0000000  1.2552000  3
   1103   1102   1106   1108     1  0.0000000  1.2552000  3
   1103   1102   1109   1110     1  0.0000000  1.2552000  3
   1103   1102   1109   1111     1  0.0000000  1.2552000  3
   1103   1115   1127   1128     1  0.0000000  0.6508444  3
   1103   1115   1127   1129     1  0.0000000  0.6508444  3
   1104   1103   1102   1106     1  0.0000000  1.2552000  3
   1104   1103   1102   1109     1  0.0000000  1.2552000  3
   1104   1103   1115   1127     1  0.0000000  0.6508444  3
   1104   1103   1115   1116     1  0.0000000  0.6508444  3
   1104   1103   1115   1117     1  0.0000000  0.6508444  3
   1105   1103   1102   1106     1  0.0000000  1.2552000  3
   1105   1103   1102   1109     1  0.0000000  1.2552000  3
   1105   1103   1115   1127     1  0.0000000  0.6508444  3
   1105   1103   1115   1116     1  0.0000000  0.6508444  3
   1105   1103   1115   1117     1  0.0000000  0.6508444  3
   1106   1102   1109   1110     1  0.0000000  1.2552000  3
   1106   1102   1109   1111     1  0.0000000  1.2552000  3
   1106   1118   1124   1125     1  0.0000000  0.6508444  3
   1106   1118   1124   1126     1  0.0000000  0.6508444  3
   1107   1106   1102   1109     1  0.0000000  1.2552000  3
   1107   1106   1118   1124     1  0.0000000  0.6508444  3
   1107   1106   1118   1119     1  0.0000000  0.6508444  3
   1107   1106   1118   1120     1  0.0000000  0.6508444  3
   1108   1106   1102   1109     1  0.0000000  1.2552000  3
   1108   1106   1118   1124     1  0.0000000  0.6508444  3
   1108   1106   1118   1119     1  0.0000000  0.6508444  3
   1108   1106   1118   1120     1  0.0000000  0.6508444  3
   1109   1112   1121   1122     1  0.0000000  0.6508444  3
   1109   1112   1121   1123     1  0.0000000  0.6508444  3
   1110   1109   1112   1121     1  0.0000000  0.6508444  3
   1110   1109   1112   1113     1  0.0000000  0.6508444  3
   1110   1109   1112   1114     1  0.0000000  0.6508444  3
   1111   1109   1112   1121     1  0.0000000  0.6508444  3
   1111   1109   1112   1113     1  0.0000000  0.6508444  3
   1111   1109   1112   1114     1  0.0000000  0.6508444  3
   1113   1112   1121   1130     1  0.0000000  1.0460000  1
   1113   1112   1121   1130     1  0.0000000  0.0000000  3
   1113   1112   1121   1122     1  0.0000000  0.6508444  3
   1113   1112   1121   1123     1  0.0000000  0.6508444  3
   1114   1112   1121   1130     1  0.0000000  1.0460000  1
   1114   1112   1121   1130     1  0.0000000  0.0000000  3
   1114   1112   1121   1122     1  0.0000000  0.6508444  3
   1114   1112   1121   1123     1  0.0000000  0.6508444  3
   1116   1115   1127   2319     1  0.0000000  1.0460000  1
   1116   1115   1127   2319     1  0.0000000  0.0000000  3
   1116   1115   1127   1128     1  0.0000000  0.6508444  3
   1116   1115   1127   1129     1  0.0000000  0.6508444  3
   1117   1115   1127   2319     1  0.0000000  1.0460000  1
   1117   1115   1127   2319     1  0.0000000  0.0000000  3
   1117   1115   1127   1128     1  0.0000000  0.6508444  3
   1117   1115   1127   1129     1  0.0000000  0.6508444  3
   1119   1118   1124   2290     1  0.0000000  1.0460000  1
   1119   1118   1124   2290     1  0.0000000  0.0000000  3
   1119   1118   1124   1125     1  0.0000000  0.6508444  3
   1119   1118   1124   1126     1  0.0000000  0.6508444  3
   1120   1118   1124   2290     1  0.0000000  1.0460000  1
   1120   1118   1124   2290     1  0.0000000  0.0000000  3
   1120   1118   1124   1125     1  0.0000000  0.6508444  3
   1120   1118   1124   1126     1  0.0000000  0.6508444  3
   1124   2290   2281   2282     1  0.0000000  1.6038667  3
   1124   2290   2281   2283     1  0.0000000  1.6038667  3
   1125   1124   2290   2281     1  0.0000000  1.6038667  3
   1126   1124   2290   2281     1  0.0000000  1.6038667  3
   1127   2319   2310   2311     1  0.0000000  1.6038667  3
   1127   2319   2310   2312     1  0.0000000  1.6038667  3
   1128   1127   2319   2310     1  0.0000000  1.6038667  3
   1129   1127   2319   2310     1  0.0000000  1.6038667  3
   1131   1132   1144   1145     1  0.0000000  0.6508444  3
   1131   1132   1144   1146     1  0.0000000  0.6508444  3
   1131   1135   1147   1148     1  0.0000000  0.6508444  3
   1131   1135   1147   1149     1  0.0000000  0.6508444  3
   1131   1138   1141   1142     1  0.0000000  0.6508444  3
   1131   1138   1141   1143     1  0.0000000  0.6508444  3
   1132   1131   1135   1136     1  0.0000000  1.2552000  3
   1132   1131   1135   1137     1  0.0000000  1.2552000  3
   1132   1131   1138   1139     1  0.0000000  1.2552000  3
   1132   1131   1138   1140     1  0.0000000  1.2552000  3
   1132   1144   1156   1157     1  0.0000000  0.6508444  3
   1132   1144   1156   1158     1  0.0000000  0.6508444  3
   1133   1132   1131   1135     1  0.0000000  1.2552000  3
   1133   1132   1131   1138     1  0.0000000  1.2552000  3
   1133   1132   1144   1156     1  0.0000000  0.6508444  3
   1133   1132   1144   1145     1  0.0000000  0.6508444  3
   1133   1132   1144   1146     1  0.0000000  0.6508444  3
   1134   1132   1131   1135     1  0.0000000  1.2552000  3
   1134   1132   1131   1138     1  0.0000000  1.2552000  3
   1134   1132   1144   1156     1  0.0000000  0.6508444  3
   1134   1132   1144   1145     1  0.0000000  0.6508444  3
   1134   1132   1144   1146     1  0.0000000  0.6508444  3
   1135   1131   1138   1139     1  0.0000000  1.2552000  3
   1135   1131   1138   1140     1  0.0000000  1.2552000  3
   1135   1147   1153   1154     1  0.0000000  0.6508444  3
   1135   1147   1153   1155     1  0.0000000  0.6508444  3
   1136   1135   1131   1138     1  0.0000000  1.2552000  3
   1136   1135   1147   1153     1  0.0000000  0.6508444  3
   1136   1135   1147   1148     1  0.0000000  0.6508444  3
   1136   1135   1147   1149     1  0.0000000  0.6508444  3
   1137   1135   1131   1138     1  0.0000000  1.2552000  3
   1137   1135   1147   1153     1  0.0000000  0.6508444  3
   1137   1135   1147   1148     1  0.0000000  0.6508444  3
   1137   1135   1147   1149     1  0.0000000  0.6508444  3
   1138   1141   1150   1151     1  0.0000000  0.6508444  3
   1138   1141   1150   1152     1  0.0000000  0.6508444  3
   1139   1138   1141   1150     1  0.0000000  0.6508444  3
   1139   1138   1141   1142     1  0.0000000  0.6508444  3
   1139   1138   1141   1143     1  0.0000000  0.6508444  3
   1140   1138   1141   1150     1  0.0000000  0.6508444  3
   1140   1138   1141   1142     1  0.0000000  0.6508444  3
   1140   1138   1141   1143     1  0.0000000  0.6508444  3
   1142   1141   1150   1159     1  0.0000000  1.0460000  1
   1142   1141   1150   1159     1  0.0000000  0.0000000  3
   1142   1141   1150   1151     1  0.0000000  0.6508444  3
   1142   1141   1150   1152     1  0.0000000  0.6508444  3
   1143   1141   1150   1159     1  0.0000000  1.0460000  1
   1143   1141   1150   1159     1  0.0000000  0.0000000  3
   1143   1141   1150   1151     1  0.0000000  0.6508444  3
   1143   1141   1150   1152     1  0.0000000  0.6508444  3
   1145   1144   1156   2377     1  0.0000000  1.0460000  1
   1145   1144   1156   2377     1  0.0000000  0.0000000  3
   1145   1144   1156   1157     1  0.0000000  0.6508444  3
   1145   1144   1156   1158     1  0.0000000  0.6508444  3
   1146   1144   1156   2377     1  0.0000000  1.0460000  1
   1146   1144   1156   2377     1  0.0000000  0.0000000  3
   1146   1144   1156   1157     1  0.0000000  0.6508444  3
   1146   1144   1156   1158     1  0.0000000  0.6508444  3
   1148   1147   1153   2348     1  0.0000000  1.0460000  1
   1148   1147   1153   2348     1  0.0000000  0.0000000  3
   1148   1147   1153   1154     1  0.0000000  0.6508444  3
   1148   1147   1153   1155     1  0.0000000  0.6508444  3
   1149   1147   1153   2348     1  0.0000000  1.0460000  1
   1149   1147   1153   2348     1  0.0000000  0.0000000  3
   1149   1147   1153   1154     1  0.0000000  0.6508444  3
   1149   1147   1153   1155     1  0.0000000  0.6508444  3
   1153   2348   2339   2340     1  0.0000000  1.6038667  3
   1153   2348   2339   2341     1  0.0000000  1.6038667  3
   1154   1153   2348   2339     1  0.0000000  1.6038667  3
   1155   1153   2348   2339     1  0.0000000  1.6038667  3
   1156   2377   2368   2369     1  0.0000000  1.6038667  3
   1156   2377   2368   2370     1  0.0000000  1.6038667  3
   1157   1156   2377   2368     1  0.0000000  1.6038667  3
   1158   1156   2377   2368     1  0.0000000  1.6038667  3
   1160   1161   1173   1174     1  0.0000000  0.6508444  3
   1160   1161   1173   1175     1  0.0000000  0.6508444  3
   1160   1164   1176   1177     1  0.0000000  0.6508444  3
   1160   1164   1176   1178     1  0.0000000  0.6508444  3
   1160   1167   1170   1171     1  0.0000000  0.6508444  3
   1160   1167   1170   1172     1  0.0000000  0.6508444  3
   1161   1160   1164   1165     1  0.0000000  1.2552000  3
   1161   1160   1164   1166     1  0.0000000  1.2552000  3
   1161   1160   1167   1168     1  0.0000000  1.2552000  3
   1161   1160   1167   1169     1  0.0000000  1.2552000  3
   1161   1173   1185   1186     1  0.0000000  0.6508444  3
   1161   1173   1185   1187     1  0.0000000  0.6508444  3
   1162   1161   1160   1164     1  0.0000000  1.2552000  3
   1162   1161   1160   1167     1  0.0000000  1.2552000  3
   1162   1161   1173   1185     1  0.0000000  0.6508444  3
   1162   1161   1173   1174     1  0.0000000  0.6508444  3
   1162   1161   1173   1175     1  0.0000000  0.6508444  3
   1163   1161   1160   1164     1  0.0000000  1.2552000  3
   1163   1161   1160   1167     1  0.0000000  1.2552000  3
   1163   1161   1173   1185     1  0.0000000  0.6508444  3
   1163   1161   1173   1174     1  0.0000000  0.6508444  3
   1163   1161   1173   1175     1  0.0000000  0.6508444  3
   1164   1160   1167   1168     1  0.0000000  1.2552000  3
   1164   1160   1167   1169     1  0.0000000  1.2552000  3
   1164   1176   1182   1183     1  0.0000000  0.6508444  3
   1164   1176   1182   1184     1  0.0000000  0.6508444  3
   1165   1164   1160   1167     1  0.0000000  1.2552000  3
   1165   1164   1176   1182     1  0.0000000  0.6508444  3
   1165   1164   1176   1177     1  0.0000000  0.6508444  3
   1165   1164   1176   1178     1  0.0000000  0.6508444  3
   1166   1164   1160   1167     1  0.0000000  1.2552000  3
   1166   1164   1176   1182     1  0.0000000  0.6508444  3
   1166   1164   1176   1177     1  0.0000000  0.6508444  3
   1166   1164   1176   1178     1  0.0000000  0.6508444  3
   1167   1170   1179   1180     1  0.0000000  0.6508444  3
   1167   1170   1179   1181     1  0.0000000  0.6508444  3
   1168   1167   1170   1179     1  0.0000000  0.6508444  3
   1168   1167   1170   1171     1  0.0000000  0.6508444  3
   1168   1167   1170   1172     1  0.0000000  0.6508444  3
   1169   1167   1170   1179     1  0.0000000  0.6508444  3
   1169   1167   1170   1171     1  0.0000000  0.6508444  3
   1169   1167   1170   1172     1  0.0000000  0.6508444  3
   1171   1170   1179   1188     1  0.0000000  1.0460000  1
   1171   1170   1179   1188     1  0.0000000  0.0000000  3
   1171   1170   1179   1180     1  0.0000000  0.6508444  3
   1171   1170   1179   1181     1  0.0000000  0.6508444  3
   1172   1170   1179   1188     1  0.0000000  1.0460000  1
   1172   1170   1179   1188     1  0.0000000  0.0000000  3
   1172   1170   1179   1180     1  0.0000000  0.6508444  3
   1172   1170   1179   1181     1  0.0000000  0.6508444  3
   1174   1173   1185   2435     1  0.0000000  1.0460000  1
   1174   1173   1185   2435     1  0.0000000  0.0000000  3
   1174   1173   1185   1186     1  0.0000000  0.6508444  3
   1174   1173   1185   1187     1  0.0000000  0.6508444  3
   1175   1173   1185   2435     1  0.0000000  1.0460000  1
   1175   1173   1185   2435     1  0.0000000  0.0000000  3
   1175   1173   1185   1186     1  0.0000000  0.6508444  3
   1175   1173   1185   1187     1  0.0000000  0.6508444  3
   1177   1176   1182   2406     1  0.0000000  1.0460000  1
   1177   1176   1182   2406     1  0.0000000  0.0000000  3
   1177   1176   1182   1183     1  0.0000000  0.6508444  3
   1177   1176   1182   1184     1  0.0000000  0.6508444  3
   1178   1176   1182   2406     1  0.0000000  1.0460000  1
   1178   1176   1182   2406     1  0.0000000  0.0000000  3
   1178   1176   1182   1183     1  0.0000000  0.6508444  3
   1178   1176   1182   1184     1  0.0000000  0.6508444  3
   1182   2406   2397   2398     1  0.0000000  1.6038667  3
   1182   2406   2397   2399     1  0.0000000  1.6038667  3
   1183   1182   2406   2397     1  0.0000000  1.6038667  3
   1184   1182   2406   2397     1  0.0000000  1.6038667  3
   1185   2435   2426   2427     1  0.0000000  1.6038667  3
   1185   2435   2426   2428     1  0.0000000  1.6038667  3
   1186   1185   2435   2426     1  0.0000000  1.6038667  3
   1187   1185   2435   2426     1  0.0000000  1.6038667  3
   1189   1190   1202   1203     1  0.0000000  0.6508444  3
   1189   1190   1202   1204     1  0.0000000  0.6508444  3
   1189   1193   1205   1206     1  0.0000000  0.6508444  3
   1189   1193   1205   1207     1  0.0000000  0.6508444  3
   1189   1196   1199   1200     1  0.0000000  0.6508444  3
   1189   1196   1199   1201     1  0.0000000  0.6508444  3
   1190   1189   1193   1194     1  0.0000000  1.2552000  3
   1190   1189   1193   1195     1  0.0000000  1.2552000  3
   1190   1189   1196   1197     1  0.0000000  1.2552000  3
   1190   1189   1196   1198     1  0.0000000  1.2552000  3
   1190   1202   1214   1215     1  0.0000000  0.6508444  3
   1190   1202   1214   1216     1  0.0000000  0.6508444  3
   1191   1190   1189   1193     1  0.0000000  1.2552000  3
   1191   1190   1189   1196     1  0.0000000  1.2552000  3
   1191   1190   1202   1214     1  0.0000000  0.6508444  3
   1191   1190   1202   1203     1  0.0000000  0.6508444  3
   1191   1190   1202   1204     1  0.0000000  0.6508444  3
   1192   1190   1189   1193     1  0.0000000  1.2552000  3
   1192   1190   1189   1196     1  0.0000000  1.2552000  3
   1192   1190   1202   1214     1  0.0000000  0.6508444  3
   1192   1190   1202   1203     1  0.0000000  0.6508444  3
   1192   1190   1202   1204     1  0.0000000  0.6508444  3
   1193   1189   1196   1197     1  0.0000000  1.2552000  3
   1193   1189   1196   1198     1  0.0000000  1.2552000  3
   1193   1205   1211   1212     1  0.0000000  0.6508444  3
   1193   1205   1211   1213     1  0.0000000  0.6508444  3
   1194   1193   1189   1196     1  0.0000000  1.2552000  3
   1194   1193   1205   1211     1  0.0000000  0.6508444  3
   1194   1193   1205   1206     1  0.0000000  0.6508444  3
   1194   1193   1205   1207     1  0.0000000  0.6508444  3
   1195   1193   1189   1196     1  0.0000000  1.2552000  3
   1195   1193   1205   1211     1  0.0000000  0.6508444  3
   1195   1193   1205   1206     1  0.0000000  0.6508444  3
   1195   1193   1205   1207     1  0.0000000  0.6508444  3
   1196   1199   1208   1209     1  0.0000000  0.6508444  3
   1196   1199   1208   1210     1  0.0000000  0.6508444  3
   1197   1196   1199   1208     1  0.0000000  0.6508444  3
   1197   1196   1199   1200     1  0.0000000  0.6508444  3
   1197   1196   1199   1201     1  0.0000000  0.6508444  3
   1198   1196   1199   1208     1  0.0000000  0.6508444  3
   1198   1196   1199   1200     1  0.0000000  0.6508444  3
   1198   1196   1199   1201     1  0.0000000  0.6508444  3
   1200   1199   1208   1217     1  0.0000000  1.0460000  1
   1200   1199   1208   1217     1  0.0000000  0.0000000  3
   1200   1199   1208   1209     1  0.0000000  0.6508444  3
   1200   1199   1208   1210     1  0.0000000  0.6508444  3
   1201   1199   1208   1217     1  0.0000000  1.0460000  1
   1201   1199   1208   1217     1  0.0000000  0.0000000  3
   1201   1199   1208   1209     1  0.0000000  0.6508444  3
   1201   1199   1208   1210     1  0.0000000  0.6508444  3
   1203   1202   1214   2493     1  0.0000000  1.0460000  1
   1203   1202   1214   2493     1  0.0000000  0.0000000  3
   1203   1202   1214   1215     1  0.0000000  0.6508444  3
   1203   1202   1214   1216     1  0.0000000  0.6508444  3
   1204   1202   1214   2493     1  0.0000000  1.0460000  1
   1204   1202   1214   2493     1  0.0000000  0.0000000  3
   1204   1202   1214   1215     1  0.0000000  0.6508444  3
   1204   1202   1214   1216     1  0.0000000  0.6508444  3
   1206   1205   1211   2464     1  0.0000000  1.0460000  1
   1206   1205   1211   2464     1  0.0000000  0.0000000  3
   1206   1205   1211   1212     1  0.0000000  0.6508444  3
   1206   1205   1211   1213     1  0.0000000  0.6508444  3
   1207   1205   1211   2464     1  0.0000000  1.0460000  1
   1207   1205   1211   2464     1  0.0000000  0.0000000  3
   1207   1205   1211   1212     1  0.0000000  0.6508444  3
   1207   1205   1211   1213     1  0.0000000  0.6508444  3
   1211   2464   2455   2456     1  0.0000000  1.6038667  3
   1211   2464   2455   2457     1  0.0000000  1.6038667  3
   1212   1211   2464   2455     1  0.0000000  1.6038667  3
   1213   1211   2464   2455     1  0.0000000  1.6038667  3
   1214   2493   2484   2485     1  0.0000000  1.6038667  3
   1214   2493   2484   2486     1  0.0000000  1.6038667  3
   1215   1214   2493   2484     1  0.0000000  1.6038667  3
   1216   1214   2493   2484     1  0.0000000  1.6038667  3
   1218   1219   1231   1232     1  0.0000000  0.6508444  3
   1218   1219   1231   1233     1  0.0000000  0.6508444  3
   1218   1222   1234   1235     1  0.0000000  0.6508444  3
   1218   1222   1234   1236     1  0.0000000  0.6508444  3
   1218   1225   1228   1229     1  0.0000000  0.6508444  3
   1218   1225   1228   1230     1  0.0000000  0.6508444  3
   1219   1218   1222   1223     1  0.0000000  1.2552000  3
   1219   1218   1222   1224     1  0.0000000  1.2552000  3
   1219   1218   1225   1226     1  0.0000000  1.2552000  3
   1219   1218   1225   1227     1  0.0000000  1.2552000  3
   1219   1231   1243   1244     1  0.0000000  0.6508444  3
   1219   1231   1243   1245     1  0.0000000  0.6508444  3
   1220   1219   1218   1222     1  0.0000000  1.2552000  3
   1220   1219   1218   1225     1  0.0000000  1.2552000  3
   1220   1219   1231   1243     1  0.0000000  0.6508444  3
   1220   1219   1231   1232     1  0.0000000  0.6508444  3
   1220   1219   1231   1233     1  0.0000000  0.6508444  3
   1221   1219   1218   1222     1  0.0000000  1.2552000  3
   1221   1219   1218   1225     1  0.0000000  1.2552000  3
   1221   1219   1231   1243     1  0.0000000  0.6508444  3
   1221   1219   1231   1232     1  0.0000000  0.6508444  3
   1221   1219   1231   1233     1  0.0000000  0.6508444  3
   1222   1218   1225   1226     1  0.0000000  1.2552000  3
   1222   1218   1225   1227     1  0.0000000  1.2552000  3
   1222   1234   1240   1241     1  0.0000000  0.6508444  3
   1222   1234   1240   1242     1  0.0000000  0.6508444  3
   1223   1222   1218   1225     1  0.0000000  1.2552000  3
   1223   1222   1234   1240     1  0.0000000  0.6508444  3
   1223   1222   1234   1235     1  0.0000000  0.6508444  3
   1223   1222   1234   1236     1  0.0000000  0.6508444  3
   1224   1222   1218   1225     1  0.0000000  1.2552000  3
   1224   1222   1234   1240     1  0.0000000  0.6508444  3
   1224   1222   1234   1235     1  0.0000000  0.6508444  3
   1224   1222   1234   1236     1  0.0000000  0.6508444  3
   1225   1228   1237   1238     1  0.0000000  0.6508444  3
   1225   1228   1237   1239     1  0.0000000  0.6508444  3
   1226   1225   1228   1237     1  0.0000000  0.6508444  3
   1226   1225   1228   1229     1  0.0000000  0.6508444  3
   1226   1225   1228   1230     1  0.0000000  0.6508444  3
   1227   1225   1228   1237     1  0.0000000  0.6508444  3
   1227   1225   1228   1229     1  0.0000000  0.6508444  3
   1227   1225   1228   1230     1  0.0000000  0.6508444  3
   1229   1228   1237   1246     1  0.0000000  1.0460000  1
   1229   1228   1237   1246     1  0.0000000  0.0000000  3
   1229   1228   1237   1238     1  0.0000000  0.6508444  3
   1229   1228   1237   1239     1  0.0000000  0.6508444  3
   1230   1228   1237   1246     1  0.0000000  1.0460000  1
   1230   1228   1237   1246     1  0.0000000  0.0000000  3
   1230   1228   1237   1238     1  0.0000000  0.6508444  3
   1230   1228   1237   1239     1  0.0000000  0.6508444  3
   1232   1231   1243   2551     1  0.0000000  1.0460000  1
   1232   1231   1243   2551     1  0.0000000  0.0000000  3
   1232   1231   1243   1244     1  0.0000000  0.6508444  3
   1232   1231   1243   1245     1  0.0000000  0.6508444  3
   1233   1231   1243   2551     1  0.0000000  1.0460000  1
   1233   1231   1243   2551     1  0.0000000  0.0000000  3
   1233   1231   1243   1244     1  0.0000000  0.6508444  3
   1233   1231   1243   1245     1  0.0000000  0.6508444  3
   1235   1234   1240   2522     1  0.0000000  1.0460000  1
   1235   1234   1240   2522     1  0.0000000  0.0000000  3
   1235   1234   1240   1241     1  0.0000000  0.6508444  3
   1235   1234   1240   1242     1  0.0000000  0.6508444  3
   1236   1234   1240   2522     1  0.0000000  1.0460000  1
   1236   1234   1240   2522     1  0.0000000  0.0000000  3
   1236   1234   1240   1241     1  0.0000000  0.6508444  3
   1236   1234   1240   1242     1  0.0000000  0.6508444  3
   1240   2522   2513   2514     1  0.0000000  1.6038667  3
   1240   2522   2513   2515     1  0.0000000  1.6038667  3
   1241   1240   2522   2513     1  0.0000000  1.6038667  3
   1242   1240   2522   2513     1  0.0000000  1.6038667  3
   1243   2551   2542   2543     1  0.0000000  1.6038667  3
   1243   2551   2542   2544     1  0.0000000  1.6038667  3
   1244   1243   2551   2542     1  0.0000000  1.6038667  3
   1245   1243   2551   2542     1  0.0000000  1.6038667  3
   1247   1248   1260   1261     1  0.0000000  0.6508444  3
   1247   1248   1260   1262     1  0.0000000  0.6508444  3
   1247   1251   1263   1264     1  0.0000000  0.6508444  3
   1247   1251   1263   1265     1  0.0000000  0.6508444  3
   1247   1254   1257   1258     1  0.0000000  0.6508444  3
   1247   1254   1257   1259     1  0.0000000  0.6508444  3
   1248   1247   1251   1252     1  0.0000000  1.2552000  3
   1248   1247   1251   1253     1  0.0000000  1.2552000  3
   1248   1247   1254   1255     1  0.0000000  1.2552000  3
   1248   1247   1254   1256     1  0.0000000  1.2552000  3
   1248   1260   1272   1273     1  0.0000000  0.6508444  3
   1248   1260   1272   1274     1  0.0000000  0.6508444  3
   1249   1248   1247   1251     1  0.0000000  1.2552000  3
   1249   1248   1247   1254     1  0.0000000  1.2552000  3
   1249   1248   1260   1272     1  0.0000000  0.6508444  3
   1249   1248   1260   1261     1  0.0000000  0.6508444  3
   1249   1248   1260   1262     1  0.0000000  0.6508444  3
   1250   1248   1247   1251     1  0.0000000  1.2552000  3
   1250   1248   1247   1254     1  0.0000000  1.2552000  3
   1250   1248   1260   1272     1  0.0000000  0.6508444  3
   1250   1248   1260   1261     1  0.0000000  0.6508444  3
   1250   1248   1260   1262     1  0.0000000  0.6508444  3
   1251   1247   1254   1255     1  0.0000000  1.2552000  3
   1251   1247   1254   1256     1  0.0000000  1.2552000  3
   1251   1263   1269   1270     1  0.0000000  0.6508444  3
   1251   1263   1269   1271     1  0.0000000  0.6508444  3
   1252   1251   1247   1254     1  0.0000000  1.2552000  3
   1252   1251   1263   1269     1  0.0000000  0.6508444  3
   1252   1251   1263   1264     1  0.0000000  0.6508444  3
   1252   1251   1263   1265     1  0.0000000  0.6508444  3
   1253   1251   1247   1254     1  0.0000000  1.2552000  3
   1253   1251   1263   1269     1  0.0000000  0.6508444  3
   1253   1251   1263   1264     1  0.0000000  0.6508444  3
   1253   1251   1263   1265     1  0.0000000  0.6508444  3
   1254   1257   1266   1267     1  0.0000000  0.6508444  3
   1254   1257   1266   1268     1  0.0000000  0.6508444  3
   1255   1254   1257   1266     1  0.0000000  0.6508444  3
   1255   1254   1257   1258     1  0.0000000  0.6508444  3
   1255   1254   1257   1259     1  0.0000000  0.6508444  3
   1256   1254   1257   1266     1  0.0000000  0.6508444  3
   1256   1254   1257   1258     1  0.0000000  0.6508444  3
   1256   1254   1257   1259     1  0.0000000  0.6508444  3
   1258   1257   1266   1275     1  0.0000000  1.0460000  1
   1258   1257   1266   1275     1  0.0000000  0.0000000  3
   1258   1257   1266   1267     1  0.0000000  0.6508444  3
   1258   1257   1266   1268     1  0.0000000  0.6508444  3
   1259   1257   1266   1275     1  0.0000000  1.0460000  1
   1259   1257   1266   1275     1  0.0000000  0.0000000  3
   1259   1257   1266   1267     1  0.0000000  0.6508444  3
   1259   1257   1266   1268     1  0.0000000  0.6508444  3
   1261   1260   1272   2609     1  0.0000000  1.0460000  1
   1261   1260   1272   2609     1  0.0000000  0.0000000  3
   1261   1260   1272   1273     1  0.0000000  0.6508444  3
   1261   1260   1272   1274     1  0.0000000  0.6508444  3
   1262   1260   1272   2609     1  0.0000000  1.0460000  1
   1262   1260   1272   2609     1  0.0000000  0.0000000  3
   1262   1260   1272   1273     1  0.0000000  0.6508444  3
   1262   1260   1272   1274     1  0.0000000  0.6508444  3
   1264   1263   1269   2580     1  0.0000000  1.0460000  1
   1264   1263   1269   2580     1  0.0000000  0.0000000  3
   1264   1263   1269   1270     1  0.0000000  0.6508444  3
   1264   1263   1269   1271     1  0.0000000  0.6508444  3
   1265   1263   1269   2580     1  0.0000000  1.0460000  1
   1265   1263   1269   2580     1  0.0000000  0.0000000  3
   1265   1263   1269   1270     1  0.0000000  0.6508444  3
   1265   1263   1269   1271     1  0.0000000  0.6508444  3
   1269   2580   2571   2572     1  0.0000000  1.6038667  3
   1269   2580   2571   2573     1  0.0000000  1.6038667  3
   1270   1269   2580   2571     1  0.0000000  1.6038667  3
   1271   1269   2580   2571     1  0.0000000  1.6038667  3
   1272   2609   2600   2601     1  0.0000000  1.6038667  3
   1272   2609   2600   2602     1  0.0000000  1.6038667  3
   1273   1272   2609   2600     1  0.0000000  1.6038667  3
   1274   1272   2609   2600     1  0.0000000  1.6038667  3
   1276   1277   1289   1290     1  0.0000000  0.6508444  3
   1276   1277   1289   1291     1  0.0000000  0.6508444  3
   1276   1280   1292   1293     1  0.0000000  0.6508444  3
   1276   1280   1292   1294     1  0.0000000  0.6508444  3
   1276   1283   1286   1287     1  0.0000000  0.6508444  3
   1276   1283   1286   1288     1  0.0000000  0.6508444  3
   1277   1276   1280   1281     1  0.0000000  1.2552000  3
   1277   1276   1280   1282     1  0.0000000  1.2552000  3
   1277   1276   1283   1284     1  0.0000000  1.2552000  3
   1277   1276   1283   1285     1  0.0000000  1.2552000  3
   1277   1289   1301   1302     1  0.0000000  0.6508444  3
   1277   1289   1301   1303     1  0.0000000  0.6508444  3
   1278   1277   1276   1280     1  0.0000000  1.2552000  3
   1278   1277   1276   1283     1  0.0000000  1.2552000  3
   1278   1277   1289   1301     1  0.0000000  0.6508444  3
   1278   1277   1289   1290     1  0.0000000  0.6508444  3
   1278   1277   1289   1291     1  0.0000000  0.6508444  3
   1279   1277   1276   1280     1  0.0000000  1.2552000  3
   1279   1277   1276   1283     1  0.0000000  1.2552000  3
   1279   1277   1289   1301     1  0.0000000  0.6508444  3
   1279   1277   1289   1290     1  0.0000000  0.6508444  3
   1279   1277   1289   1291     1  0.0000000  0.6508444  3
   1280   1276   1283   1284     1  0.0000000  1.2552000  3
   1280   1276   1283   1285     1  0.0000000  1.2552000  3
   1280   1292   1298   1299     1  0.0000000  0.6508444  3
   1280   1292   1298   1300     1  0.0000000  0.6508444  3
   1281   1280   1276   1283     1  0.0000000  1.2552000  3
   1281   1280   1292   1298     1  0.0000000  0.6508444  3
   1281   1280   1292   1293     1  0.0000000  0.6508444  3
   1281   1280   1292   1294     1  0.0000000  0.6508444  3
   1282   1280   1276   1283     1  0.0000000  1.2552000  3
   1282   1280   1292   1298     1  0.0000000  0.6508444  3
   1282   1280   1292   1293     1  0.0000000  0.6508444  3
   1282   1280   1292   1294     1  0.0000000  0.6508444  3
   1283   1286   1295   1296     1  0.0000000  0.6508444  3
   1283   1286   1295   1297     1  0.0000000  0.6508444  3
   1284   1283   1286   1295     1  0.0000000  0.6508444  3
   1284   1283   1286   1287     1  0.0000000  0.6508444  3
   1284   1283   1286   1288     1  0.0000000  0.6508444  3
   1285   1283   1286   1295     1  0.0000000  0.6508444  3
   1285   1283   1286   1287     1  0.0000000  0.6508444  3
   1285   1283   1286   1288     1  0.0000000  0.6508444  3
   1287   1286   1295   1304     1  0.0000000  1.0460000  1
   1287   1286   1295   1304     1  0.0000000  0.0000000  3
   1287   1286   1295   1296     1  0.0000000  0.6508444  3
   1287   1286   1295   1297     1  0.0000000  0.6508444  3
   1288   1286   1295   1304     1  0.0000000  1.0460000  1
   1288   1286   1295   1304     1  0.0000000  0.0000000  3
   1288   1286   1295   1296     1  0.0000000  0.6508444  3
   1288   1286   1295   1297     1  0.0000000  0.6508444  3
   1290   1289   1301   2667     1  0.0000000  1.0460000  1
   1290   1289   1301   2667     1  0.0000000  0.0000000  3
   1290   1289   1301   1302     1  0.0000000  0.6508444  3
   1290   1289   1301   1303     1  0.0000000  0.6508444  3
   1291   1289   1301   2667     1  0.0000000  1.0460000  1
   1291   1289   1301   2667     1  0.0000000  0.0000000  3
   1291   1289   1301   1302     1  0.0000000  0.6508444  3
   1291   1289   1301   1303     1  0.0000000  0.6508444  3
   1293   1292   1298   2638     1  0.0000000  1.0460000  1
   1293   1292   1298   2638     1  0.0000000  0.0000000  3
   1293   1292   1298   1299     1  0.0000000  0.6508444  3
   1293   1292   1298   1300     1  0.0000000  0.6508444  3
   1294   1292   1298   2638     1  0.0000000  1.0460000  1
   1294   1292   1298   2638     1  0.0000000  0.0000000  3
   1294   1292   1298   1299     1  0.0000000  0.6508444  3
   1294   1292   1298   1300     1  0.0000000  0.6508444  3
   1298   2638   2629   2630     1  0.0000000  1.6038667  3
   1298   2638   2629   2631     1  0.0000000  1.6038667  3
   1299   1298   2638   2629     1  0.0000000  1.6038667  3
   1300   1298   2638   2629     1  0.0000000  1.6038667  3
   1301   2667   2658   2659     1  0.0000000  1.6038667  3
   1301   2667   2658   2660     1  0.0000000  1.6038667  3
   1302   1301   2667   2658     1  0.0000000  1.6038667  3
   1303   1301   2667   2658     1  0.0000000  1.6038667  3
   1305   1306   1318   1319     1  0.0000000  0.6508444  3
   1305   1306   1318   1320     1  0.0000000  0.6508444  3
   1305   1309   1321   1322     1  0.0000000  0.6508444  3
   1305   1309   1321   1323     1  0.0000000  0.6508444  3
   1305   1312   1315   1316     1  0.0000000  0.6508444  3
   1305   1312   1315   1317     1  0.0000000  0.6508444  3
   1306   1305   1309   1310     1  0.0000000  1.2552000  3
   1306   1305   1309   1311     1  0.0000000  1.2552000  3
   1306   1305   1312   1313     1  0.0000000  1.2552000  3
   1306   1305   1312   1314     1  0.0000000  1.2552000  3
   1306   1318   1330   1331     1  0.0000000  0.6508444  3
   1306   1318   1330   1332     1  0.0000000  0.6508444  3
   1307   1306   1305   1309     1  0.0000000  1.2552000  3
   1307   1306   1305   1312     1  0.0000000  1.2552000  3
   1307   1306   1318   1330     1  0.0000000  0.6508444  3
   1307   1306   1318   1319     1  0.0000000  0.6508444  3
   1307   1306   1318   1320     1  0.0000000  0.6508444  3
   1308   1306   1305   1309     1  0.0000000  1.2552000  3
   1308   1306   1305   1312     1  0.0000000  1.2552000  3
   1308   1306   1318   1330     1  0.0000000  0.6508444  3
   1308   1306   1318   1319     1  0.0000000  0.6508444  3
   1308   1306   1318   1320     1  0.0000000  0.6508444  3
   1309   1305   1312   1313     1  0.0000000  1.2552000  3
   1309   1305   1312   1314     1  0.0000000  1.2552000  3
   1309   1321   1327   1328     1  0.0000000  0.6508444  3
   1309   1321   1327   1329     1  0.0000000  0.6508444  3
   1310   1309   1305   1312     1  0.0000000  1.2552000  3
   1310   1309   1321   1327     1  0.0000000  0.6508444  3
   1310   1309   1321   1322     1  0.0000000  0.6508444  3
   1310   1309   1321   1323     1  0.0000000  0.6508444  3
   1311   1309   1305   1312     1  0.0000000  1.2552000  3
   1311   1309   1321   1327     1  0.0000000  0.6508444  3
   1311   1309   1321   1322     1  0.0000000  0.6508444  3
   1311   1309   1321   1323     1  0.0000000  0.6508444  3
   1312   1315   1324   1325     1  0.0000000  0.6508444  3
   1312   1315   1324   1326     1  0.0000000  0.6508444  3
   1313   1312   1315   1324     1  0.0000000  0.6508444  3
   1313   1312   1315   1316     1  0.0000000  0.6508444  3
   1313   1312   1315   1317     1  0.0000000  0.6508444  3
   1314   1312   1315   1324     1  0.0000000  0.6508444  3
   1314   1312   1315   1316     1  0.0000000  0.6508444  3
   1314   1312   1315   1317     1  0.0000000  0.6508444  3
   1316   1315   1324   1333     1  0.0000000  1.0460000  1
   1316   1315   1324   1333     1  0.0000000  0.0000000  3
   1316   1315   1324   1325     1  0.0000000  0.6508444  3
   1316   1315   1324   1326     1  0.0000000  0.6508444  3
   1317   1315   1324   1333     1  0.0000000  1.0460000  1
   1317   1315   1324   1333     1  0.0000000  0.0000000  3
   1317   1315   1324   1325     1  0.0000000  0.6508444  3
   1317   1315   1324   1326     1  0.0000000  0.6508444  3
   1319   1318   1330   2725     1  0.0000000  1.0460000  1
   1319   1318   1330   2725     1  0.0000000  0.0000000  3
   1319   1318   1330   1331     1  0.0000000  0.6508444  3
   1319   1318   1330   1332     1  0.0000000  0.6508444  3
   1320   1318   1330   2725     1  0.0000000  1.0460000  1
   1320   1318   1330   2725     1  0.0000000  0.0000000  3
   1320   1318   1330   1331     1  0.0000000  0.6508444  3
   1320   1318   1330   1332     1  0.0000000  0.6508444  3
   1322   1321   1327   2696     1  0.0000000  1.0460000  1
   1322   1321   1327   2696     1  0.0000000  0.0000000  3
   1322   1321   1327   1328     1  0.0000000  0.6508444  3
   1322   1321   1327   1329     1  0.0000000  0.6508444  3
   1323   1321   1327   2696     1  0.0000000  1.0460000  1
   1323   1321   1327   2696     1  0.0000000  0.0000000  3
   1323   1321   1327   1328     1  0.0000000  0.6508444  3
   1323   1321   1327   1329     1  0.0000000  0.6508444  3
   1327   2696   2687   2688     1  0.0000000  1.6038667  3
   1327   2696   2687   2689     1  0.0000000  1.6038667  3
   1328   1327   2696   2687     1  0.0000000  1.6038667  3
   1329   1327   2696   2687     1  0.0000000  1.6038667  3
   1330   2725   2716   2717     1  0.0000000  1.6038667  3
   1330   2725   2716   2718     1  0.0000000  1.6038667  3
   1331   1330   2725   2716     1  0.0000000  1.6038667  3
   1332   1330   2725   2716     1  0.0000000  1.6038667  3
   1334   1335   1347   1348     1  0.0000000  0.6508444  3
   1334   1335   1347   1349     1  0.0000000  0.6508444  3
   1334   1338   1350   1351     1  0.0000000  0.6508444  3
   1334   1338   1350   1352     1  0.0000000  0.6508444  3
   1334   1341   1344   1345     1  0.0000000  0.6508444  3
   1334   1341   1344   1346     1  0.0000000  0.6508444  3
   1335   1334   1338   1339     1  0.0000000  1.2552000  3
   1335   1334   1338   1340     1  0.0000000  1.2552000  3
   1335   1334   1341   1342     1  0.0000000  1.2552000  3
   1335   1334   1341   1343     1  0.0000000  1.2552000  3
   1335   1347   1359   1360     1  0.0000000  0.6508444  3
   1335   1347   1359   1361     1  0.0000000  0.6508444  3
   1336   1335   1334   1338     1  0.0000000  1.2552000  3
   1336   1335   1334   1341     1  0.0000000  1.2552000  3
   1336   1335   1347   1359     1  0.0000000  0.6508444  3
   1336   1335   1347   1348     1  0.0000000  0.6508444  3
   1336   1335   1347   1349     1  0.0000000  0.6508444  3
   1337   1335   1334   1338     1  0.0000000  1.2552000  3
   1337   1335   1334   1341     1  0.0000000  1.2552000  3
   1337   1335   1347   1359     1  0.0000000  0.6508444  3
   1337   1335   1347   1348     1  0.0000000  0.6508444  3
   1337   1335   1347   1349     1  0.0000000  0.6508444  3
   1338   1334   1341   1342     1  0.0000000  1.2552000  3
   1338   1334   1341   1343     1  0.0000000  1.2552000  3
   1338   1350   1356   1357     1  0.0000000  0.6508444  3
   1338   1350   1356   1358     1  0.0000000  0.6508444  3
   1339   1338   1334   1341     1  0.0000000  1.2552000  3
   1339   1338   1350   1356     1  0.0000000  0.6508444  3
   1339   1338   1350   1351     1  0.0000000  0.6508444  3
   1339   1338   1350   1352     1  0.0000000  0.6508444  3
   1340   1338   1334   1341     1  0.0000000  1.2552000  3
   1340   1338   1350   1356     1  0.0000000  0.6508444  3
   1340   1338   1350   1351     1  0.0000000  0.6508444  3
   1340   1338   1350   1352     1  0.0000000  0.6508444  3
   1341   1344   1353   1354     1  0.0000000  0.6508444  3
   1341   1344   1353   1355     1  0.0000000  0.6508444  3
   1342   1341   1344   1353     1  0.0000000  0.6508444  3
   1342   1341   1344   1345     1  0.0000000  0.6508444  3
   1342   1341   1344   1346     1  0.0000000  0.6508444  3
   1343   1341   1344   1353     1  0.0000000  0.6508444  3
   1343   1341   1344   1345     1  0.0000000  0.6508444  3
   1343   1341   1344   1346     1  0.0000000  0.6508444  3
   1345   1344   1353   1362     1  0.0000000  1.0460000  1
   1345   1344   1353   1362     1  0.0000000  0.0000000  3
   1345   1344   1353   1354     1  0.0000000  0.6508444  3
   1345   1344   1353   1355     1  0.0000000  0.6508444  3
   1346   1344   1353   1362     1  0.0000000  1.0460000  1
   1346   1344   1353   1362     1  0.0000000  0.0000000  3
   1346   1344   1353   1354     1  0.0000000  0.6508444  3
   1346   1344   1353   1355     1  0.0000000  0.6508444  3
   1348   1347   1359   2783     1  0.0000000  1.0460000  1
   1348   1347   1359   2783     1  0.0000000  0.0000000  3
   1348   1347   1359   1360     1  0.0000000  0.6508444  3
   1348   1347   1359   1361     1  0.0000000  0.6508444  3
   1349   1347   1359   2783     1  0.0000000  1.0460000  1
   1349   1347   1359   2783     1  0.0000000  0.0000000  3
   1349   1347   1359   1360     1  0.0000000  0.6508444  3
   1349   1347   1359   1361     1  0.0000000  0.6508444  3
   1351   1350   1356   2754     1  0.0000000  1.0460000  1
   1351   1350   1356   2754     1  0.0000000  0.0000000  3
   1351   1350   1356   1357     1  0.0000000  0.6508444  3
   1351   1350   1356   1358     1  0.0000000  0.6508444  3
   1352   1350   1356   2754     1  0.0000000  1.0460000  1
   1352   1350   1356   2754     1  0.0000000  0.0000000  3
   1352   1350   1356   1357     1  0.0000000  0.6508444  3
   1352   1350   1356   1358     1  0.0000000  0.6508444  3
   1356   2754   2745   2746     1  0.0000000  1.6038667  3
   1356   2754   2745   2747     1  0.0000000  1.6038667  3
   1357   1356   2754   2745     1  0.0000000  1.6038667  3
   1358   1356   2754   2745     1  0.0000000  1.6038667  3
   1359   2783   2774   2775     1  0.0000000  1.6038667  3
   1359   2783   2774   2776     1  0.0000000  1.6038667  3
   1360   1359   2783   2774     1  0.0000000  1.6038667  3
   1361   1359   2783   2774     1  0.0000000  1.6038667  3
   1363   1364   1376   1377     1  0.0000000  0.6508444  3
   1363   1364   1376   1378     1  0.0000000  0.6508444  3
   1363   1367   1379   1380     1  0.0000000  0.6508444  3
   1363   1367   1379   1381     1  0.0000000  0.6508444  3
   1363   1370   1373   1374     1  0.0000000  0.6508444  3
   1363   1370   1373   1375     1  0.0000000  0.6508444  3
   1364   1363   1367   1368     1  0.0000000  1.2552000  3
   1364   1363   1367   1369     1  0.0000000  1.2552000  3
   1364   1363   1370   1371     1  0.0000000  1.2552000  3
   1364   1363   1370   1372     1  0.0000000  1.2552000  3
   1364   1376   1388   1389     1  0.0000000  0.6508444  3
   1364   1376   1388   1390     1  0.0000000  0.6508444  3
   1365   1364   1363   1367     1  0.0000000  1.2552000  3
   1365   1364   1363   1370     1  0.0000000  1.2552000  3
   1365   1364   1376   1388     1  0.0000000  0.6508444  3
   1365   1364   1376   1377     1  0.0000000  0.6508444  3
   1365   1364   1376   1378     1  0.0000000  0.6508444  3
   1366   1364   1363   1367     1  0.0000000  1.2552000  3
   1366   1364   1363   1370     1  0.0000000  1.2552000  3
   1366   1364   1376   1388     1  0.0000000  0.6508444  3
   1366   1364   1376   1377     1  0.0000000  0.6508444  3
   1366   1364   1376   1378     1  0.0000000  0.6508444  3
   1367   1363   1370   1371     1  0.0000000  1.2552000  3
   1367   1363   1370   1372     1  0.0000000  1.2552000  3
   1367   1379   1385   1386     1  0.0000000  0.6508444  3
   1367   1379   1385   1387     1  0.0000000  0.6508444  3
   1368   1367   1363   1370     1  0.0000000  1.2552000  3
   1368   1367   1379   1385     1  0.0000000  0.6508444  3
   1368   1367   1379   1380     1  0.0000000  0.6508444  3
   1368   1367   1379   1381     1  0.0000000  0.6508444  3
   1369   1367   1363   1370     1  0.0000000  1.2552000  3
   1369   1367   1379   1385     1  0.0000000  0.6508444  3
   1369   1367   1379   1380     1  0.0000000  0.6508444  3
   1369   1367   1379   1381     1  0.0000000  0.6508444  3
   1370   1373   1382   1383     1  0.0000000  0.6508444  3
   1370   1373   1382   1384     1  0.0000000  0.6508444  3
   1371   1370   1373   1382     1  0.0000000  0.6508444  3
   1371   1370   1373   1374     1  0.0000000  0.6508444  3
   1371   1370   1373   1375     1  0.0000000  0.6508444  3
   1372   1370   1373   1382     1  0.0000000  0.6508444  3
   1372   1370   1373   1374     1  0.0000000  0.6508444  3
   1372   1370   1373   1375     1  0.0000000  0.6508444  3
   1374   1373   1382   1391     1  0.0000000  1.0460000  1
   1374   1373   1382   1391     1  0.0000000  0.0000000  3
   1374   1373   1382   1383     1  0.0000000  0.6508444  3
   1374   1373   1382   1384     1  0.0000000  0.6508444  3
   1375   1373   1382   1391     1  0.0000000  1.0460000  1
   1375   1373   1382   1391     1  0.0000000  0.0000000  3
   1375   1373   1382   1383     1  0.0000000  0.6508444  3
   1375   1373   1382   1384     1  0.0000000  0.6508444  3
   1377   1376   1388   2841     1  0.0000000  1.0460000  1
   1377   1376   1388   2841     1  0.0000000  0.0000000  3
   1377   1376   1388   1389     1  0.0000000  0.6508444  3
   1377   1376   1388   1390     1  0.0000000  0.6508444  3
   1378   1376   1388   2841     1  0.0000000  1.0460000  1
   1378   1376   1388   2841     1  0.0000000  0.0000000  3
   1378   1376   1388   1389     1  0.0000000  0.6508444  3
   1378   1376   1388   1390     1  0.0000000  0.6508444  3
   1380   1379   1385   2812     1  0.0000000  1.0460000  1
   1380   1379   1385   2812     1  0.0000000  0.0000000  3
   1380   1379   1385   1386     1  0.0000000  0.6508444  3
   1380   1379   1385   1387     1  0.0000000  0.6508444  3
   1381   1379   1385   2812     1  0.0000000  1.0460000  1
   1381   1379   1385   2812     1  0.0000000  0.0000000  3
   1381   1379   1385   1386     1  0.0000000  0.6508444  3
   1381   1379   1385   1387     1  0.0000000  0.6508444  3
   1385   2812   2803   2804     1  0.0000000  1.6038667  3
   1385   2812   2803   2805     1  0.0000000  1.6038667  3
   1386   1385   2812   2803     1  0.0000000  1.6038667  3
   1387   1385   2812   2803     1  0.0000000  1.6038667  3
   1388   2841   2832   2833     1  0.0000000  1.6038667  3
   1388   2841   2832   2834     1  0.0000000  1.6038667  3
   1389   1388   2841   2832     1  0.0000000  1.6038667  3
   1390   1388   2841   2832     1  0.0000000  1.6038667  3
   1392   1393   1405   1406     1  0.0000000  0.6508444  3
   1392   1393   1405   1407     1  0.0000000  0.6508444  3
   1392   1396   1408   1409     1  0.0000000  0.6508444  3
   1392   1396   1408   1410     1  0.0000000  0.6508444  3
   1392   1399   1402   1403     1  0.0000000  0.6508444  3
   1392   1399   1402   1404     1  0.0000000  0.6508444  3
   1393   1392   1396   1397     1  0.0000000  1.2552000  3
   1393   1392   1396   1398     1  0.0000000  1.2552000  3
   1393   1392   1399   1400     1  0.0000000  1.2552000  3
   1393   1392   1399   1401     1  0.0000000  1.2552000  3
   1393   1405   1417   1418     1  0.0000000  0.6508444  3
   1393   1405   1417   1419     1  0.0000000  0.6508444  3
   1394   1393   1392   1396     1  0.0000000  1.2552000  3
   1394   1393   1392   1399     1  0.0000000  1.2552000  3
   1394   1393   1405   1417     1  0.0000000  0.6508444  3
   1394   1393   1405   1406     1  0.0000000  0.6508444  3
   1394   1393   1405   1407     1  0.0000000  0.6508444  3
   1395   1393   1392   1396     1  0.0000000  1.2552000  3
   1395   1393   1392   1399     1  0.0000000  1.2552000  3
   1395   1393   1405   1417     1  0.0000000  0.6508444  3
   1395   1393   1405   1406     1  0.0000000  0.6508444  3
   1395   1393   1405   1407     1  0.0000000  0.6508444  3
   1396   1392   1399   1400     1  0.0000000  1.2552000  3
   1396   1392   1399   1401     1  0.0000000  1.2552000  3
   1396   1408   1414   1415     1  0.0000000  0.6508444  3
   1396   1408   1414   1416     1  0.0000000  0.6508444  3
   1397   1396   1392   1399     1  0.0000000  1.2552000  3
   1397   1396   1408   1414     1  0.0000000  0.6508444  3
   1397   1396   1408   1409     1  0.0000000  0.6508444  3
   1397   1396   1408   1410     1  0.0000000  0.6508444  3
   1398   1396   1392   1399     1  0.0000000  1.2552000  3
   1398   1396   1408   1414     1  0.0000000  0.6508444  3
   1398   1396   1408   1409     1  0.0000000  0.6508444  3
   1398   1396   1408   1410     1  0.0000000  0.6508444  3
   1399   1402   1411   1412     1  0.0000000  0.6508444  3
   1399   1402   1411   1413     1  0.0000000  0.6508444  3
   1400   1399   1402   1411     1  0.0000000  0.6508444  3
   1400   1399   1402   1403     1  0.0000000  0.6508444  3
   1400   1399   1402   1404     1  0.0000000  0.6508444  3
   1401   1399   1402   1411     1  0.0000000  0.6508444  3
   1401   1399   1402   1403     1  0.0000000  0.6508444  3
   1401   1399   1402   1404     1  0.0000000  0.6508444  3
   1403   1402   1411   1420     1  0.0000000  1.0460000  1
   1403   1402   1411   1420     1  0.0000000  0.0000000  3
   1403   1402   1411   1412     1  0.0000000  0.6508444  3
   1403   1402   1411   1413     1  0.0000000  0.6508444  3
   1404   1402   1411   1420     1  0.0000000  1.0460000  1
   1404   1402   1411   1420     1  0.0000000  0.0000000  3
   1404   1402   1411   1412     1  0.0000000  0.6508444  3
   1404   1402   1411   1413     1  0.0000000  0.6508444  3
   1406   1405   1417   2899     1  0.0000000  1.0460000  1
   1406   1405   1417   2899     1  0.0000000  0.0000000  3
   1406   1405   1417   1418     1  0.0000000  0.6508444  3
   1406   1405   1417   1419     1  0.0000000  0.6508444  3
   1407   1405   1417   2899     1  0.0000000  1.0460000  1
   1407   1405   1417   2899     1  0.0000000  0.0000000  3
   1407   1405   1417   1418     1  0.0000000  0.6508444  3
   1407   1405   1417   1419     1  0.0000000  0.6508444  3
   1409   1408   1414   2870     1  0.0000000  1.0460000  1
   1409   1408   1414   2870     1  0.0000000  0.0000000  3
   1409   1408   1414   1415     1  0.0000000  0.6508444  3
   1409   1408   1414   1416     1  0.0000000  0.6508444  3
   1410   1408   1414   2870     1  0.0000000  1.0460000  1
   1410   1408   1414   2870     1  0.0000000  0.0000000  3
   1410   1408   1414   1415     1  0.0000000  0.6508444  3
   1410   1408   1414   1416     1  0.0000000  0.6508444  3
   1414   2870   2861   2862     1  0.0000000  1.6038667  3
   1414   2870   2861   2863     1  0.0000000  1.6038667  3
   1415   1414   2870   2861     1  0.0000000  1.6038667  3
   1416   1414   2870   2861     1  0.0000000  1.6038667  3
   1417   2899   2890   2891     1  0.0000000  1.6038667  3
   1417   2899   2890   2892     1  0.0000000  1.6038667  3
   1418   1417   2899   2890     1  0.0000000  1.6038667  3
   1419   1417   2899   2890     1  0.0000000  1.6038667  3
   1421   1422   1434   1435     1  0.0000000  0.6508444  3
   1421   1422   1434   1436     1  0.0000000  0.6508444  3
   1421   1425   1437   1438     1  0.0000000  0.6508444  3
   1421   1425   1437   1439     1  0.0000000  0.6508444  3
   1421   1428   1431   1432     1  0.0000000  0.6508444  3
   1421   1428   1431   1433     1  0.0000000  0.6508444  3
   1422   1421   1425   1426     1  0.0000000  1.2552000  3
   1422   1421   1425   1427     1  0.0000000  1.2552000  3
   1422   1421   1428   1429     1  0.0000000  1.2552000  3
   1422   1421   1428   1430     1  0.0000000  1.2552000  3
   1422   1434   1446   1447     1  0.0000000  0.6508444  3
   1422   1434   1446   1448     1  0.0000000  0.6508444  3
   1423   1422   1421   1425     1  0.0000000  1.2552000  3
   1423   1422   1421   1428     1  0.0000000  1.2552000  3
   1423   1422   1434   1446     1  0.0000000  0.6508444  3
   1423   1422   1434   1435     1  0.0000000  0.6508444  3
   1423   1422   1434   1436     1  0.0000000  0.6508444  3
   1424   1422   1421   1425     1  0.0000000  1.2552000  3
   1424   1422   1421   1428     1  0.0000000  1.2552000  3
   1424   1422   1434   1446     1  0.0000000  0.6508444  3
   1424   1422   1434   1435     1  0.0000000  0.6508444  3
   1424   1422   1434   1436     1  0.0000000  0.6508444  3
   1425   1421   1428   1429     1  0.0000000  1.2552000  3
   1425   1421   1428   1430     1  0.0000000  1.2552000  3
   1425   1437   1443   1444     1  0.0000000  0.6508444  3
   1425   1437   1443   1445     1  0.0000000  0.6508444  3
   1426   1425   1421   1428     1  0.0000000  1.2552000  3
   1426   1425   1437   1443     1  0.0000000  0.6508444  3
   1426   1425   1437   1438     1  0.0000000  0.6508444  3
   1426   1425   1437   1439     1  0.0000000  0.6508444  3
   1427   1425   1421   1428     1  0.0000000  1.2552000  3
   1427   1425   1437   1443     1  0.0000000  0.6508444  3
   1427   1425   1437   1438     1  0.0000000  0.6508444  3
   1427   1425   1437   1439     1  0.0000000  0.6508444  3
   1428   1431   1440   1441     1  0.0000000  0.6508444  3
   1428   1431   1440   1442     1  0.0000000  0.6508444  3
   1429   1428   1431   1440     1  0.0000000  0.6508444  3
   1429   1428   1431   1432     1  0.0000000  0.6508444  3
   1429   1428   1431   1433     1  0.0000000  0.6508444  3
   1430   1428   1431   1440     1  0.0000000  0.6508444  3
   1430   1428   1431   1432     1  0.0000000  0.6508444  3
   1430   1428   1431   1433     1  0.0000000  0.6508444  3
   1432   1431   1440   1449     1  0.0000000  1.0460000  1
   1432   1431   1440   1449     1  0.0000000  0.0000000  3
   1432   1431   1440   1441     1  0.0000000  0.6508444  3
   1432   1431   1440   1442     1  0.0000000  0.6508444  3
   1433   1431   1440   1449     1  0.0000000  1.0460000  1
   1433   1431   1440   1449     1  0.0000000  0.0000000  3
   1433   1431   1440   1441     1  0.0000000  0.6508444  3
   1433   1431   1440   1442     1  0.0000000  0.6508444  3
   1435   1434   1446   2957     1  0.0000000  1.0460000  1
   1435   1434   1446   2957     1  0.0000000  0.0000000  3
   1435   1434   1446   1447     1  0.0000000  0.6508444  3
   1435   1434   1446   1448     1  0.0000000  0.6508444  3
   1436   1434   1446   2957     1  0.0000000  1.0460000  1
   1436   1434   1446   2957     1  0.0000000  0.0000000  3
   1436   1434   1446   1447     1  0.0000000  0.6508444  3
   1436   1434   1446   1448     1  0.0000000  0.6508444  3
   1438   1437   1443   2928     1  0.0000000  1.0460000  1
   1438   1437   1443   2928     1  0.0000000  0.0000000  3
   1438   1437   1443   1444     1  0.0000000  0.6508444  3
   1438   1437   1443   1445     1  0.0000000  0.6508444  3
   1439   1437   1443   2928     1  0.0000000  1.0460000  1
   1439   1437   1443   2928     1  0.0000000  0.0000000  3
   1439   1437   1443   1444     1  0.0000000  0.6508444  3
   1439   1437   1443   1445     1  0.0000000  0.6508444  3
   1443   2928   2919   2920     1  0.0000000  1.6038667  3
   1443   2928   2919   2921     1  0.0000000  1.6038667  3
   1444   1443   2928   2919     1  0.0000000  1.6038667  3
   1445   1443   2928   2919     1  0.0000000  1.6038667  3
   1446   2957   2948   2949     1  0.0000000  1.6038667  3
   1446   2957   2948   2950     1  0.0000000  1.6038667  3
   1447   1446   2957   2948     1  0.0000000  1.6038667  3
   1448   1446   2957   2948     1  0.0000000  1.6038667  3
   1450   1451   1463   1464     1  0.0000000  0.6508444  3
   1450   1451   1463   1465     1  0.0000000  0.6508444  3
   1450   1454   1466   1467     1  0.0000000  0.6508444  3
   1450   1454   1466   1468     1  0.0000000  0.6508444  3
   1450   1457   1460   1461     1  0.0000000  0.6508444  3
   1450   1457   1460   1462     1  0.0000000  0.6508444  3
   1451   1450   1454   1455     1  0.0000000  1.2552000  3
   1451   1450   1454   1456     1  0.0000000  1.2552000  3
   1451   1450   1457   1458     1  0.0000000  1.2552000  3
   1451   1450   1457   1459     1  0.0000000  1.2552000  3
   1451   1463   1475   1476     1  0.0000000  0.6508444  3
   1451   1463   1475   1477     1  0.0000000  0.6508444  3
   1452   1451   1450   1454     1  0.0000000  1.2552000  3
   1452   1451   1450   1457     1  0.0000000  1.2552000  3
   1452   1451   1463   1475     1  0.0000000  0.6508444  3
   1452   1451   1463   1464     1  0.0000000  0.6508444  3
   1452   1451   1463   1465     1  0.0000000  0.6508444  3
   1453   1451   1450   1454     1  0.0000000  1.2552000  3
   1453   1451   1450   1457     1  0.0000000  1.2552000  3
   1453   1451   1463   1475     1  0.0000000  0.6508444  3
   1453   1451   1463   1464     1  0.0000000  0.6508444  3
   1453   1451   1463   1465     1  0.0000000  0.6508444  3
   1454   1450   1457   1458     1  0.0000000  1.2552000  3
   1454   1450   1457   1459     1  0.0000000  1.2552000  3
   1454   1466   1472   1473     1  0.0000000  0.6508444  3
   1454   1466   1472   1474     1  0.0000000  0.6508444  3
   1455   1454   1450   1457     1  0.0000000  1.2552000  3
   1455   1454   1466   1472     1  0.0000000  0.6508444  3
   1455   1454   1466   1467     1  0.0000000  0.6508444  3
   1455   1454   1466   1468     1  0.0000000  0.6508444  3
   1456   1454   1450   1457     1  0.0000000  1.2552000  3
   1456   1454   1466   1472     1  0.0000000  0.6508444  3
   1456   1454   1466   1467     1  0.0000000  0.6508444  3
   1456   1454   1466   1468     1  0.0000000  0.6508444  3
   1457   1460   1469   1470     1  0.0000000  0.6508444  3
   1457   1460   1469   1471     1  0.0000000  0.6508444  3
   1458   1457   1460   1469     1  0.0000000  0.6508444  3
   1458   1457   1460   1461     1  0.0000000  0.6508444  3
   1458   1457   1460   1462     1  0.0000000  0.6508444  3
   1459   1457   1460   1469     1  0.0000000  0.6508444  3
   1459   1457   1460   1461     1  0.0000000  0.6508444  3
   1459   1457   1460   1462     1  0.0000000  0.6508444  3
   1461   1460   1469   1478     1  0.0000000  1.0460000  1
   1461   1460   1469   1478     1  0.0000000  0.0000000  3
   1461   1460   1469   1470     1  0.0000000  0.6508444  3
   1461   1460   1469   1471     1  0.0000000  0.6508444  3
   1462   1460   1469   1478     1  0.0000000  1.0460000  1
   1462   1460   1469   1478     1  0.0000000  0.0000000  3
   1462   1460   1469   1470     1  0.0000000  0.6508444  3
   1462   1460   1469   1471     1  0.0000000  0.6508444  3
   1464   1463   1475   3015     1  0.0000000  1.0460000  1
   1464   1463   1475   3015     1  0.0000000  0.0000000  3
   1464   1463   1475   1476     1  0.0000000  0.6508444  3
   1464   1463   1475   1477     1  0.0000000  0.6508444  3
   1465   1463   1475   3015     1  0.0000000  1.0460000  1
   1465   1463   1475   3015     1  0.0000000  0.0000000  3
   1465   1463   1475   1476     1  0.0000000  0.6508444  3
   1465   1463   1475   1477     1  0.0000000  0.6508444  3
   1467   1466   1472   2986     1  0.0000000  1.0460000  1
   1467   1466   1472   2986     1  0.0000000  0.0000000  3
   1467   1466   1472   1473     1  0.0000000  0.6508444  3
   1467   1466   1472   1474     1  0.0000000  0.6508444  3
   1468   1466   1472   2986     1  0.0000000  1.0460000  1
   1468   1466   1472   2986     1  0.0000000  0.0000000  3
   1468   1466   1472   1473     1  0.0000000  0.6508444  3
   1468   1466   1472   1474     1  0.0000000  0.6508444  3
   1472   2986   2977   2978     1  0.0000000  1.6038667  3
   1472   2986   2977   2979     1  0.0000000  1.6038667  3
   1473   1472   2986   2977     1  0.0000000  1.6038667  3
   1474   1472   2986   2977     1  0.0000000  1.6038667  3
   1475   3015   3006   3007     1  0.0000000  1.6038667  3
   1475   3015   3006   3008     1  0.0000000  1.6038667  3
   1476   1475   3015   3006     1  0.0000000  1.6038667  3
   1477   1475   3015   3006     1  0.0000000  1.6038667  3
   1479   1480   1492   1493     1  0.0000000  0.6508444  3
   1479   1480   1492   1494     1  0.0000000  0.6508444  3
   1479   1483   1495   1496     1  0.0000000  0.6508444  3
   1479   1483   1495   1497     1  0.0000000  0.6508444  3
   1479   1486   1489   1490     1  0.0000000  0.6508444  3
   1479   1486   1489   1491     1  0.0000000  0.6508444  3
   1480   1479   1483   1484     1  0.0000000  1.2552000  3
   1480   1479   1483   1485     1  0.0000000  1.2552000  3
   1480   1479   1486   1487     1  0.0000000  1.2552000  3
   1480   1479   1486   1488     1  0.0000000  1.2552000  3
   1480   1492   1504   1505     1  0.0000000  0.6508444  3
   1480   1492   1504   1506     1  0.0000000  0.6508444  3
   1481   1480   1479   1483     1  0.0000000  1.2552000  3
   1481   1480   1479   1486     1  0.0000000  1.2552000  3
   1481   1480   1492   1504     1  0.0000000  0.6508444  3
   1481   1480   1492   1493     1  0.0000000  0.6508444  3
   1481   1480   1492   1494     1  0.0000000  0.6508444  3
   1482   1480   1479   1483     1  0.0000000  1.2552000  3
   1482   1480   1479   1486     1  0.0000000  1.2552000  3
   1482   1480   1492   1504     1  0.0000000  0.6508444  3
   1482   1480   1492   1493     1  0.0000000  0.6508444  3
   1482   1480   1492   1494     1  0.0000000  0.6508444  3
   1483   1479   1486   1487     1  0.0000000  1.2552000  3
   1483   1479   1486   1488     1  0.0000000  1.2552000  3
   1483   1495   1501   1502     1  0.0000000  0.6508444  3
   1483   1495   1501   1503     1  0.0000000  0.6508444  3
   1484   1483   1479   1486     1  0.0000000  1.2552000  3
   1484   1483   1495   1501     1  0.0000000  0.6508444  3
   1484   1483   1495   1496     1  0.0000000  0.6508444  3
   1484   1483   1495   1497     1  0.0000000  0.6508444  3
   1485   1483   1479   1486     1  0.0000000  1.2552000  3
   1485   1483   1495   1501     1  0.0000000  0.6508444  3
   1485   1483   1495   1496     1  0.0000000  0.6508444  3
   1485   1483   1495   1497     1  0.0000000  0.6508444  3
   1486   1489   1498   1499     1  0.0000000  0.6508444  3
   1486   1489   1498   1500     1  0.0000000  0.6508444  3
   1487   1486   1489   1498     1  0.0000000  0.6508444  3
   1487   1486   1489   1490     1  0.0000000  0.6508444  3
   1487   1486   1489   1491     1  0.0000000  0.6508444  3
   1488   1486   1489   1498     1  0.0000000  0.6508444  3
   1488   1486   1489   1490     1  0.0000000  0.6508444  3
   1488   1486   1489   1491     1  0.0000000  0.6508444  3
   1490   1489   1498   1507     1  0.0000000  1.0460000  1
   1490   1489   1498   1507     1  0.0000000  0.0000000  3
   1490   1489   1498   1499     1  0.0000000  0.6508444  3
   1490   1489   1498   1500     1  0.0000000  0.6508444  3
   1491   1489   1498   1507     1  0.0000000  1.0460000  1
   1491   1489   1498   1507     1  0.0000000  0.0000000  3
   1491   1489   1498   1499     1  0.0000000  0.6508444  3
   1491   1489   1498   1500     1  0.0000000  0.6508444  3
   1493   1492   1504   3073     1  0.0000000  1.0460000  1
   1493   1492   1504   3073     1  0.0000000  0.0000000  3
   1493   1492   1504   1505     1  0.0000000  0.6508444  3
   1493   1492   1504   1506     1  0.0000000  0.6508444  3
   1494   1492   1504   3073     1  0.0000000  1.0460000  1
   1494   1492   1504   3073     1  0.0000000  0.0000000  3
   1494   1492   1504   1505     1  0.0000000  0.6508444  3
   1494   1492   1504   1506     1  0.0000000  0.6508444  3
   1496   1495   1501   3044     1  0.0000000  1.0460000  1
   1496   1495   1501   3044     1  0.0000000  0.0000000  3
   1496   1495   1501   1502     1  0.0000000  0.6508444  3
   1496   1495   1501   1503     1  0.0000000  0.6508444  3
   1497   1495   1501   3044     1  0.0000000  1.0460000  1
   1497   1495   1501   3044     1  0.0000000  0.0000000  3
   1497   1495   1501   1502     1  0.0000000  0.6508444  3
   1497   1495   1501   1503     1  0.0000000  0.6508444  3
   1501   3044   3035   3036     1  0.0000000  1.6038667  3
   1501   3044   3035   3037     1  0.0000000  1.6038667  3
   1502   1501   3044   3035     1  0.0000000  1.6038667  3
   1503   1501   3044   3035     1  0.0000000  1.6038667  3
   1504   3073   3064   3065     1  0.0000000  1.6038667  3
   1504   3073   3064   3066     1  0.0000000  1.6038667  3
   1505   1504   3073   3064     1  0.0000000  1.6038667  3
   1506   1504   3073   3064     1  0.0000000  1.6038667  3
   1508   1509   1521   1522     1  0.0000000  0.6508444  3
   1508   1509   1521   1523     1  0.0000000  0.6508444  3
   1508   1512   1524   1525     1  0.0000000  0.6508444  3
   1508   1512   1524   1526     1  0.0000000  0.6508444  3
   1508   1515   1518   1519     1  0.0000000  0.6508444  3
   1508   1515   1518   1520     1  0.0000000  0.6508444  3
   1509   1508   1512   1513     1  0.0000000  1.2552000  3
   1509   1508   1512   1514     1  0.0000000  1.2552000  3
   1509   1508   1515   1516     1  0.0000000  1.2552000  3
   1509   1508   1515   1517     1  0.0000000  1.2552000  3
   1509   1521   1533   1534     1  0.0000000  0.6508444  3
   1509   1521   1533   1535     1  0.0000000  0.6508444  3
   1510   1509   1508   1512     1  0.0000000  1.2552000  3
   1510   1509   1508   1515     1  0.0000000  1.2552000  3
   1510   1509   1521   1533     1  0.0000000  0.6508444  3
   1510   1509   1521   1522     1  0.0000000  0.6508444  3
   1510   1509   1521   1523     1  0.0000000  0.6508444  3
   1511   1509   1508   1512     1  0.0000000  1.2552000  3
   1511   1509   1508   1515     1  0.0000000  1.2552000  3
   1511   1509   1521   1533     1  0.0000000  0.6508444  3
   1511   1509   1521   1522     1  0.0000000  0.6508444  3
   1511   1509   1521   1523     1  0.0000000  0.6508444  3
   1512   1508   1515   1516     1  0.0000000  1.2552000  3
   1512   1508   1515   1517     1  0.0000000  1.2552000  3
   1512   1524   1530   1531     1  0.0000000  0.6508444  3
   1512   1524   1530   1532     1  0.0000000  0.6508444  3
   1513   1512   1508   1515     1  0.0000000  1.2552000  3
   1513   1512   1524   1530     1  0.0000000  0.6508444  3
   1513   1512   1524   1525     1  0.0000000  0.6508444  3
   1513   1512   1524   1526     1  0.0000000  0.6508444  3
   1514   1512   1508   1515     1  0.0000000  1.2552000  3
   1514   1512   1524   1530     1  0.0000000  0.6508444  3
   1514   1512   1524   1525     1  0.0000000  0.6508444  3
   1514   1512   1524   1526     1  0.0000000  0.6508444  3
   1515   1518   1527   1528     1  0.0000000  0.6508444  3
   1515   1518   1527   1529     1  0.0000000  0.6508444  3
   1516   1515   1518   1527     1  0.0000000  0.6508444  3
   1516   1515   1518   1519     1  0.0000000  0.6508444  3
   1516   1515   1518   1520     1  0.0000000  0.6508444  3
   1517   1515   1518   1527     1  0.0000000  0.6508444  3
   1517   1515   1518   1519     1  0.0000000  0.6508444  3
   1517   1515   1518   1520     1  0.0000000  0.6508444  3
   1519   1518   1527   1536     1  0.0000000  1.0460000  1
   1519   1518   1527   1536     1  0.0000000  0.0000000  3
   1519   1518   1527   1528     1  0.0000000  0.6508444  3
   1519   1518   1527   1529     1  0.0000000  0.6508444  3
   1520   1518   1527   1536     1  0.0000000  1.0460000  1
   1520   1518   1527   1536     1  0.0000000  0.0000000  3
   1520   1518   1527   1528     1  0.0000000  0.6508444  3
   1520   1518   1527   1529     1  0.0000000  0.6508444  3
   1522   1521   1533   3131     1  0.0000000  1.0460000  1
   1522   1521   1533   3131     1  0.0000000  0.0000000  3
   1522   1521   1533   1534     1  0.0000000  0.6508444  3
   1522   1521   1533   1535     1  0.0000000  0.6508444  3
   1523   1521   1533   3131     1  0.0000000  1.0460000  1
   1523   1521   1533   3131     1  0.0000000  0.0000000  3
   1523   1521   1533   1534     1  0.0000000  0.6508444  3
   1523   1521   1533   1535     1  0.0000000  0.6508444  3
   1525   1524   1530   3102     1  0.0000000  1.0460000  1
   1525   1524   1530   3102     1  0.0000000  0.0000000  3
   1525   1524   1530   1531     1  0.0000000  0.6508444  3
   1525   1524   1530   1532     1  0.0000000  0.6508444  3
   1526   1524   1530   3102     1  0.0000000  1.0460000  1
   1526   1524   1530   3102     1  0.0000000  0.0000000  3
   1526   1524   1530   1531     1  0.0000000  0.6508444  3
   1526   1524   1530   1532     1  0.0000000  0.6508444  3
   1530   3102   3093   3094     1  0.0000000  1.6038667  3
   1530   3102   3093   3095     1  0.0000000  1.6038667  3
   1531   1530   3102   3093     1  0.0000000  1.6038667  3
   1532   1530   3102   3093     1  0.0000000  1.6038667  3
   1533   3131   3122   3123     1  0.0000000  1.6038667  3
   1533   3131   3122   3124     1  0.0000000  1.6038667  3
   1534   1533   3131   3122     1  0.0000000  1.6038667  3
   1535   1533   3131   3122     1  0.0000000  1.6038667  3
   1537   1538   1550   1551     1  0.0000000  0.6508444  3
   1537   1538   1550   1552     1  0.0000000  0.6508444  3
   1537   1541   1553   1554     1  0.0000000  0.6508444  3
   1537   1541   1553   1555     1  0.0000000  0.6508444  3
   1537   1544   1547   1548     1  0.0000000  0.6508444  3
   1537   1544   1547   1549     1  0.0000000  0.6508444  3
   1538   1537   1541   1542     1  0.0000000  1.2552000  3
   1538   1537   1541   1543     1  0.0000000  1.2552000  3
   1538   1537   1544   1545     1  0.0000000  1.2552000  3
   1538   1537   1544   1546     1  0.0000000  1.2552000  3
   1538   1550   1562   1563     1  0.0000000  0.6508444  3
   1538   1550   1562   1564     1  0.0000000  0.6508444  3
   1539   1538   1537   1541     1  0.0000000  1.2552000  3
   1539   1538   1537   1544     1  0.0000000  1.2552000  3
   1539   1538   1550   1562     1  0.0000000  0.6508444  3
   1539   1538   1550   1551     1  0.0000000  0.6508444  3
   1539   1538   1550   1552     1  0.0000000  0.6508444  3
   1540   1538   1537   1541     1  0.0000000  1.2552000  3
   1540   1538   1537   1544     1  0.0000000  1.2552000  3
   1540   1538   1550   1562     1  0.0000000  0.6508444  3
   1540   1538   1550   1551     1  0.0000000  0.6508444  3
   1540   1538   1550   1552     1  0.0000000  0.6508444  3
   1541   1537   1544   1545     1  0.0000000  1.2552000  3
   1541   1537   1544   1546     1  0.0000000  1.2552000  3
   1541   1553   1559   1560     1  0.0000000  0.6508444  3
   1541   1553   1559   1561     1  0.0000000  0.6508444  3
   1542   1541   1537   1544     1  0.0000000  1.2552000  3
   1542   1541   1553   1559     1  0.0000000  0.6508444  3
   1542   1541   1553   1554     1  0.0000000  0.6508444  3
   1542   1541   1553   1555     1  0.0000000  0.6508444  3
   1543   1541   1537   1544     1  0.0000000  1.2552000  3
   1543   1541   1553   1559     1  0.0000000  0.6508444  3
   1543   1541   1553   1554     1  0.0000000  0.6508444  3
   1543   1541   1553   1555     1  0.0000000  0.6508444  3
   1544   1547   1556   1557     1  0.0000000  0.6508444  3
   1544   1547   1556   1558     1  0.0000000  0.6508444  3
   1545   1544   1547   1556     1  0.0000000  0.6508444  3
   1545   1544   1547   1548     1  0.0000000  0.6508444  3
   1545   1544   1547   1549     1  0.0000000  0.6508444  3
   1546   1544   1547   1556     1  0.0000000  0.6508444  3
   1546   1544   1547   1548     1  0.0000000  0.6508444  3
   1546   1544   1547   1549     1  0.0000000  0.6508444  3
   1548   1547   1556   1565     1  0.0000000  1.0460000  1
   1548   1547   1556   1565     1  0.0000000  0.0000000  3
   1548   1547   1556   1557     1  0.0000000  0.6508444  3
   1548   1547   1556   1558     1  0.0000000  0.6508444  3
   1549   1547   1556   1565     1  0.0000000  1.0460000  1
   1549   1547   1556   1565     1  0.0000000  0.0000000  3
   1549   1547   1556   1557     1  0.0000000  0.6508444  3
   1549   1547   1556   1558     1  0.0000000  0.6508444  3
   1551   1550   1562   3189     1  0.0000000  1.0460000  1
   1551   1550   1562   3189     1  0.0000000  0.0000000  3
   1551   1550   1562   1563     1  0.0000000  0.6508444  3
   1551   1550   1562   1564     1  0.0000000  0.6508444  3
   1552   1550   1562   3189     1  0.0000000  1.0460000  1
   1552   1550   1562   3189     1  0.0000000  0.0000000  3
   1552   1550   1562   1563     1  0.0000000  0.6508444  3
   1552   1550   1562   1564     1  0.0000000  0.6508444  3
   1554   1553   1559   3160     1  0.0000000  1.0460000  1
   1554   1553   1559   3160     1  0.0000000  0.0000000  3
   1554   1553   1559   1560     1  0.0000000  0.6508444  3
   1554   1553   1559   1561     1  0.0000000  0.6508444  3
   1555   1553   1559   3160     1  0.0000000  1.0460000  1
   1555   1553   1559   3160     1  0.0000000  0.0000000  3
   1555   1553   1559   1560     1  0.0000000  0.6508444  3
   1555   1553   1559   1561     1  0.0000000  0.6508444  3
   1559   3160   3151   3152     1  0.0000000  1.6038667  3
   1559   3160   3151   3153     1  0.0000000  1.6038667  3
   1560   1559   3160   3151     1  0.0000000  1.6038667  3
   1561   1559   3160   3151     1  0.0000000  1.6038667  3
   1562   3189   3180   3181     1  0.0000000  1.6038667  3
   1562   3189   3180   3182     1  0.0000000  1.6038667  3
   1563   1562   3189   3180     1  0.0000000  1.6038667  3
   1564   1562   3189   3180     1  0.0000000  1.6038667  3
   1566   1567   1579   1580     1  0.0000000  0.6508444  3
   1566   1567   1579   1581     1  0.0000000  0.6508444  3
   1566   1570   1582   1583     1  0.0000000  0.6508444  3
   1566   1570   1582   1584     1  0.0000000  0.6508444  3
   1566   1573   1576   1577     1  0.0000000  0.6508444  3
   1566   1573   1576   1578     1  0.0000000  0.6508444  3
   1567   1566   1570   1571     1  0.0000000  1.2552000  3
   1567   1566   1570   1572     1  0.0000000  1.2552000  3
   1567   1566   1573   1574     1  0.0000000  1.2552000  3
   1567   1566   1573   1575     1  0.0000000  1.2552000  3
   1567   1579   1591   1592     1  0.0000000  0.6508444  3
   1567   1579   1591   1593     1  0.0000000  0.6508444  3
   1568   1567   1566   1570     1  0.0000000  1.2552000  3
   1568   1567   1566   1573     1  0.0000000  1.2552000  3
   1568   1567   1579   1591     1  0.0000000  0.6508444  3
   1568   1567   1579   1580     1  0.0000000  0.6508444  3
   1568   1567   1579   1581     1  0.0000000  0.6508444  3
   1569   1567   1566   1570     1  0.0000000  1.2552000  3
   1569   1567   1566   1573     1  0.0000000  1.2552000  3
   1569   1567   1579   1591     1  0.0000000  0.6508444  3
   1569   1567   1579   1580     1  0.0000000  0.6508444  3
   1569   1567   1579   1581     1  0.0000000  0.6508444  3
   1570   1566   1573   1574     1  0.0000000  1.2552000  3
   1570   1566   1573   1575     1  0.0000000  1.2552000  3
   1570   1582   1588   1589     1  0.0000000  0.6508444  3
   1570   1582   1588   1590     1  0.0000000  0.6508444  3
   1571   1570   1566   1573     1  0.0000000  1.2552000  3
   1571   1570   1582   1588     1  0.0000000  0.6508444  3
   1571   1570   1582   1583     1  0.0000000  0.6508444  3
   1571   1570   1582   1584     1  0.0000000  0.6508444  3
   1572   1570   1566   1573     1  0.0000000  1.2552000  3
   1572   1570   1582   1588     1  0.0000000  0.6508444  3
   1572   1570   1582   1583     1  0.0000000  0.6508444  3
   1572   1570   1582   1584     1  0.0000000  0.6508444  3
   1573   1576   1585   1586     1  0.0000000  0.6508444  3
   1573   1576   1585   1587     1  0.0000000  0.6508444  3
   1574   1573   1576   1585     1  0.0000000  0.6508444  3
   1574   1573   1576   1577     1  0.0000000  0.6508444  3
   1574   1573   1576   1578     1  0.0000000  0.6508444  3
   1575   1573   1576   1585     1  0.0000000  0.6508444  3
   1575   1573   1576   1577     1  0.0000000  0.6508444  3
   1575   1573   1576   1578     1  0.0000000  0.6508444  3
   1577   1576   1585   1594     1  0.0000000  1.0460000  1
   1577   1576   1585   1594     1  0.0000000  0.0000000  3
   1577   1576   1585   1586     1  0.0000000  0.6508444  3
   1577   1576   1585   1587     1  0.0000000  0.6508444  3
   1578   1576   1585   1594     1  0.0000000  1.0460000  1
   1578   1576   1585   1594     1  0.0000000  0.0000000  3
   1578   1576   1585   1586     1  0.0000000  0.6508444  3
   1578   1576   1585   1587     1  0.0000000  0.6508444  3
   1580   1579   1591   3247     1  0.0000000  1.0460000  1
   1580   1579   1591   3247     1  0.0000000  0.0000000  3
   1580   1579   1591   1592     1  0.0000000  0.6508444  3
   1580   1579   1591   1593     1  0.0000000  0.6508444  3
   1581   1579   1591   3247     1  0.0000000  1.0460000  1
   1581   1579   1591   3247     1  0.0000000  0.0000000  3
   1581   1579   1591   1592     1  0.0000000  0.6508444  3
   1581   1579   1591   1593     1  0.0000000  0.6508444  3
   1583   1582   1588   3218     1  0.0000000  1.0460000  1
   1583   1582   1588   3218     1  0.0000000  0.0000000  3
   1583   1582   1588   1589     1  0.0000000  0.6508444  3
   1583   1582   1588   1590     1  0.0000000  0.6508444  3
   1584   1582   1588   3218     1  0.0000000  1.0460000  1
   1584   1582   1588   3218     1  0.0000000  0.0000000  3
   1584   1582   1588   1589     1  0.0000000  0.6508444  3
   1584   1582   1588   1590     1  0.0000000  0.6508444  3
   1588   3218   3209   3210     1  0.0000000  1.6038667  3
   1588   3218   3209   3211     1  0.0000000  1.6038667  3
   1589   1588   3218   3209     1  0.0000000  1.6038667  3
   1590   1588   3218   3209     1  0.0000000  1.6038667  3
   1591   3247   3238   3239     1  0.0000000  1.6038667  3
   1591   3247   3238   3240     1  0.0000000  1.6038667  3
   1592   1591   3247   3238     1  0.0000000  1.6038667  3
   1593   1591   3247   3238     1  0.0000000  1.6038667  3
   1595   1596   1608   1609     1  0.0000000  0.6508444  3
   1595   1596   1608   1610     1  0.0000000  0.6508444  3
   1595   1599   1611   1612     1  0.0000000  0.6508444  3
   1595   1599   1611   1613     1  0.0000000  0.6508444  3
   1595   1602   1605   1606     1  0.0000000  0.6508444  3
   1595   1602   1605   1607     1  0.0000000  0.6508444  3
   1596   1595   1599   1600     1  0.0000000  1.2552000  3
   1596   1595   1599   1601     1  0.0000000  1.2552000  3
   1596   1595   1602   1603     1  0.0000000  1.2552000  3
   1596   1595   1602   1604     1  0.0000000  1.2552000  3
   1596   1608   1620   1621     1  0.0000000  0.6508444  3
   1596   1608   1620   1622     1  0.0000000  0.6508444  3
   1597   1596   1595   1599     1  0.0000000  1.2552000  3
   1597   1596   1595   1602     1  0.0000000  1.2552000  3
   1597   1596   1608   1620     1  0.0000000  0.6508444  3
   1597   1596   1608   1609     1  0.0000000  0.6508444  3
   1597   1596   1608   1610     1  0.0000000  0.6508444  3
   1598   1596   1595   1599     1  0.0000000  1.2552000  3
   1598   1596   1595   1602     1  0.0000000  1.2552000  3
   1598   1596   1608   1620     1  0.0000000  0.6508444  3
   1598   1596   1608   1609     1  0.0000000  0.6508444  3
   1598   1596   1608   1610     1  0.0000000  0.6508444  3
   1599   1595   1602   1603     1  0.0000000  1.2552000  3
   1599   1595   1602   1604     1  0.0000000  1.2552000  3
   1599   1611   1617   1618     1  0.0000000  0.6508444  3
   1599   1611   1617   1619     1  0.0000000  0.6508444  3
   1600   1599   1595   1602     1  0.0000000  1.2552000  3
   1600   1599   1611   1617     1  0.0000000  0.6508444  3
   1600   1599   1611   1612     1  0.0000000  0.6508444  3
   1600   1599   1611   1613     1  0.0000000  0.6508444  3
   1601   1599   1595   1602     1  0.0000000  1.2552000  3
   1601   1599   1611   1617     1  0.0000000  0.6508444  3
   1601   1599   1611   1612     1  0.0000000  0.6508444  3
   1601   1599   1611   1613     1  0.0000000  0.6508444  3
   1602   1605   1614   1615     1  0.0000000  0.6508444  3
   1602   1605   1614   1616     1  0.0000000  0.6508444  3
   1603   1602   1605   1614     1  0.0000000  0.6508444  3
   1603   1602   1605   1606     1  0.0000000  0.6508444  3
   1603   1602   1605   1607     1  0.0000000  0.6508444  3
   1604   1602   1605   1614     1  0.0000000  0.6508444  3
   1604   1602   1605   1606     1  0.0000000  0.6508444  3
   1604   1602   1605   1607     1  0.0000000  0.6508444  3
   1606   1605   1614   1623     1  0.0000000  1.0460000  1
   1606   1605   1614   1623     1  0.0000000  0.0000000  3
   1606   1605   1614   1615     1  0.0000000  0.6508444  3
   1606   1605   1614   1616     1  0.0000000  0.6508444  3
   1607   1605   1614   1623     1  0.0000000  1.0460000  1
   1607   1605   1614   1623     1  0.0000000  0.0000000  3
   1607   1605   1614   1615     1  0.0000000  0.6508444  3
   1607   1605   1614   1616     1  0.0000000  0.6508444  3
   1609   1608   1620   3305     1  0.0000000  1.0460000  1
   1609   1608   1620   3305     1  0.0000000  0.0000000  3
   1609   1608   1620   1621     1  0.0000000  0.6508444  3
   1609   1608   1620   1622     1  0.0000000  0.6508444  3
   1610   1608   1620   3305     1  0.0000000  1.0460000  1
   1610   1608   1620   3305     1  0.0000000  0.0000000  3
   1610   1608   1620   1621     1  0.0000000  0.6508444  3
   1610   1608   1620   1622     1  0.0000000  0.6508444  3
   1612   1611   1617   3276     1  0.0000000  1.0460000  1
   1612   1611   1617   3276     1  0.0000000  0.0000000  3
   1612   1611   1617   1618     1  0.0000000  0.6508444  3
   1612   1611   1617   1619     1  0.0000000  0.6508444  3
   1613   1611   1617   3276     1  0.0000000  1.0460000  1
   1613   1611   1617   3276     1  0.0000000  0.0000000  3
   1613   1611   1617   1618     1  0.0000000  0.6508444  3
   1613   1611   1617   1619     1  0.0000000  0.6508444  3
   1617   3276   3267   3268     1  0.0000000  1.6038667  3
   1617   3276   3267   3269     1  0.0000000  1.6038667  3
   1618   1617   3276   3267     1  0.0000000  1.6038667  3
   1619   1617   3276   3267     1  0.0000000  1.6038667  3
   1620   3305   3296   3297     1  0.0000000  1.6038667  3
   1620   3305   3296   3298     1  0.0000000  1.6038667  3
   1621   1620   3305   3296     1  0.0000000  1.6038667  3
   1622   1620   3305   3296     1  0.0000000  1.6038667  3
   1624   1625   1637   1638     1  0.0000000  0.6508444  3
   1624   1625   1637   1639     1  0.0000000  0.6508444  3
   1624   1628   1640   1641     1  0.0000000  0.6508444  3
   1624   1628   1640   1642     1  0.0000000  0.6508444  3
   1624   1631   1634   1635     1  0.0000000  0.6508444  3
   1624   1631   1634   1636     1  0.0000000  0.6508444  3
   1625   1624   1628   1629     1  0.0000000  1.2552000  3
   1625   1624   1628   1630     1  0.0000000  1.2552000  3
   1625   1624   1631   1632     1  0.0000000  1.2552000  3
   1625   1624   1631   1633     1  0.0000000  1.2552000  3
   1625   1637   1649   1650     1  0.0000000  0.6508444  3
   1625   1637   1649   1651     1  0.0000000  0.6508444  3
   1626   1625   1624   1628     1  0.0000000  1.2552000  3
   1626   1625   1624   1631     1  0.0000000  1.2552000  3
   1626   1625   1637   1649     1  0.0000000  0.6508444  3
   1626   1625   1637   1638     1  0.0000000  0.6508444  3
   1626   1625   1637   1639     1  0.0000000  0.6508444  3
   1627   1625   1624   1628     1  0.0000000  1.2552000  3
   1627   1625   1624   1631     1  0.0000000  1.2552000  3
   1627   1625   1637   1649     1  0.0000000  0.6508444  3
   1627   1625   1637   1638     1  0.0000000  0.6508444  3
   1627   1625   1637   1639     1  0.0000000  0.6508444  3
   1628   1624   1631   1632     1  0.0000000  1.2552000  3
   1628   1624   1631   1633     1  0.0000000  1.2552000  3
   1628   1640   1646   1647     1  0.0000000  0.6508444  3
   1628   1640   1646   1648     1  0.0000000  0.6508444  3
   1629   1628   1624   1631     1  0.0000000  1.2552000  3
   1629   1628   1640   1646     1  0.0000000  0.6508444  3
   1629   1628   1640   1641     1  0.0000000  0.6508444  3
   1629   1628   1640   1642     1  0.0000000  0.6508444  3
   1630   1628   1624   1631     1  0.0000000  1.2552000  3
   1630   1628   1640   1646     1  0.0000000  0.6508444  3
   1630   1628   1640   1641     1  0.0000000  0.6508444  3
   1630   1628   1640   1642     1  0.0000000  0.6508444  3
   1631   1634   1643   1644     1  0.0000000  0.6508444  3
   1631   1634   1643   1645     1  0.0000000  0.6508444  3
   1632   1631   1634   1643     1  0.0000000  0.6508444  3
   1632   1631   1634   1635     1  0.0000000  0.6508444  3
   1632   1631   1634   1636     1  0.0000000  0.6508444  3
   1633   1631   1634   1643     1  0.0000000  0.6508444  3
   1633   1631   1634   1635     1  0.0000000  0.6508444  3
   1633   1631   1634   1636     1  0.0000000  0.6508444  3
   1635   1634   1643   1652     1  0.0000000  1.0460000  1
   1635   1634   1643   1652     1  0.0000000  0.0000000  3
   1635   1634   1643   1644     1  0.0000000  0.6508444  3
   1635   1634   1643   1645     1  0.0000000  0.6508444  3
   1636   1634   1643   1652     1  0.0000000  1.0460000  1
   1636   1634   1643   1652     1  0.0000000  0.0000000  3
   1636   1634   1643   1644     1  0.0000000  0.6508444  3
   1636   1634   1643   1645     1  0.0000000  0.6508444  3
   1638   1637   1649   3363     1  0.0000000  1.0460000  1
   1638   1637   1649   3363     1  0.0000000  0.0000000  3
   1638   1637   1649   1650     1  0.0000000  0.6508444  3
   1638   1637   1649   1651     1  0.0000000  0.6508444  3
   1639   1637   1649   3363     1  0.0000000  1.0460000  1
   1639   1637   1649   3363     1  0.0000000  0.0000000  3
   1639   1637   1649   1650     1  0.0000000  0.6508444  3
   1639   1637   1649   1651     1  0.0000000  0.6508444  3
   1641   1640   1646   3334     1  0.0000000  1.0460000  1
   1641   1640   1646   3334     1  0.0000000  0.0000000  3
   1641   1640   1646   1647     1  0.0000000  0.6508444  3
   1641   1640   1646   1648     1  0.0000000  0.6508444  3
   1642   1640   1646   3334     1  0.0000000  1.0460000  1
   1642   1640   1646   3334     1  0.0000000  0.0000000  3
   1642   1640   1646   1647     1  0.0000000  0.6508444  3
   1642   1640   1646   1648     1  0.0000000  0.6508444  3
   1646   3334   3325   3326     1  0.0000000  1.6038667  3
   1646   3334   3325   3327     1  0.0000000  1.6038667  3
   1647   1646   3334   3325     1  0.0000000  1.6038667  3
   1648   1646   3334   3325     1  0.0000000  1.6038667  3
   1649   3363   3354   3355     1  0.0000000  1.6038667  3
   1649   3363   3354   3356     1  0.0000000  1.6038667  3
   1650   1649   3363   3354     1  0.0000000  1.6038667  3
   1651   1649   3363   3354     1  0.0000000  1.6038667  3
   1653   1654   1666   1667     1  0.0000000  0.6508444  3
   1653   1654   1666   1668     1  0.0000000  0.6508444  3
   1653   1657   1669   1670     1  0.0000000  0.6508444  3
   1653   1657   1669   1671     1  0.0000000  0.6508444  3
   1653   1660   1663   1664     1  0.0000000  0.6508444  3
   1653   1660   1663   1665     1  0.0000000  0.6508444  3
   1654   1653   1657   1658     1  0.0000000  1.2552000  3
   1654   1653   1657   1659     1  0.0000000  1.2552000  3
   1654   1653   1660   1661     1  0.0000000  1.2552000  3
   1654   1653   1660   1662     1  0.0000000  1.2552000  3
   1654   1666   1678   1679     1  0.0000000  0.6508444  3
   1654   1666   1678   1680     1  0.0000000  0.6508444  3
   1655   1654   1653   1657     1  0.0000000  1.2552000  3
   1655   1654   1653   1660     1  0.0000000  1.2552000  3
   1655   1654   1666   1678     1  0.0000000  0.6508444  3
   1655   1654   1666   1667     1  0.0000000  0.6508444  3
   1655   1654   1666   1668     1  0.0000000  0.6508444  3
   1656   1654   1653   1657     1  0.0000000  1.2552000  3
   1656   1654   1653   1660     1  0.0000000  1.2552000  3
   1656   1654   1666   1678     1  0.0000000  0.6508444  3
   1656   1654   1666   1667     1  0.0000000  0.6508444  3
   1656   1654   1666   1668     1  0.0000000  0.6508444  3
   1657   1653   1660   1661     1  0.0000000  1.2552000  3
   1657   1653   1660   1662     1  0.0000000  1.2552000  3
   1657   1669   1675   1676     1  0.0000000  0.6508444  3
   1657   1669   1675   1677     1  0.0000000  0.6508444  3
   1658   1657   1653   1660     1  0.0000000  1.2552000  3
   1658   1657   1669   1675     1  0.0000000  0.6508444  3
   1658   1657   1669   1670     1  0.0000000  0.6508444  3
   1658   1657   1669   1671     1  0.0000000  0.6508444  3
   1659   1657   1653   1660     1  0.0000000  1.2552000  3
   1659   1657   1669   1675     1  0.0000000  0.6508444  3
   1659   1657   1669   1670     1  0.0000000  0.6508444  3
   1659   1657   1669   1671     1  0.0000000  0.6508444  3
   1660   1663   1672   1673     1  0.0000000  0.6508444  3
   1660   1663   1672   1674     1  0.0000000  0.6508444  3
   1661   1660   1663   1672     1  0.0000000  0.6508444  3
   1661   1660   1663   1664     1  0.0000000  0.6508444  3
   1661   1660   1663   1665     1  0.0000000  0.6508444  3
   1662   1660   1663   1672     1  0.0000000  0.6508444  3
   1662   1660   1663   1664     1  0.0000000  0.6508444  3
   1662   1660   1663   1665     1  0.0000000  0.6508444  3
   1664   1663   1672   1681     1  0.0000000  1.0460000  1
   1664   1663   1672   1681     1  0.0000000  0.0000000  3
   1664   1663   1672   1673     1  0.0000000  0.6508444  3
   1664   1663   1672   1674     1  0.0000000  0.6508444  3
   1665   1663   1672   1681     1  0.0000000  1.0460000  1
   1665   1663   1672   1681     1  0.0000000  0.0000000  3
   1665   1663   1672   1673     1  0.0000000  0.6508444  3
   1665   1663   1672   1674     1  0.0000000  0.6508444  3
   1667   1666   1678   3421     1  0.0000000  1.0460000  1
   1667   1666   1678   3421     1  0.0000000  0.0000000  3
   1667   1666   1678   1679     1  0.0000000  0.6508444  3
   1667   1666   1678   1680     1  0.0000000  0.6508444  3
   1668   1666   1678   3421     1  0.0000000  1.0460000  1
   1668   1666   1678   3421     1  0.0000000  0.0000000  3
   1668   1666   1678   1679     1  0.0000000  0.6508444  3
   1668   1666   1678   1680     1  0.0000000  0.6508444  3
   1670   1669   1675   3392     1  0.0000000  1.0460000  1
   1670   1669   1675   3392     1  0.0000000  0.0000000  3
   1670   1669   1675   1676     1  0.0000000  0.6508444  3
   1670   1669   1675   1677     1  0.0000000  0.6508444  3
   1671   1669   1675   3392     1  0.0000000  1.0460000  1
   1671   1669   1675   3392     1  0.0000000  0.0000000  3
   1671   1669   1675   1676     1  0.0000000  0.6508444  3
   1671   1669   1675   1677     1  0.0000000  0.6508444  3
   1675   3392   3383   3384     1  0.0000000  1.6038667  3
   1675   3392   3383   3385     1  0.0000000  1.6038667  3
   1676   1675   3392   3383     1  0.0000000  1.6038667  3
   1677   1675   3392   3383     1  0.0000000  1.6038667  3
   1678   3421   3412   3413     1  0.0000000  1.6038667  3
   1678   3421   3412   3414     1  0.0000000  1.6038667  3
   1679   1678   3421   3412     1  0.0000000  1.6038667  3
   1680   1678   3421   3412     1  0.0000000  1.6038667  3
   1682   1683   1695   1696     1  0.0000000  0.6508444  3
   1682   1683   1695   1697     1  0.0000000  0.6508444  3
   1682   1686   1698   1699     1  0.0000000  0.6508444  3
   1682   1686   1698   1700     1  0.0000000  0.6508444  3
   1682   1689   1692   1693     1  0.0000000  0.6508444  3
   1682   1689   1692   1694     1  0.0000000  0.6508444  3
   1683   1682   1686   1687     1  0.0000000  1.2552000  3
   1683   1682   1686   1688     1  0.0000000  1.2552000  3
   1683   1682   1689   1690     1  0.0000000  1.2552000  3
   1683   1682   1689   1691     1  0.0000000  1.2552000  3
   1683   1695   1707   1708     1  0.0000000  0.6508444  3
   1683   1695   1707   1709     1  0.0000000  0.6508444  3
   1684   1683   1682   1686     1  0.0000000  1.2552000  3
   1684   1683   1682   1689     1  0.0000000  1.2552000  3
   1684   1683   1695   1707     1  0.0000000  0.6508444  3
   1684   1683   1695   1696     1  0.0000000  0.6508444  3
   1684   1683   1695   1697     1  0.0000000  0.6508444  3
   1685   1683   1682   1686     1  0.0000000  1.2552000  3
   1685   1683   1682   1689     1  0.0000000  1.2552000  3
   1685   1683   1695   1707     1  0.0000000  0.6508444  3
   1685   1683   1695   1696     1  0.0000000  0.6508444  3
   1685   1683   1695   1697     1  0.0000000  0.6508444  3
   1686   1682   1689   1690     1  0.0000000  1.2552000  3
   1686   1682   1689   1691     1  0.0000000  1.2552000  3
   1686   1698   1704   1705     1  0.0000000  0.6508444  3
   1686   1698   1704   1706     1  0.0000000  0.6508444  3
   1687   1686   1682   1689     1  0.0000000  1.2552000  3
   1687   1686   1698   1704     1  0.0000000  0.6508444  3
   1687   1686   1698   1699     1  0.0000000  0.6508444  3
   1687   1686   1698   1700     1  0.0000000  0.6508444  3
   1688   1686   1682   1689     1  0.0000000  1.2552000  3
   1688   1686   1698   1704     1  0.0000000  0.6508444  3
   1688   1686   1698   1699     1  0.0000000  0.6508444  3
   1688   1686   1698   1700     1  0.0000000  0.6508444  3
   1689   1692   1701   1702     1  0.0000000  0.6508444  3
   1689   1692   1701   1703     1  0.0000000  0.6508444  3
   1690   1689   1692   1701     1  0.0000000  0.6508444  3
   1690   1689   1692   1693     1  0.0000000  0.6508444  3
   1690   1689   1692   1694     1  0.0000000  0.6508444  3
   1691   1689   1692   1701     1  0.0000000  0.6508444  3
   1691   1689   1692   1693     1  0.0000000  0.6508444  3
   1691   1689   1692   1694     1  0.0000000  0.6508444  3
   1693   1692   1701   1710     1  0.0000000  1.0460000  1
   1693   1692   1701   1710     1  0.0000000  0.0000000  3
   1693   1692   1701   1702     1  0.0000000  0.6508444  3
   1693   1692   1701   1703     1  0.0000000  0.6508444  3
   1694   1692   1701   1710     1  0.0000000  1.0460000  1
   1694   1692   1701   1710     1  0.0000000  0.0000000  3
   1694   1692   1701   1702     1  0.0000000  0.6508444  3
   1694   1692   1701   1703     1  0.0000000  0.6508444  3
   1696   1695   1707   3479     1  0.0000000  1.0460000  1
   1696   1695   1707   3479     1  0.0000000  0.0000000  3
   1696   1695   1707   1708     1  0.0000000  0.6508444  3
   1696   1695   1707   1709     1  0.0000000  0.6508444  3
   1697   1695   1707   3479     1  0.0000000  1.0460000  1
   1697   1695   1707   3479     1  0.0000000  0.0000000  3
   1697   1695   1707   1708     1  0.0000000  0.6508444  3
   1697   1695   1707   1709     1  0.0000000  0.6508444  3
   1699   1698   1704   3450     1  0.0000000  1.0460000  1
   1699   1698   1704   3450     1  0.0000000  0.0000000  3
   1699   1698   1704   1705     1  0.0000000  0.6508444  3
   1699   1698   1704   1706     1  0.0000000  0.6508444  3
   1700   1698   1704   3450     1  0.0000000  1.0460000  1
   1700   1698   1704   3450     1  0.0000000  0.0000000  3
   1700   1698   1704   1705     1  0.0000000  0.6508444  3
   1700   1698   1704   1706     1  0.0000000  0.6508444  3
   1704   3450   3441   3442     1  0.0000000  1.6038667  3
   1704   3450   3441   3443     1  0.0000000  1.6038667  3
   1705   1704   3450   3441     1  0.0000000  1.6038667  3
   1706   1704   3450   3441     1  0.0000000  1.6038667  3
   1707   3479   3470   3471     1  0.0000000  1.6038667  3
   1707   3479   3470   3472     1  0.0000000  1.6038667  3
   1708   1707   3479   3470     1  0.0000000  1.6038667  3
   1709   1707   3479   3470     1  0.0000000  1.6038667  3
   1711   1712   1724   1725     1  0.0000000  0.6508444  3
   1711   1712   1724   1726     1  0.0000000  0.6508444  3
   1711   1715   1727   1728     1  0.0000000  0.6508444  3
   1711   1715   1727   1729     1  0.0000000  0.6508444  3
   1711   1718   1721   1722     1  0.0000000  0.6508444  3
   1711   1718   1721   1723     1  0.0000000  0.6508444  3
   1712   1711   1715   1716     1  0.0000000  1.2552000  3
   1712   1711   1715   1717     1  0.0000000  1.2552000  3
   1712   1711   1718   1719     1  0.0000000  1.2552000  3
   1712   1711   1718   1720     1  0.0000000  1.2552000  3
   1712   1724   1736   1737     1  0.0000000  0.6508444  3
   1712   1724   1736   1738     1  0.0000000  0.6508444  3
   1713   1712   1711   1715     1  0.0000000  1.2552000  3
   1713   1712   1711   1718     1  0.0000000  1.2552000  3
   1713   1712   1724   1736     1  0.0000000  0.6508444  3
   1713   1712   1724   1725     1  0.0000000  0.6508444  3
   1713   1712   1724   1726     1  0.0000000  0.6508444  3
   1714   1712   1711   1715     1  0.0000000  1.2552000  3
   1714   1712   1711   1718     1  0.0000000  1.2552000  3
   1714   1712   1724   1736     1  0.0000000  0.6508444  3
   1714   1712   1724   1725     1  0.0000000  0.6508444  3
   1714   1712   1724   1726     1  0.0000000  0.6508444  3
   1715   1711   1718   1719     1  0.0000000  1.2552000  3
   1715   1711   1718   1720     1  0.0000000  1.2552000  3
   1715   1727   1733   1734     1  0.0000000  0.6508444  3
   1715   1727   1733   1735     1  0.0000000  0.6508444  3
   1716   1715   1711   1718     1  0.0000000  1.2552000  3
   1716   1715   1727   1733     1  0.0000000  0.6508444  3
   1716   1715   1727   1728     1  0.0000000  0.6508444  3
   1716   1715   1727   1729     1  0.0000000  0.6508444  3
   1717   1715   1711   1718     1  0.0000000  1.2552000  3
   1717   1715   1727   1733     1  0.0000000  0.6508444  3
   1717   1715   1727   1728     1  0.0000000  0.6508444  3
   1717   1715   1727   1729     1  0.0000000  0.6508444  3
   1718   1721   1730   1731     1  0.0000000  0.6508444  3
   1718   1721   1730   1732     1  0.0000000  0.6508444  3
   1719   1718   1721   1730     1  0.0000000  0.6508444  3
   1719   1718   1721   1722     1  0.0000000  0.6508444  3
   1719   1718   1721   1723     1  0.0000000  0.6508444  3
   1720   1718   1721   1730     1  0.0000000  0.6508444  3
   1720   1718   1721   1722     1  0.0000000  0.6508444  3
   1720   1718   1721   1723     1  0.0000000  0.6508444  3
   1722   1721   1730   1739     1  0.0000000  1.0460000  1
   1722   1721   1730   1739     1  0.0000000  0.0000000  3
   1722   1721   1730   1731     1  0.0000000  0.6508444  3
   1722   1721   1730   1732     1  0.0000000  0.6508444  3
   1723   1721   1730   1739     1  0.0000000  1.0460000  1
   1723   1721   1730   1739     1  0.0000000  0.0000000  3
   1723   1721   1730   1731     1  0.0000000  0.6508444  3
   1723   1721   1730   1732     1  0.0000000  0.6508444  3
   1725   1724   1736   3537     1  0.0000000  1.0460000  1
   1725   1724   1736   3537     1  0.0000000  0.0000000  3
   1725   1724   1736   1737     1  0.0000000  0.6508444  3
   1725   1724   1736   1738     1  0.0000000  0.6508444  3
   1726   1724   1736   3537     1  0.0000000  1.0460000  1
   1726   1724   1736   3537     1  0.0000000  0.0000000  3
   1726   1724   1736   1737     1  0.0000000  0.6508444  3
   1726   1724   1736   1738     1  0.0000000  0.6508444  3
   1728   1727   1733   3508     1  0.0000000  1.0460000  1
   1728   1727   1733   3508     1  0.0000000  0.0000000  3
   1728   1727   1733   1734     1  0.0000000  0.6508444  3
   1728   1727   1733   1735     1  0.0000000  0.6508444  3
   1729   1727   1733   3508     1  0.0000000  1.0460000  1
   1729   1727   1733   3508     1  0.0000000  0.0000000  3
   1729   1727   1733   1734     1  0.0000000  0.6508444  3
   1729   1727   1733   1735     1  0.0000000  0.6508444  3
   1733   3508   3499   3500     1  0.0000000  1.6038667  3
   1733   3508   3499   3501     1  0.0000000  1.6038667  3
   1734   1733   3508   3499     1  0.0000000  1.6038667  3
   1735   1733   3508   3499     1  0.0000000  1.6038667  3
   1736   3537   3528   3529     1  0.0000000  1.6038667  3
   1736   3537   3528   3530     1  0.0000000  1.6038667  3
   1737   1736   3537   3528     1  0.0000000  1.6038667  3
   1738   1736   3537   3528     1  0.0000000  1.6038667  3
   1740   1741   1753   1754     1  0.0000000  0.6508444  3
   1740   1741   1753   1755     1  0.0000000  0.6508444  3
   1740   1744   1756   1757     1  0.0000000  0.6508444  3
   1740   1744   1756   1758     1  0.0000000  0.6508444  3
   1740   1747   1750   1751     1  0.0000000  0.6508444  3
   1740   1747   1750   1752     1  0.0000000  0.6508444  3
   1741   1740   1744   1745     1  0.0000000  1.2552000  3
   1741   1740   1744   1746     1  0.0000000  1.2552000  3
   1741   1740   1747   1748     1  0.0000000  1.2552000  3
   1741   1740   1747   1749     1  0.0000000  1.2552000  3
   1741   1753   1765   1766     1  0.0000000  0.6508444  3
   1741   1753   1765   1767     1  0.0000000  0.6508444  3
   1742   1741   1740   1744     1  0.0000000  1.2552000  3
   1742   1741   1740   1747     1  0.0000000  1.2552000  3
   1742   1741   1753   1765     1  0.0000000  0.6508444  3
   1742   1741   1753   1754     1  0.0000000  0.6508444  3
   1742   1741   1753   1755     1  0.0000000  0.6508444  3
   1743   1741   1740   1744     1  0.0000000  1.2552000  3
   1743   1741   1740   1747     1  0.0000000  1.2552000  3
   1743   1741   1753   1765     1  0.0000000  0.6508444  3
   1743   1741   1753   1754     1  0.0000000  0.6508444  3
   1743   1741   1753   1755     1  0.0000000  0.6508444  3
   1744   1740   1747   1748     1  0.0000000  1.2552000  3
   1744   1740   1747   1749     1  0.0000000  1.2552000  3
   1744   1756   1762   1763     1  0.0000000  0.6508444  3
   1744   1756   1762   1764     1  0.0000000  0.6508444  3
   1745   1744   1740   1747     1  0.0000000  1.2552000  3
   1745   1744   1756   1762     1  0.0000000  0.6508444  3
   1745   1744   1756   1757     1  0.0000000  0.6508444  3
   1745   1744   1756   1758     1  0.0000000  0.6508444  3
   1746   1744   1740   1747     1  0.0000000  1.2552000  3
   1746   1744   1756   1762     1  0.0000000  0.6508444  3
   1746   1744   1756   1757     1  0.0000000  0.6508444  3
   1746   1744   1756   1758     1  0.0000000  0.6508444  3
   1747   1750   1759   1760     1  0.0000000  0.6508444  3
   1747   1750   1759   1761     1  0.0000000  0.6508444  3
   1748   1747   1750   1759     1  0.0000000  0.6508444  3
   1748   1747   1750   1751     1  0.0000000  0.6508444  3
   1748   1747   1750   1752     1  0.0000000  0.6508444  3
   1749   1747   1750   1759     1  0.0000000  0.6508444  3
   1749   1747   1750   1751     1  0.0000000  0.6508444  3
   1749   1747   1750   1752     1  0.0000000  0.6508444  3
   1751   1750   1759   1768     1  0.0000000  1.0460000  1
   1751   1750   1759   1768     1  0.0000000  0.0000000  3
   1751   1750   1759   1760     1  0.0000000  0.6508444  3
   1751   1750   1759   1761     1  0.0000000  0.6508444  3
   1752   1750   1759   1768     1  0.0000000  1.0460000  1
   1752   1750   1759   1768     1  0.0000000  0.0000000  3
   1752   1750   1759   1760     1  0.0000000  0.6508444  3
   1752   1750   1759   1761     1  0.0000000  0.6508444  3
   1754   1753   1765   3595     1  0.0000000  1.0460000  1
   1754   1753   1765   3595     1  0.0000000  0.0000000  3
   1754   1753   1765   1766     1  0.0000000  0.6508444  3
   1754   1753   1765   1767     1  0.0000000  0.6508444  3
   1755   1753   1765   3595     1  0.0000000  1.0460000  1
   1755   1753   1765   3595     1  0.0000000  0.0000000  3
   1755   1753   1765   1766     1  0.0000000  0.6508444  3
   1755   1753   1765   1767     1  0.0000000  0.6508444  3
   1757   1756   1762   3566     1  0.0000000  1.0460000  1
   1757   1756   1762   3566     1  0.0000000  0.0000000  3
   1757   1756   1762   1763     1  0.0000000  0.6508444  3
   1757   1756   1762   1764     1  0.0000000  0.6508444  3
   1758   1756   1762   3566     1  0.0000000  1.0460000  1
   1758   1756   1762   3566     1  0.0000000  0.0000000  3
   1758   1756   1762   1763     1  0.0000000  0.6508444  3
   1758   1756   1762   1764     1  0.0000000  0.6508444  3
   1762   3566   3557   3558     1  0.0000000  1.6038667  3
   1762   3566   3557   3559     1  0.0000000  1.6038667  3
   1763   1762   3566   3557     1  0.0000000  1.6038667  3
   1764   1762   3566   3557     1  0.0000000  1.6038667  3
   1765   3595   3586   3587     1  0.0000000  1.6038667  3
   1765   3595   3586   3588     1  0.0000000  1.6038667  3
   1766   1765   3595   3586     1  0.0000000  1.6038667  3
   1767   1765   3595   3586     1  0.0000000  1.6038667  3
   1769   1770   1782   1783     1  0.0000000  0.6508444  3
   1769   1770   1782   1784     1  0.0000000  0.6508444  3
   1769   1773   1785   1786     1  0.0000000  0.6508444  3
   1769   1773   1785   1787     1  0.0000000  0.6508444  3
   1769   1776   1779   1780     1  0.0000000  0.6508444  3
   1769   1776   1779   1781     1  0.0000000  0.6508444  3
   1770   1769   1773   1774     1  0.0000000  1.2552000  3
   1770   1769   1773   1775     1  0.0000000  1.2552000  3
   1770   1769   1776   1777     1  0.0000000  1.2552000  3
   1770   1769   1776   1778     1  0.0000000  1.2552000  3
   1770   1782   1794   1795     1  0.0000000  0.6508444  3
   1770   1782   1794   1796     1  0.0000000  0.6508444  3
   1771   1770   1769   1773     1  0.0000000  1.2552000  3
   1771   1770   1769   1776     1  0.0000000  1.2552000  3
   1771   1770   1782   1794     1  0.0000000  0.6508444  3
   1771   1770   1782   1783     1  0.0000000  0.6508444  3
   1771   1770   1782   1784     1  0.0000000  0.6508444  3
   1772   1770   1769   1773     1  0.0000000  1.2552000  3
   1772   1770   1769   1776     1  0.0000000  1.2552000  3
   1772   1770   1782   1794     1  0.0000000  0.6508444  3
   1772   1770   1782   1783     1  0.0000000  0.6508444  3
   1772   1770   1782   1784     1  0.0000000  0.6508444  3
   1773   1769   1776   1777     1  0.0000000  1.2552000  3
   1773   1769   1776   1778     1  0.0000000  1.2552000  3
   1773   1785   1791   1792     1  0.0000000  0.6508444  3
   1773   1785   1791   1793     1  0.0000000  0.6508444  3
   1774   1773   1769   1776     1  0.0000000  1.2552000  3
   1774   1773   1785   1791     1  0.0000000  0.6508444  3
   1774   1773   1785   1786     1  0.0000000  0.6508444  3
   1774   1773   1785   1787     1  0.0000000  0.6508444  3
   1775   1773   1769   1776     1  0.0000000  1.2552000  3
   1775   1773   1785   1791     1  0.0000000  0.6508444  3
   1775   1773   1785   1786     1  0.0000000  0.6508444  3
   1775   1773   1785   1787     1  0.0000000  0.6508444  3
   1776   1779   1788   1789     1  0.0000000  0.6508444  3
   1776   1779   1788   1790     1  0.0000000  0.6508444  3
   1777   1776   1779   1788     1  0.0000000  0.6508444  3
   1777   1776   1779   1780     1  0.0000000  0.6508444  3
   1777   1776   1779   1781     1  0.0000000  0.6508444  3
   1778   1776   1779   1788     1  0.0000000  0.6508444  3
   1778   1776   1779   1780     1  0.0000000  0.6508444  3
   1778   1776   1779   1781     1  0.0000000  0.6508444  3
   1780   1779   1788   1797     1  0.0000000  1.0460000  1
   1780   1779   1788   1797     1  0.0000000  0.0000000  3
   1780   1779   1788   1789     1  0.0000000  0.6508444  3
   1780   1779   1788   1790     1  0.0000000  0.6508444  3
   1781   1779   1788   1797     1  0.0000000  1.0460000  1
   1781   1779   1788   1797     1  0.0000000  0.0000000  3
   1781   1779   1788   1789     1  0.0000000  0.6508444  3
   1781   1779   1788   1790     1  0.0000000  0.6508444  3
   1783   1782   1794   3653     1  0.0000000  1.0460000  1
   1783   1782   1794   3653     1  0.0000000  0.0000000  3
   1783   1782   1794   1795     1  0.0000000  0.6508444  3
   1783   1782   1794   1796     1  0.0000000  0.6508444  3
   1784   1782   1794   3653     1  0.0000000  1.0460000  1
   1784   1782   1794   3653     1  0.0000000  0.0000000  3
   1784   1782   1794   1795     1  0.0000000  0.6508444  3
   1784   1782   1794   1796     1  0.0000000  0.6508444  3
   1786   1785   1791   3624     1  0.0000000  1.0460000  1
   1786   1785   1791   3624     1  0.0000000  0.0000000  3
   1786   1785   1791   1792     1  0.0000000  0.6508444  3
   1786   1785   1791   1793     1  0.0000000  0.6508444  3
   1787   1785   1791   3624     1  0.0000000  1.0460000  1
   1787   1785   1791   3624     1  0.0000000  0.0000000  3
   1787   1785   1791   1792     1  0.0000000  0.6508444  3
   1787   1785   1791   1793     1  0.0000000  0.6508444  3
   1791   3624   3615   3616     1  0.0000000  1.6038667  3
   1791   3624   3615   3617     1  0.0000000  1.6038667  3
   1792   1791   3624   3615     1  0.0000000  1.6038667  3
   1793   1791   3624   3615     1  0.0000000  1.6038667  3
   1794   3653   3644   3645     1  0.0000000  1.6038667  3
   1794   3653   3644   3646     1  0.0000000  1.6038667  3
   1795   1794   3653   3644     1  0.0000000  1.6038667  3
   1796   1794   3653   3644     1  0.0000000  1.6038667  3
   1798   1799   1811   1812     1  0.0000000  0.6508444  3
   1798   1799   1811   1813     1  0.0000000  0.6508444  3
   1798   1802   1814   1815     1  0.0000000  0.6508444  3
   1798   1802   1814   1816     1  0.0000000  0.6508444  3
   1798   1805   1808   1809     1  0.0000000  0.6508444  3
   1798   1805   1808   1810     1  0.0000000  0.6508444  3
   1799   1798   1802   1803     1  0.0000000  1.2552000  3
   1799   1798   1802   1804     1  0.0000000  1.2552000  3
   1799   1798   1805   1806     1  0.0000000  1.2552000  3
   1799   1798   1805   1807     1  0.0000000  1.2552000  3
   1799   1811   1823   1824     1  0.0000000  0.6508444  3
   1799   1811   1823   1825     1  0.0000000  0.6508444  3
   1800   1799   1798   1802     1  0.0000000  1.2552000  3
   1800   1799   1798   1805     1  0.0000000  1.2552000  3
   1800   1799   1811   1823     1  0.0000000  0.6508444  3
   1800   1799   1811   1812     1  0.0000000  0.6508444  3
   1800   1799   1811   1813     1  0.0000000  0.6508444  3
   1801   1799   1798   1802     1  0.0000000  1.2552000  3
   1801   1799   1798   1805     1  0.0000000  1.2552000  3
   1801   1799   1811   1823     1  0.0000000  0.6508444  3
   1801   1799   1811   1812     1  0.0000000  0.6508444  3
   1801   1799   1811   1813     1  0.0000000  0.6508444  3
   1802   1798   1805   1806     1  0.0000000  1.2552000  3
   1802   1798   1805   1807     1  0.0000000  1.2552000  3
   1802   1814   1820   1821     1  0.0000000  0.6508444  3
   1802   1814   1820   1822     1  0.0000000  0.6508444  3
   1803   1802   1798   1805     1  0.0000000  1.2552000  3
   1803   1802   1814   1820     1  0.0000000  0.6508444  3
   1803   1802   1814   1815     1  0.0000000  0.6508444  3
   1803   1802   1814   1816     1  0.0000000  0.6508444  3
   1804   1802   1798   1805     1  0.0000000  1.2552000  3
   1804   1802   1814   1820     1  0.0000000  0.6508444  3
   1804   1802   1814   1815     1  0.0000000  0.6508444  3
   1804   1802   1814   1816     1  0.0000000  0.6508444  3
   1805   1808   1817   1818     1  0.0000000  0.6508444  3
   1805   1808   1817   1819     1  0.0000000  0.6508444  3
   1806   1805   1808   1817     1  0.0000000  0.6508444  3
   1806   1805   1808   1809     1  0.0000000  0.6508444  3
   1806   1805   1808   1810     1  0.0000000  0.6508444  3
   1807   1805   1808   1817     1  0.0000000  0.6508444  3
   1807   1805   1808   1809     1  0.0000000  0.6508444  3
   1807   1805   1808   1810     1  0.0000000  0.6508444  3
   1809   1808   1817   1826     1  0.0000000  1.0460000  1
   1809   1808   1817   1826     1  0.0000000  0.0000000  3
   1809   1808   1817   1818     1  0.0000000  0.6508444  3
   1809   1808   1817   1819     1  0.0000000  0.6508444  3
   1810   1808   1817   1826     1  0.0000000  1.0460000  1
   1810   1808   1817   1826     1  0.0000000  0.0000000  3
   1810   1808   1817   1818     1  0.0000000  0.6508444  3
   1810   1808   1817   1819     1  0.0000000  0.6508444  3
   1812   1811   1823   3711     1  0.0000000  1.0460000  1
   1812   1811   1823   3711     1  0.0000000  0.0000000  3
   1812   1811   1823   1824     1  0.0000000  0.6508444  3
   1812   1811   1823   1825     1  0.0000000  0.6508444  3
   1813   1811   1823   3711     1  0.0000000  1.0460000  1
   1813   1811   1823   3711     1  0.0000000  0.0000000  3
   1813   1811   1823   1824     1  0.0000000  0.6508444  3
   1813   1811   1823   1825     1  0.0000000  0.6508444  3
   1815   1814   1820   3682     1  0.0000000  1.0460000  1
   1815   1814   1820   3682     1  0.0000000  0.0000000  3
   1815   1814   1820   1821     1  0.0000000  0.6508444  3
   1815   1814   1820   1822     1  0.0000000  0.6508444  3
   1816   1814   1820   3682     1  0.0000000  1.0460000  1
   1816   1814   1820   3682     1  0.0000000  0.0000000  3
   1816   1814   1820   1821     1  0.0000000  0.6508444  3
   1816   1814   1820   1822     1  0.0000000  0.6508444  3
   1820   3682   3654   3655     1  0.0000000  1.6038667  3
   1820   3682   3654   3656     1  0.0000000  1.6038667  3
   1821   1820   3682   3654     1  0.0000000  1.6038667  3
   1822   1820   3682   3654     1  0.0000000  1.6038667  3
   1823   3711   3683   3684     1  0.0000000  1.6038667  3
   1823   3711   3683   3685     1  0.0000000  1.6038667  3
   1824   1823   3711   3683     1  0.0000000  1.6038667  3
   1825   1823   3711   3683     1  0.0000000  1.6038667  3
   1827   1828   1840   1841     1  0.0000000  0.6508444  3
   1827   1828   1840   1842     1  0.0000000  0.6508444  3
   1827   1831   1843   1844     1  0.0000000  0.6508444  3
   1827   1831   1843   1845     1  0.0000000  0.6508444  3
   1827   1834   1837   1838     1  0.0000000  0.6508444  3
   1827   1834   1837   1839     1  0.0000000  0.6508444  3
   1828   1827   1831   1832     1  0.0000000  1.2552000  3
   1828   1827   1831   1833     1  0.0000000  1.2552000  3
   1828   1827   1834   1835     1  0.0000000  1.2552000  3
   1828   1827   1834   1836     1  0.0000000  1.2552000  3
   1828   1840   1852   1853     1  0.0000000  0.6508444  3
   1828   1840   1852   1854     1  0.0000000  0.6508444  3
   1829   1828   1827   1831     1  0.0000000  1.2552000  3
   1829   1828   1827   1834     1  0.0000000  1.2552000  3
   1829   1828   1840   1852     1  0.0000000  0.6508444  3
   1829   1828   1840   1841     1  0.0000000  0.6508444  3
   1829   1828   1840   1842     1  0.0000000  0.6508444  3
   1830   1828   1827   1831     1  0.0000000  1.2552000  3
   1830   1828   1827   1834     1  0.0000000  1.2552000  3
   1830   1828   1840   1852     1  0.0000000  0.6508444  3
   1830   1828   1840   1841     1  0.0000000  0.6508444  3
   1830   1828   1840   1842     1  0.0000000  0.6508444  3
   1831   1827   1834   1835     1  0.0000000  1.2552000  3
   1831   1827   1834   1836     1  0.0000000  1.2552000  3
   1831   1843   1849   1850     1  0.0000000  0.6508444  3
   1831   1843   1849   1851     1  0.0000000  0.6508444  3
   1832   1831   1827   1834     1  0.0000000  1.2552000  3
   1832   1831   1843   1849     1  0.0000000  0.6508444  3
   1832   1831   1843   1844     1  0.0000000  0.6508444  3
   1832   1831   1843   1845     1  0.0000000  0.6508444  3
   1833   1831   1827   1834     1  0.0000000  1.2552000  3
   1833   1831   1843   1849     1  0.0000000  0.6508444  3
   1833   1831   1843   1844     1  0.0000000  0.6508444  3
   1833   1831   1843   1845     1  0.0000000  0.6508444  3
   1834   1837   1846   1847     1  0.0000000  0.6508444  3
   1834   1837   1846   1848     1  0.0000000  0.6508444  3
   1835   1834   1837   1846     1  0.0000000  0.6508444  3
   1835   1834   1837   1838     1  0.0000000  0.6508444  3
   1835   1834   1837   1839     1  0.0000000  0.6508444  3
   1836   1834   1837   1846     1  0.0000000  0.6508444  3
   1836   1834   1837   1838     1  0.0000000  0.6508444  3
   1836   1834   1837   1839     1  0.0000000  0.6508444  3
   1838   1837   1846   1855     1  0.0000000  1.0460000  1
   1838   1837   1846   1855     1  0.0000000  0.0000000  3
   1838   1837   1846   1847     1  0.0000000  0.6508444  3
   1838   1837   1846   1848     1  0.0000000  0.6508444  3
   1839   1837   1846   1855     1  0.0000000  1.0460000  1
   1839   1837   1846   1855     1  0.0000000  0.0000000  3
   1839   1837   1846   1847     1  0.0000000  0.6508444  3
   1839   1837   1846   1848     1  0.0000000  0.6508444  3
   1841   1840   1852   3769     1  0.0000000  1.0460000  1
   1841   1840   1852   3769     1  0.0000000  0.0000000  3
   1841   1840   1852   1853     1  0.0000000  0.6508444  3
   1841   1840   1852   1854     1  0.0000000  0.6508444  3
   1842   1840   1852   3769     1  0.0000000  1.0460000  1
   1842   1840   1852   3769     1  0.0000000  0.0000000  3
   1842   1840   1852   1853     1  0.0000000  0.6508444  3
   1842   1840   1852   1854     1  0.0000000  0.6508444  3
   1844   1843   1849   3740     1  0.0000000  1.0460000  1
   1844   1843   1849   3740     1  0.0000000  0.0000000  3
   1844   1843   1849   1850     1  0.0000000  0.6508444  3
   1844   1843   1849   1851     1  0.0000000  0.6508444  3
   1845   1843   1849   3740     1  0.0000000  1.0460000  1
   1845   1843   1849   3740     1  0.0000000  0.0000000  3
   1845   1843   1849   1850     1  0.0000000  0.6508444  3
   1845   1843   1849   1851     1  0.0000000  0.6508444  3
   1849   3740   3712   3713     1  0.0000000  1.6038667  3
   1849   3740   3712   3714     1  0.0000000  1.6038667  3
   1850   1849   3740   3712     1  0.0000000  1.6038667  3
   1851   1849   3740   3712     1  0.0000000  1.6038667  3
   1852   3769   3741   3742     1  0.0000000  1.6038667  3
   1852   3769   3741   3743     1  0.0000000  1.6038667  3
   1853   1852   3769   3741     1  0.0000000  1.6038667  3
   1854   1852   3769   3741     1  0.0000000  1.6038667  3
   1856   1857   1869   1870     1  0.0000000  0.6508444  3
   1856   1857   1869   1871     1  0.0000000  0.6508444  3
   1856   1860   1872   1873     1  0.0000000  0.6508444  3
   1856   1860   1872   1874     1  0.0000000  0.6508444  3
   1856   1863   1866   1867     1  0.0000000  0.6508444  3
   1856   1863   1866   1868     1  0.0000000  0.6508444  3
   1857   1856   1860   1861     1  0.0000000  1.2552000  3
   1857   1856   1860   1862     1  0.0000000  1.2552000  3
   1857   1856   1863   1864     1  0.0000000  1.2552000  3
   1857   1856   1863   1865     1  0.0000000  1.2552000  3
   1857   1869   1881   1882     1  0.0000000  0.6508444  3
   1857   1869   1881   1883     1  0.0000000  0.6508444  3
   1858   1857   1856   1860     1  0.0000000  1.2552000  3
   1858   1857   1856   1863     1  0.0000000  1.2552000  3
   1858   1857   1869   1881     1  0.0000000  0.6508444  3
   1858   1857   1869   1870     1  0.0000000  0.6508444  3
   1858   1857   1869   1871     1  0.0000000  0.6508444  3
   1859   1857   1856   1860     1  0.0000000  1.2552000  3
   1859   1857   1856   1863     1  0.0000000  1.2552000  3
   1859   1857   1869   1881     1  0.0000000  0.6508444  3
   1859   1857   1869   1870     1  0.0000000  0.6508444  3
   1859   1857   1869   1871     1  0.0000000  0.6508444  3
   1860   1856   1863   1864     1  0.0000000  1.2552000  3
   1860   1856   1863   1865     1  0.0000000  1.2552000  3
   1860   1872   1878   1879     1  0.0000000  0.6508444  3
   1860   1872   1878   1880     1  0.0000000  0.6508444  3
   1861   1860   1856   1863     1  0.0000000  1.2552000  3
   1861   1860   1872   1878     1  0.0000000  0.6508444  3
   1861   1860   1872   1873     1  0.0000000  0.6508444  3
   1861   1860   1872   1874     1  0.0000000  0.6508444  3
   1862   1860   1856   1863     1  0.0000000  1.2552000  3
   1862   1860   1872   1878     1  0.0000000  0.6508444  3
   1862   1860   1872   1873     1  0.0000000  0.6508444  3
   1862   1860   1872   1874     1  0.0000000  0.6508444  3
   1863   1866   1875   1876     1  0.0000000  0.6508444  3
   1863   1866   1875   1877     1  0.0000000  0.6508444  3
   1864   1863   1866   1875     1  0.0000000  0.6508444  3
   1864   1863   1866   1867     1  0.0000000  0.6508444  3
   1864   1863   1866   1868     1  0.0000000  0.6508444  3
   1865   1863   1866   1875     1  0.0000000  0.6508444  3
   1865   1863   1866   1867     1  0.0000000  0.6508444  3
   1865   1863   1866   1868     1  0.0000000  0.6508444  3
   1867   1866   1875   1884     1  0.0000000  1.0460000  1
   1867   1866   1875   1884     1  0.0000000  0.0000000  3
   1867   1866   1875   1876     1  0.0000000  0.6508444  3
   1867   1866   1875   1877     1  0.0000000  0.6508444  3
   1868   1866   1875   1884     1  0.0000000  1.0460000  1
   1868   1866   1875   1884     1  0.0000000  0.0000000  3
   1868   1866   1875   1876     1  0.0000000  0.6508444  3
   1868   1866   1875   1877     1  0.0000000  0.6508444  3
   1870   1869   1881   3827     1  0.0000000  1.0460000  1
   1870   1869   1881   3827     1  0.0000000  0.0000000  3
   1870   1869   1881   1882     1  0.0000000  0.6508444  3
   1870   1869   1881   1883     1  0.0000000  0.6508444  3
   1871   1869   1881   3827     1  0.0000000  1.0460000  1
   1871   1869   1881   3827     1  0.0000000  0.0000000  3
   1871   1869   1881   1882     1  0.0000000  0.6508444  3
   1871   1869   1881   1883     1  0.0000000  0.6508444  3
   1873   1872   1878   3798     1  0.0000000  1.0460000  1
   1873   1872   1878   3798     1  0.0000000  0.0000000  3
   1873   1872   1878   1879     1  0.0000000  0.6508444  3
   1873   1872   1878   1880     1  0.0000000  0.6508444  3
   1874   1872   1878   3798     1  0.0000000  1.0460000  1
   1874   1872   1878   3798     1  0.0000000  0.0000000  3
   1874   1872   1878   1879     1  0.0000000  0.6508444  3
   1874   1872   1878   1880     1  0.0000000  0.6508444  3
   1878   3798   3770   3771     1  0.0000000  1.6038667  3
   1878   3798   3770   3772     1  0.0000000  1.6038667  3
   1879   1878   3798   3770     1  0.0000000  1.6038667  3
   1880   1878   3798   3770     1  0.0000000  1.6038667  3
   1881   3827   3799   3800     1  0.0000000  1.6038667  3
   1881   3827   3799   3801     1  0.0000000  1.6038667  3
   1882   1881   3827   3799     1  0.0000000  1.6038667  3
   1883   1881   3827   3799     1  0.0000000  1.6038667  3
   1885   1886   1898   1899     1  0.0000000  0.6508444  3
   1885   1886   1898   1900     1  0.0000000  0.6508444  3
   1885   1889   1901   1902     1  0.0000000  0.6508444  3
   1885   1889   1901   1903     1  0.0000000  0.6508444  3
   1885   1892   1895   1896     1  0.0000000  0.6508444  3
   1885   1892   1895   1897     1  0.0000000  0.6508444  3
   1886   1885   1889   1890     1  0.0000000  1.2552000  3
   1886   1885   1889   1891     1  0.0000000  1.2552000  3
   1886   1885   1892   1893     1  0.0000000  1.2552000  3
   1886   1885   1892   1894     1  0.0000000  1.2552000  3
   1886   1898   1910   1911     1  0.0000000  0.6508444  3
   1886   1898   1910   1912     1  0.0000000  0.6508444  3
   1887   1886   1885   1889     1  0.0000000  1.2552000  3
   1887   1886   1885   1892     1  0.0000000  1.2552000  3
   1887   1886   1898   1910     1  0.0000000  0.6508444  3
   1887   1886   1898   1899     1  0.0000000  0.6508444  3
   1887   1886   1898   1900     1  0.0000000  0.6508444  3
   1888   1886   1885   1889     1  0.0000000  1.2552000  3
   1888   1886   1885   1892     1  0.0000000  1.2552000  3
   1888   1886   1898   1910     1  0.0000000  0.6508444  3
   1888   1886   1898   1899     1  0.0000000  0.6508444  3
   1888   1886   1898   1900     1  0.0000000  0.6508444  3
   1889   1885   1892   1893     1  0.0000000  1.2552000  3
   1889   1885   1892   1894     1  0.0000000  1.2552000  3
   1889   1901   1907   1908     1  0.0000000  0.6508444  3
   1889   1901   1907   1909     1  0.0000000  0.6508444  3
   1890   1889   1885   1892     1  0.0000000  1.2552000  3
   1890   1889   1901   1907     1  0.0000000  0.6508444  3
   1890   1889   1901   1902     1  0.0000000  0.6508444  3
   1890   1889   1901   1903     1  0.0000000  0.6508444  3
   1891   1889   1885   1892     1  0.0000000  1.2552000  3
   1891   1889   1901   1907     1  0.0000000  0.6508444  3
   1891   1889   1901   1902     1  0.0000000  0.6508444  3
   1891   1889   1901   1903     1  0.0000000  0.6508444  3
   1892   1895   1904   1905     1  0.0000000  0.6508444  3
   1892   1895   1904   1906     1  0.0000000  0.6508444  3
   1893   1892   1895   1904     1  0.0000000  0.6508444  3
   1893   1892   1895   1896     1  0.0000000  0.6508444  3
   1893   1892   1895   1897     1  0.0000000  0.6508444  3
   1894   1892   1895   1904     1  0.0000000  0.6508444  3
   1894   1892   1895   1896     1  0.0000000  0.6508444  3
   1894   1892   1895   1897     1  0.0000000  0.6508444  3
   1896   1895   1904   1913     1  0.0000000  1.0460000  1
   1896   1895   1904   1913     1  0.0000000  0.0000000  3
   1896   1895   1904   1905     1  0.0000000  0.6508444  3
   1896   1895   1904   1906     1  0.0000000  0.6508444  3
   1897   1895   1904   1913     1  0.0000000  1.0460000  1
   1897   1895   1904   1913     1  0.0000000  0.0000000  3
   1897   1895   1904   1905     1  0.0000000  0.6508444  3
   1897   1895   1904   1906     1  0.0000000  0.6508444  3
   1899   1898   1910   3885     1  0.0000000  1.0460000  1
   1899   1898   1910   3885     1  0.0000000  0.0000000  3
   1899   1898   1910   1911     1  0.0000000  0.6508444  3
   1899   1898   1910   1912     1  0.0000000  0.6508444  3
   1900   1898   1910   3885     1  0.0000000  1.0460000  1
   1900   1898   1910   3885     1  0.0000000  0.0000000  3
   1900   1898   1910   1911     1  0.0000000  0.6508444  3
   1900   1898   1910   1912     1  0.0000000  0.6508444  3
   1902   1901   1907   3856     1  0.0000000  1.0460000  1
   1902   1901   1907   3856     1  0.0000000  0.0000000  3
   1902   1901   1907   1908     1  0.0000000  0.6508444  3
   1902   1901   1907   1909     1  0.0000000  0.6508444  3
   1903   1901   1907   3856     1  0.0000000  1.0460000  1
   1903   1901   1907   3856     1  0.0000000  0.0000000  3
   1903   1901   1907   1908     1  0.0000000  0.6508444  3
   1903   1901   1907   1909     1  0.0000000  0.6508444  3
   1907   3856   3828   3829     1  0.0000000  1.6038667  3
   1907   3856   3828   3830     1  0.0000000  1.6038667  3
   1908   1907   3856   3828     1  0.0000000  1.6038667  3
   1909   1907   3856   3828     1  0.0000000  1.6038667  3
   1910   3885   3857   3858     1  0.0000000  1.6038667  3
   1910   3885   3857   3859     1  0.0000000  1.6038667  3
   1911   1910   3885   3857     1  0.0000000  1.6038667  3
   1912   1910   3885   3857     1  0.0000000  1.6038667  3
   1914   1915   1927   1928     1  0.0000000  0.6508444  3
   1914   1915   1927   1929     1  0.0000000  0.6508444  3
   1914   1918   1930   1931     1  0.0000000  0.6508444  3
   1914   1918   1930   1932     1  0.0000000  0.6508444  3
   1914   1921   1924   1925     1  0.0000000  0.6508444  3
   1914   1921   1924   1926     1  0.0000000  0.6508444  3
   1915   1914   1918   1919     1  0.0000000  1.2552000  3
   1915   1914   1918   1920     1  0.0000000  1.2552000  3
   1915   1914   1921   1922     1  0.0000000  1.2552000  3
   1915   1914   1921   1923     1  0.0000000  1.2552000  3
   1915   1927   1939   1940     1  0.0000000  0.6508444  3
   1915   1927   1939   1941     1  0.0000000  0.6508444  3
   1916   1915   1914   1918     1  0.0000000  1.2552000  3
   1916   1915   1914   1921     1  0.0000000  1.2552000  3
   1916   1915   1927   1939     1  0.0000000  0.6508444  3
   1916   1915   1927   1928     1  0.0000000  0.6508444  3
   1916   1915   1927   1929     1  0.0000000  0.6508444  3
   1917   1915   1914   1918     1  0.0000000  1.2552000  3
   1917   1915   1914   1921     1  0.0000000  1.2552000  3
   1917   1915   1927   1939     1  0.0000000  0.6508444  3
   1917   1915   1927   1928     1  0.0000000  0.6508444  3
   1917   1915   1927   1929     1  0.0000000  0.6508444  3
   1918   1914   1921   1922     1  0.0000000  1.2552000  3
   1918   1914   1921   1923     1  0.0000000  1.2552000  3
   1918   1930   1936   1937     1  0.0000000  0.6508444  3
   1918   1930   1936   1938     1  0.0000000  0.6508444  3
   1919   1918   1914   1921     1  0.0000000  1.2552000  3
   1919   1918   1930   1936     1  0.0000000  0.6508444  3
   1919   1918   1930   1931     1  0.0000000  0.6508444  3
   1919   1918   1930   1932     1  0.0000000  0.6508444  3
   1920   1918   1914   1921     1  0.0000000  1.2552000  3
   1920   1918   1930   1936     1  0.0000000  0.6508444  3
   1920   1918   1930   1931     1  0.0000000  0.6508444  3
   1920   1918   1930   1932     1  0.0000000  0.6508444  3
   1921   1924   1933   1934     1  0.0000000  0.6508444  3
   1921   1924   1933   1935     1  0.0000000  0.6508444  3
   1922   1921   1924   1933     1  0.0000000  0.6508444  3
   1922   1921   1924   1925     1  0.0000000  0.6508444  3
   1922   1921   1924   1926     1  0.0000000  0.6508444  3
   1923   1921   1924   1933     1  0.0000000  0.6508444  3
   1923   1921   1924   1925     1  0.0000000  0.6508444  3
   1923   1921   1924   1926     1  0.0000000  0.6508444  3
   1925   1924   1933   1942     1  0.0000000  1.0460000  1
   1925   1924   1933   1942     1  0.0000000  0.0000000  3
   1925   1924   1933   1934     1  0.0000000  0.6508444  3
   1925   1924   1933   1935     1  0.0000000  0.6508444  3
   1926   1924   1933   1942     1  0.0000000  1.0460000  1
   1926   1924   1933   1942     1  0.0000000  0.0000000  3
   1926   1924   1933   1934     1  0.0000000  0.6508444  3
   1926   1924   1933   1935     1  0.0000000  0.6508444  3
   1928   1927   1939   3943     1  0.0000000  1.0460000  1
   1928   1927   1939   3943     1  0.0000000  0.0000000  3
   1928   1927   1939   1940     1  0.0000000  0.6508444  3
   1928   1927   1939   1941     1  0.0000000  0.6508444  3
   1929   1927   1939   3943     1  0.0000000  1.0460000  1
   1929   1927   1939   3943     1  0.0000000  0.0000000  3
   1929   1927   1939   1940     1  0.0000000  0.6508444  3
   1929   1927   1939   1941     1  0.0000000  0.6508444  3
   1931   1930   1936   3914     1  0.0000000  1.0460000  1
   1931   1930   1936   3914     1  0.0000000  0.0000000  3
   1931   1930   1936   1937     1  0.0000000  0.6508444  3
   1931   1930   1936   1938     1  0.0000000  0.6508444  3
   1932   1930   1936   3914     1  0.0000000  1.0460000  1
   1932   1930   1936   3914     1  0.0000000  0.0000000  3
   1932   1930   1936   1937     1  0.0000000  0.6508444  3
   1932   1930   1936   1938     1  0.0000000  0.6508444  3
   1936   3914   3886   3887     1  0.0000000  1.6038667  3
   1936   3914   3886   3888     1  0.0000000  1.6038667  3
   1937   1936   3914   3886     1  0.0000000  1.6038667  3
   1938   1936   3914   3886     1  0.0000000  1.6038667  3
   1939   3943   3915   3916     1  0.0000000  1.6038667  3
   1939   3943   3915   3917     1  0.0000000  1.6038667  3
   1940   1939   3943   3915     1  0.0000000  1.6038667  3
   1941   1939   3943   3915     1  0.0000000  1.6038667  3
   1943   1944   1956   1957     1  0.0000000  0.6508444  3
   1943   1944   1956   1958     1  0.0000000  0.6508444  3
   1943   1947   1959   1960     1  0.0000000  0.6508444  3
   1943   1947   1959   1961     1  0.0000000  0.6508444  3
   1943   1950   1953   1954     1  0.0000000  0.6508444  3
   1943   1950   1953   1955     1  0.0000000  0.6508444  3
   1944   1943   1947   1948     1  0.0000000  1.2552000  3
   1944   1943   1947   1949     1  0.0000000  1.2552000  3
   1944   1943   1950   1951     1  0.0000000  1.2552000  3
   1944   1943   1950   1952     1  0.0000000  1.2552000  3
   1944   1956   1968   1969     1  0.0000000  0.6508444  3
   1944   1956   1968   1970     1  0.0000000  0.6508444  3
   1945   1944   1943   1947     1  0.0000000  1.2552000  3
   1945   1944   1943   1950     1  0.0000000  1.2552000  3
   1945   1944   1956   1968     1  0.0000000  0.6508444  3
   1945   1944   1956   1957     1  0.0000000  0.6508444  3
   1945   1944   1956   1958     1  0.0000000  0.6508444  3
   1946   1944   1943   1947     1  0.0000000  1.2552000  3
   1946   1944   1943   1950     1  0.0000000  1.2552000  3
   1946   1944   1956   1968     1  0.0000000  0.6508444  3
   1946   1944   1956   1957     1  0.0000000  0.6508444  3
   1946   1944   1956   1958     1  0.0000000  0.6508444  3
   1947   1943   1950   1951     1  0.0000000  1.2552000  3
   1947   1943   1950   1952     1  0.0000000  1.2552000  3
   1947   1959   1965   1966     1  0.0000000  0.6508444  3
   1947   1959   1965   1967     1  0.0000000  0.6508444  3
   1948   1947   1943   1950     1  0.0000000  1.2552000  3
   1948   1947   1959   1965     1  0.0000000  0.6508444  3
   1948   1947   1959   1960     1  0.0000000  0.6508444  3
   1948   1947   1959   1961     1  0.0000000  0.6508444  3
   1949   1947   1943   1950     1  0.0000000  1.2552000  3
   1949   1947   1959   1965     1  0.0000000  0.6508444  3
   1949   1947   1959   1960     1  0.0000000  0.6508444  3
   1949   1947   1959   1961     1  0.0000000  0.6508444  3
   1950   1953   1962   1963     1  0.0000000  0.6508444  3
   1950   1953   1962   1964     1  0.0000000  0.6508444  3
   1951   1950   1953   1962     1  0.0000000  0.6508444  3
   1951   1950   1953   1954     1  0.0000000  0.6508444  3
   1951   1950   1953   1955     1  0.0000000  0.6508444  3
   1952   1950   1953   1962     1  0.0000000  0.6508444  3
   1952   1950   1953   1954     1  0.0000000  0.6508444  3
   1952   1950   1953   1955     1  0.0000000  0.6508444  3
   1954   1953   1962   1971     1  0.0000000  1.0460000  1
   1954   1953   1962   1971     1  0.0000000  0.0000000  3
   1954   1953   1962   1963     1  0.0000000  0.6508444  3
   1954   1953   1962   1964     1  0.0000000  0.6508444  3
   1955   1953   1962   1971     1  0.0000000  1.0460000  1
   1955   1953   1962   1971     1  0.0000000  0.0000000  3
   1955   1953   1962   1963     1  0.0000000  0.6508444  3
   1955   1953   1962   1964     1  0.0000000  0.6508444  3
   1957   1956   1968   4001     1  0.0000000  1.0460000  1
   1957   1956   1968   4001     1  0.0000000  0.0000000  3
   1957   1956   1968   1969     1  0.0000000  0.6508444  3
   1957   1956   1968   1970     1  0.0000000  0.6508444  3
   1958   1956   1968   4001     1  0.0000000  1.0460000  1
   1958   1956   1968   4001     1  0.0000000  0.0000000  3
   1958   1956   1968   1969     1  0.0000000  0.6508444  3
   1958   1956   1968   1970     1  0.0000000  0.6508444  3
   1960   1959   1965   3972     1  0.0000000  1.0460000  1
   1960   1959   1965   3972     1  0.0000000  0.0000000  3
   1960   1959   1965   1966     1  0.0000000  0.6508444  3
   1960   1959   1965   1967     1  0.0000000  0.6508444  3
   1961   1959   1965   3972     1  0.0000000  1.0460000  1
   1961   1959   1965   3972     1  0.0000000  0.0000000  3
   1961   1959   1965   1966     1  0.0000000  0.6508444  3
   1961   1959   1965   1967     1  0.0000000  0.6508444  3
   1965   3972   3944   3945     1  0.0000000  1.6038667  3
   1965   3972   3944   3946     1  0.0000000  1.6038667  3
   1966   1965   3972   3944     1  0.0000000  1.6038667  3
   1967   1965   3972   3944     1  0.0000000  1.6038667  3
   1968   4001   3973   3974     1  0.0000000  1.6038667  3
   1968   4001   3973   3975     1  0.0000000  1.6038667  3
   1969   1968   4001   3973     1  0.0000000  1.6038667  3
   1970   1968   4001   3973     1  0.0000000  1.6038667  3
   1972   1973   1985   1986     1  0.0000000  0.6508444  3
   1972   1973   1985   1987     1  0.0000000  0.6508444  3
   1972   1976   1988   1989     1  0.0000000  0.6508444  3
   1972   1976   1988   1990     1  0.0000000  0.6508444  3
   1972   1979   1982   1983     1  0.0000000  0.6508444  3
   1972   1979   1982   1984     1  0.0000000  0.6508444  3
   1973   1972   1976   1977     1  0.0000000  1.2552000  3
   1973   1972   1976   1978     1  0.0000000  1.2552000  3
   1973   1972   1979   1980     1  0.0000000  1.2552000  3
   1973   1972   1979   1981     1  0.0000000  1.2552000  3
   1973   1985   1997   1998     1  0.0000000  0.6508444  3
   1973   1985   1997   1999     1  0.0000000  0.6508444  3
   1974   1973   1972   1976     1  0.0000000  1.2552000  3
   1974   1973   1972   1979     1  0.0000000  1.2552000  3
   1974   1973   1985   1997     1  0.0000000  0.6508444  3
   1974   1973   1985   1986     1  0.0000000  0.6508444  3
   1974   1973   1985   1987     1  0.0000000  0.6508444  3
   1975   1973   1972   1976     1  0.0000000  1.2552000  3
   1975   1973   1972   1979     1  0.0000000  1.2552000  3
   1975   1973   1985   1997     1  0.0000000  0.6508444  3
   1975   1973   1985   1986     1  0.0000000  0.6508444  3
   1975   1973   1985   1987     1  0.0000000  0.6508444  3
   1976   1972   1979   1980     1  0.0000000  1.2552000  3
   1976   1972   1979   1981     1  0.0000000  1.2552000  3
   1976   1988   1994   1995     1  0.0000000  0.6508444  3
   1976   1988   1994   1996     1  0.0000000  0.6508444  3
   1977   1976   1972   1979     1  0.0000000  1.2552000  3
   1977   1976   1988   1994     1  0.0000000  0.6508444  3
   1977   1976   1988   1989     1  0.0000000  0.6508444  3
   1977   1976   1988   1990     1  0.0000000  0.6508444  3
   1978   1976   1972   1979     1  0.0000000  1.2552000  3
   1978   1976   1988   1994     1  0.0000000  0.6508444  3
   1978   1976   1988   1989     1  0.0000000  0.6508444  3
   1978   1976   1988   1990     1  0.0000000  0.6508444  3
   1979   1982   1991   1992     1  0.0000000  0.6508444  3
   1979   1982   1991   1993     1  0.0000000  0.6508444  3
   1980   1979   1982   1991     1  0.0000000  0.6508444  3
   1980   1979   1982   1983     1  0.0000000  0.6508444  3
   1980   1979   1982   1984     1  0.0000000  0.6508444  3
   1981   1979   1982   1991     1  0.0000000  0.6508444  3
   1981   1979   1982   1983     1  0.0000000  0.6508444  3
   1981   1979   1982   1984     1  0.0000000  0.6508444  3
   1983   1982   1991   2000     1  0.0000000  1.0460000  1
   1983   1982   1991   2000     1  0.0000000  0.0000000  3
   1983   1982   1991   1992     1  0.0000000  0.6508444  3
   1983   1982   1991   1993     1  0.0000000  0.6508444  3
   1984   1982   1991   2000     1  0.0000000  1.0460000  1
   1984   1982   1991   2000     1  0.0000000  0.0000000  3
   1984   1982   1991   1992     1  0.0000000  0.6508444  3
   1984   1982   1991   1993     1  0.0000000  0.6508444  3
   1986   1985   1997   4059     1  0.0000000  1.0460000  1
   1986   1985   1997   4059     1  0.0000000  0.0000000  3
   1986   1985   1997   1998     1  0.0000000  0.6508444  3
   1986   1985   1997   1999     1  0.0000000  0.6508444  3
   1987   1985   1997   4059     1  0.0000000  1.0460000  1
   1987   1985   1997   4059     1  0.0000000  0.0000000  3
   1987   1985   1997   1998     1  0.0000000  0.6508444  3
   1987   1985   1997   1999     1  0.0000000  0.6508444  3
   1989   1988   1994   4030     1  0.0000000  1.0460000  1
   1989   1988   1994   4030     1  0.0000000  0.0000000  3
   1989   1988   1994   1995     1  0.0000000  0.6508444  3
   1989   1988   1994   1996     1  0.0000000  0.6508444  3
   1990   1988   1994   4030     1  0.0000000  1.0460000  1
   1990   1988   1994   4030     1  0.0000000  0.0000000  3
   1990   1988   1994   1995     1  0.0000000  0.6508444  3
   1990   1988   1994   1996     1  0.0000000  0.6508444  3
   1994   4030   4002   4003     1  0.0000000  1.6038667  3
   1994   4030   4002   4004     1  0.0000000  1.6038667  3
   1995   1994   4030   4002     1  0.0000000  1.6038667  3
   1996   1994   4030   4002     1  0.0000000  1.6038667  3
   1997   4059   4031   4032     1  0.0000000  1.6038667  3
   1997   4059   4031   4033     1  0.0000000  1.6038667  3
   1998   1997   4059   4031     1  0.0000000  1.6038667  3
   1999   1997   4059   4031     1  0.0000000  1.6038667  3
   2001   2002   2014   2015     1  0.0000000  0.6508444  3
   2001   2002   2014   2016     1  0.0000000  0.6508444  3
   2001   2005   2017   2018     1  0.0000000  0.6508444  3
   2001   2005   2017   2019     1  0.0000000  0.6508444  3
   2001   2008   2011   2012     1  0.0000000  0.6508444  3
   2001   2008   2011   2013     1  0.0000000  0.6508444  3
   2002   2001   2005   2006     1  0.0000000  1.2552000  3
   2002   2001   2005   2007     1  0.0000000  1.2552000  3
   2002   2001   2008   2009     1  0.0000000  1.2552000  3
   2002   2001   2008   2010     1  0.0000000  1.2552000  3
   2002   2014   2026   2027     1  0.0000000  0.6508444  3
   2002   2014   2026   2028     1  0.0000000  0.6508444  3
   2003   2002   2001   2005     1  0.0000000  1.2552000  3
   2003   2002   2001   2008     1  0.0000000  1.2552000  3
   2003   2002   2014   2026     1  0.0000000  0.6508444  3
   2003   2002   2014   2015     1  0.0000000  0.6508444  3
   2003   2002   2014   2016     1  0.0000000  0.6508444  3
   2004   2002   2001   2005     1  0.0000000  1.2552000  3
   2004   2002   2001   2008     1  0.0000000  1.2552000  3
   2004   2002   2014   2026     1  0.0000000  0.6508444  3
   2004   2002   2014   2015     1  0.0000000  0.6508444  3
   2004   2002   2014   2016     1  0.0000000  0.6508444  3
   2005   2001   2008   2009     1  0.0000000  1.2552000  3
   2005   2001   2008   2010     1  0.0000000  1.2552000  3
   2005   2017   2023   2024     1  0.0000000  0.6508444  3
   2005   2017   2023   2025     1  0.0000000  0.6508444  3
   2006   2005   2001   2008     1  0.0000000  1.2552000  3
   2006   2005   2017   2023     1  0.0000000  0.6508444  3
   2006   2005   2017   2018     1  0.0000000  0.6508444  3
   2006   2005   2017   2019     1  0.0000000  0.6508444  3
   2007   2005   2001   2008     1  0.0000000  1.2552000  3
   2007   2005   2017   2023     1  0.0000000  0.6508444  3
   2007   2005   2017   2018     1  0.0000000  0.6508444  3
   2007   2005   2017   2019     1  0.0000000  0.6508444  3
   2008   2011   2020   2021     1  0.0000000  0.6508444  3
   2008   2011   2020   2022     1  0.0000000  0.6508444  3
   2009   2008   2011   2020     1  0.0000000  0.6508444  3
   2009   2008   2011   2012     1  0.0000000  0.6508444  3
   2009   2008   2011   2013     1  0.0000000  0.6508444  3
   2010   2008   2011   2020     1  0.0000000  0.6508444  3
   2010   2008   2011   2012     1  0.0000000  0.6508444  3
   2010   2008   2011   2013     1  0.0000000  0.6508444  3
   2012   2011   2020   2029     1  0.0000000  1.0460000  1
   2012   2011   2020   2029     1  0.0000000  0.0000000  3
   2012   2011   2020   2021     1  0.0000000  0.6508444  3
   2012   2011   2020   2022     1  0.0000000  0.6508444  3
   2013   2011   2020   2029     1  0.0000000  1.0460000  1
   2013   2011   2020   2029     1  0.0000000  0.0000000  3
   2013   2011   2020   2021     1  0.0000000  0.6508444  3
   2013   2011   2020   2022     1  0.0000000  0.6508444  3
   2015   2014   2026   4117     1  0.0000000  1.0460000  1
   2015   2014   2026   4117     1  0.0000000  0.0000000  3
   2015   2014   2026   2027     1  0.0000000  0.6508444  3
   2015   2014   2026   2028     1  0.0000000  0.6508444  3
   2016   2014   2026   4117     1  0.0000000  1.0460000  1
   2016   2014   2026   4117     1  0.0000000  0.0000000  3
   2016   2014   2026   2027     1  0.0000000  0.6508444  3
   2016   2014   2026   2028     1  0.0000000  0.6508444  3
   2018   2017   2023   4088     1  0.0000000  1.0460000  1
   2018   2017   2023   4088     1  0.0000000  0.0000000  3
   2018   2017   2023   2024     1  0.0000000  0.6508444  3
   2018   2017   2023   2025     1  0.0000000  0.6508444  3
   2019   2017   2023   4088     1  0.0000000  1.0460000  1
   2019   2017   2023   4088     1  0.0000000  0.0000000  3
   2019   2017   2023   2024     1  0.0000000  0.6508444  3
   2019   2017   2023   2025     1  0.0000000  0.6508444  3
   2023   4088   4060   4061     1  0.0000000  1.6038667  3
   2023   4088   4060   4062     1  0.0000000  1.6038667  3
   2024   2023   4088   4060     1  0.0000000  1.6038667  3
   2025   2023   4088   4060     1  0.0000000  1.6038667  3
   2026   4117   4089   4090     1  0.0000000  1.6038667  3
   2026   4117   4089   4091     1  0.0000000  1.6038667  3
   2027   2026   4117   4089     1  0.0000000  1.6038667  3
   2028   2026   4117   4089     1  0.0000000  1.6038667  3
   2030   2031   2043   2044     1  0.0000000  0.6508444  3
   2030   2031   2043   2045     1  0.0000000  0.6508444  3
   2030   2034   2046   2047     1  0.0000000  0.6508444  3
   2030   2034   2046   2048     1  0.0000000  0.6508444  3
   2030   2037   2040   2041     1  0.0000000  0.6508444  3
   2030   2037   2040   2042     1  0.0000000  0.6508444  3
   2031   2030   2034   2035     1  0.0000000  1.2552000  3
   2031   2030   2034   2036     1  0.0000000  1.2552000  3
   2031   2030   2037   2038     1  0.0000000  1.2552000  3
   2031   2030   2037   2039     1  0.0000000  1.2552000  3
   2031   2043   2055   2056     1  0.0000000  0.6508444  3
   2031   2043   2055   2057     1  0.0000000  0.6508444  3
   2032   2031   2030   2034     1  0.0000000  1.2552000  3
   2032   2031   2030   2037     1  0.0000000  1.2552000  3
   2032   2031   2043   2055     1  0.0000000  0.6508444  3
   2032   2031   2043   2044     1  0.0000000  0.6508444  3
   2032   2031   2043   2045     1  0.0000000  0.6508444  3
   2033   2031   2030   2034     1  0.0000000  1.2552000  3
   2033   2031   2030   2037     1  0.0000000  1.2552000  3
   2033   2031   2043   2055     1  0.0000000  0.6508444  3
   2033   2031   2043   2044     1  0.0000000  0.6508444  3
   2033   2031   2043   2045     1  0.0000000  0.6508444  3
   2034   2030   2037   2038     1  0.0000000  1.2552000  3
   2034   2030   2037   2039     1  0.0000000  1.2552000  3
   2034   2046   2052   2053     1  0.0000000  0.6508444  3
   2034   2046   2052   2054     1  0.0000000  0.6508444  3
   2035   2034   2030   2037     1  0.0000000  1.2552000  3
   2035   2034   2046   2052     1  0.0000000  0.6508444  3
   2035   2034   2046   2047     1  0.0000000  0.6508444  3
   2035   2034   2046   2048     1  0.0000000  0.6508444  3
   2036   2034   2030   2037     1  0.0000000  1.2552000  3
   2036   2034   2046   2052     1  0.0000000  0.6508444  3
   2036   2034   2046   2047     1  0.0000000  0.6508444  3
   2036   2034   2046   2048     1  0.0000000  0.6508444  3
   2037   2040   2049   2050     1  0.0000000  0.6508444  3
   2037   2040   2049   2051     1  0.0000000  0.6508444  3
   2038   2037   2040   2049     1  0.0000000  0.6508444  3
   2038   2037   2040   2041     1  0.0000000  0.6508444  3
   2038   2037   2040   2042     1  0.0000000  0.6508444  3
   2039   2037   2040   2049     1  0.0000000  0.6508444  3
   2039   2037   2040   2041     1  0.0000000  0.6508444  3
   2039   2037   2040   2042     1  0.0000000  0.6508444  3
   2041   2040   2049   2058     1  0.0000000  1.0460000  1
   2041   2040   2049   2058     1  0.0000000  0.0000000  3
   2041   2040   2049   2050     1  0.0000000  0.6508444  3
   2041   2040   2049   2051     1  0.0000000  0.6508444  3
   2042   2040   2049   2058     1  0.0000000  1.0460000  1
   2042   2040   2049   2058     1  0.0000000  0.0000000  3
   2042   2040   2049   2050     1  0.0000000  0.6508444  3
   2042   2040   2049   2051     1  0.0000000  0.6508444  3
   2044   2043   2055   4175     1  0.0000000  1.0460000  1
   2044   2043   2055   4175     1  0.0000000  0.0000000  3
   2044   2043   2055   2056     1  0.0000000  0.6508444  3
   2044   2043   2055   2057     1  0.0000000  0.6508444  3
   2045   2043   2055   4175     1  0.0000000  1.0460000  1
   2045   2043   2055   4175     1  0.0000000  0.0000000  3
   2045   2043   2055   2056     1  0.0000000  0.6508444  3
   2045   2043   2055   2057     1  0.0000000  0.6508444  3
   2047   2046   2052   4146     1  0.0000000  1.0460000  1
   2047   2046   2052   4146     1  0.0000000  0.0000000  3
   2047   2046   2052   2053     1  0.0000000  0.6508444  3
   2047   2046   2052   2054     1  0.0000000  0.6508444  3
   2048   2046   2052   4146     1  0.0000000  1.0460000  1
   2048   2046   2052   4146     1  0.0000000  0.0000000  3
   2048   2046   2052   2053     1  0.0000000  0.6508444  3
   2048   2046   2052   2054     1  0.0000000  0.6508444  3
   2052   4146   4118   4119     1  0.0000000  1.6038667  3
   2052   4146   4118   4120     1  0.0000000  1.6038667  3
   2053   2052   4146   4118     1  0.0000000  1.6038667  3
   2054   2052   4146   4118     1  0.0000000  1.6038667  3
   2055   4175   4147   4148     1  0.0000000  1.6038667  3
   2055   4175   4147   4149     1  0.0000000  1.6038667  3
   2056   2055   4175   4147     1  0.0000000  1.6038667  3
   2057   2055   4175   4147     1  0.0000000  1.6038667  3
   2059   2060   2072   2073     1  0.0000000  0.6508444  3
   2059   2060   2072   2074     1  0.0000000  0.6508444  3
   2059   2063   2075   2076     1  0.0000000  0.6508444  3
   2059   2063   2075   2077     1  0.0000000  0.6508444  3
   2059   2066   2069   2070     1  0.0000000  0.6508444  3
   2059   2066   2069   2071     1  0.0000000  0.6508444  3
   2060   2059   2063   2064     1  0.0000000  1.2552000  3
   2060   2059   2063   2065     1  0.0000000  1.2552000  3
   2060   2059   2066   2067     1  0.0000000  1.2552000  3
   2060   2059   2066   2068     1  0.0000000  1.2552000  3
   2060   2072   2084   2085     1  0.0000000  0.6508444  3
   2060   2072   2084   2086     1  0.0000000  0.6508444  3
   2061   2060   2059   2063     1  0.0000000  1.2552000  3
   2061   2060   2059   2066     1  0.0000000  1.2552000  3
   2061   2060   2072   2084     1  0.0000000  0.6508444  3
   2061   2060   2072   2073     1  0.0000000  0.6508444  3
   2061   2060   2072   2074     1  0.0000000  0.6508444  3
   2062   2060   2059   2063     1  0.0000000  1.2552000  3
   2062   2060   2059   2066     1  0.0000000  1.2552000  3
   2062   2060   2072   2084     1  0.0000000  0.6508444  3
   2062   2060   2072   2073     1  0.0000000  0.6508444  3
   2062   2060   2072   2074     1  0.0000000  0.6508444  3
   2063   2059   2066   2067     1  0.0000000  1.2552000  3
   2063   2059   2066   2068     1  0.0000000  1.2552000  3
   2063   2075   2081   2082     1  0.0000000  0.6508444  3
   2063   2075   2081   2083     1  0.0000000  0.6508444  3
   2064   2063   2059   2066     1  0.0000000  1.2552000  3
   2064   2063   2075   2081     1  0.0000000  0.6508444  3
   2064   2063   2075   2076     1  0.0000000  0.6508444  3
   2064   2063   2075   2077     1  0.0000000  0.6508444  3
   2065   2063   2059   2066     1  0.0000000  1.2552000  3
   2065   2063   2075   2081     1  0.0000000  0.6508444  3
   2065   2063   2075   2076     1  0.0000000  0.6508444  3
   2065   2063   2075   2077     1  0.0000000  0.6508444  3
   2066   2069   2078   2079     1  0.0000000  0.6508444  3
   2066   2069   2078   2080     1  0.0000000  0.6508444  3
   2067   2066   2069   2078     1  0.0000000  0.6508444  3
   2067   2066   2069   2070     1  0.0000000  0.6508444  3
   2067   2066   2069   2071     1  0.0000000  0.6508444  3
   2068   2066   2069   2078     1  0.0000000  0.6508444  3
   2068   2066   2069   2070     1  0.0000000  0.6508444  3
   2068   2066   2069   2071     1  0.0000000  0.6508444  3
   2070   2069   2078   2087     1  0.0000000  1.0460000  1
   2070   2069   2078   2087     1  0.0000000  0.0000000  3
   2070   2069   2078   2079     1  0.0000000  0.6508444  3
   2070   2069   2078   2080     1  0.0000000  0.6508444  3
   2071   2069   2078   2087     1  0.0000000  1.0460000  1
   2071   2069   2078   2087     1  0.0000000  0.0000000  3
   2071   2069   2078   2079     1  0.0000000  0.6508444  3
   2071   2069   2078   2080     1  0.0000000  0.6508444  3
   2073   2072   2084   4233     1  0.0000000  1.0460000  1
   2073   2072   2084   4233     1  0.0000000  0.0000000  3
   2073   2072   2084   2085     1  0.0000000  0.6508444  3
   2073   2072   2084   2086     1  0.0000000  0.6508444  3
   2074   2072   2084   4233     1  0.0000000  1.0460000  1
   2074   2072   2084   4233     1  0.0000000  0.0000000  3
   2074   2072   2084   2085     1  0.0000000  0.6508444  3
   2074   2072   2084   2086     1  0.0000000  0.6508444  3
   2076   2075   2081   4204     1  0.0000000  1.0460000  1
   2076   2075   2081   4204     1  0.0000000  0.0000000  3
   2076   2075   2081   2082     1  0.0000000  0.6508444  3
   2076   2075   2081   2083     1  0.0000000  0.6508444  3
   2077   2075   2081   4204     1  0.0000000  1.0460000  1
   2077   2075   2081   4204     1  0.0000000  0.0000000  3
   2077   2075   2081   2082     1  0.0000000  0.6508444  3
   2077   2075   2081   2083     1  0.0000000  0.6508444  3
   2081   4204   4176   4177     1  0.0000000  1.6038667  3
   2081   4204   4176   4178     1  0.0000000  1.6038667  3
   2082   2081   4204   4176     1  0.0000000  1.6038667  3
   2083   2081   4204   4176     1  0.0000000  1.6038667  3
   2084   4233   4205   4206     1  0.0000000  1.6038667  3
   2084   4233   4205   4207     1  0.0000000  1.6038667  3
   2085   2084   4233   4205     1  0.0000000  1.6038667  3
   2086   2084   4233   4205     1  0.0000000  1.6038667  3
   2088   2089   2101   2102     1  0.0000000  0.6508444  3
   2088   2089   2101   2103     1  0.0000000  0.6508444  3
   2088   2092   2104   2105     1  0.0000000  0.6508444  3
   2088   2092   2104   2106     1  0.0000000  0.6508444  3
   2088   2095   2098   2099     1  0.0000000  0.6508444  3
   2088   2095   2098   2100     1  0.0000000  0.6508444  3
   2089   2088   2092   2093     1  0.0000000  1.2552000  3
   2089   2088   2092   2094     1  0.0000000  1.2552000  3
   2089   2088   2095   2096     1  0.0000000  1.2552000  3
   2089   2088   2095   2097     1  0.0000000  1.2552000  3
   2089   2101   2113   2114     1  0.0000000  0.6508444  3
   2089   2101   2113   2115     1  0.0000000  0.6508444  3
   2090   2089   2088   2092     1  0.0000000  1.2552000  3
   2090   2089   2088   2095     1  0.0000000  1.2552000  3
   2090   2089   2101   2113     1  0.0000000  0.6508444  3
   2090   2089   2101   2102     1  0.0000000  0.6508444  3
   2090   2089   2101   2103     1  0.0000000  0.6508444  3
   2091   2089   2088   2092     1  0.0000000  1.2552000  3
   2091   2089   2088   2095     1  0.0000000  1.2552000  3
   2091   2089   2101   2113     1  0.0000000  0.6508444  3
   2091   2089   2101   2102     1  0.0000000  0.6508444  3
   2091   2089   2101   2103     1  0.0000000  0.6508444  3
   2092   2088   2095   2096     1  0.0000000  1.2552000  3
   2092   2088   2095   2097     1  0.0000000  1.2552000  3
   2092   2104   2110   2111     1  0.0000000  0.6508444  3
   2092   2104   2110   2112     1  0.0000000  0.6508444  3
   2093   2092   2088   2095     1  0.0000000  1.2552000  3
   2093   2092   2104   2110     1  0.0000000  0.6508444  3
   2093   2092   2104   2105     1  0.0000000  0.6508444  3
   2093   2092   2104   2106     1  0.0000000  0.6508444  3
   2094   2092   2088   2095     1  0.0000000  1.2552000  3
   2094   2092   2104   2110     1  0.0000000  0.6508444  3
   2094   2092   2104   2105     1  0.0000000  0.6508444  3
   2094   2092   2104   2106     1  0.0000000  0.6508444  3
   2095   2098   2107   2108     1  0.0000000  0.6508444  3
   2095   2098   2107   2109     1  0.0000000  0.6508444  3
   2096   2095   2098   2107     1  0.0000000  0.6508444  3
   2096   2095   2098   2099     1  0.0000000  0.6508444  3
   2096   2095   2098   2100     1  0.0000000  0.6508444  3
   2097   2095   2098   2107     1  0.0000000  0.6508444  3
   2097   2095   2098   2099     1  0.0000000  0.6508444  3
   2097   2095   2098   2100     1  0.0000000  0.6508444  3
   2099   2098   2107   2116     1  0.0000000  1.0460000  1
   2099   2098   2107   2116     1  0.0000000  0.0000000  3
   2099   2098   2107   2108     1  0.0000000  0.6508444  3
   2099   2098   2107   2109     1  0.0000000  0.6508444  3
   2100   2098   2107   2116     1  0.0000000  1.0460000  1
   2100   2098   2107   2116     1  0.0000000  0.0000000  3
   2100   2098   2107   2108     1  0.0000000  0.6508444  3
   2100   2098   2107   2109     1  0.0000000  0.6508444  3
   2102   2101   2113   4291     1  0.0000000  1.0460000  1
   2102   2101   2113   4291     1  0.0000000  0.0000000  3
   2102   2101   2113   2114     1  0.0000000  0.6508444  3
   2102   2101   2113   2115     1  0.0000000  0.6508444  3
   2103   2101   2113   4291     1  0.0000000  1.0460000  1
   2103   2101   2113   4291     1  0.0000000  0.0000000  3
   2103   2101   2113   2114     1  0.0000000  0.6508444  3
   2103   2101   2113   2115     1  0.0000000  0.6508444  3
   2105   2104   2110   4262     1  0.0000000  1.0460000  1
   2105   2104   2110   4262     1  0.0000000  0.0000000  3
   2105   2104   2110   2111     1  0.0000000  0.6508444  3
   2105   2104   2110   2112     1  0.0000000  0.6508444  3
   2106   2104   2110   4262     1  0.0000000  1.0460000  1
   2106   2104   2110   4262     1  0.0000000  0.0000000  3
   2106   2104   2110   2111     1  0.0000000  0.6508444  3
   2106   2104   2110   2112     1  0.0000000  0.6508444  3
   2110   4262   4234   4235     1  0.0000000  1.6038667  3
   2110   4262   4234   4236     1  0.0000000  1.6038667  3
   2111   2110   4262   4234     1  0.0000000  1.6038667  3
   2112   2110   4262   4234     1  0.0000000  1.6038667  3
   2113   4291   4263   4264     1  0.0000000  1.6038667  3
   2113   4291   4263   4265     1  0.0000000  1.6038667  3
   2114   2113   4291   4263     1  0.0000000  1.6038667  3
   2115   2113   4291   4263     1  0.0000000  1.6038667  3
   2117   2118   2130   2131     1  0.0000000  0.6508444  3
   2117   2118   2130   2132     1  0.0000000  0.6508444  3
   2117   2121   2133   2134     1  0.0000000  0.6508444  3
   2117   2121   2133   2135     1  0.0000000  0.6508444  3
   2117   2124   2127   2128     1  0.0000000  0.6508444  3
   2117   2124   2127   2129     1  0.0000000  0.6508444  3
   2118   2117   2121   2122     1  0.0000000  1.2552000  3
   2118   2117   2121   2123     1  0.0000000  1.2552000  3
   2118   2117   2124   2125     1  0.0000000  1.2552000  3
   2118   2117   2124   2126     1  0.0000000  1.2552000  3
   2118   2130   2142   2143     1  0.0000000  0.6508444  3
   2118   2130   2142   2144     1  0.0000000  0.6508444  3
   2119   2118   2117   2121     1  0.0000000  1.2552000  3
   2119   2118   2117   2124     1  0.0000000  1.2552000  3
   2119   2118   2130   2142     1  0.0000000  0.6508444  3
   2119   2118   2130   2131     1  0.0000000  0.6508444  3
   2119   2118   2130   2132     1  0.0000000  0.6508444  3
   2120   2118   2117   2121     1  0.0000000  1.2552000  3
   2120   2118   2117   2124     1  0.0000000  1.2552000  3
   2120   2118   2130   2142     1  0.0000000  0.6508444  3
   2120   2118   2130   2131     1  0.0000000  0.6508444  3
   2120   2118   2130   2132     1  0.0000000  0.6508444  3
   2121   2117   2124   2125     1  0.0000000  1.2552000  3
   2121   2117   2124   2126     1  0.0000000  1.2552000  3
   2121   2133   2139   2140     1  0.0000000  0.6508444  3
   2121   2133   2139   2141     1  0.0000000  0.6508444  3
   2122   2121   2117   2124     1  0.0000000  1.2552000  3
   2122   2121   2133   2139     1  0.0000000  0.6508444  3
   2122   2121   2133   2134     1  0.0000000  0.6508444  3
   2122   2121   2133   2135     1  0.0000000  0.6508444  3
   2123   2121   2117   2124     1  0.0000000  1.2552000  3
   2123   2121   2133   2139     1  0.0000000  0.6508444  3
   2123   2121   2133   2134     1  0.0000000  0.6508444  3
   2123   2121   2133   2135     1  0.0000000  0.6508444  3
   2124   2127   2136   2137     1  0.0000000  0.6508444  3
   2124   2127   2136   2138     1  0.0000000  0.6508444  3
   2125   2124   2127   2136     1  0.0000000  0.6508444  3
   2125   2124   2127   2128     1  0.0000000  0.6508444  3
   2125   2124   2127   2129     1  0.0000000  0.6508444  3
   2126   2124   2127   2136     1  0.0000000  0.6508444  3
   2126   2124   2127   2128     1  0.0000000  0.6508444  3
   2126   2124   2127   2129     1  0.0000000  0.6508444  3
   2128   2127   2136   2145     1  0.0000000  1.0460000  1
   2128   2127   2136   2145     1  0.0000000  0.0000000  3
   2128   2127   2136   2137     1  0.0000000  0.6508444  3
   2128   2127   2136   2138     1  0.0000000  0.6508444  3
   2129   2127   2136   2145     1  0.0000000  1.0460000  1
   2129   2127   2136   2145     1  0.0000000  0.0000000  3
   2129   2127   2136   2137     1  0.0000000  0.6508444  3
   2129   2127   2136   2138     1  0.0000000  0.6508444  3
   2131   2130   2142   4349     1  0.0000000  1.0460000  1
   2131   2130   2142   4349     1  0.0000000  0.0000000  3
   2131   2130   2142   2143     1  0.0000000  0.6508444  3
   2131   2130   2142   2144     1  0.0000000  0.6508444  3
   2132   2130   2142   4349     1  0.0000000  1.0460000  1
   2132   2130   2142   4349     1  0.0000000  0.0000000  3
   2132   2130   2142   2143     1  0.0000000  0.6508444  3
   2132   2130   2142   2144     1  0.0000000  0.6508444  3
   2134   2133   2139   4320     1  0.0000000  1.0460000  1
   2134   2133   2139   4320     1  0.0000000  0.0000000  3
   2134   2133   2139   2140     1  0.0000000  0.6508444  3
   2134   2133   2139   2141     1  0.0000000  0.6508444  3
   2135   2133   2139   4320     1  0.0000000  1.0460000  1
   2135   2133   2139   4320     1  0.0000000  0.0000000  3
   2135   2133   2139   2140     1  0.0000000  0.6508444  3
   2135   2133   2139   2141     1  0.0000000  0.6508444  3
   2139   4320   4292   4293     1  0.0000000  1.6038667  3
   2139   4320   4292   4294     1  0.0000000  1.6038667  3
   2140   2139   4320   4292     1  0.0000000  1.6038667  3
   2141   2139   4320   4292     1  0.0000000  1.6038667  3
   2142   4349   4321   4322     1  0.0000000  1.6038667  3
   2142   4349   4321   4323     1  0.0000000  1.6038667  3
   2143   2142   4349   4321     1  0.0000000  1.6038667  3
   2144   2142   4349   4321     1  0.0000000  1.6038667  3
   2146   2147   2159   2160     1  0.0000000  0.6508444  3
   2146   2147   2159   2161     1  0.0000000  0.6508444  3
   2146   2150   2162   2163     1  0.0000000  0.6508444  3
   2146   2150   2162   2164     1  0.0000000  0.6508444  3
   2146   2153   2156   2157     1  0.0000000  0.6508444  3
   2146   2153   2156   2158     1  0.0000000  0.6508444  3
   2147   2146   2150   2151     1  0.0000000  1.2552000  3
   2147   2146   2150   2152     1  0.0000000  1.2552000  3
   2147   2146   2153   2154     1  0.0000000  1.2552000  3
   2147   2146   2153   2155     1  0.0000000  1.2552000  3
   2147   2159   2171   2172     1  0.0000000  0.6508444  3
   2147   2159   2171   2173     1  0.0000000  0.6508444  3
   2148   2147   2146   2150     1  0.0000000  1.2552000  3
   2148   2147   2146   2153     1  0.0000000  1.2552000  3
   2148   2147   2159   2171     1  0.0000000  0.6508444  3
   2148   2147   2159   2160     1  0.0000000  0.6508444  3
   2148   2147   2159   2161     1  0.0000000  0.6508444  3
   2149   2147   2146   2150     1  0.0000000  1.2552000  3
   2149   2147   2146   2153     1  0.0000000  1.2552000  3
   2149   2147   2159   2171     1  0.0000000  0.6508444  3
   2149   2147   2159   2160     1  0.0000000  0.6508444  3
   2149   2147   2159   2161     1  0.0000000  0.6508444  3
   2150   2146   2153   2154     1  0.0000000  1.2552000  3
   2150   2146   2153   2155     1  0.0000000  1.2552000  3
   2150   2162   2168   2169     1  0.0000000  0.6508444  3
   2150   2162   2168   2170     1  0.0000000  0.6508444  3
   2151   2150   2146   2153     1  0.0000000  1.2552000  3
   2151   2150   2162   2168     1  0.0000000  0.6508444  3
   2151   2150   2162   2163     1  0.0000000  0.6508444  3
   2151   2150   2162   2164     1  0.0000000  0.6508444  3
   2152   2150   2146   2153     1  0.0000000  1.2552000  3
   2152   2150   2162   2168     1  0.0000000  0.6508444  3
   2152   2150   2162   2163     1  0.0000000  0.6508444  3
   2152   2150   2162   2164     1  0.0000000  0.6508444  3
   2153   2156   2165   2166     1  0.0000000  0.6508444  3
   2153   2156   2165   2167     1  0.0000000  0.6508444  3
   2154   2153   2156   2165     1  0.0000000  0.6508444  3
   2154   2153   2156   2157     1  0.0000000  0.6508444  3
   2154   2153   2156   2158     1  0.0000000  0.6508444  3
   2155   2153   2156   2165     1  0.0000000  0.6508444  3
   2155   2153   2156   2157     1  0.0000000  0.6508444  3
   2155   2153   2156   2158     1  0.0000000  0.6508444  3
   2157   2156   2165   2174     1  0.0000000  1.0460000  1
   2157   2156   2165   2174     1  0.0000000  0.0000000  3
   2157   2156   2165   2166     1  0.0000000  0.6508444  3
   2157   2156   2165   2167     1  0.0000000  0.6508444  3
   2158   2156   2165   2174     1  0.0000000  1.0460000  1
   2158   2156   2165   2174     1  0.0000000  0.0000000  3
   2158   2156   2165   2166     1  0.0000000  0.6508444  3
   2158   2156   2165   2167     1  0.0000000  0.6508444  3
   2160   2159   2171   4407     1  0.0000000  1.0460000  1
   2160   2159   2171   4407     1  0.0000000  0.0000000  3
   2160   2159   2171   2172     1  0.0000000  0.6508444  3
   2160   2159   2171   2173     1  0.0000000  0.6508444  3
   2161   2159   2171   4407     1  0.0000000  1.0460000  1
   2161   2159   2171   4407     1  0.0000000  0.0000000  3
   2161   2159   2171   2172     1  0.0000000  0.6508444  3
   2161   2159   2171   2173     1  0.0000000  0.6508444  3
   2163   2162   2168   4378     1  0.0000000  1.0460000  1
   2163   2162   2168   4378     1  0.0000000  0.0000000  3
   2163   2162   2168   2169     1  0.0000000  0.6508444  3
   2163   2162   2168   2170     1  0.0000000  0.6508444  3
   2164   2162   2168   4378     1  0.0000000  1.0460000  1
   2164   2162   2168   4378     1  0.0000000  0.0000000  3
   2164   2162   2168   2169     1  0.0000000  0.6508444  3
   2164   2162   2168   2170     1  0.0000000  0.6508444  3
   2168   4378   4350   4351     1  0.0000000  1.6038667  3
   2168   4378   4350   4352     1  0.0000000  1.6038667  3
   2169   2168   4378   4350     1  0.0000000  1.6038667  3
   2170   2168   4378   4350     1  0.0000000  1.6038667  3
   2171   4407   4379   4380     1  0.0000000  1.6038667  3
   2171   4407   4379   4381     1  0.0000000  1.6038667  3
   2172   2171   4407   4379     1  0.0000000  1.6038667  3
   2173   2171   4407   4379     1  0.0000000  1.6038667  3
   2175   2176   2188   2189     1  0.0000000  0.6508444  3
   2175   2176   2188   2190     1  0.0000000  0.6508444  3
   2175   2179   2191   2192     1  0.0000000  0.6508444  3
   2175   2179   2191   2193     1  0.0000000  0.6508444  3
   2175   2182   2185   2186     1  0.0000000  0.6508444  3
   2175   2182   2185   2187     1  0.0000000  0.6508444  3
   2176   2175   2179   2180     1  0.0000000  1.2552000  3
   2176   2175   2179   2181     1  0.0000000  1.2552000  3
   2176   2175   2182   2183     1  0.0000000  1.2552000  3
   2176   2175   2182   2184     1  0.0000000  1.2552000  3
   2176   2188   2200   2201     1  0.0000000  0.6508444  3
   2176   2188   2200   2202     1  0.0000000  0.6508444  3
   2177   2176   2175   2179     1  0.0000000  1.2552000  3
   2177   2176   2175   2182     1  0.0000000  1.2552000  3
   2177   2176   2188   2200     1  0.0000000  0.6508444  3
   2177   2176   2188   2189     1  0.0000000  0.6508444  3
   2177   2176   2188   2190     1  0.0000000  0.6508444  3
   2178   2176   2175   2179     1  0.0000000  1.2552000  3
   2178   2176   2175   2182     1  0.0000000  1.2552000  3
   2178   2176   2188   2200     1  0.0000000  0.6508444  3
   2178   2176   2188   2189     1  0.0000000  0.6508444  3
   2178   2176   2188   2190     1  0.0000000  0.6508444  3
   2179   2175   2182   2183     1  0.0000000  1.2552000  3
   2179   2175   2182   2184     1  0.0000000  1.2552000  3
   2179   2191   2197   2198     1  0.0000000  0.6508444  3
   2179   2191   2197   2199     1  0.0000000  0.6508444  3
   2180   2179   2175   2182     1  0.0000000  1.2552000  3
   2180   2179   2191   2197     1  0.0000000  0.6508444  3
   2180   2179   2191   2192     1  0.0000000  0.6508444  3
   2180   2179   2191   2193     1  0.0000000  0.6508444  3
   2181   2179   2175   2182     1  0.0000000  1.2552000  3
   2181   2179   2191   2197     1  0.0000000  0.6508444  3
   2181   2179   2191   2192     1  0.0000000  0.6508444  3
   2181   2179   2191   2193     1  0.0000000  0.6508444  3
   2182   2185   2194   2195     1  0.0000000  0.6508444  3
   2182   2185   2194   2196     1  0.0000000  0.6508444  3
   2183   2182   2185   2194     1  0.0000000  0.6508444  3
   2183   2182   2185   2186     1  0.0000000  0.6508444  3
   2183   2182   2185   2187     1  0.0000000  0.6508444  3
   2184   2182   2185   2194     1  0.0000000  0.6508444  3
   2184   2182   2185   2186     1  0.0000000  0.6508444  3
   2184   2182   2185   2187     1  0.0000000  0.6508444  3
   2186   2185   2194   2203     1  0.0000000  1.0460000  1
   2186   2185   2194   2203     1  0.0000000  0.0000000  3
   2186   2185   2194   2195     1  0.0000000  0.6508444  3
   2186   2185   2194   2196     1  0.0000000  0.6508444  3
   2187   2185   2194   2203     1  0.0000000  1.0460000  1
   2187   2185   2194   2203     1  0.0000000  0.0000000  3
   2187   2185   2194   2195     1  0.0000000  0.6508444  3
   2187   2185   2194   2196     1  0.0000000  0.6508444  3
   2189   2188   2200   4465     1  0.0000000  1.0460000  1
   2189   2188   2200   4465     1  0.0000000  0.0000000  3
   2189   2188   2200   2201     1  0.0000000  0.6508444  3
   2189   2188   2200   2202     1  0.0000000  0.6508444  3
   2190   2188   2200   4465     1  0.0000000  1.0460000  1
   2190   2188   2200   4465     1  0.0000000  0.0000000  3
   2190   2188   2200   2201     1  0.0000000  0.6508444  3
   2190   2188   2200   2202     1  0.0000000  0.6508444  3
   2192   2191   2197   4436     1  0.0000000  1.0460000  1
   2192   2191   2197   4436     1  0.0000000  0.0000000  3
   2192   2191   2197   2198     1  0.0000000  0.6508444  3
   2192   2191   2197   2199     1  0.0000000  0.6508444  3
   2193   2191   2197   4436     1  0.0000000  1.0460000  1
   2193   2191   2197   4436     1  0.0000000  0.0000000  3
   2193   2191   2197   2198     1  0.0000000  0.6508444  3
   2193   2191   2197   2199     1  0.0000000  0.6508444  3
   2197   4436   4408   4409     1  0.0000000  1.6038667  3
   2197   4436   4408   4410     1  0.0000000  1.6038667  3
   2198   2197   4436   4408     1  0.0000000  1.6038667  3
   2199   2197   4436   4408     1  0.0000000  1.6038667  3
   2200   4465   4437   4438     1  0.0000000  1.6038667  3
   2200   4465   4437   4439     1  0.0000000  1.6038667  3
   2201   2200   4465   4437     1  0.0000000  1.6038667  3
   2202   2200   4465   4437     1  0.0000000  1.6038667  3
   2204   2205   2217   2218     1  0.0000000  0.6508444  3
   2204   2205   2217   2219     1  0.0000000  0.6508444  3
   2204   2208   2220   2221     1  0.0000000  0.6508444  3
   2204   2208   2220   2222     1  0.0000000  0.6508444  3
   2204   2211   2214   2215     1  0.0000000  0.6508444  3
   2204   2211   2214   2216     1  0.0000000  0.6508444  3
   2205   2204   2208   2209     1  0.0000000  1.2552000  3
   2205   2204   2208   2210     1  0.0000000  1.2552000  3
   2205   2204   2211   2212     1  0.0000000  1.2552000  3
   2205   2204   2211   2213     1  0.0000000  1.2552000  3
   2205   2217   2229   2230     1  0.0000000  0.6508444  3
   2205   2217   2229   2231     1  0.0000000  0.6508444  3
   2206   2205   2204   2208     1  0.0000000  1.2552000  3
   2206   2205   2204   2211     1  0.0000000  1.2552000  3
   2206   2205   2217   2229     1  0.0000000  0.6508444  3
   2206   2205   2217   2218     1  0.0000000  0.6508444  3
   2206   2205   2217   2219     1  0.0000000  0.6508444  3
   2207   2205   2204   2208     1  0.0000000  1.2552000  3
   2207   2205   2204   2211     1  0.0000000  1.2552000  3
   2207   2205   2217   2229     1  0.0000000  0.6508444  3
   2207   2205   2217   2218     1  0.0000000  0.6508444  3
   2207   2205   2217   2219     1  0.0000000  0.6508444  3
   2208   2204   2211   2212     1  0.0000000  1.2552000  3
   2208   2204   2211   2213     1  0.0000000  1.2552000  3
   2208   2220   2226   2227     1  0.0000000  0.6508444  3
   2208   2220   2226   2228     1  0.0000000  0.6508444  3
   2209   2208   2204   2211     1  0.0000000  1.2552000  3
   2209   2208   2220   2226     1  0.0000000  0.6508444  3
   2209   2208   2220   2221     1  0.0000000  0.6508444  3
   2209   2208   2220   2222     1  0.0000000  0.6508444  3
   2210   2208   2204   2211     1  0.0000000  1.2552000  3
   2210   2208   2220   2226     1  0.0000000  0.6508444  3
   2210   2208   2220   2221     1  0.0000000  0.6508444  3
   2210   2208   2220   2222     1  0.0000000  0.6508444  3
   2211   2214   2223   2224     1  0.0000000  0.6508444  3
   2211   2214   2223   2225     1  0.0000000  0.6508444  3
   2212   2211   2214   2223     1  0.0000000  0.6508444  3
   2212   2211   2214   2215     1  0.0000000  0.6508444  3
   2212   2211   2214   2216     1  0.0000000  0.6508444  3
   2213   2211   2214   2223     1  0.0000000  0.6508444  3
   2213   2211   2214   2215     1  0.0000000  0.6508444  3
   2213   2211   2214   2216     1  0.0000000  0.6508444  3
   2215   2214   2223   2232     1  0.0000000  1.0460000  1
   2215   2214   2223   2232     1  0.0000000  0.0000000  3
   2215   2214   2223   2224     1  0.0000000  0.6508444  3
   2215   2214   2223   2225     1  0.0000000  0.6508444  3
   2216   2214   2223   2232     1  0.0000000  1.0460000  1
   2216   2214   2223   2232     1  0.0000000  0.0000000  3
   2216   2214   2223   2224     1  0.0000000  0.6508444  3
   2216   2214   2223   2225     1  0.0000000  0.6508444  3
   2218   2217   2229   4523     1  0.0000000  1.0460000  1
   2218   2217   2229   4523     1  0.0000000  0.0000000  3
   2218   2217   2229   2230     1  0.0000000  0.6508444  3
   2218   2217   2229   2231     1  0.0000000  0.6508444  3
   2219   2217   2229   4523     1  0.0000000  1.0460000  1
   2219   2217   2229   4523     1  0.0000000  0.0000000  3
   2219   2217   2229   2230     1  0.0000000  0.6508444  3
   2219   2217   2229   2231     1  0.0000000  0.6508444  3
   2221   2220   2226   4494     1  0.0000000  1.0460000  1
   2221   2220   2226   4494     1  0.0000000  0.0000000  3
   2221   2220   2226   2227     1  0.0000000  0.6508444  3
   2221   2220   2226   2228     1  0.0000000  0.6508444  3
   2222   2220   2226   4494     1  0.0000000  1.0460000  1
   2222   2220   2226   4494     1  0.0000000  0.0000000  3
   2222   2220   2226   2227     1  0.0000000  0.6508444  3
   2222   2220   2226   2228     1  0.0000000  0.6508444  3
   2226   4494   4466   4467     1  0.0000000  1.6038667  3
   2226   4494   4466   4468     1  0.0000000  1.6038667  3
   2227   2226   4494   4466     1  0.0000000  1.6038667  3
   2228   2226   4494   4466     1  0.0000000  1.6038667  3
   2229   4523   4495   4496     1  0.0000000  1.6038667  3
   2229   4523   4495   4497     1  0.0000000  1.6038667  3
   2230   2229   4523   4495     1  0.0000000  1.6038667  3
   2231   2229   4523   4495     1  0.0000000  1.6038667  3
   2233   2234   2246   2247     1  0.0000000  0.6508444  3
   2233   2234   2246   2248     1  0.0000000  0.6508444  3
   2233   2237   2249   2250     1  0.0000000  0.6508444  3
   2233   2237   2249   2251     1  0.0000000  0.6508444  3
   2233   2240   2243   2244     1  0.0000000  0.6508444  3
   2233   2240   2243   2245     1  0.0000000  0.6508444  3
   2234   2233   2237   2238     1  0.0000000  1.2552000  3
   2234   2233   2237   2239     1  0.0000000  1.2552000  3
   2234   2233   2240   2241     1  0.0000000  1.2552000  3
   2234   2233   2240   2242     1  0.0000000  1.2552000  3
   2234   2246   2258   2259     1  0.0000000  0.6508444  3
   2234   2246   2258   2260     1  0.0000000  0.6508444  3
   2235   2234   2233   2237     1  0.0000000  1.2552000  3
   2235   2234   2233   2240     1  0.0000000  1.2552000  3
   2235   2234   2246   2258     1  0.0000000  0.6508444  3
   2235   2234   2246   2247     1  0.0000000  0.6508444  3
   2235   2234   2246   2248     1  0.0000000  0.6508444  3
   2236   2234   2233   2237     1  0.0000000  1.2552000  3
   2236   2234   2233   2240     1  0.0000000  1.2552000  3
   2236   2234   2246   2258     1  0.0000000  0.6508444  3
   2236   2234   2246   2247     1  0.0000000  0.6508444  3
   2236   2234   2246   2248     1  0.0000000  0.6508444  3
   2237   2233   2240   2241     1  0.0000000  1.2552000  3
   2237   2233   2240   2242     1  0.0000000  1.2552000  3
   2237   2249   2255   2256     1  0.0000000  0.6508444  3
   2237   2249   2255   2257     1  0.0000000  0.6508444  3
   2238   2237   2233   2240     1  0.0000000  1.2552000  3
   2238   2237   2249   2255     1  0.0000000  0.6508444  3
   2238   2237   2249   2250     1  0.0000000  0.6508444  3
   2238   2237   2249   2251     1  0.0000000  0.6508444  3
   2239   2237   2233   2240     1  0.0000000  1.2552000  3
   2239   2237   2249   2255     1  0.0000000  0.6508444  3
   2239   2237   2249   2250     1  0.0000000  0.6508444  3
   2239   2237   2249   2251     1  0.0000000  0.6508444  3
   2240   2243   2252   2253     1  0.0000000  0.6508444  3
   2240   2243   2252   2254     1  0.0000000  0.6508444  3
   2241   2240   2243   2252     1  0.0000000  0.6508444  3
   2241   2240   2243   2244     1  0.0000000  0.6508444  3
   2241   2240   2243   2245     1  0.0000000  0.6508444  3
   2242   2240   2243   2252     1  0.0000000  0.6508444  3
   2242   2240   2243   2244     1  0.0000000  0.6508444  3
   2242   2240   2243   2245     1  0.0000000  0.6508444  3
   2244   2243   2252   2261     1  0.0000000  1.0460000  1
   2244   2243   2252   2261     1  0.0000000  0.0000000  3
   2244   2243   2252   2253     1  0.0000000  0.6508444  3
   2244   2243   2252   2254     1  0.0000000  0.6508444  3
   2245   2243   2252   2261     1  0.0000000  1.0460000  1
   2245   2243   2252   2261     1  0.0000000  0.0000000  3
   2245   2243   2252   2253     1  0.0000000  0.6508444  3
   2245   2243   2252   2254     1  0.0000000  0.6508444  3
   2247   2246   2258   4581     1  0.0000000  1.0460000  1
   2247   2246   2258   4581     1  0.0000000  0.0000000  3
   2247   2246   2258   2259     1  0.0000000  0.6508444  3
   2247   2246   2258   2260     1  0.0000000  0.6508444  3
   2248   2246   2258   4581     1  0.0000000  1.0460000  1
   2248   2246   2258   4581     1  0.0000000  0.0000000  3
   2248   2246   2258   2259     1  0.0000000  0.6508444  3
   2248   2246   2258   2260     1  0.0000000  0.6508444  3
   2250   2249   2255   4552     1  0.0000000  1.0460000  1
   2250   2249   2255   4552     1  0.0000000  0.0000000  3
   2250   2249   2255   2256     1  0.0000000  0.6508444  3
   2250   2249   2255   2257     1  0.0000000  0.6508444  3
   2251   2249   2255   4552     1  0.0000000  1.0460000  1
   2251   2249   2255   4552     1  0.0000000  0.0000000  3
   2251   2249   2255   2256     1  0.0000000  0.6508444  3
   2251   2249   2255   2257     1  0.0000000  0.6508444  3
   2255   4552   4524   4525     1  0.0000000  1.6038667  3
   2255   4552   4524   4526     1  0.0000000  1.6038667  3
   2256   2255   4552   4524     1  0.0000000  1.6038667  3
   2257   2255   4552   4524     1  0.0000000  1.6038667  3
   2258   4581   4553   4554     1  0.0000000  1.6038667  3
   2258   4581   4553   4555     1  0.0000000  1.6038667  3
   2259   2258   4581   4553     1  0.0000000  1.6038667  3
   2260   2258   4581   4553     1  0.0000000  1.6038667  3
   2262   2263   2275   2276     1  0.0000000  0.6508444  3
   2262   2263   2275   2277     1  0.0000000  0.6508444  3
   2262   2266   2278   2279     1  0.0000000  0.6508444  3
   2262   2266   2278   2280     1  0.0000000  0.6508444  3
   2262   2269   2272   2273     1  0.0000000  0.6508444  3
   2262   2269   2272   2274     1  0.0000000  0.6508444  3
   2263   2262   2266   2267     1  0.0000000  1.2552000  3
   2263   2262   2266   2268     1  0.0000000  1.2552000  3
   2263   2262   2269   2270     1  0.0000000  1.2552000  3
   2263   2262   2269   2271     1  0.0000000  1.2552000  3
   2263   2275   2287   2288     1  0.0000000  0.6508444  3
   2263   2275   2287   2289     1  0.0000000  0.6508444  3
   2264   2263   2262   2266     1  0.0000000  1.2552000  3
   2264   2263   2262   2269     1  0.0000000  1.2552000  3
   2264   2263   2275   2287     1  0.0000000  0.6508444  3
   2264   2263   2275   2276     1  0.0000000  0.6508444  3
   2264   2263   2275   2277     1  0.0000000  0.6508444  3
   2265   2263   2262   2266     1  0.0000000  1.2552000  3
   2265   2263   2262   2269     1  0.0000000  1.2552000  3
   2265   2263   2275   2287     1  0.0000000  0.6508444  3
   2265   2263   2275   2276     1  0.0000000  0.6508444  3
   2265   2263   2275   2277     1  0.0000000  0.6508444  3
   2266   2262   2269   2270     1  0.0000000  1.2552000  3
   2266   2262   2269   2271     1  0.0000000  1.2552000  3
   2266   2278   2284   2285     1  0.0000000  0.6508444  3
   2266   2278   2284   2286     1  0.0000000  0.6508444  3
   2267   2266   2262   2269     1  0.0000000  1.2552000  3
   2267   2266   2278   2284     1  0.0000000  0.6508444  3
   2267   2266   2278   2279     1  0.0000000  0.6508444  3
   2267   2266   2278   2280     1  0.0000000  0.6508444  3
   2268   2266   2262   2269     1  0.0000000  1.2552000  3
   2268   2266   2278   2284     1  0.0000000  0.6508444  3
   2268   2266   2278   2279     1  0.0000000  0.6508444  3
   2268   2266   2278   2280     1  0.0000000  0.6508444  3
   2269   2272   2281   2282     1  0.0000000  0.6508444  3
   2269   2272   2281   2283     1  0.0000000  0.6508444  3
   2270   2269   2272   2281     1  0.0000000  0.6508444  3
   2270   2269   2272   2273     1  0.0000000  0.6508444  3
   2270   2269   2272   2274     1  0.0000000  0.6508444  3
   2271   2269   2272   2281     1  0.0000000  0.6508444  3
   2271   2269   2272   2273     1  0.0000000  0.6508444  3
   2271   2269   2272   2274     1  0.0000000  0.6508444  3
   2273   2272   2281   2290     1  0.0000000  1.0460000  1
   2273   2272   2281   2290     1  0.0000000  0.0000000  3
   2273   2272   2281   2282     1  0.0000000  0.6508444  3
   2273   2272   2281   2283     1  0.0000000  0.6508444  3
   2274   2272   2281   2290     1  0.0000000  1.0460000  1
   2274   2272   2281   2290     1  0.0000000  0.0000000  3
   2274   2272   2281   2282     1  0.0000000  0.6508444  3
   2274   2272   2281   2283     1  0.0000000  0.6508444  3
   2276   2275   2287   4639     1  0.0000000  1.0460000  1
   2276   2275   2287   4639     1  0.0000000  0.0000000  3
   2276   2275   2287   2288     1  0.0000000  0.6508444  3
   2276   2275   2287   2289     1  0.0000000  0.6508444  3
   2277   2275   2287   4639     1  0.0000000  1.0460000  1
   2277   2275   2287   4639     1  0.0000000  0.0000000  3
   2277   2275   2287   2288     1  0.0000000  0.6508444  3
   2277   2275   2287   2289     1  0.0000000  0.6508444  3
   2279   2278   2284   4610     1  0.0000000  1.0460000  1
   2279   2278   2284   4610     1  0.0000000  0.0000000  3
   2279   2278   2284   2285     1  0.0000000  0.6508444  3
   2279   2278   2284   2286     1  0.0000000  0.6508444  3
   2280   2278   2284   4610     1  0.0000000  1.0460000  1
   2280   2278   2284   4610     1  0.0000000  0.0000000  3
   2280   2278   2284   2285     1  0.0000000  0.6508444  3
   2280   2278   2284   2286     1  0.0000000  0.6508444  3
   2284   4610   4582   4583     1  0.0000000  1.6038667  3
   2284   4610   4582   4584     1  0.0000000  1.6038667  3
   2285   2284   4610   4582     1  0.0000000  1.6038667  3
   2286   2284   4610   4582     1  0.0000000  1.6038667  3
   2287   4639   4611   4612     1  0.0000000  1.6038667  3
   2287   4639   4611   4613     1  0.0000000  1.6038667  3
   2288   2287   4639   4611     1  0.0000000  1.6038667  3
   2289   2287   4639   4611     1  0.0000000  1.6038667  3
   2291   2292   2304   2305     1  0.0000000  0.6508444  3
   2291   2292   2304   2306     1  0.0000000  0.6508444  3
   2291   2295   2307   2308     1  0.0000000  0.6508444  3
   2291   2295   2307   2309     1  0.0000000  0.6508444  3
   2291   2298   2301   2302     1  0.0000000  0.6508444  3
   2291   2298   2301   2303     1  0.0000000  0.6508444  3
   2292   2291   2295   2296     1  0.0000000  1.2552000  3
   2292   2291   2295   2297     1  0.0000000  1.2552000  3
   2292   2291   2298   2299     1  0.0000000  1.2552000  3
   2292   2291   2298   2300     1  0.0000000  1.2552000  3
   2292   2304   2316   2317     1  0.0000000  0.6508444  3
   2292   2304   2316   2318     1  0.0000000  0.6508444  3
   2293   2292   2291   2295     1  0.0000000  1.2552000  3
   2293   2292   2291   2298     1  0.0000000  1.2552000  3
   2293   2292   2304   2316     1  0.0000000  0.6508444  3
   2293   2292   2304   2305     1  0.0000000  0.6508444  3
   2293   2292   2304   2306     1  0.0000000  0.6508444  3
   2294   2292   2291   2295     1  0.0000000  1.2552000  3
   2294   2292   2291   2298     1  0.0000000  1.2552000  3
   2294   2292   2304   2316     1  0.0000000  0.6508444  3
   2294   2292   2304   2305     1  0.0000000  0.6508444  3
   2294   2292   2304   2306     1  0.0000000  0.6508444  3
   2295   2291   2298   2299     1  0.0000000  1.2552000  3
   2295   2291   2298   2300     1  0.0000000  1.2552000  3
   2295   2307   2313   2314     1  0.0000000  0.6508444  3
   2295   2307   2313   2315     1  0.0000000  0.6508444  3
   2296   2295   2291   2298     1  0.0000000  1.2552000  3
   2296   2295   2307   2313     1  0.0000000  0.6508444  3
   2296   2295   2307   2308     1  0.0000000  0.6508444  3
   2296   2295   2307   2309     1  0.0000000  0.6508444  3
   2297   2295   2291   2298     1  0.0000000  1.2552000  3
   2297   2295   2307   2313     1  0.0000000  0.6508444  3
   2297   2295   2307   2308     1  0.0000000  0.6508444  3
   2297   2295   2307   2309     1  0.0000000  0.6508444  3
   2298   2301   2310   2311     1  0.0000000  0.6508444  3
   2298   2301   2310   2312     1  0.0000000  0.6508444  3
   2299   2298   2301   2310     1  0.0000000  0.6508444  3
   2299   2298   2301   2302     1  0.0000000  0.6508444  3
   2299   2298   2301   2303     1  0.0000000  0.6508444  3
   2300   2298   2301   2310     1  0.0000000  0.6508444  3
   2300   2298   2301   2302     1  0.0000000  0.6508444  3
   2300   2298   2301   2303     1  0.0000000  0.6508444  3
   2302   2301   2310   2319     1  0.0000000  1.0460000  1
   2302   2301   2310   2319     1  0.0000000  0.0000000  3
   2302   2301   2310   2311     1  0.0000000  0.6508444  3
   2302   2301   2310   2312     1  0.0000000  0.6508444  3
   2303   2301   2310   2319     1  0.0000000  1.0460000  1
   2303   2301   2310   2319     1  0.0000000  0.0000000  3
   2303   2301   2310   2311     1  0.0000000  0.6508444  3
   2303   2301   2310   2312     1  0.0000000  0.6508444  3
   2305   2304   2316   4697     1  0.0000000  1.0460000  1
   2305   2304   2316   4697     1  0.0000000  0.0000000  3
   2305   2304   2316   2317     1  0.0000000  0.6508444  3
   2305   2304   2316   2318     1  0.0000000  0.6508444  3
   2306   2304   2316   4697     1  0.0000000  1.0460000  1
   2306   2304   2316   4697     1  0.0000000  0.0000000  3
   2306   2304   2316   2317     1  0.0000000  0.6508444  3
   2306   2304   2316   2318     1  0.0000000  0.6508444  3
   2308   2307   2313   4668     1  0.0000000  1.0460000  1
   2308   2307   2313   4668     1  0.0000000  0.0000000  3
   2308   2307   2313   2314     1  0.0000000  0.6508444  3
   2308   2307   2313   2315     1  0.0000000  0.6508444  3
   2309   2307   2313   4668     1  0.0000000  1.0460000  1
   2309   2307   2313   4668     1  0.0000000  0.0000000  3
   2309   2307   2313   2314     1  0.0000000  0.6508444  3
   2309   2307   2313   2315     1  0.0000000  0.6508444  3
   2313   4668   4640   4641     1  0.0000000  1.6038667  3
   2313   4668   4640   4642     1  0.0000000  1.6038667  3
   2314   2313   4668   4640     1  0.0000000  1.6038667  3
   2315   2313   4668   4640     1  0.0000000  1.6038667  3
   2316   4697   4669   4670     1  0.0000000  1.6038667  3
   2316   4697   4669   4671     1  0.0000000  1.6038667  3
   2317   2316   4697   4669     1  0.0000000  1.6038667  3
   2318   2316   4697   4669     1  0.0000000  1.6038667  3
   2320   2321   2333   2334     1  0.0000000  0.6508444  3
   2320   2321   2333   2335     1  0.0000000  0.6508444  3
   2320   2324   2336   2337     1  0.0000000  0.6508444  3
   2320   2324   2336   2338     1  0.0000000  0.6508444  3
   2320   2327   2330   2331     1  0.0000000  0.6508444  3
   2320   2327   2330   2332     1  0.0000000  0.6508444  3
   2321   2320   2324   2325     1  0.0000000  1.2552000  3
   2321   2320   2324   2326     1  0.0000000  1.2552000  3
   2321   2320   2327   2328     1  0.0000000  1.2552000  3
   2321   2320   2327   2329     1  0.0000000  1.2552000  3
   2321   2333   2345   2346     1  0.0000000  0.6508444  3
   2321   2333   2345   2347     1  0.0000000  0.6508444  3
   2322   2321   2320   2324     1  0.0000000  1.2552000  3
   2322   2321   2320   2327     1  0.0000000  1.2552000  3
   2322   2321   2333   2345     1  0.0000000  0.6508444  3
   2322   2321   2333   2334     1  0.0000000  0.6508444  3
   2322   2321   2333   2335     1  0.0000000  0.6508444  3
   2323   2321   2320   2324     1  0.0000000  1.2552000  3
   2323   2321   2320   2327     1  0.0000000  1.2552000  3
   2323   2321   2333   2345     1  0.0000000  0.6508444  3
   2323   2321   2333   2334     1  0.0000000  0.6508444  3
   2323   2321   2333   2335     1  0.0000000  0.6508444  3
   2324   2320   2327   2328     1  0.0000000  1.2552000  3
   2324   2320   2327   2329     1  0.0000000  1.2552000  3
   2324   2336   2342   2343     1  0.0000000  0.6508444  3
   2324   2336   2342   2344     1  0.0000000  0.6508444  3
   2325   2324   2320   2327     1  0.0000000  1.2552000  3
   2325   2324   2336   2342     1  0.0000000  0.6508444  3
   2325   2324   2336   2337     1  0.0000000  0.6508444  3
   2325   2324   2336   2338     1  0.0000000  0.6508444  3
   2326   2324   2320   2327     1  0.0000000  1.2552000  3
   2326   2324   2336   2342     1  0.0000000  0.6508444  3
   2326   2324   2336   2337     1  0.0000000  0.6508444  3
   2326   2324   2336   2338     1  0.0000000  0.6508444  3
   2327   2330   2339   2340     1  0.0000000  0.6508444  3
   2327   2330   2339   2341     1  0.0000000  0.6508444  3
   2328   2327   2330   2339     1  0.0000000  0.6508444  3
   2328   2327   2330   2331     1  0.0000000  0.6508444  3
   2328   2327   2330   2332     1  0.0000000  0.6508444  3
   2329   2327   2330   2339     1  0.0000000  0.6508444  3
   2329   2327   2330   2331     1  0.0000000  0.6508444  3
   2329   2327   2330   2332     1  0.0000000  0.6508444  3
   2331   2330   2339   2348     1  0.0000000  1.0460000  1
   2331   2330   2339   2348     1  0.0000000  0.0000000  3
   2331   2330   2339   2340     1  0.0000000  0.6508444  3
   2331   2330   2339   2341     1  0.0000000  0.6508444  3
   2332   2330   2339   2348     1  0.0000000  1.0460000  1
   2332   2330   2339   2348     1  0.0000000  0.0000000  3
   2332   2330   2339   2340     1  0.0000000  0.6508444  3
   2332   2330   2339   2341     1  0.0000000  0.6508444  3
   2334   2333   2345   4755     1  0.0000000  1.0460000  1
   2334   2333   2345   4755     1  0.0000000  0.0000000  3
   2334   2333   2345   2346     1  0.0000000  0.6508444  3
   2334   2333   2345   2347     1  0.0000000  0.6508444  3
   2335   2333   2345   4755     1  0.0000000  1.0460000  1
   2335   2333   2345   4755     1  0.0000000  0.0000000  3
   2335   2333   2345   2346     1  0.0000000  0.6508444  3
   2335   2333   2345   2347     1  0.0000000  0.6508444  3
   2337   2336   2342   4726     1  0.0000000  1.0460000  1
   2337   2336   2342   4726     1  0.0000000  0.0000000  3
   2337   2336   2342   2343     1  0.0000000  0.6508444  3
   2337   2336   2342   2344     1  0.0000000  0.6508444  3
   2338   2336   2342   4726     1  0.0000000  1.0460000  1
   2338   2336   2342   4726     1  0.0000000  0.0000000  3
   2338   2336   2342   2343     1  0.0000000  0.6508444  3
   2338   2336   2342   2344     1  0.0000000  0.6508444  3
   2342   4726   4698   4699     1  0.0000000  1.6038667  3
   2342   4726   4698   4700     1  0.0000000  1.6038667  3
   2343   2342   4726   4698     1  0.0000000  1.6038667  3
   2344   2342   4726   4698     1  0.0000000  1.6038667  3
   2345   4755   4727   4728     1  0.0000000  1.6038667  3
   2345   4755   4727   4729     1  0.0000000  1.6038667  3
   2346   2345   4755   4727     1  0.0000000  1.6038667  3
   2347   2345   4755   4727     1  0.0000000  1.6038667  3
   2349   2350   2362   2363     1  0.0000000  0.6508444  3
   2349   2350   2362   2364     1  0.0000000  0.6508444  3
   2349   2353   2365   2366     1  0.0000000  0.6508444  3
   2349   2353   2365   2367     1  0.0000000  0.6508444  3
   2349   2356   2359   2360     1  0.0000000  0.6508444  3
   2349   2356   2359   2361     1  0.0000000  0.6508444  3
   2350   2349   2353   2354     1  0.0000000  1.2552000  3
   2350   2349   2353   2355     1  0.0000000  1.2552000  3
   2350   2349   2356   2357     1  0.0000000  1.2552000  3
   2350   2349   2356   2358     1  0.0000000  1.2552000  3
   2350   2362   2374   2375     1  0.0000000  0.6508444  3
   2350   2362   2374   2376     1  0.0000000  0.6508444  3
   2351   2350   2349   2353     1  0.0000000  1.2552000  3
   2351   2350   2349   2356     1  0.0000000  1.2552000  3
   2351   2350   2362   2374     1  0.0000000  0.6508444  3
   2351   2350   2362   2363     1  0.0000000  0.6508444  3
   2351   2350   2362   2364     1  0.0000000  0.6508444  3
   2352   2350   2349   2353     1  0.0000000  1.2552000  3
   2352   2350   2349   2356     1  0.0000000  1.2552000  3
   2352   2350   2362   2374     1  0.0000000  0.6508444  3
   2352   2350   2362   2363     1  0.0000000  0.6508444  3
   2352   2350   2362   2364     1  0.0000000  0.6508444  3
   2353   2349   2356   2357     1  0.0000000  1.2552000  3
   2353   2349   2356   2358     1  0.0000000  1.2552000  3
   2353   2365   2371   2372     1  0.0000000  0.6508444  3
   2353   2365   2371   2373     1  0.0000000  0.6508444  3
   2354   2353   2349   2356     1  0.0000000  1.2552000  3
   2354   2353   2365   2371     1  0.0000000  0.6508444  3
   2354   2353   2365   2366     1  0.0000000  0.6508444  3
   2354   2353   2365   2367     1  0.0000000  0.6508444  3
   2355   2353   2349   2356     1  0.0000000  1.2552000  3
   2355   2353   2365   2371     1  0.0000000  0.6508444  3
   2355   2353   2365   2366     1  0.0000000  0.6508444  3
   2355   2353   2365   2367     1  0.0000000  0.6508444  3
   2356   2359   2368   2369     1  0.0000000  0.6508444  3
   2356   2359   2368   2370     1  0.0000000  0.6508444  3
   2357   2356   2359   2368     1  0.0000000  0.6508444  3
   2357   2356   2359   2360     1  0.0000000  0.6508444  3
   2357   2356   2359   2361     1  0.0000000  0.6508444  3
   2358   2356   2359   2368     1  0.0000000  0.6508444  3
   2358   2356   2359   2360     1  0.0000000  0.6508444  3
   2358   2356   2359   2361     1  0.0000000  0.6508444  3
   2360   2359   2368   2377     1  0.0000000  1.0460000  1
   2360   2359   2368   2377     1  0.0000000  0.0000000  3
   2360   2359   2368   2369     1  0.0000000  0.6508444  3
   2360   2359   2368   2370     1  0.0000000  0.6508444  3
   2361   2359   2368   2377     1  0.0000000  1.0460000  1
   2361   2359   2368   2377     1  0.0000000  0.0000000  3
   2361   2359   2368   2369     1  0.0000000  0.6508444  3
   2361   2359   2368   2370     1  0.0000000  0.6508444  3
   2363   2362   2374   4813     1  0.0000000  1.0460000  1
   2363   2362   2374   4813     1  0.0000000  0.0000000  3
   2363   2362   2374   2375     1  0.0000000  0.6508444  3
   2363   2362   2374   2376     1  0.0000000  0.6508444  3
   2364   2362   2374   4813     1  0.0000000  1.0460000  1
   2364   2362   2374   4813     1  0.0000000  0.0000000  3
   2364   2362   2374   2375     1  0.0000000  0.6508444  3
   2364   2362   2374   2376     1  0.0000000  0.6508444  3
   2366   2365   2371   4784     1  0.0000000  1.0460000  1
   2366   2365   2371   4784     1  0.0000000  0.0000000  3
   2366   2365   2371   2372     1  0.0000000  0.6508444  3
   2366   2365   2371   2373     1  0.0000000  0.6508444  3
   2367   2365   2371   4784     1  0.0000000  1.0460000  1
   2367   2365   2371   4784     1  0.0000000  0.0000000  3
   2367   2365   2371   2372     1  0.0000000  0.6508444  3
   2367   2365   2371   2373     1  0.0000000  0.6508444  3
   2371   4784   4756   4757     1  0.0000000  1.6038667  3
   2371   4784   4756   4758     1  0.0000000  1.6038667  3
   2372   2371   4784   4756     1  0.0000000  1.6038667  3
   2373   2371   4784   4756     1  0.0000000  1.6038667  3
   2374   4813   4785   4786     1  0.0000000  1.6038667  3
   2374   4813   4785   4787     1  0.0000000  1.6038667  3
   2375   2374   4813   4785     1  0.0000000  1.6038667  3
   2376   2374   4813   4785     1  0.0000000  1.6038667  3
   2378   2379   2391   2392     1  0.0000000  0.6508444  3
   2378   2379   2391   2393     1  0.0000000  0.6508444  3
   2378   2382   2394   2395     1  0.0000000  0.6508444  3
   2378   2382   2394   2396     1  0.0000000  0.6508444  3
   2378   2385   2388   2389     1  0.0000000  0.6508444  3
   2378   2385   2388   2390     1  0.0000000  0.6508444  3
   2379   2378   2382   2383     1  0.0000000  1.2552000  3
   2379   2378   2382   2384     1  0.0000000  1.2552000  3
   2379   2378   2385   2386     1  0.0000000  1.2552000  3
   2379   2378   2385   2387     1  0.0000000  1.2552000  3
   2379   2391   2403   2404     1  0.0000000  0.6508444  3
   2379   2391   2403   2405     1  0.0000000  0.6508444  3
   2380   2379   2378   2382     1  0.0000000  1.2552000  3
   2380   2379   2378   2385     1  0.0000000  1.2552000  3
   2380   2379   2391   2403     1  0.0000000  0.6508444  3
   2380   2379   2391   2392     1  0.0000000  0.6508444  3
   2380   2379   2391   2393     1  0.0000000  0.6508444  3
   2381   2379   2378   2382     1  0.0000000  1.2552000  3
   2381   2379   2378   2385     1  0.0000000  1.2552000  3
   2381   2379   2391   2403     1  0.0000000  0.6508444  3
   2381   2379   2391   2392     1  0.0000000  0.6508444  3
   2381   2379   2391   2393     1  0.0000000  0.6508444  3
   2382   2378   2385   2386     1  0.0000000  1.2552000  3
   2382   2378   2385   2387     1  0.0000000  1.2552000  3
   2382   2394   2400   2401     1  0.0000000  0.6508444  3
   2382   2394   2400   2402     1  0.0000000  0.6508444  3
   2383   2382   2378   2385     1  0.0000000  1.2552000  3
   2383   2382   2394   2400     1  0.0000000  0.6508444  3
   2383   2382   2394   2395     1  0.0000000  0.6508444  3
   2383   2382   2394   2396     1  0.0000000  0.6508444  3
   2384   2382   2378   2385     1  0.0000000  1.2552000  3
   2384   2382   2394   2400     1  0.0000000  0.6508444  3
   2384   2382   2394   2395     1  0.0000000  0.6508444  3
   2384   2382   2394   2396     1  0.0000000  0.6508444  3
   2385   2388   2397   2398     1  0.0000000  0.6508444  3
   2385   2388   2397   2399     1  0.0000000  0.6508444  3
   2386   2385   2388   2397     1  0.0000000  0.6508444  3
   2386   2385   2388   2389     1  0.0000000  0.6508444  3
   2386   2385   2388   2390     1  0.0000000  0.6508444  3
   2387   2385   2388   2397     1  0.0000000  0.6508444  3
   2387   2385   2388   2389     1  0.0000000  0.6508444  3
   2387   2385   2388   2390     1  0.0000000  0.6508444  3
   2389   2388   2397   2406     1  0.0000000  1.0460000  1
   2389   2388   2397   2406     1  0.0000000  0.0000000  3
   2389   2388   2397   2398     1  0.0000000  0.6508444  3
   2389   2388   2397   2399     1  0.0000000  0.6508444  3
   2390   2388   2397   2406     1  0.0000000  1.0460000  1
   2390   2388   2397   2406     1  0.0000000  0.0000000  3
   2390   2388   2397   2398     1  0.0000000  0.6508444  3
   2390   2388   2397   2399     1  0.0000000  0.6508444  3
   2392   2391   2403   4871     1  0.0000000  1.0460000  1
   2392   2391   2403   4871     1  0.0000000  0.0000000  3
   2392   2391   2403   2404     1  0.0000000  0.6508444  3
   2392   2391   2403   2405     1  0.0000000  0.6508444  3
   2393   2391   2403   4871     1  0.0000000  1.0460000  1
   2393   2391   2403   4871     1  0.0000000  0.0000000  3
   2393   2391   2403   2404     1  0.0000000  0.6508444  3
   2393   2391   2403   2405     1  0.0000000  0.6508444  3
   2395   2394   2400   4842     1  0.0000000  1.0460000  1
   2395   2394   2400   4842     1  0.0000000  0.0000000  3
   2395   2394   2400   2401     1  0.0000000  0.6508444  3
   2395   2394   2400   2402     1  0.0000000  0.6508444  3
   2396   2394   2400   4842     1  0.0000000  1.0460000  1
   2396   2394   2400   4842     1  0.0000000  0.0000000  3
   2396   2394   2400   2401     1  0.0000000  0.6508444  3
   2396   2394   2400   2402     1  0.0000000  0.6508444  3
   2400   4842   4814   4815     1  0.0000000  1.6038667  3
   2400   4842   4814   4816     1  0.0000000  1.6038667  3
   2401   2400   4842   4814     1  0.0000000  1.6038667  3
   2402   2400   4842   4814     1  0.0000000  1.6038667  3
   2403   4871   4843   4844     1  0.0000000  1.6038667  3
   2403   4871   4843   4845     1  0.0000000  1.6038667  3
   2404   2403   4871   4843     1  0.0000000  1.6038667  3
   2405   2403   4871   4843     1  0.0000000  1.6038667  3
   2407   2408   2420   2421     1  0.0000000  0.6508444  3
   2407   2408   2420   2422     1  0.0000000  0.6508444  3
   2407   2411   2423   2424     1  0.0000000  0.6508444  3
   2407   2411   2423   2425     1  0.0000000  0.6508444  3
   2407   2414   2417   2418     1  0.0000000  0.6508444  3
   2407   2414   2417   2419     1  0.0000000  0.6508444  3
   2408   2407   2411   2412     1  0.0000000  1.2552000  3
   2408   2407   2411   2413     1  0.0000000  1.2552000  3
   2408   2407   2414   2415     1  0.0000000  1.2552000  3
   2408   2407   2414   2416     1  0.0000000  1.2552000  3
   2408   2420   2432   2433     1  0.0000000  0.6508444  3
   2408   2420   2432   2434     1  0.0000000  0.6508444  3
   2409   2408   2407   2411     1  0.0000000  1.2552000  3
   2409   2408   2407   2414     1  0.0000000  1.2552000  3
   2409   2408   2420   2432     1  0.0000000  0.6508444  3
   2409   2408   2420   2421     1  0.0000000  0.6508444  3
   2409   2408   2420   2422     1  0.0000000  0.6508444  3
   2410   2408   2407   2411     1  0.0000000  1.2552000  3
   2410   2408   2407   2414     1  0.0000000  1.2552000  3
   2410   2408   2420   2432     1  0.0000000  0.6508444  3
   2410   2408   2420   2421     1  0.0000000  0.6508444  3
   2410   2408   2420   2422     1  0.0000000  0.6508444  3
   2411   2407   2414   2415     1  0.0000000  1.2552000  3
   2411   2407   2414   2416     1  0.0000000  1.2552000  3
   2411   2423   2429   2430     1  0.0000000  0.6508444  3
   2411   2423   2429   2431     1  0.0000000  0.6508444  3
   2412   2411   2407   2414     1  0.0000000  1.2552000  3
   2412   2411   2423   2429     1  0.0000000  0.6508444  3
   2412   2411   2423   2424     1  0.0000000  0.6508444  3
   2412   2411   2423   2425     1  0.0000000  0.6508444  3
   2413   2411   2407   2414     1  0.0000000  1.2552000  3
   2413   2411   2423   2429     1  0.0000000  0.6508444  3
   2413   2411   2423   2424     1  0.0000000  0.6508444  3
   2413   2411   2423   2425     1  0.0000000  0.6508444  3
   2414   2417   2426   2427     1  0.0000000  0.6508444  3
   2414   2417   2426   2428     1  0.0000000  0.6508444  3
   2415   2414   2417   2426     1  0.0000000  0.6508444  3
   2415   2414   2417   2418     1  0.0000000  0.6508444  3
   2415   2414   2417   2419     1  0.0000000  0.6508444  3
   2416   2414   2417   2426     1  0.0000000  0.6508444  3
   2416   2414   2417   2418     1  0.0000000  0.6508444  3
   2416   2414   2417   2419     1  0.0000000  0.6508444  3
   2418   2417   2426   2435     1  0.0000000  1.0460000  1
   2418   2417   2426   2435     1  0.0000000  0.0000000  3
   2418   2417   2426   2427     1  0.0000000  0.6508444  3
   2418   2417   2426   2428     1  0.0000000  0.6508444  3
   2419   2417   2426   2435     1  0.0000000  1.0460000  1
   2419   2417   2426   2435     1  0.0000000  0.0000000  3
   2419   2417   2426   2427     1  0.0000000  0.6508444  3
   2419   2417   2426   2428     1  0.0000000  0.6508444  3
   2421   2420   2432   4929     1  0.0000000  1.0460000  1
   2421   2420   2432   4929     1  0.0000000  0.0000000  3
   2421   2420   2432   2433     1  0.0000000  0.6508444  3
   2421   2420   2432   2434     1  0.0000000  0.6508444  3
   2422   2420   2432   4929     1  0.0000000  1.0460000  1
   2422   2420   2432   4929     1  0.0000000  0.0000000  3
   2422   2420   2432   2433     1  0.0000000  0.6508444  3
   2422   2420   2432   2434     1  0.0000000  0.6508444  3
   2424   2423   2429   4900     1  0.0000000  1.0460000  1
   2424   2423   2429   4900     1  0.0000000  0.0000000  3
   2424   2423   2429   2430     1  0.0000000  0.6508444  3
   2424   2423   2429   2431     1  0.0000000  0.6508444  3
   2425   2423   2429   4900     1  0.0000000  1.0460000  1
   2425   2423   2429   4900     1  0.0000000  0.0000000  3
   2425   2423   2429   2430     1  0.0000000  0.6508444  3
   2425   2423   2429   2431     1  0.0000000  0.6508444  3
   2429   4900   4872   4873     1  0.0000000  1.6038667  3
   2429   4900   4872   4874     1  0.0000000  1.6038667  3
   2430   2429   4900   4872     1  0.0000000  1.6038667  3
   2431   2429   4900   4872     1  0.0000000  1.6038667  3
   2432   4929   4901   4902     1  0.0000000  1.6038667  3
   2432   4929   4901   4903     1  0.0000000  1.6038667  3
   2433   2432   4929   4901     1  0.0000000  1.6038667  3
   2434   2432   4929   4901     1  0.0000000  1.6038667  3
   2436   2437   2449   2450     1  0.0000000  0.6508444  3
   2436   2437   2449   2451     1  0.0000000  0.6508444  3
   2436   2440   2452   2453     1  0.0000000  0.6508444  3
   2436   2440   2452   2454     1  0.0000000  0.6508444  3
   2436   2443   2446   2447     1  0.0000000  0.6508444  3
   2436   2443   2446   2448     1  0.0000000  0.6508444  3
   2437   2436   2440   2441     1  0.0000000  1.2552000  3
   2437   2436   2440   2442     1  0.0000000  1.2552000  3
   2437   2436   2443   2444     1  0.0000000  1.2552000  3
   2437   2436   2443   2445     1  0.0000000  1.2552000  3
   2437   2449   2461   2462     1  0.0000000  0.6508444  3
   2437   2449   2461   2463     1  0.0000000  0.6508444  3
   2438   2437   2436   2440     1  0.0000000  1.2552000  3
   2438   2437   2436   2443     1  0.0000000  1.2552000  3
   2438   2437   2449   2461     1  0.0000000  0.6508444  3
   2438   2437   2449   2450     1  0.0000000  0.6508444  3
   2438   2437   2449   2451     1  0.0000000  0.6508444  3
   2439   2437   2436   2440     1  0.0000000  1.2552000  3
   2439   2437   2436   2443     1  0.0000000  1.2552000  3
   2439   2437   2449   2461     1  0.0000000  0.6508444  3
   2439   2437   2449   2450     1  0.0000000  0.6508444  3
   2439   2437   2449   2451     1  0.0000000  0.6508444  3
   2440   2436   2443   2444     1  0.0000000  1.2552000  3
   2440   2436   2443   2445     1  0.0000000  1.2552000  3
   2440   2452   2458   2459     1  0.0000000  0.6508444  3
   2440   2452   2458   2460     1  0.0000000  0.6508444  3
   2441   2440   2436   2443     1  0.0000000  1.2552000  3
   2441   2440   2452   2458     1  0.0000000  0.6508444  3
   2441   2440   2452   2453     1  0.0000000  0.6508444  3
   2441   2440   2452   2454     1  0.0000000  0.6508444  3
   2442   2440   2436   2443     1  0.0000000  1.2552000  3
   2442   2440   2452   2458     1  0.0000000  0.6508444  3
   2442   2440   2452   2453     1  0.0000000  0.6508444  3
   2442   2440   2452   2454     1  0.0000000  0.6508444  3
   2443   2446   2455   2456     1  0.0000000  0.6508444  3
   2443   2446   2455   2457     1  0.0000000  0.6508444  3
   2444   2443   2446   2455     1  0.0000000  0.6508444  3
   2444   2443   2446   2447     1  0.0000000  0.6508444  3
   2444   2443   2446   2448     1  0.0000000  0.6508444  3
   2445   2443   2446   2455     1  0.0000000  0.6508444  3
   2445   2443   2446   2447     1  0.0000000  0.6508444  3
   2445   2443   2446   2448     1  0.0000000  0.6508444  3
   2447   2446   2455   2464     1  0.0000000  1.0460000  1
   2447   2446   2455   2464     1  0.0000000  0.0000000  3
   2447   2446   2455   2456     1  0.0000000  0.6508444  3
   2447   2446   2455   2457     1  0.0000000  0.6508444  3
   2448   2446   2455   2464     1  0.0000000  1.0460000  1
   2448   2446   2455   2464     1  0.0000000  0.0000000  3
   2448   2446   2455   2456     1  0.0000000  0.6508444  3
   2448   2446   2455   2457     1  0.0000000  0.6508444  3
   2450   2449   2461   4987     1  0.0000000  1.0460000  1
   2450   2449   2461   4987     1  0.0000000  0.0000000  3
   2450   2449   2461   2462     1  0.0000000  0.6508444  3
   2450   2449   2461   2463     1  0.0000000  0.6508444  3
   2451   2449   2461   4987     1  0.0000000  1.0460000  1
   2451   2449   2461   4987     1  0.0000000  0.0000000  3
   2451   2449   2461   2462     1  0.0000000  0.6508444  3
   2451   2449   2461   2463     1  0.0000000  0.6508444  3
   2453   2452   2458   4958     1  0.0000000  1.0460000  1
   2453   2452   2458   4958     1  0.0000000  0.0000000  3
   2453   2452   2458   2459     1  0.0000000  0.6508444  3
   2453   2452   2458   2460     1  0.0000000  0.6508444  3
   2454   2452   2458   4958     1  0.0000000  1.0460000  1
   2454   2452   2458   4958     1  0.0000000  0.0000000  3
   2454   2452   2458   2459     1  0.0000000  0.6508444  3
   2454   2452   2458   2460     1  0.0000000  0.6508444  3
   2458   4958   4930   4931     1  0.0000000  1.6038667  3
   2458   4958   4930   4932     1  0.0000000  1.6038667  3
   2459   2458   4958   4930     1  0.0000000  1.6038667  3
   2460   2458   4958   4930     1  0.0000000  1.6038667  3
   2461   4987   4959   4960     1  0.0000000  1.6038667  3
   2461   4987   4959   4961     1  0.0000000  1.6038667  3
   2462   2461   4987   4959     1  0.0000000  1.6038667  3
   2463   2461   4987   4959     1  0.0000000  1.6038667  3
   2465   2466   2478   2479     1  0.0000000  0.6508444  3
   2465   2466   2478   2480     1  0.0000000  0.6508444  3
   2465   2469   2481   2482     1  0.0000000  0.6508444  3
   2465   2469   2481   2483     1  0.0000000  0.6508444  3
   2465   2472   2475   2476     1  0.0000000  0.6508444  3
   2465   2472   2475   2477     1  0.0000000  0.6508444  3
   2466   2465   2469   2470     1  0.0000000  1.2552000  3
   2466   2465   2469   2471     1  0.0000000  1.2552000  3
   2466   2465   2472   2473     1  0.0000000  1.2552000  3
   2466   2465   2472   2474     1  0.0000000  1.2552000  3
   2466   2478   2490   2491     1  0.0000000  0.6508444  3
   2466   2478   2490   2492     1  0.0000000  0.6508444  3
   2467   2466   2465   2469     1  0.0000000  1.2552000  3
   2467   2466   2465   2472     1  0.0000000  1.2552000  3
   2467   2466   2478   2490     1  0.0000000  0.6508444  3
   2467   2466   2478   2479     1  0.0000000  0.6508444  3
   2467   2466   2478   2480     1  0.0000000  0.6508444  3
   2468   2466   2465   2469     1  0.0000000  1.2552000  3
   2468   2466   2465   2472     1  0.0000000  1.2552000  3
   2468   2466   2478   2490     1  0.0000000  0.6508444  3
   2468   2466   2478   2479     1  0.0000000  0.6508444  3
   2468   2466   2478   2480     1  0.0000000  0.6508444  3
   2469   2465   2472   2473     1  0.0000000  1.2552000  3
   2469   2465   2472   2474     1  0.0000000  1.2552000  3
   2469   2481   2487   2488     1  0.0000000  0.6508444  3
   2469   2481   2487   2489     1  0.0000000  0.6508444  3
   2470   2469   2465   2472     1  0.0000000  1.2552000  3
   2470   2469   2481   2487     1  0.0000000  0.6508444  3
   2470   2469   2481   2482     1  0.0000000  0.6508444  3
   2470   2469   2481   2483     1  0.0000000  0.6508444  3
   2471   2469   2465   2472     1  0.0000000  1.2552000  3
   2471   2469   2481   2487     1  0.0000000  0.6508444  3
   2471   2469   2481   2482     1  0.0000000  0.6508444  3
   2471   2469   2481   2483     1  0.0000000  0.6508444  3
   2472   2475   2484   2485     1  0.0000000  0.6508444  3
   2472   2475   2484   2486     1  0.0000000  0.6508444  3
   2473   2472   2475   2484     1  0.0000000  0.6508444  3
   2473   2472   2475   2476     1  0.0000000  0.6508444  3
   2473   2472   2475   2477     1  0.0000000  0.6508444  3
   2474   2472   2475   2484     1  0.0000000  0.6508444  3
   2474   2472   2475   2476     1  0.0000000  0.6508444  3
   2474   2472   2475   2477     1  0.0000000  0.6508444  3
   2476   2475   2484   2493     1  0.0000000  1.0460000  1
   2476   2475   2484   2493     1  0.0000000  0.0000000  3
   2476   2475   2484   2485     1  0.0000000  0.6508444  3
   2476   2475   2484   2486     1  0.0000000  0.6508444  3
   2477   2475   2484   2493     1  0.0000000  1.0460000  1
   2477   2475   2484   2493     1  0.0000000  0.0000000  3
   2477   2475   2484   2485     1  0.0000000  0.6508444  3
   2477   2475   2484   2486     1  0.0000000  0.6508444  3
   2479   2478   2490   5045     1  0.0000000  1.0460000  1
   2479   2478   2490   5045     1  0.0000000  0.0000000  3
   2479   2478   2490   2491     1  0.0000000  0.6508444  3
   2479   2478   2490   2492     1  0.0000000  0.6508444  3
   2480   2478   2490   5045     1  0.0000000  1.0460000  1
   2480   2478   2490   5045     1  0.0000000  0.0000000  3
   2480   2478   2490   2491     1  0.0000000  0.6508444  3
   2480   2478   2490   2492     1  0.0000000  0.6508444  3
   2482   2481   2487   5016     1  0.0000000  1.0460000  1
   2482   2481   2487   5016     1  0.0000000  0.0000000  3
   2482   2481   2487   2488     1  0.0000000  0.6508444  3
   2482   2481   2487   2489     1  0.0000000  0.6508444  3
   2483   2481   2487   5016     1  0.0000000  1.0460000  1
   2483   2481   2487   5016     1  0.0000000  0.0000000  3
   2483   2481   2487   2488     1  0.0000000  0.6508444  3
   2483   2481   2487   2489     1  0.0000000  0.6508444  3
   2487   5016   4988   4989     1  0.0000000  1.6038667  3
   2487   5016   4988   4990     1  0.0000000  1.6038667  3
   2488   2487   5016   4988     1  0.0000000  1.6038667  3
   2489   2487   5016   4988     1  0.0000000  1.6038667  3
   2490   5045   5017   5018     1  0.0000000  1.6038667  3
   2490   5045   5017   5019     1  0.0000000  1.6038667  3
   2491   2490   5045   5017     1  0.0000000  1.6038667  3
   2492   2490   5045   5017     1  0.0000000  1.6038667  3
   2494   2495   2507   2508     1  0.0000000  0.6508444  3
   2494   2495   2507   2509     1  0.0000000  0.6508444  3
   2494   2498   2510   2511     1  0.0000000  0.6508444  3
   2494   2498   2510   2512     1  0.0000000  0.6508444  3
   2494   2501   2504   2505     1  0.0000000  0.6508444  3
   2494   2501   2504   2506     1  0.0000000  0.6508444  3
   2495   2494   2498   2499     1  0.0000000  1.2552000  3
   2495   2494   2498   2500     1  0.0000000  1.2552000  3
   2495   2494   2501   2502     1  0.0000000  1.2552000  3
   2495   2494   2501   2503     1  0.0000000  1.2552000  3
   2495   2507   2519   2520     1  0.0000000  0.6508444  3
   2495   2507   2519   2521     1  0.0000000  0.6508444  3
   2496   2495   2494   2498     1  0.0000000  1.2552000  3
   2496   2495   2494   2501     1  0.0000000  1.2552000  3
   2496   2495   2507   2519     1  0.0000000  0.6508444  3
   2496   2495   2507   2508     1  0.0000000  0.6508444  3
   2496   2495   2507   2509     1  0.0000000  0.6508444  3
   2497   2495   2494   2498     1  0.0000000  1.2552000  3
   2497   2495   2494   2501     1  0.0000000  1.2552000  3
   2497   2495   2507   2519     1  0.0000000  0.6508444  3
   2497   2495   2507   2508     1  0.0000000  0.6508444  3
   2497   2495   2507   2509     1  0.0000000  0.6508444  3
   2498   2494   2501   2502     1  0.0000000  1.2552000  3
   2498   2494   2501   2503     1  0.0000000  1.2552000  3
   2498   2510   2516   2517     1  0.0000000  0.6508444  3
   2498   2510   2516   2518     1  0.0000000  0.6508444  3
   2499   2498   2494   2501     1  0.0000000  1.2552000  3
   2499   2498   2510   2516     1  0.0000000  0.6508444  3
   2499   2498   2510   2511     1  0.0000000  0.6508444  3
   2499   2498   2510   2512     1  0.0000000  0.6508444  3
   2500   2498   2494   2501     1  0.0000000  1.2552000  3
   2500   2498   2510   2516     1  0.0000000  0.6508444  3
   2500   2498   2510   2511     1  0.0000000  0.6508444  3
   2500   2498   2510   2512     1  0.0000000  0.6508444  3
   2501   2504   2513   2514     1  0.0000000  0.6508444  3
   2501   2504   2513   2515     1  0.0000000  0.6508444  3
   2502   2501   2504   2513     1  0.0000000  0.6508444  3
   2502   2501   2504   2505     1  0.0000000  0.6508444  3
   2502   2501   2504   2506     1  0.0000000  0.6508444  3
   2503   2501   2504   2513     1  0.0000000  0.6508444  3
   2503   2501   2504   2505     1  0.0000000  0.6508444  3
   2503   2501   2504   2506     1  0.0000000  0.6508444  3
   2505   2504   2513   2522     1  0.0000000  1.0460000  1
   2505   2504   2513   2522     1  0.0000000  0.0000000  3
   2505   2504   2513   2514     1  0.0000000  0.6508444  3
   2505   2504   2513   2515     1  0.0000000  0.6508444  3
   2506   2504   2513   2522     1  0.0000000  1.0460000  1
   2506   2504   2513   2522     1  0.0000000  0.0000000  3
   2506   2504   2513   2514     1  0.0000000  0.6508444  3
   2506   2504   2513   2515     1  0.0000000  0.6508444  3
   2508   2507   2519   5103     1  0.0000000  1.0460000  1
   2508   2507   2519   5103     1  0.0000000  0.0000000  3
   2508   2507   2519   2520     1  0.0000000  0.6508444  3
   2508   2507   2519   2521     1  0.0000000  0.6508444  3
   2509   2507   2519   5103     1  0.0000000  1.0460000  1
   2509   2507   2519   5103     1  0.0000000  0.0000000  3
   2509   2507   2519   2520     1  0.0000000  0.6508444  3
   2509   2507   2519   2521     1  0.0000000  0.6508444  3
   2511   2510   2516   5074     1  0.0000000  1.0460000  1
   2511   2510   2516   5074     1  0.0000000  0.0000000  3
   2511   2510   2516   2517     1  0.0000000  0.6508444  3
   2511   2510   2516   2518     1  0.0000000  0.6508444  3
   2512   2510   2516   5074     1  0.0000000  1.0460000  1
   2512   2510   2516   5074     1  0.0000000  0.0000000  3
   2512   2510   2516   2517     1  0.0000000  0.6508444  3
   2512   2510   2516   2518     1  0.0000000  0.6508444  3
   2516   5074   5046   5047     1  0.0000000  1.6038667  3
   2516   5074   5046   5048     1  0.0000000  1.6038667  3
   2517   2516   5074   5046     1  0.0000000  1.6038667  3
   2518   2516   5074   5046     1  0.0000000  1.6038667  3
   2519   5103   5075   5076     1  0.0000000  1.6038667  3
   2519   5103   5075   5077     1  0.0000000  1.6038667  3
   2520   2519   5103   5075     1  0.0000000  1.6038667  3
   2521   2519   5103   5075     1  0.0000000  1.6038667  3
   2523   2524   2536   2537     1  0.0000000  0.6508444  3
   2523   2524   2536   2538     1  0.0000000  0.6508444  3
   2523   2527   2539   2540     1  0.0000000  0.6508444  3
   2523   2527   2539   2541     1  0.0000000  0.6508444  3
   2523   2530   2533   2534     1  0.0000000  0.6508444  3
   2523   2530   2533   2535     1  0.0000000  0.6508444  3
   2524   2523   2527   2528     1  0.0000000  1.2552000  3
   2524   2523   2527   2529     1  0.0000000  1.2552000  3
   2524   2523   2530   2531     1  0.0000000  1.2552000  3
   2524   2523   2530   2532     1  0.0000000  1.2552000  3
   2524   2536   2548   2549     1  0.0000000  0.6508444  3
   2524   2536   2548   2550     1  0.0000000  0.6508444  3
   2525   2524   2523   2527     1  0.0000000  1.2552000  3
   2525   2524   2523   2530     1  0.0000000  1.2552000  3
   2525   2524   2536   2548     1  0.0000000  0.6508444  3
   2525   2524   2536   2537     1  0.0000000  0.6508444  3
   2525   2524   2536   2538     1  0.0000000  0.6508444  3
   2526   2524   2523   2527     1  0.0000000  1.2552000  3
   2526   2524   2523   2530     1  0.0000000  1.2552000  3
   2526   2524   2536   2548     1  0.0000000  0.6508444  3
   2526   2524   2536   2537     1  0.0000000  0.6508444  3
   2526   2524   2536   2538     1  0.0000000  0.6508444  3
   2527   2523   2530   2531     1  0.0000000  1.2552000  3
   2527   2523   2530   2532     1  0.0000000  1.2552000  3
   2527   2539   2545   2546     1  0.0000000  0.6508444  3
   2527   2539   2545   2547     1  0.0000000  0.6508444  3
   2528   2527   2523   2530     1  0.0000000  1.2552000  3
   2528   2527   2539   2545     1  0.0000000  0.6508444  3
   2528   2527   2539   2540     1  0.0000000  0.6508444  3
   2528   2527   2539   2541     1  0.0000000  0.6508444  3
   2529   2527   2523   2530     1  0.0000000  1.2552000  3
   2529   2527   2539   2545     1  0.0000000  0.6508444  3
   2529   2527   2539   2540     1  0.0000000  0.6508444  3
   2529   2527   2539   2541     1  0.0000000  0.6508444  3
   2530   2533   2542   2543     1  0.0000000  0.6508444  3
   2530   2533   2542   2544     1  0.0000000  0.6508444  3
   2531   2530   2533   2542     1  0.0000000  0.6508444  3
   2531   2530   2533   2534     1  0.0000000  0.6508444  3
   2531   2530   2533   2535     1  0.0000000  0.6508444  3
   2532   2530   2533   2542     1  0.0000000  0.6508444  3
   2532   2530   2533   2534     1  0.0000000  0.6508444  3
   2532   2530   2533   2535     1  0.0000000  0.6508444  3
   2534   2533   2542   2551     1  0.0000000  1.0460000  1
   2534   2533   2542   2551     1  0.0000000  0.0000000  3
   2534   2533   2542   2543     1  0.0000000  0.6508444  3
   2534   2533   2542   2544     1  0.0000000  0.6508444  3
   2535   2533   2542   2551     1  0.0000000  1.0460000  1
   2535   2533   2542   2551     1  0.0000000  0.0000000  3
   2535   2533   2542   2543     1  0.0000000  0.6508444  3
   2535   2533   2542   2544     1  0.0000000  0.6508444  3
   2537   2536   2548   5161     1  0.0000000  1.0460000  1
   2537   2536   2548   5161     1  0.0000000  0.0000000  3
   2537   2536   2548   2549     1  0.0000000  0.6508444  3
   2537   2536   2548   2550     1  0.0000000  0.6508444  3
   2538   2536   2548   5161     1  0.0000000  1.0460000  1
   2538   2536   2548   5161     1  0.0000000  0.0000000  3
   2538   2536   2548   2549     1  0.0000000  0.6508444  3
   2538   2536   2548   2550     1  0.0000000  0.6508444  3
   2540   2539   2545   5132     1  0.0000000  1.0460000  1
   2540   2539   2545   5132     1  0.0000000  0.0000000  3
   2540   2539   2545   2546     1  0.0000000  0.6508444  3
   2540   2539   2545   2547     1  0.0000000  0.6508444  3
   2541   2539   2545   5132     1  0.0000000  1.0460000  1
   2541   2539   2545   5132     1  0.0000000  0.0000000  3
   2541   2539   2545   2546     1  0.0000000  0.6508444  3
   2541   2539   2545   2547     1  0.0000000  0.6508444  3
   2545   5132   5104   5105     1  0.0000000  1.6038667  3
   2545   5132   5104   5106     1  0.0000000  1.6038667  3
   2546   2545   5132   5104     1  0.0000000  1.6038667  3
   2547   2545   5132   5104     1  0.0000000  1.6038667  3
   2548   5161   5133   5134     1  0.0000000  1.6038667  3
   2548   5161   5133   5135     1  0.0000000  1.6038667  3
   2549   2548   5161   5133     1  0.0000000  1.6038667  3
   2550   2548   5161   5133     1  0.0000000  1.6038667  3
   2552   2553   2565   2566     1  0.0000000  0.6508444  3
   2552   2553   2565   2567     1  0.0000000  0.6508444  3
   2552   2556   2568   2569     1  0.0000000  0.6508444  3
   2552   2556   2568   2570     1  0.0000000  0.6508444  3
   2552   2559   2562   2563     1  0.0000000  0.6508444  3
   2552   2559   2562   2564     1  0.0000000  0.6508444  3
   2553   2552   2556   2557     1  0.0000000  1.2552000  3
   2553   2552   2556   2558     1  0.0000000  1.2552000  3
   2553   2552   2559   2560     1  0.0000000  1.2552000  3
   2553   2552   2559   2561     1  0.0000000  1.2552000  3
   2553   2565   2577   2578     1  0.0000000  0.6508444  3
   2553   2565   2577   2579     1  0.0000000  0.6508444  3
   2554   2553   2552   2556     1  0.0000000  1.2552000  3
   2554   2553   2552   2559     1  0.0000000  1.2552000  3
   2554   2553   2565   2577     1  0.0000000  0.6508444  3
   2554   2553   2565   2566     1  0.0000000  0.6508444  3
   2554   2553   2565   2567     1  0.0000000  0.6508444  3
   2555   2553   2552   2556     1  0.0000000  1.2552000  3
   2555   2553   2552   2559     1  0.0000000  1.2552000  3
   2555   2553   2565   2577     1  0.0000000  0.6508444  3
   2555   2553   2565   2566     1  0.0000000  0.6508444  3
   2555   2553   2565   2567     1  0.0000000  0.6508444  3
   2556   2552   2559   2560     1  0.0000000  1.2552000  3
   2556   2552   2559   2561     1  0.0000000  1.2552000  3
   2556   2568   2574   2575     1  0.0000000  0.6508444  3
   2556   2568   2574   2576     1  0.0000000  0.6508444  3
   2557   2556   2552   2559     1  0.0000000  1.2552000  3
   2557   2556   2568   2574     1  0.0000000  0.6508444  3
   2557   2556   2568   2569     1  0.0000000  0.6508444  3
   2557   2556   2568   2570     1  0.0000000  0.6508444  3
   2558   2556   2552   2559     1  0.0000000  1.2552000  3
   2558   2556   2568   2574     1  0.0000000  0.6508444  3
   2558   2556   2568   2569     1  0.0000000  0.6508444  3
   2558   2556   2568   2570     1  0.0000000  0.6508444  3
   2559   2562   2571   2572     1  0.0000000  0.6508444  3
   2559   2562   2571   2573     1  0.0000000  0.6508444  3
   2560   2559   2562   2571     1  0.0000000  0.6508444  3
   2560   2559   2562   2563     1  0.0000000  0.6508444  3
   2560   2559   2562   2564     1  0.0000000  0.6508444  3
   2561   2559   2562   2571     1  0.0000000  0.6508444  3
   2561   2559   2562   2563     1  0.0000000  0.6508444  3
   2561   2559   2562   2564     1  0.0000000  0.6508444  3
   2563   2562   2571   2580     1  0.0000000  1.0460000  1
   2563   2562   2571   2580     1  0.0000000  0.0000000  3
   2563   2562   2571   2572     1  0.0000000  0.6508444  3
   2563   2562   2571   2573     1  0.0000000  0.6508444  3
   2564   2562   2571   2580     1  0.0000000  1.0460000  1
   2564   2562   2571   2580     1  0.0000000  0.0000000  3
   2564   2562   2571   2572     1  0.0000000  0.6508444  3
   2564   2562   2571   2573     1  0.0000000  0.6508444  3
   2566   2565   2577   5219     1  0.0000000  1.0460000  1
   2566   2565   2577   5219     1  0.0000000  0.0000000  3
   2566   2565   2577   2578     1  0.0000000  0.6508444  3
   2566   2565   2577   2579     1  0.0000000  0.6508444  3
   2567   2565   2577   5219     1  0.0000000  1.0460000  1
   2567   2565   2577   5219     1  0.0000000  0.0000000  3
   2567   2565   2577   2578     1  0.0000000  0.6508444  3
   2567   2565   2577   2579     1  0.0000000  0.6508444  3
   2569   2568   2574   5190     1  0.0000000  1.0460000  1
   2569   2568   2574   5190     1  0.0000000  0.0000000  3
   2569   2568   2574   2575     1  0.0000000  0.6508444  3
   2569   2568   2574   2576     1  0.0000000  0.6508444  3
   2570   2568   2574   5190     1  0.0000000  1.0460000  1
   2570   2568   2574   5190     1  0.0000000  0.0000000  3
   2570   2568   2574   2575     1  0.0000000  0.6508444  3
   2570   2568   2574   2576     1  0.0000000  0.6508444  3
   2574   5190   5162   5163     1  0.0000000  1.6038667  3
   2574   5190   5162   5164     1  0.0000000  1.6038667  3
   2575   2574   5190   5162     1  0.0000000  1.6038667  3
   2576   2574   5190   5162     1  0.0000000  1.6038667  3
   2577   5219   5191   5192     1  0.0000000  1.6038667  3
   2577   5219   5191   5193     1  0.0000000  1.6038667  3
   2578   2577   5219   5191     1  0.0000000  1.6038667  3
   2579   2577   5219   5191     1  0.0000000  1.6038667  3
   2581   2582   2594   2595     1  0.0000000  0.6508444  3
   2581   2582   2594   2596     1  0.0000000  0.6508444  3
   2581   2585   2597   2598     1  0.0000000  0.6508444  3
   2581   2585   2597   2599     1  0.0000000  0.6508444  3
   2581   2588   2591   2592     1  0.0000000  0.6508444  3
   2581   2588   2591   2593     1  0.0000000  0.6508444  3
   2582   2581   2585   2586     1  0.0000000  1.2552000  3
   2582   2581   2585   2587     1  0.0000000  1.2552000  3
   2582   2581   2588   2589     1  0.0000000  1.2552000  3
   2582   2581   2588   2590     1  0.0000000  1.2552000  3
   2582   2594   2606   2607     1  0.0000000  0.6508444  3
   2582   2594   2606   2608     1  0.0000000  0.6508444  3
   2583   2582   2581   2585     1  0.0000000  1.2552000  3
   2583   2582   2581   2588     1  0.0000000  1.2552000  3
   2583   2582   2594   2606     1  0.0000000  0.6508444  3
   2583   2582   2594   2595     1  0.0000000  0.6508444  3
   2583   2582   2594   2596     1  0.0000000  0.6508444  3
   2584   2582   2581   2585     1  0.0000000  1.2552000  3
   2584   2582   2581   2588     1  0.0000000  1.2552000  3
   2584   2582   2594   2606     1  0.0000000  0.6508444  3
   2584   2582   2594   2595     1  0.0000000  0.6508444  3
   2584   2582   2594   2596     1  0.0000000  0.6508444  3
   2585   2581   2588   2589     1  0.0000000  1.2552000  3
   2585   2581   2588   2590     1  0.0000000  1.2552000  3
   2585   2597   2603   2604     1  0.0000000  0.6508444  3
   2585   2597   2603   2605     1  0.0000000  0.6508444  3
   2586   2585   2581   2588     1  0.0000000  1.2552000  3
   2586   2585   2597   2603     1  0.0000000  0.6508444  3
   2586   2585   2597   2598     1  0.0000000  0.6508444  3
   2586   2585   2597   2599     1  0.0000000  0.6508444  3
   2587   2585   2581   2588     1  0.0000000  1.2552000  3
   2587   2585   2597   2603     1  0.0000000  0.6508444  3
   2587   2585   2597   2598     1  0.0000000  0.6508444  3
   2587   2585   2597   2599     1  0.0000000  0.6508444  3
   2588   2591   2600   2601     1  0.0000000  0.6508444  3
   2588   2591   2600   2602     1  0.0000000  0.6508444  3
   2589   2588   2591   2600     1  0.0000000  0.6508444  3
   2589   2588   2591   2592     1  0.0000000  0.6508444  3
   2589   2588   2591   2593     1  0.0000000  0.6508444  3
   2590   2588   2591   2600     1  0.0000000  0.6508444  3
   2590   2588   2591   2592     1  0.0000000  0.6508444  3
   2590   2588   2591   2593     1  0.0000000  0.6508444  3
   2592   2591   2600   2609     1  0.0000000  1.0460000  1
   2592   2591   2600   2609     1  0.0000000  0.0000000  3
   2592   2591   2600   2601     1  0.0000000  0.6508444  3
   2592   2591   2600   2602     1  0.0000000  0.6508444  3
   2593   2591   2600   2609     1  0.0000000  1.0460000  1
   2593   2591   2600   2609     1  0.0000000  0.0000000  3
   2593   2591   2600   2601     1  0.0000000  0.6508444  3
   2593   2591   2600   2602     1  0.0000000  0.6508444  3
   2595   2594   2606   5277     1  0.0000000  1.0460000  1
   2595   2594   2606   5277     1  0.0000000  0.0000000  3
   2595   2594   2606   2607     1  0.0000000  0.6508444  3
   2595   2594   2606   2608     1  0.0000000  0.6508444  3
   2596   2594   2606   5277     1  0.0000000  1.0460000  1
   2596   2594   2606   5277     1  0.0000000  0.0000000  3
   2596   2594   2606   2607     1  0.0000000  0.6508444  3
   2596   2594   2606   2608     1  0.0000000  0.6508444  3
   2598   2597   2603   5248     1  0.0000000  1.0460000  1
   2598   2597   2603   5248     1  0.0000000  0.0000000  3
   2598   2597   2603   2604     1  0.0000000  0.6508444  3
   2598   2597   2603   2605     1  0.0000000  0.6508444  3
   2599   2597   2603   5248     1  0.0000000  1.0460000  1
   2599   2597   2603   5248     1  0.0000000  0.0000000  3
   2599   2597   2603   2604     1  0.0000000  0.6508444  3
   2599   2597   2603   2605     1  0.0000000  0.6508444  3
   2603   5248   5220   5221     1  0.0000000  1.6038667  3
   2603   5248   5220   5222     1  0.0000000  1.6038667  3
   2604   2603   5248   5220     1  0.0000000  1.6038667  3
   2605   2603   5248   5220     1  0.0000000  1.6038667  3
   2606   5277   5249   5250     1  0.0000000  1.6038667  3
   2606   5277   5249   5251     1  0.0000000  1.6038667  3
   2607   2606   5277   5249     1  0.0000000  1.6038667  3
   2608   2606   5277   5249     1  0.0000000  1.6038667  3
   2610   2611   2623   2624     1  0.0000000  0.6508444  3
   2610   2611   2623   2625     1  0.0000000  0.6508444  3
   2610   2614   2626   2627     1  0.0000000  0.6508444  3
   2610   2614   2626   2628     1  0.0000000  0.6508444  3
   2610   2617   2620   2621     1  0.0000000  0.6508444  3
   2610   2617   2620   2622     1  0.0000000  0.6508444  3
   2611   2610   2614   2615     1  0.0000000  1.2552000  3
   2611   2610   2614   2616     1  0.0000000  1.2552000  3
   2611   2610   2617   2618     1  0.0000000  1.2552000  3
   2611   2610   2617   2619     1  0.0000000  1.2552000  3
   2611   2623   2635   2636     1  0.0000000  0.6508444  3
   2611   2623   2635   2637     1  0.0000000  0.6508444  3
   2612   2611   2610   2614     1  0.0000000  1.2552000  3
   2612   2611   2610   2617     1  0.0000000  1.2552000  3
   2612   2611   2623   2635     1  0.0000000  0.6508444  3
   2612   2611   2623   2624     1  0.0000000  0.6508444  3
   2612   2611   2623   2625     1  0.0000000  0.6508444  3
   2613   2611   2610   2614     1  0.0000000  1.2552000  3
   2613   2611   2610   2617     1  0.0000000  1.2552000  3
   2613   2611   2623   2635     1  0.0000000  0.6508444  3
   2613   2611   2623   2624     1  0.0000000  0.6508444  3
   2613   2611   2623   2625     1  0.0000000  0.6508444  3
   2614   2610   2617   2618     1  0.0000000  1.2552000  3
   2614   2610   2617   2619     1  0.0000000  1.2552000  3
   2614   2626   2632   2633     1  0.0000000  0.6508444  3
   2614   2626   2632   2634     1  0.0000000  0.6508444  3
   2615   2614   2610   2617     1  0.0000000  1.2552000  3
   2615   2614   2626   2632     1  0.0000000  0.6508444  3
   2615   2614   2626   2627     1  0.0000000  0.6508444  3
   2615   2614   2626   2628     1  0.0000000  0.6508444  3
   2616   2614   2610   2617     1  0.0000000  1.2552000  3
   2616   2614   2626   2632     1  0.0000000  0.6508444  3
   2616   2614   2626   2627     1  0.0000000  0.6508444  3
   2616   2614   2626   2628     1  0.0000000  0.6508444  3
   2617   2620   2629   2630     1  0.0000000  0.6508444  3
   2617   2620   2629   2631     1  0.0000000  0.6508444  3
   2618   2617   2620   2629     1  0.0000000  0.6508444  3
   2618   2617   2620   2621     1  0.0000000  0.6508444  3
   2618   2617   2620   2622     1  0.0000000  0.6508444  3
   2619   2617   2620   2629     1  0.0000000  0.6508444  3
   2619   2617   2620   2621     1  0.0000000  0.6508444  3
   2619   2617   2620   2622     1  0.0000000  0.6508444  3
   2621   2620   2629   2638     1  0.0000000  1.0460000  1
   2621   2620   2629   2638     1  0.0000000  0.0000000  3
   2621   2620   2629   2630     1  0.0000000  0.6508444  3
   2621   2620   2629   2631     1  0.0000000  0.6508444  3
   2622   2620   2629   2638     1  0.0000000  1.0460000  1
   2622   2620   2629   2638     1  0.0000000  0.0000000  3
   2622   2620   2629   2630     1  0.0000000  0.6508444  3
   2622   2620   2629   2631     1  0.0000000  0.6508444  3
   2624   2623   2635   5335     1  0.0000000  1.0460000  1
   2624   2623   2635   5335     1  0.0000000  0.0000000  3
   2624   2623   2635   2636     1  0.0000000  0.6508444  3
   2624   2623   2635   2637     1  0.0000000  0.6508444  3
   2625   2623   2635   5335     1  0.0000000  1.0460000  1
   2625   2623   2635   5335     1  0.0000000  0.0000000  3
   2625   2623   2635   2636     1  0.0000000  0.6508444  3
   2625   2623   2635   2637     1  0.0000000  0.6508444  3
   2627   2626   2632   5306     1  0.0000000  1.0460000  1
   2627   2626   2632   5306     1  0.0000000  0.0000000  3
   2627   2626   2632   2633     1  0.0000000  0.6508444  3
   2627   2626   2632   2634     1  0.0000000  0.6508444  3
   2628   2626   2632   5306     1  0.0000000  1.0460000  1
   2628   2626   2632   5306     1  0.0000000  0.0000000  3
   2628   2626   2632   2633     1  0.0000000  0.6508444  3
   2628   2626   2632   2634     1  0.0000000  0.6508444  3
   2632   5306   5278   5279     1  0.0000000  1.6038667  3
   2632   5306   5278   5280     1  0.0000000  1.6038667  3
   2633   2632   5306   5278     1  0.0000000  1.6038667  3
   2634   2632   5306   5278     1  0.0000000  1.6038667  3
   2635   5335   5307   5308     1  0.0000000  1.6038667  3
   2635   5335   5307   5309     1  0.0000000  1.6038667  3
   2636   2635   5335   5307     1  0.0000000  1.6038667  3
   2637   2635   5335   5307     1  0.0000000  1.6038667  3
   2639   2640   2652   2653     1  0.0000000  0.6508444  3
   2639   2640   2652   2654     1  0.0000000  0.6508444  3
   2639   2643   2655   2656     1  0.0000000  0.6508444  3
   2639   2643   2655   2657     1  0.0000000  0.6508444  3
   2639   2646   2649   2650     1  0.0000000  0.6508444  3
   2639   2646   2649   2651     1  0.0000000  0.6508444  3
   2640   2639   2643   2644     1  0.0000000  1.2552000  3
   2640   2639   2643   2645     1  0.0000000  1.2552000  3
   2640   2639   2646   2647     1  0.0000000  1.2552000  3
   2640   2639   2646   2648     1  0.0000000  1.2552000  3
   2640   2652   2664   2665     1  0.0000000  0.6508444  3
   2640   2652   2664   2666     1  0.0000000  0.6508444  3
   2641   2640   2639   2643     1  0.0000000  1.2552000  3
   2641   2640   2639   2646     1  0.0000000  1.2552000  3
   2641   2640   2652   2664     1  0.0000000  0.6508444  3
   2641   2640   2652   2653     1  0.0000000  0.6508444  3
   2641   2640   2652   2654     1  0.0000000  0.6508444  3
   2642   2640   2639   2643     1  0.0000000  1.2552000  3
   2642   2640   2639   2646     1  0.0000000  1.2552000  3
   2642   2640   2652   2664     1  0.0000000  0.6508444  3
   2642   2640   2652   2653     1  0.0000000  0.6508444  3
   2642   2640   2652   2654     1  0.0000000  0.6508444  3
   2643   2639   2646   2647     1  0.0000000  1.2552000  3
   2643   2639   2646   2648     1  0.0000000  1.2552000  3
   2643   2655   2661   2662     1  0.0000000  0.6508444  3
   2643   2655   2661   2663     1  0.0000000  0.6508444  3
   2644   2643   2639   2646     1  0.0000000  1.2552000  3
   2644   2643   2655   2661     1  0.0000000  0.6508444  3
   2644   2643   2655   2656     1  0.0000000  0.6508444  3
   2644   2643   2655   2657     1  0.0000000  0.6508444  3
   2645   2643   2639   2646     1  0.0000000  1.2552000  3
   2645   2643   2655   2661     1  0.0000000  0.6508444  3
   2645   2643   2655   2656     1  0.0000000  0.6508444  3
   2645   2643   2655   2657     1  0.0000000  0.6508444  3
   2646   2649   2658   2659     1  0.0000000  0.6508444  3
   2646   2649   2658   2660     1  0.0000000  0.6508444  3
   2647   2646   2649   2658     1  0.0000000  0.6508444  3
   2647   2646   2649   2650     1  0.0000000  0.6508444  3
   2647   2646   2649   2651     1  0.0000000  0.6508444  3
   2648   2646   2649   2658     1  0.0000000  0.6508444  3
   2648   2646   2649   2650     1  0.0000000  0.6508444  3
   2648   2646   2649   2651     1  0.0000000  0.6508444  3
   2650   2649   2658   2667     1  0.0000000  1.0460000  1
   2650   2649   2658   2667     1  0.0000000  0.0000000  3
   2650   2649   2658   2659     1  0.0000000  0.6508444  3
   2650   2649   2658   2660     1  0.0000000  0.6508444  3
   2651   2649   2658   2667     1  0.0000000  1.0460000  1
   2651   2649   2658   2667     1  0.0000000  0.0000000  3
   2651   2649   2658   2659     1  0.0000000  0.6508444  3
   2651   2649   2658   2660     1  0.0000000  0.6508444  3
   2653   2652   2664   5393     1  0.0000000  1.0460000  1
   2653   2652   2664   5393     1  0.0000000  0.0000000  3
   2653   2652   2664   2665     1  0.0000000  0.6508444  3
   2653   2652   2664   2666     1  0.0000000  0.6508444  3
   2654   2652   2664   5393     1  0.0000000  1.0460000  1
   2654   2652   2664   5393     1  0.0000000  0.0000000  3
   2654   2652   2664   2665     1  0.0000000  0.6508444  3
   2654   2652   2664   2666     1  0.0000000  0.6508444  3
   2656   2655   2661   5364     1  0.0000000  1.0460000  1
   2656   2655   2661   5364     1  0.0000000  0.0000000  3
   2656   2655   2661   2662     1  0.0000000  0.6508444  3
   2656   2655   2661   2663     1  0.0000000  0.6508444  3
   2657   2655   2661   5364     1  0.0000000  1.0460000  1
   2657   2655   2661   5364     1  0.0000000  0.0000000  3
   2657   2655   2661   2662     1  0.0000000  0.6508444  3
   2657   2655   2661   2663     1  0.0000000  0.6508444  3
   2661   5364   5336   5337     1  0.0000000  1.6038667  3
   2661   5364   5336   5338     1  0.0000000  1.6038667  3
   2662   2661   5364   5336     1  0.0000000  1.6038667  3
   2663   2661   5364   5336     1  0.0000000  1.6038667  3
   2664   5393   5365   5366     1  0.0000000  1.6038667  3
   2664   5393   5365   5367     1  0.0000000  1.6038667  3
   2665   2664   5393   5365     1  0.0000000  1.6038667  3
   2666   2664   5393   5365     1  0.0000000  1.6038667  3
   2668   2669   2681   2682     1  0.0000000  0.6508444  3
   2668   2669   2681   2683     1  0.0000000  0.6508444  3
   2668   2672   2684   2685     1  0.0000000  0.6508444  3
   2668   2672   2684   2686     1  0.0000000  0.6508444  3
   2668   2675   2678   2679     1  0.0000000  0.6508444  3
   2668   2675   2678   2680     1  0.0000000  0.6508444  3
   2669   2668   2672   2673     1  0.0000000  1.2552000  3
   2669   2668   2672   2674     1  0.0000000  1.2552000  3
   2669   2668   2675   2676     1  0.0000000  1.2552000  3
   2669   2668   2675   2677     1  0.0000000  1.2552000  3
   2669   2681   2693   2694     1  0.0000000  0.6508444  3
   2669   2681   2693   2695     1  0.0000000  0.6508444  3
   2670   2669   2668   2672     1  0.0000000  1.2552000  3
   2670   2669   2668   2675     1  0.0000000  1.2552000  3
   2670   2669   2681   2693     1  0.0000000  0.6508444  3
   2670   2669   2681   2682     1  0.0000000  0.6508444  3
   2670   2669   2681   2683     1  0.0000000  0.6508444  3
   2671   2669   2668   2672     1  0.0000000  1.2552000  3
   2671   2669   2668   2675     1  0.0000000  1.2552000  3
   2671   2669   2681   2693     1  0.0000000  0.6508444  3
   2671   2669   2681   2682     1  0.0000000  0.6508444  3
   2671   2669   2681   2683     1  0.0000000  0.6508444  3
   2672   2668   2675   2676     1  0.0000000  1.2552000  3
   2672   2668   2675   2677     1  0.0000000  1.2552000  3
   2672   2684   2690   2691     1  0.0000000  0.6508444  3
   2672   2684   2690   2692     1  0.0000000  0.6508444  3
   2673   2672   2668   2675     1  0.0000000  1.2552000  3
   2673   2672   2684   2690     1  0.0000000  0.6508444  3
   2673   2672   2684   2685     1  0.0000000  0.6508444  3
   2673   2672   2684   2686     1  0.0000000  0.6508444  3
   2674   2672   2668   2675     1  0.0000000  1.2552000  3
   2674   2672   2684   2690     1  0.0000000  0.6508444  3
   2674   2672   2684   2685     1  0.0000000  0.6508444  3
   2674   2672   2684   2686     1  0.0000000  0.6508444  3
   2675   2678   2687   2688     1  0.0000000  0.6508444  3
   2675   2678   2687   2689     1  0.0000000  0.6508444  3
   2676   2675   2678   2687     1  0.0000000  0.6508444  3
   2676   2675   2678   2679     1  0.0000000  0.6508444  3
   2676   2675   2678   2680     1  0.0000000  0.6508444  3
   2677   2675   2678   2687     1  0.0000000  0.6508444  3
   2677   2675   2678   2679     1  0.0000000  0.6508444  3
   2677   2675   2678   2680     1  0.0000000  0.6508444  3
   2679   2678   2687   2696     1  0.0000000  1.0460000  1
   2679   2678   2687   2696     1  0.0000000  0.0000000  3
   2679   2678   2687   2688     1  0.0000000  0.6508444  3
   2679   2678   2687   2689     1  0.0000000  0.6508444  3
   2680   2678   2687   2696     1  0.0000000  1.0460000  1
   2680   2678   2687   2696     1  0.0000000  0.0000000  3
   2680   2678   2687   2688     1  0.0000000  0.6508444  3
   2680   2678   2687   2689     1  0.0000000  0.6508444  3
   2682   2681   2693   5451     1  0.0000000  1.0460000  1
   2682   2681   2693   5451     1  0.0000000  0.0000000  3
   2682   2681   2693   2694     1  0.0000000  0.6508444  3
   2682   2681   2693   2695     1  0.0000000  0.6508444  3
   2683   2681   2693   5451     1  0.0000000  1.0460000  1
   2683   2681   2693   5451     1  0.0000000  0.0000000  3
   2683   2681   2693   2694     1  0.0000000  0.6508444  3
   2683   2681   2693   2695     1  0.0000000  0.6508444  3
   2685   2684   2690   5422     1  0.0000000  1.0460000  1
   2685   2684   2690   5422     1  0.0000000  0.0000000  3
   2685   2684   2690   2691     1  0.0000000  0.6508444  3
   2685   2684   2690   2692     1  0.0000000  0.6508444  3
   2686   2684   2690   5422     1  0.0000000  1.0460000  1
   2686   2684   2690   5422     1  0.0000000  0.0000000  3
   2686   2684   2690   2691     1  0.0000000  0.6508444  3
   2686   2684   2690   2692     1  0.0000000  0.6508444  3
   2690   5422   5394   5395     1  0.0000000  1.6038667  3
   2690   5422   5394   5396     1  0.0000000  1.6038667  3
   2691   2690   5422   5394     1  0.0000000  1.6038667  3
   2692   2690   5422   5394     1  0.0000000  1.6038667  3
   2693   5451   5423   5424     1  0.0000000  1.6038667  3
   2693   5451   5423   5425     1  0.0000000  1.6038667  3
   2694   2693   5451   5423     1  0.0000000  1.6038667  3
   2695   2693   5451   5423     1  0.0000000  1.6038667  3
   2697   2698   2710   2711     1  0.0000000  0.6508444  3
   2697   2698   2710   2712     1  0.0000000  0.6508444  3
   2697   2701   2713   2714     1  0.0000000  0.6508444  3
   2697   2701   2713   2715     1  0.0000000  0.6508444  3
   2697   2704   2707   2708     1  0.0000000  0.6508444  3
   2697   2704   2707   2709     1  0.0000000  0.6508444  3
   2698   2697   2701   2702     1  0.0000000  1.2552000  3
   2698   2697   2701   2703     1  0.0000000  1.2552000  3
   2698   2697   2704   2705     1  0.0000000  1.2552000  3
   2698   2697   2704   2706     1  0.0000000  1.2552000  3
   2698   2710   2722   2723     1  0.0000000  0.6508444  3
   2698   2710   2722   2724     1  0.0000000  0.6508444  3
   2699   2698   2697   2701     1  0.0000000  1.2552000  3
   2699   2698   2697   2704     1  0.0000000  1.2552000  3
   2699   2698   2710   2722     1  0.0000000  0.6508444  3
   2699   2698   2710   2711     1  0.0000000  0.6508444  3
   2699   2698   2710   2712     1  0.0000000  0.6508444  3
   2700   2698   2697   2701     1  0.0000000  1.2552000  3
   2700   2698   2697   2704     1  0.0000000  1.2552000  3
   2700   2698   2710   2722     1  0.0000000  0.6508444  3
   2700   2698   2710   2711     1  0.0000000  0.6508444  3
   2700   2698   2710   2712     1  0.0000000  0.6508444  3
   2701   2697   2704   2705     1  0.0000000  1.2552000  3
   2701   2697   2704   2706     1  0.0000000  1.2552000  3
   2701   2713   2719   2720     1  0.0000000  0.6508444  3
   2701   2713   2719   2721     1  0.0000000  0.6508444  3
   2702   2701   2697   2704     1  0.0000000  1.2552000  3
   2702   2701   2713   2719     1  0.0000000  0.6508444  3
   2702   2701   2713   2714     1  0.0000000  0.6508444  3
   2702   2701   2713   2715     1  0.0000000  0.6508444  3
   2703   2701   2697   2704     1  0.0000000  1.2552000  3
   2703   2701   2713   2719     1  0.0000000  0.6508444  3
   2703   2701   2713   2714     1  0.0000000  0.6508444  3
   2703   2701   2713   2715     1  0.0000000  0.6508444  3
   2704   2707   2716   2717     1  0.0000000  0.6508444  3
   2704   2707   2716   2718     1  0.0000000  0.6508444  3
   2705   2704   2707   2716     1  0.0000000  0.6508444  3
   2705   2704   2707   2708     1  0.0000000  0.6508444  3
   2705   2704   2707   2709     1  0.0000000  0.6508444  3
   2706   2704   2707   2716     1  0.0000000  0.6508444  3
   2706   2704   2707   2708     1  0.0000000  0.6508444  3
   2706   2704   2707   2709     1  0.0000000  0.6508444  3
   2708   2707   2716   2725     1  0.0000000  1.0460000  1
   2708   2707   2716   2725     1  0.0000000  0.0000000  3
   2708   2707   2716   2717     1  0.0000000  0.6508444  3
   2708   2707   2716   2718     1  0.0000000  0.6508444  3
   2709   2707   2716   2725     1  0.0000000  1.0460000  1
   2709   2707   2716   2725     1  0.0000000  0.0000000  3
   2709   2707   2716   2717     1  0.0000000  0.6508444  3
   2709   2707   2716   2718     1  0.0000000  0.6508444  3
   2711   2710   2722   5509     1  0.0000000  1.0460000  1
   2711   2710   2722   5509     1  0.0000000  0.0000000  3
   2711   2710   2722   2723     1  0.0000000  0.6508444  3
   2711   2710   2722   2724     1  0.0000000  0.6508444  3
   2712   2710   2722   5509     1  0.0000000  1.0460000  1
   2712   2710   2722   5509     1  0.0000000  0.0000000  3
   2712   2710   2722   2723     1  0.0000000  0.6508444  3
   2712   2710   2722   2724     1  0.0000000  0.6508444  3
   2714   2713   2719   5480     1  0.0000000  1.0460000  1
   2714   2713   2719   5480     1  0.0000000  0.0000000  3
   2714   2713   2719   2720     1  0.0000000  0.6508444  3
   2714   2713   2719   2721     1  0.0000000  0.6508444  3
   2715   2713   2719   5480     1  0.0000000  1.0460000  1
   2715   2713   2719   5480     1  0.0000000  0.0000000  3
   2715   2713   2719   2720     1  0.0000000  0.6508444  3
   2715   2713   2719   2721     1  0.0000000  0.6508444  3
   2719   5480   5452   5453     1  0.0000000  1.6038667  3
   2719   5480   5452   5454     1  0.0000000  1.6038667  3
   2720   2719   5480   5452     1  0.0000000  1.6038667  3
   2721   2719   5480   5452     1  0.0000000  1.6038667  3
   2722   5509   5481   5482     1  0.0000000  1.6038667  3
   2722   5509   5481   5483     1  0.0000000  1.6038667  3
   2723   2722   5509   5481     1  0.0000000  1.6038667  3
   2724   2722   5509   5481     1  0.0000000  1.6038667  3
   2726   2727   2739   2740     1  0.0000000  0.6508444  3
   2726   2727   2739   2741     1  0.0000000  0.6508444  3
   2726   2730   2742   2743     1  0.0000000  0.6508444  3
   2726   2730   2742   2744     1  0.0000000  0.6508444  3
   2726   2733   2736   2737     1  0.0000000  0.6508444  3
   2726   2733   2736   2738     1  0.0000000  0.6508444  3
   2727   2726   2730   2731     1  0.0000000  1.2552000  3
   2727   2726   2730   2732     1  0.0000000  1.2552000  3
   2727   2726   2733   2734     1  0.0000000  1.2552000  3
   2727   2726   2733   2735     1  0.0000000  1.2552000  3
   2727   2739   2751   2752     1  0.0000000  0.6508444  3
   2727   2739   2751   2753     1  0.0000000  0.6508444  3
   2728   2727   2726   2730     1  0.0000000  1.2552000  3
   2728   2727   2726   2733     1  0.0000000  1.2552000  3
   2728   2727   2739   2751     1  0.0000000  0.6508444  3
   2728   2727   2739   2740     1  0.0000000  0.6508444  3
   2728   2727   2739   2741     1  0.0000000  0.6508444  3
   2729   2727   2726   2730     1  0.0000000  1.2552000  3
   2729   2727   2726   2733     1  0.0000000  1.2552000  3
   2729   2727   2739   2751     1  0.0000000  0.6508444  3
   2729   2727   2739   2740     1  0.0000000  0.6508444  3
   2729   2727   2739   2741     1  0.0000000  0.6508444  3
   2730   2726   2733   2734     1  0.0000000  1.2552000  3
   2730   2726   2733   2735     1  0.0000000  1.2552000  3
   2730   2742   2748   2749     1  0.0000000  0.6508444  3
   2730   2742   2748   2750     1  0.0000000  0.6508444  3
   2731   2730   2726   2733     1  0.0000000  1.2552000  3
   2731   2730   2742   2748     1  0.0000000  0.6508444  3
   2731   2730   2742   2743     1  0.0000000  0.6508444  3
   2731   2730   2742   2744     1  0.0000000  0.6508444  3
   2732   2730   2726   2733     1  0.0000000  1.2552000  3
   2732   2730   2742   2748     1  0.0000000  0.6508444  3
   2732   2730   2742   2743     1  0.0000000  0.6508444  3
   2732   2730   2742   2744     1  0.0000000  0.6508444  3
   2733   2736   2745   2746     1  0.0000000  0.6508444  3
   2733   2736   2745   2747     1  0.0000000  0.6508444  3
   2734   2733   2736   2745     1  0.0000000  0.6508444  3
   2734   2733   2736   2737     1  0.0000000  0.6508444  3
   2734   2733   2736   2738     1  0.0000000  0.6508444  3
   2735   2733   2736   2745     1  0.0000000  0.6508444  3
   2735   2733   2736   2737     1  0.0000000  0.6508444  3
   2735   2733   2736   2738     1  0.0000000  0.6508444  3
   2737   2736   2745   2754     1  0.0000000  1.0460000  1
   2737   2736   2745   2754     1  0.0000000  0.0000000  3
   2737   2736   2745   2746     1  0.0000000  0.6508444  3
   2737   2736   2745   2747     1  0.0000000  0.6508444  3
   2738   2736   2745   2754     1  0.0000000  1.0460000  1
   2738   2736   2745   2754     1  0.0000000  0.0000000  3
   2738   2736   2745   2746     1  0.0000000  0.6508444  3
   2738   2736   2745   2747     1  0.0000000  0.6508444  3
   2740   2739   2751   5567     1  0.0000000  1.0460000  1
   2740   2739   2751   5567     1  0.0000000  0.0000000  3
   2740   2739   2751   2752     1  0.0000000  0.6508444  3
   2740   2739   2751   2753     1  0.0000000  0.6508444  3
   2741   2739   2751   5567     1  0.0000000  1.0460000  1
   2741   2739   2751   5567     1  0.0000000  0.0000000  3
   2741   2739   2751   2752     1  0.0000000  0.6508444  3
   2741   2739   2751   2753     1  0.0000000  0.6508444  3
   2743   2742   2748   5538     1  0.0000000  1.0460000  1
   2743   2742   2748   5538     1  0.0000000  0.0000000  3
   2743   2742   2748   2749     1  0.0000000  0.6508444  3
   2743   2742   2748   2750     1  0.0000000  0.6508444  3
   2744   2742   2748   5538     1  0.0000000  1.0460000  1
   2744   2742   2748   5538     1  0.0000000  0.0000000  3
   2744   2742   2748   2749     1  0.0000000  0.6508444  3
   2744   2742   2748   2750     1  0.0000000  0.6508444  3
   2748   5538   5510   5511     1  0.0000000  1.6038667  3
   2748   5538   5510   5512     1  0.0000000  1.6038667  3
   2749   2748   5538   5510     1  0.0000000  1.6038667  3
   2750   2748   5538   5510     1  0.0000000  1.6038667  3
   2751   5567   5539   5540     1  0.0000000  1.6038667  3
   2751   5567   5539   5541     1  0.0000000  1.6038667  3
   2752   2751   5567   5539     1  0.0000000  1.6038667  3
   2753   2751   5567   5539     1  0.0000000  1.6038667  3
   2755   2756   2768   2769     1  0.0000000  0.6508444  3
   2755   2756   2768   2770     1  0.0000000  0.6508444  3
   2755   2759   2771   2772     1  0.0000000  0.6508444  3
   2755   2759   2771   2773     1  0.0000000  0.6508444  3
   2755   2762   2765   2766     1  0.0000000  0.6508444  3
   2755   2762   2765   2767     1  0.0000000  0.6508444  3
   2756   2755   2759   2760     1  0.0000000  1.2552000  3
   2756   2755   2759   2761     1  0.0000000  1.2552000  3
   2756   2755   2762   2763     1  0.0000000  1.2552000  3
   2756   2755   2762   2764     1  0.0000000  1.2552000  3
   2756   2768   2780   2781     1  0.0000000  0.6508444  3
   2756   2768   2780   2782     1  0.0000000  0.6508444  3
   2757   2756   2755   2759     1  0.0000000  1.2552000  3
   2757   2756   2755   2762     1  0.0000000  1.2552000  3
   2757   2756   2768   2780     1  0.0000000  0.6508444  3
   2757   2756   2768   2769     1  0.0000000  0.6508444  3
   2757   2756   2768   2770     1  0.0000000  0.6508444  3
   2758   2756   2755   2759     1  0.0000000  1.2552000  3
   2758   2756   2755   2762     1  0.0000000  1.2552000  3
   2758   2756   2768   2780     1  0.0000000  0.6508444  3
   2758   2756   2768   2769     1  0.0000000  0.6508444  3
   2758   2756   2768   2770     1  0.0000000  0.6508444  3
   2759   2755   2762   2763     1  0.0000000  1.2552000  3
   2759   2755   2762   2764     1  0.0000000  1.2552000  3
   2759   2771   2777   2778     1  0.0000000  0.6508444  3
   2759   2771   2777   2779     1  0.0000000  0.6508444  3
   2760   2759   2755   2762     1  0.0000000  1.2552000  3
   2760   2759   2771   2777     1  0.0000000  0.6508444  3
   2760   2759   2771   2772     1  0.0000000  0.6508444  3
   2760   2759   2771   2773     1  0.0000000  0.6508444  3
   2761   2759   2755   2762     1  0.0000000  1.2552000  3
   2761   2759   2771   2777     1  0.0000000  0.6508444  3
   2761   2759   2771   2772     1  0.0000000  0.6508444  3
   2761   2759   2771   2773     1  0.0000000  0.6508444  3
   2762   2765   2774   2775     1  0.0000000  0.6508444  3
   2762   2765   2774   2776     1  0.0000000  0.6508444  3
   2763   2762   2765   2774     1  0.0000000  0.6508444  3
   2763   2762   2765   2766     1  0.0000000  0.6508444  3
   2763   2762   2765   2767     1  0.0000000  0.6508444  3
   2764   2762   2765   2774     1  0.0000000  0.6508444  3
   2764   2762   2765   2766     1  0.0000000  0.6508444  3
   2764   2762   2765   2767     1  0.0000000  0.6508444  3
   2766   2765   2774   2783     1  0.0000000  1.0460000  1
   2766   2765   2774   2783     1  0.0000000  0.0000000  3
   2766   2765   2774   2775     1  0.0000000  0.6508444  3
   2766   2765   2774   2776     1  0.0000000  0.6508444  3
   2767   2765   2774   2783     1  0.0000000  1.0460000  1
   2767   2765   2774   2783     1  0.0000000  0.0000000  3
   2767   2765   2774   2775     1  0.0000000  0.6508444  3
   2767   2765   2774   2776     1  0.0000000  0.6508444  3
   2769   2768   2780   5625     1  0.0000000  1.0460000  1
   2769   2768   2780   5625     1  0.0000000  0.0000000  3
   2769   2768   2780   2781     1  0.0000000  0.6508444  3
   2769   2768   2780   2782     1  0.0000000  0.6508444  3
   2770   2768   2780   5625     1  0.0000000  1.0460000  1
   2770   2768   2780   5625     1  0.0000000  0.0000000  3
   2770   2768   2780   2781     1  0.0000000  0.6508444  3
   2770   2768   2780   2782     1  0.0000000  0.6508444  3
   2772   2771   2777   5596     1  0.0000000  1.0460000  1
   2772   2771   2777   5596     1  0.0000000  0.0000000  3
   2772   2771   2777   2778     1  0.0000000  0.6508444  3
   2772   2771   2777   2779     1  0.0000000  0.6508444  3
   2773   2771   2777   5596     1  0.0000000  1.0460000  1
   2773   2771   2777   5596     1  0.0000000  0.0000000  3
   2773   2771   2777   2778     1  0.0000000  0.6508444  3
   2773   2771   2777   2779     1  0.0000000  0.6508444  3
   2777   5596   5568   5569     1  0.0000000  1.6038667  3
   2777   5596   5568   5570     1  0.0000000  1.6038667  3
   2778   2777   5596   5568     1  0.0000000  1.6038667  3
   2779   2777   5596   5568     1  0.0000000  1.6038667  3
   2780   5625   5597   5598     1  0.0000000  1.6038667  3
   2780   5625   5597   5599     1  0.0000000  1.6038667  3
   2781   2780   5625   5597     1  0.0000000  1.6038667  3
   2782   2780   5625   5597     1  0.0000000  1.6038667  3
   2784   2785   2797   2798     1  0.0000000  0.6508444  3
   2784   2785   2797   2799     1  0.0000000  0.6508444  3
   2784   2788   2800   2801     1  0.0000000  0.6508444  3
   2784   2788   2800   2802     1  0.0000000  0.6508444  3
   2784   2791   2794   2795     1  0.0000000  0.6508444  3
   2784   2791   2794   2796     1  0.0000000  0.6508444  3
   2785   2784   2788   2789     1  0.0000000  1.2552000  3
   2785   2784   2788   2790     1  0.0000000  1.2552000  3
   2785   2784   2791   2792     1  0.0000000  1.2552000  3
   2785   2784   2791   2793     1  0.0000000  1.2552000  3
   2785   2797   2809   2810     1  0.0000000  0.6508444  3
   2785   2797   2809   2811     1  0.0000000  0.6508444  3
   2786   2785   2784   2788     1  0.0000000  1.2552000  3
   2786   2785   2784   2791     1  0.0000000  1.2552000  3
   2786   2785   2797   2809     1  0.0000000  0.6508444  3
   2786   2785   2797   2798     1  0.0000000  0.6508444  3
   2786   2785   2797   2799     1  0.0000000  0.6508444  3
   2787   2785   2784   2788     1  0.0000000  1.2552000  3
   2787   2785   2784   2791     1  0.0000000  1.2552000  3
   2787   2785   2797   2809     1  0.0000000  0.6508444  3
   2787   2785   2797   2798     1  0.0000000  0.6508444  3
   2787   2785   2797   2799     1  0.0000000  0.6508444  3
   2788   2784   2791   2792     1  0.0000000  1.2552000  3
   2788   2784   2791   2793     1  0.0000000  1.2552000  3
   2788   2800   2806   2807     1  0.0000000  0.6508444  3
   2788   2800   2806   2808     1  0.0000000  0.6508444  3
   2789   2788   2784   2791     1  0.0000000  1.2552000  3
   2789   2788   2800   2806     1  0.0000000  0.6508444  3
   2789   2788   2800   2801     1  0.0000000  0.6508444  3
   2789   2788   2800   2802     1  0.0000000  0.6508444  3
   2790   2788   2784   2791     1  0.0000000  1.2552000  3
   2790   2788   2800   2806     1  0.0000000  0.6508444  3
   2790   2788   2800   2801     1  0.0000000  0.6508444  3
   2790   2788   2800   2802     1  0.0000000  0.6508444  3
   2791   2794   2803   2804     1  0.0000000  0.6508444  3
   2791   2794   2803   2805     1  0.0000000  0.6508444  3
   2792   2791   2794   2803     1  0.0000000  0.6508444  3
   2792   2791   2794   2795     1  0.0000000  0.6508444  3
   2792   2791   2794   2796     1  0.0000000  0.6508444  3
   2793   2791   2794   2803     1  0.0000000  0.6508444  3
   2793   2791   2794   2795     1  0.0000000  0.6508444  3
   2793   2791   2794   2796     1  0.0000000  0.6508444  3
   2795   2794   2803   2812     1  0.0000000  1.0460000  1
   2795   2794   2803   2812     1  0.0000000  0.0000000  3
   2795   2794   2803   2804     1  0.0000000  0.6508444  3
   2795   2794   2803   2805     1  0.0000000  0.6508444  3
   2796   2794   2803   2812     1  0.0000000  1.0460000  1
   2796   2794   2803   2812     1  0.0000000  0.0000000  3
   2796   2794   2803   2804     1  0.0000000  0.6508444  3
   2796   2794   2803   2805     1  0.0000000  0.6508444  3
   2798   2797   2809   5683     1  0.0000000  1.0460000  1
   2798   2797   2809   5683     1  0.0000000  0.0000000  3
   2798   2797   2809   2810     1  0.0000000  0.6508444  3
   2798   2797   2809   2811     1  0.0000000  0.6508444  3
   2799   2797   2809   5683     1  0.0000000  1.0460000  1
   2799   2797   2809   5683     1  0.0000000  0.0000000  3
   2799   2797   2809   2810     1  0.0000000  0.6508444  3
   2799   2797   2809   2811     1  0.0000000  0.6508444  3
   2801   2800   2806   5654     1  0.0000000  1.0460000  1
   2801   2800   2806   5654     1  0.0000000  0.0000000  3
   2801   2800   2806   2807     1  0.0000000  0.6508444  3
   2801   2800   2806   2808     1  0.0000000  0.6508444  3
   2802   2800   2806   5654     1  0.0000000  1.0460000  1
   2802   2800   2806   5654     1  0.0000000  0.0000000  3
   2802   2800   2806   2807     1  0.0000000  0.6508444  3
   2802   2800   2806   2808     1  0.0000000  0.6508444  3
   2806   5654   5626   5627     1  0.0000000  1.6038667  3
   2806   5654   5626   5628     1  0.0000000  1.6038667  3
   2807   2806   5654   5626     1  0.0000000  1.6038667  3
   2808   2806   5654   5626     1  0.0000000  1.6038667  3
   2809   5683   5655   5656     1  0.0000000  1.6038667  3
   2809   5683   5655   5657     1  0.0000000  1.6038667  3
   2810   2809   5683   5655     1  0.0000000  1.6038667  3
   2811   2809   5683   5655     1  0.0000000  1.6038667  3
   2813   2814   2826   2827     1  0.0000000  0.6508444  3
   2813   2814   2826   2828     1  0.0000000  0.6508444  3
   2813   2817   2829   2830     1  0.0000000  0.6508444  3
   2813   2817   2829   2831     1  0.0000000  0.6508444  3
   2813   2820   2823   2824     1  0.0000000  0.6508444  3
   2813   2820   2823   2825     1  0.0000000  0.6508444  3
   2814   2813   2817   2818     1  0.0000000  1.2552000  3
   2814   2813   2817   2819     1  0.0000000  1.2552000  3
   2814   2813   2820   2821     1  0.0000000  1.2552000  3
   2814   2813   2820   2822     1  0.0000000  1.2552000  3
   2814   2826   2838   2839     1  0.0000000  0.6508444  3
   2814   2826   2838   2840     1  0.0000000  0.6508444  3
   2815   2814   2813   2817     1  0.0000000  1.2552000  3
   2815   2814   2813   2820     1  0.0000000  1.2552000  3
   2815   2814   2826   2838     1  0.0000000  0.6508444  3
   2815   2814   2826   2827     1  0.0000000  0.6508444  3
   2815   2814   2826   2828     1  0.0000000  0.6508444  3
   2816   2814   2813   2817     1  0.0000000  1.2552000  3
   2816   2814   2813   2820     1  0.0000000  1.2552000  3
   2816   2814   2826   2838     1  0.0000000  0.6508444  3
   2816   2814   2826   2827     1  0.0000000  0.6508444  3
   2816   2814   2826   2828     1  0.0000000  0.6508444  3
   2817   2813   2820   2821     1  0.0000000  1.2552000  3
   2817   2813   2820   2822     1  0.0000000  1.2552000  3
   2817   2829   2835   2836     1  0.0000000  0.6508444  3
   2817   2829   2835   2837     1  0.0000000  0.6508444  3
   2818   2817   2813   2820     1  0.0000000  1.2552000  3
   2818   2817   2829   2835     1  0.0000000  0.6508444  3
   2818   2817   2829   2830     1  0.0000000  0.6508444  3
   2818   2817   2829   2831     1  0.0000000  0.6508444  3
   2819   2817   2813   2820     1  0.0000000  1.2552000  3
   2819   2817   2829   2835     1  0.0000000  0.6508444  3
   2819   2817   2829   2830     1  0.0000000  0.6508444  3
   2819   2817   2829   2831     1  0.0000000  0.6508444  3
   2820   2823   2832   2833     1  0.0000000  0.6508444  3
   2820   2823   2832   2834     1  0.0000000  0.6508444  3
   2821   2820   2823   2832     1  0.0000000  0.6508444  3
   2821   2820   2823   2824     1  0.0000000  0.6508444  3
   2821   2820   2823   2825     1  0.0000000  0.6508444  3
   2822   2820   2823   2832     1  0.0000000  0.6508444  3
   2822   2820   2823   2824     1  0.0000000  0.6508444  3
   2822   2820   2823   2825     1  0.0000000  0.6508444  3
   2824   2823   2832   2841     1  0.0000000  1.0460000  1
   2824   2823   2832   2841     1  0.0000000  0.0000000  3
   2824   2823   2832   2833     1  0.0000000  0.6508444  3
   2824   2823   2832   2834     1  0.0000000  0.6508444  3
   2825   2823   2832   2841     1  0.0000000  1.0460000  1
   2825   2823   2832   2841     1  0.0000000  0.0000000  3
   2825   2823   2832   2833     1  0.0000000  0.6508444  3
   2825   2823   2832   2834     1  0.0000000  0.6508444  3
   2827   2826   2838   5741     1  0.0000000  1.0460000  1
   2827   2826   2838   5741     1  0.0000000  0.0000000  3
   2827   2826   2838   2839     1  0.0000000  0.6508444  3
   2827   2826   2838   2840     1  0.0000000  0.6508444  3
   2828   2826   2838   5741     1  0.0000000  1.0460000  1
   2828   2826   2838   5741     1  0.0000000  0.0000000  3
   2828   2826   2838   2839     1  0.0000000  0.6508444  3
   2828   2826   2838   2840     1  0.0000000  0.6508444  3
   2830   2829   2835   5712     1  0.0000000  1.0460000  1
   2830   2829   2835   5712     1  0.0000000  0.0000000  3
   2830   2829   2835   2836     1  0.0000000  0.6508444  3
   2830   2829   2835   2837     1  0.0000000  0.6508444  3
   2831   2829   2835   5712     1  0.0000000  1.0460000  1
   2831   2829   2835   5712     1  0.0000000  0.0000000  3
   2831   2829   2835   2836     1  0.0000000  0.6508444  3
   2831   2829   2835   2837     1  0.0000000  0.6508444  3
   2835   5712   5684   5685     1  0.0000000  1.6038667  3
   2835   5712   5684   5686     1  0.0000000  1.6038667  3
   2836   2835   5712   5684     1  0.0000000  1.6038667  3
   2837   2835   5712   5684     1  0.0000000  1.6038667  3
   2838   5741   5713   5714     1  0.0000000  1.6038667  3
   2838   5741   5713   5715     1  0.0000000  1.6038667  3
   2839   2838   5741   5713     1  0.0000000  1.6038667  3
   2840   2838   5741   5713     1  0.0000000  1.6038667  3
   2842   2843   2855   2856     1  0.0000000  0.6508444  3
   2842   2843   2855   2857     1  0.0000000  0.6508444  3
   2842   2846   2858   2859     1  0.0000000  0.6508444  3
   2842   2846   2858   2860     1  0.0000000  0.6508444  3
   2842   2849   2852   2853     1  0.0000000  0.6508444  3
   2842   2849   2852   2854     1  0.0000000  0.6508444  3
   2843   2842   2846   2847     1  0.0000000  1.2552000  3
   2843   2842   2846   2848     1  0.0000000  1.2552000  3
   2843   2842   2849   2850     1  0.0000000  1.2552000  3
   2843   2842   2849   2851     1  0.0000000  1.2552000  3
   2843   2855   2867   2868     1  0.0000000  0.6508444  3
   2843   2855   2867   2869     1  0.0000000  0.6508444  3
   2844   2843   2842   2846     1  0.0000000  1.2552000  3
   2844   2843   2842   2849     1  0.0000000  1.2552000  3
   2844   2843   2855   2867     1  0.0000000  0.6508444  3
   2844   2843   2855   2856     1  0.0000000  0.6508444  3
   2844   2843   2855   2857     1  0.0000000  0.6508444  3
   2845   2843   2842   2846     1  0.0000000  1.2552000  3
   2845   2843   2842   2849     1  0.0000000  1.2552000  3
   2845   2843   2855   2867     1  0.0000000  0.6508444  3
   2845   2843   2855   2856     1  0.0000000  0.6508444  3
   2845   2843   2855   2857     1  0.0000000  0.6508444  3
   2846   2842   2849   2850     1  0.0000000  1.2552000  3
   2846   2842   2849   2851     1  0.0000000  1.2552000  3
   2846   2858   2864   2865     1  0.0000000  0.6508444  3
   2846   2858   2864   2866     1  0.0000000  0.6508444  3
   2847   2846   2842   2849     1  0.0000000  1.2552000  3
   2847   2846   2858   2864     1  0.0000000  0.6508444  3
   2847   2846   2858   2859     1  0.0000000  0.6508444  3
   2847   2846   2858   2860     1  0.0000000  0.6508444  3
   2848   2846   2842   2849     1  0.0000000  1.2552000  3
   2848   2846   2858   2864     1  0.0000000  0.6508444  3
   2848   2846   2858   2859     1  0.0000000  0.6508444  3
   2848   2846   2858   2860     1  0.0000000  0.6508444  3
   2849   2852   2861   2862     1  0.0000000  0.6508444  3
   2849   2852   2861   2863     1  0.0000000  0.6508444  3
   2850   2849   2852   2861     1  0.0000000  0.6508444  3
   2850   2849   2852   2853     1  0.0000000  0.6508444  3
   2850   2849   2852   2854     1  0.0000000  0.6508444  3
   2851   2849   2852   2861     1  0.0000000  0.6508444  3
   2851   2849   2852   2853     1  0.0000000  0.6508444  3
   2851   2849   2852   2854     1  0.0000000  0.6508444  3
   2853   2852   2861   2870     1  0.0000000  1.0460000  1
   2853   2852   2861   2870     1  0.0000000  0.0000000  3
   2853   2852   2861   2862     1  0.0000000  0.6508444  3
   2853   2852   2861   2863     1  0.0000000  0.6508444  3
   2854   2852   2861   2870     1  0.0000000  1.0460000  1
   2854   2852   2861   2870     1  0.0000000  0.0000000  3
   2854   2852   2861   2862     1  0.0000000  0.6508444  3
   2854   2852   2861   2863     1  0.0000000  0.6508444  3
   2856   2855   2867   5799     1  0.0000000  1.0460000  1
   2856   2855   2867   5799     1  0.0000000  0.0000000  3
   2856   2855   2867   2868     1  0.0000000  0.6508444  3
   2856   2855   2867   2869     1  0.0000000  0.6508444  3
   2857   2855   2867   5799     1  0.0000000  1.0460000  1
   2857   2855   2867   5799     1  0.0000000  0.0000000  3
   2857   2855   2867   2868     1  0.0000000  0.6508444  3
   2857   2855   2867   2869     1  0.0000000  0.6508444  3
   2859   2858   2864   5770     1  0.0000000  1.0460000  1
   2859   2858   2864   5770     1  0.0000000  0.0000000  3
   2859   2858   2864   2865     1  0.0000000  0.6508444  3
   2859   2858   2864   2866     1  0.0000000  0.6508444  3
   2860   2858   2864   5770     1  0.0000000  1.0460000  1
   2860   2858   2864   5770     1  0.0000000  0.0000000  3
   2860   2858   2864   2865     1  0.0000000  0.6508444  3
   2860   2858   2864   2866     1  0.0000000  0.6508444  3
   2864   5770   5742   5743     1  0.0000000  1.6038667  3
   2864   5770   5742   5744     1  0.0000000  1.6038667  3
   2865   2864   5770   5742     1  0.0000000  1.6038667  3
   2866   2864   5770   5742     1  0.0000000  1.6038667  3
   2867   5799   5771   5772     1  0.0000000  1.6038667  3
   2867   5799   5771   5773     1  0.0000000  1.6038667  3
   2868   2867   5799   5771     1  0.0000000  1.6038667  3
   2869   2867   5799   5771     1  0.0000000  1.6038667  3
   2871   2872   2884   2885     1  0.0000000  0.6508444  3
   2871   2872   2884   2886     1  0.0000000  0.6508444  3
   2871   2875   2887   2888     1  0.0000000  0.6508444  3
   2871   2875   2887   2889     1  0.0000000  0.6508444  3
   2871   2878   2881   2882     1  0.0000000  0.6508444  3
   2871   2878   2881   2883     1  0.0000000  0.6508444  3
   2872   2871   2875   2876     1  0.0000000  1.2552000  3
   2872   2871   2875   2877     1  0.0000000  1.2552000  3
   2872   2871   2878   2879     1  0.0000000  1.2552000  3
   2872   2871   2878   2880     1  0.0000000  1.2552000  3
   2872   2884   2896   2897     1  0.0000000  0.6508444  3
   2872   2884   2896   2898     1  0.0000000  0.6508444  3
   2873   2872   2871   2875     1  0.0000000  1.2552000  3
   2873   2872   2871   2878     1  0.0000000  1.2552000  3
   2873   2872   2884   2896     1  0.0000000  0.6508444  3
   2873   2872   2884   2885     1  0.0000000  0.6508444  3
   2873   2872   2884   2886     1  0.0000000  0.6508444  3
   2874   2872   2871   2875     1  0.0000000  1.2552000  3
   2874   2872   2871   2878     1  0.0000000  1.2552000  3
   2874   2872   2884   2896     1  0.0000000  0.6508444  3
   2874   2872   2884   2885     1  0.0000000  0.6508444  3
   2874   2872   2884   2886     1  0.0000000  0.6508444  3
   2875   2871   2878   2879     1  0.0000000  1.2552000  3
   2875   2871   2878   2880     1  0.0000000  1.2552000  3
   2875   2887   2893   2894     1  0.0000000  0.6508444  3
   2875   2887   2893   2895     1  0.0000000  0.6508444  3
   2876   2875   2871   2878     1  0.0000000  1.2552000  3
   2876   2875   2887   2893     1  0.0000000  0.6508444  3
   2876   2875   2887   2888     1  0.0000000  0.6508444  3
   2876   2875   2887   2889     1  0.0000000  0.6508444  3
   2877   2875   2871   2878     1  0.0000000  1.2552000  3
   2877   2875   2887   2893     1  0.0000000  0.6508444  3
   2877   2875   2887   2888     1  0.0000000  0.6508444  3
   2877   2875   2887   2889     1  0.0000000  0.6508444  3
   2878   2881   2890   2891     1  0.0000000  0.6508444  3
   2878   2881   2890   2892     1  0.0000000  0.6508444  3
   2879   2878   2881   2890     1  0.0000000  0.6508444  3
   2879   2878   2881   2882     1  0.0000000  0.6508444  3
   2879   2878   2881   2883     1  0.0000000  0.6508444  3
   2880   2878   2881   2890     1  0.0000000  0.6508444  3
   2880   2878   2881   2882     1  0.0000000  0.6508444  3
   2880   2878   2881   2883     1  0.0000000  0.6508444  3
   2882   2881   2890   2899     1  0.0000000  1.0460000  1
   2882   2881   2890   2899     1  0.0000000  0.0000000  3
   2882   2881   2890   2891     1  0.0000000  0.6508444  3
   2882   2881   2890   2892     1  0.0000000  0.6508444  3
   2883   2881   2890   2899     1  0.0000000  1.0460000  1
   2883   2881   2890   2899     1  0.0000000  0.0000000  3
   2883   2881   2890   2891     1  0.0000000  0.6508444  3
   2883   2881   2890   2892     1  0.0000000  0.6508444  3
   2885   2884   2896   5857     1  0.0000000  1.0460000  1
   2885   2884   2896   5857     1  0.0000000  0.0000000  3
   2885   2884   2896   2897     1  0.0000000  0.6508444  3
   2885   2884   2896   2898     1  0.0000000  0.6508444  3
   2886   2884   2896   5857     1  0.0000000  1.0460000  1
   2886   2884   2896   5857     1  0.0000000  0.0000000  3
   2886   2884   2896   2897     1  0.0000000  0.6508444  3
   2886   2884   2896   2898     1  0.0000000  0.6508444  3
   2888   2887   2893   5828     1  0.0000000  1.0460000  1
   2888   2887   2893   5828     1  0.0000000  0.0000000  3
   2888   2887   2893   2894     1  0.0000000  0.6508444  3
   2888   2887   2893   2895     1  0.0000000  0.6508444  3
   2889   2887   2893   5828     1  0.0000000  1.0460000  1
   2889   2887   2893   5828     1  0.0000000  0.0000000  3
   2889   2887   2893   2894     1  0.0000000  0.6508444  3
   2889   2887   2893   2895     1  0.0000000  0.6508444  3
   2893   5828   5800   5801     1  0.0000000  1.6038667  3
   2893   5828   5800   5802     1  0.0000000  1.6038667  3
   2894   2893   5828   5800     1  0.0000000  1.6038667  3
   2895   2893   5828   5800     1  0.0000000  1.6038667  3
   2896   5857   5829   5830     1  0.0000000  1.6038667  3
   2896   5857   5829   5831     1  0.0000000  1.6038667  3
   2897   2896   5857   5829     1  0.0000000  1.6038667  3
   2898   2896   5857   5829     1  0.0000000  1.6038667  3
   2900   2901   2913   2914     1  0.0000000  0.6508444  3
   2900   2901   2913   2915     1  0.0000000  0.6508444  3
   2900   2904   2916   2917     1  0.0000000  0.6508444  3
   2900   2904   2916   2918     1  0.0000000  0.6508444  3
   2900   2907   2910   2911     1  0.0000000  0.6508444  3
   2900   2907   2910   2912     1  0.0000000  0.6508444  3
   2901   2900   2904   2905     1  0.0000000  1.2552000  3
   2901   2900   2904   2906     1  0.0000000  1.2552000  3
   2901   2900   2907   2908     1  0.0000000  1.2552000  3
   2901   2900   2907   2909     1  0.0000000  1.2552000  3
   2901   2913   2925   2926     1  0.0000000  0.6508444  3
   2901   2913   2925   2927     1  0.0000000  0.6508444  3
   2902   2901   2900   2904     1  0.0000000  1.2552000  3
   2902   2901   2900   2907     1  0.0000000  1.2552000  3
   2902   2901   2913   2925     1  0.0000000  0.6508444  3
   2902   2901   2913   2914     1  0.0000000  0.6508444  3
   2902   2901   2913   2915     1  0.0000000  0.6508444  3
   2903   2901   2900   2904     1  0.0000000  1.2552000  3
   2903   2901   2900   2907     1  0.0000000  1.2552000  3
   2903   2901   2913   2925     1  0.0000000  0.6508444  3
   2903   2901   2913   2914     1  0.0000000  0.6508444  3
   2903   2901   2913   2915     1  0.0000000  0.6508444  3
   2904   2900   2907   2908     1  0.0000000  1.2552000  3
   2904   2900   2907   2909     1  0.0000000  1.2552000  3
   2904   2916   2922   2923     1  0.0000000  0.6508444  3
   2904   2916   2922   2924     1  0.0000000  0.6508444  3
   2905   2904   2900   2907     1  0.0000000  1.2552000  3
   2905   2904   2916   2922     1  0.0000000  0.6508444  3
   2905   2904   2916   2917     1  0.0000000  0.6508444  3
   2905   2904   2916   2918     1  0.0000000  0.6508444  3
   2906   2904   2900   2907     1  0.0000000  1.2552000  3
   2906   2904   2916   2922     1  0.0000000  0.6508444  3
   2906   2904   2916   2917     1  0.0000000  0.6508444  3
   2906   2904   2916   2918     1  0.0000000  0.6508444  3
   2907   2910   2919   2920     1  0.0000000  0.6508444  3
   2907   2910   2919   2921     1  0.0000000  0.6508444  3
   2908   2907   2910   2919     1  0.0000000  0.6508444  3
   2908   2907   2910   2911     1  0.0000000  0.6508444  3
   2908   2907   2910   2912     1  0.0000000  0.6508444  3
   2909   2907   2910   2919     1  0.0000000  0.6508444  3
   2909   2907   2910   2911     1  0.0000000  0.6508444  3
   2909   2907   2910   2912     1  0.0000000  0.6508444  3
   2911   2910   2919   2928     1  0.0000000  1.0460000  1
   2911   2910   2919   2928     1  0.0000000  0.0000000  3
   2911   2910   2919   2920     1  0.0000000  0.6508444  3
   2911   2910   2919   2921     1  0.0000000  0.6508444  3
   2912   2910   2919   2928     1  0.0000000  1.0460000  1
   2912   2910   2919   2928     1  0.0000000  0.0000000  3
   2912   2910   2919   2920     1  0.0000000  0.6508444  3
   2912   2910   2919   2921     1  0.0000000  0.6508444  3
   2914   2913   2925   5915     1  0.0000000  1.0460000  1
   2914   2913   2925   5915     1  0.0000000  0.0000000  3
   2914   2913   2925   2926     1  0.0000000  0.6508444  3
   2914   2913   2925   2927     1  0.0000000  0.6508444  3
   2915   2913   2925   5915     1  0.0000000  1.0460000  1
   2915   2913   2925   5915     1  0.0000000  0.0000000  3
   2915   2913   2925   2926     1  0.0000000  0.6508444  3
   2915   2913   2925   2927     1  0.0000000  0.6508444  3
   2917   2916   2922   5886     1  0.0000000  1.0460000  1
   2917   2916   2922   5886     1  0.0000000  0.0000000  3
   2917   2916   2922   2923     1  0.0000000  0.6508444  3
   2917   2916   2922   2924     1  0.0000000  0.6508444  3
   2918   2916   2922   5886     1  0.0000000  1.0460000  1
   2918   2916   2922   5886     1  0.0000000  0.0000000  3
   2918   2916   2922   2923     1  0.0000000  0.6508444  3
   2918   2916   2922   2924     1  0.0000000  0.6508444  3
   2922   5886   5858   5859     1  0.0000000  1.6038667  3
   2922   5886   5858   5860     1  0.0000000  1.6038667  3
   2923   2922   5886   5858     1  0.0000000  1.6038667  3
   2924   2922   5886   5858     1  0.0000000  1.6038667  3
   2925   5915   5887   5888     1  0.0000000  1.6038667  3
   2925   5915   5887   5889     1  0.0000000  1.6038667  3
   2926   2925   5915   5887     1  0.0000000  1.6038667  3
   2927   2925   5915   5887     1  0.0000000  1.6038667  3
   2929   2930   2942   2943     1  0.0000000  0.6508444  3
   2929   2930   2942   2944     1  0.0000000  0.6508444  3
   2929   2933   2945   2946     1  0.0000000  0.6508444  3
   2929   2933   2945   2947     1  0.0000000  0.6508444  3
   2929   2936   2939   2940     1  0.0000000  0.6508444  3
   2929   2936   2939   2941     1  0.0000000  0.6508444  3
   2930   2929   2933   2934     1  0.0000000  1.2552000  3
   2930   2929   2933   2935     1  0.0000000  1.2552000  3
   2930   2929   2936   2937     1  0.0000000  1.2552000  3
   2930   2929   2936   2938     1  0.0000000  1.2552000  3
   2930   2942   2954   2955     1  0.0000000  0.6508444  3
   2930   2942   2954   2956     1  0.0000000  0.6508444  3
   2931   2930   2929   2933     1  0.0000000  1.2552000  3
   2931   2930   2929   2936     1  0.0000000  1.2552000  3
   2931   2930   2942   2954     1  0.0000000  0.6508444  3
   2931   2930   2942   2943     1  0.0000000  0.6508444  3
   2931   2930   2942   2944     1  0.0000000  0.6508444  3
   2932   2930   2929   2933     1  0.0000000  1.2552000  3
   2932   2930   2929   2936     1  0.0000000  1.2552000  3
   2932   2930   2942   2954     1  0.0000000  0.6508444  3
   2932   2930   2942   2943     1  0.0000000  0.6508444  3
   2932   2930   2942   2944     1  0.0000000  0.6508444  3
   2933   2929   2936   2937     1  0.0000000  1.2552000  3
   2933   2929   2936   2938     1  0.0000000  1.2552000  3
   2933   2945   2951   2952     1  0.0000000  0.6508444  3
   2933   2945   2951   2953     1  0.0000000  0.6508444  3
   2934   2933   2929   2936     1  0.0000000  1.2552000  3
   2934   2933   2945   2951     1  0.0000000  0.6508444  3
   2934   2933   2945   2946     1  0.0000000  0.6508444  3
   2934   2933   2945   2947     1  0.0000000  0.6508444  3
   2935   2933   2929   2936     1  0.0000000  1.2552000  3
   2935   2933   2945   2951     1  0.0000000  0.6508444  3
   2935   2933   2945   2946     1  0.0000000  0.6508444  3
   2935   2933   2945   2947     1  0.0000000  0.6508444  3
   2936   2939   2948   2949     1  0.0000000  0.6508444  3
   2936   2939   2948   2950     1  0.0000000  0.6508444  3
   2937   2936   2939   2948     1  0.0000000  0.6508444  3
   2937   2936   2939   2940     1  0.0000000  0.6508444  3
   2937   2936   2939   2941     1  0.0000000  0.6508444  3
   2938   2936   2939   2948     1  0.0000000  0.6508444  3
   2938   2936   2939   2940     1  0.0000000  0.6508444  3
   2938   2936   2939   2941     1  0.0000000  0.6508444  3
   2940   2939   2948   2957     1  0.0000000  1.0460000  1
   2940   2939   2948   2957     1  0.0000000  0.0000000  3
   2940   2939   2948   2949     1  0.0000000  0.6508444  3
   2940   2939   2948   2950     1  0.0000000  0.6508444  3
   2941   2939   2948   2957     1  0.0000000  1.0460000  1
   2941   2939   2948   2957     1  0.0000000  0.0000000  3
   2941   2939   2948   2949     1  0.0000000  0.6508444  3
   2941   2939   2948   2950     1  0.0000000  0.6508444  3
   2943   2942   2954   5973     1  0.0000000  1.0460000  1
   2943   2942   2954   5973     1  0.0000000  0.0000000  3
   2943   2942   2954   2955     1  0.0000000  0.6508444  3
   2943   2942   2954   2956     1  0.0000000  0.6508444  3
   2944   2942   2954   5973     1  0.0000000  1.0460000  1
   2944   2942   2954   5973     1  0.0000000  0.0000000  3
   2944   2942   2954   2955     1  0.0000000  0.6508444  3
   2944   2942   2954   2956     1  0.0000000  0.6508444  3
   2946   2945   2951   5944     1  0.0000000  1.0460000  1
   2946   2945   2951   5944     1  0.0000000  0.0000000  3
   2946   2945   2951   2952     1  0.0000000  0.6508444  3
   2946   2945   2951   2953     1  0.0000000  0.6508444  3
   2947   2945   2951   5944     1  0.0000000  1.0460000  1
   2947   2945   2951   5944     1  0.0000000  0.0000000  3
   2947   2945   2951   2952     1  0.0000000  0.6508444  3
   2947   2945   2951   2953     1  0.0000000  0.6508444  3
   2951   5944   5916   5917     1  0.0000000  1.6038667  3
   2951   5944   5916   5918     1  0.0000000  1.6038667  3
   2952   2951   5944   5916     1  0.0000000  1.6038667  3
   2953   2951   5944   5916     1  0.0000000  1.6038667  3
   2954   5973   5945   5946     1  0.0000000  1.6038667  3
   2954   5973   5945   5947     1  0.0000000  1.6038667  3
   2955   2954   5973   5945     1  0.0000000  1.6038667  3
   2956   2954   5973   5945     1  0.0000000  1.6038667  3
   2958   2959   2971   2972     1  0.0000000  0.6508444  3
   2958   2959   2971   2973     1  0.0000000  0.6508444  3
   2958   2962   2974   2975     1  0.0000000  0.6508444  3
   2958   2962   2974   2976     1  0.0000000  0.6508444  3
   2958   2965   2968   2969     1  0.0000000  0.6508444  3
   2958   2965   2968   2970     1  0.0000000  0.6508444  3
   2959   2958   2962   2963     1  0.0000000  1.2552000  3
   2959   2958   2962   2964     1  0.0000000  1.2552000  3
   2959   2958   2965   2966     1  0.0000000  1.2552000  3
   2959   2958   2965   2967     1  0.0000000  1.2552000  3
   2959   2971   2983   2984     1  0.0000000  0.6508444  3
   2959   2971   2983   2985     1  0.0000000  0.6508444  3
   2960   2959   2958   2962     1  0.0000000  1.2552000  3
   2960   2959   2958   2965     1  0.0000000  1.2552000  3
   2960   2959   2971   2983     1  0.0000000  0.6508444  3
   2960   2959   2971   2972     1  0.0000000  0.6508444  3
   2960   2959   2971   2973     1  0.0000000  0.6508444  3
   2961   2959   2958   2962     1  0.0000000  1.2552000  3
   2961   2959   2958   2965     1  0.0000000  1.2552000  3
   2961   2959   2971   2983     1  0.0000000  0.6508444  3
   2961   2959   2971   2972     1  0.0000000  0.6508444  3
   2961   2959   2971   2973     1  0.0000000  0.6508444  3
   2962   2958   2965   2966     1  0.0000000  1.2552000  3
   2962   2958   2965   2967     1  0.0000000  1.2552000  3
   2962   2974   2980   2981     1  0.0000000  0.6508444  3
   2962   2974   2980   2982     1  0.0000000  0.6508444  3
   2963   2962   2958   2965     1  0.0000000  1.2552000  3
   2963   2962   2974   2980     1  0.0000000  0.6508444  3
   2963   2962   2974   2975     1  0.0000000  0.6508444  3
   2963   2962   2974   2976     1  0.0000000  0.6508444  3
   2964   2962   2958   2965     1  0.0000000  1.2552000  3
   2964   2962   2974   2980     1  0.0000000  0.6508444  3
   2964   2962   2974   2975     1  0.0000000  0.6508444  3
   2964   2962   2974   2976     1  0.0000000  0.6508444  3
   2965   2968   2977   2978     1  0.0000000  0.6508444  3
   2965   2968   2977   2979     1  0.0000000  0.6508444  3
   2966   2965   2968   2977     1  0.0000000  0.6508444  3
   2966   2965   2968   2969     1  0.0000000  0.6508444  3
   2966   2965   2968   2970     1  0.0000000  0.6508444  3
   2967   2965   2968   2977     1  0.0000000  0.6508444  3
   2967   2965   2968   2969     1  0.0000000  0.6508444  3
   2967   2965   2968   2970     1  0.0000000  0.6508444  3
   2969   2968   2977   2986     1  0.0000000  1.0460000  1
   2969   2968   2977   2986     1  0.0000000  0.0000000  3
   2969   2968   2977   2978     1  0.0000000  0.6508444  3
   2969   2968   2977   2979     1  0.0000000  0.6508444  3
   2970   2968   2977   2986     1  0.0000000  1.0460000  1
   2970   2968   2977   2986     1  0.0000000  0.0000000  3
   2970   2968   2977   2978     1  0.0000000  0.6508444  3
   2970   2968   2977   2979     1  0.0000000  0.6508444  3
   2972   2971   2983   6031     1  0.0000000  1.0460000  1
   2972   2971   2983   6031     1  0.0000000  0.0000000  3
   2972   2971   2983   2984     1  0.0000000  0.6508444  3
   2972   2971   2983   2985     1  0.0000000  0.6508444  3
   2973   2971   2983   6031     1  0.0000000  1.0460000  1
   2973   2971   2983   6031     1  0.0000000  0.0000000  3
   2973   2971   2983   2984     1  0.0000000  0.6508444  3
   2973   2971   2983   2985     1  0.0000000  0.6508444  3
   2975   2974   2980   6002     1  0.0000000  1.0460000  1
   2975   2974   2980   6002     1  0.0000000  0.0000000  3
   2975   2974   2980   2981     1  0.0000000  0.6508444  3
   2975   2974   2980   2982     1  0.0000000  0.6508444  3
   2976   2974   2980   6002     1  0.0000000  1.0460000  1
   2976   2974   2980   6002     1  0.0000000  0.0000000  3
   2976   2974   2980   2981     1  0.0000000  0.6508444  3
   2976   2974   2980   2982     1  0.0000000  0.6508444  3
   2980   6002   5974   5975     1  0.0000000  1.6038667  3
   2980   6002   5974   5976     1  0.0000000  1.6038667  3
   2981   2980   6002   5974     1  0.0000000  1.6038667  3
   2982   2980   6002   5974     1  0.0000000  1.6038667  3
   2983   6031   6003   6004     1  0.0000000  1.6038667  3
   2983   6031   6003   6005     1  0.0000000  1.6038667  3
   2984   2983   6031   6003     1  0.0000000  1.6038667  3
   2985   2983   6031   6003     1  0.0000000  1.6038667  3
   2987   2988   3000   3001     1  0.0000000  0.6508444  3
   2987   2988   3000   3002     1  0.0000000  0.6508444  3
   2987   2991   3003   3004     1  0.0000000  0.6508444  3
   2987   2991   3003   3005     1  0.0000000  0.6508444  3
   2987   2994   2997   2998     1  0.0000000  0.6508444  3
   2987   2994   2997   2999     1  0.0000000  0.6508444  3
   2988   2987   2991   2992     1  0.0000000  1.2552000  3
   2988   2987   2991   2993     1  0.0000000  1.2552000  3
   2988   2987   2994   2995     1  0.0000000  1.2552000  3
   2988   2987   2994   2996     1  0.0000000  1.2552000  3
   2988   3000   3012   3013     1  0.0000000  0.6508444  3
   2988   3000   3012   3014     1  0.0000000  0.6508444  3
   2989   2988   2987   2991     1  0.0000000  1.2552000  3
   2989   2988   2987   2994     1  0.0000000  1.2552000  3
   2989   2988   3000   3012     1  0.0000000  0.6508444  3
   2989   2988   3000   3001     1  0.0000000  0.6508444  3
   2989   2988   3000   3002     1  0.0000000  0.6508444  3
   2990   2988   2987   2991     1  0.0000000  1.2552000  3
   2990   2988   2987   2994     1  0.0000000  1.2552000  3
   2990   2988   3000   3012     1  0.0000000  0.6508444  3
   2990   2988   3000   3001     1  0.0000000  0.6508444  3
   2990   2988   3000   3002     1  0.0000000  0.6508444  3
   2991   2987   2994   2995     1  0.0000000  1.2552000  3
   2991   2987   2994   2996     1  0.0000000  1.2552000  3
   2991   3003   3009   3010     1  0.0000000  0.6508444  3
   2991   3003   3009   3011     1  0.0000000  0.6508444  3
   2992   2991   2987   2994     1  0.0000000  1.2552000  3
   2992   2991   3003   3009     1  0.0000000  0.6508444  3
   2992   2991   3003   3004     1  0.0000000  0.6508444  3
   2992   2991   3003   3005     1  0.0000000  0.6508444  3
   2993   2991   2987   2994     1  0.0000000  1.2552000  3
   2993   2991   3003   3009     1  0.0000000  0.6508444  3
   2993   2991   3003   3004     1  0.0000000  0.6508444  3
   2993   2991   3003   3005     1  0.0000000  0.6508444  3
   2994   2997   3006   3007     1  0.0000000  0.6508444  3
   2994   2997   3006   3008     1  0.0000000  0.6508444  3
   2995   2994   2997   3006     1  0.0000000  0.6508444  3
   2995   2994   2997   2998     1  0.0000000  0.6508444  3
   2995   2994   2997   2999     1  0.0000000  0.6508444  3
   2996   2994   2997   3006     1  0.0000000  0.6508444  3
   2996   2994   2997   2998     1  0.0000000  0.6508444  3
   2996   2994   2997   2999     1  0.0000000  0.6508444  3
   2998   2997   3006   3015     1  0.0000000  1.0460000  1
   2998   2997   3006   3015     1  0.0000000  0.0000000  3
   2998   2997   3006   3007     1  0.0000000  0.6508444  3
   2998   2997   3006   3008     1  0.0000000  0.6508444  3
   2999   2997   3006   3015     1  0.0000000  1.0460000  1
   2999   2997   3006   3015     1  0.0000000  0.0000000  3
   2999   2997   3006   3007     1  0.0000000  0.6508444  3
   2999   2997   3006   3008     1  0.0000000  0.6508444  3
   3001   3000   3012   6089     1  0.0000000  1.0460000  1
   3001   3000   3012   6089     1  0.0000000  0.0000000  3
   3001   3000   3012   3013     1  0.0000000  0.6508444  3
   3001   3000   3012   3014     1  0.0000000  0.6508444  3
   3002   3000   3012   6089     1  0.0000000  1.0460000  1
   3002   3000   3012   6089     1  0.0000000  0.0000000  3
   3002   3000   3012   3013     1  0.0000000  0.6508444  3
   3002   3000   3012   3014     1  0.0000000  0.6508444  3
   3004   3003   3009   6060     1  0.0000000  1.0460000  1
   3004   3003   3009   6060     1  0.0000000  0.0000000  3
   3004   3003   3009   3010     1  0.0000000  0.6508444  3
   3004   3003   3009   3011     1  0.0000000  0.6508444  3
   3005   3003   3009   6060     1  0.0000000  1.0460000  1
   3005   3003   3009   6060     1  0.0000000  0.0000000  3
   3005   3003   3009   3010     1  0.0000000  0.6508444  3
   3005   3003   3009   3011     1  0.0000000  0.6508444  3
   3009   6060   6032   6033     1  0.0000000  1.6038667  3
   3009   6060   6032   6034     1  0.0000000  1.6038667  3
   3010   3009   6060   6032     1  0.0000000  1.6038667  3
   3011   3009   6060   6032     1  0.0000000  1.6038667  3
   3012   6089   6061   6062     1  0.0000000  1.6038667  3
   3012   6089   6061   6063     1  0.0000000  1.6038667  3
   3013   3012   6089   6061     1  0.0000000  1.6038667  3
   3014   3012   6089   6061     1  0.0000000  1.6038667  3
   3016   3017   3029   3030     1  0.0000000  0.6508444  3
   3016   3017   3029   3031     1  0.0000000  0.6508444  3
   3016   3020   3032   3033     1  0.0000000  0.6508444  3
   3016   3020   3032   3034     1  0.0000000  0.6508444  3
   3016   3023   3026   3027     1  0.0000000  0.6508444  3
   3016   3023   3026   3028     1  0.0000000  0.6508444  3
   3017   3016   3020   3021     1  0.0000000  1.2552000  3
   3017   3016   3020   3022     1  0.0000000  1.2552000  3
   3017   3016   3023   3024     1  0.0000000  1.2552000  3
   3017   3016   3023   3025     1  0.0000000  1.2552000  3
   3017   3029   3041   3042     1  0.0000000  0.6508444  3
   3017   3029   3041   3043     1  0.0000000  0.6508444  3
   3018   3017   3016   3020     1  0.0000000  1.2552000  3
   3018   3017   3016   3023     1  0.0000000  1.2552000  3
   3018   3017   3029   3041     1  0.0000000  0.6508444  3
   3018   3017   3029   3030     1  0.0000000  0.6508444  3
   3018   3017   3029   3031     1  0.0000000  0.6508444  3
   3019   3017   3016   3020     1  0.0000000  1.2552000  3
   3019   3017   3016   3023     1  0.0000000  1.2552000  3
   3019   3017   3029   3041     1  0.0000000  0.6508444  3
   3019   3017   3029   3030     1  0.0000000  0.6508444  3
   3019   3017   3029   3031     1  0.0000000  0.6508444  3
   3020   3016   3023   3024     1  0.0000000  1.2552000  3
   3020   3016   3023   3025     1  0.0000000  1.2552000  3
   3020   3032   3038   3039     1  0.0000000  0.6508444  3
   3020   3032   3038   3040     1  0.0000000  0.6508444  3
   3021   3020   3016   3023     1  0.0000000  1.2552000  3
   3021   3020   3032   3038     1  0.0000000  0.6508444  3
   3021   3020   3032   3033     1  0.0000000  0.6508444  3
   3021   3020   3032   3034     1  0.0000000  0.6508444  3
   3022   3020   3016   3023     1  0.0000000  1.2552000  3
   3022   3020   3032   3038     1  0.0000000  0.6508444  3
   3022   3020   3032   3033     1  0.0000000  0.6508444  3
   3022   3020   3032   3034     1  0.0000000  0.6508444  3
   3023   3026   3035   3036     1  0.0000000  0.6508444  3
   3023   3026   3035   3037     1  0.0000000  0.6508444  3
   3024   3023   3026   3035     1  0.0000000  0.6508444  3
   3024   3023   3026   3027     1  0.0000000  0.6508444  3
   3024   3023   3026   3028     1  0.0000000  0.6508444  3
   3025   3023   3026   3035     1  0.0000000  0.6508444  3
   3025   3023   3026   3027     1  0.0000000  0.6508444  3
   3025   3023   3026   3028     1  0.0000000  0.6508444  3
   3027   3026   3035   3044     1  0.0000000  1.0460000  1
   3027   3026   3035   3044     1  0.0000000  0.0000000  3
   3027   3026   3035   3036     1  0.0000000  0.6508444  3
   3027   3026   3035   3037     1  0.0000000  0.6508444  3
   3028   3026   3035   3044     1  0.0000000  1.0460000  1
   3028   3026   3035   3044     1  0.0000000  0.0000000  3
   3028   3026   3035   3036     1  0.0000000  0.6508444  3
   3028   3026   3035   3037     1  0.0000000  0.6508444  3
   3030   3029   3041   6147     1  0.0000000  1.0460000  1
   3030   3029   3041   6147     1  0.0000000  0.0000000  3
   3030   3029   3041   3042     1  0.0000000  0.6508444  3
   3030   3029   3041   3043     1  0.0000000  0.6508444  3
   3031   3029   3041   6147     1  0.0000000  1.0460000  1
   3031   3029   3041   6147     1  0.0000000  0.0000000  3
   3031   3029   3041   3042     1  0.0000000  0.6508444  3
   3031   3029   3041   3043     1  0.0000000  0.6508444  3
   3033   3032   3038   6118     1  0.0000000  1.0460000  1
   3033   3032   3038   6118     1  0.0000000  0.0000000  3
   3033   3032   3038   3039     1  0.0000000  0.6508444  3
   3033   3032   3038   3040     1  0.0000000  0.6508444  3
   3034   3032   3038   6118     1  0.0000000  1.0460000  1
   3034   3032   3038   6118     1  0.0000000  0.0000000  3
   3034   3032   3038   3039     1  0.0000000  0.6508444  3
   3034   3032   3038   3040     1  0.0000000  0.6508444  3
   3038   6118   6090   6091     1  0.0000000  1.6038667  3
   3038   6118   6090   6092     1  0.0000000  1.6038667  3
   3039   3038   6118   6090     1  0.0000000  1.6038667  3
   3040   3038   6118   6090     1  0.0000000  1.6038667  3
   3041   6147   6119   6120     1  0.0000000  1.6038667  3
   3041   6147   6119   6121     1  0.0000000  1.6038667  3
   3042   3041   6147   6119     1  0.0000000  1.6038667  3
   3043   3041   6147   6119     1  0.0000000  1.6038667  3
   3045   3046   3058   3059     1  0.0000000  0.6508444  3
   3045   3046   3058   3060     1  0.0000000  0.6508444  3
   3045   3049   3061   3062     1  0.0000000  0.6508444  3
   3045   3049   3061   3063     1  0.0000000  0.6508444  3
   3045   3052   3055   3056     1  0.0000000  0.6508444  3
   3045   3052   3055   3057     1  0.0000000  0.6508444  3
   3046   3045   3049   3050     1  0.0000000  1.2552000  3
   3046   3045   3049   3051     1  0.0000000  1.2552000  3
   3046   3045   3052   3053     1  0.0000000  1.2552000  3
   3046   3045   3052   3054     1  0.0000000  1.2552000  3
   3046   3058   3070   3071     1  0.0000000  0.6508444  3
   3046   3058   3070   3072     1  0.0000000  0.6508444  3
   3047   3046   3045   3049     1  0.0000000  1.2552000  3
   3047   3046   3045   3052     1  0.0000000  1.2552000  3
   3047   3046   3058   3070     1  0.0000000  0.6508444  3
   3047   3046   3058   3059     1  0.0000000  0.6508444  3
   3047   3046   3058   3060     1  0.0000000  0.6508444  3
   3048   3046   3045   3049     1  0.0000000  1.2552000  3
   3048   3046   3045   3052     1  0.0000000  1.2552000  3
   3048   3046   3058   3070     1  0.0000000  0.6508444  3
   3048   3046   3058   3059     1  0.0000000  0.6508444  3
   3048   3046   3058   3060     1  0.0000000  0.6508444  3
   3049   3045   3052   3053     1  0.0000000  1.2552000  3
   3049   3045   3052   3054     1  0.0000000  1.2552000  3
   3049   3061   3067   3068     1  0.0000000  0.6508444  3
   3049   3061   3067   3069     1  0.0000000  0.6508444  3
   3050   3049   3045   3052     1  0.0000000  1.2552000  3
   3050   3049   3061   3067     1  0.0000000  0.6508444  3
   3050   3049   3061   3062     1  0.0000000  0.6508444  3
   3050   3049   3061   3063     1  0.0000000  0.6508444  3
   3051   3049   3045   3052     1  0.0000000  1.2552000  3
   3051   3049   3061   3067     1  0.0000000  0.6508444  3
   3051   3049   3061   3062     1  0.0000000  0.6508444  3
   3051   3049   3061   3063     1  0.0000000  0.6508444  3
   3052   3055   3064   3065     1  0.0000000  0.6508444  3
   3052   3055   3064   3066     1  0.0000000  0.6508444  3
   3053   3052   3055   3064     1  0.0000000  0.6508444  3
   3053   3052   3055   3056     1  0.0000000  0.6508444  3
   3053   3052   3055   3057     1  0.0000000  0.6508444  3
   3054   3052   3055   3064     1  0.0000000  0.6508444  3
   3054   3052   3055   3056     1  0.0000000  0.6508444  3
   3054   3052   3055   3057     1  0.0000000  0.6508444  3
   3056   3055   3064   3073     1  0.0000000  1.0460000  1
   3056   3055   3064   3073     1  0.0000000  0.0000000  3
   3056   3055   3064   3065     1  0.0000000  0.6508444  3
   3056   3055   3064   3066     1  0.0000000  0.6508444  3
   3057   3055   3064   3073     1  0.0000000  1.0460000  1
   3057   3055   3064   3073     1  0.0000000  0.0000000  3
   3057   3055   3064   3065     1  0.0000000  0.6508444  3
   3057   3055   3064   3066     1  0.0000000  0.6508444  3
   3059   3058   3070   6205     1  0.0000000  1.0460000  1
   3059   3058   3070   6205     1  0.0000000  0.0000000  3
   3059   3058   3070   3071     1  0.0000000  0.6508444  3
   3059   3058   3070   3072     1  0.0000000  0.6508444  3
   3060   3058   3070   6205     1  0.0000000  1.0460000  1
   3060   3058   3070   6205     1  0.0000000  0.0000000  3
   3060   3058   3070   3071     1  0.0000000  0.6508444  3
   3060   3058   3070   3072     1  0.0000000  0.6508444  3
   3062   3061   3067   6176     1  0.0000000  1.0460000  1
   3062   3061   3067   6176     1  0.0000000  0.0000000  3
   3062   3061   3067   3068     1  0.0000000  0.6508444  3
   3062   3061   3067   3069     1  0.0000000  0.6508444  3
   3063   3061   3067   6176     1  0.0000000  1.0460000  1
   3063   3061   3067   6176     1  0.0000000  0.0000000  3
   3063   3061   3067   3068     1  0.0000000  0.6508444  3
   3063   3061   3067   3069     1  0.0000000  0.6508444  3
   3067   6176   6148   6149     1  0.0000000  1.6038667  3
   3067   6176   6148   6150     1  0.0000000  1.6038667  3
   3068   3067   6176   6148     1  0.0000000  1.6038667  3
   3069   3067   6176   6148     1  0.0000000  1.6038667  3
   3070   6205   6177   6178     1  0.0000000  1.6038667  3
   3070   6205   6177   6179     1  0.0000000  1.6038667  3
   3071   3070   6205   6177     1  0.0000000  1.6038667  3
   3072   3070   6205   6177     1  0.0000000  1.6038667  3
   3074   3075   3087   3088     1  0.0000000  0.6508444  3
   3074   3075   3087   3089     1  0.0000000  0.6508444  3
   3074   3078   3090   3091     1  0.0000000  0.6508444  3
   3074   3078   3090   3092     1  0.0000000  0.6508444  3
   3074   3081   3084   3085     1  0.0000000  0.6508444  3
   3074   3081   3084   3086     1  0.0000000  0.6508444  3
   3075   3074   3078   3079     1  0.0000000  1.2552000  3
   3075   3074   3078   3080     1  0.0000000  1.2552000  3
   3075   3074   3081   3082     1  0.0000000  1.2552000  3
   3075   3074   3081   3083     1  0.0000000  1.2552000  3
   3075   3087   3099   3100     1  0.0000000  0.6508444  3
   3075   3087   3099   3101     1  0.0000000  0.6508444  3
   3076   3075   3074   3078     1  0.0000000  1.2552000  3
   3076   3075   3074   3081     1  0.0000000  1.2552000  3
   3076   3075   3087   3099     1  0.0000000  0.6508444  3
   3076   3075   3087   3088     1  0.0000000  0.6508444  3
   3076   3075   3087   3089     1  0.0000000  0.6508444  3
   3077   3075   3074   3078     1  0.0000000  1.2552000  3
   3077   3075   3074   3081     1  0.0000000  1.2552000  3
   3077   3075   3087   3099     1  0.0000000  0.6508444  3
   3077   3075   3087   3088     1  0.0000000  0.6508444  3
   3077   3075   3087   3089     1  0.0000000  0.6508444  3
   3078   3074   3081   3082     1  0.0000000  1.2552000  3
   3078   3074   3081   3083     1  0.0000000  1.2552000  3
   3078   3090   3096   3097     1  0.0000000  0.6508444  3
   3078   3090   3096   3098     1  0.0000000  0.6508444  3
   3079   3078   3074   3081     1  0.0000000  1.2552000  3
   3079   3078   3090   3096     1  0.0000000  0.6508444  3
   3079   3078   3090   3091     1  0.0000000  0.6508444  3
   3079   3078   3090   3092     1  0.0000000  0.6508444  3
   3080   3078   3074   3081     1  0.0000000  1.2552000  3
   3080   3078   3090   3096     1  0.0000000  0.6508444  3
   3080   3078   3090   3091     1  0.0000000  0.6508444  3
   3080   3078   3090   3092     1  0.0000000  0.6508444  3
   3081   3084   3093   3094     1  0.0000000  0.6508444  3
   3081   3084   3093   3095     1  0.0000000  0.6508444  3
   3082   3081   3084   3093     1  0.0000000  0.6508444  3
   3082   3081   3084   3085     1  0.0000000  0.6508444  3
   3082   3081   3084   3086     1  0.0000000  0.6508444  3
   3083   3081   3084   3093     1  0.0000000  0.6508444  3
   3083   3081   3084   3085     1  0.0000000  0.6508444  3
   3083   3081   3084   3086     1  0.0000000  0.6508444  3
   3085   3084   3093   3102     1  0.0000000  1.0460000  1
   3085   3084   3093   3102     1  0.0000000  0.0000000  3
   3085   3084   3093   3094     1  0.0000000  0.6508444  3
   3085   3084   3093   3095     1  0.0000000  0.6508444  3
   3086   3084   3093   3102     1  0.0000000  1.0460000  1
   3086   3084   3093   3102     1  0.0000000  0.0000000  3
   3086   3084   3093   3094     1  0.0000000  0.6508444  3
   3086   3084   3093   3095     1  0.0000000  0.6508444  3
   3088   3087   3099   6263     1  0.0000000  1.0460000  1
   3088   3087   3099   6263     1  0.0000000  0.0000000  3
   3088   3087   3099   3100     1  0.0000000  0.6508444  3
   3088   3087   3099   3101     1  0.0000000  0.6508444  3
   3089   3087   3099   6263     1  0.0000000  1.0460000  1
   3089   3087   3099   6263     1  0.0000000  0.0000000  3
   3089   3087   3099   3100     1  0.0000000  0.6508444  3
   3089   3087   3099   3101     1  0.0000000  0.6508444  3
   3091   3090   3096   6234     1  0.0000000  1.0460000  1
   3091   3090   3096   6234     1  0.0000000  0.0000000  3
   3091   3090   3096   3097     1  0.0000000  0.6508444  3
   3091   3090   3096   3098     1  0.0000000  0.6508444  3
   3092   3090   3096   6234     1  0.0000000  1.0460000  1
   3092   3090   3096   6234     1  0.0000000  0.0000000  3
   3092   3090   3096   3097     1  0.0000000  0.6508444  3
   3092   3090   3096   3098     1  0.0000000  0.6508444  3
   3096   6234   6206   6207     1  0.0000000  1.6038667  3
   3096   6234   6206   6208     1  0.0000000  1.6038667  3
   3097   3096   6234   6206     1  0.0000000  1.6038667  3
   3098   3096   6234   6206     1  0.0000000  1.6038667  3
   3099   6263   6235   6236     1  0.0000000  1.6038667  3
   3099   6263   6235   6237     1  0.0000000  1.6038667  3
   3100   3099   6263   6235     1  0.0000000  1.6038667  3
   3101   3099   6263   6235     1  0.0000000  1.6038667  3
   3103   3104   3116   3117     1  0.0000000  0.6508444  3
   3103   3104   3116   3118     1  0.0000000  0.6508444  3
   3103   3107   3119   3120     1  0.0000000  0.6508444  3
   3103   3107   3119   3121     1  0.0000000  0.6508444  3
   3103   3110   3113   3114     1  0.0000000  0.6508444  3
   3103   3110   3113   3115     1  0.0000000  0.6508444  3
   3104   3103   3107   3108     1  0.0000000  1.2552000  3
   3104   3103   3107   3109     1  0.0000000  1.2552000  3
   3104   3103   3110   3111     1  0.0000000  1.2552000  3
   3104   3103   3110   3112     1  0.0000000  1.2552000  3
   3104   3116   3128   3129     1  0.0000000  0.6508444  3
   3104   3116   3128   3130     1  0.0000000  0.6508444  3
   3105   3104   3103   3107     1  0.0000000  1.2552000  3
   3105   3104   3103   3110     1  0.0000000  1.2552000  3
   3105   3104   3116   3128     1  0.0000000  0.6508444  3
   3105   3104   3116   3117     1  0.0000000  0.6508444  3
   3105   3104   3116   3118     1  0.0000000  0.6508444  3
   3106   3104   3103   3107     1  0.0000000  1.2552000  3
   3106   3104   3103   3110     1  0.0000000  1.2552000  3
   3106   3104   3116   3128     1  0.0000000  0.6508444  3
   3106   3104   3116   3117     1  0.0000000  0.6508444  3
   3106   3104   3116   3118     1  0.0000000  0.6508444  3
   3107   3103   3110   3111     1  0.0000000  1.2552000  3
   3107   3103   3110   3112     1  0.0000000  1.2552000  3
   3107   3119   3125   3126     1  0.0000000  0.6508444  3
   3107   3119   3125   3127     1  0.0000000  0.6508444  3
   3108   3107   3103   3110     1  0.0000000  1.2552000  3
   3108   3107   3119   3125     1  0.0000000  0.6508444  3
   3108   3107   3119   3120     1  0.0000000  0.6508444  3
   3108   3107   3119   3121     1  0.0000000  0.6508444  3
   3109   3107   3103   3110     1  0.0000000  1.2552000  3
   3109   3107   3119   3125     1  0.0000000  0.6508444  3
   3109   3107   3119   3120     1  0.0000000  0.6508444  3
   3109   3107   3119   3121     1  0.0000000  0.6508444  3
   3110   3113   3122   3123     1  0.0000000  0.6508444  3
   3110   3113   3122   3124     1  0.0000000  0.6508444  3
   3111   3110   3113   3122     1  0.0000000  0.6508444  3
   3111   3110   3113   3114     1  0.0000000  0.6508444  3
   3111   3110   3113   3115     1  0.0000000  0.6508444  3
   3112   3110   3113   3122     1  0.0000000  0.6508444  3
   3112   3110   3113   3114     1  0.0000000  0.6508444  3
   3112   3110   3113   3115     1  0.0000000  0.6508444  3
   3114   3113   3122   3131     1  0.0000000  1.0460000  1
   3114   3113   3122   3131     1  0.0000000  0.0000000  3
   3114   3113   3122   3123     1  0.0000000  0.6508444  3
   3114   3113   3122   3124     1  0.0000000  0.6508444  3
   3115   3113   3122   3131     1  0.0000000  1.0460000  1
   3115   3113   3122   3131     1  0.0000000  0.0000000  3
   3115   3113   3122   3123     1  0.0000000  0.6508444  3
   3115   3113   3122   3124     1  0.0000000  0.6508444  3
   3117   3116   3128   6321     1  0.0000000  1.0460000  1
   3117   3116   3128   6321     1  0.0000000  0.0000000  3
   3117   3116   3128   3129     1  0.0000000  0.6508444  3
   3117   3116   3128   3130     1  0.0000000  0.6508444  3
   3118   3116   3128   6321     1  0.0000000  1.0460000  1
   3118   3116   3128   6321     1  0.0000000  0.0000000  3
   3118   3116   3128   3129     1  0.0000000  0.6508444  3
   3118   3116   3128   3130     1  0.0000000  0.6508444  3
   3120   3119   3125   6292     1  0.0000000  1.0460000  1
   3120   3119   3125   6292     1  0.0000000  0.0000000  3
   3120   3119   3125   3126     1  0.0000000  0.6508444  3
   3120   3119   3125   3127     1  0.0000000  0.6508444  3
   3121   3119   3125   6292     1  0.0000000  1.0460000  1
   3121   3119   3125   6292     1  0.0000000  0.0000000  3
   3121   3119   3125   3126     1  0.0000000  0.6508444  3
   3121   3119   3125   3127     1  0.0000000  0.6508444  3
   3125   6292   6264   6265     1  0.0000000  1.6038667  3
   3125   6292   6264   6266     1  0.0000000  1.6038667  3
   3126   3125   6292   6264     1  0.0000000  1.6038667  3
   3127   3125   6292   6264     1  0.0000000  1.6038667  3
   3128   6321   6293   6294     1  0.0000000  1.6038667  3
   3128   6321   6293   6295     1  0.0000000  1.6038667  3
   3129   3128   6321   6293     1  0.0000000  1.6038667  3
   3130   3128   6321   6293     1  0.0000000  1.6038667  3
   3132   3133   3145   3146     1  0.0000000  0.6508444  3
   3132   3133   3145   3147     1  0.0000000  0.6508444  3
   3132   3136   3148   3149     1  0.0000000  0.6508444  3
   3132   3136   3148   3150     1  0.0000000  0.6508444  3
   3132   3139   3142   3143     1  0.0000000  0.6508444  3
   3132   3139   3142   3144     1  0.0000000  0.6508444  3
   3133   3132   3136   3137     1  0.0000000  1.2552000  3
   3133   3132   3136   3138     1  0.0000000  1.2552000  3
   3133   3132   3139   3140     1  0.0000000  1.2552000  3
   3133   3132   3139   3141     1  0.0000000  1.2552000  3
   3133   3145   3157   3158     1  0.0000000  0.6508444  3
   3133   3145   3157   3159     1  0.0000000  0.6508444  3
   3134   3133   3132   3136     1  0.0000000  1.2552000  3
   3134   3133   3132   3139     1  0.0000000  1.2552000  3
   3134   3133   3145   3157     1  0.0000000  0.6508444  3
   3134   3133   3145   3146     1  0.0000000  0.6508444  3
   3134   3133   3145   3147     1  0.0000000  0.6508444  3
   3135   3133   3132   3136     1  0.0000000  1.2552000  3
   3135   3133   3132   3139     1  0.0000000  1.2552000  3
   3135   3133   3145   3157     1  0.0000000  0.6508444  3
   3135   3133   3145   3146     1  0.0000000  0.6508444  3
   3135   3133   3145   3147     1  0.0000000  0.6508444  3
   3136   3132   3139   3140     1  0.0000000  1.2552000  3
   3136   3132   3139   3141     1  0.0000000  1.2552000  3
   3136   3148   3154   3155     1  0.0000000  0.6508444  3
   3136   3148   3154   3156     1  0.0000000  0.6508444  3
   3137   3136   3132   3139     1  0.0000000  1.2552000  3
   3137   3136   3148   3154     1  0.0000000  0.6508444  3
   3137   3136   3148   3149     1  0.0000000  0.6508444  3
   3137   3136   3148   3150     1  0.0000000  0.6508444  3
   3138   3136   3132   3139     1  0.0000000  1.2552000  3
   3138   3136   3148   3154     1  0.0000000  0.6508444  3
   3138   3136   3148   3149     1  0.0000000  0.6508444  3
   3138   3136   3148   3150     1  0.0000000  0.6508444  3
   3139   3142   3151   3152     1  0.0000000  0.6508444  3
   3139   3142   3151   3153     1  0.0000000  0.6508444  3
   3140   3139   3142   3151     1  0.0000000  0.6508444  3
   3140   3139   3142   3143     1  0.0000000  0.6508444  3
   3140   3139   3142   3144     1  0.0000000  0.6508444  3
   3141   3139   3142   3151     1  0.0000000  0.6508444  3
   3141   3139   3142   3143     1  0.0000000  0.6508444  3
   3141   3139   3142   3144     1  0.0000000  0.6508444  3
   3143   3142   3151   3160     1  0.0000000  1.0460000  1
   3143   3142   3151   3160     1  0.0000000  0.0000000  3
   3143   3142   3151   3152     1  0.0000000  0.6508444  3
   3143   3142   3151   3153     1  0.0000000  0.6508444  3
   3144   3142   3151   3160     1  0.0000000  1.0460000  1
   3144   3142   3151   3160     1  0.0000000  0.0000000  3
   3144   3142   3151   3152     1  0.0000000  0.6508444  3
   3144   3142   3151   3153     1  0.0000000  0.6508444  3
   3146   3145   3157   6379     1  0.0000000  1.0460000  1
   3146   3145   3157   6379     1  0.0000000  0.0000000  3
   3146   3145   3157   3158     1  0.0000000  0.6508444  3
   3146   3145   3157   3159     1  0.0000000  0.6508444  3
   3147   3145   3157   6379     1  0.0000000  1.0460000  1
   3147   3145   3157   6379     1  0.0000000  0.0000000  3
   3147   3145   3157   3158     1  0.0000000  0.6508444  3
   3147   3145   3157   3159     1  0.0000000  0.6508444  3
   3149   3148   3154   6350     1  0.0000000  1.0460000  1
   3149   3148   3154   6350     1  0.0000000  0.0000000  3
   3149   3148   3154   3155     1  0.0000000  0.6508444  3
   3149   3148   3154   3156     1  0.0000000  0.6508444  3
   3150   3148   3154   6350     1  0.0000000  1.0460000  1
   3150   3148   3154   6350     1  0.0000000  0.0000000  3
   3150   3148   3154   3155     1  0.0000000  0.6508444  3
   3150   3148   3154   3156     1  0.0000000  0.6508444  3
   3154   6350   6322   6323     1  0.0000000  1.6038667  3
   3154   6350   6322   6324     1  0.0000000  1.6038667  3
   3155   3154   6350   6322     1  0.0000000  1.6038667  3
   3156   3154   6350   6322     1  0.0000000  1.6038667  3
   3157   6379   6351   6352     1  0.0000000  1.6038667  3
   3157   6379   6351   6353     1  0.0000000  1.6038667  3
   3158   3157   6379   6351     1  0.0000000  1.6038667  3
   3159   3157   6379   6351     1  0.0000000  1.6038667  3
   3161   3162   3174   3175     1  0.0000000  0.6508444  3
   3161   3162   3174   3176     1  0.0000000  0.6508444  3
   3161   3165   3177   3178     1  0.0000000  0.6508444  3
   3161   3165   3177   3179     1  0.0000000  0.6508444  3
   3161   3168   3171   3172     1  0.0000000  0.6508444  3
   3161   3168   3171   3173     1  0.0000000  0.6508444  3
   3162   3161   3165   3166     1  0.0000000  1.2552000  3
   3162   3161   3165   3167     1  0.0000000  1.2552000  3
   3162   3161   3168   3169     1  0.0000000  1.2552000  3
   3162   3161   3168   3170     1  0.0000000  1.2552000  3
   3162   3174   3186   3187     1  0.0000000  0.6508444  3
   3162   3174   3186   3188     1  0.0000000  0.6508444  3
   3163   3162   3161   3165     1  0.0000000  1.2552000  3
   3163   3162   3161   3168     1  0.0000000  1.2552000  3
   3163   3162   3174   3186     1  0.0000000  0.6508444  3
   3163   3162   3174   3175     1  0.0000000  0.6508444  3
   3163   3162   3174   3176     1  0.0000000  0.6508444  3
   3164   3162   3161   3165     1  0.0000000  1.2552000  3
   3164   3162   3161   3168     1  0.0000000  1.2552000  3
   3164   3162   3174   3186     1  0.0000000  0.6508444  3
   3164   3162   3174   3175     1  0.0000000  0.6508444  3
   3164   3162   3174   3176     1  0.0000000  0.6508444  3
   3165   3161   3168   3169     1  0.0000000  1.2552000  3
   3165   3161   3168   3170     1  0.0000000  1.2552000  3
   3165   3177   3183   3184     1  0.0000000  0.6508444  3
   3165   3177   3183   3185     1  0.0000000  0.6508444  3
   3166   3165   3161   3168     1  0.0000000  1.2552000  3
   3166   3165   3177   3183     1  0.0000000  0.6508444  3
   3166   3165   3177   3178     1  0.0000000  0.6508444  3
   3166   3165   3177   3179     1  0.0000000  0.6508444  3
   3167   3165   3161   3168     1  0.0000000  1.2552000  3
   3167   3165   3177   3183     1  0.0000000  0.6508444  3
   3167   3165   3177   3178     1  0.0000000  0.6508444  3
   3167   3165   3177   3179     1  0.0000000  0.6508444  3
   3168   3171   3180   3181     1  0.0000000  0.6508444  3
   3168   3171   3180   3182     1  0.0000000  0.6508444  3
   3169   3168   3171   3180     1  0.0000000  0.6508444  3
   3169   3168   3171   3172     1  0.0000000  0.6508444  3
   3169   3168   3171   3173     1  0.0000000  0.6508444  3
   3170   3168   3171   3180     1  0.0000000  0.6508444  3
   3170   3168   3171   3172     1  0.0000000  0.6508444  3
   3170   3168   3171   3173     1  0.0000000  0.6508444  3
   3172   3171   3180   3189     1  0.0000000  1.0460000  1
   3172   3171   3180   3189     1  0.0000000  0.0000000  3
   3172   3171   3180   3181     1  0.0000000  0.6508444  3
   3172   3171   3180   3182     1  0.0000000  0.6508444  3
   3173   3171   3180   3189     1  0.0000000  1.0460000  1
   3173   3171   3180   3189     1  0.0000000  0.0000000  3
   3173   3171   3180   3181     1  0.0000000  0.6508444  3
   3173   3171   3180   3182     1  0.0000000  0.6508444  3
   3175   3174   3186   6437     1  0.0000000  1.0460000  1
   3175   3174   3186   6437     1  0.0000000  0.0000000  3
   3175   3174   3186   3187     1  0.0000000  0.6508444  3
   3175   3174   3186   3188     1  0.0000000  0.6508444  3
   3176   3174   3186   6437     1  0.0000000  1.0460000  1
   3176   3174   3186   6437     1  0.0000000  0.0000000  3
   3176   3174   3186   3187     1  0.0000000  0.6508444  3
   3176   3174   3186   3188     1  0.0000000  0.6508444  3
   3178   3177   3183   6408     1  0.0000000  1.0460000  1
   3178   3177   3183   6408     1  0.0000000  0.0000000  3
   3178   3177   3183   3184     1  0.0000000  0.6508444  3
   3178   3177   3183   3185     1  0.0000000  0.6508444  3
   3179   3177   3183   6408     1  0.0000000  1.0460000  1
   3179   3177   3183   6408     1  0.0000000  0.0000000  3
   3179   3177   3183   3184     1  0.0000000  0.6508444  3
   3179   3177   3183   3185     1  0.0000000  0.6508444  3
   3183   6408   6380   6381     1  0.0000000  1.6038667  3
   3183   6408   6380   6382     1  0.0000000  1.6038667  3
   3184   3183   6408   6380     1  0.0000000  1.6038667  3
   3185   3183   6408   6380     1  0.0000000  1.6038667  3
   3186   6437   6409   6410     1  0.0000000  1.6038667  3
   3186   6437   6409   6411     1  0.0000000  1.6038667  3
   3187   3186   6437   6409     1  0.0000000  1.6038667  3
   3188   3186   6437   6409     1  0.0000000  1.6038667  3
   3190   3191   3203   3204     1  0.0000000  0.6508444  3
   3190   3191   3203   3205     1  0.0000000  0.6508444  3
   3190   3194   3206   3207     1  0.0000000  0.6508444  3
   3190   3194   3206   3208     1  0.0000000  0.6508444  3
   3190   3197   3200   3201     1  0.0000000  0.6508444  3
   3190   3197   3200   3202     1  0.0000000  0.6508444  3
   3191   3190   3194   3195     1  0.0000000  1.2552000  3
   3191   3190   3194   3196     1  0.0000000  1.2552000  3
   3191   3190   3197   3198     1  0.0000000  1.2552000  3
   3191   3190   3197   3199     1  0.0000000  1.2552000  3
   3191   3203   3215   3216     1  0.0000000  0.6508444  3
   3191   3203   3215   3217     1  0.0000000  0.6508444  3
   3192   3191   3190   3194     1  0.0000000  1.2552000  3
   3192   3191   3190   3197     1  0.0000000  1.2552000  3
   3192   3191   3203   3215     1  0.0000000  0.6508444  3
   3192   3191   3203   3204     1  0.0000000  0.6508444  3
   3192   3191   3203   3205     1  0.0000000  0.6508444  3
   3193   3191   3190   3194     1  0.0000000  1.2552000  3
   3193   3191   3190   3197     1  0.0000000  1.2552000  3
   3193   3191   3203   3215     1  0.0000000  0.6508444  3
   3193   3191   3203   3204     1  0.0000000  0.6508444  3
   3193   3191   3203   3205     1  0.0000000  0.6508444  3
   3194   3190   3197   3198     1  0.0000000  1.2552000  3
   3194   3190   3197   3199     1  0.0000000  1.2552000  3
   3194   3206   3212   3213     1  0.0000000  0.6508444  3
   3194   3206   3212   3214     1  0.0000000  0.6508444  3
   3195   3194   3190   3197     1  0.0000000  1.2552000  3
   3195   3194   3206   3212     1  0.0000000  0.6508444  3
   3195   3194   3206   3207     1  0.0000000  0.6508444  3
   3195   3194   3206   3208     1  0.0000000  0.6508444  3
   3196   3194   3190   3197     1  0.0000000  1.2552000  3
   3196   3194   3206   3212     1  0.0000000  0.6508444  3
   3196   3194   3206   3207     1  0.0000000  0.6508444  3
   3196   3194   3206   3208     1  0.0000000  0.6508444  3
   3197   3200   3209   3210     1  0.0000000  0.6508444  3
   3197   3200   3209   3211     1  0.0000000  0.6508444  3
   3198   3197   3200   3209     1  0.0000000  0.6508444  3
   3198   3197   3200   3201     1  0.0000000  0.6508444  3
   3198   3197   3200   3202     1  0.0000000  0.6508444  3
   3199   3197   3200   3209     1  0.0000000  0.6508444  3
   3199   3197   3200   3201     1  0.0000000  0.6508444  3
   3199   3197   3200   3202     1  0.0000000  0.6508444  3
   3201   3200   3209   3218     1  0.0000000  1.0460000  1
   3201   3200   3209   3218     1  0.0000000  0.0000000  3
   3201   3200   3209   3210     1  0.0000000  0.6508444  3
   3201   3200   3209   3211     1  0.0000000  0.6508444  3
   3202   3200   3209   3218     1  0.0000000  1.0460000  1
   3202   3200   3209   3218     1  0.0000000  0.0000000  3
   3202   3200   3209   3210     1  0.0000000  0.6508444  3
   3202   3200   3209   3211     1  0.0000000  0.6508444  3
   3204   3203   3215   6495     1  0.0000000  1.0460000  1
   3204   3203   3215   6495     1  0.0000000  0.0000000  3
   3204   3203   3215   3216     1  0.0000000  0.6508444  3
   3204   3203   3215   3217     1  0.0000000  0.6508444  3
   3205   3203   3215   6495     1  0.0000000  1.0460000  1
   3205   3203   3215   6495     1  0.0000000  0.0000000  3
   3205   3203   3215   3216     1  0.0000000  0.6508444  3
   3205   3203   3215   3217     1  0.0000000  0.6508444  3
   3207   3206   3212   6466     1  0.0000000  1.0460000  1
   3207   3206   3212   6466     1  0.0000000  0.0000000  3
   3207   3206   3212   3213     1  0.0000000  0.6508444  3
   3207   3206   3212   3214     1  0.0000000  0.6508444  3
   3208   3206   3212   6466     1  0.0000000  1.0460000  1
   3208   3206   3212   6466     1  0.0000000  0.0000000  3
   3208   3206   3212   3213     1  0.0000000  0.6508444  3
   3208   3206   3212   3214     1  0.0000000  0.6508444  3
   3212   6466   6438   6439     1  0.0000000  1.6038667  3
   3212   6466   6438   6440     1  0.0000000  1.6038667  3
   3213   3212   6466   6438     1  0.0000000  1.6038667  3
   3214   3212   6466   6438     1  0.0000000  1.6038667  3
   3215   6495   6467   6468     1  0.0000000  1.6038667  3
   3215   6495   6467   6469     1  0.0000000  1.6038667  3
   3216   3215   6495   6467     1  0.0000000  1.6038667  3
   3217   3215   6495   6467     1  0.0000000  1.6038667  3
   3219   3220   3232   3233     1  0.0000000  0.6508444  3
   3219   3220   3232   3234     1  0.0000000  0.6508444  3
   3219   3223   3235   3236     1  0.0000000  0.6508444  3
   3219   3223   3235   3237     1  0.0000000  0.6508444  3
   3219   3226   3229   3230     1  0.0000000  0.6508444  3
   3219   3226   3229   3231     1  0.0000000  0.6508444  3
   3220   3219   3223   3224     1  0.0000000  1.2552000  3
   3220   3219   3223   3225     1  0.0000000  1.2552000  3
   3220   3219   3226   3227     1  0.0000000  1.2552000  3
   3220   3219   3226   3228     1  0.0000000  1.2552000  3
   3220   3232   3244   3245     1  0.0000000  0.6508444  3
   3220   3232   3244   3246     1  0.0000000  0.6508444  3
   3221   3220   3219   3223     1  0.0000000  1.2552000  3
   3221   3220   3219   3226     1  0.0000000  1.2552000  3
   3221   3220   3232   3244     1  0.0000000  0.6508444  3
   3221   3220   3232   3233     1  0.0000000  0.6508444  3
   3221   3220   3232   3234     1  0.0000000  0.6508444  3
   3222   3220   3219   3223     1  0.0000000  1.2552000  3
   3222   3220   3219   3226     1  0.0000000  1.2552000  3
   3222   3220   3232   3244     1  0.0000000  0.6508444  3
   3222   3220   3232   3233     1  0.0000000  0.6508444  3
   3222   3220   3232   3234     1  0.0000000  0.6508444  3
   3223   3219   3226   3227     1  0.0000000  1.2552000  3
   3223   3219   3226   3228     1  0.0000000  1.2552000  3
   3223   3235   3241   3242     1  0.0000000  0.6508444  3
   3223   3235   3241   3243     1  0.0000000  0.6508444  3
   3224   3223   3219   3226     1  0.0000000  1.2552000  3
   3224   3223   3235   3241     1  0.0000000  0.6508444  3
   3224   3223   3235   3236     1  0.0000000  0.6508444  3
   3224   3223   3235   3237     1  0.0000000  0.6508444  3
   3225   3223   3219   3226     1  0.0000000  1.2552000  3
   3225   3223   3235   3241     1  0.0000000  0.6508444  3
   3225   3223   3235   3236     1  0.0000000  0.6508444  3
   3225   3223   3235   3237     1  0.0000000  0.6508444  3
   3226   3229   3238   3239     1  0.0000000  0.6508444  3
   3226   3229   3238   3240     1  0.0000000  0.6508444  3
   3227   3226   3229   3238     1  0.0000000  0.6508444  3
   3227   3226   3229   3230     1  0.0000000  0.6508444  3
   3227   3226   3229   3231     1  0.0000000  0.6508444  3
   3228   3226   3229   3238     1  0.0000000  0.6508444  3
   3228   3226   3229   3230     1  0.0000000  0.6508444  3
   3228   3226   3229   3231     1  0.0000000  0.6508444  3
   3230   3229   3238   3247     1  0.0000000  1.0460000  1
   3230   3229   3238   3247     1  0.0000000  0.0000000  3
   3230   3229   3238   3239     1  0.0000000  0.6508444  3
   3230   3229   3238   3240     1  0.0000000  0.6508444  3
   3231   3229   3238   3247     1  0.0000000  1.0460000  1
   3231   3229   3238   3247     1  0.0000000  0.0000000  3
   3231   3229   3238   3239     1  0.0000000  0.6508444  3
   3231   3229   3238   3240     1  0.0000000  0.6508444  3
   3233   3232   3244   6553     1  0.0000000  1.0460000  1
   3233   3232   3244   6553     1  0.0000000  0.0000000  3
   3233   3232   3244   3245     1  0.0000000  0.6508444  3
   3233   3232   3244   3246     1  0.0000000  0.6508444  3
   3234   3232   3244   6553     1  0.0000000  1.0460000  1
   3234   3232   3244   6553     1  0.0000000  0.0000000  3
   3234   3232   3244   3245     1  0.0000000  0.6508444  3
   3234   3232   3244   3246     1  0.0000000  0.6508444  3
   3236   3235   3241   6524     1  0.0000000  1.0460000  1
   3236   3235   3241   6524     1  0.0000000  0.0000000  3
   3236   3235   3241   3242     1  0.0000000  0.6508444  3
   3236   3235   3241   3243     1  0.0000000  0.6508444  3
   3237   3235   3241   6524     1  0.0000000  1.0460000  1
   3237   3235   3241   6524     1  0.0000000  0.0000000  3
   3237   3235   3241   3242     1  0.0000000  0.6508444  3
   3237   3235   3241   3243     1  0.0000000  0.6508444  3
   3241   6524   6496   6497     1  0.0000000  1.6038667  3
   3241   6524   6496   6498     1  0.0000000  1.6038667  3
   3242   3241   6524   6496     1  0.0000000  1.6038667  3
   3243   3241   6524   6496     1  0.0000000  1.6038667  3
   3244   6553   6525   6526     1  0.0000000  1.6038667  3
   3244   6553   6525   6527     1  0.0000000  1.6038667  3
   3245   3244   6553   6525     1  0.0000000  1.6038667  3
   3246   3244   6553   6525     1  0.0000000  1.6038667  3
   3248   3249   3261   3262     1  0.0000000  0.6508444  3
   3248   3249   3261   3263     1  0.0000000  0.6508444  3
   3248   3252   3264   3265     1  0.0000000  0.6508444  3
   3248   3252   3264   3266     1  0.0000000  0.6508444  3
   3248   3255   3258   3259     1  0.0000000  0.6508444  3
   3248   3255   3258   3260     1  0.0000000  0.6508444  3
   3249   3248   3252   3253     1  0.0000000  1.2552000  3
   3249   3248   3252   3254     1  0.0000000  1.2552000  3
   3249   3248   3255   3256     1  0.0000000  1.2552000  3
   3249   3248   3255   3257     1  0.0000000  1.2552000  3
   3249   3261   3273   3274     1  0.0000000  0.6508444  3
   3249   3261   3273   3275     1  0.0000000  0.6508444  3
   3250   3249   3248   3252     1  0.0000000  1.2552000  3
   3250   3249   3248   3255     1  0.0000000  1.2552000  3
   3250   3249   3261   3273     1  0.0000000  0.6508444  3
   3250   3249   3261   3262     1  0.0000000  0.6508444  3
   3250   3249   3261   3263     1  0.0000000  0.6508444  3
   3251   3249   3248   3252     1  0.0000000  1.2552000  3
   3251   3249   3248   3255     1  0.0000000  1.2552000  3
   3251   3249   3261   3273     1  0.0000000  0.6508444  3
   3251   3249   3261   3262     1  0.0000000  0.6508444  3
   3251   3249   3261   3263     1  0.0000000  0.6508444  3
   3252   3248   3255   3256     1  0.0000000  1.2552000  3
   3252   3248   3255   3257     1  0.0000000  1.2552000  3
   3252   3264   3270   3271     1  0.0000000  0.6508444  3
   3252   3264   3270   3272     1  0.0000000  0.6508444  3
   3253   3252   3248   3255     1  0.0000000  1.2552000  3
   3253   3252   3264   3270     1  0.0000000  0.6508444  3
   3253   3252   3264   3265     1  0.0000000  0.6508444  3
   3253   3252   3264   3266     1  0.0000000  0.6508444  3
   3254   3252   3248   3255     1  0.0000000  1.2552000  3
   3254   3252   3264   3270     1  0.0000000  0.6508444  3
   3254   3252   3264   3265     1  0.0000000  0.6508444  3
   3254   3252   3264   3266     1  0.0000000  0.6508444  3
   3255   3258   3267   3268     1  0.0000000  0.6508444  3
   3255   3258   3267   3269     1  0.0000000  0.6508444  3
   3256   3255   3258   3267     1  0.0000000  0.6508444  3
   3256   3255   3258   3259     1  0.0000000  0.6508444  3
   3256   3255   3258   3260     1  0.0000000  0.6508444  3
   3257   3255   3258   3267     1  0.0000000  0.6508444  3
   3257   3255   3258   3259     1  0.0000000  0.6508444  3
   3257   3255   3258   3260     1  0.0000000  0.6508444  3
   3259   3258   3267   3276     1  0.0000000  1.0460000  1
   3259   3258   3267   3276     1  0.0000000  0.0000000  3
   3259   3258   3267   3268     1  0.0000000  0.6508444  3
   3259   3258   3267   3269     1  0.0000000  0.6508444  3
   3260   3258   3267   3276     1  0.0000000  1.0460000  1
   3260   3258   3267   3276     1  0.0000000  0.0000000  3
   3260   3258   3267   3268     1  0.0000000  0.6508444  3
   3260   3258   3267   3269     1  0.0000000  0.6508444  3
   3262   3261   3273   6611     1  0.0000000  1.0460000  1
   3262   3261   3273   6611     1  0.0000000  0.0000000  3
   3262   3261   3273   3274     1  0.0000000  0.6508444  3
   3262   3261   3273   3275     1  0.0000000  0.6508444  3
   3263   3261   3273   6611     1  0.0000000  1.0460000  1
   3263   3261   3273   6611     1  0.0000000  0.0000000  3
   3263   3261   3273   3274     1  0.0000000  0.6508444  3
   3263   3261   3273   3275     1  0.0000000  0.6508444  3
   3265   3264   3270   6582     1  0.0000000  1.0460000  1
   3265   3264   3270   6582     1  0.0000000  0.0000000  3
   3265   3264   3270   3271     1  0.0000000  0.6508444  3
   3265   3264   3270   3272     1  0.0000000  0.6508444  3
   3266   3264   3270   6582     1  0.0000000  1.0460000  1
   3266   3264   3270   6582     1  0.0000000  0.0000000  3
   3266   3264   3270   3271     1  0.0000000  0.6508444  3
   3266   3264   3270   3272     1  0.0000000  0.6508444  3
   3270   6582   6554   6555     1  0.0000000  1.6038667  3
   3270   6582   6554   6556     1  0.0000000  1.6038667  3
   3271   3270   6582   6554     1  0.0000000  1.6038667  3
   3272   3270   6582   6554     1  0.0000000  1.6038667  3
   3273   6611   6583   6584     1  0.0000000  1.6038667  3
   3273   6611   6583   6585     1  0.0000000  1.6038667  3
   3274   3273   6611   6583     1  0.0000000  1.6038667  3
   3275   3273   6611   6583     1  0.0000000  1.6038667  3
   3277   3278   3290   3291     1  0.0000000  0.6508444  3
   3277   3278   3290   3292     1  0.0000000  0.6508444  3
   3277   3281   3293   3294     1  0.0000000  0.6508444  3
   3277   3281   3293   3295     1  0.0000000  0.6508444  3
   3277   3284   3287   3288     1  0.0000000  0.6508444  3
   3277   3284   3287   3289     1  0.0000000  0.6508444  3
   3278   3277   3281   3282     1  0.0000000  1.2552000  3
   3278   3277   3281   3283     1  0.0000000  1.2552000  3
   3278   3277   3284   3285     1  0.0000000  1.2552000  3
   3278   3277   3284   3286     1  0.0000000  1.2552000  3
   3278   3290   3302   3303     1  0.0000000  0.6508444  3
   3278   3290   3302   3304     1  0.0000000  0.6508444  3
   3279   3278   3277   3281     1  0.0000000  1.2552000  3
   3279   3278   3277   3284     1  0.0000000  1.2552000  3
   3279   3278   3290   3302     1  0.0000000  0.6508444  3
   3279   3278   3290   3291     1  0.0000000  0.6508444  3
   3279   3278   3290   3292     1  0.0000000  0.6508444  3
   3280   3278   3277   3281     1  0.0000000  1.2552000  3
   3280   3278   3277   3284     1  0.0000000  1.2552000  3
   3280   3278   3290   3302     1  0.0000000  0.6508444  3
   3280   3278   3290   3291     1  0.0000000  0.6508444  3
   3280   3278   3290   3292     1  0.0000000  0.6508444  3
   3281   3277   3284   3285     1  0.0000000  1.2552000  3
   3281   3277   3284   3286     1  0.0000000  1.2552000  3
   3281   3293   3299   3300     1  0.0000000  0.6508444  3
   3281   3293   3299   3301     1  0.0000000  0.6508444  3
   3282   3281   3277   3284     1  0.0000000  1.2552000  3
   3282   3281   3293   3299     1  0.0000000  0.6508444  3
   3282   3281   3293   3294     1  0.0000000  0.6508444  3
   3282   3281   3293   3295     1  0.0000000  0.6508444  3
   3283   3281   3277   3284     1  0.0000000  1.2552000  3
   3283   3281   3293   3299     1  0.0000000  0.6508444  3
   3283   3281   3293   3294     1  0.0000000  0.6508444  3
   3283   3281   3293   3295     1  0.0000000  0.6508444  3
   3284   3287   3296   3297     1  0.0000000  0.6508444  3
   3284   3287   3296   3298     1  0.0000000  0.6508444  3
   3285   3284   3287   3296     1  0.0000000  0.6508444  3
   3285   3284   3287   3288     1  0.0000000  0.6508444  3
   3285   3284   3287   3289     1  0.0000000  0.6508444  3
   3286   3284   3287   3296     1  0.0000000  0.6508444  3
   3286   3284   3287   3288     1  0.0000000  0.6508444  3
   3286   3284   3287   3289     1  0.0000000  0.6508444  3
   3288   3287   3296   3305     1  0.0000000  1.0460000  1
   3288   3287   3296   3305     1  0.0000000  0.0000000  3
   3288   3287   3296   3297     1  0.0000000  0.6508444  3
   3288   3287   3296   3298     1  0.0000000  0.6508444  3
   3289   3287   3296   3305     1  0.0000000  1.0460000  1
   3289   3287   3296   3305     1  0.0000000  0.0000000  3
   3289   3287   3296   3297     1  0.0000000  0.6508444  3
   3289   3287   3296   3298     1  0.0000000  0.6508444  3
   3291   3290   3302   6669     1  0.0000000  1.0460000  1
   3291   3290   3302   6669     1  0.0000000  0.0000000  3
   3291   3290   3302   3303     1  0.0000000  0.6508444  3
   3291   3290   3302   3304     1  0.0000000  0.6508444  3
   3292   3290   3302   6669     1  0.0000000  1.0460000  1
   3292   3290   3302   6669     1  0.0000000  0.0000000  3
   3292   3290   3302   3303     1  0.0000000  0.6508444  3
   3292   3290   3302   3304     1  0.0000000  0.6508444  3
   3294   3293   3299   6640     1  0.0000000  1.0460000  1
   3294   3293   3299   6640     1  0.0000000  0.0000000  3
   3294   3293   3299   3300     1  0.0000000  0.6508444  3
   3294   3293   3299   3301     1  0.0000000  0.6508444  3
   3295   3293   3299   6640     1  0.0000000  1.0460000  1
   3295   3293   3299   6640     1  0.0000000  0.0000000  3
   3295   3293   3299   3300     1  0.0000000  0.6508444  3
   3295   3293   3299   3301     1  0.0000000  0.6508444  3
   3299   6640   6612   6613     1  0.0000000  1.6038667  3
   3299   6640   6612   6614     1  0.0000000  1.6038667  3
   3300   3299   6640   6612     1  0.0000000  1.6038667  3
   3301   3299   6640   6612     1  0.0000000  1.6038667  3
   3302   6669   6641   6642     1  0.0000000  1.6038667  3
   3302   6669   6641   6643     1  0.0000000  1.6038667  3
   3303   3302   6669   6641     1  0.0000000  1.6038667  3
   3304   3302   6669   6641     1  0.0000000  1.6038667  3
   3306   3307   3319   3320     1  0.0000000  0.6508444  3
   3306   3307   3319   3321     1  0.0000000  0.6508444  3
   3306   3310   3322   3323     1  0.0000000  0.6508444  3
   3306   3310   3322   3324     1  0.0000000  0.6508444  3
   3306   3313   3316   3317     1  0.0000000  0.6508444  3
   3306   3313   3316   3318     1  0.0000000  0.6508444  3
   3307   3306   3310   3311     1  0.0000000  1.2552000  3
   3307   3306   3310   3312     1  0.0000000  1.2552000  3
   3307   3306   3313   3314     1  0.0000000  1.2552000  3
   3307   3306   3313   3315     1  0.0000000  1.2552000  3
   3307   3319   3331   3332     1  0.0000000  0.6508444  3
   3307   3319   3331   3333     1  0.0000000  0.6508444  3
   3308   3307   3306   3310     1  0.0000000  1.2552000  3
   3308   3307   3306   3313     1  0.0000000  1.2552000  3
   3308   3307   3319   3331     1  0.0000000  0.6508444  3
   3308   3307   3319   3320     1  0.0000000  0.6508444  3
   3308   3307   3319   3321     1  0.0000000  0.6508444  3
   3309   3307   3306   3310     1  0.0000000  1.2552000  3
   3309   3307   3306   3313     1  0.0000000  1.2552000  3
   3309   3307   3319   3331     1  0.0000000  0.6508444  3
   3309   3307   3319   3320     1  0.0000000  0.6508444  3
   3309   3307   3319   3321     1  0.0000000  0.6508444  3
   3310   3306   3313   3314     1  0.0000000  1.2552000  3
   3310   3306   3313   3315     1  0.0000000  1.2552000  3
   3310   3322   3328   3329     1  0.0000000  0.6508444  3
   3310   3322   3328   3330     1  0.0000000  0.6508444  3
   3311   3310   3306   3313     1  0.0000000  1.2552000  3
   3311   3310   3322   3328     1  0.0000000  0.6508444  3
   3311   3310   3322   3323     1  0.0000000  0.6508444  3
   3311   3310   3322   3324     1  0.0000000  0.6508444  3
   3312   3310   3306   3313     1  0.0000000  1.2552000  3
   3312   3310   3322   3328     1  0.0000000  0.6508444  3
   3312   3310   3322   3323     1  0.0000000  0.6508444  3
   3312   3310   3322   3324     1  0.0000000  0.6508444  3
   3313   3316   3325   3326     1  0.0000000  0.6508444  3
   3313   3316   3325   3327     1  0.0000000  0.6508444  3
   3314   3313   3316   3325     1  0.0000000  0.6508444  3
   3314   3313   3316   3317     1  0.0000000  0.6508444  3
   3314   3313   3316   3318     1  0.0000000  0.6508444  3
   3315   3313   3316   3325     1  0.0000000  0.6508444  3
   3315   3313   3316   3317     1  0.0000000  0.6508444  3
   3315   3313   3316   3318     1  0.0000000  0.6508444  3
   3317   3316   3325   3334     1  0.0000000  1.0460000  1
   3317   3316   3325   3334     1  0.0000000  0.0000000  3
   3317   3316   3325   3326     1  0.0000000  0.6508444  3
   3317   3316   3325   3327     1  0.0000000  0.6508444  3
   3318   3316   3325   3334     1  0.0000000  1.0460000  1
   3318   3316   3325   3334     1  0.0000000  0.0000000  3
   3318   3316   3325   3326     1  0.0000000  0.6508444  3
   3318   3316   3325   3327     1  0.0000000  0.6508444  3
   3320   3319   3331   6727     1  0.0000000  1.0460000  1
   3320   3319   3331   6727     1  0.0000000  0.0000000  3
   3320   3319   3331   3332     1  0.0000000  0.6508444  3
   3320   3319   3331   3333     1  0.0000000  0.6508444  3
   3321   3319   3331   6727     1  0.0000000  1.0460000  1
   3321   3319   3331   6727     1  0.0000000  0.0000000  3
   3321   3319   3331   3332     1  0.0000000  0.6508444  3
   3321   3319   3331   3333     1  0.0000000  0.6508444  3
   3323   3322   3328   6698     1  0.0000000  1.0460000  1
   3323   3322   3328   6698     1  0.0000000  0.0000000  3
   3323   3322   3328   3329     1  0.0000000  0.6508444  3
   3323   3322   3328   3330     1  0.0000000  0.6508444  3
   3324   3322   3328   6698     1  0.0000000  1.0460000  1
   3324   3322   3328   6698     1  0.0000000  0.0000000  3
   3324   3322   3328   3329     1  0.0000000  0.6508444  3
   3324   3322   3328   3330     1  0.0000000  0.6508444  3
   3328   6698   6670   6671     1  0.0000000  1.6038667  3
   3328   6698   6670   6672     1  0.0000000  1.6038667  3
   3329   3328   6698   6670     1  0.0000000  1.6038667  3
   3330   3328   6698   6670     1  0.0000000  1.6038667  3
   3331   6727   6699   6700     1  0.0000000  1.6038667  3
   3331   6727   6699   6701     1  0.0000000  1.6038667  3
   3332   3331   6727   6699     1  0.0000000  1.6038667  3
   3333   3331   6727   6699     1  0.0000000  1.6038667  3
   3335   3336   3348   3349     1  0.0000000  0.6508444  3
   3335   3336   3348   3350     1  0.0000000  0.6508444  3
   3335   3339   3351   3352     1  0.0000000  0.6508444  3
   3335   3339   3351   3353     1  0.0000000  0.6508444  3
   3335   3342   3345   3346     1  0.0000000  0.6508444  3
   3335   3342   3345   3347     1  0.0000000  0.6508444  3
   3336   3335   3339   3340     1  0.0000000  1.2552000  3
   3336   3335   3339   3341     1  0.0000000  1.2552000  3
   3336   3335   3342   3343     1  0.0000000  1.2552000  3
   3336   3335   3342   3344     1  0.0000000  1.2552000  3
   3336   3348   3360   3361     1  0.0000000  0.6508444  3
   3336   3348   3360   3362     1  0.0000000  0.6508444  3
   3337   3336   3335   3339     1  0.0000000  1.2552000  3
   3337   3336   3335   3342     1  0.0000000  1.2552000  3
   3337   3336   3348   3360     1  0.0000000  0.6508444  3
   3337   3336   3348   3349     1  0.0000000  0.6508444  3
   3337   3336   3348   3350     1  0.0000000  0.6508444  3
   3338   3336   3335   3339     1  0.0000000  1.2552000  3
   3338   3336   3335   3342     1  0.0000000  1.2552000  3
   3338   3336   3348   3360     1  0.0000000  0.6508444  3
   3338   3336   3348   3349     1  0.0000000  0.6508444  3
   3338   3336   3348   3350     1  0.0000000  0.6508444  3
   3339   3335   3342   3343     1  0.0000000  1.2552000  3
   3339   3335   3342   3344     1  0.0000000  1.2552000  3
   3339   3351   3357   3358     1  0.0000000  0.6508444  3
   3339   3351   3357   3359     1  0.0000000  0.6508444  3
   3340   3339   3335   3342     1  0.0000000  1.2552000  3
   3340   3339   3351   3357     1  0.0000000  0.6508444  3
   3340   3339   3351   3352     1  0.0000000  0.6508444  3
   3340   3339   3351   3353     1  0.0000000  0.6508444  3
   3341   3339   3335   3342     1  0.0000000  1.2552000  3
   3341   3339   3351   3357     1  0.0000000  0.6508444  3
   3341   3339   3351   3352     1  0.0000000  0.6508444  3
   3341   3339   3351   3353     1  0.0000000  0.6508444  3
   3342   3345   3354   3355     1  0.0000000  0.6508444  3
   3342   3345   3354   3356     1  0.0000000  0.6508444  3
   3343   3342   3345   3354     1  0.0000000  0.6508444  3
   3343   3342   3345   3346     1  0.0000000  0.6508444  3
   3343   3342   3345   3347     1  0.0000000  0.6508444  3
   3344   3342   3345   3354     1  0.0000000  0.6508444  3
   3344   3342   3345   3346     1  0.0000000  0.6508444  3
   3344   3342   3345   3347     1  0.0000000  0.6508444  3
   3346   3345   3354   3363     1  0.0000000  1.0460000  1
   3346   3345   3354   3363     1  0.0000000  0.0000000  3
   3346   3345   3354   3355     1  0.0000000  0.6508444  3
   3346   3345   3354   3356     1  0.0000000  0.6508444  3
   3347   3345   3354   3363     1  0.0000000  1.0460000  1
   3347   3345   3354   3363     1  0.0000000  0.0000000  3
   3347   3345   3354   3355     1  0.0000000  0.6508444  3
   3347   3345   3354   3356     1  0.0000000  0.6508444  3
   3349   3348   3360   6785     1  0.0000000  1.0460000  1
   3349   3348   3360   6785     1  0.0000000  0.0000000  3
   3349   3348   3360   3361     1  0.0000000  0.6508444  3
   3349   3348   3360   3362     1  0.0000000  0.6508444  3
   3350   3348   3360   6785     1  0.0000000  1.0460000  1
   3350   3348   3360   6785     1  0.0000000  0.0000000  3
   3350   3348   3360   3361     1  0.0000000  0.6508444  3
   3350   3348   3360   3362     1  0.0000000  0.6508444  3
   3352   3351   3357   6756     1  0.0000000  1.0460000  1
   3352   3351   3357   6756     1  0.0000000  0.0000000  3
   3352   3351   3357   3358     1  0.0000000  0.6508444  3
   3352   3351   3357   3359     1  0.0000000  0.6508444  3
   3353   3351   3357   6756     1  0.0000000  1.0460000  1
   3353   3351   3357   6756     1  0.0000000  0.0000000  3
   3353   3351   3357   3358     1  0.0000000  0.6508444  3
   3353   3351   3357   3359     1  0.0000000  0.6508444  3
   3357   6756   6728   6729     1  0.0000000  1.6038667  3
   3357   6756   6728   6730     1  0.0000000  1.6038667  3
   3358   3357   6756   6728     1  0.0000000  1.6038667  3
   3359   3357   6756   6728     1  0.0000000  1.6038667  3
   3360   6785   6757   6758     1  0.0000000  1.6038667  3
   3360   6785   6757   6759     1  0.0000000  1.6038667  3
   3361   3360   6785   6757     1  0.0000000  1.6038667  3
   3362   3360   6785   6757     1  0.0000000  1.6038667  3
   3364   3365   3377   3378     1  0.0000000  0.6508444  3
   3364   3365   3377   3379     1  0.0000000  0.6508444  3
   3364   3368   3380   3381     1  0.0000000  0.6508444  3
   3364   3368   3380   3382     1  0.0000000  0.6508444  3
   3364   3371   3374   3375     1  0.0000000  0.6508444  3
   3364   3371   3374   3376     1  0.0000000  0.6508444  3
   3365   3364   3368   3369     1  0.0000000  1.2552000  3
   3365   3364   3368   3370     1  0.0000000  1.2552000  3
   3365   3364   3371   3372     1  0.0000000  1.2552000  3
   3365   3364   3371   3373     1  0.0000000  1.2552000  3
   3365   3377   3389   3390     1  0.0000000  0.6508444  3
   3365   3377   3389   3391     1  0.0000000  0.6508444  3
   3366   3365   3364   3368     1  0.0000000  1.2552000  3
   3366   3365   3364   3371     1  0.0000000  1.2552000  3
   3366   3365   3377   3389     1  0.0000000  0.6508444  3
   3366   3365   3377   3378     1  0.0000000  0.6508444  3
   3366   3365   3377   3379     1  0.0000000  0.6508444  3
   3367   3365   3364   3368     1  0.0000000  1.2552000  3
   3367   3365   3364   3371     1  0.0000000  1.2552000  3
   3367   3365   3377   3389     1  0.0000000  0.6508444  3
   3367   3365   3377   3378     1  0.0000000  0.6508444  3
   3367   3365   3377   3379     1  0.0000000  0.6508444  3
   3368   3364   3371   3372     1  0.0000000  1.2552000  3
   3368   3364   3371   3373     1  0.0000000  1.2552000  3
   3368   3380   3386   3387     1  0.0000000  0.6508444  3
   3368   3380   3386   3388     1  0.0000000  0.6508444  3
   3369   3368   3364   3371     1  0.0000000  1.2552000  3
   3369   3368   3380   3386     1  0.0000000  0.6508444  3
   3369   3368   3380   3381     1  0.0000000  0.6508444  3
   3369   3368   3380   3382     1  0.0000000  0.6508444  3
   3370   3368   3364   3371     1  0.0000000  1.2552000  3
   3370   3368   3380   3386     1  0.0000000  0.6508444  3
   3370   3368   3380   3381     1  0.0000000  0.6508444  3
   3370   3368   3380   3382     1  0.0000000  0.6508444  3
   3371   3374   3383   3384     1  0.0000000  0.6508444  3
   3371   3374   3383   3385     1  0.0000000  0.6508444  3
   3372   3371   3374   3383     1  0.0000000  0.6508444  3
   3372   3371   3374   3375     1  0.0000000  0.6508444  3
   3372   3371   3374   3376     1  0.0000000  0.6508444  3
   3373   3371   3374   3383     1  0.0000000  0.6508444  3
   3373   3371   3374   3375     1  0.0000000  0.6508444  3
   3373   3371   3374   3376     1  0.0000000  0.6508444  3
   3375   3374   3383   3392     1  0.0000000  1.0460000  1
   3375   3374   3383   3392     1  0.0000000  0.0000000  3
   3375   3374   3383   3384     1  0.0000000  0.6508444  3
   3375   3374   3383   3385     1  0.0000000  0.6508444  3
   3376   3374   3383   3392     1  0.0000000  1.0460000  1
   3376   3374   3383   3392     1  0.0000000  0.0000000  3
   3376   3374   3383   3384     1  0.0000000  0.6508444  3
   3376   3374   3383   3385     1  0.0000000  0.6508444  3
   3378   3377   3389   6843     1  0.0000000  1.0460000  1
   3378   3377   3389   6843     1  0.0000000  0.0000000  3
   3378   3377   3389   3390     1  0.0000000  0.6508444  3
   3378   3377   3389   3391     1  0.0000000  0.6508444  3
   3379   3377   3389   6843     1  0.0000000  1.0460000  1
   3379   3377   3389   6843     1  0.0000000  0.0000000  3
   3379   3377   3389   3390     1  0.0000000  0.6508444  3
   3379   3377   3389   3391     1  0.0000000  0.6508444  3
   3381   3380   3386   6814     1  0.0000000  1.0460000  1
   3381   3380   3386   6814     1  0.0000000  0.0000000  3
   3381   3380   3386   3387     1  0.0000000  0.6508444  3
   3381   3380   3386   3388     1  0.0000000  0.6508444  3
   3382   3380   3386   6814     1  0.0000000  1.0460000  1
   3382   3380   3386   6814     1  0.0000000  0.0000000  3
   3382   3380   3386   3387     1  0.0000000  0.6508444  3
   3382   3380   3386   3388     1  0.0000000  0.6508444  3
   3386   6814   6786   6787     1  0.0000000  1.6038667  3
   3386   6814   6786   6788     1  0.0000000  1.6038667  3
   3387   3386   6814   6786     1  0.0000000  1.6038667  3
   3388   3386   6814   6786     1  0.0000000  1.6038667  3
   3389   6843   6815   6816     1  0.0000000  1.6038667  3
   3389   6843   6815   6817     1  0.0000000  1.6038667  3
   3390   3389   6843   6815     1  0.0000000  1.6038667  3
   3391   3389   6843   6815     1  0.0000000  1.6038667  3
   3393   3394   3406   3407     1  0.0000000  0.6508444  3
   3393   3394   3406   3408     1  0.0000000  0.6508444  3
   3393   3397   3409   3410     1  0.0000000  0.6508444  3
   3393   3397   3409   3411     1  0.0000000  0.6508444  3
   3393   3400   3403   3404     1  0.0000000  0.6508444  3
   3393   3400   3403   3405     1  0.0000000  0.6508444  3
   3394   3393   3397   3398     1  0.0000000  1.2552000  3
   3394   3393   3397   3399     1  0.0000000  1.2552000  3
   3394   3393   3400   3401     1  0.0000000  1.2552000  3
   3394   3393   3400   3402     1  0.0000000  1.2552000  3
   3394   3406   3418   3419     1  0.0000000  0.6508444  3
   3394   3406   3418   3420     1  0.0000000  0.6508444  3
   3395   3394   3393   3397     1  0.0000000  1.2552000  3
   3395   3394   3393   3400     1  0.0000000  1.2552000  3
   3395   3394   3406   3418     1  0.0000000  0.6508444  3
   3395   3394   3406   3407     1  0.0000000  0.6508444  3
   3395   3394   3406   3408     1  0.0000000  0.6508444  3
   3396   3394   3393   3397     1  0.0000000  1.2552000  3
   3396   3394   3393   3400     1  0.0000000  1.2552000  3
   3396   3394   3406   3418     1  0.0000000  0.6508444  3
   3396   3394   3406   3407     1  0.0000000  0.6508444  3
   3396   3394   3406   3408     1  0.0000000  0.6508444  3
   3397   3393   3400   3401     1  0.0000000  1.2552000  3
   3397   3393   3400   3402     1  0.0000000  1.2552000  3
   3397   3409   3415   3416     1  0.0000000  0.6508444  3
   3397   3409   3415   3417     1  0.0000000  0.6508444  3
   3398   3397   3393   3400     1  0.0000000  1.2552000  3
   3398   3397   3409   3415     1  0.0000000  0.6508444  3
   3398   3397   3409   3410     1  0.0000000  0.6508444  3
   3398   3397   3409   3411     1  0.0000000  0.6508444  3
   3399   3397   3393   3400     1  0.0000000  1.2552000  3
   3399   3397   3409   3415     1  0.0000000  0.6508444  3
   3399   3397   3409   3410     1  0.0000000  0.6508444  3
   3399   3397   3409   3411     1  0.0000000  0.6508444  3
   3400   3403   3412   3413     1  0.0000000  0.6508444  3
   3400   3403   3412   3414     1  0.0000000  0.6508444  3
   3401   3400   3403   3412     1  0.0000000  0.6508444  3
   3401   3400   3403   3404     1  0.0000000  0.6508444  3
   3401   3400   3403   3405     1  0.0000000  0.6508444  3
   3402   3400   3403   3412     1  0.0000000  0.6508444  3
   3402   3400   3403   3404     1  0.0000000  0.6508444  3
   3402   3400   3403   3405     1  0.0000000  0.6508444  3
   3404   3403   3412   3421     1  0.0000000  1.0460000  1
   3404   3403   3412   3421     1  0.0000000  0.0000000  3
   3404   3403   3412   3413     1  0.0000000  0.6508444  3
   3404   3403   3412   3414     1  0.0000000  0.6508444  3
   3405   3403   3412   3421     1  0.0000000  1.0460000  1
   3405   3403   3412   3421     1  0.0000000  0.0000000  3
   3405   3403   3412   3413     1  0.0000000  0.6508444  3
   3405   3403   3412   3414     1  0.0000000  0.6508444  3
   3407   3406   3418   6901     1  0.0000000  1.0460000  1
   3407   3406   3418   6901     1  0.0000000  0.0000000  3
   3407   3406   3418   3419     1  0.0000000  0.6508444  3
   3407   3406   3418   3420     1  0.0000000  0.6508444  3
   3408   3406   3418   6901     1  0.0000000  1.0460000  1
   3408   3406   3418   6901     1  0.0000000  0.0000000  3
   3408   3406   3418   3419     1  0.0000000  0.6508444  3
   3408   3406   3418   3420     1  0.0000000  0.6508444  3
   3410   3409   3415   6872     1  0.0000000  1.0460000  1
   3410   3409   3415   6872     1  0.0000000  0.0000000  3
   3410   3409   3415   3416     1  0.0000000  0.6508444  3
   3410   3409   3415   3417     1  0.0000000  0.6508444  3
   3411   3409   3415   6872     1  0.0000000  1.0460000  1
   3411   3409   3415   6872     1  0.0000000  0.0000000  3
   3411   3409   3415   3416     1  0.0000000  0.6508444  3
   3411   3409   3415   3417     1  0.0000000  0.6508444  3
   3415   6872   6844   6845     1  0.0000000  1.6038667  3
   3415   6872   6844   6846     1  0.0000000  1.6038667  3
   3416   3415   6872   6844     1  0.0000000  1.6038667  3
   3417   3415   6872   6844     1  0.0000000  1.6038667  3
   3418   6901   6873   6874     1  0.0000000  1.6038667  3
   3418   6901   6873   6875     1  0.0000000  1.6038667  3
   3419   3418   6901   6873     1  0.0000000  1.6038667  3
   3420   3418   6901   6873     1  0.0000000  1.6038667  3
   3422   3423   3435   3436     1  0.0000000  0.6508444  3
   3422   3423   3435   3437     1  0.0000000  0.6508444  3
   3422   3426   3438   3439     1  0.0000000  0.6508444  3
   3422   3426   3438   3440     1  0.0000000  0.6508444  3
   3422   3429   3432   3433     1  0.0000000  0.6508444  3
   3422   3429   3432   3434     1  0.0000000  0.6508444  3
   3423   3422   3426   3427     1  0.0000000  1.2552000  3
   3423   3422   3426   3428     1  0.0000000  1.2552000  3
   3423   3422   3429   3430     1  0.0000000  1.2552000  3
   3423   3422   3429   3431     1  0.0000000  1.2552000  3
   3423   3435   3447   3448     1  0.0000000  0.6508444  3
   3423   3435   3447   3449     1  0.0000000  0.6508444  3
   3424   3423   3422   3426     1  0.0000000  1.2552000  3
   3424   3423   3422   3429     1  0.0000000  1.2552000  3
   3424   3423   3435   3447     1  0.0000000  0.6508444  3
   3424   3423   3435   3436     1  0.0000000  0.6508444  3
   3424   3423   3435   3437     1  0.0000000  0.6508444  3
   3425   3423   3422   3426     1  0.0000000  1.2552000  3
   3425   3423   3422   3429     1  0.0000000  1.2552000  3
   3425   3423   3435   3447     1  0.0000000  0.6508444  3
   3425   3423   3435   3436     1  0.0000000  0.6508444  3
   3425   3423   3435   3437     1  0.0000000  0.6508444  3
   3426   3422   3429   3430     1  0.0000000  1.2552000  3
   3426   3422   3429   3431     1  0.0000000  1.2552000  3
   3426   3438   3444   3445     1  0.0000000  0.6508444  3
   3426   3438   3444   3446     1  0.0000000  0.6508444  3
   3427   3426   3422   3429     1  0.0000000  1.2552000  3
   3427   3426   3438   3444     1  0.0000000  0.6508444  3
   3427   3426   3438   3439     1  0.0000000  0.6508444  3
   3427   3426   3438   3440     1  0.0000000  0.6508444  3
   3428   3426   3422   3429     1  0.0000000  1.2552000  3
   3428   3426   3438   3444     1  0.0000000  0.6508444  3
   3428   3426   3438   3439     1  0.0000000  0.6508444  3
   3428   3426   3438   3440     1  0.0000000  0.6508444  3
   3429   3432   3441   3442     1  0.0000000  0.6508444  3
   3429   3432   3441   3443     1  0.0000000  0.6508444  3
   3430   3429   3432   3441     1  0.0000000  0.6508444  3
   3430   3429   3432   3433     1  0.0000000  0.6508444  3
   3430   3429   3432   3434     1  0.0000000  0.6508444  3
   3431   3429   3432   3441     1  0.0000000  0.6508444  3
   3431   3429   3432   3433     1  0.0000000  0.6508444  3
   3431   3429   3432   3434     1  0.0000000  0.6508444  3
   3433   3432   3441   3450     1  0.0000000  1.0460000  1
   3433   3432   3441   3450     1  0.0000000  0.0000000  3
   3433   3432   3441   3442     1  0.0000000  0.6508444  3
   3433   3432   3441   3443     1  0.0000000  0.6508444  3
   3434   3432   3441   3450     1  0.0000000  1.0460000  1
   3434   3432   3441   3450     1  0.0000000  0.0000000  3
   3434   3432   3441   3442     1  0.0000000  0.6508444  3
   3434   3432   3441   3443     1  0.0000000  0.6508444  3
   3436   3435   3447   6959     1  0.0000000  1.0460000  1
   3436   3435   3447   6959     1  0.0000000  0.0000000  3
   3436   3435   3447   3448     1  0.0000000  0.6508444  3
   3436   3435   3447   3449     1  0.0000000  0.6508444  3
   3437   3435   3447   6959     1  0.0000000  1.0460000  1
   3437   3435   3447   6959     1  0.0000000  0.0000000  3
   3437   3435   3447   3448     1  0.0000000  0.6508444  3
   3437   3435   3447   3449     1  0.0000000  0.6508444  3
   3439   3438   3444   6930     1  0.0000000  1.0460000  1
   3439   3438   3444   6930     1  0.0000000  0.0000000  3
   3439   3438   3444   3445     1  0.0000000  0.6508444  3
   3439   3438   3444   3446     1  0.0000000  0.6508444  3
   3440   3438   3444   6930     1  0.0000000  1.0460000  1
   3440   3438   3444   6930     1  0.0000000  0.0000000  3
   3440   3438   3444   3445     1  0.0000000  0.6508444  3
   3440   3438   3444   3446     1  0.0000000  0.6508444  3
   3444   6930   6902   6903     1  0.0000000  1.6038667  3
   3444   6930   6902   6904     1  0.0000000  1.6038667  3
   3445   3444   6930   6902     1  0.0000000  1.6038667  3
   3446   3444   6930   6902     1  0.0000000  1.6038667  3
   3447   6959   6931   6932     1  0.0000000  1.6038667  3
   3447   6959   6931   6933     1  0.0000000  1.6038667  3
   3448   3447   6959   6931     1  0.0000000  1.6038667  3
   3449   3447   6959   6931     1  0.0000000  1.6038667  3
   3451   3452   3464   3465     1  0.0000000  0.6508444  3
   3451   3452   3464   3466     1  0.0000000  0.6508444  3
   3451   3455   3467   3468     1  0.0000000  0.6508444  3
   3451   3455   3467   3469     1  0.0000000  0.6508444  3
   3451   3458   3461   3462     1  0.0000000  0.6508444  3
   3451   3458   3461   3463     1  0.0000000  0.6508444  3
   3452   3451   3455   3456     1  0.0000000  1.2552000  3
   3452   3451   3455   3457     1  0.0000000  1.2552000  3
   3452   3451   3458   3459     1  0.0000000  1.2552000  3
   3452   3451   3458   3460     1  0.0000000  1.2552000  3
   3452   3464   3476   3477     1  0.0000000  0.6508444  3
   3452   3464   3476   3478     1  0.0000000  0.6508444  3
   3453   3452   3451   3455     1  0.0000000  1.2552000  3
   3453   3452   3451   3458     1  0.0000000  1.2552000  3
   3453   3452   3464   3476     1  0.0000000  0.6508444  3
   3453   3452   3464   3465     1  0.0000000  0.6508444  3
   3453   3452   3464   3466     1  0.0000000  0.6508444  3
   3454   3452   3451   3455     1  0.0000000  1.2552000  3
   3454   3452   3451   3458     1  0.0000000  1.2552000  3
   3454   3452   3464   3476     1  0.0000000  0.6508444  3
   3454   3452   3464   3465     1  0.0000000  0.6508444  3
   3454   3452   3464   3466     1  0.0000000  0.6508444  3
   3455   3451   3458   3459     1  0.0000000  1.2552000  3
   3455   3451   3458   3460     1  0.0000000  1.2552000  3
   3455   3467   3473   3474     1  0.0000000  0.6508444  3
   3455   3467   3473   3475     1  0.0000000  0.6508444  3
   3456   3455   3451   3458     1  0.0000000  1.2552000  3
   3456   3455   3467   3473     1  0.0000000  0.6508444  3
   3456   3455   3467   3468     1  0.0000000  0.6508444  3
   3456   3455   3467   3469     1  0.0000000  0.6508444  3
   3457   3455   3451   3458     1  0.0000000  1.2552000  3
   3457   3455   3467   3473     1  0.0000000  0.6508444  3
   3457   3455   3467   3468     1  0.0000000  0.6508444  3
   3457   3455   3467   3469     1  0.0000000  0.6508444  3
   3458   3461   3470   3471     1  0.0000000  0.6508444  3
   3458   3461   3470   3472     1  0.0000000  0.6508444  3
   3459   3458   3461   3470     1  0.0000000  0.6508444  3
   3459   3458   3461   3462     1  0.0000000  0.6508444  3
   3459   3458   3461   3463     1  0.0000000  0.6508444  3
   3460   3458   3461   3470     1  0.0000000  0.6508444  3
   3460   3458   3461   3462     1  0.0000000  0.6508444  3
   3460   3458   3461   3463     1  0.0000000  0.6508444  3
   3462   3461   3470   3479     1  0.0000000  1.0460000  1
   3462   3461   3470   3479     1  0.0000000  0.0000000  3
   3462   3461   3470   3471     1  0.0000000  0.6508444  3
   3462   3461   3470   3472     1  0.0000000  0.6508444  3
   3463   3461   3470   3479     1  0.0000000  1.0460000  1
   3463   3461   3470   3479     1  0.0000000  0.0000000  3
   3463   3461   3470   3471     1  0.0000000  0.6508444  3
   3463   3461   3470   3472     1  0.0000000  0.6508444  3
   3465   3464   3476   7017     1  0.0000000  1.0460000  1
   3465   3464   3476   7017     1  0.0000000  0.0000000  3
   3465   3464   3476   3477     1  0.0000000  0.6508444  3
   3465   3464   3476   3478     1  0.0000000  0.6508444  3
   3466   3464   3476   7017     1  0.0000000  1.0460000  1
   3466   3464   3476   7017     1  0.0000000  0.0000000  3
   3466   3464   3476   3477     1  0.0000000  0.6508444  3
   3466   3464   3476   3478     1  0.0000000  0.6508444  3
   3468   3467   3473   6988     1  0.0000000  1.0460000  1
   3468   3467   3473   6988     1  0.0000000  0.0000000  3
   3468   3467   3473   3474     1  0.0000000  0.6508444  3
   3468   3467   3473   3475     1  0.0000000  0.6508444  3
   3469   3467   3473   6988     1  0.0000000  1.0460000  1
   3469   3467   3473   6988     1  0.0000000  0.0000000  3
   3469   3467   3473   3474     1  0.0000000  0.6508444  3
   3469   3467   3473   3475     1  0.0000000  0.6508444  3
   3473   6988   6960   6961     1  0.0000000  1.6038667  3
   3473   6988   6960   6962     1  0.0000000  1.6038667  3
   3474   3473   6988   6960     1  0.0000000  1.6038667  3
   3475   3473   6988   6960     1  0.0000000  1.6038667  3
   3476   7017   6989   6990     1  0.0000000  1.6038667  3
   3476   7017   6989   6991     1  0.0000000  1.6038667  3
   3477   3476   7017   6989     1  0.0000000  1.6038667  3
   3478   3476   7017   6989     1  0.0000000  1.6038667  3
   3480   3481   3493   3494     1  0.0000000  0.6508444  3
   3480   3481   3493   3495     1  0.0000000  0.6508444  3
   3480   3484   3496   3497     1  0.0000000  0.6508444  3
   3480   3484   3496   3498     1  0.0000000  0.6508444  3
   3480   3487   3490   3491     1  0.0000000  0.6508444  3
   3480   3487   3490   3492     1  0.0000000  0.6508444  3
   3481   3480   3484   3485     1  0.0000000  1.2552000  3
   3481   3480   3484   3486     1  0.0000000  1.2552000  3
   3481   3480   3487   3488     1  0.0000000  1.2552000  3
   3481   3480   3487   3489     1  0.0000000  1.2552000  3
   3481   3493   3505   3506     1  0.0000000  0.6508444  3
   3481   3493   3505   3507     1  0.0000000  0.6508444  3
   3482   3481   3480   3484     1  0.0000000  1.2552000  3
   3482   3481   3480   3487     1  0.0000000  1.2552000  3
   3482   3481   3493   3505     1  0.0000000  0.6508444  3
   3482   3481   3493   3494     1  0.0000000  0.6508444  3
   3482   3481   3493   3495     1  0.0000000  0.6508444  3
   3483   3481   3480   3484     1  0.0000000  1.2552000  3
   3483   3481   3480   3487     1  0.0000000  1.2552000  3
   3483   3481   3493   3505     1  0.0000000  0.6508444  3
   3483   3481   3493   3494     1  0.0000000  0.6508444  3
   3483   3481   3493   3495     1  0.0000000  0.6508444  3
   3484   3480   3487   3488     1  0.0000000  1.2552000  3
   3484   3480   3487   3489     1  0.0000000  1.2552000  3
   3484   3496   3502   3503     1  0.0000000  0.6508444  3
   3484   3496   3502   3504     1  0.0000000  0.6508444  3
   3485   3484   3480   3487     1  0.0000000  1.2552000  3
   3485   3484   3496   3502     1  0.0000000  0.6508444  3
   3485   3484   3496   3497     1  0.0000000  0.6508444  3
   3485   3484   3496   3498     1  0.0000000  0.6508444  3
   3486   3484   3480   3487     1  0.0000000  1.2552000  3
   3486   3484   3496   3502     1  0.0000000  0.6508444  3
   3486   3484   3496   3497     1  0.0000000  0.6508444  3
   3486   3484   3496   3498     1  0.0000000  0.6508444  3
   3487   3490   3499   3500     1  0.0000000  0.6508444  3
   3487   3490   3499   3501     1  0.0000000  0.6508444  3
   3488   3487   3490   3499     1  0.0000000  0.6508444  3
   3488   3487   3490   3491     1  0.0000000  0.6508444  3
   3488   3487   3490   3492     1  0.0000000  0.6508444  3
   3489   3487   3490   3499     1  0.0000000  0.6508444  3
   3489   3487   3490   3491     1  0.0000000  0.6508444  3
   3489   3487   3490   3492     1  0.0000000  0.6508444  3
   3491   3490   3499   3508     1  0.0000000  1.0460000  1
   3491   3490   3499   3508     1  0.0000000  0.0000000  3
   3491   3490   3499   3500     1  0.0000000  0.6508444  3
   3491   3490   3499   3501     1  0.0000000  0.6508444  3
   3492   3490   3499   3508     1  0.0000000  1.0460000  1
   3492   3490   3499   3508     1  0.0000000  0.0000000  3
   3492   3490   3499   3500     1  0.0000000  0.6508444  3
   3492   3490   3499   3501     1  0.0000000  0.6508444  3
   3494   3493   3505   7075     1  0.0000000  1.0460000  1
   3494   3493   3505   7075     1  0.0000000  0.0000000  3
   3494   3493   3505   3506     1  0.0000000  0.6508444  3
   3494   3493   3505   3507     1  0.0000000  0.6508444  3
   3495   3493   3505   7075     1  0.0000000  1.0460000  1
   3495   3493   3505   7075     1  0.0000000  0.0000000  3
   3495   3493   3505   3506     1  0.0000000  0.6508444  3
   3495   3493   3505   3507     1  0.0000000  0.6508444  3
   3497   3496   3502   7046     1  0.0000000  1.0460000  1
   3497   3496   3502   7046     1  0.0000000  0.0000000  3
   3497   3496   3502   3503     1  0.0000000  0.6508444  3
   3497   3496   3502   3504     1  0.0000000  0.6508444  3
   3498   3496   3502   7046     1  0.0000000  1.0460000  1
   3498   3496   3502   7046     1  0.0000000  0.0000000  3
   3498   3496   3502   3503     1  0.0000000  0.6508444  3
   3498   3496   3502   3504     1  0.0000000  0.6508444  3
   3502   7046   7018   7019     1  0.0000000  1.6038667  3
   3502   7046   7018   7020     1  0.0000000  1.6038667  3
   3503   3502   7046   7018     1  0.0000000  1.6038667  3
   3504   3502   7046   7018     1  0.0000000  1.6038667  3
   3505   7075   7047   7048     1  0.0000000  1.6038667  3
   3505   7075   7047   7049     1  0.0000000  1.6038667  3
   3506   3505   7075   7047     1  0.0000000  1.6038667  3
   3507   3505   7075   7047     1  0.0000000  1.6038667  3
   3509   3510   3522   3523     1  0.0000000  0.6508444  3
   3509   3510   3522   3524     1  0.0000000  0.6508444  3
   3509   3513   3525   3526     1  0.0000000  0.6508444  3
   3509   3513   3525   3527     1  0.0000000  0.6508444  3
   3509   3516   3519   3520     1  0.0000000  0.6508444  3
   3509   3516   3519   3521     1  0.0000000  0.6508444  3
   3510   3509   3513   3514     1  0.0000000  1.2552000  3
   3510   3509   3513   3515     1  0.0000000  1.2552000  3
   3510   3509   3516   3517     1  0.0000000  1.2552000  3
   3510   3509   3516   3518     1  0.0000000  1.2552000  3
   3510   3522   3534   3535     1  0.0000000  0.6508444  3
   3510   3522   3534   3536     1  0.0000000  0.6508444  3
   3511   3510   3509   3513     1  0.0000000  1.2552000  3
   3511   3510   3509   3516     1  0.0000000  1.2552000  3
   3511   3510   3522   3534     1  0.0000000  0.6508444  3
   3511   3510   3522   3523     1  0.0000000  0.6508444  3
   3511   3510   3522   3524     1  0.0000000  0.6508444  3
   3512   3510   3509   3513     1  0.0000000  1.2552000  3
   3512   3510   3509   3516     1  0.0000000  1.2552000  3
   3512   3510   3522   3534     1  0.0000000  0.6508444  3
   3512   3510   3522   3523     1  0.0000000  0.6508444  3
   3512   3510   3522   3524     1  0.0000000  0.6508444  3
   3513   3509   3516   3517     1  0.0000000  1.2552000  3
   3513   3509   3516   3518     1  0.0000000  1.2552000  3
   3513   3525   3531   3532     1  0.0000000  0.6508444  3
   3513   3525   3531   3533     1  0.0000000  0.6508444  3
   3514   3513   3509   3516     1  0.0000000  1.2552000  3
   3514   3513   3525   3531     1  0.0000000  0.6508444  3
   3514   3513   3525   3526     1  0.0000000  0.6508444  3
   3514   3513   3525   3527     1  0.0000000  0.6508444  3
   3515   3513   3509   3516     1  0.0000000  1.2552000  3
   3515   3513   3525   3531     1  0.0000000  0.6508444  3
   3515   3513   3525   3526     1  0.0000000  0.6508444  3
   3515   3513   3525   3527     1  0.0000000  0.6508444  3
   3516   3519   3528   3529     1  0.0000000  0.6508444  3
   3516   3519   3528   3530     1  0.0000000  0.6508444  3
   3517   3516   3519   3528     1  0.0000000  0.6508444  3
   3517   3516   3519   3520     1  0.0000000  0.6508444  3
   3517   3516   3519   3521     1  0.0000000  0.6508444  3
   3518   3516   3519   3528     1  0.0000000  0.6508444  3
   3518   3516   3519   3520     1  0.0000000  0.6508444  3
   3518   3516   3519   3521     1  0.0000000  0.6508444  3
   3520   3519   3528   3537     1  0.0000000  1.0460000  1
   3520   3519   3528   3537     1  0.0000000  0.0000000  3
   3520   3519   3528   3529     1  0.0000000  0.6508444  3
   3520   3519   3528   3530     1  0.0000000  0.6508444  3
   3521   3519   3528   3537     1  0.0000000  1.0460000  1
   3521   3519   3528   3537     1  0.0000000  0.0000000  3
   3521   3519   3528   3529     1  0.0000000  0.6508444  3
   3521   3519   3528   3530     1  0.0000000  0.6508444  3
   3523   3522   3534   7133     1  0.0000000  1.0460000  1
   3523   3522   3534   7133     1  0.0000000  0.0000000  3
   3523   3522   3534   3535     1  0.0000000  0.6508444  3
   3523   3522   3534   3536     1  0.0000000  0.6508444  3
   3524   3522   3534   7133     1  0.0000000  1.0460000  1
   3524   3522   3534   7133     1  0.0000000  0.0000000  3
   3524   3522   3534   3535     1  0.0000000  0.6508444  3
   3524   3522   3534   3536     1  0.0000000  0.6508444  3
   3526   3525   3531   7104     1  0.0000000  1.0460000  1
   3526   3525   3531   7104     1  0.0000000  0.0000000  3
   3526   3525   3531   3532     1  0.0000000  0.6508444  3
   3526   3525   3531   3533     1  0.0000000  0.6508444  3
   3527   3525   3531   7104     1  0.0000000  1.0460000  1
   3527   3525   3531   7104     1  0.0000000  0.0000000  3
   3527   3525   3531   3532     1  0.0000000  0.6508444  3
   3527   3525   3531   3533     1  0.0000000  0.6508444  3
   3531   7104   7076   7077     1  0.0000000  1.6038667  3
   3531   7104   7076   7078     1  0.0000000  1.6038667  3
   3532   3531   7104   7076     1  0.0000000  1.6038667  3
   3533   3531   7104   7076     1  0.0000000  1.6038667  3
   3534   7133   7105   7106     1  0.0000000  1.6038667  3
   3534   7133   7105   7107     1  0.0000000  1.6038667  3
   3535   3534   7133   7105     1  0.0000000  1.6038667  3
   3536   3534   7133   7105     1  0.0000000  1.6038667  3
   3538   3539   3551   3552     1  0.0000000  0.6508444  3
   3538   3539   3551   3553     1  0.0000000  0.6508444  3
   3538   3542   3554   3555     1  0.0000000  0.6508444  3
   3538   3542   3554   3556     1  0.0000000  0.6508444  3
   3538   3545   3548   3549     1  0.0000000  0.6508444  3
   3538   3545   3548   3550     1  0.0000000  0.6508444  3
   3539   3538   3542   3543     1  0.0000000  1.2552000  3
   3539   3538   3542   3544     1  0.0000000  1.2552000  3
   3539   3538   3545   3546     1  0.0000000  1.2552000  3
   3539   3538   3545   3547     1  0.0000000  1.2552000  3
   3539   3551   3563   3564     1  0.0000000  0.6508444  3
   3539   3551   3563   3565     1  0.0000000  0.6508444  3
   3540   3539   3538   3542     1  0.0000000  1.2552000  3
   3540   3539   3538   3545     1  0.0000000  1.2552000  3
   3540   3539   3551   3563     1  0.0000000  0.6508444  3
   3540   3539   3551   3552     1  0.0000000  0.6508444  3
   3540   3539   3551   3553     1  0.0000000  0.6508444  3
   3541   3539   3538   3542     1  0.0000000  1.2552000  3
   3541   3539   3538   3545     1  0.0000000  1.2552000  3
   3541   3539   3551   3563     1  0.0000000  0.6508444  3
   3541   3539   3551   3552     1  0.0000000  0.6508444  3
   3541   3539   3551   3553     1  0.0000000  0.6508444  3
   3542   3538   3545   3546     1  0.0000000  1.2552000  3
   3542   3538   3545   3547     1  0.0000000  1.2552000  3
   3542   3554   3560   3561     1  0.0000000  0.6508444  3
   3542   3554   3560   3562     1  0.0000000  0.6508444  3
   3543   3542   3538   3545     1  0.0000000  1.2552000  3
   3543   3542   3554   3560     1  0.0000000  0.6508444  3
   3543   3542   3554   3555     1  0.0000000  0.6508444  3
   3543   3542   3554   3556     1  0.0000000  0.6508444  3
   3544   3542   3538   3545     1  0.0000000  1.2552000  3
   3544   3542   3554   3560     1  0.0000000  0.6508444  3
   3544   3542   3554   3555     1  0.0000000  0.6508444  3
   3544   3542   3554   3556     1  0.0000000  0.6508444  3
   3545   3548   3557   3558     1  0.0000000  0.6508444  3
   3545   3548   3557   3559     1  0.0000000  0.6508444  3
   3546   3545   3548   3557     1  0.0000000  0.6508444  3
   3546   3545   3548   3549     1  0.0000000  0.6508444  3
   3546   3545   3548   3550     1  0.0000000  0.6508444  3
   3547   3545   3548   3557     1  0.0000000  0.6508444  3
   3547   3545   3548   3549     1  0.0000000  0.6508444  3
   3547   3545   3548   3550     1  0.0000000  0.6508444  3
   3549   3548   3557   3566     1  0.0000000  1.0460000  1
   3549   3548   3557   3566     1  0.0000000  0.0000000  3
   3549   3548   3557   3558     1  0.0000000  0.6508444  3
   3549   3548   3557   3559     1  0.0000000  0.6508444  3
   3550   3548   3557   3566     1  0.0000000  1.0460000  1
   3550   3548   3557   3566     1  0.0000000  0.0000000  3
   3550   3548   3557   3558     1  0.0000000  0.6508444  3
   3550   3548   3557   3559     1  0.0000000  0.6508444  3
   3552   3551   3563   7191     1  0.0000000  1.0460000  1
   3552   3551   3563   7191     1  0.0000000  0.0000000  3
   3552   3551   3563   3564     1  0.0000000  0.6508444  3
   3552   3551   3563   3565     1  0.0000000  0.6508444  3
   3553   3551   3563   7191     1  0.0000000  1.0460000  1
   3553   3551   3563   7191     1  0.0000000  0.0000000  3
   3553   3551   3563   3564     1  0.0000000  0.6508444  3
   3553   3551   3563   3565     1  0.0000000  0.6508444  3
   3555   3554   3560   7162     1  0.0000000  1.0460000  1
   3555   3554   3560   7162     1  0.0000000  0.0000000  3
   3555   3554   3560   3561     1  0.0000000  0.6508444  3
   3555   3554   3560   3562     1  0.0000000  0.6508444  3
   3556   3554   3560   7162     1  0.0000000  1.0460000  1
   3556   3554   3560   7162     1  0.0000000  0.0000000  3
   3556   3554   3560   3561     1  0.0000000  0.6508444  3
   3556   3554   3560   3562     1  0.0000000  0.6508444  3
   3560   7162   7134   7135     1  0.0000000  1.6038667  3
   3560   7162   7134   7136     1  0.0000000  1.6038667  3
   3561   3560   7162   7134     1  0.0000000  1.6038667  3
   3562   3560   7162   7134     1  0.0000000  1.6038667  3
   3563   7191   7163   7164     1  0.0000000  1.6038667  3
   3563   7191   7163   7165     1  0.0000000  1.6038667  3
   3564   3563   7191   7163     1  0.0000000  1.6038667  3
   3565   3563   7191   7163     1  0.0000000  1.6038667  3
   3567   3568   3580   3581     1  0.0000000  0.6508444  3
   3567   3568   3580   3582     1  0.0000000  0.6508444  3
   3567   3571   3583   3584     1  0.0000000  0.6508444  3
   3567   3571   3583   3585     1  0.0000000  0.6508444  3
   3567   3574   3577   3578     1  0.0000000  0.6508444  3
   3567   3574   3577   3579     1  0.0000000  0.6508444  3
   3568   3567   3571   3572     1  0.0000000  1.2552000  3
   3568   3567   3571   3573     1  0.0000000  1.2552000  3
   3568   3567   3574   3575     1  0.0000000  1.2552000  3
   3568   3567   3574   3576     1  0.0000000  1.2552000  3
   3568   3580   3592   3593     1  0.0000000  0.6508444  3
   3568   3580   3592   3594     1  0.0000000  0.6508444  3
   3569   3568   3567   3571     1  0.0000000  1.2552000  3
   3569   3568   3567   3574     1  0.0000000  1.2552000  3
   3569   3568   3580   3592     1  0.0000000  0.6508444  3
   3569   3568   3580   3581     1  0.0000000  0.6508444  3
   3569   3568   3580   3582     1  0.0000000  0.6508444  3
   3570   3568   3567   3571     1  0.0000000  1.2552000  3
   3570   3568   3567   3574     1  0.0000000  1.2552000  3
   3570   3568   3580   3592     1  0.0000000  0.6508444  3
   3570   3568   3580   3581     1  0.0000000  0.6508444  3
   3570   3568   3580   3582     1  0.0000000  0.6508444  3
   3571   3567   3574   3575     1  0.0000000  1.2552000  3
   3571   3567   3574   3576     1  0.0000000  1.2552000  3
   3571   3583   3589   3590     1  0.0000000  0.6508444  3
   3571   3583   3589   3591     1  0.0000000  0.6508444  3
   3572   3571   3567   3574     1  0.0000000  1.2552000  3
   3572   3571   3583   3589     1  0.0000000  0.6508444  3
   3572   3571   3583   3584     1  0.0000000  0.6508444  3
   3572   3571   3583   3585     1  0.0000000  0.6508444  3
   3573   3571   3567   3574     1  0.0000000  1.2552000  3
   3573   3571   3583   3589     1  0.0000000  0.6508444  3
   3573   3571   3583   3584     1  0.0000000  0.6508444  3
   3573   3571   3583   3585     1  0.0000000  0.6508444  3
   3574   3577   3586   3587     1  0.0000000  0.6508444  3
   3574   3577   3586   3588     1  0.0000000  0.6508444  3
   3575   3574   3577   3586     1  0.0000000  0.6508444  3
   3575   3574   3577   3578     1  0.0000000  0.6508444  3
   3575   3574   3577   3579     1  0.0000000  0.6508444  3
   3576   3574   3577   3586     1  0.0000000  0.6508444  3
   3576   3574   3577   3578     1  0.0000000  0.6508444  3
   3576   3574   3577   3579     1  0.0000000  0.6508444  3
   3578   3577   3586   3595     1  0.0000000  1.0460000  1
   3578   3577   3586   3595     1  0.0000000  0.0000000  3
   3578   3577   3586   3587     1  0.0000000  0.6508444  3
   3578   3577   3586   3588     1  0.0000000  0.6508444  3
   3579   3577   3586   3595     1  0.0000000  1.0460000  1
   3579   3577   3586   3595     1  0.0000000  0.0000000  3
   3579   3577   3586   3587     1  0.0000000  0.6508444  3
   3579   3577   3586   3588     1  0.0000000  0.6508444  3
   3581   3580   3592   7249     1  0.0000000  1.0460000  1
   3581   3580   3592   7249     1  0.0000000  0.0000000  3
   3581   3580   3592   3593     1  0.0000000  0.6508444  3
   3581   3580   3592   3594     1  0.0000000  0.6508444  3
   3582   3580   3592   7249     1  0.0000000  1.0460000  1
   3582   3580   3592   7249     1  0.0000000  0.0000000  3
   3582   3580   3592   3593     1  0.0000000  0.6508444  3
   3582   3580   3592   3594     1  0.0000000  0.6508444  3
   3584   3583   3589   7220     1  0.0000000  1.0460000  1
   3584   3583   3589   7220     1  0.0000000  0.0000000  3
   3584   3583   3589   3590     1  0.0000000  0.6508444  3
   3584   3583   3589   3591     1  0.0000000  0.6508444  3
   3585   3583   3589   7220     1  0.0000000  1.0460000  1
   3585   3583   3589   7220     1  0.0000000  0.0000000  3
   3585   3583   3589   3590     1  0.0000000  0.6508444  3
   3585   3583   3589   3591     1  0.0000000  0.6508444  3
   3589   7220   7192   7193     1  0.0000000  1.6038667  3
   3589   7220   7192   7194     1  0.0000000  1.6038667  3
   3590   3589   7220   7192     1  0.0000000  1.6038667  3
   3591   3589   7220   7192     1  0.0000000  1.6038667  3
   3592   7249   7221   7222     1  0.0000000  1.6038667  3
   3592   7249   7221   7223     1  0.0000000  1.6038667  3
   3593   3592   7249   7221     1  0.0000000  1.6038667  3
   3594   3592   7249   7221     1  0.0000000  1.6038667  3
   3596   3597   3609   3610     1  0.0000000  0.6508444  3
   3596   3597   3609   3611     1  0.0000000  0.6508444  3
   3596   3600   3612   3613     1  0.0000000  0.6508444  3
   3596   3600   3612   3614     1  0.0000000  0.6508444  3
   3596   3603   3606   3607     1  0.0000000  0.6508444  3
   3596   3603   3606   3608     1  0.0000000  0.6508444  3
   3597   3596   3600   3601     1  0.0000000  1.2552000  3
   3597   3596   3600   3602     1  0.0000000  1.2552000  3
   3597   3596   3603   3604     1  0.0000000  1.2552000  3
   3597   3596   3603   3605     1  0.0000000  1.2552000  3
   3597   3609   3621   3622     1  0.0000000  0.6508444  3
   3597   3609   3621   3623     1  0.0000000  0.6508444  3
   3598   3597   3596   3600     1  0.0000000  1.2552000  3
   3598   3597   3596   3603     1  0.0000000  1.2552000  3
   3598   3597   3609   3621     1  0.0000000  0.6508444  3
   3598   3597   3609   3610     1  0.0000000  0.6508444  3
   3598   3597   3609   3611     1  0.0000000  0.6508444  3
   3599   3597   3596   3600     1  0.0000000  1.2552000  3
   3599   3597   3596   3603     1  0.0000000  1.2552000  3
   3599   3597   3609   3621     1  0.0000000  0.6508444  3
   3599   3597   3609   3610     1  0.0000000  0.6508444  3
   3599   3597   3609   3611     1  0.0000000  0.6508444  3
   3600   3596   3603   3604     1  0.0000000  1.2552000  3
   3600   3596   3603   3605     1  0.0000000  1.2552000  3
   3600   3612   3618   3619     1  0.0000000  0.6508444  3
   3600   3612   3618   3620     1  0.0000000  0.6508444  3
   3601   3600   3596   3603     1  0.0000000  1.2552000  3
   3601   3600   3612   3618     1  0.0000000  0.6508444  3
   3601   3600   3612   3613     1  0.0000000  0.6508444  3
   3601   3600   3612   3614     1  0.0000000  0.6508444  3
   3602   3600   3596   3603     1  0.0000000  1.2552000  3
   3602   3600   3612   3618     1  0.0000000  0.6508444  3
   3602   3600   3612   3613     1  0.0000000  0.6508444  3
   3602   3600   3612   3614     1  0.0000000  0.6508444  3
   3603   3606   3615   3616     1  0.0000000  0.6508444  3
   3603   3606   3615   3617     1  0.0000000  0.6508444  3
   3604   3603   3606   3615     1  0.0000000  0.6508444  3
   3604   3603   3606   3607     1  0.0000000  0.6508444  3
   3604   3603   3606   3608     1  0.0000000  0.6508444  3
   3605   3603   3606   3615     1  0.0000000  0.6508444  3
   3605   3603   3606   3607     1  0.0000000  0.6508444  3
   3605   3603   3606   3608     1  0.0000000  0.6508444  3
   3607   3606   3615   3624     1  0.0000000  1.0460000  1
   3607   3606   3615   3624     1  0.0000000  0.0000000  3
   3607   3606   3615   3616     1  0.0000000  0.6508444  3
   3607   3606   3615   3617     1  0.0000000  0.6508444  3
   3608   3606   3615   3624     1  0.0000000  1.0460000  1
   3608   3606   3615   3624     1  0.0000000  0.0000000  3
   3608   3606   3615   3616     1  0.0000000  0.6508444  3
   3608   3606   3615   3617     1  0.0000000  0.6508444  3
   3610   3609   3621   7307     1  0.0000000  1.0460000  1
   3610   3609   3621   7307     1  0.0000000  0.0000000  3
   3610   3609   3621   3622     1  0.0000000  0.6508444  3
   3610   3609   3621   3623     1  0.0000000  0.6508444  3
   3611   3609   3621   7307     1  0.0000000  1.0460000  1
   3611   3609   3621   7307     1  0.0000000  0.0000000  3
   3611   3609   3621   3622     1  0.0000000  0.6508444  3
   3611   3609   3621   3623     1  0.0000000  0.6508444  3
   3613   3612   3618   7278     1  0.0000000  1.0460000  1
   3613   3612   3618   7278     1  0.0000000  0.0000000  3
   3613   3612   3618   3619     1  0.0000000  0.6508444  3
   3613   3612   3618   3620     1  0.0000000  0.6508444  3
   3614   3612   3618   7278     1  0.0000000  1.0460000  1
   3614   3612   3618   7278     1  0.0000000  0.0000000  3
   3614   3612   3618   3619     1  0.0000000  0.6508444  3
   3614   3612   3618   3620     1  0.0000000  0.6508444  3
   3618   7278   7250   7251     1  0.0000000  1.6038667  3
   3618   7278   7250   7252     1  0.0000000  1.6038667  3
   3619   3618   7278   7250     1  0.0000000  1.6038667  3
   3620   3618   7278   7250     1  0.0000000  1.6038667  3
   3621   7307   7279   7280     1  0.0000000  1.6038667  3
   3621   7307   7279   7281     1  0.0000000  1.6038667  3
   3622   3621   7307   7279     1  0.0000000  1.6038667  3
   3623   3621   7307   7279     1  0.0000000  1.6038667  3
   3625   3626   3638   3639     1  0.0000000  0.6508444  3
   3625   3626   3638   3640     1  0.0000000  0.6508444  3
   3625   3629   3641   3642     1  0.0000000  0.6508444  3
   3625   3629   3641   3643     1  0.0000000  0.6508444  3
   3625   3632   3635   3636     1  0.0000000  0.6508444  3
   3625   3632   3635   3637     1  0.0000000  0.6508444  3
   3626   3625   3629   3630     1  0.0000000  1.2552000  3
   3626   3625   3629   3631     1  0.0000000  1.2552000  3
   3626   3625   3632   3633     1  0.0000000  1.2552000  3
   3626   3625   3632   3634     1  0.0000000  1.2552000  3
   3626   3638   3650   3651     1  0.0000000  0.6508444  3
   3626   3638   3650   3652     1  0.0000000  0.6508444  3
   3627   3626   3625   3629     1  0.0000000  1.2552000  3
   3627   3626   3625   3632     1  0.0000000  1.2552000  3
   3627   3626   3638   3650     1  0.0000000  0.6508444  3
   3627   3626   3638   3639     1  0.0000000  0.6508444  3
   3627   3626   3638   3640     1  0.0000000  0.6508444  3
   3628   3626   3625   3629     1  0.0000000  1.2552000  3
   3628   3626   3625   3632     1  0.0000000  1.2552000  3
   3628   3626   3638   3650     1  0.0000000  0.6508444  3
   3628   3626   3638   3639     1  0.0000000  0.6508444  3
   3628   3626   3638   3640     1  0.0000000  0.6508444  3
   3629   3625   3632   3633     1  0.0000000  1.2552000  3
   3629   3625   3632   3634     1  0.0000000  1.2552000  3
   3629   3641   3647   3648     1  0.0000000  0.6508444  3
   3629   3641   3647   3649     1  0.0000000  0.6508444  3
   3630   3629   3625   3632     1  0.0000000  1.2552000  3
   3630   3629   3641   3647     1  0.0000000  0.6508444  3
   3630   3629   3641   3642     1  0.0000000  0.6508444  3
   3630   3629   3641   3643     1  0.0000000  0.6508444  3
   3631   3629   3625   3632     1  0.0000000  1.2552000  3
   3631   3629   3641   3647     1  0.0000000  0.6508444  3
   3631   3629   3641   3642     1  0.0000000  0.6508444  3
   3631   3629   3641   3643     1  0.0000000  0.6508444  3
   3632   3635   3644   3645     1  0.0000000  0.6508444  3
   3632   3635   3644   3646     1  0.0000000  0.6508444  3
   3633   3632   3635   3644     1  0.0000000  0.6508444  3
   3633   3632   3635   3636     1  0.0000000  0.6508444  3
   3633   3632   3635   3637     1  0.0000000  0.6508444  3
   3634   3632   3635   3644     1  0.0000000  0.6508444  3
   3634   3632   3635   3636     1  0.0000000  0.6508444  3
   3634   3632   3635   3637     1  0.0000000  0.6508444  3
   3636   3635   3644   3653     1  0.0000000  1.0460000  1
   3636   3635   3644   3653     1  0.0000000  0.0000000  3
   3636   3635   3644   3645     1  0.0000000  0.6508444  3
   3636   3635   3644   3646     1  0.0000000  0.6508444  3
   3637   3635   3644   3653     1  0.0000000  1.0460000  1
   3637   3635   3644   3653     1  0.0000000  0.0000000  3
   3637   3635   3644   3645     1  0.0000000  0.6508444  3
   3637   3635   3644   3646     1  0.0000000  0.6508444  3
   3639   3638   3650   7365     1  0.0000000  1.0460000  1
   3639   3638   3650   7365     1  0.0000000  0.0000000  3
   3639   3638   3650   3651     1  0.0000000  0.6508444  3
   3639   3638   3650   3652     1  0.0000000  0.6508444  3
   3640   3638   3650   7365     1  0.0000000  1.0460000  1
   3640   3638   3650   7365     1  0.0000000  0.0000000  3
   3640   3638   3650   3651     1  0.0000000  0.6508444  3
   3640   3638   3650   3652     1  0.0000000  0.6508444  3
   3642   3641   3647   7336     1  0.0000000  1.0460000  1
   3642   3641   3647   7336     1  0.0000000  0.0000000  3
   3642   3641   3647   3648     1  0.0000000  0.6508444  3
   3642   3641   3647   3649     1  0.0000000  0.6508444  3
   3643   3641   3647   7336     1  0.0000000  1.0460000  1
   3643   3641   3647   7336     1  0.0000000  0.0000000  3
   3643   3641   3647   3648     1  0.0000000  0.6508444  3
   3643   3641   3647   3649     1  0.0000000  0.6508444  3
   3647   7336   7308   7309     1  0.0000000  1.6038667  3
   3647   7336   7308   7310     1  0.0000000  1.6038667  3
   3648   3647   7336   7308     1  0.0000000  1.6038667  3
   3649   3647   7336   7308     1  0.0000000  1.6038667  3
   3650   7365   7337   7338     1  0.0000000  1.6038667  3
   3650   7365   7337   7339     1  0.0000000  1.6038667  3
   3651   3650   7365   7337     1  0.0000000  1.6038667  3
   3652   3650   7365   7337     1  0.0000000  1.6038667  3
   3654   3657   3660   3661     1  0.0000000  0.6508444  3
   3654   3657   3660   3662     1  0.0000000  0.6508444  3
   3655   3654   3657   3660     1  0.0000000  0.6508444  3
   3655   3654   3657   3658     1  0.0000000  0.6508444  3
   3655   3654   3657   3659     1  0.0000000  0.6508444  3
   3656   3654   3657   3660     1  0.0000000  0.6508444  3
   3656   3654   3657   3658     1  0.0000000  0.6508444  3
   3656   3654   3657   3659     1  0.0000000  0.6508444  3
   3658   3657   3654   3682     1  0.0000000  1.0460000  1
   3658   3657   3654   3682     1  0.0000000  0.0000000  3
   3658   3657   3660   3663     1  0.0000000  0.6508444  3
   3658   3657   3660   3661     1  0.0000000  0.6508444  3
   3658   3657   3660   3662     1  0.0000000  0.6508444  3
   3659   3657   3654   3682     1  0.0000000  1.0460000  1
   3659   3657   3654   3682     1  0.0000000  0.0000000  3
   3659   3657   3660   3663     1  0.0000000  0.6508444  3
   3659   3657   3660   3661     1  0.0000000  0.6508444  3
   3659   3657   3660   3662     1  0.0000000  0.6508444  3
   3660   3663   3664   3665     1  0.0000000  1.2552000  3
   3660   3663   3664   3666     1  0.0000000  1.2552000  3
   3660   3663   3673   3674     1  0.0000000  1.2552000  3
   3660   3663   3673   3675     1  0.0000000  1.2552000  3
   3661   3660   3663   3664     1  0.0000000  1.2552000  3
   3661   3660   3663   3673     1  0.0000000  1.2552000  3
   3662   3660   3663   3664     1  0.0000000  1.2552000  3
   3662   3660   3663   3673     1  0.0000000  1.2552000  3
   3663   3664   3667   3668     1  0.0000000  0.6508444  3
   3663   3664   3667   3669     1  0.0000000  0.6508444  3
   3663   3673   3676   3677     1  0.0000000  0.6508444  3
   3663   3673   3676   3678     1  0.0000000  0.6508444  3
   3664   3663   3673   3674     1  0.0000000  1.2552000  3
   3664   3663   3673   3675     1  0.0000000  1.2552000  3
   3665   3664   3663   3673     1  0.0000000  1.2552000  3
   3665   3664   3667   3670     1  0.0000000  0.6508444  3
   3665   3664   3667   3668     1  0.0000000  0.6508444  3
   3665   3664   3667   3669     1  0.0000000  0.6508444  3
   3666   3664   3663   3673     1  0.0000000  1.2552000  3
   3666   3664   3667   3670     1  0.0000000  0.6508444  3
   3666   3664   3667   3668     1  0.0000000  0.6508444  3
   3666   3664   3667   3669     1  0.0000000  0.6508444  3
   3668   3667   3670   3671     1  0.0000000  3.3472000  1
   3668   3667   3670   3671     1  0.0000000  0.0000000  2
   3668   3667   3670   3671     1  180.0000771  0.3347200  3
   3668   3667   3670   3672     1  0.0000000  3.3472000  1
   3668   3667   3670   3672     1  0.0000000  0.0000000  2
   3668   3667   3670   3672     1  180.0000771  0.3347200  3
   3669   3667   3670   3671     1  0.0000000  3.3472000  1
   3669   3667   3670   3671     1  0.0000000  0.0000000  2
   3669   3667   3670   3671     1  180.0000771  0.3347200  3
   3669   3667   3670   3672     1  0.0000000  3.3472000  1
   3669   3667   3670   3672     1  0.0000000  0.0000000  2
   3669   3667   3670   3672     1  180.0000771  0.3347200  3
   3674   3673   3676   3679     1  0.0000000  0.6508444  3
   3674   3673   3676   3677     1  0.0000000  0.6508444  3
   3674   3673   3676   3678     1  0.0000000  0.6508444  3
   3675   3673   3676   3679     1  0.0000000  0.6508444  3
   3675   3673   3676   3677     1  0.0000000  0.6508444  3
   3675   3673   3676   3678     1  0.0000000  0.6508444  3
   3677   3676   3679   3680     1  0.0000000  3.3472000  1
   3677   3676   3679   3680     1  0.0000000  0.0000000  2
   3677   3676   3679   3680     1  180.0000771  0.3347200  3
   3677   3676   3679   3681     1  0.0000000  3.3472000  1
   3677   3676   3679   3681     1  0.0000000  0.0000000  2
   3677   3676   3679   3681     1  180.0000771  0.3347200  3
   3678   3676   3679   3680     1  0.0000000  3.3472000  1
   3678   3676   3679   3680     1  0.0000000  0.0000000  2
   3678   3676   3679   3680     1  180.0000771  0.3347200  3
   3678   3676   3679   3681     1  0.0000000  3.3472000  1
   3678   3676   3679   3681     1  0.0000000  0.0000000  2
   3678   3676   3679   3681     1  180.0000771  0.3347200  3
   3683   3686   3689   3690     1  0.0000000  0.6508444  3
   3683   3686   3689   3691     1  0.0000000  0.6508444  3
   3684   3683   3686   3689     1  0.0000000  0.6508444  3
   3684   3683   3686   3687     1  0.0000000  0.6508444  3
   3684   3683   3686   3688     1  0.0000000  0.6508444  3
   3685   3683   3686   3689     1  0.0000000  0.6508444  3
   3685   3683   3686   3687     1  0.0000000  0.6508444  3
   3685   3683   3686   3688     1  0.0000000  0.6508444  3
   3687   3686   3689   3692     1  0.0000000  0.6508444  3
   3687   3686   3689   3690     1  0.0000000  0.6508444  3
   3687   3686   3689   3691     1  0.0000000  0.6508444  3
   3687   3686   3683   3711     1  0.0000000  1.0460000  1
   3687   3686   3683   3711     1  0.0000000  0.0000000  3
   3688   3686   3689   3692     1  0.0000000  0.6508444  3
   3688   3686   3689   3690     1  0.0000000  0.6508444  3
   3688   3686   3689   3691     1  0.0000000  0.6508444  3
   3688   3686   3683   3711     1  0.0000000  1.0460000  1
   3688   3686   3683   3711     1  0.0000000  0.0000000  3
   3689   3692   3693   3694     1  0.0000000  1.2552000  3
   3689   3692   3693   3695     1  0.0000000  1.2552000  3
   3689   3692   3702   3703     1  0.0000000  1.2552000  3
   3689   3692   3702   3704     1  0.0000000  1.2552000  3
   3690   3689   3692   3693     1  0.0000000  1.2552000  3
   3690   3689   3692   3702     1  0.0000000  1.2552000  3
   3691   3689   3692   3693     1  0.0000000  1.2552000  3
   3691   3689   3692   3702     1  0.0000000  1.2552000  3
   3692   3693   3696   3697     1  0.0000000  0.6508444  3
   3692   3693   3696   3698     1  0.0000000  0.6508444  3
   3692   3702   3705   3706     1  0.0000000  0.6508444  3
   3692   3702   3705   3707     1  0.0000000  0.6508444  3
   3693   3692   3702   3703     1  0.0000000  1.2552000  3
   3693   3692   3702   3704     1  0.0000000  1.2552000  3
   3694   3693   3696   3699     1  0.0000000  0.6508444  3
   3694   3693   3696   3697     1  0.0000000  0.6508444  3
   3694   3693   3696   3698     1  0.0000000  0.6508444  3
   3694   3693   3692   3702     1  0.0000000  1.2552000  3
   3695   3693   3696   3699     1  0.0000000  0.6508444  3
   3695   3693   3696   3697     1  0.0000000  0.6508444  3
   3695   3693   3696   3698     1  0.0000000  0.6508444  3
   3695   3693   3692   3702     1  0.0000000  1.2552000  3
   3697   3696   3699   3700     1  0.0000000  3.3472000  1
   3697   3696   3699   3700     1  0.0000000  0.0000000  2
   3697   3696   3699   3700     1  180.0000771  0.3347200  3
   3697   3696   3699   3701     1  0.0000000  3.3472000  1
   3697   3696   3699   3701     1  0.0000000  0.0000000  2
   3697   3696   3699   3701     1  180.0000771  0.3347200  3
   3698   3696   3699   3700     1  0.0000000  3.3472000  1
   3698   3696   3699   3700     1  0.0000000  0.0000000  2
   3698   3696   3699   3700     1  180.0000771  0.3347200  3
   3698   3696   3699   3701     1  0.0000000  3.3472000  1
   3698   3696   3699   3701     1  0.0000000  0.0000000  2
   3698   3696   3699   3701     1  180.0000771  0.3347200  3
   3703   3702   3705   3708     1  0.0000000  0.6508444  3
   3703   3702   3705   3706     1  0.0000000  0.6508444  3
   3703   3702   3705   3707     1  0.0000000  0.6508444  3
   3704   3702   3705   3708     1  0.0000000  0.6508444  3
   3704   3702   3705   3706     1  0.0000000  0.6508444  3
   3704   3702   3705   3707     1  0.0000000  0.6508444  3
   3706   3705   3708   3709     1  0.0000000  3.3472000  1
   3706   3705   3708   3709     1  0.0000000  0.0000000  2
   3706   3705   3708   3709     1  180.0000771  0.3347200  3
   3706   3705   3708   3710     1  0.0000000  3.3472000  1
   3706   3705   3708   3710     1  0.0000000  0.0000000  2
   3706   3705   3708   3710     1  180.0000771  0.3347200  3
   3707   3705   3708   3709     1  0.0000000  3.3472000  1
   3707   3705   3708   3709     1  0.0000000  0.0000000  2
   3707   3705   3708   3709     1  180.0000771  0.3347200  3
   3707   3705   3708   3710     1  0.0000000  3.3472000  1
   3707   3705   3708   3710     1  0.0000000  0.0000000  2
   3707   3705   3708   3710     1  180.0000771  0.3347200  3
   3712   3715   3718   3719     1  0.0000000  0.6508444  3
   3712   3715   3718   3720     1  0.0000000  0.6508444  3
   3713   3712   3715   3718     1  0.0000000  0.6508444  3
   3713   3712   3715   3716     1  0.0000000  0.6508444  3
   3713   3712   3715   3717     1  0.0000000  0.6508444  3
   3714   3712   3715   3718     1  0.0000000  0.6508444  3
   3714   3712   3715   3716     1  0.0000000  0.6508444  3
   3714   3712   3715   3717     1  0.0000000  0.6508444  3
   3716   3715   3712   3740     1  0.0000000  1.0460000  1
   3716   3715   3712   3740     1  0.0000000  0.0000000  3
   3716   3715   3718   3721     1  0.0000000  0.6508444  3
   3716   3715   3718   3719     1  0.0000000  0.6508444  3
   3716   3715   3718   3720     1  0.0000000  0.6508444  3
   3717   3715   3712   3740     1  0.0000000  1.0460000  1
   3717   3715   3712   3740     1  0.0000000  0.0000000  3
   3717   3715   3718   3721     1  0.0000000  0.6508444  3
   3717   3715   3718   3719     1  0.0000000  0.6508444  3
   3717   3715   3718   3720     1  0.0000000  0.6508444  3
   3718   3721   3722   3723     1  0.0000000  1.2552000  3
   3718   3721   3722   3724     1  0.0000000  1.2552000  3
   3718   3721   3731   3732     1  0.0000000  1.2552000  3
   3718   3721   3731   3733     1  0.0000000  1.2552000  3
   3719   3718   3721   3722     1  0.0000000  1.2552000  3
   3719   3718   3721   3731     1  0.0000000  1.2552000  3
   3720   3718   3721   3722     1  0.0000000  1.2552000  3
   3720   3718   3721   3731     1  0.0000000  1.2552000  3
   3721   3722   3725   3726     1  0.0000000  0.6508444  3
   3721   3722   3725   3727     1  0.0000000  0.6508444  3
   3721   3731   3734   3735     1  0.0000000  0.6508444  3
   3721   3731   3734   3736     1  0.0000000  0.6508444  3
   3722   3721   3731   3732     1  0.0000000  1.2552000  3
   3722   3721   3731   3733     1  0.0000000  1.2552000  3
   3723   3722   3721   3731     1  0.0000000  1.2552000  3
   3723   3722   3725   3728     1  0.0000000  0.6508444  3
   3723   3722   3725   3726     1  0.0000000  0.6508444  3
   3723   3722   3725   3727     1  0.0000000  0.6508444  3
   3724   3722   3721   3731     1  0.0000000  1.2552000  3
   3724   3722   3725   3728     1  0.0000000  0.6508444  3
   3724   3722   3725   3726     1  0.0000000  0.6508444  3
   3724   3722   3725   3727     1  0.0000000  0.6508444  3
   3726   3725   3728   3729     1  0.0000000  3.3472000  1
   3726   3725   3728   3729     1  0.0000000  0.0000000  2
   3726   3725   3728   3729     1  180.0000771  0.3347200  3
   3726   3725   3728   3730     1  0.0000000  3.3472000  1
   3726   3725   3728   3730     1  0.0000000  0.0000000  2
   3726   3725   3728   3730     1  180.0000771  0.3347200  3
   3727   3725   3728   3729     1  0.0000000  3.3472000  1
   3727   3725   3728   3729     1  0.0000000  0.0000000  2
   3727   3725   3728   3729     1  180.0000771  0.3347200  3
   3727   3725   3728   3730     1  0.0000000  3.3472000  1
   3727   3725   3728   3730     1  0.0000000  0.0000000  2
   3727   3725   3728   3730     1  180.0000771  0.3347200  3
   3732   3731   3734   3737     1  0.0000000  0.6508444  3
   3732   3731   3734   3735     1  0.0000000  0.6508444  3
   3732   3731   3734   3736     1  0.0000000  0.6508444  3
   3733   3731   3734   3737     1  0.0000000  0.6508444  3
   3733   3731   3734   3735     1  0.0000000  0.6508444  3
   3733   3731   3734   3736     1  0.0000000  0.6508444  3
   3735   3734   3737   3738     1  0.0000000  3.3472000  1
   3735   3734   3737   3738     1  0.0000000  0.0000000  2
   3735   3734   3737   3738     1  180.0000771  0.3347200  3
   3735   3734   3737   3739     1  0.0000000  3.3472000  1
   3735   3734   3737   3739     1  0.0000000  0.0000000  2
   3735   3734   3737   3739     1  180.0000771  0.3347200  3
   3736   3734   3737   3738     1  0.0000000  3.3472000  1
   3736   3734   3737   3738     1  0.0000000  0.0000000  2
   3736   3734   3737   3738     1  180.0000771  0.3347200  3
   3736   3734   3737   3739     1  0.0000000  3.3472000  1
   3736   3734   3737   3739     1  0.0000000  0.0000000  2
   3736   3734   3737   3739     1  180.0000771  0.3347200  3
   3741   3744   3747   3748     1  0.0000000  0.6508444  3
   3741   3744   3747   3749     1  0.0000000  0.6508444  3
   3742   3741   3744   3747     1  0.0000000  0.6508444  3
   3742   3741   3744   3745     1  0.0000000  0.6508444  3
   3742   3741   3744   3746     1  0.0000000  0.6508444  3
   3743   3741   3744   3747     1  0.0000000  0.6508444  3
   3743   3741   3744   3745     1  0.0000000  0.6508444  3
   3743   3741   3744   3746     1  0.0000000  0.6508444  3
   3745   3744   3747   3750     1  0.0000000  0.6508444  3
   3745   3744   3747   3748     1  0.0000000  0.6508444  3
   3745   3744   3747   3749     1  0.0000000  0.6508444  3
   3745   3744   3741   3769     1  0.0000000  1.0460000  1
   3745   3744   3741   3769     1  0.0000000  0.0000000  3
   3746   3744   3747   3750     1  0.0000000  0.6508444  3
   3746   3744   3747   3748     1  0.0000000  0.6508444  3
   3746   3744   3747   3749     1  0.0000000  0.6508444  3
   3746   3744   3741   3769     1  0.0000000  1.0460000  1
   3746   3744   3741   3769     1  0.0000000  0.0000000  3
   3747   3750   3751   3752     1  0.0000000  1.2552000  3
   3747   3750   3751   3753     1  0.0000000  1.2552000  3
   3747   3750   3760   3761     1  0.0000000  1.2552000  3
   3747   3750   3760   3762     1  0.0000000  1.2552000  3
   3748   3747   3750   3751     1  0.0000000  1.2552000  3
   3748   3747   3750   3760     1  0.0000000  1.2552000  3
   3749   3747   3750   3751     1  0.0000000  1.2552000  3
   3749   3747   3750   3760     1  0.0000000  1.2552000  3
   3750   3751   3754   3755     1  0.0000000  0.6508444  3
   3750   3751   3754   3756     1  0.0000000  0.6508444  3
   3750   3760   3763   3764     1  0.0000000  0.6508444  3
   3750   3760   3763   3765     1  0.0000000  0.6508444  3
   3751   3750   3760   3761     1  0.0000000  1.2552000  3
   3751   3750   3760   3762     1  0.0000000  1.2552000  3
   3752   3751   3754   3757     1  0.0000000  0.6508444  3
   3752   3751   3754   3755     1  0.0000000  0.6508444  3
   3752   3751   3754   3756     1  0.0000000  0.6508444  3
   3752   3751   3750   3760     1  0.0000000  1.2552000  3
   3753   3751   3754   3757     1  0.0000000  0.6508444  3
   3753   3751   3754   3755     1  0.0000000  0.6508444  3
   3753   3751   3754   3756     1  0.0000000  0.6508444  3
   3753   3751   3750   3760     1  0.0000000  1.2552000  3
   3755   3754   3757   3758     1  0.0000000  3.3472000  1
   3755   3754   3757   3758     1  0.0000000  0.0000000  2
   3755   3754   3757   3758     1  180.0000771  0.3347200  3
   3755   3754   3757   3759     1  0.0000000  3.3472000  1
   3755   3754   3757   3759     1  0.0000000  0.0000000  2
   3755   3754   3757   3759     1  180.0000771  0.3347200  3
   3756   3754   3757   3758     1  0.0000000  3.3472000  1
   3756   3754   3757   3758     1  0.0000000  0.0000000  2
   3756   3754   3757   3758     1  180.0000771  0.3347200  3
   3756   3754   3757   3759     1  0.0000000  3.3472000  1
   3756   3754   3757   3759     1  0.0000000  0.0000000  2
   3756   3754   3757   3759     1  180.0000771  0.3347200  3
   3761   3760   3763   3766     1  0.0000000  0.6508444  3
   3761   3760   3763   3764     1  0.0000000  0.6508444  3
   3761   3760   3763   3765     1  0.0000000  0.6508444  3
   3762   3760   3763   3766     1  0.0000000  0.6508444  3
   3762   3760   3763   3764     1  0.0000000  0.6508444  3
   3762   3760   3763   3765     1  0.0000000  0.6508444  3
   3764   3763   3766   3767     1  0.0000000  3.3472000  1
   3764   3763   3766   3767     1  0.0000000  0.0000000  2
   3764   3763   3766   3767     1  180.0000771  0.3347200  3
   3764   3763   3766   3768     1  0.0000000  3.3472000  1
   3764   3763   3766   3768     1  0.0000000  0.0000000  2
   3764   3763   3766   3768     1  180.0000771  0.3347200  3
   3765   3763   3766   3767     1  0.0000000  3.3472000  1
   3765   3763   3766   3767     1  0.0000000  0.0000000  2
   3765   3763   3766   3767     1  180.0000771  0.3347200  3
   3765   3763   3766   3768     1  0.0000000  3.3472000  1
   3765   3763   3766   3768     1  0.0000000  0.0000000  2
   3765   3763   3766   3768     1  180.0000771  0.3347200  3
   3770   3773   3776   3777     1  0.0000000  0.6508444  3
   3770   3773   3776   3778     1  0.0000000  0.6508444  3
   3771   3770   3773   3776     1  0.0000000  0.6508444  3
   3771   3770   3773   3774     1  0.0000000  0.6508444  3
   3771   3770   3773   3775     1  0.0000000  0.6508444  3
   3772   3770   3773   3776     1  0.0000000  0.6508444  3
   3772   3770   3773   3774     1  0.0000000  0.6508444  3
   3772   3770   3773   3775     1  0.0000000  0.6508444  3
   3774   3773   3770   3798     1  0.0000000  1.0460000  1
   3774   3773   3770   3798     1  0.0000000  0.0000000  3
   3774   3773   3776   3779     1  0.0000000  0.6508444  3
   3774   3773   3776   3777     1  0.0000000  0.6508444  3
   3774   3773   3776   3778     1  0.0000000  0.6508444  3
   3775   3773   3770   3798     1  0.0000000  1.0460000  1
   3775   3773   3770   3798     1  0.0000000  0.0000000  3
   3775   3773   3776   3779     1  0.0000000  0.6508444  3
   3775   3773   3776   3777     1  0.0000000  0.6508444  3
   3775   3773   3776   3778     1  0.0000000  0.6508444  3
   3776   3779   3780   3781     1  0.0000000  1.2552000  3
   3776   3779   3780   3782     1  0.0000000  1.2552000  3
   3776   3779   3789   3790     1  0.0000000  1.2552000  3
   3776   3779   3789   3791     1  0.0000000  1.2552000  3
   3777   3776   3779   3780     1  0.0000000  1.2552000  3
   3777   3776   3779   3789     1  0.0000000  1.2552000  3
   3778   3776   3779   3780     1  0.0000000  1.2552000  3
   3778   3776   3779   3789     1  0.0000000  1.2552000  3
   3779   3780   3783   3784     1  0.0000000  0.6508444  3
   3779   3780   3783   3785     1  0.0000000  0.6508444  3
   3779   3789   3792   3793     1  0.0000000  0.6508444  3
   3779   3789   3792   3794     1  0.0000000  0.6508444  3
   3780   3779   3789   3790     1  0.0000000  1.2552000  3
   3780   3779   3789   3791     1  0.0000000  1.2552000  3
   3781   3780   3779   3789     1  0.0000000  1.2552000  3
   3781   3780   3783   3786     1  0.0000000  0.6508444  3
   3781   3780   3783   3784     1  0.0000000  0.6508444  3
   3781   3780   3783   3785     1  0.0000000  0.6508444  3
   3782   3780   3779   3789     1  0.0000000  1.2552000  3
   3782   3780   3783   3786     1  0.0000000  0.6508444  3
   3782   3780   3783   3784     1  0.0000000  0.6508444  3
   3782   3780   3783   3785     1  0.0000000  0.6508444  3
   3784   3783   3786   3787     1  0.0000000  3.3472000  1
   3784   3783   3786   3787     1  0.0000000  0.0000000  2
   3784   3783   3786   3787     1  180.0000771  0.3347200  3
   3784   3783   3786   3788     1  0.0000000  3.3472000  1
   3784   3783   3786   3788     1  0.0000000  0.0000000  2
   3784   3783   3786   3788     1  180.0000771  0.3347200  3
   3785   3783   3786   3787     1  0.0000000  3.3472000  1
   3785   3783   3786   3787     1  0.0000000  0.0000000  2
   3785   3783   3786   3787     1  180.0000771  0.3347200  3
   3785   3783   3786   3788     1  0.0000000  3.3472000  1
   3785   3783   3786   3788     1  0.0000000  0.0000000  2
   3785   3783   3786   3788     1  180.0000771  0.3347200  3
   3790   3789   3792   3795     1  0.0000000  0.6508444  3
   3790   3789   3792   3793     1  0.0000000  0.6508444  3
   3790   3789   3792   3794     1  0.0000000  0.6508444  3
   3791   3789   3792   3795     1  0.0000000  0.6508444  3
   3791   3789   3792   3793     1  0.0000000  0.6508444  3
   3791   3789   3792   3794     1  0.0000000  0.6508444  3
   3793   3792   3795   3796     1  0.0000000  3.3472000  1
   3793   3792   3795   3796     1  0.0000000  0.0000000  2
   3793   3792   3795   3796     1  180.0000771  0.3347200  3
   3793   3792   3795   3797     1  0.0000000  3.3472000  1
   3793   3792   3795   3797     1  0.0000000  0.0000000  2
   3793   3792   3795   3797     1  180.0000771  0.3347200  3
   3794   3792   3795   3796     1  0.0000000  3.3472000  1
   3794   3792   3795   3796     1  0.0000000  0.0000000  2
   3794   3792   3795   3796     1  180.0000771  0.3347200  3
   3794   3792   3795   3797     1  0.0000000  3.3472000  1
   3794   3792   3795   3797     1  0.0000000  0.0000000  2
   3794   3792   3795   3797     1  180.0000771  0.3347200  3
   3799   3802   3805   3806     1  0.0000000  0.6508444  3
   3799   3802   3805   3807     1  0.0000000  0.6508444  3
   3800   3799   3802   3805     1  0.0000000  0.6508444  3
   3800   3799   3802   3803     1  0.0000000  0.6508444  3
   3800   3799   3802   3804     1  0.0000000  0.6508444  3
   3801   3799   3802   3805     1  0.0000000  0.6508444  3
   3801   3799   3802   3803     1  0.0000000  0.6508444  3
   3801   3799   3802   3804     1  0.0000000  0.6508444  3
   3803   3802   3805   3808     1  0.0000000  0.6508444  3
   3803   3802   3805   3806     1  0.0000000  0.6508444  3
   3803   3802   3805   3807     1  0.0000000  0.6508444  3
   3803   3802   3799   3827     1  0.0000000  1.0460000  1
   3803   3802   3799   3827     1  0.0000000  0.0000000  3
   3804   3802   3805   3808     1  0.0000000  0.6508444  3
   3804   3802   3805   3806     1  0.0000000  0.6508444  3
   3804   3802   3805   3807     1  0.0000000  0.6508444  3
   3804   3802   3799   3827     1  0.0000000  1.0460000  1
   3804   3802   3799   3827     1  0.0000000  0.0000000  3
   3805   3808   3809   3810     1  0.0000000  1.2552000  3
   3805   3808   3809   3811     1  0.0000000  1.2552000  3
   3805   3808   3818   3819     1  0.0000000  1.2552000  3
   3805   3808   3818   3820     1  0.0000000  1.2552000  3
   3806   3805   3808   3809     1  0.0000000  1.2552000  3
   3806   3805   3808   3818     1  0.0000000  1.2552000  3
   3807   3805   3808   3809     1  0.0000000  1.2552000  3
   3807   3805   3808   3818     1  0.0000000  1.2552000  3
   3808   3809   3812   3813     1  0.0000000  0.6508444  3
   3808   3809   3812   3814     1  0.0000000  0.6508444  3
   3808   3818   3821   3822     1  0.0000000  0.6508444  3
   3808   3818   3821   3823     1  0.0000000  0.6508444  3
   3809   3808   3818   3819     1  0.0000000  1.2552000  3
   3809   3808   3818   3820     1  0.0000000  1.2552000  3
   3810   3809   3812   3815     1  0.0000000  0.6508444  3
   3810   3809   3812   3813     1  0.0000000  0.6508444  3
   3810   3809   3812   3814     1  0.0000000  0.6508444  3
   3810   3809   3808   3818     1  0.0000000  1.2552000  3
   3811   3809   3812   3815     1  0.0000000  0.6508444  3
   3811   3809   3812   3813     1  0.0000000  0.6508444  3
   3811   3809   3812   3814     1  0.0000000  0.6508444  3
   3811   3809   3808   3818     1  0.0000000  1.2552000  3
   3813   3812   3815   3816     1  0.0000000  3.3472000  1
   3813   3812   3815   3816     1  0.0000000  0.0000000  2
   3813   3812   3815   3816     1  180.0000771  0.3347200  3
   3813   3812   3815   3817     1  0.0000000  3.3472000  1
   3813   3812   3815   3817     1  0.0000000  0.0000000  2
   3813   3812   3815   3817     1  180.0000771  0.3347200  3
   3814   3812   3815   3816     1  0.0000000  3.3472000  1
   3814   3812   3815   3816     1  0.0000000  0.0000000  2
   3814   3812   3815   3816     1  180.0000771  0.3347200  3
   3814   3812   3815   3817     1  0.0000000  3.3472000  1
   3814   3812   3815   3817     1  0.0000000  0.0000000  2
   3814   3812   3815   3817     1  180.0000771  0.3347200  3
   3819   3818   3821   3824     1  0.0000000  0.6508444  3
   3819   3818   3821   3822     1  0.0000000  0.6508444  3
   3819   3818   3821   3823     1  0.0000000  0.6508444  3
   3820   3818   3821   3824     1  0.0000000  0.6508444  3
   3820   3818   3821   3822     1  0.0000000  0.6508444  3
   3820   3818   3821   3823     1  0.0000000  0.6508444  3
   3822   3821   3824   3825     1  0.0000000  3.3472000  1
   3822   3821   3824   3825     1  0.0000000  0.0000000  2
   3822   3821   3824   3825     1  180.0000771  0.3347200  3
   3822   3821   3824   3826     1  0.0000000  3.3472000  1
   3822   3821   3824   3826     1  0.0000000  0.0000000  2
   3822   3821   3824   3826     1  180.0000771  0.3347200  3
   3823   3821   3824   3825     1  0.0000000  3.3472000  1
   3823   3821   3824   3825     1  0.0000000  0.0000000  2
   3823   3821   3824   3825     1  180.0000771  0.3347200  3
   3823   3821   3824   3826     1  0.0000000  3.3472000  1
   3823   3821   3824   3826     1  0.0000000  0.0000000  2
   3823   3821   3824   3826     1  180.0000771  0.3347200  3
   3828   3831   3834   3835     1  0.0000000  0.6508444  3
   3828   3831   3834   3836     1  0.0000000  0.6508444  3
   3829   3828   3831   3834     1  0.0000000  0.6508444  3
   3829   3828   3831   3832     1  0.0000000  0.6508444  3
   3829   3828   3831   3833     1  0.0000000  0.6508444  3
   3830   3828   3831   3834     1  0.0000000  0.6508444  3
   3830   3828   3831   3832     1  0.0000000  0.6508444  3
   3830   3828   3831   3833     1  0.0000000  0.6508444  3
   3832   3831   3828   3856     1  0.0000000  1.0460000  1
   3832   3831   3828   3856     1  0.0000000  0.0000000  3
   3832   3831   3834   3837     1  0.0000000  0.6508444  3
   3832   3831   3834   3835     1  0.0000000  0.6508444  3
   3832   3831   3834   3836     1  0.0000000  0.6508444  3
   3833   3831   3828   3856     1  0.0000000  1.0460000  1
   3833   3831   3828   3856     1  0.0000000  0.0000000  3
   3833   3831   3834   3837     1  0.0000000  0.6508444  3
   3833   3831   3834   3835     1  0.0000000  0.6508444  3
   3833   3831   3834   3836     1  0.0000000  0.6508444  3
   3834   3837   3838   3839     1  0.0000000  1.2552000  3
   3834   3837   3838   3840     1  0.0000000  1.2552000  3
   3834   3837   3847   3848     1  0.0000000  1.2552000  3
   3834   3837   3847   3849     1  0.0000000  1.2552000  3
   3835   3834   3837   3838     1  0.0000000  1.2552000  3
   3835   3834   3837   3847     1  0.0000000  1.2552000  3
   3836   3834   3837   3838     1  0.0000000  1.2552000  3
   3836   3834   3837   3847     1  0.0000000  1.2552000  3
   3837   3838   3841   3842     1  0.0000000  0.6508444  3
   3837   3838   3841   3843     1  0.0000000  0.6508444  3
   3837   3847   3850   3851     1  0.0000000  0.6508444  3
   3837   3847   3850   3852     1  0.0000000  0.6508444  3
   3838   3837   3847   3848     1  0.0000000  1.2552000  3
   3838   3837   3847   3849     1  0.0000000  1.2552000  3
   3839   3838   3837   3847     1  0.0000000  1.2552000  3
   3839   3838   3841   3844     1  0.0000000  0.6508444  3
   3839   3838   3841   3842     1  0.0000000  0.6508444  3
   3839   3838   3841   3843     1  0.0000000  0.6508444  3
   3840   3838   3837   3847     1  0.0000000  1.2552000  3
   3840   3838   3841   3844     1  0.0000000  0.6508444  3
   3840   3838   3841   3842     1  0.0000000  0.6508444  3
   3840   3838   3841   3843     1  0.0000000  0.6508444  3
   3842   3841   3844   3845     1  0.0000000  3.3472000  1
   3842   3841   3844   3845     1  0.0000000  0.0000000  2
   3842   3841   3844   3845     1  180.0000771  0.3347200  3
   3842   3841   3844   3846     1  0.0000000  3.3472000  1
   3842   3841   3844   3846     1  0.0000000  0.0000000  2
   3842   3841   3844   3846     1  180.0000771  0.3347200  3
   3843   3841   3844   3845     1  0.0000000  3.3472000  1
   3843   3841   3844   3845     1  0.0000000  0.0000000  2
   3843   3841   3844   3845     1  180.0000771  0.3347200  3
   3843   3841   3844   3846     1  0.0000000  3.3472000  1
   3843   3841   3844   3846     1  0.0000000  0.0000000  2
   3843   3841   3844   3846     1  180.0000771  0.3347200  3
   3848   3847   3850   3853     1  0.0000000  0.6508444  3
   3848   3847   3850   3851     1  0.0000000  0.6508444  3
   3848   3847   3850   3852     1  0.0000000  0.6508444  3
   3849   3847   3850   3853     1  0.0000000  0.6508444  3
   3849   3847   3850   3851     1  0.0000000  0.6508444  3
   3849   3847   3850   3852     1  0.0000000  0.6508444  3
   3851   3850   3853   3854     1  0.0000000  3.3472000  1
   3851   3850   3853   3854     1  0.0000000  0.0000000  2
   3851   3850   3853   3854     1  180.0000771  0.3347200  3
   3851   3850   3853   3855     1  0.0000000  3.3472000  1
   3851   3850   3853   3855     1  0.0000000  0.0000000  2
   3851   3850   3853   3855     1  180.0000771  0.3347200  3
   3852   3850   3853   3854     1  0.0000000  3.3472000  1
   3852   3850   3853   3854     1  0.0000000  0.0000000  2
   3852   3850   3853   3854     1  180.0000771  0.3347200  3
   3852   3850   3853   3855     1  0.0000000  3.3472000  1
   3852   3850   3853   3855     1  0.0000000  0.0000000  2
   3852   3850   3853   3855     1  180.0000771  0.3347200  3
   3857   3860   3863   3864     1  0.0000000  0.6508444  3
   3857   3860   3863   3865     1  0.0000000  0.6508444  3
   3858   3857   3860   3863     1  0.0000000  0.6508444  3
   3858   3857   3860   3861     1  0.0000000  0.6508444  3
   3858   3857   3860   3862     1  0.0000000  0.6508444  3
   3859   3857   3860   3863     1  0.0000000  0.6508444  3
   3859   3857   3860   3861     1  0.0000000  0.6508444  3
   3859   3857   3860   3862     1  0.0000000  0.6508444  3
   3861   3860   3863   3866     1  0.0000000  0.6508444  3
   3861   3860   3863   3864     1  0.0000000  0.6508444  3
   3861   3860   3863   3865     1  0.0000000  0.6508444  3
   3861   3860   3857   3885     1  0.0000000  1.0460000  1
   3861   3860   3857   3885     1  0.0000000  0.0000000  3
   3862   3860   3863   3866     1  0.0000000  0.6508444  3
   3862   3860   3863   3864     1  0.0000000  0.6508444  3
   3862   3860   3863   3865     1  0.0000000  0.6508444  3
   3862   3860   3857   3885     1  0.0000000  1.0460000  1
   3862   3860   3857   3885     1  0.0000000  0.0000000  3
   3863   3866   3867   3868     1  0.0000000  1.2552000  3
   3863   3866   3867   3869     1  0.0000000  1.2552000  3
   3863   3866   3876   3877     1  0.0000000  1.2552000  3
   3863   3866   3876   3878     1  0.0000000  1.2552000  3
   3864   3863   3866   3867     1  0.0000000  1.2552000  3
   3864   3863   3866   3876     1  0.0000000  1.2552000  3
   3865   3863   3866   3867     1  0.0000000  1.2552000  3
   3865   3863   3866   3876     1  0.0000000  1.2552000  3
   3866   3867   3870   3871     1  0.0000000  0.6508444  3
   3866   3867   3870   3872     1  0.0000000  0.6508444  3
   3866   3876   3879   3880     1  0.0000000  0.6508444  3
   3866   3876   3879   3881     1  0.0000000  0.6508444  3
   3867   3866   3876   3877     1  0.0000000  1.2552000  3
   3867   3866   3876   3878     1  0.0000000  1.2552000  3
   3868   3867   3870   3873     1  0.0000000  0.6508444  3
   3868   3867   3870   3871     1  0.0000000  0.6508444  3
   3868   3867   3870   3872     1  0.0000000  0.6508444  3
   3868   3867   3866   3876     1  0.0000000  1.2552000  3
   3869   3867   3870   3873     1  0.0000000  0.6508444  3
   3869   3867   3870   3871     1  0.0000000  0.6508444  3
   3869   3867   3870   3872     1  0.0000000  0.6508444  3
   3869   3867   3866   3876     1  0.0000000  1.2552000  3
   3871   3870   3873   3874     1  0.0000000  3.3472000  1
   3871   3870   3873   3874     1  0.0000000  0.0000000  2
   3871   3870   3873   3874     1  180.0000771  0.3347200  3
   3871   3870   3873   3875     1  0.0000000  3.3472000  1
   3871   3870   3873   3875     1  0.0000000  0.0000000  2
   3871   3870   3873   3875     1  180.0000771  0.3347200  3
   3872   3870   3873   3874     1  0.0000000  3.3472000  1
   3872   3870   3873   3874     1  0.0000000  0.0000000  2
   3872   3870   3873   3874     1  180.0000771  0.3347200  3
   3872   3870   3873   3875     1  0.0000000  3.3472000  1
   3872   3870   3873   3875     1  0.0000000  0.0000000  2
   3872   3870   3873   3875     1  180.0000771  0.3347200  3
   3877   3876   3879   3882     1  0.0000000  0.6508444  3
   3877   3876   3879   3880     1  0.0000000  0.6508444  3
   3877   3876   3879   3881     1  0.0000000  0.6508444  3
   3878   3876   3879   3882     1  0.0000000  0.6508444  3
   3878   3876   3879   3880     1  0.0000000  0.6508444  3
   3878   3876   3879   3881     1  0.0000000  0.6508444  3
   3880   3879   3882   3883     1  0.0000000  3.3472000  1
   3880   3879   3882   3883     1  0.0000000  0.0000000  2
   3880   3879   3882   3883     1  180.0000771  0.3347200  3
   3880   3879   3882   3884     1  0.0000000  3.3472000  1
   3880   3879   3882   3884     1  0.0000000  0.0000000  2
   3880   3879   3882   3884     1  180.0000771  0.3347200  3
   3881   3879   3882   3883     1  0.0000000  3.3472000  1
   3881   3879   3882   3883     1  0.0000000  0.0000000  2
   3881   3879   3882   3883     1  180.0000771  0.3347200  3
   3881   3879   3882   3884     1  0.0000000  3.3472000  1
   3881   3879   3882   3884     1  0.0000000  0.0000000  2
   3881   3879   3882   3884     1  180.0000771  0.3347200  3
   3886   3889   3892   3893     1  0.0000000  0.6508444  3
   3886   3889   3892   3894     1  0.0000000  0.6508444  3
   3887   3886   3889   3892     1  0.0000000  0.6508444  3
   3887   3886   3889   3890     1  0.0000000  0.6508444  3
   3887   3886   3889   3891     1  0.0000000  0.6508444  3
   3888   3886   3889   3892     1  0.0000000  0.6508444  3
   3888   3886   3889   3890     1  0.0000000  0.6508444  3
   3888   3886   3889   3891     1  0.0000000  0.6508444  3
   3890   3889   3886   3914     1  0.0000000  1.0460000  1
   3890   3889   3886   3914     1  0.0000000  0.0000000  3
   3890   3889   3892   3895     1  0.0000000  0.6508444  3
   3890   3889   3892   3893     1  0.0000000  0.6508444  3
   3890   3889   3892   3894     1  0.0000000  0.6508444  3
   3891   3889   3886   3914     1  0.0000000  1.0460000  1
   3891   3889   3886   3914     1  0.0000000  0.0000000  3
   3891   3889   3892   3895     1  0.0000000  0.6508444  3
   3891   3889   3892   3893     1  0.0000000  0.6508444  3
   3891   3889   3892   3894     1  0.0000000  0.6508444  3
   3892   3895   3896   3897     1  0.0000000  1.2552000  3
   3892   3895   3896   3898     1  0.0000000  1.2552000  3
   3892   3895   3905   3906     1  0.0000000  1.2552000  3
   3892   3895   3905   3907     1  0.0000000  1.2552000  3
   3893   3892   3895   3896     1  0.0000000  1.2552000  3
   3893   3892   3895   3905     1  0.0000000  1.2552000  3
   3894   3892   3895   3896     1  0.0000000  1.2552000  3
   3894   3892   3895   3905     1  0.0000000  1.2552000  3
   3895   3896   3899   3900     1  0.0000000  0.6508444  3
   3895   3896   3899   3901     1  0.0000000  0.6508444  3
   3895   3905   3908   3909     1  0.0000000  0.6508444  3
   3895   3905   3908   3910     1  0.0000000  0.6508444  3
   3896   3895   3905   3906     1  0.0000000  1.2552000  3
   3896   3895   3905   3907     1  0.0000000  1.2552000  3
   3897   3896   3895   3905     1  0.0000000  1.2552000  3
   3897   3896   3899   3902     1  0.0000000  0.6508444  3
   3897   3896   3899   3900     1  0.0000000  0.6508444  3
   3897   3896   3899   3901     1  0.0000000  0.6508444  3
   3898   3896   3895   3905     1  0.0000000  1.2552000  3
   3898   3896   3899   3902     1  0.0000000  0.6508444  3
   3898   3896   3899   3900     1  0.0000000  0.6508444  3
   3898   3896   3899   3901     1  0.0000000  0.6508444  3
   3900   3899   3902   3903     1  0.0000000  3.3472000  1
   3900   3899   3902   3903     1  0.0000000  0.0000000  2
   3900   3899   3902   3903     1  180.0000771  0.3347200  3
   3900   3899   3902   3904     1  0.0000000  3.3472000  1
   3900   3899   3902   3904     1  0.0000000  0.0000000  2
   3900   3899   3902   3904     1  180.0000771  0.3347200  3
   3901   3899   3902   3903     1  0.0000000  3.3472000  1
   3901   3899   3902   3903     1  0.0000000  0.0000000  2
   3901   3899   3902   3903     1  180.0000771  0.3347200  3
   3901   3899   3902   3904     1  0.0000000  3.3472000  1
   3901   3899   3902   3904     1  0.0000000  0.0000000  2
   3901   3899   3902   3904     1  180.0000771  0.3347200  3
   3906   3905   3908   3911     1  0.0000000  0.6508444  3
   3906   3905   3908   3909     1  0.0000000  0.6508444  3
   3906   3905   3908   3910     1  0.0000000  0.6508444  3
   3907   3905   3908   3911     1  0.0000000  0.6508444  3
   3907   3905   3908   3909     1  0.0000000  0.6508444  3
   3907   3905   3908   3910     1  0.0000000  0.6508444  3
   3909   3908   3911   3912     1  0.0000000  3.3472000  1
   3909   3908   3911   3912     1  0.0000000  0.0000000  2
   3909   3908   3911   3912     1  180.0000771  0.3347200  3
   3909   3908   3911   3913     1  0.0000000  3.3472000  1
   3909   3908   3911   3913     1  0.0000000  0.0000000  2
   3909   3908   3911   3913     1  180.0000771  0.3347200  3
   3910   3908   3911   3912     1  0.0000000  3.3472000  1
   3910   3908   3911   3912     1  0.0000000  0.0000000  2
   3910   3908   3911   3912     1  180.0000771  0.3347200  3
   3910   3908   3911   3913     1  0.0000000  3.3472000  1
   3910   3908   3911   3913     1  0.0000000  0.0000000  2
   3910   3908   3911   3913     1  180.0000771  0.3347200  3
   3915   3918   3921   3922     1  0.0000000  0.6508444  3
   3915   3918   3921   3923     1  0.0000000  0.6508444  3
   3916   3915   3918   3921     1  0.0000000  0.6508444  3
   3916   3915   3918   3919     1  0.0000000  0.6508444  3
   3916   3915   3918   3920     1  0.0000000  0.6508444  3
   3917   3915   3918   3921     1  0.0000000  0.6508444  3
   3917   3915   3918   3919     1  0.0000000  0.6508444  3
   3917   3915   3918   3920     1  0.0000000  0.6508444  3
   3919   3918   3921   3924     1  0.0000000  0.6508444  3
   3919   3918   3921   3922     1  0.0000000  0.6508444  3
   3919   3918   3921   3923     1  0.0000000  0.6508444  3
   3919   3918   3915   3943     1  0.0000000  1.0460000  1
   3919   3918   3915   3943     1  0.0000000  0.0000000  3
   3920   3918   3921   3924     1  0.0000000  0.6508444  3
   3920   3918   3921   3922     1  0.0000000  0.6508444  3
   3920   3918   3921   3923     1  0.0000000  0.6508444  3
   3920   3918   3915   3943     1  0.0000000  1.0460000  1
   3920   3918   3915   3943     1  0.0000000  0.0000000  3
   3921   3924   3925   3926     1  0.0000000  1.2552000  3
   3921   3924   3925   3927     1  0.0000000  1.2552000  3
   3921   3924   3934   3935     1  0.0000000  1.2552000  3
   3921   3924   3934   3936     1  0.0000000  1.2552000  3
   3922   3921   3924   3925     1  0.0000000  1.2552000  3
   3922   3921   3924   3934     1  0.0000000  1.2552000  3
   3923   3921   3924   3925     1  0.0000000  1.2552000  3
   3923   3921   3924   3934     1  0.0000000  1.2552000  3
   3924   3925   3928   3929     1  0.0000000  0.6508444  3
   3924   3925   3928   3930     1  0.0000000  0.6508444  3
   3924   3934   3937   3938     1  0.0000000  0.6508444  3
   3924   3934   3937   3939     1  0.0000000  0.6508444  3
   3925   3924   3934   3935     1  0.0000000  1.2552000  3
   3925   3924   3934   3936     1  0.0000000  1.2552000  3
   3926   3925   3928   3931     1  0.0000000  0.6508444  3
   3926   3925   3928   3929     1  0.0000000  0.6508444  3
   3926   3925   3928   3930     1  0.0000000  0.6508444  3
   3926   3925   3924   3934     1  0.0000000  1.2552000  3
   3927   3925   3928   3931     1  0.0000000  0.6508444  3
   3927   3925   3928   3929     1  0.0000000  0.6508444  3
   3927   3925   3928   3930     1  0.0000000  0.6508444  3
   3927   3925   3924   3934     1  0.0000000  1.2552000  3
   3929   3928   3931   3932     1  0.0000000  3.3472000  1
   3929   3928   3931   3932     1  0.0000000  0.0000000  2
   3929   3928   3931   3932     1  180.0000771  0.3347200  3
   3929   3928   3931   3933     1  0.0000000  3.3472000  1
   3929   3928   3931   3933     1  0.0000000  0.0000000  2
   3929   3928   3931   3933     1  180.0000771  0.3347200  3
   3930   3928   3931   3932     1  0.0000000  3.3472000  1
   3930   3928   3931   3932     1  0.0000000  0.0000000  2
   3930   3928   3931   3932     1  180.0000771  0.3347200  3
   3930   3928   3931   3933     1  0.0000000  3.3472000  1
   3930   3928   3931   3933     1  0.0000000  0.0000000  2
   3930   3928   3931   3933     1  180.0000771  0.3347200  3
   3935   3934   3937   3940     1  0.0000000  0.6508444  3
   3935   3934   3937   3938     1  0.0000000  0.6508444  3
   3935   3934   3937   3939     1  0.0000000  0.6508444  3
   3936   3934   3937   3940     1  0.0000000  0.6508444  3
   3936   3934   3937   3938     1  0.0000000  0.6508444  3
   3936   3934   3937   3939     1  0.0000000  0.6508444  3
   3938   3937   3940   3941     1  0.0000000  3.3472000  1
   3938   3937   3940   3941     1  0.0000000  0.0000000  2
   3938   3937   3940   3941     1  180.0000771  0.3347200  3
   3938   3937   3940   3942     1  0.0000000  3.3472000  1
   3938   3937   3940   3942     1  0.0000000  0.0000000  2
   3938   3937   3940   3942     1  180.0000771  0.3347200  3
   3939   3937   3940   3941     1  0.0000000  3.3472000  1
   3939   3937   3940   3941     1  0.0000000  0.0000000  2
   3939   3937   3940   3941     1  180.0000771  0.3347200  3
   3939   3937   3940   3942     1  0.0000000  3.3472000  1
   3939   3937   3940   3942     1  0.0000000  0.0000000  2
   3939   3937   3940   3942     1  180.0000771  0.3347200  3
   3944   3947   3950   3951     1  0.0000000  0.6508444  3
   3944   3947   3950   3952     1  0.0000000  0.6508444  3
   3945   3944   3947   3950     1  0.0000000  0.6508444  3
   3945   3944   3947   3948     1  0.0000000  0.6508444  3
   3945   3944   3947   3949     1  0.0000000  0.6508444  3
   3946   3944   3947   3950     1  0.0000000  0.6508444  3
   3946   3944   3947   3948     1  0.0000000  0.6508444  3
   3946   3944   3947   3949     1  0.0000000  0.6508444  3
   3948   3947   3944   3972     1  0.0000000  1.0460000  1
   3948   3947   3944   3972     1  0.0000000  0.0000000  3
   3948   3947   3950   3953     1  0.0000000  0.6508444  3
   3948   3947   3950   3951     1  0.0000000  0.6508444  3
   3948   3947   3950   3952     1  0.0000000  0.6508444  3
   3949   3947   3944   3972     1  0.0000000  1.0460000  1
   3949   3947   3944   3972     1  0.0000000  0.0000000  3
   3949   3947   3950   3953     1  0.0000000  0.6508444  3
   3949   3947   3950   3951     1  0.0000000  0.6508444  3
   3949   3947   3950   3952     1  0.0000000  0.6508444  3
   3950   3953   3954   3955     1  0.0000000  1.2552000  3
   3950   3953   3954   3956     1  0.0000000  1.2552000  3
   3950   3953   3963   3964     1  0.0000000  1.2552000  3
   3950   3953   3963   3965     1  0.0000000  1.2552000  3
   3951   3950   3953   3954     1  0.0000000  1.2552000  3
   3951   3950   3953   3963     1  0.0000000  1.2552000  3
   3952   3950   3953   3954     1  0.0000000  1.2552000  3
   3952   3950   3953   3963     1  0.0000000  1.2552000  3
   3953   3954   3957   3958     1  0.0000000  0.6508444  3
   3953   3954   3957   3959     1  0.0000000  0.6508444  3
   3953   3963   3966   3967     1  0.0000000  0.6508444  3
   3953   3963   3966   3968     1  0.0000000  0.6508444  3
   3954   3953   3963   3964     1  0.0000000  1.2552000  3
   3954   3953   3963   3965     1  0.0000000  1.2552000  3
   3955   3954   3953   3963     1  0.0000000  1.2552000  3
   3955   3954   3957   3960     1  0.0000000  0.6508444  3
   3955   3954   3957   3958     1  0.0000000  0.6508444  3
   3955   3954   3957   3959     1  0.0000000  0.6508444  3
   3956   3954   3953   3963     1  0.0000000  1.2552000  3
   3956   3954   3957   3960     1  0.0000000  0.6508444  3
   3956   3954   3957   3958     1  0.0000000  0.6508444  3
   3956   3954   3957   3959     1  0.0000000  0.6508444  3
   3958   3957   3960   3961     1  0.0000000  3.3472000  1
   3958   3957   3960   3961     1  0.0000000  0.0000000  2
   3958   3957   3960   3961     1  180.0000771  0.3347200  3
   3958   3957   3960   3962     1  0.0000000  3.3472000  1
   3958   3957   3960   3962     1  0.0000000  0.0000000  2
   3958   3957   3960   3962     1  180.0000771  0.3347200  3
   3959   3957   3960   3961     1  0.0000000  3.3472000  1
   3959   3957   3960   3961     1  0.0000000  0.0000000  2
   3959   3957   3960   3961     1  180.0000771  0.3347200  3
   3959   3957   3960   3962     1  0.0000000  3.3472000  1
   3959   3957   3960   3962     1  0.0000000  0.0000000  2
   3959   3957   3960   3962     1  180.0000771  0.3347200  3
   3964   3963   3966   3969     1  0.0000000  0.6508444  3
   3964   3963   3966   3967     1  0.0000000  0.6508444  3
   3964   3963   3966   3968     1  0.0000000  0.6508444  3
   3965   3963   3966   3969     1  0.0000000  0.6508444  3
   3965   3963   3966   3967     1  0.0000000  0.6508444  3
   3965   3963   3966   3968     1  0.0000000  0.6508444  3
   3967   3966   3969   3970     1  0.0000000  3.3472000  1
   3967   3966   3969   3970     1  0.0000000  0.0000000  2
   3967   3966   3969   3970     1  180.0000771  0.3347200  3
   3967   3966   3969   3971     1  0.0000000  3.3472000  1
   3967   3966   3969   3971     1  0.0000000  0.0000000  2
   3967   3966   3969   3971     1  180.0000771  0.3347200  3
   3968   3966   3969   3970     1  0.0000000  3.3472000  1
   3968   3966   3969   3970     1  0.0000000  0.0000000  2
   3968   3966   3969   3970     1  180.0000771  0.3347200  3
   3968   3966   3969   3971     1  0.0000000  3.3472000  1
   3968   3966   3969   3971     1  0.0000000  0.0000000  2
   3968   3966   3969   3971     1  180.0000771  0.3347200  3
   3973   3976   3979   3980     1  0.0000000  0.6508444  3
   3973   3976   3979   3981     1  0.0000000  0.6508444  3
   3974   3973   3976   3979     1  0.0000000  0.6508444  3
   3974   3973   3976   3977     1  0.0000000  0.6508444  3
   3974   3973   3976   3978     1  0.0000000  0.6508444  3
   3975   3973   3976   3979     1  0.0000000  0.6508444  3
   3975   3973   3976   3977     1  0.0000000  0.6508444  3
   3975   3973   3976   3978     1  0.0000000  0.6508444  3
   3977   3976   3979   3982     1  0.0000000  0.6508444  3
   3977   3976   3979   3980     1  0.0000000  0.6508444  3
   3977   3976   3979   3981     1  0.0000000  0.6508444  3
   3977   3976   3973   4001     1  0.0000000  1.0460000  1
   3977   3976   3973   4001     1  0.0000000  0.0000000  3
   3978   3976   3979   3982     1  0.0000000  0.6508444  3
   3978   3976   3979   3980     1  0.0000000  0.6508444  3
   3978   3976   3979   3981     1  0.0000000  0.6508444  3
   3978   3976   3973   4001     1  0.0000000  1.0460000  1
   3978   3976   3973   4001     1  0.0000000  0.0000000  3
   3979   3982   3983   3984     1  0.0000000  1.2552000  3
   3979   3982   3983   3985     1  0.0000000  1.2552000  3
   3979   3982   3992   3993     1  0.0000000  1.2552000  3
   3979   3982   3992   3994     1  0.0000000  1.2552000  3
   3980   3979   3982   3983     1  0.0000000  1.2552000  3
   3980   3979   3982   3992     1  0.0000000  1.2552000  3
   3981   3979   3982   3983     1  0.0000000  1.2552000  3
   3981   3979   3982   3992     1  0.0000000  1.2552000  3
   3982   3983   3986   3987     1  0.0000000  0.6508444  3
   3982   3983   3986   3988     1  0.0000000  0.6508444  3
   3982   3992   3995   3996     1  0.0000000  0.6508444  3
   3982   3992   3995   3997     1  0.0000000  0.6508444  3
   3983   3982   3992   3993     1  0.0000000  1.2552000  3
   3983   3982   3992   3994     1  0.0000000  1.2552000  3
   3984   3983   3986   3989     1  0.0000000  0.6508444  3
   3984   3983   3986   3987     1  0.0000000  0.6508444  3
   3984   3983   3986   3988     1  0.0000000  0.6508444  3
   3984   3983   3982   3992     1  0.0000000  1.2552000  3
   3985   3983   3986   3989     1  0.0000000  0.6508444  3
   3985   3983   3986   3987     1  0.0000000  0.6508444  3
   3985   3983   3986   3988     1  0.0000000  0.6508444  3
   3985   3983   3982   3992     1  0.0000000  1.2552000  3
   3987   3986   3989   3990     1  0.0000000  3.3472000  1
   3987   3986   3989   3990     1  0.0000000  0.0000000  2
   3987   3986   3989   3990     1  180.0000771  0.3347200  3
   3987   3986   3989   3991     1  0.0000000  3.3472000  1
   3987   3986   3989   3991     1  0.0000000  0.0000000  2
   3987   3986   3989   3991     1  180.0000771  0.3347200  3
   3988   3986   3989   3990     1  0.0000000  3.3472000  1
   3988   3986   3989   3990     1  0.0000000  0.0000000  2
   3988   3986   3989   3990     1  180.0000771  0.3347200  3
   3988   3986   3989   3991     1  0.0000000  3.3472000  1
   3988   3986   3989   3991     1  0.0000000  0.0000000  2
   3988   3986   3989   3991     1  180.0000771  0.3347200  3
   3993   3992   3995   3998     1  0.0000000  0.6508444  3
   3993   3992   3995   3996     1  0.0000000  0.6508444  3
   3993   3992   3995   3997     1  0.0000000  0.6508444  3
   3994   3992   3995   3998     1  0.0000000  0.6508444  3
   3994   3992   3995   3996     1  0.0000000  0.6508444  3
   3994   3992   3995   3997     1  0.0000000  0.6508444  3
   3996   3995   3998   3999     1  0.0000000  3.3472000  1
   3996   3995   3998   3999     1  0.0000000  0.0000000  2
   3996   3995   3998   3999     1  180.0000771  0.3347200  3
   3996   3995   3998   4000     1  0.0000000  3.3472000  1
   3996   3995   3998   4000     1  0.0000000  0.0000000  2
   3996   3995   3998   4000     1  180.0000771  0.3347200  3
   3997   3995   3998   3999     1  0.0000000  3.3472000  1
   3997   3995   3998   3999     1  0.0000000  0.0000000  2
   3997   3995   3998   3999     1  180.0000771  0.3347200  3
   3997   3995   3998   4000     1  0.0000000  3.3472000  1
   3997   3995   3998   4000     1  0.0000000  0.0000000  2
   3997   3995   3998   4000     1  180.0000771  0.3347200  3
   4002   4005   4008   4009     1  0.0000000  0.6508444  3
   4002   4005   4008   4010     1  0.0000000  0.6508444  3
   4003   4002   4005   4008     1  0.0000000  0.6508444  3
   4003   4002   4005   4006     1  0.0000000  0.6508444  3
   4003   4002   4005   4007     1  0.0000000  0.6508444  3
   4004   4002   4005   4008     1  0.0000000  0.6508444  3
   4004   4002   4005   4006     1  0.0000000  0.6508444  3
   4004   4002   4005   4007     1  0.0000000  0.6508444  3
   4006   4005   4002   4030     1  0.0000000  1.0460000  1
   4006   4005   4002   4030     1  0.0000000  0.0000000  3
   4006   4005   4008   4011     1  0.0000000  0.6508444  3
   4006   4005   4008   4009     1  0.0000000  0.6508444  3
   4006   4005   4008   4010     1  0.0000000  0.6508444  3
   4007   4005   4002   4030     1  0.0000000  1.0460000  1
   4007   4005   4002   4030     1  0.0000000  0.0000000  3
   4007   4005   4008   4011     1  0.0000000  0.6508444  3
   4007   4005   4008   4009     1  0.0000000  0.6508444  3
   4007   4005   4008   4010     1  0.0000000  0.6508444  3
   4008   4011   4012   4013     1  0.0000000  1.2552000  3
   4008   4011   4012   4014     1  0.0000000  1.2552000  3
   4008   4011   4021   4022     1  0.0000000  1.2552000  3
   4008   4011   4021   4023     1  0.0000000  1.2552000  3
   4009   4008   4011   4012     1  0.0000000  1.2552000  3
   4009   4008   4011   4021     1  0.0000000  1.2552000  3
   4010   4008   4011   4012     1  0.0000000  1.2552000  3
   4010   4008   4011   4021     1  0.0000000  1.2552000  3
   4011   4012   4015   4016     1  0.0000000  0.6508444  3
   4011   4012   4015   4017     1  0.0000000  0.6508444  3
   4011   4021   4024   4025     1  0.0000000  0.6508444  3
   4011   4021   4024   4026     1  0.0000000  0.6508444  3
   4012   4011   4021   4022     1  0.0000000  1.2552000  3
   4012   4011   4021   4023     1  0.0000000  1.2552000  3
   4013   4012   4011   4021     1  0.0000000  1.2552000  3
   4013   4012   4015   4018     1  0.0000000  0.6508444  3
   4013   4012   4015   4016     1  0.0000000  0.6508444  3
   4013   4012   4015   4017     1  0.0000000  0.6508444  3
   4014   4012   4011   4021     1  0.0000000  1.2552000  3
   4014   4012   4015   4018     1  0.0000000  0.6508444  3
   4014   4012   4015   4016     1  0.0000000  0.6508444  3
   4014   4012   4015   4017     1  0.0000000  0.6508444  3
   4016   4015   4018   4019     1  0.0000000  3.3472000  1
   4016   4015   4018   4019     1  0.0000000  0.0000000  2
   4016   4015   4018   4019     1  180.0000771  0.3347200  3
   4016   4015   4018   4020     1  0.0000000  3.3472000  1
   4016   4015   4018   4020     1  0.0000000  0.0000000  2
   4016   4015   4018   4020     1  180.0000771  0.3347200  3
   4017   4015   4018   4019     1  0.0000000  3.3472000  1
   4017   4015   4018   4019     1  0.0000000  0.0000000  2
   4017   4015   4018   4019     1  180.0000771  0.3347200  3
   4017   4015   4018   4020     1  0.0000000  3.3472000  1
   4017   4015   4018   4020     1  0.0000000  0.0000000  2
   4017   4015   4018   4020     1  180.0000771  0.3347200  3
   4022   4021   4024   4027     1  0.0000000  0.6508444  3
   4022   4021   4024   4025     1  0.0000000  0.6508444  3
   4022   4021   4024   4026     1  0.0000000  0.6508444  3
   4023   4021   4024   4027     1  0.0000000  0.6508444  3
   4023   4021   4024   4025     1  0.0000000  0.6508444  3
   4023   4021   4024   4026     1  0.0000000  0.6508444  3
   4025   4024   4027   4028     1  0.0000000  3.3472000  1
   4025   4024   4027   4028     1  0.0000000  0.0000000  2
   4025   4024   4027   4028     1  180.0000771  0.3347200  3
   4025   4024   4027   4029     1  0.0000000  3.3472000  1
   4025   4024   4027   4029     1  0.0000000  0.0000000  2
   4025   4024   4027   4029     1  180.0000771  0.3347200  3
   4026   4024   4027   4028     1  0.0000000  3.3472000  1
   4026   4024   4027   4028     1  0.0000000  0.0000000  2
   4026   4024   4027   4028     1  180.0000771  0.3347200  3
   4026   4024   4027   4029     1  0.0000000  3.3472000  1
   4026   4024   4027   4029     1  0.0000000  0.0000000  2
   4026   4024   4027   4029     1  180.0000771  0.3347200  3
   4031   4034   4037   4038     1  0.0000000  0.6508444  3
   4031   4034   4037   4039     1  0.0000000  0.6508444  3
   4032   4031   4034   4037     1  0.0000000  0.6508444  3
   4032   4031   4034   4035     1  0.0000000  0.6508444  3
   4032   4031   4034   4036     1  0.0000000  0.6508444  3
   4033   4031   4034   4037     1  0.0000000  0.6508444  3
   4033   4031   4034   4035     1  0.0000000  0.6508444  3
   4033   4031   4034   4036     1  0.0000000  0.6508444  3
   4035   4034   4037   4040     1  0.0000000  0.6508444  3
   4035   4034   4037   4038     1  0.0000000  0.6508444  3
   4035   4034   4037   4039     1  0.0000000  0.6508444  3
   4035   4034   4031   4059     1  0.0000000  1.0460000  1
   4035   4034   4031   4059     1  0.0000000  0.0000000  3
   4036   4034   4037   4040     1  0.0000000  0.6508444  3
   4036   4034   4037   4038     1  0.0000000  0.6508444  3
   4036   4034   4037   4039     1  0.0000000  0.6508444  3
   4036   4034   4031   4059     1  0.0000000  1.0460000  1
   4036   4034   4031   4059     1  0.0000000  0.0000000  3
   4037   4040   4041   4042     1  0.0000000  1.2552000  3
   4037   4040   4041   4043     1  0.0000000  1.2552000  3
   4037   4040   4050   4051     1  0.0000000  1.2552000  3
   4037   4040   4050   4052     1  0.0000000  1.2552000  3
   4038   4037   4040   4041     1  0.0000000  1.2552000  3
   4038   4037   4040   4050     1  0.0000000  1.2552000  3
   4039   4037   4040   4041     1  0.0000000  1.2552000  3
   4039   4037   4040   4050     1  0.0000000  1.2552000  3
   4040   4041   4044   4045     1  0.0000000  0.6508444  3
   4040   4041   4044   4046     1  0.0000000  0.6508444  3
   4040   4050   4053   4054     1  0.0000000  0.6508444  3
   4040   4050   4053   4055     1  0.0000000  0.6508444  3
   4041   4040   4050   4051     1  0.0000000  1.2552000  3
   4041   4040   4050   4052     1  0.0000000  1.2552000  3
   4042   4041   4044   4047     1  0.0000000  0.6508444  3
   4042   4041   4044   4045     1  0.0000000  0.6508444  3
   4042   4041   4044   4046     1  0.0000000  0.6508444  3
   4042   4041   4040   4050     1  0.0000000  1.2552000  3
   4043   4041   4044   4047     1  0.0000000  0.6508444  3
   4043   4041   4044   4045     1  0.0000000  0.6508444  3
   4043   4041   4044   4046     1  0.0000000  0.6508444  3
   4043   4041   4040   4050     1  0.0000000  1.2552000  3
   4045   4044   4047   4048     1  0.0000000  3.3472000  1
   4045   4044   4047   4048     1  0.0000000  0.0000000  2
   4045   4044   4047   4048     1  180.0000771  0.3347200  3
   4045   4044   4047   4049     1  0.0000000  3.3472000  1
   4045   4044   4047   4049     1  0.0000000  0.0000000  2
   4045   4044   4047   4049     1  180.0000771  0.3347200  3
   4046   4044   4047   4048     1  0.0000000  3.3472000  1
   4046   4044   4047   4048     1  0.0000000  0.0000000  2
   4046   4044   4047   4048     1  180.0000771  0.3347200  3
   4046   4044   4047   4049     1  0.0000000  3.3472000  1
   4046   4044   4047   4049     1  0.0000000  0.0000000  2
   4046   4044   4047   4049     1  180.0000771  0.3347200  3
   4051   4050   4053   4056     1  0.0000000  0.6508444  3
   4051   4050   4053   4054     1  0.0000000  0.6508444  3
   4051   4050   4053   4055     1  0.0000000  0.6508444  3
   4052   4050   4053   4056     1  0.0000000  0.6508444  3
   4052   4050   4053   4054     1  0.0000000  0.6508444  3
   4052   4050   4053   4055     1  0.0000000  0.6508444  3
   4054   4053   4056   4057     1  0.0000000  3.3472000  1
   4054   4053   4056   4057     1  0.0000000  0.0000000  2
   4054   4053   4056   4057     1  180.0000771  0.3347200  3
   4054   4053   4056   4058     1  0.0000000  3.3472000  1
   4054   4053   4056   4058     1  0.0000000  0.0000000  2
   4054   4053   4056   4058     1  180.0000771  0.3347200  3
   4055   4053   4056   4057     1  0.0000000  3.3472000  1
   4055   4053   4056   4057     1  0.0000000  0.0000000  2
   4055   4053   4056   4057     1  180.0000771  0.3347200  3
   4055   4053   4056   4058     1  0.0000000  3.3472000  1
   4055   4053   4056   4058     1  0.0000000  0.0000000  2
   4055   4053   4056   4058     1  180.0000771  0.3347200  3
   4060   4063   4066   4067     1  0.0000000  0.6508444  3
   4060   4063   4066   4068     1  0.0000000  0.6508444  3
   4061   4060   4063   4066     1  0.0000000  0.6508444  3
   4061   4060   4063   4064     1  0.0000000  0.6508444  3
   4061   4060   4063   4065     1  0.0000000  0.6508444  3
   4062   4060   4063   4066     1  0.0000000  0.6508444  3
   4062   4060   4063   4064     1  0.0000000  0.6508444  3
   4062   4060   4063   4065     1  0.0000000  0.6508444  3
   4064   4063   4060   4088     1  0.0000000  1.0460000  1
   4064   4063   4060   4088     1  0.0000000  0.0000000  3
   4064   4063   4066   4069     1  0.0000000  0.6508444  3
   4064   4063   4066   4067     1  0.0000000  0.6508444  3
   4064   4063   4066   4068     1  0.0000000  0.6508444  3
   4065   4063   4060   4088     1  0.0000000  1.0460000  1
   4065   4063   4060   4088     1  0.0000000  0.0000000  3
   4065   4063   4066   4069     1  0.0000000  0.6508444  3
   4065   4063   4066   4067     1  0.0000000  0.6508444  3
   4065   4063   4066   4068     1  0.0000000  0.6508444  3
   4066   4069   4070   4071     1  0.0000000  1.2552000  3
   4066   4069   4070   4072     1  0.0000000  1.2552000  3
   4066   4069   4079   4080     1  0.0000000  1.2552000  3
   4066   4069   4079   4081     1  0.0000000  1.2552000  3
   4067   4066   4069   4070     1  0.0000000  1.2552000  3
   4067   4066   4069   4079     1  0.0000000  1.2552000  3
   4068   4066   4069   4070     1  0.0000000  1.2552000  3
   4068   4066   4069   4079     1  0.0000000  1.2552000  3
   4069   4070   4073   4074     1  0.0000000  0.6508444  3
   4069   4070   4073   4075     1  0.0000000  0.6508444  3
   4069   4079   4082   4083     1  0.0000000  0.6508444  3
   4069   4079   4082   4084     1  0.0000000  0.6508444  3
   4070   4069   4079   4080     1  0.0000000  1.2552000  3
   4070   4069   4079   4081     1  0.0000000  1.2552000  3
   4071   4070   4069   4079     1  0.0000000  1.2552000  3
   4071   4070   4073   4076     1  0.0000000  0.6508444  3
   4071   4070   4073   4074     1  0.0000000  0.6508444  3
   4071   4070   4073   4075     1  0.0000000  0.6508444  3
   4072   4070   4069   4079     1  0.0000000  1.2552000  3
   4072   4070   4073   4076     1  0.0000000  0.6508444  3
   4072   4070   4073   4074     1  0.0000000  0.6508444  3
   4072   4070   4073   4075     1  0.0000000  0.6508444  3
   4074   4073   4076   4077     1  0.0000000  3.3472000  1
   4074   4073   4076   4077     1  0.0000000  0.0000000  2
   4074   4073   4076   4077     1  180.0000771  0.3347200  3
   4074   4073   4076   4078     1  0.0000000  3.3472000  1
   4074   4073   4076   4078     1  0.0000000  0.0000000  2
   4074   4073   4076   4078     1  180.0000771  0.3347200  3
   4075   4073   4076   4077     1  0.0000000  3.3472000  1
   4075   4073   4076   4077     1  0.0000000  0.0000000  2
   4075   4073   4076   4077     1  180.0000771  0.3347200  3
   4075   4073   4076   4078     1  0.0000000  3.3472000  1
   4075   4073   4076   4078     1  0.0000000  0.0000000  2
   4075   4073   4076   4078     1  180.0000771  0.3347200  3
   4080   4079   4082   4085     1  0.0000000  0.6508444  3
   4080   4079   4082   4083     1  0.0000000  0.6508444  3
   4080   4079   4082   4084     1  0.0000000  0.6508444  3
   4081   4079   4082   4085     1  0.0000000  0.6508444  3
   4081   4079   4082   4083     1  0.0000000  0.6508444  3
   4081   4079   4082   4084     1  0.0000000  0.6508444  3
   4083   4082   4085   4086     1  0.0000000  3.3472000  1
   4083   4082   4085   4086     1  0.0000000  0.0000000  2
   4083   4082   4085   4086     1  180.0000771  0.3347200  3
   4083   4082   4085   4087     1  0.0000000  3.3472000  1
   4083   4082   4085   4087     1  0.0000000  0.0000000  2
   4083   4082   4085   4087     1  180.0000771  0.3347200  3
   4084   4082   4085   4086     1  0.0000000  3.3472000  1
   4084   4082   4085   4086     1  0.0000000  0.0000000  2
   4084   4082   4085   4086     1  180.0000771  0.3347200  3
   4084   4082   4085   4087     1  0.0000000  3.3472000  1
   4084   4082   4085   4087     1  0.0000000  0.0000000  2
   4084   4082   4085   4087     1  180.0000771  0.3347200  3
   4089   4092   4095   4096     1  0.0000000  0.6508444  3
   4089   4092   4095   4097     1  0.0000000  0.6508444  3
   4090   4089   4092   4095     1  0.0000000  0.6508444  3
   4090   4089   4092   4093     1  0.0000000  0.6508444  3
   4090   4089   4092   4094     1  0.0000000  0.6508444  3
   4091   4089   4092   4095     1  0.0000000  0.6508444  3
   4091   4089   4092   4093     1  0.0000000  0.6508444  3
   4091   4089   4092   4094     1  0.0000000  0.6508444  3
   4093   4092   4095   4098     1  0.0000000  0.6508444  3
   4093   4092   4095   4096     1  0.0000000  0.6508444  3
   4093   4092   4095   4097     1  0.0000000  0.6508444  3
   4093   4092   4089   4117     1  0.0000000  1.0460000  1
   4093   4092   4089   4117     1  0.0000000  0.0000000  3
   4094   4092   4095   4098     1  0.0000000  0.6508444  3
   4094   4092   4095   4096     1  0.0000000  0.6508444  3
   4094   4092   4095   4097     1  0.0000000  0.6508444  3
   4094   4092   4089   4117     1  0.0000000  1.0460000  1
   4094   4092   4089   4117     1  0.0000000  0.0000000  3
   4095   4098   4099   4100     1  0.0000000  1.2552000  3
   4095   4098   4099   4101     1  0.0000000  1.2552000  3
   4095   4098   4108   4109     1  0.0000000  1.2552000  3
   4095   4098   4108   4110     1  0.0000000  1.2552000  3
   4096   4095   4098   4099     1  0.0000000  1.2552000  3
   4096   4095   4098   4108     1  0.0000000  1.2552000  3
   4097   4095   4098   4099     1  0.0000000  1.2552000  3
   4097   4095   4098   4108     1  0.0000000  1.2552000  3
   4098   4099   4102   4103     1  0.0000000  0.6508444  3
   4098   4099   4102   4104     1  0.0000000  0.6508444  3
   4098   4108   4111   4112     1  0.0000000  0.6508444  3
   4098   4108   4111   4113     1  0.0000000  0.6508444  3
   4099   4098   4108   4109     1  0.0000000  1.2552000  3
   4099   4098   4108   4110     1  0.0000000  1.2552000  3
   4100   4099   4102   4105     1  0.0000000  0.6508444  3
   4100   4099   4102   4103     1  0.0000000  0.6508444  3
   4100   4099   4102   4104     1  0.0000000  0.6508444  3
   4100   4099   4098   4108     1  0.0000000  1.2552000  3
   4101   4099   4102   4105     1  0.0000000  0.6508444  3
   4101   4099   4102   4103     1  0.0000000  0.6508444  3
   4101   4099   4102   4104     1  0.0000000  0.6508444  3
   4101   4099   4098   4108     1  0.0000000  1.2552000  3
   4103   4102   4105   4106     1  0.0000000  3.3472000  1
   4103   4102   4105   4106     1  0.0000000  0.0000000  2
   4103   4102   4105   4106     1  180.0000771  0.3347200  3
   4103   4102   4105   4107     1  0.0000000  3.3472000  1
   4103   4102   4105   4107     1  0.0000000  0.0000000  2
   4103   4102   4105   4107     1  180.0000771  0.3347200  3
   4104   4102   4105   4106     1  0.0000000  3.3472000  1
   4104   4102   4105   4106     1  0.0000000  0.0000000  2
   4104   4102   4105   4106     1  180.0000771  0.3347200  3
   4104   4102   4105   4107     1  0.0000000  3.3472000  1
   4104   4102   4105   4107     1  0.0000000  0.0000000  2
   4104   4102   4105   4107     1  180.0000771  0.3347200  3
   4109   4108   4111   4114     1  0.0000000  0.6508444  3
   4109   4108   4111   4112     1  0.0000000  0.6508444  3
   4109   4108   4111   4113     1  0.0000000  0.6508444  3
   4110   4108   4111   4114     1  0.0000000  0.6508444  3
   4110   4108   4111   4112     1  0.0000000  0.6508444  3
   4110   4108   4111   4113     1  0.0000000  0.6508444  3
   4112   4111   4114   4115     1  0.0000000  3.3472000  1
   4112   4111   4114   4115     1  0.0000000  0.0000000  2
   4112   4111   4114   4115     1  180.0000771  0.3347200  3
   4112   4111   4114   4116     1  0.0000000  3.3472000  1
   4112   4111   4114   4116     1  0.0000000  0.0000000  2
   4112   4111   4114   4116     1  180.0000771  0.3347200  3
   4113   4111   4114   4115     1  0.0000000  3.3472000  1
   4113   4111   4114   4115     1  0.0000000  0.0000000  2
   4113   4111   4114   4115     1  180.0000771  0.3347200  3
   4113   4111   4114   4116     1  0.0000000  3.3472000  1
   4113   4111   4114   4116     1  0.0000000  0.0000000  2
   4113   4111   4114   4116     1  180.0000771  0.3347200  3
   4118   4121   4124   4125     1  0.0000000  0.6508444  3
   4118   4121   4124   4126     1  0.0000000  0.6508444  3
   4119   4118   4121   4124     1  0.0000000  0.6508444  3
   4119   4118   4121   4122     1  0.0000000  0.6508444  3
   4119   4118   4121   4123     1  0.0000000  0.6508444  3
   4120   4118   4121   4124     1  0.0000000  0.6508444  3
   4120   4118   4121   4122     1  0.0000000  0.6508444  3
   4120   4118   4121   4123     1  0.0000000  0.6508444  3
   4122   4121   4118   4146     1  0.0000000  1.0460000  1
   4122   4121   4118   4146     1  0.0000000  0.0000000  3
   4122   4121   4124   4127     1  0.0000000  0.6508444  3
   4122   4121   4124   4125     1  0.0000000  0.6508444  3
   4122   4121   4124   4126     1  0.0000000  0.6508444  3
   4123   4121   4118   4146     1  0.0000000  1.0460000  1
   4123   4121   4118   4146     1  0.0000000  0.0000000  3
   4123   4121   4124   4127     1  0.0000000  0.6508444  3
   4123   4121   4124   4125     1  0.0000000  0.6508444  3
   4123   4121   4124   4126     1  0.0000000  0.6508444  3
   4124   4127   4128   4129     1  0.0000000  1.2552000  3
   4124   4127   4128   4130     1  0.0000000  1.2552000  3
   4124   4127   4137   4138     1  0.0000000  1.2552000  3
   4124   4127   4137   4139     1  0.0000000  1.2552000  3
   4125   4124   4127   4128     1  0.0000000  1.2552000  3
   4125   4124   4127   4137     1  0.0000000  1.2552000  3
   4126   4124   4127   4128     1  0.0000000  1.2552000  3
   4126   4124   4127   4137     1  0.0000000  1.2552000  3
   4127   4128   4131   4132     1  0.0000000  0.6508444  3
   4127   4128   4131   4133     1  0.0000000  0.6508444  3
   4127   4137   4140   4141     1  0.0000000  0.6508444  3
   4127   4137   4140   4142     1  0.0000000  0.6508444  3
   4128   4127   4137   4138     1  0.0000000  1.2552000  3
   4128   4127   4137   4139     1  0.0000000  1.2552000  3
   4129   4128   4127   4137     1  0.0000000  1.2552000  3
   4129   4128   4131   4134     1  0.0000000  0.6508444  3
   4129   4128   4131   4132     1  0.0000000  0.6508444  3
   4129   4128   4131   4133     1  0.0000000  0.6508444  3
   4130   4128   4127   4137     1  0.0000000  1.2552000  3
   4130   4128   4131   4134     1  0.0000000  0.6508444  3
   4130   4128   4131   4132     1  0.0000000  0.6508444  3
   4130   4128   4131   4133     1  0.0000000  0.6508444  3
   4132   4131   4134   4135     1  0.0000000  3.3472000  1
   4132   4131   4134   4135     1  0.0000000  0.0000000  2
   4132   4131   4134   4135     1  180.0000771  0.3347200  3
   4132   4131   4134   4136     1  0.0000000  3.3472000  1
   4132   4131   4134   4136     1  0.0000000  0.0000000  2
   4132   4131   4134   4136     1  180.0000771  0.3347200  3
   4133   4131   4134   4135     1  0.0000000  3.3472000  1
   4133   4131   4134   4135     1  0.0000000  0.0000000  2
   4133   4131   4134   4135     1  180.0000771  0.3347200  3
   4133   4131   4134   4136     1  0.0000000  3.3472000  1
   4133   4131   4134   4136     1  0.0000000  0.0000000  2
   4133   4131   4134   4136     1  180.0000771  0.3347200  3
   4138   4137   4140   4143     1  0.0000000  0.6508444  3
   4138   4137   4140   4141     1  0.0000000  0.6508444  3
   4138   4137   4140   4142     1  0.0000000  0.6508444  3
   4139   4137   4140   4143     1  0.0000000  0.6508444  3
   4139   4137   4140   4141     1  0.0000000  0.6508444  3
   4139   4137   4140   4142     1  0.0000000  0.6508444  3
   4141   4140   4143   4144     1  0.0000000  3.3472000  1
   4141   4140   4143   4144     1  0.0000000  0.0000000  2
   4141   4140   4143   4144     1  180.0000771  0.3347200  3
   4141   4140   4143   4145     1  0.0000000  3.3472000  1
   4141   4140   4143   4145     1  0.0000000  0.0000000  2
   4141   4140   4143   4145     1  180.0000771  0.3347200  3
   4142   4140   4143   4144     1  0.0000000  3.3472000  1
   4142   4140   4143   4144     1  0.0000000  0.0000000  2
   4142   4140   4143   4144     1  180.0000771  0.3347200  3
   4142   4140   4143   4145     1  0.0000000  3.3472000  1
   4142   4140   4143   4145     1  0.0000000  0.0000000  2
   4142   4140   4143   4145     1  180.0000771  0.3347200  3
   4147   4150   4153   4154     1  0.0000000  0.6508444  3
   4147   4150   4153   4155     1  0.0000000  0.6508444  3
   4148   4147   4150   4153     1  0.0000000  0.6508444  3
   4148   4147   4150   4151     1  0.0000000  0.6508444  3
   4148   4147   4150   4152     1  0.0000000  0.6508444  3
   4149   4147   4150   4153     1  0.0000000  0.6508444  3
   4149   4147   4150   4151     1  0.0000000  0.6508444  3
   4149   4147   4150   4152     1  0.0000000  0.6508444  3
   4151   4150   4153   4156     1  0.0000000  0.6508444  3
   4151   4150   4153   4154     1  0.0000000  0.6508444  3
   4151   4150   4153   4155     1  0.0000000  0.6508444  3
   4151   4150   4147   4175     1  0.0000000  1.0460000  1
   4151   4150   4147   4175     1  0.0000000  0.0000000  3
   4152   4150   4153   4156     1  0.0000000  0.6508444  3
   4152   4150   4153   4154     1  0.0000000  0.6508444  3
   4152   4150   4153   4155     1  0.0000000  0.6508444  3
   4152   4150   4147   4175     1  0.0000000  1.0460000  1
   4152   4150   4147   4175     1  0.0000000  0.0000000  3
   4153   4156   4157   4158     1  0.0000000  1.2552000  3
   4153   4156   4157   4159     1  0.0000000  1.2552000  3
   4153   4156   4166   4167     1  0.0000000  1.2552000  3
   4153   4156   4166   4168     1  0.0000000  1.2552000  3
   4154   4153   4156   4157     1  0.0000000  1.2552000  3
   4154   4153   4156   4166     1  0.0000000  1.2552000  3
   4155   4153   4156   4157     1  0.0000000  1.2552000  3
   4155   4153   4156   4166     1  0.0000000  1.2552000  3
   4156   4157   4160   4161     1  0.0000000  0.6508444  3
   4156   4157   4160   4162     1  0.0000000  0.6508444  3
   4156   4166   4169   4170     1  0.0000000  0.6508444  3
   4156   4166   4169   4171     1  0.0000000  0.6508444  3
   4157   4156   4166   4167     1  0.0000000  1.2552000  3
   4157   4156   4166   4168     1  0.0000000  1.2552000  3
   4158   4157   4160   4163     1  0.0000000  0.6508444  3
   4158   4157   4160   4161     1  0.0000000  0.6508444  3
   4158   4157   4160   4162     1  0.0000000  0.6508444  3
   4158   4157   4156   4166     1  0.0000000  1.2552000  3
   4159   4157   4160   4163     1  0.0000000  0.6508444  3
   4159   4157   4160   4161     1  0.0000000  0.6508444  3
   4159   4157   4160   4162     1  0.0000000  0.6508444  3
   4159   4157   4156   4166     1  0.0000000  1.2552000  3
   4161   4160   4163   4164     1  0.0000000  3.3472000  1
   4161   4160   4163   4164     1  0.0000000  0.0000000  2
   4161   4160   4163   4164     1  180.0000771  0.3347200  3
   4161   4160   4163   4165     1  0.0000000  3.3472000  1
   4161   4160   4163   4165     1  0.0000000  0.0000000  2
   4161   4160   4163   4165     1  180.0000771  0.3347200  3
   4162   4160   4163   4164     1  0.0000000  3.3472000  1
   4162   4160   4163   4164     1  0.0000000  0.0000000  2
   4162   4160   4163   4164     1  180.0000771  0.3347200  3
   4162   4160   4163   4165     1  0.0000000  3.3472000  1
   4162   4160   4163   4165     1  0.0000000  0.0000000  2
   4162   4160   4163   4165     1  180.0000771  0.3347200  3
   4167   4166   4169   4172     1  0.0000000  0.6508444  3
   4167   4166   4169   4170     1  0.0000000  0.6508444  3
   4167   4166   4169   4171     1  0.0000000  0.6508444  3
   4168   4166   4169   4172     1  0.0000000  0.6508444  3
   4168   4166   4169   4170     1  0.0000000  0.6508444  3
   4168   4166   4169   4171     1  0.0000000  0.6508444  3
   4170   4169   4172   4173     1  0.0000000  3.3472000  1
   4170   4169   4172   4173     1  0.0000000  0.0000000  2
   4170   4169   4172   4173     1  180.0000771  0.3347200  3
   4170   4169   4172   4174     1  0.0000000  3.3472000  1
   4170   4169   4172   4174     1  0.0000000  0.0000000  2
   4170   4169   4172   4174     1  180.0000771  0.3347200  3
   4171   4169   4172   4173     1  0.0000000  3.3472000  1
   4171   4169   4172   4173     1  0.0000000  0.0000000  2
   4171   4169   4172   4173     1  180.0000771  0.3347200  3
   4171   4169   4172   4174     1  0.0000000  3.3472000  1
   4171   4169   4172   4174     1  0.0000000  0.0000000  2
   4171   4169   4172   4174     1  180.0000771  0.3347200  3
   4176   4179   4182   4183     1  0.0000000  0.6508444  3
   4176   4179   4182   4184     1  0.0000000  0.6508444  3
   4177   4176   4179   4182     1  0.0000000  0.6508444  3
   4177   4176   4179   4180     1  0.0000000  0.6508444  3
   4177   4176   4179   4181     1  0.0000000  0.6508444  3
   4178   4176   4179   4182     1  0.0000000  0.6508444  3
   4178   4176   4179   4180     1  0.0000000  0.6508444  3
   4178   4176   4179   4181     1  0.0000000  0.6508444  3
   4180   4179   4176   4204     1  0.0000000  1.0460000  1
   4180   4179   4176   4204     1  0.0000000  0.0000000  3
   4180   4179   4182   4185     1  0.0000000  0.6508444  3
   4180   4179   4182   4183     1  0.0000000  0.6508444  3
   4180   4179   4182   4184     1  0.0000000  0.6508444  3
   4181   4179   4176   4204     1  0.0000000  1.0460000  1
   4181   4179   4176   4204     1  0.0000000  0.0000000  3
   4181   4179   4182   4185     1  0.0000000  0.6508444  3
   4181   4179   4182   4183     1  0.0000000  0.6508444  3
   4181   4179   4182   4184     1  0.0000000  0.6508444  3
   4182   4185   4186   4187     1  0.0000000  1.2552000  3
   4182   4185   4186   4188     1  0.0000000  1.2552000  3
   4182   4185   4195   4196     1  0.0000000  1.2552000  3
   4182   4185   4195   4197     1  0.0000000  1.2552000  3
   4183   4182   4185   4186     1  0.0000000  1.2552000  3
   4183   4182   4185   4195     1  0.0000000  1.2552000  3
   4184   4182   4185   4186     1  0.0000000  1.2552000  3
   4184   4182   4185   4195     1  0.0000000  1.2552000  3
   4185   4186   4189   4190     1  0.0000000  0.6508444  3
   4185   4186   4189   4191     1  0.0000000  0.6508444  3
   4185   4195   4198   4199     1  0.0000000  0.6508444  3
   4185   4195   4198   4200     1  0.0000000  0.6508444  3
   4186   4185   4195   4196     1  0.0000000  1.2552000  3
   4186   4185   4195   4197     1  0.0000000  1.2552000  3
   4187   4186   4185   4195     1  0.0000000  1.2552000  3
   4187   4186   4189   4192     1  0.0000000  0.6508444  3
   4187   4186   4189   4190     1  0.0000000  0.6508444  3
   4187   4186   4189   4191     1  0.0000000  0.6508444  3
   4188   4186   4185   4195     1  0.0000000  1.2552000  3
   4188   4186   4189   4192     1  0.0000000  0.6508444  3
   4188   4186   4189   4190     1  0.0000000  0.6508444  3
   4188   4186   4189   4191     1  0.0000000  0.6508444  3
   4190   4189   4192   4193     1  0.0000000  3.3472000  1
   4190   4189   4192   4193     1  0.0000000  0.0000000  2
   4190   4189   4192   4193     1  180.0000771  0.3347200  3
   4190   4189   4192   4194     1  0.0000000  3.3472000  1
   4190   4189   4192   4194     1  0.0000000  0.0000000  2
   4190   4189   4192   4194     1  180.0000771  0.3347200  3
   4191   4189   4192   4193     1  0.0000000  3.3472000  1
   4191   4189   4192   4193     1  0.0000000  0.0000000  2
   4191   4189   4192   4193     1  180.0000771  0.3347200  3
   4191   4189   4192   4194     1  0.0000000  3.3472000  1
   4191   4189   4192   4194     1  0.0000000  0.0000000  2
   4191   4189   4192   4194     1  180.0000771  0.3347200  3
   4196   4195   4198   4201     1  0.0000000  0.6508444  3
   4196   4195   4198   4199     1  0.0000000  0.6508444  3
   4196   4195   4198   4200     1  0.0000000  0.6508444  3
   4197   4195   4198   4201     1  0.0000000  0.6508444  3
   4197   4195   4198   4199     1  0.0000000  0.6508444  3
   4197   4195   4198   4200     1  0.0000000  0.6508444  3
   4199   4198   4201   4202     1  0.0000000  3.3472000  1
   4199   4198   4201   4202     1  0.0000000  0.0000000  2
   4199   4198   4201   4202     1  180.0000771  0.3347200  3
   4199   4198   4201   4203     1  0.0000000  3.3472000  1
   4199   4198   4201   4203     1  0.0000000  0.0000000  2
   4199   4198   4201   4203     1  180.0000771  0.3347200  3
   4200   4198   4201   4202     1  0.0000000  3.3472000  1
   4200   4198   4201   4202     1  0.0000000  0.0000000  2
   4200   4198   4201   4202     1  180.0000771  0.3347200  3
   4200   4198   4201   4203     1  0.0000000  3.3472000  1
   4200   4198   4201   4203     1  0.0000000  0.0000000  2
   4200   4198   4201   4203     1  180.0000771  0.3347200  3
   4205   4208   4211   4212     1  0.0000000  0.6508444  3
   4205   4208   4211   4213     1  0.0000000  0.6508444  3
   4206   4205   4208   4211     1  0.0000000  0.6508444  3
   4206   4205   4208   4209     1  0.0000000  0.6508444  3
   4206   4205   4208   4210     1  0.0000000  0.6508444  3
   4207   4205   4208   4211     1  0.0000000  0.6508444  3
   4207   4205   4208   4209     1  0.0000000  0.6508444  3
   4207   4205   4208   4210     1  0.0000000  0.6508444  3
   4209   4208   4211   4214     1  0.0000000  0.6508444  3
   4209   4208   4211   4212     1  0.0000000  0.6508444  3
   4209   4208   4211   4213     1  0.0000000  0.6508444  3
   4209   4208   4205   4233     1  0.0000000  1.0460000  1
   4209   4208   4205   4233     1  0.0000000  0.0000000  3
   4210   4208   4211   4214     1  0.0000000  0.6508444  3
   4210   4208   4211   4212     1  0.0000000  0.6508444  3
   4210   4208   4211   4213     1  0.0000000  0.6508444  3
   4210   4208   4205   4233     1  0.0000000  1.0460000  1
   4210   4208   4205   4233     1  0.0000000  0.0000000  3
   4211   4214   4215   4216     1  0.0000000  1.2552000  3
   4211   4214   4215   4217     1  0.0000000  1.2552000  3
   4211   4214   4224   4225     1  0.0000000  1.2552000  3
   4211   4214   4224   4226     1  0.0000000  1.2552000  3
   4212   4211   4214   4215     1  0.0000000  1.2552000  3
   4212   4211   4214   4224     1  0.0000000  1.2552000  3
   4213   4211   4214   4215     1  0.0000000  1.2552000  3
   4213   4211   4214   4224     1  0.0000000  1.2552000  3
   4214   4215   4218   4219     1  0.0000000  0.6508444  3
   4214   4215   4218   4220     1  0.0000000  0.6508444  3
   4214   4224   4227   4228     1  0.0000000  0.6508444  3
   4214   4224   4227   4229     1  0.0000000  0.6508444  3
   4215   4214   4224   4225     1  0.0000000  1.2552000  3
   4215   4214   4224   4226     1  0.0000000  1.2552000  3
   4216   4215   4218   4221     1  0.0000000  0.6508444  3
   4216   4215   4218   4219     1  0.0000000  0.6508444  3
   4216   4215   4218   4220     1  0.0000000  0.6508444  3
   4216   4215   4214   4224     1  0.0000000  1.2552000  3
   4217   4215   4218   4221     1  0.0000000  0.6508444  3
   4217   4215   4218   4219     1  0.0000000  0.6508444  3
   4217   4215   4218   4220     1  0.0000000  0.6508444  3
   4217   4215   4214   4224     1  0.0000000  1.2552000  3
   4219   4218   4221   4222     1  0.0000000  3.3472000  1
   4219   4218   4221   4222     1  0.0000000  0.0000000  2
   4219   4218   4221   4222     1  180.0000771  0.3347200  3
   4219   4218   4221   4223     1  0.0000000  3.3472000  1
   4219   4218   4221   4223     1  0.0000000  0.0000000  2
   4219   4218   4221   4223     1  180.0000771  0.3347200  3
   4220   4218   4221   4222     1  0.0000000  3.3472000  1
   4220   4218   4221   4222     1  0.0000000  0.0000000  2
   4220   4218   4221   4222     1  180.0000771  0.3347200  3
   4220   4218   4221   4223     1  0.0000000  3.3472000  1
   4220   4218   4221   4223     1  0.0000000  0.0000000  2
   4220   4218   4221   4223     1  180.0000771  0.3347200  3
   4225   4224   4227   4230     1  0.0000000  0.6508444  3
   4225   4224   4227   4228     1  0.0000000  0.6508444  3
   4225   4224   4227   4229     1  0.0000000  0.6508444  3
   4226   4224   4227   4230     1  0.0000000  0.6508444  3
   4226   4224   4227   4228     1  0.0000000  0.6508444  3
   4226   4224   4227   4229     1  0.0000000  0.6508444  3
   4228   4227   4230   4231     1  0.0000000  3.3472000  1
   4228   4227   4230   4231     1  0.0000000  0.0000000  2
   4228   4227   4230   4231     1  180.0000771  0.3347200  3
   4228   4227   4230   4232     1  0.0000000  3.3472000  1
   4228   4227   4230   4232     1  0.0000000  0.0000000  2
   4228   4227   4230   4232     1  180.0000771  0.3347200  3
   4229   4227   4230   4231     1  0.0000000  3.3472000  1
   4229   4227   4230   4231     1  0.0000000  0.0000000  2
   4229   4227   4230   4231     1  180.0000771  0.3347200  3
   4229   4227   4230   4232     1  0.0000000  3.3472000  1
   4229   4227   4230   4232     1  0.0000000  0.0000000  2
   4229   4227   4230   4232     1  180.0000771  0.3347200  3
   4234   4237   4240   4241     1  0.0000000  0.6508444  3
   4234   4237   4240   4242     1  0.0000000  0.6508444  3
   4235   4234   4237   4240     1  0.0000000  0.6508444  3
   4235   4234   4237   4238     1  0.0000000  0.6508444  3
   4235   4234   4237   4239     1  0.0000000  0.6508444  3
   4236   4234   4237   4240     1  0.0000000  0.6508444  3
   4236   4234   4237   4238     1  0.0000000  0.6508444  3
   4236   4234   4237   4239     1  0.0000000  0.6508444  3
   4238   4237   4234   4262     1  0.0000000  1.0460000  1
   4238   4237   4234   4262     1  0.0000000  0.0000000  3
   4238   4237   4240   4243     1  0.0000000  0.6508444  3
   4238   4237   4240   4241     1  0.0000000  0.6508444  3
   4238   4237   4240   4242     1  0.0000000  0.6508444  3
   4239   4237   4234   4262     1  0.0000000  1.0460000  1
   4239   4237   4234   4262     1  0.0000000  0.0000000  3
   4239   4237   4240   4243     1  0.0000000  0.6508444  3
   4239   4237   4240   4241     1  0.0000000  0.6508444  3
   4239   4237   4240   4242     1  0.0000000  0.6508444  3
   4240   4243   4244   4245     1  0.0000000  1.2552000  3
   4240   4243   4244   4246     1  0.0000000  1.2552000  3
   4240   4243   4253   4254     1  0.0000000  1.2552000  3
   4240   4243   4253   4255     1  0.0000000  1.2552000  3
   4241   4240   4243   4244     1  0.0000000  1.2552000  3
   4241   4240   4243   4253     1  0.0000000  1.2552000  3
   4242   4240   4243   4244     1  0.0000000  1.2552000  3
   4242   4240   4243   4253     1  0.0000000  1.2552000  3
   4243   4244   4247   4248     1  0.0000000  0.6508444  3
   4243   4244   4247   4249     1  0.0000000  0.6508444  3
   4243   4253   4256   4257     1  0.0000000  0.6508444  3
   4243   4253   4256   4258     1  0.0000000  0.6508444  3
   4244   4243   4253   4254     1  0.0000000  1.2552000  3
   4244   4243   4253   4255     1  0.0000000  1.2552000  3
   4245   4244   4243   4253     1  0.0000000  1.2552000  3
   4245   4244   4247   4250     1  0.0000000  0.6508444  3
   4245   4244   4247   4248     1  0.0000000  0.6508444  3
   4245   4244   4247   4249     1  0.0000000  0.6508444  3
   4246   4244   4243   4253     1  0.0000000  1.2552000  3
   4246   4244   4247   4250     1  0.0000000  0.6508444  3
   4246   4244   4247   4248     1  0.0000000  0.6508444  3
   4246   4244   4247   4249     1  0.0000000  0.6508444  3
   4248   4247   4250   4251     1  0.0000000  3.3472000  1
   4248   4247   4250   4251     1  0.0000000  0.0000000  2
   4248   4247   4250   4251     1  180.0000771  0.3347200  3
   4248   4247   4250   4252     1  0.0000000  3.3472000  1
   4248   4247   4250   4252     1  0.0000000  0.0000000  2
   4248   4247   4250   4252     1  180.0000771  0.3347200  3
   4249   4247   4250   4251     1  0.0000000  3.3472000  1
   4249   4247   4250   4251     1  0.0000000  0.0000000  2
   4249   4247   4250   4251     1  180.0000771  0.3347200  3
   4249   4247   4250   4252     1  0.0000000  3.3472000  1
   4249   4247   4250   4252     1  0.0000000  0.0000000  2
   4249   4247   4250   4252     1  180.0000771  0.3347200  3
   4254   4253   4256   4259     1  0.0000000  0.6508444  3
   4254   4253   4256   4257     1  0.0000000  0.6508444  3
   4254   4253   4256   4258     1  0.0000000  0.6508444  3
   4255   4253   4256   4259     1  0.0000000  0.6508444  3
   4255   4253   4256   4257     1  0.0000000  0.6508444  3
   4255   4253   4256   4258     1  0.0000000  0.6508444  3
   4257   4256   4259   4260     1  0.0000000  3.3472000  1
   4257   4256   4259   4260     1  0.0000000  0.0000000  2
   4257   4256   4259   4260     1  180.0000771  0.3347200  3
   4257   4256   4259   4261     1  0.0000000  3.3472000  1
   4257   4256   4259   4261     1  0.0000000  0.0000000  2
   4257   4256   4259   4261     1  180.0000771  0.3347200  3
   4258   4256   4259   4260     1  0.0000000  3.3472000  1
   4258   4256   4259   4260     1  0.0000000  0.0000000  2
   4258   4256   4259   4260     1  180.0000771  0.3347200  3
   4258   4256   4259   4261     1  0.0000000  3.3472000  1
   4258   4256   4259   4261     1  0.0000000  0.0000000  2
   4258   4256   4259   4261     1  180.0000771  0.3347200  3
   4263   4266   4269   4270     1  0.0000000  0.6508444  3
   4263   4266   4269   4271     1  0.0000000  0.6508444  3
   4264   4263   4266   4269     1  0.0000000  0.6508444  3
   4264   4263   4266   4267     1  0.0000000  0.6508444  3
   4264   4263   4266   4268     1  0.0000000  0.6508444  3
   4265   4263   4266   4269     1  0.0000000  0.6508444  3
   4265   4263   4266   4267     1  0.0000000  0.6508444  3
   4265   4263   4266   4268     1  0.0000000  0.6508444  3
   4267   4266   4269   4272     1  0.0000000  0.6508444  3
   4267   4266   4269   4270     1  0.0000000  0.6508444  3
   4267   4266   4269   4271     1  0.0000000  0.6508444  3
   4267   4266   4263   4291     1  0.0000000  1.0460000  1
   4267   4266   4263   4291     1  0.0000000  0.0000000  3
   4268   4266   4269   4272     1  0.0000000  0.6508444  3
   4268   4266   4269   4270     1  0.0000000  0.6508444  3
   4268   4266   4269   4271     1  0.0000000  0.6508444  3
   4268   4266   4263   4291     1  0.0000000  1.0460000  1
   4268   4266   4263   4291     1  0.0000000  0.0000000  3
   4269   4272   4273   4274     1  0.0000000  1.2552000  3
   4269   4272   4273   4275     1  0.0000000  1.2552000  3
   4269   4272   4282   4283     1  0.0000000  1.2552000  3
   4269   4272   4282   4284     1  0.0000000  1.2552000  3
   4270   4269   4272   4273     1  0.0000000  1.2552000  3
   4270   4269   4272   4282     1  0.0000000  1.2552000  3
   4271   4269   4272   4273     1  0.0000000  1.2552000  3
   4271   4269   4272   4282     1  0.0000000  1.2552000  3
   4272   4273   4276   4277     1  0.0000000  0.6508444  3
   4272   4273   4276   4278     1  0.0000000  0.6508444  3
   4272   4282   4285   4286     1  0.0000000  0.6508444  3
   4272   4282   4285   4287     1  0.0000000  0.6508444  3
   4273   4272   4282   4283     1  0.0000000  1.2552000  3
   4273   4272   4282   4284     1  0.0000000  1.2552000  3
   4274   4273   4276   4279     1  0.0000000  0.6508444  3
   4274   4273   4276   4277     1  0.0000000  0.6508444  3
   4274   4273   4276   4278     1  0.0000000  0.6508444  3
   4274   4273   4272   4282     1  0.0000000  1.2552000  3
   4275   4273   4276   4279     1  0.0000000  0.6508444  3
   4275   4273   4276   4277     1  0.0000000  0.6508444  3
   4275   4273   4276   4278     1  0.0000000  0.6508444  3
   4275   4273   4272   4282     1  0.0000000  1.2552000  3
   4277   4276   4279   4280     1  0.0000000  3.3472000  1
   4277   4276   4279   4280     1  0.0000000  0.0000000  2
   4277   4276   4279   4280     1  180.0000771  0.3347200  3
   4277   4276   4279   4281     1  0.0000000  3.3472000  1
   4277   4276   4279   4281     1  0.0000000  0.0000000  2
   4277   4276   4279   4281     1  180.0000771  0.3347200  3
   4278   4276   4279   4280     1  0.0000000  3.3472000  1
   4278   4276   4279   4280     1  0.0000000  0.0000000  2
   4278   4276   4279   4280     1  180.0000771  0.3347200  3
   4278   4276   4279   4281     1  0.0000000  3.3472000  1
   4278   4276   4279   4281     1  0.0000000  0.0000000  2
   4278   4276   4279   4281     1  180.0000771  0.3347200  3
   4283   4282   4285   4288     1  0.0000000  0.6508444  3
   4283   4282   4285   4286     1  0.0000000  0.6508444  3
   4283   4282   4285   4287     1  0.0000000  0.6508444  3
   4284   4282   4285   4288     1  0.0000000  0.6508444  3
   4284   4282   4285   4286     1  0.0000000  0.6508444  3
   4284   4282   4285   4287     1  0.0000000  0.6508444  3
   4286   4285   4288   4289     1  0.0000000  3.3472000  1
   4286   4285   4288   4289     1  0.0000000  0.0000000  2
   4286   4285   4288   4289     1  180.0000771  0.3347200  3
   4286   4285   4288   4290     1  0.0000000  3.3472000  1
   4286   4285   4288   4290     1  0.0000000  0.0000000  2
   4286   4285   4288   4290     1  180.0000771  0.3347200  3
   4287   4285   4288   4289     1  0.0000000  3.3472000  1
   4287   4285   4288   4289     1  0.0000000  0.0000000  2
   4287   4285   4288   4289     1  180.0000771  0.3347200  3
   4287   4285   4288   4290     1  0.0000000  3.3472000  1
   4287   4285   4288   4290     1  0.0000000  0.0000000  2
   4287   4285   4288   4290     1  180.0000771  0.3347200  3
   4292   4295   4298   4299     1  0.0000000  0.6508444  3
   4292   4295   4298   4300     1  0.0000000  0.6508444  3
   4293   4292   4295   4298     1  0.0000000  0.6508444  3
   4293   4292   4295   4296     1  0.0000000  0.6508444  3
   4293   4292   4295   4297     1  0.0000000  0.6508444  3
   4294   4292   4295   4298     1  0.0000000  0.6508444  3
   4294   4292   4295   4296     1  0.0000000  0.6508444  3
   4294   4292   4295   4297     1  0.0000000  0.6508444  3
   4296   4295   4292   4320     1  0.0000000  1.0460000  1
   4296   4295   4292   4320     1  0.0000000  0.0000000  3
   4296   4295   4298   4301     1  0.0000000  0.6508444  3
   4296   4295   4298   4299     1  0.0000000  0.6508444  3
   4296   4295   4298   4300     1  0.0000000  0.6508444  3
   4297   4295   4292   4320     1  0.0000000  1.0460000  1
   4297   4295   4292   4320     1  0.0000000  0.0000000  3
   4297   4295   4298   4301     1  0.0000000  0.6508444  3
   4297   4295   4298   4299     1  0.0000000  0.6508444  3
   4297   4295   4298   4300     1  0.0000000  0.6508444  3
   4298   4301   4302   4303     1  0.0000000  1.2552000  3
   4298   4301   4302   4304     1  0.0000000  1.2552000  3
   4298   4301   4311   4312     1  0.0000000  1.2552000  3
   4298   4301   4311   4313     1  0.0000000  1.2552000  3
   4299   4298   4301   4302     1  0.0000000  1.2552000  3
   4299   4298   4301   4311     1  0.0000000  1.2552000  3
   4300   4298   4301   4302     1  0.0000000  1.2552000  3
   4300   4298   4301   4311     1  0.0000000  1.2552000  3
   4301   4302   4305   4306     1  0.0000000  0.6508444  3
   4301   4302   4305   4307     1  0.0000000  0.6508444  3
   4301   4311   4314   4315     1  0.0000000  0.6508444  3
   4301   4311   4314   4316     1  0.0000000  0.6508444  3
   4302   4301   4311   4312     1  0.0000000  1.2552000  3
   4302   4301   4311   4313     1  0.0000000  1.2552000  3
   4303   4302   4301   4311     1  0.0000000  1.2552000  3
   4303   4302   4305   4308     1  0.0000000  0.6508444  3
   4303   4302   4305   4306     1  0.0000000  0.6508444  3
   4303   4302   4305   4307     1  0.0000000  0.6508444  3
   4304   4302   4301   4311     1  0.0000000  1.2552000  3
   4304   4302   4305   4308     1  0.0000000  0.6508444  3
   4304   4302   4305   4306     1  0.0000000  0.6508444  3
   4304   4302   4305   4307     1  0.0000000  0.6508444  3
   4306   4305   4308   4309     1  0.0000000  3.3472000  1
   4306   4305   4308   4309     1  0.0000000  0.0000000  2
   4306   4305   4308   4309     1  180.0000771  0.3347200  3
   4306   4305   4308   4310     1  0.0000000  3.3472000  1
   4306   4305   4308   4310     1  0.0000000  0.0000000  2
   4306   4305   4308   4310     1  180.0000771  0.3347200  3
   4307   4305   4308   4309     1  0.0000000  3.3472000  1
   4307   4305   4308   4309     1  0.0000000  0.0000000  2
   4307   4305   4308   4309     1  180.0000771  0.3347200  3
   4307   4305   4308   4310     1  0.0000000  3.3472000  1
   4307   4305   4308   4310     1  0.0000000  0.0000000  2
   4307   4305   4308   4310     1  180.0000771  0.3347200  3
   4312   4311   4314   4317     1  0.0000000  0.6508444  3
   4312   4311   4314   4315     1  0.0000000  0.6508444  3
   4312   4311   4314   4316     1  0.0000000  0.6508444  3
   4313   4311   4314   4317     1  0.0000000  0.6508444  3
   4313   4311   4314   4315     1  0.0000000  0.6508444  3
   4313   4311   4314   4316     1  0.0000000  0.6508444  3
   4315   4314   4317   4318     1  0.0000000  3.3472000  1
   4315   4314   4317   4318     1  0.0000000  0.0000000  2
   4315   4314   4317   4318     1  180.0000771  0.3347200  3
   4315   4314   4317   4319     1  0.0000000  3.3472000  1
   4315   4314   4317   4319     1  0.0000000  0.0000000  2
   4315   4314   4317   4319     1  180.0000771  0.3347200  3
   4316   4314   4317   4318     1  0.0000000  3.3472000  1
   4316   4314   4317   4318     1  0.0000000  0.0000000  2
   4316   4314   4317   4318     1  180.0000771  0.3347200  3
   4316   4314   4317   4319     1  0.0000000  3.3472000  1
   4316   4314   4317   4319     1  0.0000000  0.0000000  2
   4316   4314   4317   4319     1  180.0000771  0.3347200  3
   4321   4324   4327   4328     1  0.0000000  0.6508444  3
   4321   4324   4327   4329     1  0.0000000  0.6508444  3
   4322   4321   4324   4327     1  0.0000000  0.6508444  3
   4322   4321   4324   4325     1  0.0000000  0.6508444  3
   4322   4321   4324   4326     1  0.0000000  0.6508444  3
   4323   4321   4324   4327     1  0.0000000  0.6508444  3
   4323   4321   4324   4325     1  0.0000000  0.6508444  3
   4323   4321   4324   4326     1  0.0000000  0.6508444  3
   4325   4324   4327   4330     1  0.0000000  0.6508444  3
   4325   4324   4327   4328     1  0.0000000  0.6508444  3
   4325   4324   4327   4329     1  0.0000000  0.6508444  3
   4325   4324   4321   4349     1  0.0000000  1.0460000  1
   4325   4324   4321   4349     1  0.0000000  0.0000000  3
   4326   4324   4327   4330     1  0.0000000  0.6508444  3
   4326   4324   4327   4328     1  0.0000000  0.6508444  3
   4326   4324   4327   4329     1  0.0000000  0.6508444  3
   4326   4324   4321   4349     1  0.0000000  1.0460000  1
   4326   4324   4321   4349     1  0.0000000  0.0000000  3
   4327   4330   4331   4332     1  0.0000000  1.2552000  3
   4327   4330   4331   4333     1  0.0000000  1.2552000  3
   4327   4330   4340   4341     1  0.0000000  1.2552000  3
   4327   4330   4340   4342     1  0.0000000  1.2552000  3
   4328   4327   4330   4331     1  0.0000000  1.2552000  3
   4328   4327   4330   4340     1  0.0000000  1.2552000  3
   4329   4327   4330   4331     1  0.0000000  1.2552000  3
   4329   4327   4330   4340     1  0.0000000  1.2552000  3
   4330   4331   4334   4335     1  0.0000000  0.6508444  3
   4330   4331   4334   4336     1  0.0000000  0.6508444  3
   4330   4340   4343   4344     1  0.0000000  0.6508444  3
   4330   4340   4343   4345     1  0.0000000  0.6508444  3
   4331   4330   4340   4341     1  0.0000000  1.2552000  3
   4331   4330   4340   4342     1  0.0000000  1.2552000  3
   4332   4331   4334   4337     1  0.0000000  0.6508444  3
   4332   4331   4334   4335     1  0.0000000  0.6508444  3
   4332   4331   4334   4336     1  0.0000000  0.6508444  3
   4332   4331   4330   4340     1  0.0000000  1.2552000  3
   4333   4331   4334   4337     1  0.0000000  0.6508444  3
   4333   4331   4334   4335     1  0.0000000  0.6508444  3
   4333   4331   4334   4336     1  0.0000000  0.6508444  3
   4333   4331   4330   4340     1  0.0000000  1.2552000  3
   4335   4334   4337   4338     1  0.0000000  3.3472000  1
   4335   4334   4337   4338     1  0.0000000  0.0000000  2
   4335   4334   4337   4338     1  180.0000771  0.3347200  3
   4335   4334   4337   4339     1  0.0000000  3.3472000  1
   4335   4334   4337   4339     1  0.0000000  0.0000000  2
   4335   4334   4337   4339     1  180.0000771  0.3347200  3
   4336   4334   4337   4338     1  0.0000000  3.3472000  1
   4336   4334   4337   4338     1  0.0000000  0.0000000  2
   4336   4334   4337   4338     1  180.0000771  0.3347200  3
   4336   4334   4337   4339     1  0.0000000  3.3472000  1
   4336   4334   4337   4339     1  0.0000000  0.0000000  2
   4336   4334   4337   4339     1  180.0000771  0.3347200  3
   4341   4340   4343   4346     1  0.0000000  0.6508444  3
   4341   4340   4343   4344     1  0.0000000  0.6508444  3
   4341   4340   4343   4345     1  0.0000000  0.6508444  3
   4342   4340   4343   4346     1  0.0000000  0.6508444  3
   4342   4340   4343   4344     1  0.0000000  0.6508444  3
   4342   4340   4343   4345     1  0.0000000  0.6508444  3
   4344   4343   4346   4347     1  0.0000000  3.3472000  1
   4344   4343   4346   4347     1  0.0000000  0.0000000  2
   4344   4343   4346   4347     1  180.0000771  0.3347200  3
   4344   4343   4346   4348     1  0.0000000  3.3472000  1
   4344   4343   4346   4348     1  0.0000000  0.0000000  2
   4344   4343   4346   4348     1  180.0000771  0.3347200  3
   4345   4343   4346   4347     1  0.0000000  3.3472000  1
   4345   4343   4346   4347     1  0.0000000  0.0000000  2
   4345   4343   4346   4347     1  180.0000771  0.3347200  3
   4345   4343   4346   4348     1  0.0000000  3.3472000  1
   4345   4343   4346   4348     1  0.0000000  0.0000000  2
   4345   4343   4346   4348     1  180.0000771  0.3347200  3
   4350   4353   4356   4357     1  0.0000000  0.6508444  3
   4350   4353   4356   4358     1  0.0000000  0.6508444  3
   4351   4350   4353   4356     1  0.0000000  0.6508444  3
   4351   4350   4353   4354     1  0.0000000  0.6508444  3
   4351   4350   4353   4355     1  0.0000000  0.6508444  3
   4352   4350   4353   4356     1  0.0000000  0.6508444  3
   4352   4350   4353   4354     1  0.0000000  0.6508444  3
   4352   4350   4353   4355     1  0.0000000  0.6508444  3
   4354   4353   4350   4378     1  0.0000000  1.0460000  1
   4354   4353   4350   4378     1  0.0000000  0.0000000  3
   4354   4353   4356   4359     1  0.0000000  0.6508444  3
   4354   4353   4356   4357     1  0.0000000  0.6508444  3
   4354   4353   4356   4358     1  0.0000000  0.6508444  3
   4355   4353   4350   4378     1  0.0000000  1.0460000  1
   4355   4353   4350   4378     1  0.0000000  0.0000000  3
   4355   4353   4356   4359     1  0.0000000  0.6508444  3
   4355   4353   4356   4357     1  0.0000000  0.6508444  3
   4355   4353   4356   4358     1  0.0000000  0.6508444  3
   4356   4359   4360   4361     1  0.0000000  1.2552000  3
   4356   4359   4360   4362     1  0.0000000  1.2552000  3
   4356   4359   4369   4370     1  0.0000000  1.2552000  3
   4356   4359   4369   4371     1  0.0000000  1.2552000  3
   4357   4356   4359   4360     1  0.0000000  1.2552000  3
   4357   4356   4359   4369     1  0.0000000  1.2552000  3
   4358   4356   4359   4360     1  0.0000000  1.2552000  3
   4358   4356   4359   4369     1  0.0000000  1.2552000  3
   4359   4360   4363   4364     1  0.0000000  0.6508444  3
   4359   4360   4363   4365     1  0.0000000  0.6508444  3
   4359   4369   4372   4373     1  0.0000000  0.6508444  3
   4359   4369   4372   4374     1  0.0000000  0.6508444  3
   4360   4359   4369   4370     1  0.0000000  1.2552000  3
   4360   4359   4369   4371     1  0.0000000  1.2552000  3
   4361   4360   4359   4369     1  0.0000000  1.2552000  3
   4361   4360   4363   4366     1  0.0000000  0.6508444  3
   4361   4360   4363   4364     1  0.0000000  0.6508444  3
   4361   4360   4363   4365     1  0.0000000  0.6508444  3
   4362   4360   4359   4369     1  0.0000000  1.2552000  3
   4362   4360   4363   4366     1  0.0000000  0.6508444  3
   4362   4360   4363   4364     1  0.0000000  0.6508444  3
   4362   4360   4363   4365     1  0.0000000  0.6508444  3
   4364   4363   4366   4367     1  0.0000000  3.3472000  1
   4364   4363   4366   4367     1  0.0000000  0.0000000  2
   4364   4363   4366   4367     1  180.0000771  0.3347200  3
   4364   4363   4366   4368     1  0.0000000  3.3472000  1
   4364   4363   4366   4368     1  0.0000000  0.0000000  2
   4364   4363   4366   4368     1  180.0000771  0.3347200  3
   4365   4363   4366   4367     1  0.0000000  3.3472000  1
   4365   4363   4366   4367     1  0.0000000  0.0000000  2
   4365   4363   4366   4367     1  180.0000771  0.3347200  3
   4365   4363   4366   4368     1  0.0000000  3.3472000  1
   4365   4363   4366   4368     1  0.0000000  0.0000000  2
   4365   4363   4366   4368     1  180.0000771  0.3347200  3
   4370   4369   4372   4375     1  0.0000000  0.6508444  3
   4370   4369   4372   4373     1  0.0000000  0.6508444  3
   4370   4369   4372   4374     1  0.0000000  0.6508444  3
   4371   4369   4372   4375     1  0.0000000  0.6508444  3
   4371   4369   4372   4373     1  0.0000000  0.6508444  3
   4371   4369   4372   4374     1  0.0000000  0.6508444  3
   4373   4372   4375   4376     1  0.0000000  3.3472000  1
   4373   4372   4375   4376     1  0.0000000  0.0000000  2
   4373   4372   4375   4376     1  180.0000771  0.3347200  3
   4373   4372   4375   4377     1  0.0000000  3.3472000  1
   4373   4372   4375   4377     1  0.0000000  0.0000000  2
   4373   4372   4375   4377     1  180.0000771  0.3347200  3
   4374   4372   4375   4376     1  0.0000000  3.3472000  1
   4374   4372   4375   4376     1  0.0000000  0.0000000  2
   4374   4372   4375   4376     1  180.0000771  0.3347200  3
   4374   4372   4375   4377     1  0.0000000  3.3472000  1
   4374   4372   4375   4377     1  0.0000000  0.0000000  2
   4374   4372   4375   4377     1  180.0000771  0.3347200  3
   4379   4382   4385   4386     1  0.0000000  0.6508444  3
   4379   4382   4385   4387     1  0.0000000  0.6508444  3
   4380   4379   4382   4385     1  0.0000000  0.6508444  3
   4380   4379   4382   4383     1  0.0000000  0.6508444  3
   4380   4379   4382   4384     1  0.0000000  0.6508444  3
   4381   4379   4382   4385     1  0.0000000  0.6508444  3
   4381   4379   4382   4383     1  0.0000000  0.6508444  3
   4381   4379   4382   4384     1  0.0000000  0.6508444  3
   4383   4382   4385   4388     1  0.0000000  0.6508444  3
   4383   4382   4385   4386     1  0.0000000  0.6508444  3
   4383   4382   4385   4387     1  0.0000000  0.6508444  3
   4383   4382   4379   4407     1  0.0000000  1.0460000  1
   4383   4382   4379   4407     1  0.0000000  0.0000000  3
   4384   4382   4385   4388     1  0.0000000  0.6508444  3
   4384   4382   4385   4386     1  0.0000000  0.6508444  3
   4384   4382   4385   4387     1  0.0000000  0.6508444  3
   4384   4382   4379   4407     1  0.0000000  1.0460000  1
   4384   4382   4379   4407     1  0.0000000  0.0000000  3
   4385   4388   4389   4390     1  0.0000000  1.2552000  3
   4385   4388   4389   4391     1  0.0000000  1.2552000  3
   4385   4388   4398   4399     1  0.0000000  1.2552000  3
   4385   4388   4398   4400     1  0.0000000  1.2552000  3
   4386   4385   4388   4389     1  0.0000000  1.2552000  3
   4386   4385   4388   4398     1  0.0000000  1.2552000  3
   4387   4385   4388   4389     1  0.0000000  1.2552000  3
   4387   4385   4388   4398     1  0.0000000  1.2552000  3
   4388   4389   4392   4393     1  0.0000000  0.6508444  3
   4388   4389   4392   4394     1  0.0000000  0.6508444  3
   4388   4398   4401   4402     1  0.0000000  0.6508444  3
   4388   4398   4401   4403     1  0.0000000  0.6508444  3
   4389   4388   4398   4399     1  0.0000000  1.2552000  3
   4389   4388   4398   4400     1  0.0000000  1.2552000  3
   4390   4389   4392   4395     1  0.0000000  0.6508444  3
   4390   4389   4392   4393     1  0.0000000  0.6508444  3
   4390   4389   4392   4394     1  0.0000000  0.6508444  3
   4390   4389   4388   4398     1  0.0000000  1.2552000  3
   4391   4389   4392   4395     1  0.0000000  0.6508444  3
   4391   4389   4392   4393     1  0.0000000  0.6508444  3
   4391   4389   4392   4394     1  0.0000000  0.6508444  3
   4391   4389   4388   4398     1  0.0000000  1.2552000  3
   4393   4392   4395   4396     1  0.0000000  3.3472000  1
   4393   4392   4395   4396     1  0.0000000  0.0000000  2
   4393   4392   4395   4396     1  180.0000771  0.3347200  3
   4393   4392   4395   4397     1  0.0000000  3.3472000  1
   4393   4392   4395   4397     1  0.0000000  0.0000000  2
   4393   4392   4395   4397     1  180.0000771  0.3347200  3
   4394   4392   4395   4396     1  0.0000000  3.3472000  1
   4394   4392   4395   4396     1  0.0000000  0.0000000  2
   4394   4392   4395   4396     1  180.0000771  0.3347200  3
   4394   4392   4395   4397     1  0.0000000  3.3472000  1
   4394   4392   4395   4397     1  0.0000000  0.0000000  2
   4394   4392   4395   4397     1  180.0000771  0.3347200  3
   4399   4398   4401   4404     1  0.0000000  0.6508444  3
   4399   4398   4401   4402     1  0.0000000  0.6508444  3
   4399   4398   4401   4403     1  0.0000000  0.6508444  3
   4400   4398   4401   4404     1  0.0000000  0.6508444  3
   4400   4398   4401   4402     1  0.0000000  0.6508444  3
   4400   4398   4401   4403     1  0.0000000  0.6508444  3
   4402   4401   4404   4405     1  0.0000000  3.3472000  1
   4402   4401   4404   4405     1  0.0000000  0.0000000  2
   4402   4401   4404   4405     1  180.0000771  0.3347200  3
   4402   4401   4404   4406     1  0.0000000  3.3472000  1
   4402   4401   4404   4406     1  0.0000000  0.0000000  2
   4402   4401   4404   4406     1  180.0000771  0.3347200  3
   4403   4401   4404   4405     1  0.0000000  3.3472000  1
   4403   4401   4404   4405     1  0.0000000  0.0000000  2
   4403   4401   4404   4405     1  180.0000771  0.3347200  3
   4403   4401   4404   4406     1  0.0000000  3.3472000  1
   4403   4401   4404   4406     1  0.0000000  0.0000000  2
   4403   4401   4404   4406     1  180.0000771  0.3347200  3
   4408   4411   4414   4415     1  0.0000000  0.6508444  3
   4408   4411   4414   4416     1  0.0000000  0.6508444  3
   4409   4408   4411   4414     1  0.0000000  0.6508444  3
   4409   4408   4411   4412     1  0.0000000  0.6508444  3
   4409   4408   4411   4413     1  0.0000000  0.6508444  3
   4410   4408   4411   4414     1  0.0000000  0.6508444  3
   4410   4408   4411   4412     1  0.0000000  0.6508444  3
   4410   4408   4411   4413     1  0.0000000  0.6508444  3
   4412   4411   4408   4436     1  0.0000000  1.0460000  1
   4412   4411   4408   4436     1  0.0000000  0.0000000  3
   4412   4411   4414   4417     1  0.0000000  0.6508444  3
   4412   4411   4414   4415     1  0.0000000  0.6508444  3
   4412   4411   4414   4416     1  0.0000000  0.6508444  3
   4413   4411   4408   4436     1  0.0000000  1.0460000  1
   4413   4411   4408   4436     1  0.0000000  0.0000000  3
   4413   4411   4414   4417     1  0.0000000  0.6508444  3
   4413   4411   4414   4415     1  0.0000000  0.6508444  3
   4413   4411   4414   4416     1  0.0000000  0.6508444  3
   4414   4417   4418   4419     1  0.0000000  1.2552000  3
   4414   4417   4418   4420     1  0.0000000  1.2552000  3
   4414   4417   4427   4428     1  0.0000000  1.2552000  3
   4414   4417   4427   4429     1  0.0000000  1.2552000  3
   4415   4414   4417   4418     1  0.0000000  1.2552000  3
   4415   4414   4417   4427     1  0.0000000  1.2552000  3
   4416   4414   4417   4418     1  0.0000000  1.2552000  3
   4416   4414   4417   4427     1  0.0000000  1.2552000  3
   4417   4418   4421   4422     1  0.0000000  0.6508444  3
   4417   4418   4421   4423     1  0.0000000  0.6508444  3
   4417   4427   4430   4431     1  0.0000000  0.6508444  3
   4417   4427   4430   4432     1  0.0000000  0.6508444  3
   4418   4417   4427   4428     1  0.0000000  1.2552000  3
   4418   4417   4427   4429     1  0.0000000  1.2552000  3
   4419   4418   4417   4427     1  0.0000000  1.2552000  3
   4419   4418   4421   4424     1  0.0000000  0.6508444  3
   4419   4418   4421   4422     1  0.0000000  0.6508444  3
   4419   4418   4421   4423     1  0.0000000  0.6508444  3
   4420   4418   4417   4427     1  0.0000000  1.2552000  3
   4420   4418   4421   4424     1  0.0000000  0.6508444  3
   4420   4418   4421   4422     1  0.0000000  0.6508444  3
   4420   4418   4421   4423     1  0.0000000  0.6508444  3
   4422   4421   4424   4425     1  0.0000000  3.3472000  1
   4422   4421   4424   4425     1  0.0000000  0.0000000  2
   4422   4421   4424   4425     1  180.0000771  0.3347200  3
   4422   4421   4424   4426     1  0.0000000  3.3472000  1
   4422   4421   4424   4426     1  0.0000000  0.0000000  2
   4422   4421   4424   4426     1  180.0000771  0.3347200  3
   4423   4421   4424   4425     1  0.0000000  3.3472000  1
   4423   4421   4424   4425     1  0.0000000  0.0000000  2
   4423   4421   4424   4425     1  180.0000771  0.3347200  3
   4423   4421   4424   4426     1  0.0000000  3.3472000  1
   4423   4421   4424   4426     1  0.0000000  0.0000000  2
   4423   4421   4424   4426     1  180.0000771  0.3347200  3
   4428   4427   4430   4433     1  0.0000000  0.6508444  3
   4428   4427   4430   4431     1  0.0000000  0.6508444  3
   4428   4427   4430   4432     1  0.0000000  0.6508444  3
   4429   4427   4430   4433     1  0.0000000  0.6508444  3
   4429   4427   4430   4431     1  0.0000000  0.6508444  3
   4429   4427   4430   4432     1  0.0000000  0.6508444  3
   4431   4430   4433   4434     1  0.0000000  3.3472000  1
   4431   4430   4433   4434     1  0.0000000  0.0000000  2
   4431   4430   4433   4434     1  180.0000771  0.3347200  3
   4431   4430   4433   4435     1  0.0000000  3.3472000  1
   4431   4430   4433   4435     1  0.0000000  0.0000000  2
   4431   4430   4433   4435     1  180.0000771  0.3347200  3
   4432   4430   4433   4434     1  0.0000000  3.3472000  1
   4432   4430   4433   4434     1  0.0000000  0.0000000  2
   4432   4430   4433   4434     1  180.0000771  0.3347200  3
   4432   4430   4433   4435     1  0.0000000  3.3472000  1
   4432   4430   4433   4435     1  0.0000000  0.0000000  2
   4432   4430   4433   4435     1  180.0000771  0.3347200  3
   4437   4440   4443   4444     1  0.0000000  0.6508444  3
   4437   4440   4443   4445     1  0.0000000  0.6508444  3
   4438   4437   4440   4443     1  0.0000000  0.6508444  3
   4438   4437   4440   4441     1  0.0000000  0.6508444  3
   4438   4437   4440   4442     1  0.0000000  0.6508444  3
   4439   4437   4440   4443     1  0.0000000  0.6508444  3
   4439   4437   4440   4441     1  0.0000000  0.6508444  3
   4439   4437   4440   4442     1  0.0000000  0.6508444  3
   4441   4440   4443   4446     1  0.0000000  0.6508444  3
   4441   4440   4443   4444     1  0.0000000  0.6508444  3
   4441   4440   4443   4445     1  0.0000000  0.6508444  3
   4441   4440   4437   4465     1  0.0000000  1.0460000  1
   4441   4440   4437   4465     1  0.0000000  0.0000000  3
   4442   4440   4443   4446     1  0.0000000  0.6508444  3
   4442   4440   4443   4444     1  0.0000000  0.6508444  3
   4442   4440   4443   4445     1  0.0000000  0.6508444  3
   4442   4440   4437   4465     1  0.0000000  1.0460000  1
   4442   4440   4437   4465     1  0.0000000  0.0000000  3
   4443   4446   4447   4448     1  0.0000000  1.2552000  3
   4443   4446   4447   4449     1  0.0000000  1.2552000  3
   4443   4446   4456   4457     1  0.0000000  1.2552000  3
   4443   4446   4456   4458     1  0.0000000  1.2552000  3
   4444   4443   4446   4447     1  0.0000000  1.2552000  3
   4444   4443   4446   4456     1  0.0000000  1.2552000  3
   4445   4443   4446   4447     1  0.0000000  1.2552000  3
   4445   4443   4446   4456     1  0.0000000  1.2552000  3
   4446   4447   4450   4451     1  0.0000000  0.6508444  3
   4446   4447   4450   4452     1  0.0000000  0.6508444  3
   4446   4456   4459   4460     1  0.0000000  0.6508444  3
   4446   4456   4459   4461     1  0.0000000  0.6508444  3
   4447   4446   4456   4457     1  0.0000000  1.2552000  3
   4447   4446   4456   4458     1  0.0000000  1.2552000  3
   4448   4447   4450   4453     1  0.0000000  0.6508444  3
   4448   4447   4450   4451     1  0.0000000  0.6508444  3
   4448   4447   4450   4452     1  0.0000000  0.6508444  3
   4448   4447   4446   4456     1  0.0000000  1.2552000  3
   4449   4447   4450   4453     1  0.0000000  0.6508444  3
   4449   4447   4450   4451     1  0.0000000  0.6508444  3
   4449   4447   4450   4452     1  0.0000000  0.6508444  3
   4449   4447   4446   4456     1  0.0000000  1.2552000  3
   4451   4450   4453   4454     1  0.0000000  3.3472000  1
   4451   4450   4453   4454     1  0.0000000  0.0000000  2
   4451   4450   4453   4454     1  180.0000771  0.3347200  3
   4451   4450   4453   4455     1  0.0000000  3.3472000  1
   4451   4450   4453   4455     1  0.0000000  0.0000000  2
   4451   4450   4453   4455     1  180.0000771  0.3347200  3
   4452   4450   4453   4454     1  0.0000000  3.3472000  1
   4452   4450   4453   4454     1  0.0000000  0.0000000  2
   4452   4450   4453   4454     1  180.0000771  0.3347200  3
   4452   4450   4453   4455     1  0.0000000  3.3472000  1
   4452   4450   4453   4455     1  0.0000000  0.0000000  2
   4452   4450   4453   4455     1  180.0000771  0.3347200  3
   4457   4456   4459   4462     1  0.0000000  0.6508444  3
   4457   4456   4459   4460     1  0.0000000  0.6508444  3
   4457   4456   4459   4461     1  0.0000000  0.6508444  3
   4458   4456   4459   4462     1  0.0000000  0.6508444  3
   4458   4456   4459   4460     1  0.0000000  0.6508444  3
   4458   4456   4459   4461     1  0.0000000  0.6508444  3
   4460   4459   4462   4463     1  0.0000000  3.3472000  1
   4460   4459   4462   4463     1  0.0000000  0.0000000  2
   4460   4459   4462   4463     1  180.0000771  0.3347200  3
   4460   4459   4462   4464     1  0.0000000  3.3472000  1
   4460   4459   4462   4464     1  0.0000000  0.0000000  2
   4460   4459   4462   4464     1  180.0000771  0.3347200  3
   4461   4459   4462   4463     1  0.0000000  3.3472000  1
   4461   4459   4462   4463     1  0.0000000  0.0000000  2
   4461   4459   4462   4463     1  180.0000771  0.3347200  3
   4461   4459   4462   4464     1  0.0000000  3.3472000  1
   4461   4459   4462   4464     1  0.0000000  0.0000000  2
   4461   4459   4462   4464     1  180.0000771  0.3347200  3
   4466   4469   4472   4473     1  0.0000000  0.6508444  3
   4466   4469   4472   4474     1  0.0000000  0.6508444  3
   4467   4466   4469   4472     1  0.0000000  0.6508444  3
   4467   4466   4469   4470     1  0.0000000  0.6508444  3
   4467   4466   4469   4471     1  0.0000000  0.6508444  3
   4468   4466   4469   4472     1  0.0000000  0.6508444  3
   4468   4466   4469   4470     1  0.0000000  0.6508444  3
   4468   4466   4469   4471     1  0.0000000  0.6508444  3
   4470   4469   4466   4494     1  0.0000000  1.0460000  1
   4470   4469   4466   4494     1  0.0000000  0.0000000  3
   4470   4469   4472   4475     1  0.0000000  0.6508444  3
   4470   4469   4472   4473     1  0.0000000  0.6508444  3
   4470   4469   4472   4474     1  0.0000000  0.6508444  3
   4471   4469   4466   4494     1  0.0000000  1.0460000  1
   4471   4469   4466   4494     1  0.0000000  0.0000000  3
   4471   4469   4472   4475     1  0.0000000  0.6508444  3
   4471   4469   4472   4473     1  0.0000000  0.6508444  3
   4471   4469   4472   4474     1  0.0000000  0.6508444  3
   4472   4475   4476   4477     1  0.0000000  1.2552000  3
   4472   4475   4476   4478     1  0.0000000  1.2552000  3
   4472   4475   4485   4486     1  0.0000000  1.2552000  3
   4472   4475   4485   4487     1  0.0000000  1.2552000  3
   4473   4472   4475   4476     1  0.0000000  1.2552000  3
   4473   4472   4475   4485     1  0.0000000  1.2552000  3
   4474   4472   4475   4476     1  0.0000000  1.2552000  3
   4474   4472   4475   4485     1  0.0000000  1.2552000  3
   4475   4476   4479   4480     1  0.0000000  0.6508444  3
   4475   4476   4479   4481     1  0.0000000  0.6508444  3
   4475   4485   4488   4489     1  0.0000000  0.6508444  3
   4475   4485   4488   4490     1  0.0000000  0.6508444  3
   4476   4475   4485   4486     1  0.0000000  1.2552000  3
   4476   4475   4485   4487     1  0.0000000  1.2552000  3
   4477   4476   4475   4485     1  0.0000000  1.2552000  3
   4477   4476   4479   4482     1  0.0000000  0.6508444  3
   4477   4476   4479   4480     1  0.0000000  0.6508444  3
   4477   4476   4479   4481     1  0.0000000  0.6508444  3
   4478   4476   4475   4485     1  0.0000000  1.2552000  3
   4478   4476   4479   4482     1  0.0000000  0.6508444  3
   4478   4476   4479   4480     1  0.0000000  0.6508444  3
   4478   4476   4479   4481     1  0.0000000  0.6508444  3
   4480   4479   4482   4483     1  0.0000000  3.3472000  1
   4480   4479   4482   4483     1  0.0000000  0.0000000  2
   4480   4479   4482   4483     1  180.0000771  0.3347200  3
   4480   4479   4482   4484     1  0.0000000  3.3472000  1
   4480   4479   4482   4484     1  0.0000000  0.0000000  2
   4480   4479   4482   4484     1  180.0000771  0.3347200  3
   4481   4479   4482   4483     1  0.0000000  3.3472000  1
   4481   4479   4482   4483     1  0.0000000  0.0000000  2
   4481   4479   4482   4483     1  180.0000771  0.3347200  3
   4481   4479   4482   4484     1  0.0000000  3.3472000  1
   4481   4479   4482   4484     1  0.0000000  0.0000000  2
   4481   4479   4482   4484     1  180.0000771  0.3347200  3
   4486   4485   4488   4491     1  0.0000000  0.6508444  3
   4486   4485   4488   4489     1  0.0000000  0.6508444  3
   4486   4485   4488   4490     1  0.0000000  0.6508444  3
   4487   4485   4488   4491     1  0.0000000  0.6508444  3
   4487   4485   4488   4489     1  0.0000000  0.6508444  3
   4487   4485   4488   4490     1  0.0000000  0.6508444  3
   4489   4488   4491   4492     1  0.0000000  3.3472000  1
   4489   4488   4491   4492     1  0.0000000  0.0000000  2
   4489   4488   4491   4492     1  180.0000771  0.3347200  3
   4489   4488   4491   4493     1  0.0000000  3.3472000  1
   4489   4488   4491   4493     1  0.0000000  0.0000000  2
   4489   4488   4491   4493     1  180.0000771  0.3347200  3
   4490   4488   4491   4492     1  0.0000000  3.3472000  1
   4490   4488   4491   4492     1  0.0000000  0.0000000  2
   4490   4488   4491   4492     1  180.0000771  0.3347200  3
   4490   4488   4491   4493     1  0.0000000  3.3472000  1
   4490   4488   4491   4493     1  0.0000000  0.0000000  2
   4490   4488   4491   4493     1  180.0000771  0.3347200  3
   4495   4498   4501   4502     1  0.0000000  0.6508444  3
   4495   4498   4501   4503     1  0.0000000  0.6508444  3
   4496   4495   4498   4501     1  0.0000000  0.6508444  3
   4496   4495   4498   4499     1  0.0000000  0.6508444  3
   4496   4495   4498   4500     1  0.0000000  0.6508444  3
   4497   4495   4498   4501     1  0.0000000  0.6508444  3
   4497   4495   4498   4499     1  0.0000000  0.6508444  3
   4497   4495   4498   4500     1  0.0000000  0.6508444  3
   4499   4498   4501   4504     1  0.0000000  0.6508444  3
   4499   4498   4501   4502     1  0.0000000  0.6508444  3
   4499   4498   4501   4503     1  0.0000000  0.6508444  3
   4499   4498   4495   4523     1  0.0000000  1.0460000  1
   4499   4498   4495   4523     1  0.0000000  0.0000000  3
   4500   4498   4501   4504     1  0.0000000  0.6508444  3
   4500   4498   4501   4502     1  0.0000000  0.6508444  3
   4500   4498   4501   4503     1  0.0000000  0.6508444  3
   4500   4498   4495   4523     1  0.0000000  1.0460000  1
   4500   4498   4495   4523     1  0.0000000  0.0000000  3
   4501   4504   4505   4506     1  0.0000000  1.2552000  3
   4501   4504   4505   4507     1  0.0000000  1.2552000  3
   4501   4504   4514   4515     1  0.0000000  1.2552000  3
   4501   4504   4514   4516     1  0.0000000  1.2552000  3
   4502   4501   4504   4505     1  0.0000000  1.2552000  3
   4502   4501   4504   4514     1  0.0000000  1.2552000  3
   4503   4501   4504   4505     1  0.0000000  1.2552000  3
   4503   4501   4504   4514     1  0.0000000  1.2552000  3
   4504   4505   4508   4509     1  0.0000000  0.6508444  3
   4504   4505   4508   4510     1  0.0000000  0.6508444  3
   4504   4514   4517   4518     1  0.0000000  0.6508444  3
   4504   4514   4517   4519     1  0.0000000  0.6508444  3
   4505   4504   4514   4515     1  0.0000000  1.2552000  3
   4505   4504   4514   4516     1  0.0000000  1.2552000  3
   4506   4505   4508   4511     1  0.0000000  0.6508444  3
   4506   4505   4508   4509     1  0.0000000  0.6508444  3
   4506   4505   4508   4510     1  0.0000000  0.6508444  3
   4506   4505   4504   4514     1  0.0000000  1.2552000  3
   4507   4505   4508   4511     1  0.0000000  0.6508444  3
   4507   4505   4508   4509     1  0.0000000  0.6508444  3
   4507   4505   4508   4510     1  0.0000000  0.6508444  3
   4507   4505   4504   4514     1  0.0000000  1.2552000  3
   4509   4508   4511   4512     1  0.0000000  3.3472000  1
   4509   4508   4511   4512     1  0.0000000  0.0000000  2
   4509   4508   4511   4512     1  180.0000771  0.3347200  3
   4509   4508   4511   4513     1  0.0000000  3.3472000  1
   4509   4508   4511   4513     1  0.0000000  0.0000000  2
   4509   4508   4511   4513     1  180.0000771  0.3347200  3
   4510   4508   4511   4512     1  0.0000000  3.3472000  1
   4510   4508   4511   4512     1  0.0000000  0.0000000  2
   4510   4508   4511   4512     1  180.0000771  0.3347200  3
   4510   4508   4511   4513     1  0.0000000  3.3472000  1
   4510   4508   4511   4513     1  0.0000000  0.0000000  2
   4510   4508   4511   4513     1  180.0000771  0.3347200  3
   4515   4514   4517   4520     1  0.0000000  0.6508444  3
   4515   4514   4517   4518     1  0.0000000  0.6508444  3
   4515   4514   4517   4519     1  0.0000000  0.6508444  3
   4516   4514   4517   4520     1  0.0000000  0.6508444  3
   4516   4514   4517   4518     1  0.0000000  0.6508444  3
   4516   4514   4517   4519     1  0.0000000  0.6508444  3
   4518   4517   4520   4521     1  0.0000000  3.3472000  1
   4518   4517   4520   4521     1  0.0000000  0.0000000  2
   4518   4517   4520   4521     1  180.0000771  0.3347200  3
   4518   4517   4520   4522     1  0.0000000  3.3472000  1
   4518   4517   4520   4522     1  0.0000000  0.0000000  2
   4518   4517   4520   4522     1  180.0000771  0.3347200  3
   4519   4517   4520   4521     1  0.0000000  3.3472000  1
   4519   4517   4520   4521     1  0.0000000  0.0000000  2
   4519   4517   4520   4521     1  180.0000771  0.3347200  3
   4519   4517   4520   4522     1  0.0000000  3.3472000  1
   4519   4517   4520   4522     1  0.0000000  0.0000000  2
   4519   4517   4520   4522     1  180.0000771  0.3347200  3
   4524   4527   4530   4531     1  0.0000000  0.6508444  3
   4524   4527   4530   4532     1  0.0000000  0.6508444  3
   4525   4524   4527   4530     1  0.0000000  0.6508444  3
   4525   4524   4527   4528     1  0.0000000  0.6508444  3
   4525   4524   4527   4529     1  0.0000000  0.6508444  3
   4526   4524   4527   4530     1  0.0000000  0.6508444  3
   4526   4524   4527   4528     1  0.0000000  0.6508444  3
   4526   4524   4527   4529     1  0.0000000  0.6508444  3
   4528   4527   4524   4552     1  0.0000000  1.0460000  1
   4528   4527   4524   4552     1  0.0000000  0.0000000  3
   4528   4527   4530   4533     1  0.0000000  0.6508444  3
   4528   4527   4530   4531     1  0.0000000  0.6508444  3
   4528   4527   4530   4532     1  0.0000000  0.6508444  3
   4529   4527   4524   4552     1  0.0000000  1.0460000  1
   4529   4527   4524   4552     1  0.0000000  0.0000000  3
   4529   4527   4530   4533     1  0.0000000  0.6508444  3
   4529   4527   4530   4531     1  0.0000000  0.6508444  3
   4529   4527   4530   4532     1  0.0000000  0.6508444  3
   4530   4533   4534   4535     1  0.0000000  1.2552000  3
   4530   4533   4534   4536     1  0.0000000  1.2552000  3
   4530   4533   4543   4544     1  0.0000000  1.2552000  3
   4530   4533   4543   4545     1  0.0000000  1.2552000  3
   4531   4530   4533   4534     1  0.0000000  1.2552000  3
   4531   4530   4533   4543     1  0.0000000  1.2552000  3
   4532   4530   4533   4534     1  0.0000000  1.2552000  3
   4532   4530   4533   4543     1  0.0000000  1.2552000  3
   4533   4534   4537   4538     1  0.0000000  0.6508444  3
   4533   4534   4537   4539     1  0.0000000  0.6508444  3
   4533   4543   4546   4547     1  0.0000000  0.6508444  3
   4533   4543   4546   4548     1  0.0000000  0.6508444  3
   4534   4533   4543   4544     1  0.0000000  1.2552000  3
   4534   4533   4543   4545     1  0.0000000  1.2552000  3
   4535   4534   4533   4543     1  0.0000000  1.2552000  3
   4535   4534   4537   4540     1  0.0000000  0.6508444  3
   4535   4534   4537   4538     1  0.0000000  0.6508444  3
   4535   4534   4537   4539     1  0.0000000  0.6508444  3
   4536   4534   4533   4543     1  0.0000000  1.2552000  3
   4536   4534   4537   4540     1  0.0000000  0.6508444  3
   4536   4534   4537   4538     1  0.0000000  0.6508444  3
   4536   4534   4537   4539     1  0.0000000  0.6508444  3
   4538   4537   4540   4541     1  0.0000000  3.3472000  1
   4538   4537   4540   4541     1  0.0000000  0.0000000  2
   4538   4537   4540   4541     1  180.0000771  0.3347200  3
   4538   4537   4540   4542     1  0.0000000  3.3472000  1
   4538   4537   4540   4542     1  0.0000000  0.0000000  2
   4538   4537   4540   4542     1  180.0000771  0.3347200  3
   4539   4537   4540   4541     1  0.0000000  3.3472000  1
   4539   4537   4540   4541     1  0.0000000  0.0000000  2
   4539   4537   4540   4541     1  180.0000771  0.3347200  3
   4539   4537   4540   4542     1  0.0000000  3.3472000  1
   4539   4537   4540   4542     1  0.0000000  0.0000000  2
   4539   4537   4540   4542     1  180.0000771  0.3347200  3
   4544   4543   4546   4549     1  0.0000000  0.6508444  3
   4544   4543   4546   4547     1  0.0000000  0.6508444  3
   4544   4543   4546   4548     1  0.0000000  0.6508444  3
   4545   4543   4546   4549     1  0.0000000  0.6508444  3
   4545   4543   4546   4547     1  0.0000000  0.6508444  3
   4545   4543   4546   4548     1  0.0000000  0.6508444  3
   4547   4546   4549   4550     1  0.0000000  3.3472000  1
   4547   4546   4549   4550     1  0.0000000  0.0000000  2
   4547   4546   4549   4550     1  180.0000771  0.3347200  3
   4547   4546   4549   4551     1  0.0000000  3.3472000  1
   4547   4546   4549   4551     1  0.0000000  0.0000000  2
   4547   4546   4549   4551     1  180.0000771  0.3347200  3
   4548   4546   4549   4550     1  0.0000000  3.3472000  1
   4548   4546   4549   4550     1  0.0000000  0.0000000  2
   4548   4546   4549   4550     1  180.0000771  0.3347200  3
   4548   4546   4549   4551     1  0.0000000  3.3472000  1
   4548   4546   4549   4551     1  0.0000000  0.0000000  2
   4548   4546   4549   4551     1  180.0000771  0.3347200  3
   4553   4556   4559   4560     1  0.0000000  0.6508444  3
   4553   4556   4559   4561     1  0.0000000  0.6508444  3
   4554   4553   4556   4559     1  0.0000000  0.6508444  3
   4554   4553   4556   4557     1  0.0000000  0.6508444  3
   4554   4553   4556   4558     1  0.0000000  0.6508444  3
   4555   4553   4556   4559     1  0.0000000  0.6508444  3
   4555   4553   4556   4557     1  0.0000000  0.6508444  3
   4555   4553   4556   4558     1  0.0000000  0.6508444  3
   4557   4556   4559   4562     1  0.0000000  0.6508444  3
   4557   4556   4559   4560     1  0.0000000  0.6508444  3
   4557   4556   4559   4561     1  0.0000000  0.6508444  3
   4557   4556   4553   4581     1  0.0000000  1.0460000  1
   4557   4556   4553   4581     1  0.0000000  0.0000000  3
   4558   4556   4559   4562     1  0.0000000  0.6508444  3
   4558   4556   4559   4560     1  0.0000000  0.6508444  3
   4558   4556   4559   4561     1  0.0000000  0.6508444  3
   4558   4556   4553   4581     1  0.0000000  1.0460000  1
   4558   4556   4553   4581     1  0.0000000  0.0000000  3
   4559   4562   4563   4564     1  0.0000000  1.2552000  3
   4559   4562   4563   4565     1  0.0000000  1.2552000  3
   4559   4562   4572   4573     1  0.0000000  1.2552000  3
   4559   4562   4572   4574     1  0.0000000  1.2552000  3
   4560   4559   4562   4563     1  0.0000000  1.2552000  3
   4560   4559   4562   4572     1  0.0000000  1.2552000  3
   4561   4559   4562   4563     1  0.0000000  1.2552000  3
   4561   4559   4562   4572     1  0.0000000  1.2552000  3
   4562   4563   4566   4567     1  0.0000000  0.6508444  3
   4562   4563   4566   4568     1  0.0000000  0.6508444  3
   4562   4572   4575   4576     1  0.0000000  0.6508444  3
   4562   4572   4575   4577     1  0.0000000  0.6508444  3
   4563   4562   4572   4573     1  0.0000000  1.2552000  3
   4563   4562   4572   4574     1  0.0000000  1.2552000  3
   4564   4563   4566   4569     1  0.0000000  0.6508444  3
   4564   4563   4566   4567     1  0.0000000  0.6508444  3
   4564   4563   4566   4568     1  0.0000000  0.6508444  3
   4564   4563   4562   4572     1  0.0000000  1.2552000  3
   4565   4563   4566   4569     1  0.0000000  0.6508444  3
   4565   4563   4566   4567     1  0.0000000  0.6508444  3
   4565   4563   4566   4568     1  0.0000000  0.6508444  3
   4565   4563   4562   4572     1  0.0000000  1.2552000  3
   4567   4566   4569   4570     1  0.0000000  3.3472000  1
   4567   4566   4569   4570     1  0.0000000  0.0000000  2
   4567   4566   4569   4570     1  180.0000771  0.3347200  3
   4567   4566   4569   4571     1  0.0000000  3.3472000  1
   4567   4566   4569   4571     1  0.0000000  0.0000000  2
   4567   4566   4569   4571     1  180.0000771  0.3347200  3
   4568   4566   4569   4570     1  0.0000000  3.3472000  1
   4568   4566   4569   4570     1  0.0000000  0.0000000  2
   4568   4566   4569   4570     1  180.0000771  0.3347200  3
   4568   4566   4569   4571     1  0.0000000  3.3472000  1
   4568   4566   4569   4571     1  0.0000000  0.0000000  2
   4568   4566   4569   4571     1  180.0000771  0.3347200  3
   4573   4572   4575   4578     1  0.0000000  0.6508444  3
   4573   4572   4575   4576     1  0.0000000  0.6508444  3
   4573   4572   4575   4577     1  0.0000000  0.6508444  3
   4574   4572   4575   4578     1  0.0000000  0.6508444  3
   4574   4572   4575   4576     1  0.0000000  0.6508444  3
   4574   4572   4575   4577     1  0.0000000  0.6508444  3
   4576   4575   4578   4579     1  0.0000000  3.3472000  1
   4576   4575   4578   4579     1  0.0000000  0.0000000  2
   4576   4575   4578   4579     1  180.0000771  0.3347200  3
   4576   4575   4578   4580     1  0.0000000  3.3472000  1
   4576   4575   4578   4580     1  0.0000000  0.0000000  2
   4576   4575   4578   4580     1  180.0000771  0.3347200  3
   4577   4575   4578   4579     1  0.0000000  3.3472000  1
   4577   4575   4578   4579     1  0.0000000  0.0000000  2
   4577   4575   4578   4579     1  180.0000771  0.3347200  3
   4577   4575   4578   4580     1  0.0000000  3.3472000  1
   4577   4575   4578   4580     1  0.0000000  0.0000000  2
   4577   4575   4578   4580     1  180.0000771  0.3347200  3
   4582   4585   4588   4589     1  0.0000000  0.6508444  3
   4582   4585   4588   4590     1  0.0000000  0.6508444  3
   4583   4582   4585   4588     1  0.0000000  0.6508444  3
   4583   4582   4585   4586     1  0.0000000  0.6508444  3
   4583   4582   4585   4587     1  0.0000000  0.6508444  3
   4584   4582   4585   4588     1  0.0000000  0.6508444  3
   4584   4582   4585   4586     1  0.0000000  0.6508444  3
   4584   4582   4585   4587     1  0.0000000  0.6508444  3
   4586   4585   4582   4610     1  0.0000000  1.0460000  1
   4586   4585   4582   4610     1  0.0000000  0.0000000  3
   4586   4585   4588   4591     1  0.0000000  0.6508444  3
   4586   4585   4588   4589     1  0.0000000  0.6508444  3
   4586   4585   4588   4590     1  0.0000000  0.6508444  3
   4587   4585   4582   4610     1  0.0000000  1.0460000  1
   4587   4585   4582   4610     1  0.0000000  0.0000000  3
   4587   4585   4588   4591     1  0.0000000  0.6508444  3
   4587   4585   4588   4589     1  0.0000000  0.6508444  3
   4587   4585   4588   4590     1  0.0000000  0.6508444  3
   4588   4591   4592   4593     1  0.0000000  1.2552000  3
   4588   4591   4592   4594     1  0.0000000  1.2552000  3
   4588   4591   4601   4602     1  0.0000000  1.2552000  3
   4588   4591   4601   4603     1  0.0000000  1.2552000  3
   4589   4588   4591   4592     1  0.0000000  1.2552000  3
   4589   4588   4591   4601     1  0.0000000  1.2552000  3
   4590   4588   4591   4592     1  0.0000000  1.2552000  3
   4590   4588   4591   4601     1  0.0000000  1.2552000  3
   4591   4592   4595   4596     1  0.0000000  0.6508444  3
   4591   4592   4595   4597     1  0.0000000  0.6508444  3
   4591   4601   4604   4605     1  0.0000000  0.6508444  3
   4591   4601   4604   4606     1  0.0000000  0.6508444  3
   4592   4591   4601   4602     1  0.0000000  1.2552000  3
   4592   4591   4601   4603     1  0.0000000  1.2552000  3
   4593   4592   4591   4601     1  0.0000000  1.2552000  3
   4593   4592   4595   4598     1  0.0000000  0.6508444  3
   4593   4592   4595   4596     1  0.0000000  0.6508444  3
   4593   4592   4595   4597     1  0.0000000  0.6508444  3
   4594   4592   4591   4601     1  0.0000000  1.2552000  3
   4594   4592   4595   4598     1  0.0000000  0.6508444  3
   4594   4592   4595   4596     1  0.0000000  0.6508444  3
   4594   4592   4595   4597     1  0.0000000  0.6508444  3
   4596   4595   4598   4599     1  0.0000000  3.3472000  1
   4596   4595   4598   4599     1  0.0000000  0.0000000  2
   4596   4595   4598   4599     1  180.0000771  0.3347200  3
   4596   4595   4598   4600     1  0.0000000  3.3472000  1
   4596   4595   4598   4600     1  0.0000000  0.0000000  2
   4596   4595   4598   4600     1  180.0000771  0.3347200  3
   4597   4595   4598   4599     1  0.0000000  3.3472000  1
   4597   4595   4598   4599     1  0.0000000  0.0000000  2
   4597   4595   4598   4599     1  180.0000771  0.3347200  3
   4597   4595   4598   4600     1  0.0000000  3.3472000  1
   4597   4595   4598   4600     1  0.0000000  0.0000000  2
   4597   4595   4598   4600     1  180.0000771  0.3347200  3
   4602   4601   4604   4607     1  0.0000000  0.6508444  3
   4602   4601   4604   4605     1  0.0000000  0.6508444  3
   4602   4601   4604   4606     1  0.0000000  0.6508444  3
   4603   4601   4604   4607     1  0.0000000  0.6508444  3
   4603   4601   4604   4605     1  0.0000000  0.6508444  3
   4603   4601   4604   4606     1  0.0000000  0.6508444  3
   4605   4604   4607   4608     1  0.0000000  3.3472000  1
   4605   4604   4607   4608     1  0.0000000  0.0000000  2
   4605   4604   4607   4608     1  180.0000771  0.3347200  3
   4605   4604   4607   4609     1  0.0000000  3.3472000  1
   4605   4604   4607   4609     1  0.0000000  0.0000000  2
   4605   4604   4607   4609     1  180.0000771  0.3347200  3
   4606   4604   4607   4608     1  0.0000000  3.3472000  1
   4606   4604   4607   4608     1  0.0000000  0.0000000  2
   4606   4604   4607   4608     1  180.0000771  0.3347200  3
   4606   4604   4607   4609     1  0.0000000  3.3472000  1
   4606   4604   4607   4609     1  0.0000000  0.0000000  2
   4606   4604   4607   4609     1  180.0000771  0.3347200  3
   4611   4614   4617   4618     1  0.0000000  0.6508444  3
   4611   4614   4617   4619     1  0.0000000  0.6508444  3
   4612   4611   4614   4617     1  0.0000000  0.6508444  3
   4612   4611   4614   4615     1  0.0000000  0.6508444  3
   4612   4611   4614   4616     1  0.0000000  0.6508444  3
   4613   4611   4614   4617     1  0.0000000  0.6508444  3
   4613   4611   4614   4615     1  0.0000000  0.6508444  3
   4613   4611   4614   4616     1  0.0000000  0.6508444  3
   4615   4614   4617   4620     1  0.0000000  0.6508444  3
   4615   4614   4617   4618     1  0.0000000  0.6508444  3
   4615   4614   4617   4619     1  0.0000000  0.6508444  3
   4615   4614   4611   4639     1  0.0000000  1.0460000  1
   4615   4614   4611   4639     1  0.0000000  0.0000000  3
   4616   4614   4617   4620     1  0.0000000  0.6508444  3
   4616   4614   4617   4618     1  0.0000000  0.6508444  3
   4616   4614   4617   4619     1  0.0000000  0.6508444  3
   4616   4614   4611   4639     1  0.0000000  1.0460000  1
   4616   4614   4611   4639     1  0.0000000  0.0000000  3
   4617   4620   4621   4622     1  0.0000000  1.2552000  3
   4617   4620   4621   4623     1  0.0000000  1.2552000  3
   4617   4620   4630   4631     1  0.0000000  1.2552000  3
   4617   4620   4630   4632     1  0.0000000  1.2552000  3
   4618   4617   4620   4621     1  0.0000000  1.2552000  3
   4618   4617   4620   4630     1  0.0000000  1.2552000  3
   4619   4617   4620   4621     1  0.0000000  1.2552000  3
   4619   4617   4620   4630     1  0.0000000  1.2552000  3
   4620   4621   4624   4625     1  0.0000000  0.6508444  3
   4620   4621   4624   4626     1  0.0000000  0.6508444  3
   4620   4630   4633   4634     1  0.0000000  0.6508444  3
   4620   4630   4633   4635     1  0.0000000  0.6508444  3
   4621   4620   4630   4631     1  0.0000000  1.2552000  3
   4621   4620   4630   4632     1  0.0000000  1.2552000  3
   4622   4621   4624   4627     1  0.0000000  0.6508444  3
   4622   4621   4624   4625     1  0.0000000  0.6508444  3
   4622   4621   4624   4626     1  0.0000000  0.6508444  3
   4622   4621   4620   4630     1  0.0000000  1.2552000  3
   4623   4621   4624   4627     1  0.0000000  0.6508444  3
   4623   4621   4624   4625     1  0.0000000  0.6508444  3
   4623   4621   4624   4626     1  0.0000000  0.6508444  3
   4623   4621   4620   4630     1  0.0000000  1.2552000  3
   4625   4624   4627   4628     1  0.0000000  3.3472000  1
   4625   4624   4627   4628     1  0.0000000  0.0000000  2
   4625   4624   4627   4628     1  180.0000771  0.3347200  3
   4625   4624   4627   4629     1  0.0000000  3.3472000  1
   4625   4624   4627   4629     1  0.0000000  0.0000000  2
   4625   4624   4627   4629     1  180.0000771  0.3347200  3
   4626   4624   4627   4628     1  0.0000000  3.3472000  1
   4626   4624   4627   4628     1  0.0000000  0.0000000  2
   4626   4624   4627   4628     1  180.0000771  0.3347200  3
   4626   4624   4627   4629     1  0.0000000  3.3472000  1
   4626   4624   4627   4629     1  0.0000000  0.0000000  2
   4626   4624   4627   4629     1  180.0000771  0.3347200  3
   4631   4630   4633   4636     1  0.0000000  0.6508444  3
   4631   4630   4633   4634     1  0.0000000  0.6508444  3
   4631   4630   4633   4635     1  0.0000000  0.6508444  3
   4632   4630   4633   4636     1  0.0000000  0.6508444  3
   4632   4630   4633   4634     1  0.0000000  0.6508444  3
   4632   4630   4633   4635     1  0.0000000  0.6508444  3
   4634   4633   4636   4637     1  0.0000000  3.3472000  1
   4634   4633   4636   4637     1  0.0000000  0.0000000  2
   4634   4633   4636   4637     1  180.0000771  0.3347200  3
   4634   4633   4636   4638     1  0.0000000  3.3472000  1
   4634   4633   4636   4638     1  0.0000000  0.0000000  2
   4634   4633   4636   4638     1  180.0000771  0.3347200  3
   4635   4633   4636   4637     1  0.0000000  3.3472000  1
   4635   4633   4636   4637     1  0.0000000  0.0000000  2
   4635   4633   4636   4637     1  180.0000771  0.3347200  3
   4635   4633   4636   4638     1  0.0000000  3.3472000  1
   4635   4633   4636   4638     1  0.0000000  0.0000000  2
   4635   4633   4636   4638     1  180.0000771  0.3347200  3
   4640   4643   4646   4647     1  0.0000000  0.6508444  3
   4640   4643   4646   4648     1  0.0000000  0.6508444  3
   4641   4640   4643   4646     1  0.0000000  0.6508444  3
   4641   4640   4643   4644     1  0.0000000  0.6508444  3
   4641   4640   4643   4645     1  0.0000000  0.6508444  3
   4642   4640   4643   4646     1  0.0000000  0.6508444  3
   4642   4640   4643   4644     1  0.0000000  0.6508444  3
   4642   4640   4643   4645     1  0.0000000  0.6508444  3
   4644   4643   4640   4668     1  0.0000000  1.0460000  1
   4644   4643   4640   4668     1  0.0000000  0.0000000  3
   4644   4643   4646   4649     1  0.0000000  0.6508444  3
   4644   4643   4646   4647     1  0.0000000  0.6508444  3
   4644   4643   4646   4648     1  0.0000000  0.6508444  3
   4645   4643   4640   4668     1  0.0000000  1.0460000  1
   4645   4643   4640   4668     1  0.0000000  0.0000000  3
   4645   4643   4646   4649     1  0.0000000  0.6508444  3
   4645   4643   4646   4647     1  0.0000000  0.6508444  3
   4645   4643   4646   4648     1  0.0000000  0.6508444  3
   4646   4649   4650   4651     1  0.0000000  1.2552000  3
   4646   4649   4650   4652     1  0.0000000  1.2552000  3
   4646   4649   4659   4660     1  0.0000000  1.2552000  3
   4646   4649   4659   4661     1  0.0000000  1.2552000  3
   4647   4646   4649   4650     1  0.0000000  1.2552000  3
   4647   4646   4649   4659     1  0.0000000  1.2552000  3
   4648   4646   4649   4650     1  0.0000000  1.2552000  3
   4648   4646   4649   4659     1  0.0000000  1.2552000  3
   4649   4650   4653   4654     1  0.0000000  0.6508444  3
   4649   4650   4653   4655     1  0.0000000  0.6508444  3
   4649   4659   4662   4663     1  0.0000000  0.6508444  3
   4649   4659   4662   4664     1  0.0000000  0.6508444  3
   4650   4649   4659   4660     1  0.0000000  1.2552000  3
   4650   4649   4659   4661     1  0.0000000  1.2552000  3
   4651   4650   4649   4659     1  0.0000000  1.2552000  3
   4651   4650   4653   4656     1  0.0000000  0.6508444  3
   4651   4650   4653   4654     1  0.0000000  0.6508444  3
   4651   4650   4653   4655     1  0.0000000  0.6508444  3
   4652   4650   4649   4659     1  0.0000000  1.2552000  3
   4652   4650   4653   4656     1  0.0000000  0.6508444  3
   4652   4650   4653   4654     1  0.0000000  0.6508444  3
   4652   4650   4653   4655     1  0.0000000  0.6508444  3
   4654   4653   4656   4657     1  0.0000000  3.3472000  1
   4654   4653   4656   4657     1  0.0000000  0.0000000  2
   4654   4653   4656   4657     1  180.0000771  0.3347200  3
   4654   4653   4656   4658     1  0.0000000  3.3472000  1
   4654   4653   4656   4658     1  0.0000000  0.0000000  2
   4654   4653   4656   4658     1  180.0000771  0.3347200  3
   4655   4653   4656   4657     1  0.0000000  3.3472000  1
   4655   4653   4656   4657     1  0.0000000  0.0000000  2
   4655   4653   4656   4657     1  180.0000771  0.3347200  3
   4655   4653   4656   4658     1  0.0000000  3.3472000  1
   4655   4653   4656   4658     1  0.0000000  0.0000000  2
   4655   4653   4656   4658     1  180.0000771  0.3347200  3
   4660   4659   4662   4665     1  0.0000000  0.6508444  3
   4660   4659   4662   4663     1  0.0000000  0.6508444  3
   4660   4659   4662   4664     1  0.0000000  0.6508444  3
   4661   4659   4662   4665     1  0.0000000  0.6508444  3
   4661   4659   4662   4663     1  0.0000000  0.6508444  3
   4661   4659   4662   4664     1  0.0000000  0.6508444  3
   4663   4662   4665   4666     1  0.0000000  3.3472000  1
   4663   4662   4665   4666     1  0.0000000  0.0000000  2
   4663   4662   4665   4666     1  180.0000771  0.3347200  3
   4663   4662   4665   4667     1  0.0000000  3.3472000  1
   4663   4662   4665   4667     1  0.0000000  0.0000000  2
   4663   4662   4665   4667     1  180.0000771  0.3347200  3
   4664   4662   4665   4666     1  0.0000000  3.3472000  1
   4664   4662   4665   4666     1  0.0000000  0.0000000  2
   4664   4662   4665   4666     1  180.0000771  0.3347200  3
   4664   4662   4665   4667     1  0.0000000  3.3472000  1
   4664   4662   4665   4667     1  0.0000000  0.0000000  2
   4664   4662   4665   4667     1  180.0000771  0.3347200  3
   4669   4672   4675   4676     1  0.0000000  0.6508444  3
   4669   4672   4675   4677     1  0.0000000  0.6508444  3
   4670   4669   4672   4675     1  0.0000000  0.6508444  3
   4670   4669   4672   4673     1  0.0000000  0.6508444  3
   4670   4669   4672   4674     1  0.0000000  0.6508444  3
   4671   4669   4672   4675     1  0.0000000  0.6508444  3
   4671   4669   4672   4673     1  0.0000000  0.6508444  3
   4671   4669   4672   4674     1  0.0000000  0.6508444  3
   4673   4672   4675   4678     1  0.0000000  0.6508444  3
   4673   4672   4675   4676     1  0.0000000  0.6508444  3
   4673   4672   4675   4677     1  0.0000000  0.6508444  3
   4673   4672   4669   4697     1  0.0000000  1.0460000  1
   4673   4672   4669   4697     1  0.0000000  0.0000000  3
   4674   4672   4675   4678     1  0.0000000  0.6508444  3
   4674   4672   4675   4676     1  0.0000000  0.6508444  3
   4674   4672   4675   4677     1  0.0000000  0.6508444  3
   4674   4672   4669   4697     1  0.0000000  1.0460000  1
   4674   4672   4669   4697     1  0.0000000  0.0000000  3
   4675   4678   4679   4680     1  0.0000000  1.2552000  3
   4675   4678   4679   4681     1  0.0000000  1.2552000  3
   4675   4678   4688   4689     1  0.0000000  1.2552000  3
   4675   4678   4688   4690     1  0.0000000  1.2552000  3
   4676   4675   4678   4679     1  0.0000000  1.2552000  3
   4676   4675   4678   4688     1  0.0000000  1.2552000  3
   4677   4675   4678   4679     1  0.0000000  1.2552000  3
   4677   4675   4678   4688     1  0.0000000  1.2552000  3
   4678   4679   4682   4683     1  0.0000000  0.6508444  3
   4678   4679   4682   4684     1  0.0000000  0.6508444  3
   4678   4688   4691   4692     1  0.0000000  0.6508444  3
   4678   4688   4691   4693     1  0.0000000  0.6508444  3
   4679   4678   4688   4689     1  0.0000000  1.2552000  3
   4679   4678   4688   4690     1  0.0000000  1.2552000  3
   4680   4679   4682   4685     1  0.0000000  0.6508444  3
   4680   4679   4682   4683     1  0.0000000  0.6508444  3
   4680   4679   4682   4684     1  0.0000000  0.6508444  3
   4680   4679   4678   4688     1  0.0000000  1.2552000  3
   4681   4679   4682   4685     1  0.0000000  0.6508444  3
   4681   4679   4682   4683     1  0.0000000  0.6508444  3
   4681   4679   4682   4684     1  0.0000000  0.6508444  3
   4681   4679   4678   4688     1  0.0000000  1.2552000  3
   4683   4682   4685   4686     1  0.0000000  3.3472000  1
   4683   4682   4685   4686     1  0.0000000  0.0000000  2
   4683   4682   4685   4686     1  180.0000771  0.3347200  3
   4683   4682   4685   4687     1  0.0000000  3.3472000  1
   4683   4682   4685   4687     1  0.0000000  0.0000000  2
   4683   4682   4685   4687     1  180.0000771  0.3347200  3
   4684   4682   4685   4686     1  0.0000000  3.3472000  1
   4684   4682   4685   4686     1  0.0000000  0.0000000  2
   4684   4682   4685   4686     1  180.0000771  0.3347200  3
   4684   4682   4685   4687     1  0.0000000  3.3472000  1
   4684   4682   4685   4687     1  0.0000000  0.0000000  2
   4684   4682   4685   4687     1  180.0000771  0.3347200  3
   4689   4688   4691   4694     1  0.0000000  0.6508444  3
   4689   4688   4691   4692     1  0.0000000  0.6508444  3
   4689   4688   4691   4693     1  0.0000000  0.6508444  3
   4690   4688   4691   4694     1  0.0000000  0.6508444  3
   4690   4688   4691   4692     1  0.0000000  0.6508444  3
   4690   4688   4691   4693     1  0.0000000  0.6508444  3
   4692   4691   4694   4695     1  0.0000000  3.3472000  1
   4692   4691   4694   4695     1  0.0000000  0.0000000  2
   4692   4691   4694   4695     1  180.0000771  0.3347200  3
   4692   4691   4694   4696     1  0.0000000  3.3472000  1
   4692   4691   4694   4696     1  0.0000000  0.0000000  2
   4692   4691   4694   4696     1  180.0000771  0.3347200  3
   4693   4691   4694   4695     1  0.0000000  3.3472000  1
   4693   4691   4694   4695     1  0.0000000  0.0000000  2
   4693   4691   4694   4695     1  180.0000771  0.3347200  3
   4693   4691   4694   4696     1  0.0000000  3.3472000  1
   4693   4691   4694   4696     1  0.0000000  0.0000000  2
   4693   4691   4694   4696     1  180.0000771  0.3347200  3
   4698   4701   4704   4705     1  0.0000000  0.6508444  3
   4698   4701   4704   4706     1  0.0000000  0.6508444  3
   4699   4698   4701   4704     1  0.0000000  0.6508444  3
   4699   4698   4701   4702     1  0.0000000  0.6508444  3
   4699   4698   4701   4703     1  0.0000000  0.6508444  3
   4700   4698   4701   4704     1  0.0000000  0.6508444  3
   4700   4698   4701   4702     1  0.0000000  0.6508444  3
   4700   4698   4701   4703     1  0.0000000  0.6508444  3
   4702   4701   4698   4726     1  0.0000000  1.0460000  1
   4702   4701   4698   4726     1  0.0000000  0.0000000  3
   4702   4701   4704   4707     1  0.0000000  0.6508444  3
   4702   4701   4704   4705     1  0.0000000  0.6508444  3
   4702   4701   4704   4706     1  0.0000000  0.6508444  3
   4703   4701   4698   4726     1  0.0000000  1.0460000  1
   4703   4701   4698   4726     1  0.0000000  0.0000000  3
   4703   4701   4704   4707     1  0.0000000  0.6508444  3
   4703   4701   4704   4705     1  0.0000000  0.6508444  3
   4703   4701   4704   4706     1  0.0000000  0.6508444  3
   4704   4707   4708   4709     1  0.0000000  1.2552000  3
   4704   4707   4708   4710     1  0.0000000  1.2552000  3
   4704   4707   4717   4718     1  0.0000000  1.2552000  3
   4704   4707   4717   4719     1  0.0000000  1.2552000  3
   4705   4704   4707   4708     1  0.0000000  1.2552000  3
   4705   4704   4707   4717     1  0.0000000  1.2552000  3
   4706   4704   4707   4708     1  0.0000000  1.2552000  3
   4706   4704   4707   4717     1  0.0000000  1.2552000  3
   4707   4708   4711   4712     1  0.0000000  0.6508444  3
   4707   4708   4711   4713     1  0.0000000  0.6508444  3
   4707   4717   4720   4721     1  0.0000000  0.6508444  3
   4707   4717   4720   4722     1  0.0000000  0.6508444  3
   4708   4707   4717   4718     1  0.0000000  1.2552000  3
   4708   4707   4717   4719     1  0.0000000  1.2552000  3
   4709   4708   4707   4717     1  0.0000000  1.2552000  3
   4709   4708   4711   4714     1  0.0000000  0.6508444  3
   4709   4708   4711   4712     1  0.0000000  0.6508444  3
   4709   4708   4711   4713     1  0.0000000  0.6508444  3
   4710   4708   4707   4717     1  0.0000000  1.2552000  3
   4710   4708   4711   4714     1  0.0000000  0.6508444  3
   4710   4708   4711   4712     1  0.0000000  0.6508444  3
   4710   4708   4711   4713     1  0.0000000  0.6508444  3
   4712   4711   4714   4715     1  0.0000000  3.3472000  1
   4712   4711   4714   4715     1  0.0000000  0.0000000  2
   4712   4711   4714   4715     1  180.0000771  0.3347200  3
   4712   4711   4714   4716     1  0.0000000  3.3472000  1
   4712   4711   4714   4716     1  0.0000000  0.0000000  2
   4712   4711   4714   4716     1  180.0000771  0.3347200  3
   4713   4711   4714   4715     1  0.0000000  3.3472000  1
   4713   4711   4714   4715     1  0.0000000  0.0000000  2
   4713   4711   4714   4715     1  180.0000771  0.3347200  3
   4713   4711   4714   4716     1  0.0000000  3.3472000  1
   4713   4711   4714   4716     1  0.0000000  0.0000000  2
   4713   4711   4714   4716     1  180.0000771  0.3347200  3
   4718   4717   4720   4723     1  0.0000000  0.6508444  3
   4718   4717   4720   4721     1  0.0000000  0.6508444  3
   4718   4717   4720   4722     1  0.0000000  0.6508444  3
   4719   4717   4720   4723     1  0.0000000  0.6508444  3
   4719   4717   4720   4721     1  0.0000000  0.6508444  3
   4719   4717   4720   4722     1  0.0000000  0.6508444  3
   4721   4720   4723   4724     1  0.0000000  3.3472000  1
   4721   4720   4723   4724     1  0.0000000  0.0000000  2
   4721   4720   4723   4724     1  180.0000771  0.3347200  3
   4721   4720   4723   4725     1  0.0000000  3.3472000  1
   4721   4720   4723   4725     1  0.0000000  0.0000000  2
   4721   4720   4723   4725     1  180.0000771  0.3347200  3
   4722   4720   4723   4724     1  0.0000000  3.3472000  1
   4722   4720   4723   4724     1  0.0000000  0.0000000  2
   4722   4720   4723   4724     1  180.0000771  0.3347200  3
   4722   4720   4723   4725     1  0.0000000  3.3472000  1
   4722   4720   4723   4725     1  0.0000000  0.0000000  2
   4722   4720   4723   4725     1  180.0000771  0.3347200  3
   4727   4730   4733   4734     1  0.0000000  0.6508444  3
   4727   4730   4733   4735     1  0.0000000  0.6508444  3
   4728   4727   4730   4733     1  0.0000000  0.6508444  3
   4728   4727   4730   4731     1  0.0000000  0.6508444  3
   4728   4727   4730   4732     1  0.0000000  0.6508444  3
   4729   4727   4730   4733     1  0.0000000  0.6508444  3
   4729   4727   4730   4731     1  0.0000000  0.6508444  3
   4729   4727   4730   4732     1  0.0000000  0.6508444  3
   4731   4730   4733   4736     1  0.0000000  0.6508444  3
   4731   4730   4733   4734     1  0.0000000  0.6508444  3
   4731   4730   4733   4735     1  0.0000000  0.6508444  3
   4731   4730   4727   4755     1  0.0000000  1.0460000  1
   4731   4730   4727   4755     1  0.0000000  0.0000000  3
   4732   4730   4733   4736     1  0.0000000  0.6508444  3
   4732   4730   4733   4734     1  0.0000000  0.6508444  3
   4732   4730   4733   4735     1  0.0000000  0.6508444  3
   4732   4730   4727   4755     1  0.0000000  1.0460000  1
   4732   4730   4727   4755     1  0.0000000  0.0000000  3
   4733   4736   4737   4738     1  0.0000000  1.2552000  3
   4733   4736   4737   4739     1  0.0000000  1.2552000  3
   4733   4736   4746   4747     1  0.0000000  1.2552000  3
   4733   4736   4746   4748     1  0.0000000  1.2552000  3
   4734   4733   4736   4737     1  0.0000000  1.2552000  3
   4734   4733   4736   4746     1  0.0000000  1.2552000  3
   4735   4733   4736   4737     1  0.0000000  1.2552000  3
   4735   4733   4736   4746     1  0.0000000  1.2552000  3
   4736   4737   4740   4741     1  0.0000000  0.6508444  3
   4736   4737   4740   4742     1  0.0000000  0.6508444  3
   4736   4746   4749   4750     1  0.0000000  0.6508444  3
   4736   4746   4749   4751     1  0.0000000  0.6508444  3
   4737   4736   4746   4747     1  0.0000000  1.2552000  3
   4737   4736   4746   4748     1  0.0000000  1.2552000  3
   4738   4737   4740   4743     1  0.0000000  0.6508444  3
   4738   4737   4740   4741     1  0.0000000  0.6508444  3
   4738   4737   4740   4742     1  0.0000000  0.6508444  3
   4738   4737   4736   4746     1  0.0000000  1.2552000  3
   4739   4737   4740   4743     1  0.0000000  0.6508444  3
   4739   4737   4740   4741     1  0.0000000  0.6508444  3
   4739   4737   4740   4742     1  0.0000000  0.6508444  3
   4739   4737   4736   4746     1  0.0000000  1.2552000  3
   4741   4740   4743   4744     1  0.0000000  3.3472000  1
   4741   4740   4743   4744     1  0.0000000  0.0000000  2
   4741   4740   4743   4744     1  180.0000771  0.3347200  3
   4741   4740   4743   4745     1  0.0000000  3.3472000  1
   4741   4740   4743   4745     1  0.0000000  0.0000000  2
   4741   4740   4743   4745     1  180.0000771  0.3347200  3
   4742   4740   4743   4744     1  0.0000000  3.3472000  1
   4742   4740   4743   4744     1  0.0000000  0.0000000  2
   4742   4740   4743   4744     1  180.0000771  0.3347200  3
   4742   4740   4743   4745     1  0.0000000  3.3472000  1
   4742   4740   4743   4745     1  0.0000000  0.0000000  2
   4742   4740   4743   4745     1  180.0000771  0.3347200  3
   4747   4746   4749   4752     1  0.0000000  0.6508444  3
   4747   4746   4749   4750     1  0.0000000  0.6508444  3
   4747   4746   4749   4751     1  0.0000000  0.6508444  3
   4748   4746   4749   4752     1  0.0000000  0.6508444  3
   4748   4746   4749   4750     1  0.0000000  0.6508444  3
   4748   4746   4749   4751     1  0.0000000  0.6508444  3
   4750   4749   4752   4753     1  0.0000000  3.3472000  1
   4750   4749   4752   4753     1  0.0000000  0.0000000  2
   4750   4749   4752   4753     1  180.0000771  0.3347200  3
   4750   4749   4752   4754     1  0.0000000  3.3472000  1
   4750   4749   4752   4754     1  0.0000000  0.0000000  2
   4750   4749   4752   4754     1  180.0000771  0.3347200  3
   4751   4749   4752   4753     1  0.0000000  3.3472000  1
   4751   4749   4752   4753     1  0.0000000  0.0000000  2
   4751   4749   4752   4753     1  180.0000771  0.3347200  3
   4751   4749   4752   4754     1  0.0000000  3.3472000  1
   4751   4749   4752   4754     1  0.0000000  0.0000000  2
   4751   4749   4752   4754     1  180.0000771  0.3347200  3
   4756   4759   4762   4763     1  0.0000000  0.6508444  3
   4756   4759   4762   4764     1  0.0000000  0.6508444  3
   4757   4756   4759   4762     1  0.0000000  0.6508444  3
   4757   4756   4759   4760     1  0.0000000  0.6508444  3
   4757   4756   4759   4761     1  0.0000000  0.6508444  3
   4758   4756   4759   4762     1  0.0000000  0.6508444  3
   4758   4756   4759   4760     1  0.0000000  0.6508444  3
   4758   4756   4759   4761     1  0.0000000  0.6508444  3
   4760   4759   4756   4784     1  0.0000000  1.0460000  1
   4760   4759   4756   4784     1  0.0000000  0.0000000  3
   4760   4759   4762   4765     1  0.0000000  0.6508444  3
   4760   4759   4762   4763     1  0.0000000  0.6508444  3
   4760   4759   4762   4764     1  0.0000000  0.6508444  3
   4761   4759   4756   4784     1  0.0000000  1.0460000  1
   4761   4759   4756   4784     1  0.0000000  0.0000000  3
   4761   4759   4762   4765     1  0.0000000  0.6508444  3
   4761   4759   4762   4763     1  0.0000000  0.6508444  3
   4761   4759   4762   4764     1  0.0000000  0.6508444  3
   4762   4765   4766   4767     1  0.0000000  1.2552000  3
   4762   4765   4766   4768     1  0.0000000  1.2552000  3
   4762   4765   4775   4776     1  0.0000000  1.2552000  3
   4762   4765   4775   4777     1  0.0000000  1.2552000  3
   4763   4762   4765   4766     1  0.0000000  1.2552000  3
   4763   4762   4765   4775     1  0.0000000  1.2552000  3
   4764   4762   4765   4766     1  0.0000000  1.2552000  3
   4764   4762   4765   4775     1  0.0000000  1.2552000  3
   4765   4766   4769   4770     1  0.0000000  0.6508444  3
   4765   4766   4769   4771     1  0.0000000  0.6508444  3
   4765   4775   4778   4779     1  0.0000000  0.6508444  3
   4765   4775   4778   4780     1  0.0000000  0.6508444  3
   4766   4765   4775   4776     1  0.0000000  1.2552000  3
   4766   4765   4775   4777     1  0.0000000  1.2552000  3
   4767   4766   4765   4775     1  0.0000000  1.2552000  3
   4767   4766   4769   4772     1  0.0000000  0.6508444  3
   4767   4766   4769   4770     1  0.0000000  0.6508444  3
   4767   4766   4769   4771     1  0.0000000  0.6508444  3
   4768   4766   4765   4775     1  0.0000000  1.2552000  3
   4768   4766   4769   4772     1  0.0000000  0.6508444  3
   4768   4766   4769   4770     1  0.0000000  0.6508444  3
   4768   4766   4769   4771     1  0.0000000  0.6508444  3
   4770   4769   4772   4773     1  0.0000000  3.3472000  1
   4770   4769   4772   4773     1  0.0000000  0.0000000  2
   4770   4769   4772   4773     1  180.0000771  0.3347200  3
   4770   4769   4772   4774     1  0.0000000  3.3472000  1
   4770   4769   4772   4774     1  0.0000000  0.0000000  2
   4770   4769   4772   4774     1  180.0000771  0.3347200  3
   4771   4769   4772   4773     1  0.0000000  3.3472000  1
   4771   4769   4772   4773     1  0.0000000  0.0000000  2
   4771   4769   4772   4773     1  180.0000771  0.3347200  3
   4771   4769   4772   4774     1  0.0000000  3.3472000  1
   4771   4769   4772   4774     1  0.0000000  0.0000000  2
   4771   4769   4772   4774     1  180.0000771  0.3347200  3
   4776   4775   4778   4781     1  0.0000000  0.6508444  3
   4776   4775   4778   4779     1  0.0000000  0.6508444  3
   4776   4775   4778   4780     1  0.0000000  0.6508444  3
   4777   4775   4778   4781     1  0.0000000  0.6508444  3
   4777   4775   4778   4779     1  0.0000000  0.6508444  3
   4777   4775   4778   4780     1  0.0000000  0.6508444  3
   4779   4778   4781   4782     1  0.0000000  3.3472000  1
   4779   4778   4781   4782     1  0.0000000  0.0000000  2
   4779   4778   4781   4782     1  180.0000771  0.3347200  3
   4779   4778   4781   4783     1  0.0000000  3.3472000  1
   4779   4778   4781   4783     1  0.0000000  0.0000000  2
   4779   4778   4781   4783     1  180.0000771  0.3347200  3
   4780   4778   4781   4782     1  0.0000000  3.3472000  1
   4780   4778   4781   4782     1  0.0000000  0.0000000  2
   4780   4778   4781   4782     1  180.0000771  0.3347200  3
   4780   4778   4781   4783     1  0.0000000  3.3472000  1
   4780   4778   4781   4783     1  0.0000000  0.0000000  2
   4780   4778   4781   4783     1  180.0000771  0.3347200  3
   4785   4788   4791   4792     1  0.0000000  0.6508444  3
   4785   4788   4791   4793     1  0.0000000  0.6508444  3
   4786   4785   4788   4791     1  0.0000000  0.6508444  3
   4786   4785   4788   4789     1  0.0000000  0.6508444  3
   4786   4785   4788   4790     1  0.0000000  0.6508444  3
   4787   4785   4788   4791     1  0.0000000  0.6508444  3
   4787   4785   4788   4789     1  0.0000000  0.6508444  3
   4787   4785   4788   4790     1  0.0000000  0.6508444  3
   4789   4788   4791   4794     1  0.0000000  0.6508444  3
   4789   4788   4791   4792     1  0.0000000  0.6508444  3
   4789   4788   4791   4793     1  0.0000000  0.6508444  3
   4789   4788   4785   4813     1  0.0000000  1.0460000  1
   4789   4788   4785   4813     1  0.0000000  0.0000000  3
   4790   4788   4791   4794     1  0.0000000  0.6508444  3
   4790   4788   4791   4792     1  0.0000000  0.6508444  3
   4790   4788   4791   4793     1  0.0000000  0.6508444  3
   4790   4788   4785   4813     1  0.0000000  1.0460000  1
   4790   4788   4785   4813     1  0.0000000  0.0000000  3
   4791   4794   4795   4796     1  0.0000000  1.2552000  3
   4791   4794   4795   4797     1  0.0000000  1.2552000  3
   4791   4794   4804   4805     1  0.0000000  1.2552000  3
   4791   4794   4804   4806     1  0.0000000  1.2552000  3
   4792   4791   4794   4795     1  0.0000000  1.2552000  3
   4792   4791   4794   4804     1  0.0000000  1.2552000  3
   4793   4791   4794   4795     1  0.0000000  1.2552000  3
   4793   4791   4794   4804     1  0.0000000  1.2552000  3
   4794   4795   4798   4799     1  0.0000000  0.6508444  3
   4794   4795   4798   4800     1  0.0000000  0.6508444  3
   4794   4804   4807   4808     1  0.0000000  0.6508444  3
   4794   4804   4807   4809     1  0.0000000  0.6508444  3
   4795   4794   4804   4805     1  0.0000000  1.2552000  3
   4795   4794   4804   4806     1  0.0000000  1.2552000  3
   4796   4795   4798   4801     1  0.0000000  0.6508444  3
   4796   4795   4798   4799     1  0.0000000  0.6508444  3
   4796   4795   4798   4800     1  0.0000000  0.6508444  3
   4796   4795   4794   4804     1  0.0000000  1.2552000  3
   4797   4795   4798   4801     1  0.0000000  0.6508444  3
   4797   4795   4798   4799     1  0.0000000  0.6508444  3
   4797   4795   4798   4800     1  0.0000000  0.6508444  3
   4797   4795   4794   4804     1  0.0000000  1.2552000  3
   4799   4798   4801   4802     1  0.0000000  3.3472000  1
   4799   4798   4801   4802     1  0.0000000  0.0000000  2
   4799   4798   4801   4802     1  180.0000771  0.3347200  3
   4799   4798   4801   4803     1  0.0000000  3.3472000  1
   4799   4798   4801   4803     1  0.0000000  0.0000000  2
   4799   4798   4801   4803     1  180.0000771  0.3347200  3
   4800   4798   4801   4802     1  0.0000000  3.3472000  1
   4800   4798   4801   4802     1  0.0000000  0.0000000  2
   4800   4798   4801   4802     1  180.0000771  0.3347200  3
   4800   4798   4801   4803     1  0.0000000  3.3472000  1
   4800   4798   4801   4803     1  0.0000000  0.0000000  2
   4800   4798   4801   4803     1  180.0000771  0.3347200  3
   4805   4804   4807   4810     1  0.0000000  0.6508444  3
   4805   4804   4807   4808     1  0.0000000  0.6508444  3
   4805   4804   4807   4809     1  0.0000000  0.6508444  3
   4806   4804   4807   4810     1  0.0000000  0.6508444  3
   4806   4804   4807   4808     1  0.0000000  0.6508444  3
   4806   4804   4807   4809     1  0.0000000  0.6508444  3
   4808   4807   4810   4811     1  0.0000000  3.3472000  1
   4808   4807   4810   4811     1  0.0000000  0.0000000  2
   4808   4807   4810   4811     1  180.0000771  0.3347200  3
   4808   4807   4810   4812     1  0.0000000  3.3472000  1
   4808   4807   4810   4812     1  0.0000000  0.0000000  2
   4808   4807   4810   4812     1  180.0000771  0.3347200  3
   4809   4807   4810   4811     1  0.0000000  3.3472000  1
   4809   4807   4810   4811     1  0.0000000  0.0000000  2
   4809   4807   4810   4811     1  180.0000771  0.3347200  3
   4809   4807   4810   4812     1  0.0000000  3.3472000  1
   4809   4807   4810   4812     1  0.0000000  0.0000000  2
   4809   4807   4810   4812     1  180.0000771  0.3347200  3
   4814   4817   4820   4821     1  0.0000000  0.6508444  3
   4814   4817   4820   4822     1  0.0000000  0.6508444  3
   4815   4814   4817   4820     1  0.0000000  0.6508444  3
   4815   4814   4817   4818     1  0.0000000  0.6508444  3
   4815   4814   4817   4819     1  0.0000000  0.6508444  3
   4816   4814   4817   4820     1  0.0000000  0.6508444  3
   4816   4814   4817   4818     1  0.0000000  0.6508444  3
   4816   4814   4817   4819     1  0.0000000  0.6508444  3
   4818   4817   4814   4842     1  0.0000000  1.0460000  1
   4818   4817   4814   4842     1  0.0000000  0.0000000  3
   4818   4817   4820   4823     1  0.0000000  0.6508444  3
   4818   4817   4820   4821     1  0.0000000  0.6508444  3
   4818   4817   4820   4822     1  0.0000000  0.6508444  3
   4819   4817   4814   4842     1  0.0000000  1.0460000  1
   4819   4817   4814   4842     1  0.0000000  0.0000000  3
   4819   4817   4820   4823     1  0.0000000  0.6508444  3
   4819   4817   4820   4821     1  0.0000000  0.6508444  3
   4819   4817   4820   4822     1  0.0000000  0.6508444  3
   4820   4823   4824   4825     1  0.0000000  1.2552000  3
   4820   4823   4824   4826     1  0.0000000  1.2552000  3
   4820   4823   4833   4834     1  0.0000000  1.2552000  3
   4820   4823   4833   4835     1  0.0000000  1.2552000  3
   4821   4820   4823   4824     1  0.0000000  1.2552000  3
   4821   4820   4823   4833     1  0.0000000  1.2552000  3
   4822   4820   4823   4824     1  0.0000000  1.2552000  3
   4822   4820   4823   4833     1  0.0000000  1.2552000  3
   4823   4824   4827   4828     1  0.0000000  0.6508444  3
   4823   4824   4827   4829     1  0.0000000  0.6508444  3
   4823   4833   4836   4837     1  0.0000000  0.6508444  3
   4823   4833   4836   4838     1  0.0000000  0.6508444  3
   4824   4823   4833   4834     1  0.0000000  1.2552000  3
   4824   4823   4833   4835     1  0.0000000  1.2552000  3
   4825   4824   4823   4833     1  0.0000000  1.2552000  3
   4825   4824   4827   4830     1  0.0000000  0.6508444  3
   4825   4824   4827   4828     1  0.0000000  0.6508444  3
   4825   4824   4827   4829     1  0.0000000  0.6508444  3
   4826   4824   4823   4833     1  0.0000000  1.2552000  3
   4826   4824   4827   4830     1  0.0000000  0.6508444  3
   4826   4824   4827   4828     1  0.0000000  0.6508444  3
   4826   4824   4827   4829     1  0.0000000  0.6508444  3
   4828   4827   4830   4831     1  0.0000000  3.3472000  1
   4828   4827   4830   4831     1  0.0000000  0.0000000  2
   4828   4827   4830   4831     1  180.0000771  0.3347200  3
   4828   4827   4830   4832     1  0.0000000  3.3472000  1
   4828   4827   4830   4832     1  0.0000000  0.0000000  2
   4828   4827   4830   4832     1  180.0000771  0.3347200  3
   4829   4827   4830   4831     1  0.0000000  3.3472000  1
   4829   4827   4830   4831     1  0.0000000  0.0000000  2
   4829   4827   4830   4831     1  180.0000771  0.3347200  3
   4829   4827   4830   4832     1  0.0000000  3.3472000  1
   4829   4827   4830   4832     1  0.0000000  0.0000000  2
   4829   4827   4830   4832     1  180.0000771  0.3347200  3
   4834   4833   4836   4839     1  0.0000000  0.6508444  3
   4834   4833   4836   4837     1  0.0000000  0.6508444  3
   4834   4833   4836   4838     1  0.0000000  0.6508444  3
   4835   4833   4836   4839     1  0.0000000  0.6508444  3
   4835   4833   4836   4837     1  0.0000000  0.6508444  3
   4835   4833   4836   4838     1  0.0000000  0.6508444  3
   4837   4836   4839   4840     1  0.0000000  3.3472000  1
   4837   4836   4839   4840     1  0.0000000  0.0000000  2
   4837   4836   4839   4840     1  180.0000771  0.3347200  3
   4837   4836   4839   4841     1  0.0000000  3.3472000  1
   4837   4836   4839   4841     1  0.0000000  0.0000000  2
   4837   4836   4839   4841     1  180.0000771  0.3347200  3
   4838   4836   4839   4840     1  0.0000000  3.3472000  1
   4838   4836   4839   4840     1  0.0000000  0.0000000  2
   4838   4836   4839   4840     1  180.0000771  0.3347200  3
   4838   4836   4839   4841     1  0.0000000  3.3472000  1
   4838   4836   4839   4841     1  0.0000000  0.0000000  2
   4838   4836   4839   4841     1  180.0000771  0.3347200  3
   4843   4846   4849   4850     1  0.0000000  0.6508444  3
   4843   4846   4849   4851     1  0.0000000  0.6508444  3
   4844   4843   4846   4849     1  0.0000000  0.6508444  3
   4844   4843   4846   4847     1  0.0000000  0.6508444  3
   4844   4843   4846   4848     1  0.0000000  0.6508444  3
   4845   4843   4846   4849     1  0.0000000  0.6508444  3
   4845   4843   4846   4847     1  0.0000000  0.6508444  3
   4845   4843   4846   4848     1  0.0000000  0.6508444  3
   4847   4846   4849   4852     1  0.0000000  0.6508444  3
   4847   4846   4849   4850     1  0.0000000  0.6508444  3
   4847   4846   4849   4851     1  0.0000000  0.6508444  3
   4847   4846   4843   4871     1  0.0000000  1.0460000  1
   4847   4846   4843   4871     1  0.0000000  0.0000000  3
   4848   4846   4849   4852     1  0.0000000  0.6508444  3
   4848   4846   4849   4850     1  0.0000000  0.6508444  3
   4848   4846   4849   4851     1  0.0000000  0.6508444  3
   4848   4846   4843   4871     1  0.0000000  1.0460000  1
   4848   4846   4843   4871     1  0.0000000  0.0000000  3
   4849   4852   4853   4854     1  0.0000000  1.2552000  3
   4849   4852   4853   4855     1  0.0000000  1.2552000  3
   4849   4852   4862   4863     1  0.0000000  1.2552000  3
   4849   4852   4862   4864     1  0.0000000  1.2552000  3
   4850   4849   4852   4853     1  0.0000000  1.2552000  3
   4850   4849   4852   4862     1  0.0000000  1.2552000  3
   4851   4849   4852   4853     1  0.0000000  1.2552000  3
   4851   4849   4852   4862     1  0.0000000  1.2552000  3
   4852   4853   4856   4857     1  0.0000000  0.6508444  3
   4852   4853   4856   4858     1  0.0000000  0.6508444  3
   4852   4862   4865   4866     1  0.0000000  0.6508444  3
   4852   4862   4865   4867     1  0.0000000  0.6508444  3
   4853   4852   4862   4863     1  0.0000000  1.2552000  3
   4853   4852   4862   4864     1  0.0000000  1.2552000  3
   4854   4853   4856   4859     1  0.0000000  0.6508444  3
   4854   4853   4856   4857     1  0.0000000  0.6508444  3
   4854   4853   4856   4858     1  0.0000000  0.6508444  3
   4854   4853   4852   4862     1  0.0000000  1.2552000  3
   4855   4853   4856   4859     1  0.0000000  0.6508444  3
   4855   4853   4856   4857     1  0.0000000  0.6508444  3
   4855   4853   4856   4858     1  0.0000000  0.6508444  3
   4855   4853   4852   4862     1  0.0000000  1.2552000  3
   4857   4856   4859   4860     1  0.0000000  3.3472000  1
   4857   4856   4859   4860     1  0.0000000  0.0000000  2
   4857   4856   4859   4860     1  180.0000771  0.3347200  3
   4857   4856   4859   4861     1  0.0000000  3.3472000  1
   4857   4856   4859   4861     1  0.0000000  0.0000000  2
   4857   4856   4859   4861     1  180.0000771  0.3347200  3
   4858   4856   4859   4860     1  0.0000000  3.3472000  1
   4858   4856   4859   4860     1  0.0000000  0.0000000  2
   4858   4856   4859   4860     1  180.0000771  0.3347200  3
   4858   4856   4859   4861     1  0.0000000  3.3472000  1
   4858   4856   4859   4861     1  0.0000000  0.0000000  2
   4858   4856   4859   4861     1  180.0000771  0.3347200  3
   4863   4862   4865   4868     1  0.0000000  0.6508444  3
   4863   4862   4865   4866     1  0.0000000  0.6508444  3
   4863   4862   4865   4867     1  0.0000000  0.6508444  3
   4864   4862   4865   4868     1  0.0000000  0.6508444  3
   4864   4862   4865   4866     1  0.0000000  0.6508444  3
   4864   4862   4865   4867     1  0.0000000  0.6508444  3
   4866   4865   4868   4869     1  0.0000000  3.3472000  1
   4866   4865   4868   4869     1  0.0000000  0.0000000  2
   4866   4865   4868   4869     1  180.0000771  0.3347200  3
   4866   4865   4868   4870     1  0.0000000  3.3472000  1
   4866   4865   4868   4870     1  0.0000000  0.0000000  2
   4866   4865   4868   4870     1  180.0000771  0.3347200  3
   4867   4865   4868   4869     1  0.0000000  3.3472000  1
   4867   4865   4868   4869     1  0.0000000  0.0000000  2
   4867   4865   4868   4869     1  180.0000771  0.3347200  3
   4867   4865   4868   4870     1  0.0000000  3.3472000  1
   4867   4865   4868   4870     1  0.0000000  0.0000000  2
   4867   4865   4868   4870     1  180.0000771  0.3347200  3
   4872   4875   4878   4879     1  0.0000000  0.6508444  3
   4872   4875   4878   4880     1  0.0000000  0.6508444  3
   4873   4872   4875   4878     1  0.0000000  0.6508444  3
   4873   4872   4875   4876     1  0.0000000  0.6508444  3
   4873   4872   4875   4877     1  0.0000000  0.6508444  3
   4874   4872   4875   4878     1  0.0000000  0.6508444  3
   4874   4872   4875   4876     1  0.0000000  0.6508444  3
   4874   4872   4875   4877     1  0.0000000  0.6508444  3
   4876   4875   4872   4900     1  0.0000000  1.0460000  1
   4876   4875   4872   4900     1  0.0000000  0.0000000  3
   4876   4875   4878   4881     1  0.0000000  0.6508444  3
   4876   4875   4878   4879     1  0.0000000  0.6508444  3
   4876   4875   4878   4880     1  0.0000000  0.6508444  3
   4877   4875   4872   4900     1  0.0000000  1.0460000  1
   4877   4875   4872   4900     1  0.0000000  0.0000000  3
   4877   4875   4878   4881     1  0.0000000  0.6508444  3
   4877   4875   4878   4879     1  0.0000000  0.6508444  3
   4877   4875   4878   4880     1  0.0000000  0.6508444  3
   4878   4881   4882   4883     1  0.0000000  1.2552000  3
   4878   4881   4882   4884     1  0.0000000  1.2552000  3
   4878   4881   4891   4892     1  0.0000000  1.2552000  3
   4878   4881   4891   4893     1  0.0000000  1.2552000  3
   4879   4878   4881   4882     1  0.0000000  1.2552000  3
   4879   4878   4881   4891     1  0.0000000  1.2552000  3
   4880   4878   4881   4882     1  0.0000000  1.2552000  3
   4880   4878   4881   4891     1  0.0000000  1.2552000  3
   4881   4882   4885   4886     1  0.0000000  0.6508444  3
   4881   4882   4885   4887     1  0.0000000  0.6508444  3
   4881   4891   4894   4895     1  0.0000000  0.6508444  3
   4881   4891   4894   4896     1  0.0000000  0.6508444  3
   4882   4881   4891   4892     1  0.0000000  1.2552000  3
   4882   4881   4891   4893     1  0.0000000  1.2552000  3
   4883   4882   4881   4891     1  0.0000000  1.2552000  3
   4883   4882   4885   4888     1  0.0000000  0.6508444  3
   4883   4882   4885   4886     1  0.0000000  0.6508444  3
   4883   4882   4885   4887     1  0.0000000  0.6508444  3
   4884   4882   4881   4891     1  0.0000000  1.2552000  3
   4884   4882   4885   4888     1  0.0000000  0.6508444  3
   4884   4882   4885   4886     1  0.0000000  0.6508444  3
   4884   4882   4885   4887     1  0.0000000  0.6508444  3
   4886   4885   4888   4889     1  0.0000000  3.3472000  1
   4886   4885   4888   4889     1  0.0000000  0.0000000  2
   4886   4885   4888   4889     1  180.0000771  0.3347200  3
   4886   4885   4888   4890     1  0.0000000  3.3472000  1
   4886   4885   4888   4890     1  0.0000000  0.0000000  2
   4886   4885   4888   4890     1  180.0000771  0.3347200  3
   4887   4885   4888   4889     1  0.0000000  3.3472000  1
   4887   4885   4888   4889     1  0.0000000  0.0000000  2
   4887   4885   4888   4889     1  180.0000771  0.3347200  3
   4887   4885   4888   4890     1  0.0000000  3.3472000  1
   4887   4885   4888   4890     1  0.0000000  0.0000000  2
   4887   4885   4888   4890     1  180.0000771  0.3347200  3
   4892   4891   4894   4897     1  0.0000000  0.6508444  3
   4892   4891   4894   4895     1  0.0000000  0.6508444  3
   4892   4891   4894   4896     1  0.0000000  0.6508444  3
   4893   4891   4894   4897     1  0.0000000  0.6508444  3
   4893   4891   4894   4895     1  0.0000000  0.6508444  3
   4893   4891   4894   4896     1  0.0000000  0.6508444  3
   4895   4894   4897   4898     1  0.0000000  3.3472000  1
   4895   4894   4897   4898     1  0.0000000  0.0000000  2
   4895   4894   4897   4898     1  180.0000771  0.3347200  3
   4895   4894   4897   4899     1  0.0000000  3.3472000  1
   4895   4894   4897   4899     1  0.0000000  0.0000000  2
   4895   4894   4897   4899     1  180.0000771  0.3347200  3
   4896   4894   4897   4898     1  0.0000000  3.3472000  1
   4896   4894   4897   4898     1  0.0000000  0.0000000  2
   4896   4894   4897   4898     1  180.0000771  0.3347200  3
   4896   4894   4897   4899     1  0.0000000  3.3472000  1
   4896   4894   4897   4899     1  0.0000000  0.0000000  2
   4896   4894   4897   4899     1  180.0000771  0.3347200  3
   4901   4904   4907   4908     1  0.0000000  0.6508444  3
   4901   4904   4907   4909     1  0.0000000  0.6508444  3
   4902   4901   4904   4907     1  0.0000000  0.6508444  3
   4902   4901   4904   4905     1  0.0000000  0.6508444  3
   4902   4901   4904   4906     1  0.0000000  0.6508444  3
   4903   4901   4904   4907     1  0.0000000  0.6508444  3
   4903   4901   4904   4905     1  0.0000000  0.6508444  3
   4903   4901   4904   4906     1  0.0000000  0.6508444  3
   4905   4904   4907   4910     1  0.0000000  0.6508444  3
   4905   4904   4907   4908     1  0.0000000  0.6508444  3
   4905   4904   4907   4909     1  0.0000000  0.6508444  3
   4905   4904   4901   4929     1  0.0000000  1.0460000  1
   4905   4904   4901   4929     1  0.0000000  0.0000000  3
   4906   4904   4907   4910     1  0.0000000  0.6508444  3
   4906   4904   4907   4908     1  0.0000000  0.6508444  3
   4906   4904   4907   4909     1  0.0000000  0.6508444  3
   4906   4904   4901   4929     1  0.0000000  1.0460000  1
   4906   4904   4901   4929     1  0.0000000  0.0000000  3
   4907   4910   4911   4912     1  0.0000000  1.2552000  3
   4907   4910   4911   4913     1  0.0000000  1.2552000  3
   4907   4910   4920   4921     1  0.0000000  1.2552000  3
   4907   4910   4920   4922     1  0.0000000  1.2552000  3
   4908   4907   4910   4911     1  0.0000000  1.2552000  3
   4908   4907   4910   4920     1  0.0000000  1.2552000  3
   4909   4907   4910   4911     1  0.0000000  1.2552000  3
   4909   4907   4910   4920     1  0.0000000  1.2552000  3
   4910   4911   4914   4915     1  0.0000000  0.6508444  3
   4910   4911   4914   4916     1  0.0000000  0.6508444  3
   4910   4920   4923   4924     1  0.0000000  0.6508444  3
   4910   4920   4923   4925     1  0.0000000  0.6508444  3
   4911   4910   4920   4921     1  0.0000000  1.2552000  3
   4911   4910   4920   4922     1  0.0000000  1.2552000  3
   4912   4911   4914   4917     1  0.0000000  0.6508444  3
   4912   4911   4914   4915     1  0.0000000  0.6508444  3
   4912   4911   4914   4916     1  0.0000000  0.6508444  3
   4912   4911   4910   4920     1  0.0000000  1.2552000  3
   4913   4911   4914   4917     1  0.0000000  0.6508444  3
   4913   4911   4914   4915     1  0.0000000  0.6508444  3
   4913   4911   4914   4916     1  0.0000000  0.6508444  3
   4913   4911   4910   4920     1  0.0000000  1.2552000  3
   4915   4914   4917   4918     1  0.0000000  3.3472000  1
   4915   4914   4917   4918     1  0.0000000  0.0000000  2
   4915   4914   4917   4918     1  180.0000771  0.3347200  3
   4915   4914   4917   4919     1  0.0000000  3.3472000  1
   4915   4914   4917   4919     1  0.0000000  0.0000000  2
   4915   4914   4917   4919     1  180.0000771  0.3347200  3
   4916   4914   4917   4918     1  0.0000000  3.3472000  1
   4916   4914   4917   4918     1  0.0000000  0.0000000  2
   4916   4914   4917   4918     1  180.0000771  0.3347200  3
   4916   4914   4917   4919     1  0.0000000  3.3472000  1
   4916   4914   4917   4919     1  0.0000000  0.0000000  2
   4916   4914   4917   4919     1  180.0000771  0.3347200  3
   4921   4920   4923   4926     1  0.0000000  0.6508444  3
   4921   4920   4923   4924     1  0.0000000  0.6508444  3
   4921   4920   4923   4925     1  0.0000000  0.6508444  3
   4922   4920   4923   4926     1  0.0000000  0.6508444  3
   4922   4920   4923   4924     1  0.0000000  0.6508444  3
   4922   4920   4923   4925     1  0.0000000  0.6508444  3
   4924   4923   4926   4927     1  0.0000000  3.3472000  1
   4924   4923   4926   4927     1  0.0000000  0.0000000  2
   4924   4923   4926   4927     1  180.0000771  0.3347200  3
   4924   4923   4926   4928     1  0.0000000  3.3472000  1
   4924   4923   4926   4928     1  0.0000000  0.0000000  2
   4924   4923   4926   4928     1  180.0000771  0.3347200  3
   4925   4923   4926   4927     1  0.0000000  3.3472000  1
   4925   4923   4926   4927     1  0.0000000  0.0000000  2
   4925   4923   4926   4927     1  180.0000771  0.3347200  3
   4925   4923   4926   4928     1  0.0000000  3.3472000  1
   4925   4923   4926   4928     1  0.0000000  0.0000000  2
   4925   4923   4926   4928     1  180.0000771  0.3347200  3
   4930   4933   4936   4937     1  0.0000000  0.6508444  3
   4930   4933   4936   4938     1  0.0000000  0.6508444  3
   4931   4930   4933   4936     1  0.0000000  0.6508444  3
   4931   4930   4933   4934     1  0.0000000  0.6508444  3
   4931   4930   4933   4935     1  0.0000000  0.6508444  3
   4932   4930   4933   4936     1  0.0000000  0.6508444  3
   4932   4930   4933   4934     1  0.0000000  0.6508444  3
   4932   4930   4933   4935     1  0.0000000  0.6508444  3
   4934   4933   4930   4958     1  0.0000000  1.0460000  1
   4934   4933   4930   4958     1  0.0000000  0.0000000  3
   4934   4933   4936   4939     1  0.0000000  0.6508444  3
   4934   4933   4936   4937     1  0.0000000  0.6508444  3
   4934   4933   4936   4938     1  0.0000000  0.6508444  3
   4935   4933   4930   4958     1  0.0000000  1.0460000  1
   4935   4933   4930   4958     1  0.0000000  0.0000000  3
   4935   4933   4936   4939     1  0.0000000  0.6508444  3
   4935   4933   4936   4937     1  0.0000000  0.6508444  3
   4935   4933   4936   4938     1  0.0000000  0.6508444  3
   4936   4939   4940   4941     1  0.0000000  1.2552000  3
   4936   4939   4940   4942     1  0.0000000  1.2552000  3
   4936   4939   4949   4950     1  0.0000000  1.2552000  3
   4936   4939   4949   4951     1  0.0000000  1.2552000  3
   4937   4936   4939   4940     1  0.0000000  1.2552000  3
   4937   4936   4939   4949     1  0.0000000  1.2552000  3
   4938   4936   4939   4940     1  0.0000000  1.2552000  3
   4938   4936   4939   4949     1  0.0000000  1.2552000  3
   4939   4940   4943   4944     1  0.0000000  0.6508444  3
   4939   4940   4943   4945     1  0.0000000  0.6508444  3
   4939   4949   4952   4953     1  0.0000000  0.6508444  3
   4939   4949   4952   4954     1  0.0000000  0.6508444  3
   4940   4939   4949   4950     1  0.0000000  1.2552000  3
   4940   4939   4949   4951     1  0.0000000  1.2552000  3
   4941   4940   4939   4949     1  0.0000000  1.2552000  3
   4941   4940   4943   4946     1  0.0000000  0.6508444  3
   4941   4940   4943   4944     1  0.0000000  0.6508444  3
   4941   4940   4943   4945     1  0.0000000  0.6508444  3
   4942   4940   4939   4949     1  0.0000000  1.2552000  3
   4942   4940   4943   4946     1  0.0000000  0.6508444  3
   4942   4940   4943   4944     1  0.0000000  0.6508444  3
   4942   4940   4943   4945     1  0.0000000  0.6508444  3
   4944   4943   4946   4947     1  0.0000000  3.3472000  1
   4944   4943   4946   4947     1  0.0000000  0.0000000  2
   4944   4943   4946   4947     1  180.0000771  0.3347200  3
   4944   4943   4946   4948     1  0.0000000  3.3472000  1
   4944   4943   4946   4948     1  0.0000000  0.0000000  2
   4944   4943   4946   4948     1  180.0000771  0.3347200  3
   4945   4943   4946   4947     1  0.0000000  3.3472000  1
   4945   4943   4946   4947     1  0.0000000  0.0000000  2
   4945   4943   4946   4947     1  180.0000771  0.3347200  3
   4945   4943   4946   4948     1  0.0000000  3.3472000  1
   4945   4943   4946   4948     1  0.0000000  0.0000000  2
   4945   4943   4946   4948     1  180.0000771  0.3347200  3
   4950   4949   4952   4955     1  0.0000000  0.6508444  3
   4950   4949   4952   4953     1  0.0000000  0.6508444  3
   4950   4949   4952   4954     1  0.0000000  0.6508444  3
   4951   4949   4952   4955     1  0.0000000  0.6508444  3
   4951   4949   4952   4953     1  0.0000000  0.6508444  3
   4951   4949   4952   4954     1  0.0000000  0.6508444  3
   4953   4952   4955   4956     1  0.0000000  3.3472000  1
   4953   4952   4955   4956     1  0.0000000  0.0000000  2
   4953   4952   4955   4956     1  180.0000771  0.3347200  3
   4953   4952   4955   4957     1  0.0000000  3.3472000  1
   4953   4952   4955   4957     1  0.0000000  0.0000000  2
   4953   4952   4955   4957     1  180.0000771  0.3347200  3
   4954   4952   4955   4956     1  0.0000000  3.3472000  1
   4954   4952   4955   4956     1  0.0000000  0.0000000  2
   4954   4952   4955   4956     1  180.0000771  0.3347200  3
   4954   4952   4955   4957     1  0.0000000  3.3472000  1
   4954   4952   4955   4957     1  0.0000000  0.0000000  2
   4954   4952   4955   4957     1  180.0000771  0.3347200  3
   4959   4962   4965   4966     1  0.0000000  0.6508444  3
   4959   4962   4965   4967     1  0.0000000  0.6508444  3
   4960   4959   4962   4965     1  0.0000000  0.6508444  3
   4960   4959   4962   4963     1  0.0000000  0.6508444  3
   4960   4959   4962   4964     1  0.0000000  0.6508444  3
   4961   4959   4962   4965     1  0.0000000  0.6508444  3
   4961   4959   4962   4963     1  0.0000000  0.6508444  3
   4961   4959   4962   4964     1  0.0000000  0.6508444  3
   4963   4962   4965   4968     1  0.0000000  0.6508444  3
   4963   4962   4965   4966     1  0.0000000  0.6508444  3
   4963   4962   4965   4967     1  0.0000000  0.6508444  3
   4963   4962   4959   4987     1  0.0000000  1.0460000  1
   4963   4962   4959   4987     1  0.0000000  0.0000000  3
   4964   4962   4965   4968     1  0.0000000  0.6508444  3
   4964   4962   4965   4966     1  0.0000000  0.6508444  3
   4964   4962   4965   4967     1  0.0000000  0.6508444  3
   4964   4962   4959   4987     1  0.0000000  1.0460000  1
   4964   4962   4959   4987     1  0.0000000  0.0000000  3
   4965   4968   4969   4970     1  0.0000000  1.2552000  3
   4965   4968   4969   4971     1  0.0000000  1.2552000  3
   4965   4968   4978   4979     1  0.0000000  1.2552000  3
   4965   4968   4978   4980     1  0.0000000  1.2552000  3
   4966   4965   4968   4969     1  0.0000000  1.2552000  3
   4966   4965   4968   4978     1  0.0000000  1.2552000  3
   4967   4965   4968   4969     1  0.0000000  1.2552000  3
   4967   4965   4968   4978     1  0.0000000  1.2552000  3
   4968   4969   4972   4973     1  0.0000000  0.6508444  3
   4968   4969   4972   4974     1  0.0000000  0.6508444  3
   4968   4978   4981   4982     1  0.0000000  0.6508444  3
   4968   4978   4981   4983     1  0.0000000  0.6508444  3
   4969   4968   4978   4979     1  0.0000000  1.2552000  3
   4969   4968   4978   4980     1  0.0000000  1.2552000  3
   4970   4969   4972   4975     1  0.0000000  0.6508444  3
   4970   4969   4972   4973     1  0.0000000  0.6508444  3
   4970   4969   4972   4974     1  0.0000000  0.6508444  3
   4970   4969   4968   4978     1  0.0000000  1.2552000  3
   4971   4969   4972   4975     1  0.0000000  0.6508444  3
   4971   4969   4972   4973     1  0.0000000  0.6508444  3
   4971   4969   4972   4974     1  0.0000000  0.6508444  3
   4971   4969   4968   4978     1  0.0000000  1.2552000  3
   4973   4972   4975   4976     1  0.0000000  3.3472000  1
   4973   4972   4975   4976     1  0.0000000  0.0000000  2
   4973   4972   4975   4976     1  180.0000771  0.3347200  3
   4973   4972   4975   4977     1  0.0000000  3.3472000  1
   4973   4972   4975   4977     1  0.0000000  0.0000000  2
   4973   4972   4975   4977     1  180.0000771  0.3347200  3
   4974   4972   4975   4976     1  0.0000000  3.3472000  1
   4974   4972   4975   4976     1  0.0000000  0.0000000  2
   4974   4972   4975   4976     1  180.0000771  0.3347200  3
   4974   4972   4975   4977     1  0.0000000  3.3472000  1
   4974   4972   4975   4977     1  0.0000000  0.0000000  2
   4974   4972   4975   4977     1  180.0000771  0.3347200  3
   4979   4978   4981   4984     1  0.0000000  0.6508444  3
   4979   4978   4981   4982     1  0.0000000  0.6508444  3
   4979   4978   4981   4983     1  0.0000000  0.6508444  3
   4980   4978   4981   4984     1  0.0000000  0.6508444  3
   4980   4978   4981   4982     1  0.0000000  0.6508444  3
   4980   4978   4981   4983     1  0.0000000  0.6508444  3
   4982   4981   4984   4985     1  0.0000000  3.3472000  1
   4982   4981   4984   4985     1  0.0000000  0.0000000  2
   4982   4981   4984   4985     1  180.0000771  0.3347200  3
   4982   4981   4984   4986     1  0.0000000  3.3472000  1
   4982   4981   4984   4986     1  0.0000000  0.0000000  2
   4982   4981   4984   4986     1  180.0000771  0.3347200  3
   4983   4981   4984   4985     1  0.0000000  3.3472000  1
   4983   4981   4984   4985     1  0.0000000  0.0000000  2
   4983   4981   4984   4985     1  180.0000771  0.3347200  3
   4983   4981   4984   4986     1  0.0000000  3.3472000  1
   4983   4981   4984   4986     1  0.0000000  0.0000000  2
   4983   4981   4984   4986     1  180.0000771  0.3347200  3
   4988   4991   4994   4995     1  0.0000000  0.6508444  3
   4988   4991   4994   4996     1  0.0000000  0.6508444  3
   4989   4988   4991   4994     1  0.0000000  0.6508444  3
   4989   4988   4991   4992     1  0.0000000  0.6508444  3
   4989   4988   4991   4993     1  0.0000000  0.6508444  3
   4990   4988   4991   4994     1  0.0000000  0.6508444  3
   4990   4988   4991   4992     1  0.0000000  0.6508444  3
   4990   4988   4991   4993     1  0.0000000  0.6508444  3
   4992   4991   4988   5016     1  0.0000000  1.0460000  1
   4992   4991   4988   5016     1  0.0000000  0.0000000  3
   4992   4991   4994   4997     1  0.0000000  0.6508444  3
   4992   4991   4994   4995     1  0.0000000  0.6508444  3
   4992   4991   4994   4996     1  0.0000000  0.6508444  3
   4993   4991   4988   5016     1  0.0000000  1.0460000  1
   4993   4991   4988   5016     1  0.0000000  0.0000000  3
   4993   4991   4994   4997     1  0.0000000  0.6508444  3
   4993   4991   4994   4995     1  0.0000000  0.6508444  3
   4993   4991   4994   4996     1  0.0000000  0.6508444  3
   4994   4997   4998   4999     1  0.0000000  1.2552000  3
   4994   4997   4998   5000     1  0.0000000  1.2552000  3
   4994   4997   5007   5008     1  0.0000000  1.2552000  3
   4994   4997   5007   5009     1  0.0000000  1.2552000  3
   4995   4994   4997   4998     1  0.0000000  1.2552000  3
   4995   4994   4997   5007     1  0.0000000  1.2552000  3
   4996   4994   4997   4998     1  0.0000000  1.2552000  3
   4996   4994   4997   5007     1  0.0000000  1.2552000  3
   4997   4998   5001   5002     1  0.0000000  0.6508444  3
   4997   4998   5001   5003     1  0.0000000  0.6508444  3
   4997   5007   5010   5011     1  0.0000000  0.6508444  3
   4997   5007   5010   5012     1  0.0000000  0.6508444  3
   4998   4997   5007   5008     1  0.0000000  1.2552000  3
   4998   4997   5007   5009     1  0.0000000  1.2552000  3
   4999   4998   4997   5007     1  0.0000000  1.2552000  3
   4999   4998   5001   5004     1  0.0000000  0.6508444  3
   4999   4998   5001   5002     1  0.0000000  0.6508444  3
   4999   4998   5001   5003     1  0.0000000  0.6508444  3
   5000   4998   4997   5007     1  0.0000000  1.2552000  3
   5000   4998   5001   5004     1  0.0000000  0.6508444  3
   5000   4998   5001   5002     1  0.0000000  0.6508444  3
   5000   4998   5001   5003     1  0.0000000  0.6508444  3
   5002   5001   5004   5005     1  0.0000000  3.3472000  1
   5002   5001   5004   5005     1  0.0000000  0.0000000  2
   5002   5001   5004   5005     1  180.0000771  0.3347200  3
   5002   5001   5004   5006     1  0.0000000  3.3472000  1
   5002   5001   5004   5006     1  0.0000000  0.0000000  2
   5002   5001   5004   5006     1  180.0000771  0.3347200  3
   5003   5001   5004   5005     1  0.0000000  3.3472000  1
   5003   5001   5004   5005     1  0.0000000  0.0000000  2
   5003   5001   5004   5005     1  180.0000771  0.3347200  3
   5003   5001   5004   5006     1  0.0000000  3.3472000  1
   5003   5001   5004   5006     1  0.0000000  0.0000000  2
   5003   5001   5004   5006     1  180.0000771  0.3347200  3
   5008   5007   5010   5013     1  0.0000000  0.6508444  3
   5008   5007   5010   5011     1  0.0000000  0.6508444  3
   5008   5007   5010   5012     1  0.0000000  0.6508444  3
   5009   5007   5010   5013     1  0.0000000  0.6508444  3
   5009   5007   5010   5011     1  0.0000000  0.6508444  3
   5009   5007   5010   5012     1  0.0000000  0.6508444  3
   5011   5010   5013   5014     1  0.0000000  3.3472000  1
   5011   5010   5013   5014     1  0.0000000  0.0000000  2
   5011   5010   5013   5014     1  180.0000771  0.3347200  3
   5011   5010   5013   5015     1  0.0000000  3.3472000  1
   5011   5010   5013   5015     1  0.0000000  0.0000000  2
   5011   5010   5013   5015     1  180.0000771  0.3347200  3
   5012   5010   5013   5014     1  0.0000000  3.3472000  1
   5012   5010   5013   5014     1  0.0000000  0.0000000  2
   5012   5010   5013   5014     1  180.0000771  0.3347200  3
   5012   5010   5013   5015     1  0.0000000  3.3472000  1
   5012   5010   5013   5015     1  0.0000000  0.0000000  2
   5012   5010   5013   5015     1  180.0000771  0.3347200  3
   5017   5020   5023   5024     1  0.0000000  0.6508444  3
   5017   5020   5023   5025     1  0.0000000  0.6508444  3
   5018   5017   5020   5023     1  0.0000000  0.6508444  3
   5018   5017   5020   5021     1  0.0000000  0.6508444  3
   5018   5017   5020   5022     1  0.0000000  0.6508444  3
   5019   5017   5020   5023     1  0.0000000  0.6508444  3
   5019   5017   5020   5021     1  0.0000000  0.6508444  3
   5019   5017   5020   5022     1  0.0000000  0.6508444  3
   5021   5020   5023   5026     1  0.0000000  0.6508444  3
   5021   5020   5023   5024     1  0.0000000  0.6508444  3
   5021   5020   5023   5025     1  0.0000000  0.6508444  3
   5021   5020   5017   5045     1  0.0000000  1.0460000  1
   5021   5020   5017   5045     1  0.0000000  0.0000000  3
   5022   5020   5023   5026     1  0.0000000  0.6508444  3
   5022   5020   5023   5024     1  0.0000000  0.6508444  3
   5022   5020   5023   5025     1  0.0000000  0.6508444  3
   5022   5020   5017   5045     1  0.0000000  1.0460000  1
   5022   5020   5017   5045     1  0.0000000  0.0000000  3
   5023   5026   5027   5028     1  0.0000000  1.2552000  3
   5023   5026   5027   5029     1  0.0000000  1.2552000  3
   5023   5026   5036   5037     1  0.0000000  1.2552000  3
   5023   5026   5036   5038     1  0.0000000  1.2552000  3
   5024   5023   5026   5027     1  0.0000000  1.2552000  3
   5024   5023   5026   5036     1  0.0000000  1.2552000  3
   5025   5023   5026   5027     1  0.0000000  1.2552000  3
   5025   5023   5026   5036     1  0.0000000  1.2552000  3
   5026   5027   5030   5031     1  0.0000000  0.6508444  3
   5026   5027   5030   5032     1  0.0000000  0.6508444  3
   5026   5036   5039   5040     1  0.0000000  0.6508444  3
   5026   5036   5039   5041     1  0.0000000  0.6508444  3
   5027   5026   5036   5037     1  0.0000000  1.2552000  3
   5027   5026   5036   5038     1  0.0000000  1.2552000  3
   5028   5027   5030   5033     1  0.0000000  0.6508444  3
   5028   5027   5030   5031     1  0.0000000  0.6508444  3
   5028   5027   5030   5032     1  0.0000000  0.6508444  3
   5028   5027   5026   5036     1  0.0000000  1.2552000  3
   5029   5027   5030   5033     1  0.0000000  0.6508444  3
   5029   5027   5030   5031     1  0.0000000  0.6508444  3
   5029   5027   5030   5032     1  0.0000000  0.6508444  3
   5029   5027   5026   5036     1  0.0000000  1.2552000  3
   5031   5030   5033   5034     1  0.0000000  3.3472000  1
   5031   5030   5033   5034     1  0.0000000  0.0000000  2
   5031   5030   5033   5034     1  180.0000771  0.3347200  3
   5031   5030   5033   5035     1  0.0000000  3.3472000  1
   5031   5030   5033   5035     1  0.0000000  0.0000000  2
   5031   5030   5033   5035     1  180.0000771  0.3347200  3
   5032   5030   5033   5034     1  0.0000000  3.3472000  1
   5032   5030   5033   5034     1  0.0000000  0.0000000  2
   5032   5030   5033   5034     1  180.0000771  0.3347200  3
   5032   5030   5033   5035     1  0.0000000  3.3472000  1
   5032   5030   5033   5035     1  0.0000000  0.0000000  2
   5032   5030   5033   5035     1  180.0000771  0.3347200  3
   5037   5036   5039   5042     1  0.0000000  0.6508444  3
   5037   5036   5039   5040     1  0.0000000  0.6508444  3
   5037   5036   5039   5041     1  0.0000000  0.6508444  3
   5038   5036   5039   5042     1  0.0000000  0.6508444  3
   5038   5036   5039   5040     1  0.0000000  0.6508444  3
   5038   5036   5039   5041     1  0.0000000  0.6508444  3
   5040   5039   5042   5043     1  0.0000000  3.3472000  1
   5040   5039   5042   5043     1  0.0000000  0.0000000  2
   5040   5039   5042   5043     1  180.0000771  0.3347200  3
   5040   5039   5042   5044     1  0.0000000  3.3472000  1
   5040   5039   5042   5044     1  0.0000000  0.0000000  2
   5040   5039   5042   5044     1  180.0000771  0.3347200  3
   5041   5039   5042   5043     1  0.0000000  3.3472000  1
   5041   5039   5042   5043     1  0.0000000  0.0000000  2
   5041   5039   5042   5043     1  180.0000771  0.3347200  3
   5041   5039   5042   5044     1  0.0000000  3.3472000  1
   5041   5039   5042   5044     1  0.0000000  0.0000000  2
   5041   5039   5042   5044     1  180.0000771  0.3347200  3
   5046   5049   5052   5053     1  0.0000000  0.6508444  3
   5046   5049   5052   5054     1  0.0000000  0.6508444  3
   5047   5046   5049   5052     1  0.0000000  0.6508444  3
   5047   5046   5049   5050     1  0.0000000  0.6508444  3
   5047   5046   5049   5051     1  0.0000000  0.6508444  3
   5048   5046   5049   5052     1  0.0000000  0.6508444  3
   5048   5046   5049   5050     1  0.0000000  0.6508444  3
   5048   5046   5049   5051     1  0.0000000  0.6508444  3
   5050   5049   5046   5074     1  0.0000000  1.0460000  1
   5050   5049   5046   5074     1  0.0000000  0.0000000  3
   5050   5049   5052   5055     1  0.0000000  0.6508444  3
   5050   5049   5052   5053     1  0.0000000  0.6508444  3
   5050   5049   5052   5054     1  0.0000000  0.6508444  3
   5051   5049   5046   5074     1  0.0000000  1.0460000  1
   5051   5049   5046   5074     1  0.0000000  0.0000000  3
   5051   5049   5052   5055     1  0.0000000  0.6508444  3
   5051   5049   5052   5053     1  0.0000000  0.6508444  3
   5051   5049   5052   5054     1  0.0000000  0.6508444  3
   5052   5055   5056   5057     1  0.0000000  1.2552000  3
   5052   5055   5056   5058     1  0.0000000  1.2552000  3
   5052   5055   5065   5066     1  0.0000000  1.2552000  3
   5052   5055   5065   5067     1  0.0000000  1.2552000  3
   5053   5052   5055   5056     1  0.0000000  1.2552000  3
   5053   5052   5055   5065     1  0.0000000  1.2552000  3
   5054   5052   5055   5056     1  0.0000000  1.2552000  3
   5054   5052   5055   5065     1  0.0000000  1.2552000  3
   5055   5056   5059   5060     1  0.0000000  0.6508444  3
   5055   5056   5059   5061     1  0.0000000  0.6508444  3
   5055   5065   5068   5069     1  0.0000000  0.6508444  3
   5055   5065   5068   5070     1  0.0000000  0.6508444  3
   5056   5055   5065   5066     1  0.0000000  1.2552000  3
   5056   5055   5065   5067     1  0.0000000  1.2552000  3
   5057   5056   5055   5065     1  0.0000000  1.2552000  3
   5057   5056   5059   5062     1  0.0000000  0.6508444  3
   5057   5056   5059   5060     1  0.0000000  0.6508444  3
   5057   5056   5059   5061     1  0.0000000  0.6508444  3
   5058   5056   5055   5065     1  0.0000000  1.2552000  3
   5058   5056   5059   5062     1  0.0000000  0.6508444  3
   5058   5056   5059   5060     1  0.0000000  0.6508444  3
   5058   5056   5059   5061     1  0.0000000  0.6508444  3
   5060   5059   5062   5063     1  0.0000000  3.3472000  1
   5060   5059   5062   5063     1  0.0000000  0.0000000  2
   5060   5059   5062   5063     1  180.0000771  0.3347200  3
   5060   5059   5062   5064     1  0.0000000  3.3472000  1
   5060   5059   5062   5064     1  0.0000000  0.0000000  2
   5060   5059   5062   5064     1  180.0000771  0.3347200  3
   5061   5059   5062   5063     1  0.0000000  3.3472000  1
   5061   5059   5062   5063     1  0.0000000  0.0000000  2
   5061   5059   5062   5063     1  180.0000771  0.3347200  3
   5061   5059   5062   5064     1  0.0000000  3.3472000  1
   5061   5059   5062   5064     1  0.0000000  0.0000000  2
   5061   5059   5062   5064     1  180.0000771  0.3347200  3
   5066   5065   5068   5071     1  0.0000000  0.6508444  3
   5066   5065   5068   5069     1  0.0000000  0.6508444  3
   5066   5065   5068   5070     1  0.0000000  0.6508444  3
   5067   5065   5068   5071     1  0.0000000  0.6508444  3
   5067   5065   5068   5069     1  0.0000000  0.6508444  3
   5067   5065   5068   5070     1  0.0000000  0.6508444  3
   5069   5068   5071   5072     1  0.0000000  3.3472000  1
   5069   5068   5071   5072     1  0.0000000  0.0000000  2
   5069   5068   5071   5072     1  180.0000771  0.3347200  3
   5069   5068   5071   5073     1  0.0000000  3.3472000  1
   5069   5068   5071   5073     1  0.0000000  0.0000000  2
   5069   5068   5071   5073     1  180.0000771  0.3347200  3
   5070   5068   5071   5072     1  0.0000000  3.3472000  1
   5070   5068   5071   5072     1  0.0000000  0.0000000  2
   5070   5068   5071   5072     1  180.0000771  0.3347200  3
   5070   5068   5071   5073     1  0.0000000  3.3472000  1
   5070   5068   5071   5073     1  0.0000000  0.0000000  2
   5070   5068   5071   5073     1  180.0000771  0.3347200  3
   5075   5078   5081   5082     1  0.0000000  0.6508444  3
   5075   5078   5081   5083     1  0.0000000  0.6508444  3
   5076   5075   5078   5081     1  0.0000000  0.6508444  3
   5076   5075   5078   5079     1  0.0000000  0.6508444  3
   5076   5075   5078   5080     1  0.0000000  0.6508444  3
   5077   5075   5078   5081     1  0.0000000  0.6508444  3
   5077   5075   5078   5079     1  0.0000000  0.6508444  3
   5077   5075   5078   5080     1  0.0000000  0.6508444  3
   5079   5078   5081   5084     1  0.0000000  0.6508444  3
   5079   5078   5081   5082     1  0.0000000  0.6508444  3
   5079   5078   5081   5083     1  0.0000000  0.6508444  3
   5079   5078   5075   5103     1  0.0000000  1.0460000  1
   5079   5078   5075   5103     1  0.0000000  0.0000000  3
   5080   5078   5081   5084     1  0.0000000  0.6508444  3
   5080   5078   5081   5082     1  0.0000000  0.6508444  3
   5080   5078   5081   5083     1  0.0000000  0.6508444  3
   5080   5078   5075   5103     1  0.0000000  1.0460000  1
   5080   5078   5075   5103     1  0.0000000  0.0000000  3
   5081   5084   5085   5086     1  0.0000000  1.2552000  3
   5081   5084   5085   5087     1  0.0000000  1.2552000  3
   5081   5084   5094   5095     1  0.0000000  1.2552000  3
   5081   5084   5094   5096     1  0.0000000  1.2552000  3
   5082   5081   5084   5085     1  0.0000000  1.2552000  3
   5082   5081   5084   5094     1  0.0000000  1.2552000  3
   5083   5081   5084   5085     1  0.0000000  1.2552000  3
   5083   5081   5084   5094     1  0.0000000  1.2552000  3
   5084   5085   5088   5089     1  0.0000000  0.6508444  3
   5084   5085   5088   5090     1  0.0000000  0.6508444  3
   5084   5094   5097   5098     1  0.0000000  0.6508444  3
   5084   5094   5097   5099     1  0.0000000  0.6508444  3
   5085   5084   5094   5095     1  0.0000000  1.2552000  3
   5085   5084   5094   5096     1  0.0000000  1.2552000  3
   5086   5085   5088   5091     1  0.0000000  0.6508444  3
   5086   5085   5088   5089     1  0.0000000  0.6508444  3
   5086   5085   5088   5090     1  0.0000000  0.6508444  3
   5086   5085   5084   5094     1  0.0000000  1.2552000  3
   5087   5085   5088   5091     1  0.0000000  0.6508444  3
   5087   5085   5088   5089     1  0.0000000  0.6508444  3
   5087   5085   5088   5090     1  0.0000000  0.6508444  3
   5087   5085   5084   5094     1  0.0000000  1.2552000  3
   5089   5088   5091   5092     1  0.0000000  3.3472000  1
   5089   5088   5091   5092     1  0.0000000  0.0000000  2
   5089   5088   5091   5092     1  180.0000771  0.3347200  3
   5089   5088   5091   5093     1  0.0000000  3.3472000  1
   5089   5088   5091   5093     1  0.0000000  0.0000000  2
   5089   5088   5091   5093     1  180.0000771  0.3347200  3
   5090   5088   5091   5092     1  0.0000000  3.3472000  1
   5090   5088   5091   5092     1  0.0000000  0.0000000  2
   5090   5088   5091   5092     1  180.0000771  0.3347200  3
   5090   5088   5091   5093     1  0.0000000  3.3472000  1
   5090   5088   5091   5093     1  0.0000000  0.0000000  2
   5090   5088   5091   5093     1  180.0000771  0.3347200  3
   5095   5094   5097   5100     1  0.0000000  0.6508444  3
   5095   5094   5097   5098     1  0.0000000  0.6508444  3
   5095   5094   5097   5099     1  0.0000000  0.6508444  3
   5096   5094   5097   5100     1  0.0000000  0.6508444  3
   5096   5094   5097   5098     1  0.0000000  0.6508444  3
   5096   5094   5097   5099     1  0.0000000  0.6508444  3
   5098   5097   5100   5101     1  0.0000000  3.3472000  1
   5098   5097   5100   5101     1  0.0000000  0.0000000  2
   5098   5097   5100   5101     1  180.0000771  0.3347200  3
   5098   5097   5100   5102     1  0.0000000  3.3472000  1
   5098   5097   5100   5102     1  0.0000000  0.0000000  2
   5098   5097   5100   5102     1  180.0000771  0.3347200  3
   5099   5097   5100   5101     1  0.0000000  3.3472000  1
   5099   5097   5100   5101     1  0.0000000  0.0000000  2
   5099   5097   5100   5101     1  180.0000771  0.3347200  3
   5099   5097   5100   5102     1  0.0000000  3.3472000  1
   5099   5097   5100   5102     1  0.0000000  0.0000000  2
   5099   5097   5100   5102     1  180.0000771  0.3347200  3
   5104   5107   5110   5111     1  0.0000000  0.6508444  3
   5104   5107   5110   5112     1  0.0000000  0.6508444  3
   5105   5104   5107   5110     1  0.0000000  0.6508444  3
   5105   5104   5107   5108     1  0.0000000  0.6508444  3
   5105   5104   5107   5109     1  0.0000000  0.6508444  3
   5106   5104   5107   5110     1  0.0000000  0.6508444  3
   5106   5104   5107   5108     1  0.0000000  0.6508444  3
   5106   5104   5107   5109     1  0.0000000  0.6508444  3
   5108   5107   5104   5132     1  0.0000000  1.0460000  1
   5108   5107   5104   5132     1  0.0000000  0.0000000  3
   5108   5107   5110   5113     1  0.0000000  0.6508444  3
   5108   5107   5110   5111     1  0.0000000  0.6508444  3
   5108   5107   5110   5112     1  0.0000000  0.6508444  3
   5109   5107   5104   5132     1  0.0000000  1.0460000  1
   5109   5107   5104   5132     1  0.0000000  0.0000000  3
   5109   5107   5110   5113     1  0.0000000  0.6508444  3
   5109   5107   5110   5111     1  0.0000000  0.6508444  3
   5109   5107   5110   5112     1  0.0000000  0.6508444  3
   5110   5113   5114   5115     1  0.0000000  1.2552000  3
   5110   5113   5114   5116     1  0.0000000  1.2552000  3
   5110   5113   5123   5124     1  0.0000000  1.2552000  3
   5110   5113   5123   5125     1  0.0000000  1.2552000  3
   5111   5110   5113   5114     1  0.0000000  1.2552000  3
   5111   5110   5113   5123     1  0.0000000  1.2552000  3
   5112   5110   5113   5114     1  0.0000000  1.2552000  3
   5112   5110   5113   5123     1  0.0000000  1.2552000  3
   5113   5114   5117   5118     1  0.0000000  0.6508444  3
   5113   5114   5117   5119     1  0.0000000  0.6508444  3
   5113   5123   5126   5127     1  0.0000000  0.6508444  3
   5113   5123   5126   5128     1  0.0000000  0.6508444  3
   5114   5113   5123   5124     1  0.0000000  1.2552000  3
   5114   5113   5123   5125     1  0.0000000  1.2552000  3
   5115   5114   5113   5123     1  0.0000000  1.2552000  3
   5115   5114   5117   5120     1  0.0000000  0.6508444  3
   5115   5114   5117   5118     1  0.0000000  0.6508444  3
   5115   5114   5117   5119     1  0.0000000  0.6508444  3
   5116   5114   5113   5123     1  0.0000000  1.2552000  3
   5116   5114   5117   5120     1  0.0000000  0.6508444  3
   5116   5114   5117   5118     1  0.0000000  0.6508444  3
   5116   5114   5117   5119     1  0.0000000  0.6508444  3
   5118   5117   5120   5121     1  0.0000000  3.3472000  1
   5118   5117   5120   5121     1  0.0000000  0.0000000  2
   5118   5117   5120   5121     1  180.0000771  0.3347200  3
   5118   5117   5120   5122     1  0.0000000  3.3472000  1
   5118   5117   5120   5122     1  0.0000000  0.0000000  2
   5118   5117   5120   5122     1  180.0000771  0.3347200  3
   5119   5117   5120   5121     1  0.0000000  3.3472000  1
   5119   5117   5120   5121     1  0.0000000  0.0000000  2
   5119   5117   5120   5121     1  180.0000771  0.3347200  3
   5119   5117   5120   5122     1  0.0000000  3.3472000  1
   5119   5117   5120   5122     1  0.0000000  0.0000000  2
   5119   5117   5120   5122     1  180.0000771  0.3347200  3
   5124   5123   5126   5129     1  0.0000000  0.6508444  3
   5124   5123   5126   5127     1  0.0000000  0.6508444  3
   5124   5123   5126   5128     1  0.0000000  0.6508444  3
   5125   5123   5126   5129     1  0.0000000  0.6508444  3
   5125   5123   5126   5127     1  0.0000000  0.6508444  3
   5125   5123   5126   5128     1  0.0000000  0.6508444  3
   5127   5126   5129   5130     1  0.0000000  3.3472000  1
   5127   5126   5129   5130     1  0.0000000  0.0000000  2
   5127   5126   5129   5130     1  180.0000771  0.3347200  3
   5127   5126   5129   5131     1  0.0000000  3.3472000  1
   5127   5126   5129   5131     1  0.0000000  0.0000000  2
   5127   5126   5129   5131     1  180.0000771  0.3347200  3
   5128   5126   5129   5130     1  0.0000000  3.3472000  1
   5128   5126   5129   5130     1  0.0000000  0.0000000  2
   5128   5126   5129   5130     1  180.0000771  0.3347200  3
   5128   5126   5129   5131     1  0.0000000  3.3472000  1
   5128   5126   5129   5131     1  0.0000000  0.0000000  2
   5128   5126   5129   5131     1  180.0000771  0.3347200  3
   5133   5136   5139   5140     1  0.0000000  0.6508444  3
   5133   5136   5139   5141     1  0.0000000  0.6508444  3
   5134   5133   5136   5139     1  0.0000000  0.6508444  3
   5134   5133   5136   5137     1  0.0000000  0.6508444  3
   5134   5133   5136   5138     1  0.0000000  0.6508444  3
   5135   5133   5136   5139     1  0.0000000  0.6508444  3
   5135   5133   5136   5137     1  0.0000000  0.6508444  3
   5135   5133   5136   5138     1  0.0000000  0.6508444  3
   5137   5136   5139   5142     1  0.0000000  0.6508444  3
   5137   5136   5139   5140     1  0.0000000  0.6508444  3
   5137   5136   5139   5141     1  0.0000000  0.6508444  3
   5137   5136   5133   5161     1  0.0000000  1.0460000  1
   5137   5136   5133   5161     1  0.0000000  0.0000000  3
   5138   5136   5139   5142     1  0.0000000  0.6508444  3
   5138   5136   5139   5140     1  0.0000000  0.6508444  3
   5138   5136   5139   5141     1  0.0000000  0.6508444  3
   5138   5136   5133   5161     1  0.0000000  1.0460000  1
   5138   5136   5133   5161     1  0.0000000  0.0000000  3
   5139   5142   5143   5144     1  0.0000000  1.2552000  3
   5139   5142   5143   5145     1  0.0000000  1.2552000  3
   5139   5142   5152   5153     1  0.0000000  1.2552000  3
   5139   5142   5152   5154     1  0.0000000  1.2552000  3
   5140   5139   5142   5143     1  0.0000000  1.2552000  3
   5140   5139   5142   5152     1  0.0000000  1.2552000  3
   5141   5139   5142   5143     1  0.0000000  1.2552000  3
   5141   5139   5142   5152     1  0.0000000  1.2552000  3
   5142   5143   5146   5147     1  0.0000000  0.6508444  3
   5142   5143   5146   5148     1  0.0000000  0.6508444  3
   5142   5152   5155   5156     1  0.0000000  0.6508444  3
   5142   5152   5155   5157     1  0.0000000  0.6508444  3
   5143   5142   5152   5153     1  0.0000000  1.2552000  3
   5143   5142   5152   5154     1  0.0000000  1.2552000  3
   5144   5143   5146   5149     1  0.0000000  0.6508444  3
   5144   5143   5146   5147     1  0.0000000  0.6508444  3
   5144   5143   5146   5148     1  0.0000000  0.6508444  3
   5144   5143   5142   5152     1  0.0000000  1.2552000  3
   5145   5143   5146   5149     1  0.0000000  0.6508444  3
   5145   5143   5146   5147     1  0.0000000  0.6508444  3
   5145   5143   5146   5148     1  0.0000000  0.6508444  3
   5145   5143   5142   5152     1  0.0000000  1.2552000  3
   5147   5146   5149   5150     1  0.0000000  3.3472000  1
   5147   5146   5149   5150     1  0.0000000  0.0000000  2
   5147   5146   5149   5150     1  180.0000771  0.3347200  3
   5147   5146   5149   5151     1  0.0000000  3.3472000  1
   5147   5146   5149   5151     1  0.0000000  0.0000000  2
   5147   5146   5149   5151     1  180.0000771  0.3347200  3
   5148   5146   5149   5150     1  0.0000000  3.3472000  1
   5148   5146   5149   5150     1  0.0000000  0.0000000  2
   5148   5146   5149   5150     1  180.0000771  0.3347200  3
   5148   5146   5149   5151     1  0.0000000  3.3472000  1
   5148   5146   5149   5151     1  0.0000000  0.0000000  2
   5148   5146   5149   5151     1  180.0000771  0.3347200  3
   5153   5152   5155   5158     1  0.0000000  0.6508444  3
   5153   5152   5155   5156     1  0.0000000  0.6508444  3
   5153   5152   5155   5157     1  0.0000000  0.6508444  3
   5154   5152   5155   5158     1  0.0000000  0.6508444  3
   5154   5152   5155   5156     1  0.0000000  0.6508444  3
   5154   5152   5155   5157     1  0.0000000  0.6508444  3
   5156   5155   5158   5159     1  0.0000000  3.3472000  1
   5156   5155   5158   5159     1  0.0000000  0.0000000  2
   5156   5155   5158   5159     1  180.0000771  0.3347200  3
   5156   5155   5158   5160     1  0.0000000  3.3472000  1
   5156   5155   5158   5160     1  0.0000000  0.0000000  2
   5156   5155   5158   5160     1  180.0000771  0.3347200  3
   5157   5155   5158   5159     1  0.0000000  3.3472000  1
   5157   5155   5158   5159     1  0.0000000  0.0000000  2
   5157   5155   5158   5159     1  180.0000771  0.3347200  3
   5157   5155   5158   5160     1  0.0000000  3.3472000  1
   5157   5155   5158   5160     1  0.0000000  0.0000000  2
   5157   5155   5158   5160     1  180.0000771  0.3347200  3
   5162   5165   5168   5169     1  0.0000000  0.6508444  3
   5162   5165   5168   5170     1  0.0000000  0.6508444  3
   5163   5162   5165   5168     1  0.0000000  0.6508444  3
   5163   5162   5165   5166     1  0.0000000  0.6508444  3
   5163   5162   5165   5167     1  0.0000000  0.6508444  3
   5164   5162   5165   5168     1  0.0000000  0.6508444  3
   5164   5162   5165   5166     1  0.0000000  0.6508444  3
   5164   5162   5165   5167     1  0.0000000  0.6508444  3
   5166   5165   5162   5190     1  0.0000000  1.0460000  1
   5166   5165   5162   5190     1  0.0000000  0.0000000  3
   5166   5165   5168   5171     1  0.0000000  0.6508444  3
   5166   5165   5168   5169     1  0.0000000  0.6508444  3
   5166   5165   5168   5170     1  0.0000000  0.6508444  3
   5167   5165   5162   5190     1  0.0000000  1.0460000  1
   5167   5165   5162   5190     1  0.0000000  0.0000000  3
   5167   5165   5168   5171     1  0.0000000  0.6508444  3
   5167   5165   5168   5169     1  0.0000000  0.6508444  3
   5167   5165   5168   5170     1  0.0000000  0.6508444  3
   5168   5171   5172   5173     1  0.0000000  1.2552000  3
   5168   5171   5172   5174     1  0.0000000  1.2552000  3
   5168   5171   5181   5182     1  0.0000000  1.2552000  3
   5168   5171   5181   5183     1  0.0000000  1.2552000  3
   5169   5168   5171   5172     1  0.0000000  1.2552000  3
   5169   5168   5171   5181     1  0.0000000  1.2552000  3
   5170   5168   5171   5172     1  0.0000000  1.2552000  3
   5170   5168   5171   5181     1  0.0000000  1.2552000  3
   5171   5172   5175   5176     1  0.0000000  0.6508444  3
   5171   5172   5175   5177     1  0.0000000  0.6508444  3
   5171   5181   5184   5185     1  0.0000000  0.6508444  3
   5171   5181   5184   5186     1  0.0000000  0.6508444  3
   5172   5171   5181   5182     1  0.0000000  1.2552000  3
   5172   5171   5181   5183     1  0.0000000  1.2552000  3
   5173   5172   5171   5181     1  0.0000000  1.2552000  3
   5173   5172   5175   5178     1  0.0000000  0.6508444  3
   5173   5172   5175   5176     1  0.0000000  0.6508444  3
   5173   5172   5175   5177     1  0.0000000  0.6508444  3
   5174   5172   5171   5181     1  0.0000000  1.2552000  3
   5174   5172   5175   5178     1  0.0000000  0.6508444  3
   5174   5172   5175   5176     1  0.0000000  0.6508444  3
   5174   5172   5175   5177     1  0.0000000  0.6508444  3
   5176   5175   5178   5179     1  0.0000000  3.3472000  1
   5176   5175   5178   5179     1  0.0000000  0.0000000  2
   5176   5175   5178   5179     1  180.0000771  0.3347200  3
   5176   5175   5178   5180     1  0.0000000  3.3472000  1
   5176   5175   5178   5180     1  0.0000000  0.0000000  2
   5176   5175   5178   5180     1  180.0000771  0.3347200  3
   5177   5175   5178   5179     1  0.0000000  3.3472000  1
   5177   5175   5178   5179     1  0.0000000  0.0000000  2
   5177   5175   5178   5179     1  180.0000771  0.3347200  3
   5177   5175   5178   5180     1  0.0000000  3.3472000  1
   5177   5175   5178   5180     1  0.0000000  0.0000000  2
   5177   5175   5178   5180     1  180.0000771  0.3347200  3
   5182   5181   5184   5187     1  0.0000000  0.6508444  3
   5182   5181   5184   5185     1  0.0000000  0.6508444  3
   5182   5181   5184   5186     1  0.0000000  0.6508444  3
   5183   5181   5184   5187     1  0.0000000  0.6508444  3
   5183   5181   5184   5185     1  0.0000000  0.6508444  3
   5183   5181   5184   5186     1  0.0000000  0.6508444  3
   5185   5184   5187   5188     1  0.0000000  3.3472000  1
   5185   5184   5187   5188     1  0.0000000  0.0000000  2
   5185   5184   5187   5188     1  180.0000771  0.3347200  3
   5185   5184   5187   5189     1  0.0000000  3.3472000  1
   5185   5184   5187   5189     1  0.0000000  0.0000000  2
   5185   5184   5187   5189     1  180.0000771  0.3347200  3
   5186   5184   5187   5188     1  0.0000000  3.3472000  1
   5186   5184   5187   5188     1  0.0000000  0.0000000  2
   5186   5184   5187   5188     1  180.0000771  0.3347200  3
   5186   5184   5187   5189     1  0.0000000  3.3472000  1
   5186   5184   5187   5189     1  0.0000000  0.0000000  2
   5186   5184   5187   5189     1  180.0000771  0.3347200  3
   5191   5194   5197   5198     1  0.0000000  0.6508444  3
   5191   5194   5197   5199     1  0.0000000  0.6508444  3
   5192   5191   5194   5197     1  0.0000000  0.6508444  3
   5192   5191   5194   5195     1  0.0000000  0.6508444  3
   5192   5191   5194   5196     1  0.0000000  0.6508444  3
   5193   5191   5194   5197     1  0.0000000  0.6508444  3
   5193   5191   5194   5195     1  0.0000000  0.6508444  3
   5193   5191   5194   5196     1  0.0000000  0.6508444  3
   5195   5194   5197   5200     1  0.0000000  0.6508444  3
   5195   5194   5197   5198     1  0.0000000  0.6508444  3
   5195   5194   5197   5199     1  0.0000000  0.6508444  3
   5195   5194   5191   5219     1  0.0000000  1.0460000  1
   5195   5194   5191   5219     1  0.0000000  0.0000000  3
   5196   5194   5197   5200     1  0.0000000  0.6508444  3
   5196   5194   5197   5198     1  0.0000000  0.6508444  3
   5196   5194   5197   5199     1  0.0000000  0.6508444  3
   5196   5194   5191   5219     1  0.0000000  1.0460000  1
   5196   5194   5191   5219     1  0.0000000  0.0000000  3
   5197   5200   5201   5202     1  0.0000000  1.2552000  3
   5197   5200   5201   5203     1  0.0000000  1.2552000  3
   5197   5200   5210   5211     1  0.0000000  1.2552000  3
   5197   5200   5210   5212     1  0.0000000  1.2552000  3
   5198   5197   5200   5201     1  0.0000000  1.2552000  3
   5198   5197   5200   5210     1  0.0000000  1.2552000  3
   5199   5197   5200   5201     1  0.0000000  1.2552000  3
   5199   5197   5200   5210     1  0.0000000  1.2552000  3
   5200   5201   5204   5205     1  0.0000000  0.6508444  3
   5200   5201   5204   5206     1  0.0000000  0.6508444  3
   5200   5210   5213   5214     1  0.0000000  0.6508444  3
   5200   5210   5213   5215     1  0.0000000  0.6508444  3
   5201   5200   5210   5211     1  0.0000000  1.2552000  3
   5201   5200   5210   5212     1  0.0000000  1.2552000  3
   5202   5201   5204   5207     1  0.0000000  0.6508444  3
   5202   5201   5204   5205     1  0.0000000  0.6508444  3
   5202   5201   5204   5206     1  0.0000000  0.6508444  3
   5202   5201   5200   5210     1  0.0000000  1.2552000  3
   5203   5201   5204   5207     1  0.0000000  0.6508444  3
   5203   5201   5204   5205     1  0.0000000  0.6508444  3
   5203   5201   5204   5206     1  0.0000000  0.6508444  3
   5203   5201   5200   5210     1  0.0000000  1.2552000  3
   5205   5204   5207   5208     1  0.0000000  3.3472000  1
   5205   5204   5207   5208     1  0.0000000  0.0000000  2
   5205   5204   5207   5208     1  180.0000771  0.3347200  3
   5205   5204   5207   5209     1  0.0000000  3.3472000  1
   5205   5204   5207   5209     1  0.0000000  0.0000000  2
   5205   5204   5207   5209     1  180.0000771  0.3347200  3
   5206   5204   5207   5208     1  0.0000000  3.3472000  1
   5206   5204   5207   5208     1  0.0000000  0.0000000  2
   5206   5204   5207   5208     1  180.0000771  0.3347200  3
   5206   5204   5207   5209     1  0.0000000  3.3472000  1
   5206   5204   5207   5209     1  0.0000000  0.0000000  2
   5206   5204   5207   5209     1  180.0000771  0.3347200  3
   5211   5210   5213   5216     1  0.0000000  0.6508444  3
   5211   5210   5213   5214     1  0.0000000  0.6508444  3
   5211   5210   5213   5215     1  0.0000000  0.6508444  3
   5212   5210   5213   5216     1  0.0000000  0.6508444  3
   5212   5210   5213   5214     1  0.0000000  0.6508444  3
   5212   5210   5213   5215     1  0.0000000  0.6508444  3
   5214   5213   5216   5217     1  0.0000000  3.3472000  1
   5214   5213   5216   5217     1  0.0000000  0.0000000  2
   5214   5213   5216   5217     1  180.0000771  0.3347200  3
   5214   5213   5216   5218     1  0.0000000  3.3472000  1
   5214   5213   5216   5218     1  0.0000000  0.0000000  2
   5214   5213   5216   5218     1  180.0000771  0.3347200  3
   5215   5213   5216   5217     1  0.0000000  3.3472000  1
   5215   5213   5216   5217     1  0.0000000  0.0000000  2
   5215   5213   5216   5217     1  180.0000771  0.3347200  3
   5215   5213   5216   5218     1  0.0000000  3.3472000  1
   5215   5213   5216   5218     1  0.0000000  0.0000000  2
   5215   5213   5216   5218     1  180.0000771  0.3347200  3
   5220   5223   5226   5227     1  0.0000000  0.6508444  3
   5220   5223   5226   5228     1  0.0000000  0.6508444  3
   5221   5220   5223   5226     1  0.0000000  0.6508444  3
   5221   5220   5223   5224     1  0.0000000  0.6508444  3
   5221   5220   5223   5225     1  0.0000000  0.6508444  3
   5222   5220   5223   5226     1  0.0000000  0.6508444  3
   5222   5220   5223   5224     1  0.0000000  0.6508444  3
   5222   5220   5223   5225     1  0.0000000  0.6508444  3
   5224   5223   5220   5248     1  0.0000000  1.0460000  1
   5224   5223   5220   5248     1  0.0000000  0.0000000  3
   5224   5223   5226   5229     1  0.0000000  0.6508444  3
   5224   5223   5226   5227     1  0.0000000  0.6508444  3
   5224   5223   5226   5228     1  0.0000000  0.6508444  3
   5225   5223   5220   5248     1  0.0000000  1.0460000  1
   5225   5223   5220   5248     1  0.0000000  0.0000000  3
   5225   5223   5226   5229     1  0.0000000  0.6508444  3
   5225   5223   5226   5227     1  0.0000000  0.6508444  3
   5225   5223   5226   5228     1  0.0000000  0.6508444  3
   5226   5229   5230   5231     1  0.0000000  1.2552000  3
   5226   5229   5230   5232     1  0.0000000  1.2552000  3
   5226   5229   5239   5240     1  0.0000000  1.2552000  3
   5226   5229   5239   5241     1  0.0000000  1.2552000  3
   5227   5226   5229   5230     1  0.0000000  1.2552000  3
   5227   5226   5229   5239     1  0.0000000  1.2552000  3
   5228   5226   5229   5230     1  0.0000000  1.2552000  3
   5228   5226   5229   5239     1  0.0000000  1.2552000  3
   5229   5230   5233   5234     1  0.0000000  0.6508444  3
   5229   5230   5233   5235     1  0.0000000  0.6508444  3
   5229   5239   5242   5243     1  0.0000000  0.6508444  3
   5229   5239   5242   5244     1  0.0000000  0.6508444  3
   5230   5229   5239   5240     1  0.0000000  1.2552000  3
   5230   5229   5239   5241     1  0.0000000  1.2552000  3
   5231   5230   5229   5239     1  0.0000000  1.2552000  3
   5231   5230   5233   5236     1  0.0000000  0.6508444  3
   5231   5230   5233   5234     1  0.0000000  0.6508444  3
   5231   5230   5233   5235     1  0.0000000  0.6508444  3
   5232   5230   5229   5239     1  0.0000000  1.2552000  3
   5232   5230   5233   5236     1  0.0000000  0.6508444  3
   5232   5230   5233   5234     1  0.0000000  0.6508444  3
   5232   5230   5233   5235     1  0.0000000  0.6508444  3
   5234   5233   5236   5237     1  0.0000000  3.3472000  1
   5234   5233   5236   5237     1  0.0000000  0.0000000  2
   5234   5233   5236   5237     1  180.0000771  0.3347200  3
   5234   5233   5236   5238     1  0.0000000  3.3472000  1
   5234   5233   5236   5238     1  0.0000000  0.0000000  2
   5234   5233   5236   5238     1  180.0000771  0.3347200  3
   5235   5233   5236   5237     1  0.0000000  3.3472000  1
   5235   5233   5236   5237     1  0.0000000  0.0000000  2
   5235   5233   5236   5237     1  180.0000771  0.3347200  3
   5235   5233   5236   5238     1  0.0000000  3.3472000  1
   5235   5233   5236   5238     1  0.0000000  0.0000000  2
   5235   5233   5236   5238     1  180.0000771  0.3347200  3
   5240   5239   5242   5245     1  0.0000000  0.6508444  3
   5240   5239   5242   5243     1  0.0000000  0.6508444  3
   5240   5239   5242   5244     1  0.0000000  0.6508444  3
   5241   5239   5242   5245     1  0.0000000  0.6508444  3
   5241   5239   5242   5243     1  0.0000000  0.6508444  3
   5241   5239   5242   5244     1  0.0000000  0.6508444  3
   5243   5242   5245   5246     1  0.0000000  3.3472000  1
   5243   5242   5245   5246     1  0.0000000  0.0000000  2
   5243   5242   5245   5246     1  180.0000771  0.3347200  3
   5243   5242   5245   5247     1  0.0000000  3.3472000  1
   5243   5242   5245   5247     1  0.0000000  0.0000000  2
   5243   5242   5245   5247     1  180.0000771  0.3347200  3
   5244   5242   5245   5246     1  0.0000000  3.3472000  1
   5244   5242   5245   5246     1  0.0000000  0.0000000  2
   5244   5242   5245   5246     1  180.0000771  0.3347200  3
   5244   5242   5245   5247     1  0.0000000  3.3472000  1
   5244   5242   5245   5247     1  0.0000000  0.0000000  2
   5244   5242   5245   5247     1  180.0000771  0.3347200  3
   5249   5252   5255   5256     1  0.0000000  0.6508444  3
   5249   5252   5255   5257     1  0.0000000  0.6508444  3
   5250   5249   5252   5255     1  0.0000000  0.6508444  3
   5250   5249   5252   5253     1  0.0000000  0.6508444  3
   5250   5249   5252   5254     1  0.0000000  0.6508444  3
   5251   5249   5252   5255     1  0.0000000  0.6508444  3
   5251   5249   5252   5253     1  0.0000000  0.6508444  3
   5251   5249   5252   5254     1  0.0000000  0.6508444  3
   5253   5252   5255   5258     1  0.0000000  0.6508444  3
   5253   5252   5255   5256     1  0.0000000  0.6508444  3
   5253   5252   5255   5257     1  0.0000000  0.6508444  3
   5253   5252   5249   5277     1  0.0000000  1.0460000  1
   5253   5252   5249   5277     1  0.0000000  0.0000000  3
   5254   5252   5255   5258     1  0.0000000  0.6508444  3
   5254   5252   5255   5256     1  0.0000000  0.6508444  3
   5254   5252   5255   5257     1  0.0000000  0.6508444  3
   5254   5252   5249   5277     1  0.0000000  1.0460000  1
   5254   5252   5249   5277     1  0.0000000  0.0000000  3
   5255   5258   5259   5260     1  0.0000000  1.2552000  3
   5255   5258   5259   5261     1  0.0000000  1.2552000  3
   5255   5258   5268   5269     1  0.0000000  1.2552000  3
   5255   5258   5268   5270     1  0.0000000  1.2552000  3
   5256   5255   5258   5259     1  0.0000000  1.2552000  3
   5256   5255   5258   5268     1  0.0000000  1.2552000  3
   5257   5255   5258   5259     1  0.0000000  1.2552000  3
   5257   5255   5258   5268     1  0.0000000  1.2552000  3
   5258   5259   5262   5263     1  0.0000000  0.6508444  3
   5258   5259   5262   5264     1  0.0000000  0.6508444  3
   5258   5268   5271   5272     1  0.0000000  0.6508444  3
   5258   5268   5271   5273     1  0.0000000  0.6508444  3
   5259   5258   5268   5269     1  0.0000000  1.2552000  3
   5259   5258   5268   5270     1  0.0000000  1.2552000  3
   5260   5259   5262   5265     1  0.0000000  0.6508444  3
   5260   5259   5262   5263     1  0.0000000  0.6508444  3
   5260   5259   5262   5264     1  0.0000000  0.6508444  3
   5260   5259   5258   5268     1  0.0000000  1.2552000  3
   5261   5259   5262   5265     1  0.0000000  0.6508444  3
   5261   5259   5262   5263     1  0.0000000  0.6508444  3
   5261   5259   5262   5264     1  0.0000000  0.6508444  3
   5261   5259   5258   5268     1  0.0000000  1.2552000  3
   5263   5262   5265   5266     1  0.0000000  3.3472000  1
   5263   5262   5265   5266     1  0.0000000  0.0000000  2
   5263   5262   5265   5266     1  180.0000771  0.3347200  3
   5263   5262   5265   5267     1  0.0000000  3.3472000  1
   5263   5262   5265   5267     1  0.0000000  0.0000000  2
   5263   5262   5265   5267     1  180.0000771  0.3347200  3
   5264   5262   5265   5266     1  0.0000000  3.3472000  1
   5264   5262   5265   5266     1  0.0000000  0.0000000  2
   5264   5262   5265   5266     1  180.0000771  0.3347200  3
   5264   5262   5265   5267     1  0.0000000  3.3472000  1
   5264   5262   5265   5267     1  0.0000000  0.0000000  2
   5264   5262   5265   5267     1  180.0000771  0.3347200  3
   5269   5268   5271   5274     1  0.0000000  0.6508444  3
   5269   5268   5271   5272     1  0.0000000  0.6508444  3
   5269   5268   5271   5273     1  0.0000000  0.6508444  3
   5270   5268   5271   5274     1  0.0000000  0.6508444  3
   5270   5268   5271   5272     1  0.0000000  0.6508444  3
   5270   5268   5271   5273     1  0.0000000  0.6508444  3
   5272   5271   5274   5275     1  0.0000000  3.3472000  1
   5272   5271   5274   5275     1  0.0000000  0.0000000  2
   5272   5271   5274   5275     1  180.0000771  0.3347200  3
   5272   5271   5274   5276     1  0.0000000  3.3472000  1
   5272   5271   5274   5276     1  0.0000000  0.0000000  2
   5272   5271   5274   5276     1  180.0000771  0.3347200  3
   5273   5271   5274   5275     1  0.0000000  3.3472000  1
   5273   5271   5274   5275     1  0.0000000  0.0000000  2
   5273   5271   5274   5275     1  180.0000771  0.3347200  3
   5273   5271   5274   5276     1  0.0000000  3.3472000  1
   5273   5271   5274   5276     1  0.0000000  0.0000000  2
   5273   5271   5274   5276     1  180.0000771  0.3347200  3
   5278   5281   5284   5285     1  0.0000000  0.6508444  3
   5278   5281   5284   5286     1  0.0000000  0.6508444  3
   5279   5278   5281   5284     1  0.0000000  0.6508444  3
   5279   5278   5281   5282     1  0.0000000  0.6508444  3
   5279   5278   5281   5283     1  0.0000000  0.6508444  3
   5280   5278   5281   5284     1  0.0000000  0.6508444  3
   5280   5278   5281   5282     1  0.0000000  0.6508444  3
   5280   5278   5281   5283     1  0.0000000  0.6508444  3
   5282   5281   5278   5306     1  0.0000000  1.0460000  1
   5282   5281   5278   5306     1  0.0000000  0.0000000  3
   5282   5281   5284   5287     1  0.0000000  0.6508444  3
   5282   5281   5284   5285     1  0.0000000  0.6508444  3
   5282   5281   5284   5286     1  0.0000000  0.6508444  3
   5283   5281   5278   5306     1  0.0000000  1.0460000  1
   5283   5281   5278   5306     1  0.0000000  0.0000000  3
   5283   5281   5284   5287     1  0.0000000  0.6508444  3
   5283   5281   5284   5285     1  0.0000000  0.6508444  3
   5283   5281   5284   5286     1  0.0000000  0.6508444  3
   5284   5287   5288   5289     1  0.0000000  1.2552000  3
   5284   5287   5288   5290     1  0.0000000  1.2552000  3
   5284   5287   5297   5298     1  0.0000000  1.2552000  3
   5284   5287   5297   5299     1  0.0000000  1.2552000  3
   5285   5284   5287   5288     1  0.0000000  1.2552000  3
   5285   5284   5287   5297     1  0.0000000  1.2552000  3
   5286   5284   5287   5288     1  0.0000000  1.2552000  3
   5286   5284   5287   5297     1  0.0000000  1.2552000  3
   5287   5288   5291   5292     1  0.0000000  0.6508444  3
   5287   5288   5291   5293     1  0.0000000  0.6508444  3
   5287   5297   5300   5301     1  0.0000000  0.6508444  3
   5287   5297   5300   5302     1  0.0000000  0.6508444  3
   5288   5287   5297   5298     1  0.0000000  1.2552000  3
   5288   5287   5297   5299     1  0.0000000  1.2552000  3
   5289   5288   5287   5297     1  0.0000000  1.2552000  3
   5289   5288   5291   5294     1  0.0000000  0.6508444  3
   5289   5288   5291   5292     1  0.0000000  0.6508444  3
   5289   5288   5291   5293     1  0.0000000  0.6508444  3
   5290   5288   5287   5297     1  0.0000000  1.2552000  3
   5290   5288   5291   5294     1  0.0000000  0.6508444  3
   5290   5288   5291   5292     1  0.0000000  0.6508444  3
   5290   5288   5291   5293     1  0.0000000  0.6508444  3
   5292   5291   5294   5295     1  0.0000000  3.3472000  1
   5292   5291   5294   5295     1  0.0000000  0.0000000  2
   5292   5291   5294   5295     1  180.0000771  0.3347200  3
   5292   5291   5294   5296     1  0.0000000  3.3472000  1
   5292   5291   5294   5296     1  0.0000000  0.0000000  2
   5292   5291   5294   5296     1  180.0000771  0.3347200  3
   5293   5291   5294   5295     1  0.0000000  3.3472000  1
   5293   5291   5294   5295     1  0.0000000  0.0000000  2
   5293   5291   5294   5295     1  180.0000771  0.3347200  3
   5293   5291   5294   5296     1  0.0000000  3.3472000  1
   5293   5291   5294   5296     1  0.0000000  0.0000000  2
   5293   5291   5294   5296     1  180.0000771  0.3347200  3
   5298   5297   5300   5303     1  0.0000000  0.6508444  3
   5298   5297   5300   5301     1  0.0000000  0.6508444  3
   5298   5297   5300   5302     1  0.0000000  0.6508444  3
   5299   5297   5300   5303     1  0.0000000  0.6508444  3
   5299   5297   5300   5301     1  0.0000000  0.6508444  3
   5299   5297   5300   5302     1  0.0000000  0.6508444  3
   5301   5300   5303   5304     1  0.0000000  3.3472000  1
   5301   5300   5303   5304     1  0.0000000  0.0000000  2
   5301   5300   5303   5304     1  180.0000771  0.3347200  3
   5301   5300   5303   5305     1  0.0000000  3.3472000  1
   5301   5300   5303   5305     1  0.0000000  0.0000000  2
   5301   5300   5303   5305     1  180.0000771  0.3347200  3
   5302   5300   5303   5304     1  0.0000000  3.3472000  1
   5302   5300   5303   5304     1  0.0000000  0.0000000  2
   5302   5300   5303   5304     1  180.0000771  0.3347200  3
   5302   5300   5303   5305     1  0.0000000  3.3472000  1
   5302   5300   5303   5305     1  0.0000000  0.0000000  2
   5302   5300   5303   5305     1  180.0000771  0.3347200  3
   5307   5310   5313   5314     1  0.0000000  0.6508444  3
   5307   5310   5313   5315     1  0.0000000  0.6508444  3
   5308   5307   5310   5313     1  0.0000000  0.6508444  3
   5308   5307   5310   5311     1  0.0000000  0.6508444  3
   5308   5307   5310   5312     1  0.0000000  0.6508444  3
   5309   5307   5310   5313     1  0.0000000  0.6508444  3
   5309   5307   5310   5311     1  0.0000000  0.6508444  3
   5309   5307   5310   5312     1  0.0000000  0.6508444  3
   5311   5310   5313   5316     1  0.0000000  0.6508444  3
   5311   5310   5313   5314     1  0.0000000  0.6508444  3
   5311   5310   5313   5315     1  0.0000000  0.6508444  3
   5311   5310   5307   5335     1  0.0000000  1.0460000  1
   5311   5310   5307   5335     1  0.0000000  0.0000000  3
   5312   5310   5313   5316     1  0.0000000  0.6508444  3
   5312   5310   5313   5314     1  0.0000000  0.6508444  3
   5312   5310   5313   5315     1  0.0000000  0.6508444  3
   5312   5310   5307   5335     1  0.0000000  1.0460000  1
   5312   5310   5307   5335     1  0.0000000  0.0000000  3
   5313   5316   5317   5318     1  0.0000000  1.2552000  3
   5313   5316   5317   5319     1  0.0000000  1.2552000  3
   5313   5316   5326   5327     1  0.0000000  1.2552000  3
   5313   5316   5326   5328     1  0.0000000  1.2552000  3
   5314   5313   5316   5317     1  0.0000000  1.2552000  3
   5314   5313   5316   5326     1  0.0000000  1.2552000  3
   5315   5313   5316   5317     1  0.0000000  1.2552000  3
   5315   5313   5316   5326     1  0.0000000  1.2552000  3
   5316   5317   5320   5321     1  0.0000000  0.6508444  3
   5316   5317   5320   5322     1  0.0000000  0.6508444  3
   5316   5326   5329   5330     1  0.0000000  0.6508444  3
   5316   5326   5329   5331     1  0.0000000  0.6508444  3
   5317   5316   5326   5327     1  0.0000000  1.2552000  3
   5317   5316   5326   5328     1  0.0000000  1.2552000  3
   5318   5317   5320   5323     1  0.0000000  0.6508444  3
   5318   5317   5320   5321     1  0.0000000  0.6508444  3
   5318   5317   5320   5322     1  0.0000000  0.6508444  3
   5318   5317   5316   5326     1  0.0000000  1.2552000  3
   5319   5317   5320   5323     1  0.0000000  0.6508444  3
   5319   5317   5320   5321     1  0.0000000  0.6508444  3
   5319   5317   5320   5322     1  0.0000000  0.6508444  3
   5319   5317   5316   5326     1  0.0000000  1.2552000  3
   5321   5320   5323   5324     1  0.0000000  3.3472000  1
   5321   5320   5323   5324     1  0.0000000  0.0000000  2
   5321   5320   5323   5324     1  180.0000771  0.3347200  3
   5321   5320   5323   5325     1  0.0000000  3.3472000  1
   5321   5320   5323   5325     1  0.0000000  0.0000000  2
   5321   5320   5323   5325     1  180.0000771  0.3347200  3
   5322   5320   5323   5324     1  0.0000000  3.3472000  1
   5322   5320   5323   5324     1  0.0000000  0.0000000  2
   5322   5320   5323   5324     1  180.0000771  0.3347200  3
   5322   5320   5323   5325     1  0.0000000  3.3472000  1
   5322   5320   5323   5325     1  0.0000000  0.0000000  2
   5322   5320   5323   5325     1  180.0000771  0.3347200  3
   5327   5326   5329   5332     1  0.0000000  0.6508444  3
   5327   5326   5329   5330     1  0.0000000  0.6508444  3
   5327   5326   5329   5331     1  0.0000000  0.6508444  3
   5328   5326   5329   5332     1  0.0000000  0.6508444  3
   5328   5326   5329   5330     1  0.0000000  0.6508444  3
   5328   5326   5329   5331     1  0.0000000  0.6508444  3
   5330   5329   5332   5333     1  0.0000000  3.3472000  1
   5330   5329   5332   5333     1  0.0000000  0.0000000  2
   5330   5329   5332   5333     1  180.0000771  0.3347200  3
   5330   5329   5332   5334     1  0.0000000  3.3472000  1
   5330   5329   5332   5334     1  0.0000000  0.0000000  2
   5330   5329   5332   5334     1  180.0000771  0.3347200  3
   5331   5329   5332   5333     1  0.0000000  3.3472000  1
   5331   5329   5332   5333     1  0.0000000  0.0000000  2
   5331   5329   5332   5333     1  180.0000771  0.3347200  3
   5331   5329   5332   5334     1  0.0000000  3.3472000  1
   5331   5329   5332   5334     1  0.0000000  0.0000000  2
   5331   5329   5332   5334     1  180.0000771  0.3347200  3
   5336   5339   5342   5343     1  0.0000000  0.6508444  3
   5336   5339   5342   5344     1  0.0000000  0.6508444  3
   5337   5336   5339   5342     1  0.0000000  0.6508444  3
   5337   5336   5339   5340     1  0.0000000  0.6508444  3
   5337   5336   5339   5341     1  0.0000000  0.6508444  3
   5338   5336   5339   5342     1  0.0000000  0.6508444  3
   5338   5336   5339   5340     1  0.0000000  0.6508444  3
   5338   5336   5339   5341     1  0.0000000  0.6508444  3
   5340   5339   5336   5364     1  0.0000000  1.0460000  1
   5340   5339   5336   5364     1  0.0000000  0.0000000  3
   5340   5339   5342   5345     1  0.0000000  0.6508444  3
   5340   5339   5342   5343     1  0.0000000  0.6508444  3
   5340   5339   5342   5344     1  0.0000000  0.6508444  3
   5341   5339   5336   5364     1  0.0000000  1.0460000  1
   5341   5339   5336   5364     1  0.0000000  0.0000000  3
   5341   5339   5342   5345     1  0.0000000  0.6508444  3
   5341   5339   5342   5343     1  0.0000000  0.6508444  3
   5341   5339   5342   5344     1  0.0000000  0.6508444  3
   5342   5345   5346   5347     1  0.0000000  1.2552000  3
   5342   5345   5346   5348     1  0.0000000  1.2552000  3
   5342   5345   5355   5356     1  0.0000000  1.2552000  3
   5342   5345   5355   5357     1  0.0000000  1.2552000  3
   5343   5342   5345   5346     1  0.0000000  1.2552000  3
   5343   5342   5345   5355     1  0.0000000  1.2552000  3
   5344   5342   5345   5346     1  0.0000000  1.2552000  3
   5344   5342   5345   5355     1  0.0000000  1.2552000  3
   5345   5346   5349   5350     1  0.0000000  0.6508444  3
   5345   5346   5349   5351     1  0.0000000  0.6508444  3
   5345   5355   5358   5359     1  0.0000000  0.6508444  3
   5345   5355   5358   5360     1  0.0000000  0.6508444  3
   5346   5345   5355   5356     1  0.0000000  1.2552000  3
   5346   5345   5355   5357     1  0.0000000  1.2552000  3
   5347   5346   5345   5355     1  0.0000000  1.2552000  3
   5347   5346   5349   5352     1  0.0000000  0.6508444  3
   5347   5346   5349   5350     1  0.0000000  0.6508444  3
   5347   5346   5349   5351     1  0.0000000  0.6508444  3
   5348   5346   5345   5355     1  0.0000000  1.2552000  3
   5348   5346   5349   5352     1  0.0000000  0.6508444  3
   5348   5346   5349   5350     1  0.0000000  0.6508444  3
   5348   5346   5349   5351     1  0.0000000  0.6508444  3
   5350   5349   5352   5353     1  0.0000000  3.3472000  1
   5350   5349   5352   5353     1  0.0000000  0.0000000  2
   5350   5349   5352   5353     1  180.0000771  0.3347200  3
   5350   5349   5352   5354     1  0.0000000  3.3472000  1
   5350   5349   5352   5354     1  0.0000000  0.0000000  2
   5350   5349   5352   5354     1  180.0000771  0.3347200  3
   5351   5349   5352   5353     1  0.0000000  3.3472000  1
   5351   5349   5352   5353     1  0.0000000  0.0000000  2
   5351   5349   5352   5353     1  180.0000771  0.3347200  3
   5351   5349   5352   5354     1  0.0000000  3.3472000  1
   5351   5349   5352   5354     1  0.0000000  0.0000000  2
   5351   5349   5352   5354     1  180.0000771  0.3347200  3
   5356   5355   5358   5361     1  0.0000000  0.6508444  3
   5356   5355   5358   5359     1  0.0000000  0.6508444  3
   5356   5355   5358   5360     1  0.0000000  0.6508444  3
   5357   5355   5358   5361     1  0.0000000  0.6508444  3
   5357   5355   5358   5359     1  0.0000000  0.6508444  3
   5357   5355   5358   5360     1  0.0000000  0.6508444  3
   5359   5358   5361   5362     1  0.0000000  3.3472000  1
   5359   5358   5361   5362     1  0.0000000  0.0000000  2
   5359   5358   5361   5362     1  180.0000771  0.3347200  3
   5359   5358   5361   5363     1  0.0000000  3.3472000  1
   5359   5358   5361   5363     1  0.0000000  0.0000000  2
   5359   5358   5361   5363     1  180.0000771  0.3347200  3
   5360   5358   5361   5362     1  0.0000000  3.3472000  1
   5360   5358   5361   5362     1  0.0000000  0.0000000  2
   5360   5358   5361   5362     1  180.0000771  0.3347200  3
   5360   5358   5361   5363     1  0.0000000  3.3472000  1
   5360   5358   5361   5363     1  0.0000000  0.0000000  2
   5360   5358   5361   5363     1  180.0000771  0.3347200  3
   5365   5368   5371   5372     1  0.0000000  0.6508444  3
   5365   5368   5371   5373     1  0.0000000  0.6508444  3
   5366   5365   5368   5371     1  0.0000000  0.6508444  3
   5366   5365   5368   5369     1  0.0000000  0.6508444  3
   5366   5365   5368   5370     1  0.0000000  0.6508444  3
   5367   5365   5368   5371     1  0.0000000  0.6508444  3
   5367   5365   5368   5369     1  0.0000000  0.6508444  3
   5367   5365   5368   5370     1  0.0000000  0.6508444  3
   5369   5368   5371   5374     1  0.0000000  0.6508444  3
   5369   5368   5371   5372     1  0.0000000  0.6508444  3
   5369   5368   5371   5373     1  0.0000000  0.6508444  3
   5369   5368   5365   5393     1  0.0000000  1.0460000  1
   5369   5368   5365   5393     1  0.0000000  0.0000000  3
   5370   5368   5371   5374     1  0.0000000  0.6508444  3
   5370   5368   5371   5372     1  0.0000000  0.6508444  3
   5370   5368   5371   5373     1  0.0000000  0.6508444  3
   5370   5368   5365   5393     1  0.0000000  1.0460000  1
   5370   5368   5365   5393     1  0.0000000  0.0000000  3
   5371   5374   5375   5376     1  0.0000000  1.2552000  3
   5371   5374   5375   5377     1  0.0000000  1.2552000  3
   5371   5374   5384   5385     1  0.0000000  1.2552000  3
   5371   5374   5384   5386     1  0.0000000  1.2552000  3
   5372   5371   5374   5375     1  0.0000000  1.2552000  3
   5372   5371   5374   5384     1  0.0000000  1.2552000  3
   5373   5371   5374   5375     1  0.0000000  1.2552000  3
   5373   5371   5374   5384     1  0.0000000  1.2552000  3
   5374   5375   5378   5379     1  0.0000000  0.6508444  3
   5374   5375   5378   5380     1  0.0000000  0.6508444  3
   5374   5384   5387   5388     1  0.0000000  0.6508444  3
   5374   5384   5387   5389     1  0.0000000  0.6508444  3
   5375   5374   5384   5385     1  0.0000000  1.2552000  3
   5375   5374   5384   5386     1  0.0000000  1.2552000  3
   5376   5375   5378   5381     1  0.0000000  0.6508444  3
   5376   5375   5378   5379     1  0.0000000  0.6508444  3
   5376   5375   5378   5380     1  0.0000000  0.6508444  3
   5376   5375   5374   5384     1  0.0000000  1.2552000  3
   5377   5375   5378   5381     1  0.0000000  0.6508444  3
   5377   5375   5378   5379     1  0.0000000  0.6508444  3
   5377   5375   5378   5380     1  0.0000000  0.6508444  3
   5377   5375   5374   5384     1  0.0000000  1.2552000  3
   5379   5378   5381   5382     1  0.0000000  3.3472000  1
   5379   5378   5381   5382     1  0.0000000  0.0000000  2
   5379   5378   5381   5382     1  180.0000771  0.3347200  3
   5379   5378   5381   5383     1  0.0000000  3.3472000  1
   5379   5378   5381   5383     1  0.0000000  0.0000000  2
   5379   5378   5381   5383     1  180.0000771  0.3347200  3
   5380   5378   5381   5382     1  0.0000000  3.3472000  1
   5380   5378   5381   5382     1  0.0000000  0.0000000  2
   5380   5378   5381   5382     1  180.0000771  0.3347200  3
   5380   5378   5381   5383     1  0.0000000  3.3472000  1
   5380   5378   5381   5383     1  0.0000000  0.0000000  2
   5380   5378   5381   5383     1  180.0000771  0.3347200  3
   5385   5384   5387   5390     1  0.0000000  0.6508444  3
   5385   5384   5387   5388     1  0.0000000  0.6508444  3
   5385   5384   5387   5389     1  0.0000000  0.6508444  3
   5386   5384   5387   5390     1  0.0000000  0.6508444  3
   5386   5384   5387   5388     1  0.0000000  0.6508444  3
   5386   5384   5387   5389     1  0.0000000  0.6508444  3
   5388   5387   5390   5391     1  0.0000000  3.3472000  1
   5388   5387   5390   5391     1  0.0000000  0.0000000  2
   5388   5387   5390   5391     1  180.0000771  0.3347200  3
   5388   5387   5390   5392     1  0.0000000  3.3472000  1
   5388   5387   5390   5392     1  0.0000000  0.0000000  2
   5388   5387   5390   5392     1  180.0000771  0.3347200  3
   5389   5387   5390   5391     1  0.0000000  3.3472000  1
   5389   5387   5390   5391     1  0.0000000  0.0000000  2
   5389   5387   5390   5391     1  180.0000771  0.3347200  3
   5389   5387   5390   5392     1  0.0000000  3.3472000  1
   5389   5387   5390   5392     1  0.0000000  0.0000000  2
   5389   5387   5390   5392     1  180.0000771  0.3347200  3
   5394   5397   5400   5401     1  0.0000000  0.6508444  3
   5394   5397   5400   5402     1  0.0000000  0.6508444  3
   5395   5394   5397   5400     1  0.0000000  0.6508444  3
   5395   5394   5397   5398     1  0.0000000  0.6508444  3
   5395   5394   5397   5399     1  0.0000000  0.6508444  3
   5396   5394   5397   5400     1  0.0000000  0.6508444  3
   5396   5394   5397   5398     1  0.0000000  0.6508444  3
   5396   5394   5397   5399     1  0.0000000  0.6508444  3
   5398   5397   5394   5422     1  0.0000000  1.0460000  1
   5398   5397   5394   5422     1  0.0000000  0.0000000  3
   5398   5397   5400   5403     1  0.0000000  0.6508444  3
   5398   5397   5400   5401     1  0.0000000  0.6508444  3
   5398   5397   5400   5402     1  0.0000000  0.6508444  3
   5399   5397   5394   5422     1  0.0000000  1.0460000  1
   5399   5397   5394   5422     1  0.0000000  0.0000000  3
   5399   5397   5400   5403     1  0.0000000  0.6508444  3
   5399   5397   5400   5401     1  0.0000000  0.6508444  3
   5399   5397   5400   5402     1  0.0000000  0.6508444  3
   5400   5403   5404   5405     1  0.0000000  1.2552000  3
   5400   5403   5404   5406     1  0.0000000  1.2552000  3
   5400   5403   5413   5414     1  0.0000000  1.2552000  3
   5400   5403   5413   5415     1  0.0000000  1.2552000  3
   5401   5400   5403   5404     1  0.0000000  1.2552000  3
   5401   5400   5403   5413     1  0.0000000  1.2552000  3
   5402   5400   5403   5404     1  0.0000000  1.2552000  3
   5402   5400   5403   5413     1  0.0000000  1.2552000  3
   5403   5404   5407   5408     1  0.0000000  0.6508444  3
   5403   5404   5407   5409     1  0.0000000  0.6508444  3
   5403   5413   5416   5417     1  0.0000000  0.6508444  3
   5403   5413   5416   5418     1  0.0000000  0.6508444  3
   5404   5403   5413   5414     1  0.0000000  1.2552000  3
   5404   5403   5413   5415     1  0.0000000  1.2552000  3
   5405   5404   5403   5413     1  0.0000000  1.2552000  3
   5405   5404   5407   5410     1  0.0000000  0.6508444  3
   5405   5404   5407   5408     1  0.0000000  0.6508444  3
   5405   5404   5407   5409     1  0.0000000  0.6508444  3
   5406   5404   5403   5413     1  0.0000000  1.2552000  3
   5406   5404   5407   5410     1  0.0000000  0.6508444  3
   5406   5404   5407   5408     1  0.0000000  0.6508444  3
   5406   5404   5407   5409     1  0.0000000  0.6508444  3
   5408   5407   5410   5411     1  0.0000000  3.3472000  1
   5408   5407   5410   5411     1  0.0000000  0.0000000  2
   5408   5407   5410   5411     1  180.0000771  0.3347200  3
   5408   5407   5410   5412     1  0.0000000  3.3472000  1
   5408   5407   5410   5412     1  0.0000000  0.0000000  2
   5408   5407   5410   5412     1  180.0000771  0.3347200  3
   5409   5407   5410   5411     1  0.0000000  3.3472000  1
   5409   5407   5410   5411     1  0.0000000  0.0000000  2
   5409   5407   5410   5411     1  180.0000771  0.3347200  3
   5409   5407   5410   5412     1  0.0000000  3.3472000  1
   5409   5407   5410   5412     1  0.0000000  0.0000000  2
   5409   5407   5410   5412     1  180.0000771  0.3347200  3
   5414   5413   5416   5419     1  0.0000000  0.6508444  3
   5414   5413   5416   5417     1  0.0000000  0.6508444  3
   5414   5413   5416   5418     1  0.0000000  0.6508444  3
   5415   5413   5416   5419     1  0.0000000  0.6508444  3
   5415   5413   5416   5417     1  0.0000000  0.6508444  3
   5415   5413   5416   5418     1  0.0000000  0.6508444  3
   5417   5416   5419   5420     1  0.0000000  3.3472000  1
   5417   5416   5419   5420     1  0.0000000  0.0000000  2
   5417   5416   5419   5420     1  180.0000771  0.3347200  3
   5417   5416   5419   5421     1  0.0000000  3.3472000  1
   5417   5416   5419   5421     1  0.0000000  0.0000000  2
   5417   5416   5419   5421     1  180.0000771  0.3347200  3
   5418   5416   5419   5420     1  0.0000000  3.3472000  1
   5418   5416   5419   5420     1  0.0000000  0.0000000  2
   5418   5416   5419   5420     1  180.0000771  0.3347200  3
   5418   5416   5419   5421     1  0.0000000  3.3472000  1
   5418   5416   5419   5421     1  0.0000000  0.0000000  2
   5418   5416   5419   5421     1  180.0000771  0.3347200  3
   5423   5426   5429   5430     1  0.0000000  0.6508444  3
   5423   5426   5429   5431     1  0.0000000  0.6508444  3
   5424   5423   5426   5429     1  0.0000000  0.6508444  3
   5424   5423   5426   5427     1  0.0000000  0.6508444  3
   5424   5423   5426   5428     1  0.0000000  0.6508444  3
   5425   5423   5426   5429     1  0.0000000  0.6508444  3
   5425   5423   5426   5427     1  0.0000000  0.6508444  3
   5425   5423   5426   5428     1  0.0000000  0.6508444  3
   5427   5426   5429   5432     1  0.0000000  0.6508444  3
   5427   5426   5429   5430     1  0.0000000  0.6508444  3
   5427   5426   5429   5431     1  0.0000000  0.6508444  3
   5427   5426   5423   5451     1  0.0000000  1.0460000  1
   5427   5426   5423   5451     1  0.0000000  0.0000000  3
   5428   5426   5429   5432     1  0.0000000  0.6508444  3
   5428   5426   5429   5430     1  0.0000000  0.6508444  3
   5428   5426   5429   5431     1  0.0000000  0.6508444  3
   5428   5426   5423   5451     1  0.0000000  1.0460000  1
   5428   5426   5423   5451     1  0.0000000  0.0000000  3
   5429   5432   5433   5434     1  0.0000000  1.2552000  3
   5429   5432   5433   5435     1  0.0000000  1.2552000  3
   5429   5432   5442   5443     1  0.0000000  1.2552000  3
   5429   5432   5442   5444     1  0.0000000  1.2552000  3
   5430   5429   5432   5433     1  0.0000000  1.2552000  3
   5430   5429   5432   5442     1  0.0000000  1.2552000  3
   5431   5429   5432   5433     1  0.0000000  1.2552000  3
   5431   5429   5432   5442     1  0.0000000  1.2552000  3
   5432   5433   5436   5437     1  0.0000000  0.6508444  3
   5432   5433   5436   5438     1  0.0000000  0.6508444  3
   5432   5442   5445   5446     1  0.0000000  0.6508444  3
   5432   5442   5445   5447     1  0.0000000  0.6508444  3
   5433   5432   5442   5443     1  0.0000000  1.2552000  3
   5433   5432   5442   5444     1  0.0000000  1.2552000  3
   5434   5433   5436   5439     1  0.0000000  0.6508444  3
   5434   5433   5436   5437     1  0.0000000  0.6508444  3
   5434   5433   5436   5438     1  0.0000000  0.6508444  3
   5434   5433   5432   5442     1  0.0000000  1.2552000  3
   5435   5433   5436   5439     1  0.0000000  0.6508444  3
   5435   5433   5436   5437     1  0.0000000  0.6508444  3
   5435   5433   5436   5438     1  0.0000000  0.6508444  3
   5435   5433   5432   5442     1  0.0000000  1.2552000  3
   5437   5436   5439   5440     1  0.0000000  3.3472000  1
   5437   5436   5439   5440     1  0.0000000  0.0000000  2
   5437   5436   5439   5440     1  180.0000771  0.3347200  3
   5437   5436   5439   5441     1  0.0000000  3.3472000  1
   5437   5436   5439   5441     1  0.0000000  0.0000000  2
   5437   5436   5439   5441     1  180.0000771  0.3347200  3
   5438   5436   5439   5440     1  0.0000000  3.3472000  1
   5438   5436   5439   5440     1  0.0000000  0.0000000  2
   5438   5436   5439   5440     1  180.0000771  0.3347200  3
   5438   5436   5439   5441     1  0.0000000  3.3472000  1
   5438   5436   5439   5441     1  0.0000000  0.0000000  2
   5438   5436   5439   5441     1  180.0000771  0.3347200  3
   5443   5442   5445   5448     1  0.0000000  0.6508444  3
   5443   5442   5445   5446     1  0.0000000  0.6508444  3
   5443   5442   5445   5447     1  0.0000000  0.6508444  3
   5444   5442   5445   5448     1  0.0000000  0.6508444  3
   5444   5442   5445   5446     1  0.0000000  0.6508444  3
   5444   5442   5445   5447     1  0.0000000  0.6508444  3
   5446   5445   5448   5449     1  0.0000000  3.3472000  1
   5446   5445   5448   5449     1  0.0000000  0.0000000  2
   5446   5445   5448   5449     1  180.0000771  0.3347200  3
   5446   5445   5448   5450     1  0.0000000  3.3472000  1
   5446   5445   5448   5450     1  0.0000000  0.0000000  2
   5446   5445   5448   5450     1  180.0000771  0.3347200  3
   5447   5445   5448   5449     1  0.0000000  3.3472000  1
   5447   5445   5448   5449     1  0.0000000  0.0000000  2
   5447   5445   5448   5449     1  180.0000771  0.3347200  3
   5447   5445   5448   5450     1  0.0000000  3.3472000  1
   5447   5445   5448   5450     1  0.0000000  0.0000000  2
   5447   5445   5448   5450     1  180.0000771  0.3347200  3
   5452   5455   5458   5459     1  0.0000000  0.6508444  3
   5452   5455   5458   5460     1  0.0000000  0.6508444  3
   5453   5452   5455   5458     1  0.0000000  0.6508444  3
   5453   5452   5455   5456     1  0.0000000  0.6508444  3
   5453   5452   5455   5457     1  0.0000000  0.6508444  3
   5454   5452   5455   5458     1  0.0000000  0.6508444  3
   5454   5452   5455   5456     1  0.0000000  0.6508444  3
   5454   5452   5455   5457     1  0.0000000  0.6508444  3
   5456   5455   5452   5480     1  0.0000000  1.0460000  1
   5456   5455   5452   5480     1  0.0000000  0.0000000  3
   5456   5455   5458   5461     1  0.0000000  0.6508444  3
   5456   5455   5458   5459     1  0.0000000  0.6508444  3
   5456   5455   5458   5460     1  0.0000000  0.6508444  3
   5457   5455   5452   5480     1  0.0000000  1.0460000  1
   5457   5455   5452   5480     1  0.0000000  0.0000000  3
   5457   5455   5458   5461     1  0.0000000  0.6508444  3
   5457   5455   5458   5459     1  0.0000000  0.6508444  3
   5457   5455   5458   5460     1  0.0000000  0.6508444  3
   5458   5461   5462   5463     1  0.0000000  1.2552000  3
   5458   5461   5462   5464     1  0.0000000  1.2552000  3
   5458   5461   5471   5472     1  0.0000000  1.2552000  3
   5458   5461   5471   5473     1  0.0000000  1.2552000  3
   5459   5458   5461   5462     1  0.0000000  1.2552000  3
   5459   5458   5461   5471     1  0.0000000  1.2552000  3
   5460   5458   5461   5462     1  0.0000000  1.2552000  3
   5460   5458   5461   5471     1  0.0000000  1.2552000  3
   5461   5462   5465   5466     1  0.0000000  0.6508444  3
   5461   5462   5465   5467     1  0.0000000  0.6508444  3
   5461   5471   5474   5475     1  0.0000000  0.6508444  3
   5461   5471   5474   5476     1  0.0000000  0.6508444  3
   5462   5461   5471   5472     1  0.0000000  1.2552000  3
   5462   5461   5471   5473     1  0.0000000  1.2552000  3
   5463   5462   5461   5471     1  0.0000000  1.2552000  3
   5463   5462   5465   5468     1  0.0000000  0.6508444  3
   5463   5462   5465   5466     1  0.0000000  0.6508444  3
   5463   5462   5465   5467     1  0.0000000  0.6508444  3
   5464   5462   5461   5471     1  0.0000000  1.2552000  3
   5464   5462   5465   5468     1  0.0000000  0.6508444  3
   5464   5462   5465   5466     1  0.0000000  0.6508444  3
   5464   5462   5465   5467     1  0.0000000  0.6508444  3
   5466   5465   5468   5469     1  0.0000000  3.3472000  1
   5466   5465   5468   5469     1  0.0000000  0.0000000  2
   5466   5465   5468   5469     1  180.0000771  0.3347200  3
   5466   5465   5468   5470     1  0.0000000  3.3472000  1
   5466   5465   5468   5470     1  0.0000000  0.0000000  2
   5466   5465   5468   5470     1  180.0000771  0.3347200  3
   5467   5465   5468   5469     1  0.0000000  3.3472000  1
   5467   5465   5468   5469     1  0.0000000  0.0000000  2
   5467   5465   5468   5469     1  180.0000771  0.3347200  3
   5467   5465   5468   5470     1  0.0000000  3.3472000  1
   5467   5465   5468   5470     1  0.0000000  0.0000000  2
   5467   5465   5468   5470     1  180.0000771  0.3347200  3
   5472   5471   5474   5477     1  0.0000000  0.6508444  3
   5472   5471   5474   5475     1  0.0000000  0.6508444  3
   5472   5471   5474   5476     1  0.0000000  0.6508444  3
   5473   5471   5474   5477     1  0.0000000  0.6508444  3
   5473   5471   5474   5475     1  0.0000000  0.6508444  3
   5473   5471   5474   5476     1  0.0000000  0.6508444  3
   5475   5474   5477   5478     1  0.0000000  3.3472000  1
   5475   5474   5477   5478     1  0.0000000  0.0000000  2
   5475   5474   5477   5478     1  180.0000771  0.3347200  3
   5475   5474   5477   5479     1  0.0000000  3.3472000  1
   5475   5474   5477   5479     1  0.0000000  0.0000000  2
   5475   5474   5477   5479     1  180.0000771  0.3347200  3
   5476   5474   5477   5478     1  0.0000000  3.3472000  1
   5476   5474   5477   5478     1  0.0000000  0.0000000  2
   5476   5474   5477   5478     1  180.0000771  0.3347200  3
   5476   5474   5477   5479     1  0.0000000  3.3472000  1
   5476   5474   5477   5479     1  0.0000000  0.0000000  2
   5476   5474   5477   5479     1  180.0000771  0.3347200  3
   5481   5484   5487   5488     1  0.0000000  0.6508444  3
   5481   5484   5487   5489     1  0.0000000  0.6508444  3
   5482   5481   5484   5487     1  0.0000000  0.6508444  3
   5482   5481   5484   5485     1  0.0000000  0.6508444  3
   5482   5481   5484   5486     1  0.0000000  0.6508444  3
   5483   5481   5484   5487     1  0.0000000  0.6508444  3
   5483   5481   5484   5485     1  0.0000000  0.6508444  3
   5483   5481   5484   5486     1  0.0000000  0.6508444  3
   5485   5484   5487   5490     1  0.0000000  0.6508444  3
   5485   5484   5487   5488     1  0.0000000  0.6508444  3
   5485   5484   5487   5489     1  0.0000000  0.6508444  3
   5485   5484   5481   5509     1  0.0000000  1.0460000  1
   5485   5484   5481   5509     1  0.0000000  0.0000000  3
   5486   5484   5487   5490     1  0.0000000  0.6508444  3
   5486   5484   5487   5488     1  0.0000000  0.6508444  3
   5486   5484   5487   5489     1  0.0000000  0.6508444  3
   5486   5484   5481   5509     1  0.0000000  1.0460000  1
   5486   5484   5481   5509     1  0.0000000  0.0000000  3
   5487   5490   5491   5492     1  0.0000000  1.2552000  3
   5487   5490   5491   5493     1  0.0000000  1.2552000  3
   5487   5490   5500   5501     1  0.0000000  1.2552000  3
   5487   5490   5500   5502     1  0.0000000  1.2552000  3
   5488   5487   5490   5491     1  0.0000000  1.2552000  3
   5488   5487   5490   5500     1  0.0000000  1.2552000  3
   5489   5487   5490   5491     1  0.0000000  1.2552000  3
   5489   5487   5490   5500     1  0.0000000  1.2552000  3
   5490   5491   5494   5495     1  0.0000000  0.6508444  3
   5490   5491   5494   5496     1  0.0000000  0.6508444  3
   5490   5500   5503   5504     1  0.0000000  0.6508444  3
   5490   5500   5503   5505     1  0.0000000  0.6508444  3
   5491   5490   5500   5501     1  0.0000000  1.2552000  3
   5491   5490   5500   5502     1  0.0000000  1.2552000  3
   5492   5491   5494   5497     1  0.0000000  0.6508444  3
   5492   5491   5494   5495     1  0.0000000  0.6508444  3
   5492   5491   5494   5496     1  0.0000000  0.6508444  3
   5492   5491   5490   5500     1  0.0000000  1.2552000  3
   5493   5491   5494   5497     1  0.0000000  0.6508444  3
   5493   5491   5494   5495     1  0.0000000  0.6508444  3
   5493   5491   5494   5496     1  0.0000000  0.6508444  3
   5493   5491   5490   5500     1  0.0000000  1.2552000  3
   5495   5494   5497   5498     1  0.0000000  3.3472000  1
   5495   5494   5497   5498     1  0.0000000  0.0000000  2
   5495   5494   5497   5498     1  180.0000771  0.3347200  3
   5495   5494   5497   5499     1  0.0000000  3.3472000  1
   5495   5494   5497   5499     1  0.0000000  0.0000000  2
   5495   5494   5497   5499     1  180.0000771  0.3347200  3
   5496   5494   5497   5498     1  0.0000000  3.3472000  1
   5496   5494   5497   5498     1  0.0000000  0.0000000  2
   5496   5494   5497   5498     1  180.0000771  0.3347200  3
   5496   5494   5497   5499     1  0.0000000  3.3472000  1
   5496   5494   5497   5499     1  0.0000000  0.0000000  2
   5496   5494   5497   5499     1  180.0000771  0.3347200  3
   5501   5500   5503   5506     1  0.0000000  0.6508444  3
   5501   5500   5503   5504     1  0.0000000  0.6508444  3
   5501   5500   5503   5505     1  0.0000000  0.6508444  3
   5502   5500   5503   5506     1  0.0000000  0.6508444  3
   5502   5500   5503   5504     1  0.0000000  0.6508444  3
   5502   5500   5503   5505     1  0.0000000  0.6508444  3
   5504   5503   5506   5507     1  0.0000000  3.3472000  1
   5504   5503   5506   5507     1  0.0000000  0.0000000  2
   5504   5503   5506   5507     1  180.0000771  0.3347200  3
   5504   5503   5506   5508     1  0.0000000  3.3472000  1
   5504   5503   5506   5508     1  0.0000000  0.0000000  2
   5504   5503   5506   5508     1  180.0000771  0.3347200  3
   5505   5503   5506   5507     1  0.0000000  3.3472000  1
   5505   5503   5506   5507     1  0.0000000  0.0000000  2
   5505   5503   5506   5507     1  180.0000771  0.3347200  3
   5505   5503   5506   5508     1  0.0000000  3.3472000  1
   5505   5503   5506   5508     1  0.0000000  0.0000000  2
   5505   5503   5506   5508     1  180.0000771  0.3347200  3
   5510   5513   5516   5517     1  0.0000000  0.6508444  3
   5510   5513   5516   5518     1  0.0000000  0.6508444  3
   5511   5510   5513   5516     1  0.0000000  0.6508444  3
   5511   5510   5513   5514     1  0.0000000  0.6508444  3
   5511   5510   5513   5515     1  0.0000000  0.6508444  3
   5512   5510   5513   5516     1  0.0000000  0.6508444  3
   5512   5510   5513   5514     1  0.0000000  0.6508444  3
   5512   5510   5513   5515     1  0.0000000  0.6508444  3
   5514   5513   5510   5538     1  0.0000000  1.0460000  1
   5514   5513   5510   5538     1  0.0000000  0.0000000  3
   5514   5513   5516   5519     1  0.0000000  0.6508444  3
   5514   5513   5516   5517     1  0.0000000  0.6508444  3
   5514   5513   5516   5518     1  0.0000000  0.6508444  3
   5515   5513   5510   5538     1  0.0000000  1.0460000  1
   5515   5513   5510   5538     1  0.0000000  0.0000000  3
   5515   5513   5516   5519     1  0.0000000  0.6508444  3
   5515   5513   5516   5517     1  0.0000000  0.6508444  3
   5515   5513   5516   5518     1  0.0000000  0.6508444  3
   5516   5519   5520   5521     1  0.0000000  1.2552000  3
   5516   5519   5520   5522     1  0.0000000  1.2552000  3
   5516   5519   5529   5530     1  0.0000000  1.2552000  3
   5516   5519   5529   5531     1  0.0000000  1.2552000  3
   5517   5516   5519   5520     1  0.0000000  1.2552000  3
   5517   5516   5519   5529     1  0.0000000  1.2552000  3
   5518   5516   5519   5520     1  0.0000000  1.2552000  3
   5518   5516   5519   5529     1  0.0000000  1.2552000  3
   5519   5520   5523   5524     1  0.0000000  0.6508444  3
   5519   5520   5523   5525     1  0.0000000  0.6508444  3
   5519   5529   5532   5533     1  0.0000000  0.6508444  3
   5519   5529   5532   5534     1  0.0000000  0.6508444  3
   5520   5519   5529   5530     1  0.0000000  1.2552000  3
   5520   5519   5529   5531     1  0.0000000  1.2552000  3
   5521   5520   5519   5529     1  0.0000000  1.2552000  3
   5521   5520   5523   5526     1  0.0000000  0.6508444  3
   5521   5520   5523   5524     1  0.0000000  0.6508444  3
   5521   5520   5523   5525     1  0.0000000  0.6508444  3
   5522   5520   5519   5529     1  0.0000000  1.2552000  3
   5522   5520   5523   5526     1  0.0000000  0.6508444  3
   5522   5520   5523   5524     1  0.0000000  0.6508444  3
   5522   5520   5523   5525     1  0.0000000  0.6508444  3
   5524   5523   5526   5527     1  0.0000000  3.3472000  1
   5524   5523   5526   5527     1  0.0000000  0.0000000  2
   5524   5523   5526   5527     1  180.0000771  0.3347200  3
   5524   5523   5526   5528     1  0.0000000  3.3472000  1
   5524   5523   5526   5528     1  0.0000000  0.0000000  2
   5524   5523   5526   5528     1  180.0000771  0.3347200  3
   5525   5523   5526   5527     1  0.0000000  3.3472000  1
   5525   5523   5526   5527     1  0.0000000  0.0000000  2
   5525   5523   5526   5527     1  180.0000771  0.3347200  3
   5525   5523   5526   5528     1  0.0000000  3.3472000  1
   5525   5523   5526   5528     1  0.0000000  0.0000000  2
   5525   5523   5526   5528     1  180.0000771  0.3347200  3
   5530   5529   5532   5535     1  0.0000000  0.6508444  3
   5530   5529   5532   5533     1  0.0000000  0.6508444  3
   5530   5529   5532   5534     1  0.0000000  0.6508444  3
   5531   5529   5532   5535     1  0.0000000  0.6508444  3
   5531   5529   5532   5533     1  0.0000000  0.6508444  3
   5531   5529   5532   5534     1  0.0000000  0.6508444  3
   5533   5532   5535   5536     1  0.0000000  3.3472000  1
   5533   5532   5535   5536     1  0.0000000  0.0000000  2
   5533   5532   5535   5536     1  180.0000771  0.3347200  3
   5533   5532   5535   5537     1  0.0000000  3.3472000  1
   5533   5532   5535   5537     1  0.0000000  0.0000000  2
   5533   5532   5535   5537     1  180.0000771  0.3347200  3
   5534   5532   5535   5536     1  0.0000000  3.3472000  1
   5534   5532   5535   5536     1  0.0000000  0.0000000  2
   5534   5532   5535   5536     1  180.0000771  0.3347200  3
   5534   5532   5535   5537     1  0.0000000  3.3472000  1
   5534   5532   5535   5537     1  0.0000000  0.0000000  2
   5534   5532   5535   5537     1  180.0000771  0.3347200  3
   5539   5542   5545   5546     1  0.0000000  0.6508444  3
   5539   5542   5545   5547     1  0.0000000  0.6508444  3
   5540   5539   5542   5545     1  0.0000000  0.6508444  3
   5540   5539   5542   5543     1  0.0000000  0.6508444  3
   5540   5539   5542   5544     1  0.0000000  0.6508444  3
   5541   5539   5542   5545     1  0.0000000  0.6508444  3
   5541   5539   5542   5543     1  0.0000000  0.6508444  3
   5541   5539   5542   5544     1  0.0000000  0.6508444  3
   5543   5542   5545   5548     1  0.0000000  0.6508444  3
   5543   5542   5545   5546     1  0.0000000  0.6508444  3
   5543   5542   5545   5547     1  0.0000000  0.6508444  3
   5543   5542   5539   5567     1  0.0000000  1.0460000  1
   5543   5542   5539   5567     1  0.0000000  0.0000000  3
   5544   5542   5545   5548     1  0.0000000  0.6508444  3
   5544   5542   5545   5546     1  0.0000000  0.6508444  3
   5544   5542   5545   5547     1  0.0000000  0.6508444  3
   5544   5542   5539   5567     1  0.0000000  1.0460000  1
   5544   5542   5539   5567     1  0.0000000  0.0000000  3
   5545   5548   5549   5550     1  0.0000000  1.2552000  3
   5545   5548   5549   5551     1  0.0000000  1.2552000  3
   5545   5548   5558   5559     1  0.0000000  1.2552000  3
   5545   5548   5558   5560     1  0.0000000  1.2552000  3
   5546   5545   5548   5549     1  0.0000000  1.2552000  3
   5546   5545   5548   5558     1  0.0000000  1.2552000  3
   5547   5545   5548   5549     1  0.0000000  1.2552000  3
   5547   5545   5548   5558     1  0.0000000  1.2552000  3
   5548   5549   5552   5553     1  0.0000000  0.6508444  3
   5548   5549   5552   5554     1  0.0000000  0.6508444  3
   5548   5558   5561   5562     1  0.0000000  0.6508444  3
   5548   5558   5561   5563     1  0.0000000  0.6508444  3
   5549   5548   5558   5559     1  0.0000000  1.2552000  3
   5549   5548   5558   5560     1  0.0000000  1.2552000  3
   5550   5549   5552   5555     1  0.0000000  0.6508444  3
   5550   5549   5552   5553     1  0.0000000  0.6508444  3
   5550   5549   5552   5554     1  0.0000000  0.6508444  3
   5550   5549   5548   5558     1  0.0000000  1.2552000  3
   5551   5549   5552   5555     1  0.0000000  0.6508444  3
   5551   5549   5552   5553     1  0.0000000  0.6508444  3
   5551   5549   5552   5554     1  0.0000000  0.6508444  3
   5551   5549   5548   5558     1  0.0000000  1.2552000  3
   5553   5552   5555   5556     1  0.0000000  3.3472000  1
   5553   5552   5555   5556     1  0.0000000  0.0000000  2
   5553   5552   5555   5556     1  180.0000771  0.3347200  3
   5553   5552   5555   5557     1  0.0000000  3.3472000  1
   5553   5552   5555   5557     1  0.0000000  0.0000000  2
   5553   5552   5555   5557     1  180.0000771  0.3347200  3
   5554   5552   5555   5556     1  0.0000000  3.3472000  1
   5554   5552   5555   5556     1  0.0000000  0.0000000  2
   5554   5552   5555   5556     1  180.0000771  0.3347200  3
   5554   5552   5555   5557     1  0.0000000  3.3472000  1
   5554   5552   5555   5557     1  0.0000000  0.0000000  2
   5554   5552   5555   5557     1  180.0000771  0.3347200  3
   5559   5558   5561   5564     1  0.0000000  0.6508444  3
   5559   5558   5561   5562     1  0.0000000  0.6508444  3
   5559   5558   5561   5563     1  0.0000000  0.6508444  3
   5560   5558   5561   5564     1  0.0000000  0.6508444  3
   5560   5558   5561   5562     1  0.0000000  0.6508444  3
   5560   5558   5561   5563     1  0.0000000  0.6508444  3
   5562   5561   5564   5565     1  0.0000000  3.3472000  1
   5562   5561   5564   5565     1  0.0000000  0.0000000  2
   5562   5561   5564   5565     1  180.0000771  0.3347200  3
   5562   5561   5564   5566     1  0.0000000  3.3472000  1
   5562   5561   5564   5566     1  0.0000000  0.0000000  2
   5562   5561   5564   5566     1  180.0000771  0.3347200  3
   5563   5561   5564   5565     1  0.0000000  3.3472000  1
   5563   5561   5564   5565     1  0.0000000  0.0000000  2
   5563   5561   5564   5565     1  180.0000771  0.3347200  3
   5563   5561   5564   5566     1  0.0000000  3.3472000  1
   5563   5561   5564   5566     1  0.0000000  0.0000000  2
   5563   5561   5564   5566     1  180.0000771  0.3347200  3
   5568   5571   5574   5575     1  0.0000000  0.6508444  3
   5568   5571   5574   5576     1  0.0000000  0.6508444  3
   5569   5568   5571   5574     1  0.0000000  0.6508444  3
   5569   5568   5571   5572     1  0.0000000  0.6508444  3
   5569   5568   5571   5573     1  0.0000000  0.6508444  3
   5570   5568   5571   5574     1  0.0000000  0.6508444  3
   5570   5568   5571   5572     1  0.0000000  0.6508444  3
   5570   5568   5571   5573     1  0.0000000  0.6508444  3
   5572   5571   5568   5596     1  0.0000000  1.0460000  1
   5572   5571   5568   5596     1  0.0000000  0.0000000  3
   5572   5571   5574   5577     1  0.0000000  0.6508444  3
   5572   5571   5574   5575     1  0.0000000  0.6508444  3
   5572   5571   5574   5576     1  0.0000000  0.6508444  3
   5573   5571   5568   5596     1  0.0000000  1.0460000  1
   5573   5571   5568   5596     1  0.0000000  0.0000000  3
   5573   5571   5574   5577     1  0.0000000  0.6508444  3
   5573   5571   5574   5575     1  0.0000000  0.6508444  3
   5573   5571   5574   5576     1  0.0000000  0.6508444  3
   5574   5577   5578   5579     1  0.0000000  1.2552000  3
   5574   5577   5578   5580     1  0.0000000  1.2552000  3
   5574   5577   5587   5588     1  0.0000000  1.2552000  3
   5574   5577   5587   5589     1  0.0000000  1.2552000  3
   5575   5574   5577   5578     1  0.0000000  1.2552000  3
   5575   5574   5577   5587     1  0.0000000  1.2552000  3
   5576   5574   5577   5578     1  0.0000000  1.2552000  3
   5576   5574   5577   5587     1  0.0000000  1.2552000  3
   5577   5578   5581   5582     1  0.0000000  0.6508444  3
   5577   5578   5581   5583     1  0.0000000  0.6508444  3
   5577   5587   5590   5591     1  0.0000000  0.6508444  3
   5577   5587   5590   5592     1  0.0000000  0.6508444  3
   5578   5577   5587   5588     1  0.0000000  1.2552000  3
   5578   5577   5587   5589     1  0.0000000  1.2552000  3
   5579   5578   5577   5587     1  0.0000000  1.2552000  3
   5579   5578   5581   5584     1  0.0000000  0.6508444  3
   5579   5578   5581   5582     1  0.0000000  0.6508444  3
   5579   5578   5581   5583     1  0.0000000  0.6508444  3
   5580   5578   5577   5587     1  0.0000000  1.2552000  3
   5580   5578   5581   5584     1  0.0000000  0.6508444  3
   5580   5578   5581   5582     1  0.0000000  0.6508444  3
   5580   5578   5581   5583     1  0.0000000  0.6508444  3
   5582   5581   5584   5585     1  0.0000000  3.3472000  1
   5582   5581   5584   5585     1  0.0000000  0.0000000  2
   5582   5581   5584   5585     1  180.0000771  0.3347200  3
   5582   5581   5584   5586     1  0.0000000  3.3472000  1
   5582   5581   5584   5586     1  0.0000000  0.0000000  2
   5582   5581   5584   5586     1  180.0000771  0.3347200  3
   5583   5581   5584   5585     1  0.0000000  3.3472000  1
   5583   5581   5584   5585     1  0.0000000  0.0000000  2
   5583   5581   5584   5585     1  180.0000771  0.3347200  3
   5583   5581   5584   5586     1  0.0000000  3.3472000  1
   5583   5581   5584   5586     1  0.0000000  0.0000000  2
   5583   5581   5584   5586     1  180.0000771  0.3347200  3
   5588   5587   5590   5593     1  0.0000000  0.6508444  3
   5588   5587   5590   5591     1  0.0000000  0.6508444  3
   5588   5587   5590   5592     1  0.0000000  0.6508444  3
   5589   5587   5590   5593     1  0.0000000  0.6508444  3
   5589   5587   5590   5591     1  0.0000000  0.6508444  3
   5589   5587   5590   5592     1  0.0000000  0.6508444  3
   5591   5590   5593   5594     1  0.0000000  3.3472000  1
   5591   5590   5593   5594     1  0.0000000  0.0000000  2
   5591   5590   5593   5594     1  180.0000771  0.3347200  3
   5591   5590   5593   5595     1  0.0000000  3.3472000  1
   5591   5590   5593   5595     1  0.0000000  0.0000000  2
   5591   5590   5593   5595     1  180.0000771  0.3347200  3
   5592   5590   5593   5594     1  0.0000000  3.3472000  1
   5592   5590   5593   5594     1  0.0000000  0.0000000  2
   5592   5590   5593   5594     1  180.0000771  0.3347200  3
   5592   5590   5593   5595     1  0.0000000  3.3472000  1
   5592   5590   5593   5595     1  0.0000000  0.0000000  2
   5592   5590   5593   5595     1  180.0000771  0.3347200  3
   5597   5600   5603   5604     1  0.0000000  0.6508444  3
   5597   5600   5603   5605     1  0.0000000  0.6508444  3
   5598   5597   5600   5603     1  0.0000000  0.6508444  3
   5598   5597   5600   5601     1  0.0000000  0.6508444  3
   5598   5597   5600   5602     1  0.0000000  0.6508444  3
   5599   5597   5600   5603     1  0.0000000  0.6508444  3
   5599   5597   5600   5601     1  0.0000000  0.6508444  3
   5599   5597   5600   5602     1  0.0000000  0.6508444  3
   5601   5600   5603   5606     1  0.0000000  0.6508444  3
   5601   5600   5603   5604     1  0.0000000  0.6508444  3
   5601   5600   5603   5605     1  0.0000000  0.6508444  3
   5601   5600   5597   5625     1  0.0000000  1.0460000  1
   5601   5600   5597   5625     1  0.0000000  0.0000000  3
   5602   5600   5603   5606     1  0.0000000  0.6508444  3
   5602   5600   5603   5604     1  0.0000000  0.6508444  3
   5602   5600   5603   5605     1  0.0000000  0.6508444  3
   5602   5600   5597   5625     1  0.0000000  1.0460000  1
   5602   5600   5597   5625     1  0.0000000  0.0000000  3
   5603   5606   5607   5608     1  0.0000000  1.2552000  3
   5603   5606   5607   5609     1  0.0000000  1.2552000  3
   5603   5606   5616   5617     1  0.0000000  1.2552000  3
   5603   5606   5616   5618     1  0.0000000  1.2552000  3
   5604   5603   5606   5607     1  0.0000000  1.2552000  3
   5604   5603   5606   5616     1  0.0000000  1.2552000  3
   5605   5603   5606   5607     1  0.0000000  1.2552000  3
   5605   5603   5606   5616     1  0.0000000  1.2552000  3
   5606   5607   5610   5611     1  0.0000000  0.6508444  3
   5606   5607   5610   5612     1  0.0000000  0.6508444  3
   5606   5616   5619   5620     1  0.0000000  0.6508444  3
   5606   5616   5619   5621     1  0.0000000  0.6508444  3
   5607   5606   5616   5617     1  0.0000000  1.2552000  3
   5607   5606   5616   5618     1  0.0000000  1.2552000  3
   5608   5607   5610   5613     1  0.0000000  0.6508444  3
   5608   5607   5610   5611     1  0.0000000  0.6508444  3
   5608   5607   5610   5612     1  0.0000000  0.6508444  3
   5608   5607   5606   5616     1  0.0000000  1.2552000  3
   5609   5607   5610   5613     1  0.0000000  0.6508444  3
   5609   5607   5610   5611     1  0.0000000  0.6508444  3
   5609   5607   5610   5612     1  0.0000000  0.6508444  3
   5609   5607   5606   5616     1  0.0000000  1.2552000  3
   5611   5610   5613   5614     1  0.0000000  3.3472000  1
   5611   5610   5613   5614     1  0.0000000  0.0000000  2
   5611   5610   5613   5614     1  180.0000771  0.3347200  3
   5611   5610   5613   5615     1  0.0000000  3.3472000  1
   5611   5610   5613   5615     1  0.0000000  0.0000000  2
   5611   5610   5613   5615     1  180.0000771  0.3347200  3
   5612   5610   5613   5614     1  0.0000000  3.3472000  1
   5612   5610   5613   5614     1  0.0000000  0.0000000  2
   5612   5610   5613   5614     1  180.0000771  0.3347200  3
   5612   5610   5613   5615     1  0.0000000  3.3472000  1
   5612   5610   5613   5615     1  0.0000000  0.0000000  2
   5612   5610   5613   5615     1  180.0000771  0.3347200  3
   5617   5616   5619   5622     1  0.0000000  0.6508444  3
   5617   5616   5619   5620     1  0.0000000  0.6508444  3
   5617   5616   5619   5621     1  0.0000000  0.6508444  3
   5618   5616   5619   5622     1  0.0000000  0.6508444  3
   5618   5616   5619   5620     1  0.0000000  0.6508444  3
   5618   5616   5619   5621     1  0.0000000  0.6508444  3
   5620   5619   5622   5623     1  0.0000000  3.3472000  1
   5620   5619   5622   5623     1  0.0000000  0.0000000  2
   5620   5619   5622   5623     1  180.0000771  0.3347200  3
   5620   5619   5622   5624     1  0.0000000  3.3472000  1
   5620   5619   5622   5624     1  0.0000000  0.0000000  2
   5620   5619   5622   5624     1  180.0000771  0.3347200  3
   5621   5619   5622   5623     1  0.0000000  3.3472000  1
   5621   5619   5622   5623     1  0.0000000  0.0000000  2
   5621   5619   5622   5623     1  180.0000771  0.3347200  3
   5621   5619   5622   5624     1  0.0000000  3.3472000  1
   5621   5619   5622   5624     1  0.0000000  0.0000000  2
   5621   5619   5622   5624     1  180.0000771  0.3347200  3
   5626   5629   5632   5633     1  0.0000000  0.6508444  3
   5626   5629   5632   5634     1  0.0000000  0.6508444  3
   5627   5626   5629   5632     1  0.0000000  0.6508444  3
   5627   5626   5629   5630     1  0.0000000  0.6508444  3
   5627   5626   5629   5631     1  0.0000000  0.6508444  3
   5628   5626   5629   5632     1  0.0000000  0.6508444  3
   5628   5626   5629   5630     1  0.0000000  0.6508444  3
   5628   5626   5629   5631     1  0.0000000  0.6508444  3
   5630   5629   5626   5654     1  0.0000000  1.0460000  1
   5630   5629   5626   5654     1  0.0000000  0.0000000  3
   5630   5629   5632   5635     1  0.0000000  0.6508444  3
   5630   5629   5632   5633     1  0.0000000  0.6508444  3
   5630   5629   5632   5634     1  0.0000000  0.6508444  3
   5631   5629   5626   5654     1  0.0000000  1.0460000  1
   5631   5629   5626   5654     1  0.0000000  0.0000000  3
   5631   5629   5632   5635     1  0.0000000  0.6508444  3
   5631   5629   5632   5633     1  0.0000000  0.6508444  3
   5631   5629   5632   5634     1  0.0000000  0.6508444  3
   5632   5635   5636   5637     1  0.0000000  1.2552000  3
   5632   5635   5636   5638     1  0.0000000  1.2552000  3
   5632   5635   5645   5646     1  0.0000000  1.2552000  3
   5632   5635   5645   5647     1  0.0000000  1.2552000  3
   5633   5632   5635   5636     1  0.0000000  1.2552000  3
   5633   5632   5635   5645     1  0.0000000  1.2552000  3
   5634   5632   5635   5636     1  0.0000000  1.2552000  3
   5634   5632   5635   5645     1  0.0000000  1.2552000  3
   5635   5636   5639   5640     1  0.0000000  0.6508444  3
   5635   5636   5639   5641     1  0.0000000  0.6508444  3
   5635   5645   5648   5649     1  0.0000000  0.6508444  3
   5635   5645   5648   5650     1  0.0000000  0.6508444  3
   5636   5635   5645   5646     1  0.0000000  1.2552000  3
   5636   5635   5645   5647     1  0.0000000  1.2552000  3
   5637   5636   5635   5645     1  0.0000000  1.2552000  3
   5637   5636   5639   5642     1  0.0000000  0.6508444  3
   5637   5636   5639   5640     1  0.0000000  0.6508444  3
   5637   5636   5639   5641     1  0.0000000  0.6508444  3
   5638   5636   5635   5645     1  0.0000000  1.2552000  3
   5638   5636   5639   5642     1  0.0000000  0.6508444  3
   5638   5636   5639   5640     1  0.0000000  0.6508444  3
   5638   5636   5639   5641     1  0.0000000  0.6508444  3
   5640   5639   5642   5643     1  0.0000000  3.3472000  1
   5640   5639   5642   5643     1  0.0000000  0.0000000  2
   5640   5639   5642   5643     1  180.0000771  0.3347200  3
   5640   5639   5642   5644     1  0.0000000  3.3472000  1
   5640   5639   5642   5644     1  0.0000000  0.0000000  2
   5640   5639   5642   5644     1  180.0000771  0.3347200  3
   5641   5639   5642   5643     1  0.0000000  3.3472000  1
   5641   5639   5642   5643     1  0.0000000  0.0000000  2
   5641   5639   5642   5643     1  180.0000771  0.3347200  3
   5641   5639   5642   5644     1  0.0000000  3.3472000  1
   5641   5639   5642   5644     1  0.0000000  0.0000000  2
   5641   5639   5642   5644     1  180.0000771  0.3347200  3
   5646   5645   5648   5651     1  0.0000000  0.6508444  3
   5646   5645   5648   5649     1  0.0000000  0.6508444  3
   5646   5645   5648   5650     1  0.0000000  0.6508444  3
   5647   5645   5648   5651     1  0.0000000  0.6508444  3
   5647   5645   5648   5649     1  0.0000000  0.6508444  3
   5647   5645   5648   5650     1  0.0000000  0.6508444  3
   5649   5648   5651   5652     1  0.0000000  3.3472000  1
   5649   5648   5651   5652     1  0.0000000  0.0000000  2
   5649   5648   5651   5652     1  180.0000771  0.3347200  3
   5649   5648   5651   5653     1  0.0000000  3.3472000  1
   5649   5648   5651   5653     1  0.0000000  0.0000000  2
   5649   5648   5651   5653     1  180.0000771  0.3347200  3
   5650   5648   5651   5652     1  0.0000000  3.3472000  1
   5650   5648   5651   5652     1  0.0000000  0.0000000  2
   5650   5648   5651   5652     1  180.0000771  0.3347200  3
   5650   5648   5651   5653     1  0.0000000  3.3472000  1
   5650   5648   5651   5653     1  0.0000000  0.0000000  2
   5650   5648   5651   5653     1  180.0000771  0.3347200  3
   5655   5658   5661   5662     1  0.0000000  0.6508444  3
   5655   5658   5661   5663     1  0.0000000  0.6508444  3
   5656   5655   5658   5661     1  0.0000000  0.6508444  3
   5656   5655   5658   5659     1  0.0000000  0.6508444  3
   5656   5655   5658   5660     1  0.0000000  0.6508444  3
   5657   5655   5658   5661     1  0.0000000  0.6508444  3
   5657   5655   5658   5659     1  0.0000000  0.6508444  3
   5657   5655   5658   5660     1  0.0000000  0.6508444  3
   5659   5658   5661   5664     1  0.0000000  0.6508444  3
   5659   5658   5661   5662     1  0.0000000  0.6508444  3
   5659   5658   5661   5663     1  0.0000000  0.6508444  3
   5659   5658   5655   5683     1  0.0000000  1.0460000  1
   5659   5658   5655   5683     1  0.0000000  0.0000000  3
   5660   5658   5661   5664     1  0.0000000  0.6508444  3
   5660   5658   5661   5662     1  0.0000000  0.6508444  3
   5660   5658   5661   5663     1  0.0000000  0.6508444  3
   5660   5658   5655   5683     1  0.0000000  1.0460000  1
   5660   5658   5655   5683     1  0.0000000  0.0000000  3
   5661   5664   5665   5666     1  0.0000000  1.2552000  3
   5661   5664   5665   5667     1  0.0000000  1.2552000  3
   5661   5664   5674   5675     1  0.0000000  1.2552000  3
   5661   5664   5674   5676     1  0.0000000  1.2552000  3
   5662   5661   5664   5665     1  0.0000000  1.2552000  3
   5662   5661   5664   5674     1  0.0000000  1.2552000  3
   5663   5661   5664   5665     1  0.0000000  1.2552000  3
   5663   5661   5664   5674     1  0.0000000  1.2552000  3
   5664   5665   5668   5669     1  0.0000000  0.6508444  3
   5664   5665   5668   5670     1  0.0000000  0.6508444  3
   5664   5674   5677   5678     1  0.0000000  0.6508444  3
   5664   5674   5677   5679     1  0.0000000  0.6508444  3
   5665   5664   5674   5675     1  0.0000000  1.2552000  3
   5665   5664   5674   5676     1  0.0000000  1.2552000  3
   5666   5665   5668   5671     1  0.0000000  0.6508444  3
   5666   5665   5668   5669     1  0.0000000  0.6508444  3
   5666   5665   5668   5670     1  0.0000000  0.6508444  3
   5666   5665   5664   5674     1  0.0000000  1.2552000  3
   5667   5665   5668   5671     1  0.0000000  0.6508444  3
   5667   5665   5668   5669     1  0.0000000  0.6508444  3
   5667   5665   5668   5670     1  0.0000000  0.6508444  3
   5667   5665   5664   5674     1  0.0000000  1.2552000  3
   5669   5668   5671   5672     1  0.0000000  3.3472000  1
   5669   5668   5671   5672     1  0.0000000  0.0000000  2
   5669   5668   5671   5672     1  180.0000771  0.3347200  3
   5669   5668   5671   5673     1  0.0000000  3.3472000  1
   5669   5668   5671   5673     1  0.0000000  0.0000000  2
   5669   5668   5671   5673     1  180.0000771  0.3347200  3
   5670   5668   5671   5672     1  0.0000000  3.3472000  1
   5670   5668   5671   5672     1  0.0000000  0.0000000  2
   5670   5668   5671   5672     1  180.0000771  0.3347200  3
   5670   5668   5671   5673     1  0.0000000  3.3472000  1
   5670   5668   5671   5673     1  0.0000000  0.0000000  2
   5670   5668   5671   5673     1  180.0000771  0.3347200  3
   5675   5674   5677   5680     1  0.0000000  0.6508444  3
   5675   5674   5677   5678     1  0.0000000  0.6508444  3
   5675   5674   5677   5679     1  0.0000000  0.6508444  3
   5676   5674   5677   5680     1  0.0000000  0.6508444  3
   5676   5674   5677   5678     1  0.0000000  0.6508444  3
   5676   5674   5677   5679     1  0.0000000  0.6508444  3
   5678   5677   5680   5681     1  0.0000000  3.3472000  1
   5678   5677   5680   5681     1  0.0000000  0.0000000  2
   5678   5677   5680   5681     1  180.0000771  0.3347200  3
   5678   5677   5680   5682     1  0.0000000  3.3472000  1
   5678   5677   5680   5682     1  0.0000000  0.0000000  2
   5678   5677   5680   5682     1  180.0000771  0.3347200  3
   5679   5677   5680   5681     1  0.0000000  3.3472000  1
   5679   5677   5680   5681     1  0.0000000  0.0000000  2
   5679   5677   5680   5681     1  180.0000771  0.3347200  3
   5679   5677   5680   5682     1  0.0000000  3.3472000  1
   5679   5677   5680   5682     1  0.0000000  0.0000000  2
   5679   5677   5680   5682     1  180.0000771  0.3347200  3
   5684   5687   5690   5691     1  0.0000000  0.6508444  3
   5684   5687   5690   5692     1  0.0000000  0.6508444  3
   5685   5684   5687   5690     1  0.0000000  0.6508444  3
   5685   5684   5687   5688     1  0.0000000  0.6508444  3
   5685   5684   5687   5689     1  0.0000000  0.6508444  3
   5686   5684   5687   5690     1  0.0000000  0.6508444  3
   5686   5684   5687   5688     1  0.0000000  0.6508444  3
   5686   5684   5687   5689     1  0.0000000  0.6508444  3
   5688   5687   5684   5712     1  0.0000000  1.0460000  1
   5688   5687   5684   5712     1  0.0000000  0.0000000  3
   5688   5687   5690   5693     1  0.0000000  0.6508444  3
   5688   5687   5690   5691     1  0.0000000  0.6508444  3
   5688   5687   5690   5692     1  0.0000000  0.6508444  3
   5689   5687   5684   5712     1  0.0000000  1.0460000  1
   5689   5687   5684   5712     1  0.0000000  0.0000000  3
   5689   5687   5690   5693     1  0.0000000  0.6508444  3
   5689   5687   5690   5691     1  0.0000000  0.6508444  3
   5689   5687   5690   5692     1  0.0000000  0.6508444  3
   5690   5693   5694   5695     1  0.0000000  1.2552000  3
   5690   5693   5694   5696     1  0.0000000  1.2552000  3
   5690   5693   5703   5704     1  0.0000000  1.2552000  3
   5690   5693   5703   5705     1  0.0000000  1.2552000  3
   5691   5690   5693   5694     1  0.0000000  1.2552000  3
   5691   5690   5693   5703     1  0.0000000  1.2552000  3
   5692   5690   5693   5694     1  0.0000000  1.2552000  3
   5692   5690   5693   5703     1  0.0000000  1.2552000  3
   5693   5694   5697   5698     1  0.0000000  0.6508444  3
   5693   5694   5697   5699     1  0.0000000  0.6508444  3
   5693   5703   5706   5707     1  0.0000000  0.6508444  3
   5693   5703   5706   5708     1  0.0000000  0.6508444  3
   5694   5693   5703   5704     1  0.0000000  1.2552000  3
   5694   5693   5703   5705     1  0.0000000  1.2552000  3
   5695   5694   5693   5703     1  0.0000000  1.2552000  3
   5695   5694   5697   5700     1  0.0000000  0.6508444  3
   5695   5694   5697   5698     1  0.0000000  0.6508444  3
   5695   5694   5697   5699     1  0.0000000  0.6508444  3
   5696   5694   5693   5703     1  0.0000000  1.2552000  3
   5696   5694   5697   5700     1  0.0000000  0.6508444  3
   5696   5694   5697   5698     1  0.0000000  0.6508444  3
   5696   5694   5697   5699     1  0.0000000  0.6508444  3
   5698   5697   5700   5701     1  0.0000000  3.3472000  1
   5698   5697   5700   5701     1  0.0000000  0.0000000  2
   5698   5697   5700   5701     1  180.0000771  0.3347200  3
   5698   5697   5700   5702     1  0.0000000  3.3472000  1
   5698   5697   5700   5702     1  0.0000000  0.0000000  2
   5698   5697   5700   5702     1  180.0000771  0.3347200  3
   5699   5697   5700   5701     1  0.0000000  3.3472000  1
   5699   5697   5700   5701     1  0.0000000  0.0000000  2
   5699   5697   5700   5701     1  180.0000771  0.3347200  3
   5699   5697   5700   5702     1  0.0000000  3.3472000  1
   5699   5697   5700   5702     1  0.0000000  0.0000000  2
   5699   5697   5700   5702     1  180.0000771  0.3347200  3
   5704   5703   5706   5709     1  0.0000000  0.6508444  3
   5704   5703   5706   5707     1  0.0000000  0.6508444  3
   5704   5703   5706   5708     1  0.0000000  0.6508444  3
   5705   5703   5706   5709     1  0.0000000  0.6508444  3
   5705   5703   5706   5707     1  0.0000000  0.6508444  3
   5705   5703   5706   5708     1  0.0000000  0.6508444  3
   5707   5706   5709   5710     1  0.0000000  3.3472000  1
   5707   5706   5709   5710     1  0.0000000  0.0000000  2
   5707   5706   5709   5710     1  180.0000771  0.3347200  3
   5707   5706   5709   5711     1  0.0000000  3.3472000  1
   5707   5706   5709   5711     1  0.0000000  0.0000000  2
   5707   5706   5709   5711     1  180.0000771  0.3347200  3
   5708   5706   5709   5710     1  0.0000000  3.3472000  1
   5708   5706   5709   5710     1  0.0000000  0.0000000  2
   5708   5706   5709   5710     1  180.0000771  0.3347200  3
   5708   5706   5709   5711     1  0.0000000  3.3472000  1
   5708   5706   5709   5711     1  0.0000000  0.0000000  2
   5708   5706   5709   5711     1  180.0000771  0.3347200  3
   5713   5716   5719   5720     1  0.0000000  0.6508444  3
   5713   5716   5719   5721     1  0.0000000  0.6508444  3
   5714   5713   5716   5719     1  0.0000000  0.6508444  3
   5714   5713   5716   5717     1  0.0000000  0.6508444  3
   5714   5713   5716   5718     1  0.0000000  0.6508444  3
   5715   5713   5716   5719     1  0.0000000  0.6508444  3
   5715   5713   5716   5717     1  0.0000000  0.6508444  3
   5715   5713   5716   5718     1  0.0000000  0.6508444  3
   5717   5716   5719   5722     1  0.0000000  0.6508444  3
   5717   5716   5719   5720     1  0.0000000  0.6508444  3
   5717   5716   5719   5721     1  0.0000000  0.6508444  3
   5717   5716   5713   5741     1  0.0000000  1.0460000  1
   5717   5716   5713   5741     1  0.0000000  0.0000000  3
   5718   5716   5719   5722     1  0.0000000  0.6508444  3
   5718   5716   5719   5720     1  0.0000000  0.6508444  3
   5718   5716   5719   5721     1  0.0000000  0.6508444  3
   5718   5716   5713   5741     1  0.0000000  1.0460000  1
   5718   5716   5713   5741     1  0.0000000  0.0000000  3
   5719   5722   5723   5724     1  0.0000000  1.2552000  3
   5719   5722   5723   5725     1  0.0000000  1.2552000  3
   5719   5722   5732   5733     1  0.0000000  1.2552000  3
   5719   5722   5732   5734     1  0.0000000  1.2552000  3
   5720   5719   5722   5723     1  0.0000000  1.2552000  3
   5720   5719   5722   5732     1  0.0000000  1.2552000  3
   5721   5719   5722   5723     1  0.0000000  1.2552000  3
   5721   5719   5722   5732     1  0.0000000  1.2552000  3
   5722   5723   5726   5727     1  0.0000000  0.6508444  3
   5722   5723   5726   5728     1  0.0000000  0.6508444  3
   5722   5732   5735   5736     1  0.0000000  0.6508444  3
   5722   5732   5735   5737     1  0.0000000  0.6508444  3
   5723   5722   5732   5733     1  0.0000000  1.2552000  3
   5723   5722   5732   5734     1  0.0000000  1.2552000  3
   5724   5723   5726   5729     1  0.0000000  0.6508444  3
   5724   5723   5726   5727     1  0.0000000  0.6508444  3
   5724   5723   5726   5728     1  0.0000000  0.6508444  3
   5724   5723   5722   5732     1  0.0000000  1.2552000  3
   5725   5723   5726   5729     1  0.0000000  0.6508444  3
   5725   5723   5726   5727     1  0.0000000  0.6508444  3
   5725   5723   5726   5728     1  0.0000000  0.6508444  3
   5725   5723   5722   5732     1  0.0000000  1.2552000  3
   5727   5726   5729   5730     1  0.0000000  3.3472000  1
   5727   5726   5729   5730     1  0.0000000  0.0000000  2
   5727   5726   5729   5730     1  180.0000771  0.3347200  3
   5727   5726   5729   5731     1  0.0000000  3.3472000  1
   5727   5726   5729   5731     1  0.0000000  0.0000000  2
   5727   5726   5729   5731     1  180.0000771  0.3347200  3
   5728   5726   5729   5730     1  0.0000000  3.3472000  1
   5728   5726   5729   5730     1  0.0000000  0.0000000  2
   5728   5726   5729   5730     1  180.0000771  0.3347200  3
   5728   5726   5729   5731     1  0.0000000  3.3472000  1
   5728   5726   5729   5731     1  0.0000000  0.0000000  2
   5728   5726   5729   5731     1  180.0000771  0.3347200  3
   5733   5732   5735   5738     1  0.0000000  0.6508444  3
   5733   5732   5735   5736     1  0.0000000  0.6508444  3
   5733   5732   5735   5737     1  0.0000000  0.6508444  3
   5734   5732   5735   5738     1  0.0000000  0.6508444  3
   5734   5732   5735   5736     1  0.0000000  0.6508444  3
   5734   5732   5735   5737     1  0.0000000  0.6508444  3
   5736   5735   5738   5739     1  0.0000000  3.3472000  1
   5736   5735   5738   5739     1  0.0000000  0.0000000  2
   5736   5735   5738   5739     1  180.0000771  0.3347200  3
   5736   5735   5738   5740     1  0.0000000  3.3472000  1
   5736   5735   5738   5740     1  0.0000000  0.0000000  2
   5736   5735   5738   5740     1  180.0000771  0.3347200  3
   5737   5735   5738   5739     1  0.0000000  3.3472000  1
   5737   5735   5738   5739     1  0.0000000  0.0000000  2
   5737   5735   5738   5739     1  180.0000771  0.3347200  3
   5737   5735   5738   5740     1  0.0000000  3.3472000  1
   5737   5735   5738   5740     1  0.0000000  0.0000000  2
   5737   5735   5738   5740     1  180.0000771  0.3347200  3
   5742   5745   5748   5749     1  0.0000000  0.6508444  3
   5742   5745   5748   5750     1  0.0000000  0.6508444  3
   5743   5742   5745   5748     1  0.0000000  0.6508444  3
   5743   5742   5745   5746     1  0.0000000  0.6508444  3
   5743   5742   5745   5747     1  0.0000000  0.6508444  3
   5744   5742   5745   5748     1  0.0000000  0.6508444  3
   5744   5742   5745   5746     1  0.0000000  0.6508444  3
   5744   5742   5745   5747     1  0.0000000  0.6508444  3
   5746   5745   5742   5770     1  0.0000000  1.0460000  1
   5746   5745   5742   5770     1  0.0000000  0.0000000  3
   5746   5745   5748   5751     1  0.0000000  0.6508444  3
   5746   5745   5748   5749     1  0.0000000  0.6508444  3
   5746   5745   5748   5750     1  0.0000000  0.6508444  3
   5747   5745   5742   5770     1  0.0000000  1.0460000  1
   5747   5745   5742   5770     1  0.0000000  0.0000000  3
   5747   5745   5748   5751     1  0.0000000  0.6508444  3
   5747   5745   5748   5749     1  0.0000000  0.6508444  3
   5747   5745   5748   5750     1  0.0000000  0.6508444  3
   5748   5751   5752   5753     1  0.0000000  1.2552000  3
   5748   5751   5752   5754     1  0.0000000  1.2552000  3
   5748   5751   5761   5762     1  0.0000000  1.2552000  3
   5748   5751   5761   5763     1  0.0000000  1.2552000  3
   5749   5748   5751   5752     1  0.0000000  1.2552000  3
   5749   5748   5751   5761     1  0.0000000  1.2552000  3
   5750   5748   5751   5752     1  0.0000000  1.2552000  3
   5750   5748   5751   5761     1  0.0000000  1.2552000  3
   5751   5752   5755   5756     1  0.0000000  0.6508444  3
   5751   5752   5755   5757     1  0.0000000  0.6508444  3
   5751   5761   5764   5765     1  0.0000000  0.6508444  3
   5751   5761   5764   5766     1  0.0000000  0.6508444  3
   5752   5751   5761   5762     1  0.0000000  1.2552000  3
   5752   5751   5761   5763     1  0.0000000  1.2552000  3
   5753   5752   5751   5761     1  0.0000000  1.2552000  3
   5753   5752   5755   5758     1  0.0000000  0.6508444  3
   5753   5752   5755   5756     1  0.0000000  0.6508444  3
   5753   5752   5755   5757     1  0.0000000  0.6508444  3
   5754   5752   5751   5761     1  0.0000000  1.2552000  3
   5754   5752   5755   5758     1  0.0000000  0.6508444  3
   5754   5752   5755   5756     1  0.0000000  0.6508444  3
   5754   5752   5755   5757     1  0.0000000  0.6508444  3
   5756   5755   5758   5759     1  0.0000000  3.3472000  1
   5756   5755   5758   5759     1  0.0000000  0.0000000  2
   5756   5755   5758   5759     1  180.0000771  0.3347200  3
   5756   5755   5758   5760     1  0.0000000  3.3472000  1
   5756   5755   5758   5760     1  0.0000000  0.0000000  2
   5756   5755   5758   5760     1  180.0000771  0.3347200  3
   5757   5755   5758   5759     1  0.0000000  3.3472000  1
   5757   5755   5758   5759     1  0.0000000  0.0000000  2
   5757   5755   5758   5759     1  180.0000771  0.3347200  3
   5757   5755   5758   5760     1  0.0000000  3.3472000  1
   5757   5755   5758   5760     1  0.0000000  0.0000000  2
   5757   5755   5758   5760     1  180.0000771  0.3347200  3
   5762   5761   5764   5767     1  0.0000000  0.6508444  3
   5762   5761   5764   5765     1  0.0000000  0.6508444  3
   5762   5761   5764   5766     1  0.0000000  0.6508444  3
   5763   5761   5764   5767     1  0.0000000  0.6508444  3
   5763   5761   5764   5765     1  0.0000000  0.6508444  3
   5763   5761   5764   5766     1  0.0000000  0.6508444  3
   5765   5764   5767   5768     1  0.0000000  3.3472000  1
   5765   5764   5767   5768     1  0.0000000  0.0000000  2
   5765   5764   5767   5768     1  180.0000771  0.3347200  3
   5765   5764   5767   5769     1  0.0000000  3.3472000  1
   5765   5764   5767   5769     1  0.0000000  0.0000000  2
   5765   5764   5767   5769     1  180.0000771  0.3347200  3
   5766   5764   5767   5768     1  0.0000000  3.3472000  1
   5766   5764   5767   5768     1  0.0000000  0.0000000  2
   5766   5764   5767   5768     1  180.0000771  0.3347200  3
   5766   5764   5767   5769     1  0.0000000  3.3472000  1
   5766   5764   5767   5769     1  0.0000000  0.0000000  2
   5766   5764   5767   5769     1  180.0000771  0.3347200  3
   5771   5774   5777   5778     1  0.0000000  0.6508444  3
   5771   5774   5777   5779     1  0.0000000  0.6508444  3
   5772   5771   5774   5777     1  0.0000000  0.6508444  3
   5772   5771   5774   5775     1  0.0000000  0.6508444  3
   5772   5771   5774   5776     1  0.0000000  0.6508444  3
   5773   5771   5774   5777     1  0.0000000  0.6508444  3
   5773   5771   5774   5775     1  0.0000000  0.6508444  3
   5773   5771   5774   5776     1  0.0000000  0.6508444  3
   5775   5774   5777   5780     1  0.0000000  0.6508444  3
   5775   5774   5777   5778     1  0.0000000  0.6508444  3
   5775   5774   5777   5779     1  0.0000000  0.6508444  3
   5775   5774   5771   5799     1  0.0000000  1.0460000  1
   5775   5774   5771   5799     1  0.0000000  0.0000000  3
   5776   5774   5777   5780     1  0.0000000  0.6508444  3
   5776   5774   5777   5778     1  0.0000000  0.6508444  3
   5776   5774   5777   5779     1  0.0000000  0.6508444  3
   5776   5774   5771   5799     1  0.0000000  1.0460000  1
   5776   5774   5771   5799     1  0.0000000  0.0000000  3
   5777   5780   5781   5782     1  0.0000000  1.2552000  3
   5777   5780   5781   5783     1  0.0000000  1.2552000  3
   5777   5780   5790   5791     1  0.0000000  1.2552000  3
   5777   5780   5790   5792     1  0.0000000  1.2552000  3
   5778   5777   5780   5781     1  0.0000000  1.2552000  3
   5778   5777   5780   5790     1  0.0000000  1.2552000  3
   5779   5777   5780   5781     1  0.0000000  1.2552000  3
   5779   5777   5780   5790     1  0.0000000  1.2552000  3
   5780   5781   5784   5785     1  0.0000000  0.6508444  3
   5780   5781   5784   5786     1  0.0000000  0.6508444  3
   5780   5790   5793   5794     1  0.0000000  0.6508444  3
   5780   5790   5793   5795     1  0.0000000  0.6508444  3
   5781   5780   5790   5791     1  0.0000000  1.2552000  3
   5781   5780   5790   5792     1  0.0000000  1.2552000  3
   5782   5781   5784   5787     1  0.0000000  0.6508444  3
   5782   5781   5784   5785     1  0.0000000  0.6508444  3
   5782   5781   5784   5786     1  0.0000000  0.6508444  3
   5782   5781   5780   5790     1  0.0000000  1.2552000  3
   5783   5781   5784   5787     1  0.0000000  0.6508444  3
   5783   5781   5784   5785     1  0.0000000  0.6508444  3
   5783   5781   5784   5786     1  0.0000000  0.6508444  3
   5783   5781   5780   5790     1  0.0000000  1.2552000  3
   5785   5784   5787   5788     1  0.0000000  3.3472000  1
   5785   5784   5787   5788     1  0.0000000  0.0000000  2
   5785   5784   5787   5788     1  180.0000771  0.3347200  3
   5785   5784   5787   5789     1  0.0000000  3.3472000  1
   5785   5784   5787   5789     1  0.0000000  0.0000000  2
   5785   5784   5787   5789     1  180.0000771  0.3347200  3
   5786   5784   5787   5788     1  0.0000000  3.3472000  1
   5786   5784   5787   5788     1  0.0000000  0.0000000  2
   5786   5784   5787   5788     1  180.0000771  0.3347200  3
   5786   5784   5787   5789     1  0.0000000  3.3472000  1
   5786   5784   5787   5789     1  0.0000000  0.0000000  2
   5786   5784   5787   5789     1  180.0000771  0.3347200  3
   5791   5790   5793   5796     1  0.0000000  0.6508444  3
   5791   5790   5793   5794     1  0.0000000  0.6508444  3
   5791   5790   5793   5795     1  0.0000000  0.6508444  3
   5792   5790   5793   5796     1  0.0000000  0.6508444  3
   5792   5790   5793   5794     1  0.0000000  0.6508444  3
   5792   5790   5793   5795     1  0.0000000  0.6508444  3
   5794   5793   5796   5797     1  0.0000000  3.3472000  1
   5794   5793   5796   5797     1  0.0000000  0.0000000  2
   5794   5793   5796   5797     1  180.0000771  0.3347200  3
   5794   5793   5796   5798     1  0.0000000  3.3472000  1
   5794   5793   5796   5798     1  0.0000000  0.0000000  2
   5794   5793   5796   5798     1  180.0000771  0.3347200  3
   5795   5793   5796   5797     1  0.0000000  3.3472000  1
   5795   5793   5796   5797     1  0.0000000  0.0000000  2
   5795   5793   5796   5797     1  180.0000771  0.3347200  3
   5795   5793   5796   5798     1  0.0000000  3.3472000  1
   5795   5793   5796   5798     1  0.0000000  0.0000000  2
   5795   5793   5796   5798     1  180.0000771  0.3347200  3
   5800   5803   5806   5807     1  0.0000000  0.6508444  3
   5800   5803   5806   5808     1  0.0000000  0.6508444  3
   5801   5800   5803   5806     1  0.0000000  0.6508444  3
   5801   5800   5803   5804     1  0.0000000  0.6508444  3
   5801   5800   5803   5805     1  0.0000000  0.6508444  3
   5802   5800   5803   5806     1  0.0000000  0.6508444  3
   5802   5800   5803   5804     1  0.0000000  0.6508444  3
   5802   5800   5803   5805     1  0.0000000  0.6508444  3
   5804   5803   5800   5828     1  0.0000000  1.0460000  1
   5804   5803   5800   5828     1  0.0000000  0.0000000  3
   5804   5803   5806   5809     1  0.0000000  0.6508444  3
   5804   5803   5806   5807     1  0.0000000  0.6508444  3
   5804   5803   5806   5808     1  0.0000000  0.6508444  3
   5805   5803   5800   5828     1  0.0000000  1.0460000  1
   5805   5803   5800   5828     1  0.0000000  0.0000000  3
   5805   5803   5806   5809     1  0.0000000  0.6508444  3
   5805   5803   5806   5807     1  0.0000000  0.6508444  3
   5805   5803   5806   5808     1  0.0000000  0.6508444  3
   5806   5809   5810   5811     1  0.0000000  1.2552000  3
   5806   5809   5810   5812     1  0.0000000  1.2552000  3
   5806   5809   5819   5820     1  0.0000000  1.2552000  3
   5806   5809   5819   5821     1  0.0000000  1.2552000  3
   5807   5806   5809   5810     1  0.0000000  1.2552000  3
   5807   5806   5809   5819     1  0.0000000  1.2552000  3
   5808   5806   5809   5810     1  0.0000000  1.2552000  3
   5808   5806   5809   5819     1  0.0000000  1.2552000  3
   5809   5810   5813   5814     1  0.0000000  0.6508444  3
   5809   5810   5813   5815     1  0.0000000  0.6508444  3
   5809   5819   5822   5823     1  0.0000000  0.6508444  3
   5809   5819   5822   5824     1  0.0000000  0.6508444  3
   5810   5809   5819   5820     1  0.0000000  1.2552000  3
   5810   5809   5819   5821     1  0.0000000  1.2552000  3
   5811   5810   5809   5819     1  0.0000000  1.2552000  3
   5811   5810   5813   5816     1  0.0000000  0.6508444  3
   5811   5810   5813   5814     1  0.0000000  0.6508444  3
   5811   5810   5813   5815     1  0.0000000  0.6508444  3
   5812   5810   5809   5819     1  0.0000000  1.2552000  3
   5812   5810   5813   5816     1  0.0000000  0.6508444  3
   5812   5810   5813   5814     1  0.0000000  0.6508444  3
   5812   5810   5813   5815     1  0.0000000  0.6508444  3
   5814   5813   5816   5817     1  0.0000000  3.3472000  1
   5814   5813   5816   5817     1  0.0000000  0.0000000  2
   5814   5813   5816   5817     1  180.0000771  0.3347200  3
   5814   5813   5816   5818     1  0.0000000  3.3472000  1
   5814   5813   5816   5818     1  0.0000000  0.0000000  2
   5814   5813   5816   5818     1  180.0000771  0.3347200  3
   5815   5813   5816   5817     1  0.0000000  3.3472000  1
   5815   5813   5816   5817     1  0.0000000  0.0000000  2
   5815   5813   5816   5817     1  180.0000771  0.3347200  3
   5815   5813   5816   5818     1  0.0000000  3.3472000  1
   5815   5813   5816   5818     1  0.0000000  0.0000000  2
   5815   5813   5816   5818     1  180.0000771  0.3347200  3
   5820   5819   5822   5825     1  0.0000000  0.6508444  3
   5820   5819   5822   5823     1  0.0000000  0.6508444  3
   5820   5819   5822   5824     1  0.0000000  0.6508444  3
   5821   5819   5822   5825     1  0.0000000  0.6508444  3
   5821   5819   5822   5823     1  0.0000000  0.6508444  3
   5821   5819   5822   5824     1  0.0000000  0.6508444  3
   5823   5822   5825   5826     1  0.0000000  3.3472000  1
   5823   5822   5825   5826     1  0.0000000  0.0000000  2
   5823   5822   5825   5826     1  180.0000771  0.3347200  3
   5823   5822   5825   5827     1  0.0000000  3.3472000  1
   5823   5822   5825   5827     1  0.0000000  0.0000000  2
   5823   5822   5825   5827     1  180.0000771  0.3347200  3
   5824   5822   5825   5826     1  0.0000000  3.3472000  1
   5824   5822   5825   5826     1  0.0000000  0.0000000  2
   5824   5822   5825   5826     1  180.0000771  0.3347200  3
   5824   5822   5825   5827     1  0.0000000  3.3472000  1
   5824   5822   5825   5827     1  0.0000000  0.0000000  2
   5824   5822   5825   5827     1  180.0000771  0.3347200  3
   5829   5832   5835   5836     1  0.0000000  0.6508444  3
   5829   5832   5835   5837     1  0.0000000  0.6508444  3
   5830   5829   5832   5835     1  0.0000000  0.6508444  3
   5830   5829   5832   5833     1  0.0000000  0.6508444  3
   5830   5829   5832   5834     1  0.0000000  0.6508444  3
   5831   5829   5832   5835     1  0.0000000  0.6508444  3
   5831   5829   5832   5833     1  0.0000000  0.6508444  3
   5831   5829   5832   5834     1  0.0000000  0.6508444  3
   5833   5832   5835   5838     1  0.0000000  0.6508444  3
   5833   5832   5835   5836     1  0.0000000  0.6508444  3
   5833   5832   5835   5837     1  0.0000000  0.6508444  3
   5833   5832   5829   5857     1  0.0000000  1.0460000  1
   5833   5832   5829   5857     1  0.0000000  0.0000000  3
   5834   5832   5835   5838     1  0.0000000  0.6508444  3
   5834   5832   5835   5836     1  0.0000000  0.6508444  3
   5834   5832   5835   5837     1  0.0000000  0.6508444  3
   5834   5832   5829   5857     1  0.0000000  1.0460000  1
   5834   5832   5829   5857     1  0.0000000  0.0000000  3
   5835   5838   5839   5840     1  0.0000000  1.2552000  3
   5835   5838   5839   5841     1  0.0000000  1.2552000  3
   5835   5838   5848   5849     1  0.0000000  1.2552000  3
   5835   5838   5848   5850     1  0.0000000  1.2552000  3
   5836   5835   5838   5839     1  0.0000000  1.2552000  3
   5836   5835   5838   5848     1  0.0000000  1.2552000  3
   5837   5835   5838   5839     1  0.0000000  1.2552000  3
   5837   5835   5838   5848     1  0.0000000  1.2552000  3
   5838   5839   5842   5843     1  0.0000000  0.6508444  3
   5838   5839   5842   5844     1  0.0000000  0.6508444  3
   5838   5848   5851   5852     1  0.0000000  0.6508444  3
   5838   5848   5851   5853     1  0.0000000  0.6508444  3
   5839   5838   5848   5849     1  0.0000000  1.2552000  3
   5839   5838   5848   5850     1  0.0000000  1.2552000  3
   5840   5839   5842   5845     1  0.0000000  0.6508444  3
   5840   5839   5842   5843     1  0.0000000  0.6508444  3
   5840   5839   5842   5844     1  0.0000000  0.6508444  3
   5840   5839   5838   5848     1  0.0000000  1.2552000  3
   5841   5839   5842   5845     1  0.0000000  0.6508444  3
   5841   5839   5842   5843     1  0.0000000  0.6508444  3
   5841   5839   5842   5844     1  0.0000000  0.6508444  3
   5841   5839   5838   5848     1  0.0000000  1.2552000  3
   5843   5842   5845   5846     1  0.0000000  3.3472000  1
   5843   5842   5845   5846     1  0.0000000  0.0000000  2
   5843   5842   5845   5846     1  180.0000771  0.3347200  3
   5843   5842   5845   5847     1  0.0000000  3.3472000  1
   5843   5842   5845   5847     1  0.0000000  0.0000000  2
   5843   5842   5845   5847     1  180.0000771  0.3347200  3
   5844   5842   5845   5846     1  0.0000000  3.3472000  1
   5844   5842   5845   5846     1  0.0000000  0.0000000  2
   5844   5842   5845   5846     1  180.0000771  0.3347200  3
   5844   5842   5845   5847     1  0.0000000  3.3472000  1
   5844   5842   5845   5847     1  0.0000000  0.0000000  2
   5844   5842   5845   5847     1  180.0000771  0.3347200  3
   5849   5848   5851   5854     1  0.0000000  0.6508444  3
   5849   5848   5851   5852     1  0.0000000  0.6508444  3
   5849   5848   5851   5853     1  0.0000000  0.6508444  3
   5850   5848   5851   5854     1  0.0000000  0.6508444  3
   5850   5848   5851   5852     1  0.0000000  0.6508444  3
   5850   5848   5851   5853     1  0.0000000  0.6508444  3
   5852   5851   5854   5855     1  0.0000000  3.3472000  1
   5852   5851   5854   5855     1  0.0000000  0.0000000  2
   5852   5851   5854   5855     1  180.0000771  0.3347200  3
   5852   5851   5854   5856     1  0.0000000  3.3472000  1
   5852   5851   5854   5856     1  0.0000000  0.0000000  2
   5852   5851   5854   5856     1  180.0000771  0.3347200  3
   5853   5851   5854   5855     1  0.0000000  3.3472000  1
   5853   5851   5854   5855     1  0.0000000  0.0000000  2
   5853   5851   5854   5855     1  180.0000771  0.3347200  3
   5853   5851   5854   5856     1  0.0000000  3.3472000  1
   5853   5851   5854   5856     1  0.0000000  0.0000000  2
   5853   5851   5854   5856     1  180.0000771  0.3347200  3
   5858   5861   5864   5865     1  0.0000000  0.6508444  3
   5858   5861   5864   5866     1  0.0000000  0.6508444  3
   5859   5858   5861   5864     1  0.0000000  0.6508444  3
   5859   5858   5861   5862     1  0.0000000  0.6508444  3
   5859   5858   5861   5863     1  0.0000000  0.6508444  3
   5860   5858   5861   5864     1  0.0000000  0.6508444  3
   5860   5858   5861   5862     1  0.0000000  0.6508444  3
   5860   5858   5861   5863     1  0.0000000  0.6508444  3
   5862   5861   5858   5886     1  0.0000000  1.0460000  1
   5862   5861   5858   5886     1  0.0000000  0.0000000  3
   5862   5861   5864   5867     1  0.0000000  0.6508444  3
   5862   5861   5864   5865     1  0.0000000  0.6508444  3
   5862   5861   5864   5866     1  0.0000000  0.6508444  3
   5863   5861   5858   5886     1  0.0000000  1.0460000  1
   5863   5861   5858   5886     1  0.0000000  0.0000000  3
   5863   5861   5864   5867     1  0.0000000  0.6508444  3
   5863   5861   5864   5865     1  0.0000000  0.6508444  3
   5863   5861   5864   5866     1  0.0000000  0.6508444  3
   5864   5867   5868   5869     1  0.0000000  1.2552000  3
   5864   5867   5868   5870     1  0.0000000  1.2552000  3
   5864   5867   5877   5878     1  0.0000000  1.2552000  3
   5864   5867   5877   5879     1  0.0000000  1.2552000  3
   5865   5864   5867   5868     1  0.0000000  1.2552000  3
   5865   5864   5867   5877     1  0.0000000  1.2552000  3
   5866   5864   5867   5868     1  0.0000000  1.2552000  3
   5866   5864   5867   5877     1  0.0000000  1.2552000  3
   5867   5868   5871   5872     1  0.0000000  0.6508444  3
   5867   5868   5871   5873     1  0.0000000  0.6508444  3
   5867   5877   5880   5881     1  0.0000000  0.6508444  3
   5867   5877   5880   5882     1  0.0000000  0.6508444  3
   5868   5867   5877   5878     1  0.0000000  1.2552000  3
   5868   5867   5877   5879     1  0.0000000  1.2552000  3
   5869   5868   5867   5877     1  0.0000000  1.2552000  3
   5869   5868   5871   5874     1  0.0000000  0.6508444  3
   5869   5868   5871   5872     1  0.0000000  0.6508444  3
   5869   5868   5871   5873     1  0.0000000  0.6508444  3
   5870   5868   5867   5877     1  0.0000000  1.2552000  3
   5870   5868   5871   5874     1  0.0000000  0.6508444  3
   5870   5868   5871   5872     1  0.0000000  0.6508444  3
   5870   5868   5871   5873     1  0.0000000  0.6508444  3
   5872   5871   5874   5875     1  0.0000000  3.3472000  1
   5872   5871   5874   5875     1  0.0000000  0.0000000  2
   5872   5871   5874   5875     1  180.0000771  0.3347200  3
   5872   5871   5874   5876     1  0.0000000  3.3472000  1
   5872   5871   5874   5876     1  0.0000000  0.0000000  2
   5872   5871   5874   5876     1  180.0000771  0.3347200  3
   5873   5871   5874   5875     1  0.0000000  3.3472000  1
   5873   5871   5874   5875     1  0.0000000  0.0000000  2
   5873   5871   5874   5875     1  180.0000771  0.3347200  3
   5873   5871   5874   5876     1  0.0000000  3.3472000  1
   5873   5871   5874   5876     1  0.0000000  0.0000000  2
   5873   5871   5874   5876     1  180.0000771  0.3347200  3
   5878   5877   5880   5883     1  0.0000000  0.6508444  3
   5878   5877   5880   5881     1  0.0000000  0.6508444  3
   5878   5877   5880   5882     1  0.0000000  0.6508444  3
   5879   5877   5880   5883     1  0.0000000  0.6508444  3
   5879   5877   5880   5881     1  0.0000000  0.6508444  3
   5879   5877   5880   5882     1  0.0000000  0.6508444  3
   5881   5880   5883   5884     1  0.0000000  3.3472000  1
   5881   5880   5883   5884     1  0.0000000  0.0000000  2
   5881   5880   5883   5884     1  180.0000771  0.3347200  3
   5881   5880   5883   5885     1  0.0000000  3.3472000  1
   5881   5880   5883   5885     1  0.0000000  0.0000000  2
   5881   5880   5883   5885     1  180.0000771  0.3347200  3
   5882   5880   5883   5884     1  0.0000000  3.3472000  1
   5882   5880   5883   5884     1  0.0000000  0.0000000  2
   5882   5880   5883   5884     1  180.0000771  0.3347200  3
   5882   5880   5883   5885     1  0.0000000  3.3472000  1
   5882   5880   5883   5885     1  0.0000000  0.0000000  2
   5882   5880   5883   5885     1  180.0000771  0.3347200  3
   5887   5890   5893   5894     1  0.0000000  0.6508444  3
   5887   5890   5893   5895     1  0.0000000  0.6508444  3
   5888   5887   5890   5893     1  0.0000000  0.6508444  3
   5888   5887   5890   5891     1  0.0000000  0.6508444  3
   5888   5887   5890   5892     1  0.0000000  0.6508444  3
   5889   5887   5890   5893     1  0.0000000  0.6508444  3
   5889   5887   5890   5891     1  0.0000000  0.6508444  3
   5889   5887   5890   5892     1  0.0000000  0.6508444  3
   5891   5890   5893   5896     1  0.0000000  0.6508444  3
   5891   5890   5893   5894     1  0.0000000  0.6508444  3
   5891   5890   5893   5895     1  0.0000000  0.6508444  3
   5891   5890   5887   5915     1  0.0000000  1.0460000  1
   5891   5890   5887   5915     1  0.0000000  0.0000000  3
   5892   5890   5893   5896     1  0.0000000  0.6508444  3
   5892   5890   5893   5894     1  0.0000000  0.6508444  3
   5892   5890   5893   5895     1  0.0000000  0.6508444  3
   5892   5890   5887   5915     1  0.0000000  1.0460000  1
   5892   5890   5887   5915     1  0.0000000  0.0000000  3
   5893   5896   5897   5898     1  0.0000000  1.2552000  3
   5893   5896   5897   5899     1  0.0000000  1.2552000  3
   5893   5896   5906   5907     1  0.0000000  1.2552000  3
   5893   5896   5906   5908     1  0.0000000  1.2552000  3
   5894   5893   5896   5897     1  0.0000000  1.2552000  3
   5894   5893   5896   5906     1  0.0000000  1.2552000  3
   5895   5893   5896   5897     1  0.0000000  1.2552000  3
   5895   5893   5896   5906     1  0.0000000  1.2552000  3
   5896   5897   5900   5901     1  0.0000000  0.6508444  3
   5896   5897   5900   5902     1  0.0000000  0.6508444  3
   5896   5906   5909   5910     1  0.0000000  0.6508444  3
   5896   5906   5909   5911     1  0.0000000  0.6508444  3
   5897   5896   5906   5907     1  0.0000000  1.2552000  3
   5897   5896   5906   5908     1  0.0000000  1.2552000  3
   5898   5897   5900   5903     1  0.0000000  0.6508444  3
   5898   5897   5900   5901     1  0.0000000  0.6508444  3
   5898   5897   5900   5902     1  0.0000000  0.6508444  3
   5898   5897   5896   5906     1  0.0000000  1.2552000  3
   5899   5897   5900   5903     1  0.0000000  0.6508444  3
   5899   5897   5900   5901     1  0.0000000  0.6508444  3
   5899   5897   5900   5902     1  0.0000000  0.6508444  3
   5899   5897   5896   5906     1  0.0000000  1.2552000  3
   5901   5900   5903   5904     1  0.0000000  3.3472000  1
   5901   5900   5903   5904     1  0.0000000  0.0000000  2
   5901   5900   5903   5904     1  180.0000771  0.3347200  3
   5901   5900   5903   5905     1  0.0000000  3.3472000  1
   5901   5900   5903   5905     1  0.0000000  0.0000000  2
   5901   5900   5903   5905     1  180.0000771  0.3347200  3
   5902   5900   5903   5904     1  0.0000000  3.3472000  1
   5902   5900   5903   5904     1  0.0000000  0.0000000  2
   5902   5900   5903   5904     1  180.0000771  0.3347200  3
   5902   5900   5903   5905     1  0.0000000  3.3472000  1
   5902   5900   5903   5905     1  0.0000000  0.0000000  2
   5902   5900   5903   5905     1  180.0000771  0.3347200  3
   5907   5906   5909   5912     1  0.0000000  0.6508444  3
   5907   5906   5909   5910     1  0.0000000  0.6508444  3
   5907   5906   5909   5911     1  0.0000000  0.6508444  3
   5908   5906   5909   5912     1  0.0000000  0.6508444  3
   5908   5906   5909   5910     1  0.0000000  0.6508444  3
   5908   5906   5909   5911     1  0.0000000  0.6508444  3
   5910   5909   5912   5913     1  0.0000000  3.3472000  1
   5910   5909   5912   5913     1  0.0000000  0.0000000  2
   5910   5909   5912   5913     1  180.0000771  0.3347200  3
   5910   5909   5912   5914     1  0.0000000  3.3472000  1
   5910   5909   5912   5914     1  0.0000000  0.0000000  2
   5910   5909   5912   5914     1  180.0000771  0.3347200  3
   5911   5909   5912   5913     1  0.0000000  3.3472000  1
   5911   5909   5912   5913     1  0.0000000  0.0000000  2
   5911   5909   5912   5913     1  180.0000771  0.3347200  3
   5911   5909   5912   5914     1  0.0000000  3.3472000  1
   5911   5909   5912   5914     1  0.0000000  0.0000000  2
   5911   5909   5912   5914     1  180.0000771  0.3347200  3
   5916   5919   5922   5923     1  0.0000000  0.6508444  3
   5916   5919   5922   5924     1  0.0000000  0.6508444  3
   5917   5916   5919   5922     1  0.0000000  0.6508444  3
   5917   5916   5919   5920     1  0.0000000  0.6508444  3
   5917   5916   5919   5921     1  0.0000000  0.6508444  3
   5918   5916   5919   5922     1  0.0000000  0.6508444  3
   5918   5916   5919   5920     1  0.0000000  0.6508444  3
   5918   5916   5919   5921     1  0.0000000  0.6508444  3
   5920   5919   5916   5944     1  0.0000000  1.0460000  1
   5920   5919   5916   5944     1  0.0000000  0.0000000  3
   5920   5919   5922   5925     1  0.0000000  0.6508444  3
   5920   5919   5922   5923     1  0.0000000  0.6508444  3
   5920   5919   5922   5924     1  0.0000000  0.6508444  3
   5921   5919   5916   5944     1  0.0000000  1.0460000  1
   5921   5919   5916   5944     1  0.0000000  0.0000000  3
   5921   5919   5922   5925     1  0.0000000  0.6508444  3
   5921   5919   5922   5923     1  0.0000000  0.6508444  3
   5921   5919   5922   5924     1  0.0000000  0.6508444  3
   5922   5925   5926   5927     1  0.0000000  1.2552000  3
   5922   5925   5926   5928     1  0.0000000  1.2552000  3
   5922   5925   5935   5936     1  0.0000000  1.2552000  3
   5922   5925   5935   5937     1  0.0000000  1.2552000  3
   5923   5922   5925   5926     1  0.0000000  1.2552000  3
   5923   5922   5925   5935     1  0.0000000  1.2552000  3
   5924   5922   5925   5926     1  0.0000000  1.2552000  3
   5924   5922   5925   5935     1  0.0000000  1.2552000  3
   5925   5926   5929   5930     1  0.0000000  0.6508444  3
   5925   5926   5929   5931     1  0.0000000  0.6508444  3
   5925   5935   5938   5939     1  0.0000000  0.6508444  3
   5925   5935   5938   5940     1  0.0000000  0.6508444  3
   5926   5925   5935   5936     1  0.0000000  1.2552000  3
   5926   5925   5935   5937     1  0.0000000  1.2552000  3
   5927   5926   5925   5935     1  0.0000000  1.2552000  3
   5927   5926   5929   5932     1  0.0000000  0.6508444  3
   5927   5926   5929   5930     1  0.0000000  0.6508444  3
   5927   5926   5929   5931     1  0.0000000  0.6508444  3
   5928   5926   5925   5935     1  0.0000000  1.2552000  3
   5928   5926   5929   5932     1  0.0000000  0.6508444  3
   5928   5926   5929   5930     1  0.0000000  0.6508444  3
   5928   5926   5929   5931     1  0.0000000  0.6508444  3
   5930   5929   5932   5933     1  0.0000000  3.3472000  1
   5930   5929   5932   5933     1  0.0000000  0.0000000  2
   5930   5929   5932   5933     1  180.0000771  0.3347200  3
   5930   5929   5932   5934     1  0.0000000  3.3472000  1
   5930   5929   5932   5934     1  0.0000000  0.0000000  2
   5930   5929   5932   5934     1  180.0000771  0.3347200  3
   5931   5929   5932   5933     1  0.0000000  3.3472000  1
   5931   5929   5932   5933     1  0.0000000  0.0000000  2
   5931   5929   5932   5933     1  180.0000771  0.3347200  3
   5931   5929   5932   5934     1  0.0000000  3.3472000  1
   5931   5929   5932   5934     1  0.0000000  0.0000000  2
   5931   5929   5932   5934     1  180.0000771  0.3347200  3
   5936   5935   5938   5941     1  0.0000000  0.6508444  3
   5936   5935   5938   5939     1  0.0000000  0.6508444  3
   5936   5935   5938   5940     1  0.0000000  0.6508444  3
   5937   5935   5938   5941     1  0.0000000  0.6508444  3
   5937   5935   5938   5939     1  0.0000000  0.6508444  3
   5937   5935   5938   5940     1  0.0000000  0.6508444  3
   5939   5938   5941   5942     1  0.0000000  3.3472000  1
   5939   5938   5941   5942     1  0.0000000  0.0000000  2
   5939   5938   5941   5942     1  180.0000771  0.3347200  3
   5939   5938   5941   5943     1  0.0000000  3.3472000  1
   5939   5938   5941   5943     1  0.0000000  0.0000000  2
   5939   5938   5941   5943     1  180.0000771  0.3347200  3
   5940   5938   5941   5942     1  0.0000000  3.3472000  1
   5940   5938   5941   5942     1  0.0000000  0.0000000  2
   5940   5938   5941   5942     1  180.0000771  0.3347200  3
   5940   5938   5941   5943     1  0.0000000  3.3472000  1
   5940   5938   5941   5943     1  0.0000000  0.0000000  2
   5940   5938   5941   5943     1  180.0000771  0.3347200  3
   5945   5948   5951   5952     1  0.0000000  0.6508444  3
   5945   5948   5951   5953     1  0.0000000  0.6508444  3
   5946   5945   5948   5951     1  0.0000000  0.6508444  3
   5946   5945   5948   5949     1  0.0000000  0.6508444  3
   5946   5945   5948   5950     1  0.0000000  0.6508444  3
   5947   5945   5948   5951     1  0.0000000  0.6508444  3
   5947   5945   5948   5949     1  0.0000000  0.6508444  3
   5947   5945   5948   5950     1  0.0000000  0.6508444  3
   5949   5948   5951   5954     1  0.0000000  0.6508444  3
   5949   5948   5951   5952     1  0.0000000  0.6508444  3
   5949   5948   5951   5953     1  0.0000000  0.6508444  3
   5949   5948   5945   5973     1  0.0000000  1.0460000  1
   5949   5948   5945   5973     1  0.0000000  0.0000000  3
   5950   5948   5951   5954     1  0.0000000  0.6508444  3
   5950   5948   5951   5952     1  0.0000000  0.6508444  3
   5950   5948   5951   5953     1  0.0000000  0.6508444  3
   5950   5948   5945   5973     1  0.0000000  1.0460000  1
   5950   5948   5945   5973     1  0.0000000  0.0000000  3
   5951   5954   5955   5956     1  0.0000000  1.2552000  3
   5951   5954   5955   5957     1  0.0000000  1.2552000  3
   5951   5954   5964   5965     1  0.0000000  1.2552000  3
   5951   5954   5964   5966     1  0.0000000  1.2552000  3
   5952   5951   5954   5955     1  0.0000000  1.2552000  3
   5952   5951   5954   5964     1  0.0000000  1.2552000  3
   5953   5951   5954   5955     1  0.0000000  1.2552000  3
   5953   5951   5954   5964     1  0.0000000  1.2552000  3
   5954   5955   5958   5959     1  0.0000000  0.6508444  3
   5954   5955   5958   5960     1  0.0000000  0.6508444  3
   5954   5964   5967   5968     1  0.0000000  0.6508444  3
   5954   5964   5967   5969     1  0.0000000  0.6508444  3
   5955   5954   5964   5965     1  0.0000000  1.2552000  3
   5955   5954   5964   5966     1  0.0000000  1.2552000  3
   5956   5955   5958   5961     1  0.0000000  0.6508444  3
   5956   5955   5958   5959     1  0.0000000  0.6508444  3
   5956   5955   5958   5960     1  0.0000000  0.6508444  3
   5956   5955   5954   5964     1  0.0000000  1.2552000  3
   5957   5955   5958   5961     1  0.0000000  0.6508444  3
   5957   5955   5958   5959     1  0.0000000  0.6508444  3
   5957   5955   5958   5960     1  0.0000000  0.6508444  3
   5957   5955   5954   5964     1  0.0000000  1.2552000  3
   5959   5958   5961   5962     1  0.0000000  3.3472000  1
   5959   5958   5961   5962     1  0.0000000  0.0000000  2
   5959   5958   5961   5962     1  180.0000771  0.3347200  3
   5959   5958   5961   5963     1  0.0000000  3.3472000  1
   5959   5958   5961   5963     1  0.0000000  0.0000000  2
   5959   5958   5961   5963     1  180.0000771  0.3347200  3
   5960   5958   5961   5962     1  0.0000000  3.3472000  1
   5960   5958   5961   5962     1  0.0000000  0.0000000  2
   5960   5958   5961   5962     1  180.0000771  0.3347200  3
   5960   5958   5961   5963     1  0.0000000  3.3472000  1
   5960   5958   5961   5963     1  0.0000000  0.0000000  2
   5960   5958   5961   5963     1  180.0000771  0.3347200  3
   5965   5964   5967   5970     1  0.0000000  0.6508444  3
   5965   5964   5967   5968     1  0.0000000  0.6508444  3
   5965   5964   5967   5969     1  0.0000000  0.6508444  3
   5966   5964   5967   5970     1  0.0000000  0.6508444  3
   5966   5964   5967   5968     1  0.0000000  0.6508444  3
   5966   5964   5967   5969     1  0.0000000  0.6508444  3
   5968   5967   5970   5971     1  0.0000000  3.3472000  1
   5968   5967   5970   5971     1  0.0000000  0.0000000  2
   5968   5967   5970   5971     1  180.0000771  0.3347200  3
   5968   5967   5970   5972     1  0.0000000  3.3472000  1
   5968   5967   5970   5972     1  0.0000000  0.0000000  2
   5968   5967   5970   5972     1  180.0000771  0.3347200  3
   5969   5967   5970   5971     1  0.0000000  3.3472000  1
   5969   5967   5970   5971     1  0.0000000  0.0000000  2
   5969   5967   5970   5971     1  180.0000771  0.3347200  3
   5969   5967   5970   5972     1  0.0000000  3.3472000  1
   5969   5967   5970   5972     1  0.0000000  0.0000000  2
   5969   5967   5970   5972     1  180.0000771  0.3347200  3
   5974   5977   5980   5981     1  0.0000000  0.6508444  3
   5974   5977   5980   5982     1  0.0000000  0.6508444  3
   5975   5974   5977   5980     1  0.0000000  0.6508444  3
   5975   5974   5977   5978     1  0.0000000  0.6508444  3
   5975   5974   5977   5979     1  0.0000000  0.6508444  3
   5976   5974   5977   5980     1  0.0000000  0.6508444  3
   5976   5974   5977   5978     1  0.0000000  0.6508444  3
   5976   5974   5977   5979     1  0.0000000  0.6508444  3
   5978   5977   5974   6002     1  0.0000000  1.0460000  1
   5978   5977   5974   6002     1  0.0000000  0.0000000  3
   5978   5977   5980   5983     1  0.0000000  0.6508444  3
   5978   5977   5980   5981     1  0.0000000  0.6508444  3
   5978   5977   5980   5982     1  0.0000000  0.6508444  3
   5979   5977   5974   6002     1  0.0000000  1.0460000  1
   5979   5977   5974   6002     1  0.0000000  0.0000000  3
   5979   5977   5980   5983     1  0.0000000  0.6508444  3
   5979   5977   5980   5981     1  0.0000000  0.6508444  3
   5979   5977   5980   5982     1  0.0000000  0.6508444  3
   5980   5983   5984   5985     1  0.0000000  1.2552000  3
   5980   5983   5984   5986     1  0.0000000  1.2552000  3
   5980   5983   5993   5994     1  0.0000000  1.2552000  3
   5980   5983   5993   5995     1  0.0000000  1.2552000  3
   5981   5980   5983   5984     1  0.0000000  1.2552000  3
   5981   5980   5983   5993     1  0.0000000  1.2552000  3
   5982   5980   5983   5984     1  0.0000000  1.2552000  3
   5982   5980   5983   5993     1  0.0000000  1.2552000  3
   5983   5984   5987   5988     1  0.0000000  0.6508444  3
   5983   5984   5987   5989     1  0.0000000  0.6508444  3
   5983   5993   5996   5997     1  0.0000000  0.6508444  3
   5983   5993   5996   5998     1  0.0000000  0.6508444  3
   5984   5983   5993   5994     1  0.0000000  1.2552000  3
   5984   5983   5993   5995     1  0.0000000  1.2552000  3
   5985   5984   5983   5993     1  0.0000000  1.2552000  3
   5985   5984   5987   5990     1  0.0000000  0.6508444  3
   5985   5984   5987   5988     1  0.0000000  0.6508444  3
   5985   5984   5987   5989     1  0.0000000  0.6508444  3
   5986   5984   5983   5993     1  0.0000000  1.2552000  3
   5986   5984   5987   5990     1  0.0000000  0.6508444  3
   5986   5984   5987   5988     1  0.0000000  0.6508444  3
   5986   5984   5987   5989     1  0.0000000  0.6508444  3
   5988   5987   5990   5991     1  0.0000000  3.3472000  1
   5988   5987   5990   5991     1  0.0000000  0.0000000  2
   5988   5987   5990   5991     1  180.0000771  0.3347200  3
   5988   5987   5990   5992     1  0.0000000  3.3472000  1
   5988   5987   5990   5992     1  0.0000000  0.0000000  2
   5988   5987   5990   5992     1  180.0000771  0.3347200  3
   5989   5987   5990   5991     1  0.0000000  3.3472000  1
   5989   5987   5990   5991     1  0.0000000  0.0000000  2
   5989   5987   5990   5991     1  180.0000771  0.3347200  3
   5989   5987   5990   5992     1  0.0000000  3.3472000  1
   5989   5987   5990   5992     1  0.0000000  0.0000000  2
   5989   5987   5990   5992     1  180.0000771  0.3347200  3
   5994   5993   5996   5999     1  0.0000000  0.6508444  3
   5994   5993   5996   5997     1  0.0000000  0.6508444  3
   5994   5993   5996   5998     1  0.0000000  0.6508444  3
   5995   5993   5996   5999     1  0.0000000  0.6508444  3
   5995   5993   5996   5997     1  0.0000000  0.6508444  3
   5995   5993   5996   5998     1  0.0000000  0.6508444  3
   5997   5996   5999   6000     1  0.0000000  3.3472000  1
   5997   5996   5999   6000     1  0.0000000  0.0000000  2
   5997   5996   5999   6000     1  180.0000771  0.3347200  3
   5997   5996   5999   6001     1  0.0000000  3.3472000  1
   5997   5996   5999   6001     1  0.0000000  0.0000000  2
   5997   5996   5999   6001     1  180.0000771  0.3347200  3
   5998   5996   5999   6000     1  0.0000000  3.3472000  1
   5998   5996   5999   6000     1  0.0000000  0.0000000  2
   5998   5996   5999   6000     1  180.0000771  0.3347200  3
   5998   5996   5999   6001     1  0.0000000  3.3472000  1
   5998   5996   5999   6001     1  0.0000000  0.0000000  2
   5998   5996   5999   6001     1  180.0000771  0.3347200  3
   6003   6006   6009   6010     1  0.0000000  0.6508444  3
   6003   6006   6009   6011     1  0.0000000  0.6508444  3
   6004   6003   6006   6009     1  0.0000000  0.6508444  3
   6004   6003   6006   6007     1  0.0000000  0.6508444  3
   6004   6003   6006   6008     1  0.0000000  0.6508444  3
   6005   6003   6006   6009     1  0.0000000  0.6508444  3
   6005   6003   6006   6007     1  0.0000000  0.6508444  3
   6005   6003   6006   6008     1  0.0000000  0.6508444  3
   6007   6006   6009   6012     1  0.0000000  0.6508444  3
   6007   6006   6009   6010     1  0.0000000  0.6508444  3
   6007   6006   6009   6011     1  0.0000000  0.6508444  3
   6007   6006   6003   6031     1  0.0000000  1.0460000  1
   6007   6006   6003   6031     1  0.0000000  0.0000000  3
   6008   6006   6009   6012     1  0.0000000  0.6508444  3
   6008   6006   6009   6010     1  0.0000000  0.6508444  3
   6008   6006   6009   6011     1  0.0000000  0.6508444  3
   6008   6006   6003   6031     1  0.0000000  1.0460000  1
   6008   6006   6003   6031     1  0.0000000  0.0000000  3
   6009   6012   6013   6014     1  0.0000000  1.2552000  3
   6009   6012   6013   6015     1  0.0000000  1.2552000  3
   6009   6012   6022   6023     1  0.0000000  1.2552000  3
   6009   6012   6022   6024     1  0.0000000  1.2552000  3
   6010   6009   6012   6013     1  0.0000000  1.2552000  3
   6010   6009   6012   6022     1  0.0000000  1.2552000  3
   6011   6009   6012   6013     1  0.0000000  1.2552000  3
   6011   6009   6012   6022     1  0.0000000  1.2552000  3
   6012   6013   6016   6017     1  0.0000000  0.6508444  3
   6012   6013   6016   6018     1  0.0000000  0.6508444  3
   6012   6022   6025   6026     1  0.0000000  0.6508444  3
   6012   6022   6025   6027     1  0.0000000  0.6508444  3
   6013   6012   6022   6023     1  0.0000000  1.2552000  3
   6013   6012   6022   6024     1  0.0000000  1.2552000  3
   6014   6013   6016   6019     1  0.0000000  0.6508444  3
   6014   6013   6016   6017     1  0.0000000  0.6508444  3
   6014   6013   6016   6018     1  0.0000000  0.6508444  3
   6014   6013   6012   6022     1  0.0000000  1.2552000  3
   6015   6013   6016   6019     1  0.0000000  0.6508444  3
   6015   6013   6016   6017     1  0.0000000  0.6508444  3
   6015   6013   6016   6018     1  0.0000000  0.6508444  3
   6015   6013   6012   6022     1  0.0000000  1.2552000  3
   6017   6016   6019   6020     1  0.0000000  3.3472000  1
   6017   6016   6019   6020     1  0.0000000  0.0000000  2
   6017   6016   6019   6020     1  180.0000771  0.3347200  3
   6017   6016   6019   6021     1  0.0000000  3.3472000  1
   6017   6016   6019   6021     1  0.0000000  0.0000000  2
   6017   6016   6019   6021     1  180.0000771  0.3347200  3
   6018   6016   6019   6020     1  0.0000000  3.3472000  1
   6018   6016   6019   6020     1  0.0000000  0.0000000  2
   6018   6016   6019   6020     1  180.0000771  0.3347200  3
   6018   6016   6019   6021     1  0.0000000  3.3472000  1
   6018   6016   6019   6021     1  0.0000000  0.0000000  2
   6018   6016   6019   6021     1  180.0000771  0.3347200  3
   6023   6022   6025   6028     1  0.0000000  0.6508444  3
   6023   6022   6025   6026     1  0.0000000  0.6508444  3
   6023   6022   6025   6027     1  0.0000000  0.6508444  3
   6024   6022   6025   6028     1  0.0000000  0.6508444  3
   6024   6022   6025   6026     1  0.0000000  0.6508444  3
   6024   6022   6025   6027     1  0.0000000  0.6508444  3
   6026   6025   6028   6029     1  0.0000000  3.3472000  1
   6026   6025   6028   6029     1  0.0000000  0.0000000  2
   6026   6025   6028   6029     1  180.0000771  0.3347200  3
   6026   6025   6028   6030     1  0.0000000  3.3472000  1
   6026   6025   6028   6030     1  0.0000000  0.0000000  2
   6026   6025   6028   6030     1  180.0000771  0.3347200  3
   6027   6025   6028   6029     1  0.0000000  3.3472000  1
   6027   6025   6028   6029     1  0.0000000  0.0000000  2
   6027   6025   6028   6029     1  180.0000771  0.3347200  3
   6027   6025   6028   6030     1  0.0000000  3.3472000  1
   6027   6025   6028   6030     1  0.0000000  0.0000000  2
   6027   6025   6028   6030     1  180.0000771  0.3347200  3
   6032   6035   6038   6039     1  0.0000000  0.6508444  3
   6032   6035   6038   6040     1  0.0000000  0.6508444  3
   6033   6032   6035   6038     1  0.0000000  0.6508444  3
   6033   6032   6035   6036     1  0.0000000  0.6508444  3
   6033   6032   6035   6037     1  0.0000000  0.6508444  3
   6034   6032   6035   6038     1  0.0000000  0.6508444  3
   6034   6032   6035   6036     1  0.0000000  0.6508444  3
   6034   6032   6035   6037     1  0.0000000  0.6508444  3
   6036   6035   6032   6060     1  0.0000000  1.0460000  1
   6036   6035   6032   6060     1  0.0000000  0.0000000  3
   6036   6035   6038   6041     1  0.0000000  0.6508444  3
   6036   6035   6038   6039     1  0.0000000  0.6508444  3
   6036   6035   6038   6040     1  0.0000000  0.6508444  3
   6037   6035   6032   6060     1  0.0000000  1.0460000  1
   6037   6035   6032   6060     1  0.0000000  0.0000000  3
   6037   6035   6038   6041     1  0.0000000  0.6508444  3
   6037   6035   6038   6039     1  0.0000000  0.6508444  3
   6037   6035   6038   6040     1  0.0000000  0.6508444  3
   6038   6041   6042   6043     1  0.0000000  1.2552000  3
   6038   6041   6042   6044     1  0.0000000  1.2552000  3
   6038   6041   6051   6052     1  0.0000000  1.2552000  3
   6038   6041   6051   6053     1  0.0000000  1.2552000  3
   6039   6038   6041   6042     1  0.0000000  1.2552000  3
   6039   6038   6041   6051     1  0.0000000  1.2552000  3
   6040   6038   6041   6042     1  0.0000000  1.2552000  3
   6040   6038   6041   6051     1  0.0000000  1.2552000  3
   6041   6042   6045   6046     1  0.0000000  0.6508444  3
   6041   6042   6045   6047     1  0.0000000  0.6508444  3
   6041   6051   6054   6055     1  0.0000000  0.6508444  3
   6041   6051   6054   6056     1  0.0000000  0.6508444  3
   6042   6041   6051   6052     1  0.0000000  1.2552000  3
   6042   6041   6051   6053     1  0.0000000  1.2552000  3
   6043   6042   6041   6051     1  0.0000000  1.2552000  3
   6043   6042   6045   6048     1  0.0000000  0.6508444  3
   6043   6042   6045   6046     1  0.0000000  0.6508444  3
   6043   6042   6045   6047     1  0.0000000  0.6508444  3
   6044   6042   6041   6051     1  0.0000000  1.2552000  3
   6044   6042   6045   6048     1  0.0000000  0.6508444  3
   6044   6042   6045   6046     1  0.0000000  0.6508444  3
   6044   6042   6045   6047     1  0.0000000  0.6508444  3
   6046   6045   6048   6049     1  0.0000000  3.3472000  1
   6046   6045   6048   6049     1  0.0000000  0.0000000  2
   6046   6045   6048   6049     1  180.0000771  0.3347200  3
   6046   6045   6048   6050     1  0.0000000  3.3472000  1
   6046   6045   6048   6050     1  0.0000000  0.0000000  2
   6046   6045   6048   6050     1  180.0000771  0.3347200  3
   6047   6045   6048   6049     1  0.0000000  3.3472000  1
   6047   6045   6048   6049     1  0.0000000  0.0000000  2
   6047   6045   6048   6049     1  180.0000771  0.3347200  3
   6047   6045   6048   6050     1  0.0000000  3.3472000  1
   6047   6045   6048   6050     1  0.0000000  0.0000000  2
   6047   6045   6048   6050     1  180.0000771  0.3347200  3
   6052   6051   6054   6057     1  0.0000000  0.6508444  3
   6052   6051   6054   6055     1  0.0000000  0.6508444  3
   6052   6051   6054   6056     1  0.0000000  0.6508444  3
   6053   6051   6054   6057     1  0.0000000  0.6508444  3
   6053   6051   6054   6055     1  0.0000000  0.6508444  3
   6053   6051   6054   6056     1  0.0000000  0.6508444  3
   6055   6054   6057   6058     1  0.0000000  3.3472000  1
   6055   6054   6057   6058     1  0.0000000  0.0000000  2
   6055   6054   6057   6058     1  180.0000771  0.3347200  3
   6055   6054   6057   6059     1  0.0000000  3.3472000  1
   6055   6054   6057   6059     1  0.0000000  0.0000000  2
   6055   6054   6057   6059     1  180.0000771  0.3347200  3
   6056   6054   6057   6058     1  0.0000000  3.3472000  1
   6056   6054   6057   6058     1  0.0000000  0.0000000  2
   6056   6054   6057   6058     1  180.0000771  0.3347200  3
   6056   6054   6057   6059     1  0.0000000  3.3472000  1
   6056   6054   6057   6059     1  0.0000000  0.0000000  2
   6056   6054   6057   6059     1  180.0000771  0.3347200  3
   6061   6064   6067   6068     1  0.0000000  0.6508444  3
   6061   6064   6067   6069     1  0.0000000  0.6508444  3
   6062   6061   6064   6067     1  0.0000000  0.6508444  3
   6062   6061   6064   6065     1  0.0000000  0.6508444  3
   6062   6061   6064   6066     1  0.0000000  0.6508444  3
   6063   6061   6064   6067     1  0.0000000  0.6508444  3
   6063   6061   6064   6065     1  0.0000000  0.6508444  3
   6063   6061   6064   6066     1  0.0000000  0.6508444  3
   6065   6064   6067   6070     1  0.0000000  0.6508444  3
   6065   6064   6067   6068     1  0.0000000  0.6508444  3
   6065   6064   6067   6069     1  0.0000000  0.6508444  3
   6065   6064   6061   6089     1  0.0000000  1.0460000  1
   6065   6064   6061   6089     1  0.0000000  0.0000000  3
   6066   6064   6067   6070     1  0.0000000  0.6508444  3
   6066   6064   6067   6068     1  0.0000000  0.6508444  3
   6066   6064   6067   6069     1  0.0000000  0.6508444  3
   6066   6064   6061   6089     1  0.0000000  1.0460000  1
   6066   6064   6061   6089     1  0.0000000  0.0000000  3
   6067   6070   6071   6072     1  0.0000000  1.2552000  3
   6067   6070   6071   6073     1  0.0000000  1.2552000  3
   6067   6070   6080   6081     1  0.0000000  1.2552000  3
   6067   6070   6080   6082     1  0.0000000  1.2552000  3
   6068   6067   6070   6071     1  0.0000000  1.2552000  3
   6068   6067   6070   6080     1  0.0000000  1.2552000  3
   6069   6067   6070   6071     1  0.0000000  1.2552000  3
   6069   6067   6070   6080     1  0.0000000  1.2552000  3
   6070   6071   6074   6075     1  0.0000000  0.6508444  3
   6070   6071   6074   6076     1  0.0000000  0.6508444  3
   6070   6080   6083   6084     1  0.0000000  0.6508444  3
   6070   6080   6083   6085     1  0.0000000  0.6508444  3
   6071   6070   6080   6081     1  0.0000000  1.2552000  3
   6071   6070   6080   6082     1  0.0000000  1.2552000  3
   6072   6071   6074   6077     1  0.0000000  0.6508444  3
   6072   6071   6074   6075     1  0.0000000  0.6508444  3
   6072   6071   6074   6076     1  0.0000000  0.6508444  3
   6072   6071   6070   6080     1  0.0000000  1.2552000  3
   6073   6071   6074   6077     1  0.0000000  0.6508444  3
   6073   6071   6074   6075     1  0.0000000  0.6508444  3
   6073   6071   6074   6076     1  0.0000000  0.6508444  3
   6073   6071   6070   6080     1  0.0000000  1.2552000  3
   6075   6074   6077   6078     1  0.0000000  3.3472000  1
   6075   6074   6077   6078     1  0.0000000  0.0000000  2
   6075   6074   6077   6078     1  180.0000771  0.3347200  3
   6075   6074   6077   6079     1  0.0000000  3.3472000  1
   6075   6074   6077   6079     1  0.0000000  0.0000000  2
   6075   6074   6077   6079     1  180.0000771  0.3347200  3
   6076   6074   6077   6078     1  0.0000000  3.3472000  1
   6076   6074   6077   6078     1  0.0000000  0.0000000  2
   6076   6074   6077   6078     1  180.0000771  0.3347200  3
   6076   6074   6077   6079     1  0.0000000  3.3472000  1
   6076   6074   6077   6079     1  0.0000000  0.0000000  2
   6076   6074   6077   6079     1  180.0000771  0.3347200  3
   6081   6080   6083   6086     1  0.0000000  0.6508444  3
   6081   6080   6083   6084     1  0.0000000  0.6508444  3
   6081   6080   6083   6085     1  0.0000000  0.6508444  3
   6082   6080   6083   6086     1  0.0000000  0.6508444  3
   6082   6080   6083   6084     1  0.0000000  0.6508444  3
   6082   6080   6083   6085     1  0.0000000  0.6508444  3
   6084   6083   6086   6087     1  0.0000000  3.3472000  1
   6084   6083   6086   6087     1  0.0000000  0.0000000  2
   6084   6083   6086   6087     1  180.0000771  0.3347200  3
   6084   6083   6086   6088     1  0.0000000  3.3472000  1
   6084   6083   6086   6088     1  0.0000000  0.0000000  2
   6084   6083   6086   6088     1  180.0000771  0.3347200  3
   6085   6083   6086   6087     1  0.0000000  3.3472000  1
   6085   6083   6086   6087     1  0.0000000  0.0000000  2
   6085   6083   6086   6087     1  180.0000771  0.3347200  3
   6085   6083   6086   6088     1  0.0000000  3.3472000  1
   6085   6083   6086   6088     1  0.0000000  0.0000000  2
   6085   6083   6086   6088     1  180.0000771  0.3347200  3
   6090   6093   6096   6097     1  0.0000000  0.6508444  3
   6090   6093   6096   6098     1  0.0000000  0.6508444  3
   6091   6090   6093   6096     1  0.0000000  0.6508444  3
   6091   6090   6093   6094     1  0.0000000  0.6508444  3
   6091   6090   6093   6095     1  0.0000000  0.6508444  3
   6092   6090   6093   6096     1  0.0000000  0.6508444  3
   6092   6090   6093   6094     1  0.0000000  0.6508444  3
   6092   6090   6093   6095     1  0.0000000  0.6508444  3
   6094   6093   6090   6118     1  0.0000000  1.0460000  1
   6094   6093   6090   6118     1  0.0000000  0.0000000  3
   6094   6093   6096   6099     1  0.0000000  0.6508444  3
   6094   6093   6096   6097     1  0.0000000  0.6508444  3
   6094   6093   6096   6098     1  0.0000000  0.6508444  3
   6095   6093   6090   6118     1  0.0000000  1.0460000  1
   6095   6093   6090   6118     1  0.0000000  0.0000000  3
   6095   6093   6096   6099     1  0.0000000  0.6508444  3
   6095   6093   6096   6097     1  0.0000000  0.6508444  3
   6095   6093   6096   6098     1  0.0000000  0.6508444  3
   6096   6099   6100   6101     1  0.0000000  1.2552000  3
   6096   6099   6100   6102     1  0.0000000  1.2552000  3
   6096   6099   6109   6110     1  0.0000000  1.2552000  3
   6096   6099   6109   6111     1  0.0000000  1.2552000  3
   6097   6096   6099   6100     1  0.0000000  1.2552000  3
   6097   6096   6099   6109     1  0.0000000  1.2552000  3
   6098   6096   6099   6100     1  0.0000000  1.2552000  3
   6098   6096   6099   6109     1  0.0000000  1.2552000  3
   6099   6100   6103   6104     1  0.0000000  0.6508444  3
   6099   6100   6103   6105     1  0.0000000  0.6508444  3
   6099   6109   6112   6113     1  0.0000000  0.6508444  3
   6099   6109   6112   6114     1  0.0000000  0.6508444  3
   6100   6099   6109   6110     1  0.0000000  1.2552000  3
   6100   6099   6109   6111     1  0.0000000  1.2552000  3
   6101   6100   6099   6109     1  0.0000000  1.2552000  3
   6101   6100   6103   6106     1  0.0000000  0.6508444  3
   6101   6100   6103   6104     1  0.0000000  0.6508444  3
   6101   6100   6103   6105     1  0.0000000  0.6508444  3
   6102   6100   6099   6109     1  0.0000000  1.2552000  3
   6102   6100   6103   6106     1  0.0000000  0.6508444  3
   6102   6100   6103   6104     1  0.0000000  0.6508444  3
   6102   6100   6103   6105     1  0.0000000  0.6508444  3
   6104   6103   6106   6107     1  0.0000000  3.3472000  1
   6104   6103   6106   6107     1  0.0000000  0.0000000  2
   6104   6103   6106   6107     1  180.0000771  0.3347200  3
   6104   6103   6106   6108     1  0.0000000  3.3472000  1
   6104   6103   6106   6108     1  0.0000000  0.0000000  2
   6104   6103   6106   6108     1  180.0000771  0.3347200  3
   6105   6103   6106   6107     1  0.0000000  3.3472000  1
   6105   6103   6106   6107     1  0.0000000  0.0000000  2
   6105   6103   6106   6107     1  180.0000771  0.3347200  3
   6105   6103   6106   6108     1  0.0000000  3.3472000  1
   6105   6103   6106   6108     1  0.0000000  0.0000000  2
   6105   6103   6106   6108     1  180.0000771  0.3347200  3
   6110   6109   6112   6115     1  0.0000000  0.6508444  3
   6110   6109   6112   6113     1  0.0000000  0.6508444  3
   6110   6109   6112   6114     1  0.0000000  0.6508444  3
   6111   6109   6112   6115     1  0.0000000  0.6508444  3
   6111   6109   6112   6113     1  0.0000000  0.6508444  3
   6111   6109   6112   6114     1  0.0000000  0.6508444  3
   6113   6112   6115   6116     1  0.0000000  3.3472000  1
   6113   6112   6115   6116     1  0.0000000  0.0000000  2
   6113   6112   6115   6116     1  180.0000771  0.3347200  3
   6113   6112   6115   6117     1  0.0000000  3.3472000  1
   6113   6112   6115   6117     1  0.0000000  0.0000000  2
   6113   6112   6115   6117     1  180.0000771  0.3347200  3
   6114   6112   6115   6116     1  0.0000000  3.3472000  1
   6114   6112   6115   6116     1  0.0000000  0.0000000  2
   6114   6112   6115   6116     1  180.0000771  0.3347200  3
   6114   6112   6115   6117     1  0.0000000  3.3472000  1
   6114   6112   6115   6117     1  0.0000000  0.0000000  2
   6114   6112   6115   6117     1  180.0000771  0.3347200  3
   6119   6122   6125   6126     1  0.0000000  0.6508444  3
   6119   6122   6125   6127     1  0.0000000  0.6508444  3
   6120   6119   6122   6125     1  0.0000000  0.6508444  3
   6120   6119   6122   6123     1  0.0000000  0.6508444  3
   6120   6119   6122   6124     1  0.0000000  0.6508444  3
   6121   6119   6122   6125     1  0.0000000  0.6508444  3
   6121   6119   6122   6123     1  0.0000000  0.6508444  3
   6121   6119   6122   6124     1  0.0000000  0.6508444  3
   6123   6122   6125   6128     1  0.0000000  0.6508444  3
   6123   6122   6125   6126     1  0.0000000  0.6508444  3
   6123   6122   6125   6127     1  0.0000000  0.6508444  3
   6123   6122   6119   6147     1  0.0000000  1.0460000  1
   6123   6122   6119   6147     1  0.0000000  0.0000000  3
   6124   6122   6125   6128     1  0.0000000  0.6508444  3
   6124   6122   6125   6126     1  0.0000000  0.6508444  3
   6124   6122   6125   6127     1  0.0000000  0.6508444  3
   6124   6122   6119   6147     1  0.0000000  1.0460000  1
   6124   6122   6119   6147     1  0.0000000  0.0000000  3
   6125   6128   6129   6130     1  0.0000000  1.2552000  3
   6125   6128   6129   6131     1  0.0000000  1.2552000  3
   6125   6128   6138   6139     1  0.0000000  1.2552000  3
   6125   6128   6138   6140     1  0.0000000  1.2552000  3
   6126   6125   6128   6129     1  0.0000000  1.2552000  3
   6126   6125   6128   6138     1  0.0000000  1.2552000  3
   6127   6125   6128   6129     1  0.0000000  1.2552000  3
   6127   6125   6128   6138     1  0.0000000  1.2552000  3
   6128   6129   6132   6133     1  0.0000000  0.6508444  3
   6128   6129   6132   6134     1  0.0000000  0.6508444  3
   6128   6138   6141   6142     1  0.0000000  0.6508444  3
   6128   6138   6141   6143     1  0.0000000  0.6508444  3
   6129   6128   6138   6139     1  0.0000000  1.2552000  3
   6129   6128   6138   6140     1  0.0000000  1.2552000  3
   6130   6129   6132   6135     1  0.0000000  0.6508444  3
   6130   6129   6132   6133     1  0.0000000  0.6508444  3
   6130   6129   6132   6134     1  0.0000000  0.6508444  3
   6130   6129   6128   6138     1  0.0000000  1.2552000  3
   6131   6129   6132   6135     1  0.0000000  0.6508444  3
   6131   6129   6132   6133     1  0.0000000  0.6508444  3
   6131   6129   6132   6134     1  0.0000000  0.6508444  3
   6131   6129   6128   6138     1  0.0000000  1.2552000  3
   6133   6132   6135   6136     1  0.0000000  3.3472000  1
   6133   6132   6135   6136     1  0.0000000  0.0000000  2
   6133   6132   6135   6136     1  180.0000771  0.3347200  3
   6133   6132   6135   6137     1  0.0000000  3.3472000  1
   6133   6132   6135   6137     1  0.0000000  0.0000000  2
   6133   6132   6135   6137     1  180.0000771  0.3347200  3
   6134   6132   6135   6136     1  0.0000000  3.3472000  1
   6134   6132   6135   6136     1  0.0000000  0.0000000  2
   6134   6132   6135   6136     1  180.0000771  0.3347200  3
   6134   6132   6135   6137     1  0.0000000  3.3472000  1
   6134   6132   6135   6137     1  0.0000000  0.0000000  2
   6134   6132   6135   6137     1  180.0000771  0.3347200  3
   6139   6138   6141   6144     1  0.0000000  0.6508444  3
   6139   6138   6141   6142     1  0.0000000  0.6508444  3
   6139   6138   6141   6143     1  0.0000000  0.6508444  3
   6140   6138   6141   6144     1  0.0000000  0.6508444  3
   6140   6138   6141   6142     1  0.0000000  0.6508444  3
   6140   6138   6141   6143     1  0.0000000  0.6508444  3
   6142   6141   6144   6145     1  0.0000000  3.3472000  1
   6142   6141   6144   6145     1  0.0000000  0.0000000  2
   6142   6141   6144   6145     1  180.0000771  0.3347200  3
   6142   6141   6144   6146     1  0.0000000  3.3472000  1
   6142   6141   6144   6146     1  0.0000000  0.0000000  2
   6142   6141   6144   6146     1  180.0000771  0.3347200  3
   6143   6141   6144   6145     1  0.0000000  3.3472000  1
   6143   6141   6144   6145     1  0.0000000  0.0000000  2
   6143   6141   6144   6145     1  180.0000771  0.3347200  3
   6143   6141   6144   6146     1  0.0000000  3.3472000  1
   6143   6141   6144   6146     1  0.0000000  0.0000000  2
   6143   6141   6144   6146     1  180.0000771  0.3347200  3
   6148   6151   6154   6155     1  0.0000000  0.6508444  3
   6148   6151   6154   6156     1  0.0000000  0.6508444  3
   6149   6148   6151   6154     1  0.0000000  0.6508444  3
   6149   6148   6151   6152     1  0.0000000  0.6508444  3
   6149   6148   6151   6153     1  0.0000000  0.6508444  3
   6150   6148   6151   6154     1  0.0000000  0.6508444  3
   6150   6148   6151   6152     1  0.0000000  0.6508444  3
   6150   6148   6151   6153     1  0.0000000  0.6508444  3
   6152   6151   6148   6176     1  0.0000000  1.0460000  1
   6152   6151   6148   6176     1  0.0000000  0.0000000  3
   6152   6151   6154   6157     1  0.0000000  0.6508444  3
   6152   6151   6154   6155     1  0.0000000  0.6508444  3
   6152   6151   6154   6156     1  0.0000000  0.6508444  3
   6153   6151   6148   6176     1  0.0000000  1.0460000  1
   6153   6151   6148   6176     1  0.0000000  0.0000000  3
   6153   6151   6154   6157     1  0.0000000  0.6508444  3
   6153   6151   6154   6155     1  0.0000000  0.6508444  3
   6153   6151   6154   6156     1  0.0000000  0.6508444  3
   6154   6157   6158   6159     1  0.0000000  1.2552000  3
   6154   6157   6158   6160     1  0.0000000  1.2552000  3
   6154   6157   6167   6168     1  0.0000000  1.2552000  3
   6154   6157   6167   6169     1  0.0000000  1.2552000  3
   6155   6154   6157   6158     1  0.0000000  1.2552000  3
   6155   6154   6157   6167     1  0.0000000  1.2552000  3
   6156   6154   6157   6158     1  0.0000000  1.2552000  3
   6156   6154   6157   6167     1  0.0000000  1.2552000  3
   6157   6158   6161   6162     1  0.0000000  0.6508444  3
   6157   6158   6161   6163     1  0.0000000  0.6508444  3
   6157   6167   6170   6171     1  0.0000000  0.6508444  3
   6157   6167   6170   6172     1  0.0000000  0.6508444  3
   6158   6157   6167   6168     1  0.0000000  1.2552000  3
   6158   6157   6167   6169     1  0.0000000  1.2552000  3
   6159   6158   6157   6167     1  0.0000000  1.2552000  3
   6159   6158   6161   6164     1  0.0000000  0.6508444  3
   6159   6158   6161   6162     1  0.0000000  0.6508444  3
   6159   6158   6161   6163     1  0.0000000  0.6508444  3
   6160   6158   6157   6167     1  0.0000000  1.2552000  3
   6160   6158   6161   6164     1  0.0000000  0.6508444  3
   6160   6158   6161   6162     1  0.0000000  0.6508444  3
   6160   6158   6161   6163     1  0.0000000  0.6508444  3
   6162   6161   6164   6165     1  0.0000000  3.3472000  1
   6162   6161   6164   6165     1  0.0000000  0.0000000  2
   6162   6161   6164   6165     1  180.0000771  0.3347200  3
   6162   6161   6164   6166     1  0.0000000  3.3472000  1
   6162   6161   6164   6166     1  0.0000000  0.0000000  2
   6162   6161   6164   6166     1  180.0000771  0.3347200  3
   6163   6161   6164   6165     1  0.0000000  3.3472000  1
   6163   6161   6164   6165     1  0.0000000  0.0000000  2
   6163   6161   6164   6165     1  180.0000771  0.3347200  3
   6163   6161   6164   6166     1  0.0000000  3.3472000  1
   6163   6161   6164   6166     1  0.0000000  0.0000000  2
   6163   6161   6164   6166     1  180.0000771  0.3347200  3
   6168   6167   6170   6173     1  0.0000000  0.6508444  3
   6168   6167   6170   6171     1  0.0000000  0.6508444  3
   6168   6167   6170   6172     1  0.0000000  0.6508444  3
   6169   6167   6170   6173     1  0.0000000  0.6508444  3
   6169   6167   6170   6171     1  0.0000000  0.6508444  3
   6169   6167   6170   6172     1  0.0000000  0.6508444  3
   6171   6170   6173   6174     1  0.0000000  3.3472000  1
   6171   6170   6173   6174     1  0.0000000  0.0000000  2
   6171   6170   6173   6174     1  180.0000771  0.3347200  3
   6171   6170   6173   6175     1  0.0000000  3.3472000  1
   6171   6170   6173   6175     1  0.0000000  0.0000000  2
   6171   6170   6173   6175     1  180.0000771  0.3347200  3
   6172   6170   6173   6174     1  0.0000000  3.3472000  1
   6172   6170   6173   6174     1  0.0000000  0.0000000  2
   6172   6170   6173   6174     1  180.0000771  0.3347200  3
   6172   6170   6173   6175     1  0.0000000  3.3472000  1
   6172   6170   6173   6175     1  0.0000000  0.0000000  2
   6172   6170   6173   6175     1  180.0000771  0.3347200  3
   6177   6180   6183   6184     1  0.0000000  0.6508444  3
   6177   6180   6183   6185     1  0.0000000  0.6508444  3
   6178   6177   6180   6183     1  0.0000000  0.6508444  3
   6178   6177   6180   6181     1  0.0000000  0.6508444  3
   6178   6177   6180   6182     1  0.0000000  0.6508444  3
   6179   6177   6180   6183     1  0.0000000  0.6508444  3
   6179   6177   6180   6181     1  0.0000000  0.6508444  3
   6179   6177   6180   6182     1  0.0000000  0.6508444  3
   6181   6180   6183   6186     1  0.0000000  0.6508444  3
   6181   6180   6183   6184     1  0.0000000  0.6508444  3
   6181   6180   6183   6185     1  0.0000000  0.6508444  3
   6181   6180   6177   6205     1  0.0000000  1.0460000  1
   6181   6180   6177   6205     1  0.0000000  0.0000000  3
   6182   6180   6183   6186     1  0.0000000  0.6508444  3
   6182   6180   6183   6184     1  0.0000000  0.6508444  3
   6182   6180   6183   6185     1  0.0000000  0.6508444  3
   6182   6180   6177   6205     1  0.0000000  1.0460000  1
   6182   6180   6177   6205     1  0.0000000  0.0000000  3
   6183   6186   6187   6188     1  0.0000000  1.2552000  3
   6183   6186   6187   6189     1  0.0000000  1.2552000  3
   6183   6186   6196   6197     1  0.0000000  1.2552000  3
   6183   6186   6196   6198     1  0.0000000  1.2552000  3
   6184   6183   6186   6187     1  0.0000000  1.2552000  3
   6184   6183   6186   6196     1  0.0000000  1.2552000  3
   6185   6183   6186   6187     1  0.0000000  1.2552000  3
   6185   6183   6186   6196     1  0.0000000  1.2552000  3
   6186   6187   6190   6191     1  0.0000000  0.6508444  3
   6186   6187   6190   6192     1  0.0000000  0.6508444  3
   6186   6196   6199   6200     1  0.0000000  0.6508444  3
   6186   6196   6199   6201     1  0.0000000  0.6508444  3
   6187   6186   6196   6197     1  0.0000000  1.2552000  3
   6187   6186   6196   6198     1  0.0000000  1.2552000  3
   6188   6187   6190   6193     1  0.0000000  0.6508444  3
   6188   6187   6190   6191     1  0.0000000  0.6508444  3
   6188   6187   6190   6192     1  0.0000000  0.6508444  3
   6188   6187   6186   6196     1  0.0000000  1.2552000  3
   6189   6187   6190   6193     1  0.0000000  0.6508444  3
   6189   6187   6190   6191     1  0.0000000  0.6508444  3
   6189   6187   6190   6192     1  0.0000000  0.6508444  3
   6189   6187   6186   6196     1  0.0000000  1.2552000  3
   6191   6190   6193   6194     1  0.0000000  3.3472000  1
   6191   6190   6193   6194     1  0.0000000  0.0000000  2
   6191   6190   6193   6194     1  180.0000771  0.3347200  3
   6191   6190   6193   6195     1  0.0000000  3.3472000  1
   6191   6190   6193   6195     1  0.0000000  0.0000000  2
   6191   6190   6193   6195     1  180.0000771  0.3347200  3
   6192   6190   6193   6194     1  0.0000000  3.3472000  1
   6192   6190   6193   6194     1  0.0000000  0.0000000  2
   6192   6190   6193   6194     1  180.0000771  0.3347200  3
   6192   6190   6193   6195     1  0.0000000  3.3472000  1
   6192   6190   6193   6195     1  0.0000000  0.0000000  2
   6192   6190   6193   6195     1  180.0000771  0.3347200  3
   6197   6196   6199   6202     1  0.0000000  0.6508444  3
   6197   6196   6199   6200     1  0.0000000  0.6508444  3
   6197   6196   6199   6201     1  0.0000000  0.6508444  3
   6198   6196   6199   6202     1  0.0000000  0.6508444  3
   6198   6196   6199   6200     1  0.0000000  0.6508444  3
   6198   6196   6199   6201     1  0.0000000  0.6508444  3
   6200   6199   6202   6203     1  0.0000000  3.3472000  1
   6200   6199   6202   6203     1  0.0000000  0.0000000  2
   6200   6199   6202   6203     1  180.0000771  0.3347200  3
   6200   6199   6202   6204     1  0.0000000  3.3472000  1
   6200   6199   6202   6204     1  0.0000000  0.0000000  2
   6200   6199   6202   6204     1  180.0000771  0.3347200  3
   6201   6199   6202   6203     1  0.0000000  3.3472000  1
   6201   6199   6202   6203     1  0.0000000  0.0000000  2
   6201   6199   6202   6203     1  180.0000771  0.3347200  3
   6201   6199   6202   6204     1  0.0000000  3.3472000  1
   6201   6199   6202   6204     1  0.0000000  0.0000000  2
   6201   6199   6202   6204     1  180.0000771  0.3347200  3
   6206   6209   6212   6213     1  0.0000000  0.6508444  3
   6206   6209   6212   6214     1  0.0000000  0.6508444  3
   6207   6206   6209   6212     1  0.0000000  0.6508444  3
   6207   6206   6209   6210     1  0.0000000  0.6508444  3
   6207   6206   6209   6211     1  0.0000000  0.6508444  3
   6208   6206   6209   6212     1  0.0000000  0.6508444  3
   6208   6206   6209   6210     1  0.0000000  0.6508444  3
   6208   6206   6209   6211     1  0.0000000  0.6508444  3
   6210   6209   6206   6234     1  0.0000000  1.0460000  1
   6210   6209   6206   6234     1  0.0000000  0.0000000  3
   6210   6209   6212   6215     1  0.0000000  0.6508444  3
   6210   6209   6212   6213     1  0.0000000  0.6508444  3
   6210   6209   6212   6214     1  0.0000000  0.6508444  3
   6211   6209   6206   6234     1  0.0000000  1.0460000  1
   6211   6209   6206   6234     1  0.0000000  0.0000000  3
   6211   6209   6212   6215     1  0.0000000  0.6508444  3
   6211   6209   6212   6213     1  0.0000000  0.6508444  3
   6211   6209   6212   6214     1  0.0000000  0.6508444  3
   6212   6215   6216   6217     1  0.0000000  1.2552000  3
   6212   6215   6216   6218     1  0.0000000  1.2552000  3
   6212   6215   6225   6226     1  0.0000000  1.2552000  3
   6212   6215   6225   6227     1  0.0000000  1.2552000  3
   6213   6212   6215   6216     1  0.0000000  1.2552000  3
   6213   6212   6215   6225     1  0.0000000  1.2552000  3
   6214   6212   6215   6216     1  0.0000000  1.2552000  3
   6214   6212   6215   6225     1  0.0000000  1.2552000  3
   6215   6216   6219   6220     1  0.0000000  0.6508444  3
   6215   6216   6219   6221     1  0.0000000  0.6508444  3
   6215   6225   6228   6229     1  0.0000000  0.6508444  3
   6215   6225   6228   6230     1  0.0000000  0.6508444  3
   6216   6215   6225   6226     1  0.0000000  1.2552000  3
   6216   6215   6225   6227     1  0.0000000  1.2552000  3
   6217   6216   6215   6225     1  0.0000000  1.2552000  3
   6217   6216   6219   6222     1  0.0000000  0.6508444  3
   6217   6216   6219   6220     1  0.0000000  0.6508444  3
   6217   6216   6219   6221     1  0.0000000  0.6508444  3
   6218   6216   6215   6225     1  0.0000000  1.2552000  3
   6218   6216   6219   6222     1  0.0000000  0.6508444  3
   6218   6216   6219   6220     1  0.0000000  0.6508444  3
   6218   6216   6219   6221     1  0.0000000  0.6508444  3
   6220   6219   6222   6223     1  0.0000000  3.3472000  1
   6220   6219   6222   6223     1  0.0000000  0.0000000  2
   6220   6219   6222   6223     1  180.0000771  0.3347200  3
   6220   6219   6222   6224     1  0.0000000  3.3472000  1
   6220   6219   6222   6224     1  0.0000000  0.0000000  2
   6220   6219   6222   6224     1  180.0000771  0.3347200  3
   6221   6219   6222   6223     1  0.0000000  3.3472000  1
   6221   6219   6222   6223     1  0.0000000  0.0000000  2
   6221   6219   6222   6223     1  180.0000771  0.3347200  3
   6221   6219   6222   6224     1  0.0000000  3.3472000  1
   6221   6219   6222   6224     1  0.0000000  0.0000000  2
   6221   6219   6222   6224     1  180.0000771  0.3347200  3
   6226   6225   6228   6231     1  0.0000000  0.6508444  3
   6226   6225   6228   6229     1  0.0000000  0.6508444  3
   6226   6225   6228   6230     1  0.0000000  0.6508444  3
   6227   6225   6228   6231     1  0.0000000  0.6508444  3
   6227   6225   6228   6229     1  0.0000000  0.6508444  3
   6227   6225   6228   6230     1  0.0000000  0.6508444  3
   6229   6228   6231   6232     1  0.0000000  3.3472000  1
   6229   6228   6231   6232     1  0.0000000  0.0000000  2
   6229   6228   6231   6232     1  180.0000771  0.3347200  3
   6229   6228   6231   6233     1  0.0000000  3.3472000  1
   6229   6228   6231   6233     1  0.0000000  0.0000000  2
   6229   6228   6231   6233     1  180.0000771  0.3347200  3
   6230   6228   6231   6232     1  0.0000000  3.3472000  1
   6230   6228   6231   6232     1  0.0000000  0.0000000  2
   6230   6228   6231   6232     1  180.0000771  0.3347200  3
   6230   6228   6231   6233     1  0.0000000  3.3472000  1
   6230   6228   6231   6233     1  0.0000000  0.0000000  2
   6230   6228   6231   6233     1  180.0000771  0.3347200  3
   6235   6238   6241   6242     1  0.0000000  0.6508444  3
   6235   6238   6241   6243     1  0.0000000  0.6508444  3
   6236   6235   6238   6241     1  0.0000000  0.6508444  3
   6236   6235   6238   6239     1  0.0000000  0.6508444  3
   6236   6235   6238   6240     1  0.0000000  0.6508444  3
   6237   6235   6238   6241     1  0.0000000  0.6508444  3
   6237   6235   6238   6239     1  0.0000000  0.6508444  3
   6237   6235   6238   6240     1  0.0000000  0.6508444  3
   6239   6238   6241   6244     1  0.0000000  0.6508444  3
   6239   6238   6241   6242     1  0.0000000  0.6508444  3
   6239   6238   6241   6243     1  0.0000000  0.6508444  3
   6239   6238   6235   6263     1  0.0000000  1.0460000  1
   6239   6238   6235   6263     1  0.0000000  0.0000000  3
   6240   6238   6241   6244     1  0.0000000  0.6508444  3
   6240   6238   6241   6242     1  0.0000000  0.6508444  3
   6240   6238   6241   6243     1  0.0000000  0.6508444  3
   6240   6238   6235   6263     1  0.0000000  1.0460000  1
   6240   6238   6235   6263     1  0.0000000  0.0000000  3
   6241   6244   6245   6246     1  0.0000000  1.2552000  3
   6241   6244   6245   6247     1  0.0000000  1.2552000  3
   6241   6244   6254   6255     1  0.0000000  1.2552000  3
   6241   6244   6254   6256     1  0.0000000  1.2552000  3
   6242   6241   6244   6245     1  0.0000000  1.2552000  3
   6242   6241   6244   6254     1  0.0000000  1.2552000  3
   6243   6241   6244   6245     1  0.0000000  1.2552000  3
   6243   6241   6244   6254     1  0.0000000  1.2552000  3
   6244   6245   6248   6249     1  0.0000000  0.6508444  3
   6244   6245   6248   6250     1  0.0000000  0.6508444  3
   6244   6254   6257   6258     1  0.0000000  0.6508444  3
   6244   6254   6257   6259     1  0.0000000  0.6508444  3
   6245   6244   6254   6255     1  0.0000000  1.2552000  3
   6245   6244   6254   6256     1  0.0000000  1.2552000  3
   6246   6245   6248   6251     1  0.0000000  0.6508444  3
   6246   6245   6248   6249     1  0.0000000  0.6508444  3
   6246   6245   6248   6250     1  0.0000000  0.6508444  3
   6246   6245   6244   6254     1  0.0000000  1.2552000  3
   6247   6245   6248   6251     1  0.0000000  0.6508444  3
   6247   6245   6248   6249     1  0.0000000  0.6508444  3
   6247   6245   6248   6250     1  0.0000000  0.6508444  3
   6247   6245   6244   6254     1  0.0000000  1.2552000  3
   6249   6248   6251   6252     1  0.0000000  3.3472000  1
   6249   6248   6251   6252     1  0.0000000  0.0000000  2
   6249   6248   6251   6252     1  180.0000771  0.3347200  3
   6249   6248   6251   6253     1  0.0000000  3.3472000  1
   6249   6248   6251   6253     1  0.0000000  0.0000000  2
   6249   6248   6251   6253     1  180.0000771  0.3347200  3
   6250   6248   6251   6252     1  0.0000000  3.3472000  1
   6250   6248   6251   6252     1  0.0000000  0.0000000  2
   6250   6248   6251   6252     1  180.0000771  0.3347200  3
   6250   6248   6251   6253     1  0.0000000  3.3472000  1
   6250   6248   6251   6253     1  0.0000000  0.0000000  2
   6250   6248   6251   6253     1  180.0000771  0.3347200  3
   6255   6254   6257   6260     1  0.0000000  0.6508444  3
   6255   6254   6257   6258     1  0.0000000  0.6508444  3
   6255   6254   6257   6259     1  0.0000000  0.6508444  3
   6256   6254   6257   6260     1  0.0000000  0.6508444  3
   6256   6254   6257   6258     1  0.0000000  0.6508444  3
   6256   6254   6257   6259     1  0.0000000  0.6508444  3
   6258   6257   6260   6261     1  0.0000000  3.3472000  1
   6258   6257   6260   6261     1  0.0000000  0.0000000  2
   6258   6257   6260   6261     1  180.0000771  0.3347200  3
   6258   6257   6260   6262     1  0.0000000  3.3472000  1
   6258   6257   6260   6262     1  0.0000000  0.0000000  2
   6258   6257   6260   6262     1  180.0000771  0.3347200  3
   6259   6257   6260   6261     1  0.0000000  3.3472000  1
   6259   6257   6260   6261     1  0.0000000  0.0000000  2
   6259   6257   6260   6261     1  180.0000771  0.3347200  3
   6259   6257   6260   6262     1  0.0000000  3.3472000  1
   6259   6257   6260   6262     1  0.0000000  0.0000000  2
   6259   6257   6260   6262     1  180.0000771  0.3347200  3
   6264   6267   6270   6271     1  0.0000000  0.6508444  3
   6264   6267   6270   6272     1  0.0000000  0.6508444  3
   6265   6264   6267   6270     1  0.0000000  0.6508444  3
   6265   6264   6267   6268     1  0.0000000  0.6508444  3
   6265   6264   6267   6269     1  0.0000000  0.6508444  3
   6266   6264   6267   6270     1  0.0000000  0.6508444  3
   6266   6264   6267   6268     1  0.0000000  0.6508444  3
   6266   6264   6267   6269     1  0.0000000  0.6508444  3
   6268   6267   6264   6292     1  0.0000000  1.0460000  1
   6268   6267   6264   6292     1  0.0000000  0.0000000  3
   6268   6267   6270   6273     1  0.0000000  0.6508444  3
   6268   6267   6270   6271     1  0.0000000  0.6508444  3
   6268   6267   6270   6272     1  0.0000000  0.6508444  3
   6269   6267   6264   6292     1  0.0000000  1.0460000  1
   6269   6267   6264   6292     1  0.0000000  0.0000000  3
   6269   6267   6270   6273     1  0.0000000  0.6508444  3
   6269   6267   6270   6271     1  0.0000000  0.6508444  3
   6269   6267   6270   6272     1  0.0000000  0.6508444  3
   6270   6273   6274   6275     1  0.0000000  1.2552000  3
   6270   6273   6274   6276     1  0.0000000  1.2552000  3
   6270   6273   6283   6284     1  0.0000000  1.2552000  3
   6270   6273   6283   6285     1  0.0000000  1.2552000  3
   6271   6270   6273   6274     1  0.0000000  1.2552000  3
   6271   6270   6273   6283     1  0.0000000  1.2552000  3
   6272   6270   6273   6274     1  0.0000000  1.2552000  3
   6272   6270   6273   6283     1  0.0000000  1.2552000  3
   6273   6274   6277   6278     1  0.0000000  0.6508444  3
   6273   6274   6277   6279     1  0.0000000  0.6508444  3
   6273   6283   6286   6287     1  0.0000000  0.6508444  3
   6273   6283   6286   6288     1  0.0000000  0.6508444  3
   6274   6273   6283   6284     1  0.0000000  1.2552000  3
   6274   6273   6283   6285     1  0.0000000  1.2552000  3
   6275   6274   6273   6283     1  0.0000000  1.2552000  3
   6275   6274   6277   6280     1  0.0000000  0.6508444  3
   6275   6274   6277   6278     1  0.0000000  0.6508444  3
   6275   6274   6277   6279     1  0.0000000  0.6508444  3
   6276   6274   6273   6283     1  0.0000000  1.2552000  3
   6276   6274   6277   6280     1  0.0000000  0.6508444  3
   6276   6274   6277   6278     1  0.0000000  0.6508444  3
   6276   6274   6277   6279     1  0.0000000  0.6508444  3
   6278   6277   6280   6281     1  0.0000000  3.3472000  1
   6278   6277   6280   6281     1  0.0000000  0.0000000  2
   6278   6277   6280   6281     1  180.0000771  0.3347200  3
   6278   6277   6280   6282     1  0.0000000  3.3472000  1
   6278   6277   6280   6282     1  0.0000000  0.0000000  2
   6278   6277   6280   6282     1  180.0000771  0.3347200  3
   6279   6277   6280   6281     1  0.0000000  3.3472000  1
   6279   6277   6280   6281     1  0.0000000  0.0000000  2
   6279   6277   6280   6281     1  180.0000771  0.3347200  3
   6279   6277   6280   6282     1  0.0000000  3.3472000  1
   6279   6277   6280   6282     1  0.0000000  0.0000000  2
   6279   6277   6280   6282     1  180.0000771  0.3347200  3
   6284   6283   6286   6289     1  0.0000000  0.6508444  3
   6284   6283   6286   6287     1  0.0000000  0.6508444  3
   6284   6283   6286   6288     1  0.0000000  0.6508444  3
   6285   6283   6286   6289     1  0.0000000  0.6508444  3
   6285   6283   6286   6287     1  0.0000000  0.6508444  3
   6285   6283   6286   6288     1  0.0000000  0.6508444  3
   6287   6286   6289   6290     1  0.0000000  3.3472000  1
   6287   6286   6289   6290     1  0.0000000  0.0000000  2
   6287   6286   6289   6290     1  180.0000771  0.3347200  3
   6287   6286   6289   6291     1  0.0000000  3.3472000  1
   6287   6286   6289   6291     1  0.0000000  0.0000000  2
   6287   6286   6289   6291     1  180.0000771  0.3347200  3
   6288   6286   6289   6290     1  0.0000000  3.3472000  1
   6288   6286   6289   6290     1  0.0000000  0.0000000  2
   6288   6286   6289   6290     1  180.0000771  0.3347200  3
   6288   6286   6289   6291     1  0.0000000  3.3472000  1
   6288   6286   6289   6291     1  0.0000000  0.0000000  2
   6288   6286   6289   6291     1  180.0000771  0.3347200  3
   6293   6296   6299   6300     1  0.0000000  0.6508444  3
   6293   6296   6299   6301     1  0.0000000  0.6508444  3
   6294   6293   6296   6299     1  0.0000000  0.6508444  3
   6294   6293   6296   6297     1  0.0000000  0.6508444  3
   6294   6293   6296   6298     1  0.0000000  0.6508444  3
   6295   6293   6296   6299     1  0.0000000  0.6508444  3
   6295   6293   6296   6297     1  0.0000000  0.6508444  3
   6295   6293   6296   6298     1  0.0000000  0.6508444  3
   6297   6296   6299   6302     1  0.0000000  0.6508444  3
   6297   6296   6299   6300     1  0.0000000  0.6508444  3
   6297   6296   6299   6301     1  0.0000000  0.6508444  3
   6297   6296   6293   6321     1  0.0000000  1.0460000  1
   6297   6296   6293   6321     1  0.0000000  0.0000000  3
   6298   6296   6299   6302     1  0.0000000  0.6508444  3
   6298   6296   6299   6300     1  0.0000000  0.6508444  3
   6298   6296   6299   6301     1  0.0000000  0.6508444  3
   6298   6296   6293   6321     1  0.0000000  1.0460000  1
   6298   6296   6293   6321     1  0.0000000  0.0000000  3
   6299   6302   6303   6304     1  0.0000000  1.2552000  3
   6299   6302   6303   6305     1  0.0000000  1.2552000  3
   6299   6302   6312   6313     1  0.0000000  1.2552000  3
   6299   6302   6312   6314     1  0.0000000  1.2552000  3
   6300   6299   6302   6303     1  0.0000000  1.2552000  3
   6300   6299   6302   6312     1  0.0000000  1.2552000  3
   6301   6299   6302   6303     1  0.0000000  1.2552000  3
   6301   6299   6302   6312     1  0.0000000  1.2552000  3
   6302   6303   6306   6307     1  0.0000000  0.6508444  3
   6302   6303   6306   6308     1  0.0000000  0.6508444  3
   6302   6312   6315   6316     1  0.0000000  0.6508444  3
   6302   6312   6315   6317     1  0.0000000  0.6508444  3
   6303   6302   6312   6313     1  0.0000000  1.2552000  3
   6303   6302   6312   6314     1  0.0000000  1.2552000  3
   6304   6303   6306   6309     1  0.0000000  0.6508444  3
   6304   6303   6306   6307     1  0.0000000  0.6508444  3
   6304   6303   6306   6308     1  0.0000000  0.6508444  3
   6304   6303   6302   6312     1  0.0000000  1.2552000  3
   6305   6303   6306   6309     1  0.0000000  0.6508444  3
   6305   6303   6306   6307     1  0.0000000  0.6508444  3
   6305   6303   6306   6308     1  0.0000000  0.6508444  3
   6305   6303   6302   6312     1  0.0000000  1.2552000  3
   6307   6306   6309   6310     1  0.0000000  3.3472000  1
   6307   6306   6309   6310     1  0.0000000  0.0000000  2
   6307   6306   6309   6310     1  180.0000771  0.3347200  3
   6307   6306   6309   6311     1  0.0000000  3.3472000  1
   6307   6306   6309   6311     1  0.0000000  0.0000000  2
   6307   6306   6309   6311     1  180.0000771  0.3347200  3
   6308   6306   6309   6310     1  0.0000000  3.3472000  1
   6308   6306   6309   6310     1  0.0000000  0.0000000  2
   6308   6306   6309   6310     1  180.0000771  0.3347200  3
   6308   6306   6309   6311     1  0.0000000  3.3472000  1
   6308   6306   6309   6311     1  0.0000000  0.0000000  2
   6308   6306   6309   6311     1  180.0000771  0.3347200  3
   6313   6312   6315   6318     1  0.0000000  0.6508444  3
   6313   6312   6315   6316     1  0.0000000  0.6508444  3
   6313   6312   6315   6317     1  0.0000000  0.6508444  3
   6314   6312   6315   6318     1  0.0000000  0.6508444  3
   6314   6312   6315   6316     1  0.0000000  0.6508444  3
   6314   6312   6315   6317     1  0.0000000  0.6508444  3
   6316   6315   6318   6319     1  0.0000000  3.3472000  1
   6316   6315   6318   6319     1  0.0000000  0.0000000  2
   6316   6315   6318   6319     1  180.0000771  0.3347200  3
   6316   6315   6318   6320     1  0.0000000  3.3472000  1
   6316   6315   6318   6320     1  0.0000000  0.0000000  2
   6316   6315   6318   6320     1  180.0000771  0.3347200  3
   6317   6315   6318   6319     1  0.0000000  3.3472000  1
   6317   6315   6318   6319     1  0.0000000  0.0000000  2
   6317   6315   6318   6319     1  180.0000771  0.3347200  3
   6317   6315   6318   6320     1  0.0000000  3.3472000  1
   6317   6315   6318   6320     1  0.0000000  0.0000000  2
   6317   6315   6318   6320     1  180.0000771  0.3347200  3
   6322   6325   6328   6329     1  0.0000000  0.6508444  3
   6322   6325   6328   6330     1  0.0000000  0.6508444  3
   6323   6322   6325   6328     1  0.0000000  0.6508444  3
   6323   6322   6325   6326     1  0.0000000  0.6508444  3
   6323   6322   6325   6327     1  0.0000000  0.6508444  3
   6324   6322   6325   6328     1  0.0000000  0.6508444  3
   6324   6322   6325   6326     1  0.0000000  0.6508444  3
   6324   6322   6325   6327     1  0.0000000  0.6508444  3
   6326   6325   6322   6350     1  0.0000000  1.0460000  1
   6326   6325   6322   6350     1  0.0000000  0.0000000  3
   6326   6325   6328   6331     1  0.0000000  0.6508444  3
   6326   6325   6328   6329     1  0.0000000  0.6508444  3
   6326   6325   6328   6330     1  0.0000000  0.6508444  3
   6327   6325   6322   6350     1  0.0000000  1.0460000  1
   6327   6325   6322   6350     1  0.0000000  0.0000000  3
   6327   6325   6328   6331     1  0.0000000  0.6508444  3
   6327   6325   6328   6329     1  0.0000000  0.6508444  3
   6327   6325   6328   6330     1  0.0000000  0.6508444  3
   6328   6331   6332   6333     1  0.0000000  1.2552000  3
   6328   6331   6332   6334     1  0.0000000  1.2552000  3
   6328   6331   6341   6342     1  0.0000000  1.2552000  3
   6328   6331   6341   6343     1  0.0000000  1.2552000  3
   6329   6328   6331   6332     1  0.0000000  1.2552000  3
   6329   6328   6331   6341     1  0.0000000  1.2552000  3
   6330   6328   6331   6332     1  0.0000000  1.2552000  3
   6330   6328   6331   6341     1  0.0000000  1.2552000  3
   6331   6332   6335   6336     1  0.0000000  0.6508444  3
   6331   6332   6335   6337     1  0.0000000  0.6508444  3
   6331   6341   6344   6345     1  0.0000000  0.6508444  3
   6331   6341   6344   6346     1  0.0000000  0.6508444  3
   6332   6331   6341   6342     1  0.0000000  1.2552000  3
   6332   6331   6341   6343     1  0.0000000  1.2552000  3
   6333   6332   6331   6341     1  0.0000000  1.2552000  3
   6333   6332   6335   6338     1  0.0000000  0.6508444  3
   6333   6332   6335   6336     1  0.0000000  0.6508444  3
   6333   6332   6335   6337     1  0.0000000  0.6508444  3
   6334   6332   6331   6341     1  0.0000000  1.2552000  3
   6334   6332   6335   6338     1  0.0000000  0.6508444  3
   6334   6332   6335   6336     1  0.0000000  0.6508444  3
   6334   6332   6335   6337     1  0.0000000  0.6508444  3
   6336   6335   6338   6339     1  0.0000000  3.3472000  1
   6336   6335   6338   6339     1  0.0000000  0.0000000  2
   6336   6335   6338   6339     1  180.0000771  0.3347200  3
   6336   6335   6338   6340     1  0.0000000  3.3472000  1
   6336   6335   6338   6340     1  0.0000000  0.0000000  2
   6336   6335   6338   6340     1  180.0000771  0.3347200  3
   6337   6335   6338   6339     1  0.0000000  3.3472000  1
   6337   6335   6338   6339     1  0.0000000  0.0000000  2
   6337   6335   6338   6339     1  180.0000771  0.3347200  3
   6337   6335   6338   6340     1  0.0000000  3.3472000  1
   6337   6335   6338   6340     1  0.0000000  0.0000000  2
   6337   6335   6338   6340     1  180.0000771  0.3347200  3
   6342   6341   6344   6347     1  0.0000000  0.6508444  3
   6342   6341   6344   6345     1  0.0000000  0.6508444  3
   6342   6341   6344   6346     1  0.0000000  0.6508444  3
   6343   6341   6344   6347     1  0.0000000  0.6508444  3
   6343   6341   6344   6345     1  0.0000000  0.6508444  3
   6343   6341   6344   6346     1  0.0000000  0.6508444  3
   6345   6344   6347   6348     1  0.0000000  3.3472000  1
   6345   6344   6347   6348     1  0.0000000  0.0000000  2
   6345   6344   6347   6348     1  180.0000771  0.3347200  3
   6345   6344   6347   6349     1  0.0000000  3.3472000  1
   6345   6344   6347   6349     1  0.0000000  0.0000000  2
   6345   6344   6347   6349     1  180.0000771  0.3347200  3
   6346   6344   6347   6348     1  0.0000000  3.3472000  1
   6346   6344   6347   6348     1  0.0000000  0.0000000  2
   6346   6344   6347   6348     1  180.0000771  0.3347200  3
   6346   6344   6347   6349     1  0.0000000  3.3472000  1
   6346   6344   6347   6349     1  0.0000000  0.0000000  2
   6346   6344   6347   6349     1  180.0000771  0.3347200  3
   6351   6354   6357   6358     1  0.0000000  0.6508444  3
   6351   6354   6357   6359     1  0.0000000  0.6508444  3
   6352   6351   6354   6357     1  0.0000000  0.6508444  3
   6352   6351   6354   6355     1  0.0000000  0.6508444  3
   6352   6351   6354   6356     1  0.0000000  0.6508444  3
   6353   6351   6354   6357     1  0.0000000  0.6508444  3
   6353   6351   6354   6355     1  0.0000000  0.6508444  3
   6353   6351   6354   6356     1  0.0000000  0.6508444  3
   6355   6354   6357   6360     1  0.0000000  0.6508444  3
   6355   6354   6357   6358     1  0.0000000  0.6508444  3
   6355   6354   6357   6359     1  0.0000000  0.6508444  3
   6355   6354   6351   6379     1  0.0000000  1.0460000  1
   6355   6354   6351   6379     1  0.0000000  0.0000000  3
   6356   6354   6357   6360     1  0.0000000  0.6508444  3
   6356   6354   6357   6358     1  0.0000000  0.6508444  3
   6356   6354   6357   6359     1  0.0000000  0.6508444  3
   6356   6354   6351   6379     1  0.0000000  1.0460000  1
   6356   6354   6351   6379     1  0.0000000  0.0000000  3
   6357   6360   6361   6362     1  0.0000000  1.2552000  3
   6357   6360   6361   6363     1  0.0000000  1.2552000  3
   6357   6360   6370   6371     1  0.0000000  1.2552000  3
   6357   6360   6370   6372     1  0.0000000  1.2552000  3
   6358   6357   6360   6361     1  0.0000000  1.2552000  3
   6358   6357   6360   6370     1  0.0000000  1.2552000  3
   6359   6357   6360   6361     1  0.0000000  1.2552000  3
   6359   6357   6360   6370     1  0.0000000  1.2552000  3
   6360   6361   6364   6365     1  0.0000000  0.6508444  3
   6360   6361   6364   6366     1  0.0000000  0.6508444  3
   6360   6370   6373   6374     1  0.0000000  0.6508444  3
   6360   6370   6373   6375     1  0.0000000  0.6508444  3
   6361   6360   6370   6371     1  0.0000000  1.2552000  3
   6361   6360   6370   6372     1  0.0000000  1.2552000  3
   6362   6361   6364   6367     1  0.0000000  0.6508444  3
   6362   6361   6364   6365     1  0.0000000  0.6508444  3
   6362   6361   6364   6366     1  0.0000000  0.6508444  3
   6362   6361   6360   6370     1  0.0000000  1.2552000  3
   6363   6361   6364   6367     1  0.0000000  0.6508444  3
   6363   6361   6364   6365     1  0.0000000  0.6508444  3
   6363   6361   6364   6366     1  0.0000000  0.6508444  3
   6363   6361   6360   6370     1  0.0000000  1.2552000  3
   6365   6364   6367   6368     1  0.0000000  3.3472000  1
   6365   6364   6367   6368     1  0.0000000  0.0000000  2
   6365   6364   6367   6368     1  180.0000771  0.3347200  3
   6365   6364   6367   6369     1  0.0000000  3.3472000  1
   6365   6364   6367   6369     1  0.0000000  0.0000000  2
   6365   6364   6367   6369     1  180.0000771  0.3347200  3
   6366   6364   6367   6368     1  0.0000000  3.3472000  1
   6366   6364   6367   6368     1  0.0000000  0.0000000  2
   6366   6364   6367   6368     1  180.0000771  0.3347200  3
   6366   6364   6367   6369     1  0.0000000  3.3472000  1
   6366   6364   6367   6369     1  0.0000000  0.0000000  2
   6366   6364   6367   6369     1  180.0000771  0.3347200  3
   6371   6370   6373   6376     1  0.0000000  0.6508444  3
   6371   6370   6373   6374     1  0.0000000  0.6508444  3
   6371   6370   6373   6375     1  0.0000000  0.6508444  3
   6372   6370   6373   6376     1  0.0000000  0.6508444  3
   6372   6370   6373   6374     1  0.0000000  0.6508444  3
   6372   6370   6373   6375     1  0.0000000  0.6508444  3
   6374   6373   6376   6377     1  0.0000000  3.3472000  1
   6374   6373   6376   6377     1  0.0000000  0.0000000  2
   6374   6373   6376   6377     1  180.0000771  0.3347200  3
   6374   6373   6376   6378     1  0.0000000  3.3472000  1
   6374   6373   6376   6378     1  0.0000000  0.0000000  2
   6374   6373   6376   6378     1  180.0000771  0.3347200  3
   6375   6373   6376   6377     1  0.0000000  3.3472000  1
   6375   6373   6376   6377     1  0.0000000  0.0000000  2
   6375   6373   6376   6377     1  180.0000771  0.3347200  3
   6375   6373   6376   6378     1  0.0000000  3.3472000  1
   6375   6373   6376   6378     1  0.0000000  0.0000000  2
   6375   6373   6376   6378     1  180.0000771  0.3347200  3
   6380   6383   6386   6387     1  0.0000000  0.6508444  3
   6380   6383   6386   6388     1  0.0000000  0.6508444  3
   6381   6380   6383   6386     1  0.0000000  0.6508444  3
   6381   6380   6383   6384     1  0.0000000  0.6508444  3
   6381   6380   6383   6385     1  0.0000000  0.6508444  3
   6382   6380   6383   6386     1  0.0000000  0.6508444  3
   6382   6380   6383   6384     1  0.0000000  0.6508444  3
   6382   6380   6383   6385     1  0.0000000  0.6508444  3
   6384   6383   6380   6408     1  0.0000000  1.0460000  1
   6384   6383   6380   6408     1  0.0000000  0.0000000  3
   6384   6383   6386   6389     1  0.0000000  0.6508444  3
   6384   6383   6386   6387     1  0.0000000  0.6508444  3
   6384   6383   6386   6388     1  0.0000000  0.6508444  3
   6385   6383   6380   6408     1  0.0000000  1.0460000  1
   6385   6383   6380   6408     1  0.0000000  0.0000000  3
   6385   6383   6386   6389     1  0.0000000  0.6508444  3
   6385   6383   6386   6387     1  0.0000000  0.6508444  3
   6385   6383   6386   6388     1  0.0000000  0.6508444  3
   6386   6389   6390   6391     1  0.0000000  1.2552000  3
   6386   6389   6390   6392     1  0.0000000  1.2552000  3
   6386   6389   6399   6400     1  0.0000000  1.2552000  3
   6386   6389   6399   6401     1  0.0000000  1.2552000  3
   6387   6386   6389   6390     1  0.0000000  1.2552000  3
   6387   6386   6389   6399     1  0.0000000  1.2552000  3
   6388   6386   6389   6390     1  0.0000000  1.2552000  3
   6388   6386   6389   6399     1  0.0000000  1.2552000  3
   6389   6390   6393   6394     1  0.0000000  0.6508444  3
   6389   6390   6393   6395     1  0.0000000  0.6508444  3
   6389   6399   6402   6403     1  0.0000000  0.6508444  3
   6389   6399   6402   6404     1  0.0000000  0.6508444  3
   6390   6389   6399   6400     1  0.0000000  1.2552000  3
   6390   6389   6399   6401     1  0.0000000  1.2552000  3
   6391   6390   6389   6399     1  0.0000000  1.2552000  3
   6391   6390   6393   6396     1  0.0000000  0.6508444  3
   6391   6390   6393   6394     1  0.0000000  0.6508444  3
   6391   6390   6393   6395     1  0.0000000  0.6508444  3
   6392   6390   6389   6399     1  0.0000000  1.2552000  3
   6392   6390   6393   6396     1  0.0000000  0.6508444  3
   6392   6390   6393   6394     1  0.0000000  0.6508444  3
   6392   6390   6393   6395     1  0.0000000  0.6508444  3
   6394   6393   6396   6397     1  0.0000000  3.3472000  1
   6394   6393   6396   6397     1  0.0000000  0.0000000  2
   6394   6393   6396   6397     1  180.0000771  0.3347200  3
   6394   6393   6396   6398     1  0.0000000  3.3472000  1
   6394   6393   6396   6398     1  0.0000000  0.0000000  2
   6394   6393   6396   6398     1  180.0000771  0.3347200  3
   6395   6393   6396   6397     1  0.0000000  3.3472000  1
   6395   6393   6396   6397     1  0.0000000  0.0000000  2
   6395   6393   6396   6397     1  180.0000771  0.3347200  3
   6395   6393   6396   6398     1  0.0000000  3.3472000  1
   6395   6393   6396   6398     1  0.0000000  0.0000000  2
   6395   6393   6396   6398     1  180.0000771  0.3347200  3
   6400   6399   6402   6405     1  0.0000000  0.6508444  3
   6400   6399   6402   6403     1  0.0000000  0.6508444  3
   6400   6399   6402   6404     1  0.0000000  0.6508444  3
   6401   6399   6402   6405     1  0.0000000  0.6508444  3
   6401   6399   6402   6403     1  0.0000000  0.6508444  3
   6401   6399   6402   6404     1  0.0000000  0.6508444  3
   6403   6402   6405   6406     1  0.0000000  3.3472000  1
   6403   6402   6405   6406     1  0.0000000  0.0000000  2
   6403   6402   6405   6406     1  180.0000771  0.3347200  3
   6403   6402   6405   6407     1  0.0000000  3.3472000  1
   6403   6402   6405   6407     1  0.0000000  0.0000000  2
   6403   6402   6405   6407     1  180.0000771  0.3347200  3
   6404   6402   6405   6406     1  0.0000000  3.3472000  1
   6404   6402   6405   6406     1  0.0000000  0.0000000  2
   6404   6402   6405   6406     1  180.0000771  0.3347200  3
   6404   6402   6405   6407     1  0.0000000  3.3472000  1
   6404   6402   6405   6407     1  0.0000000  0.0000000  2
   6404   6402   6405   6407     1  180.0000771  0.3347200  3
   6409   6412   6415   6416     1  0.0000000  0.6508444  3
   6409   6412   6415   6417     1  0.0000000  0.6508444  3
   6410   6409   6412   6415     1  0.0000000  0.6508444  3
   6410   6409   6412   6413     1  0.0000000  0.6508444  3
   6410   6409   6412   6414     1  0.0000000  0.6508444  3
   6411   6409   6412   6415     1  0.0000000  0.6508444  3
   6411   6409   6412   6413     1  0.0000000  0.6508444  3
   6411   6409   6412   6414     1  0.0000000  0.6508444  3
   6413   6412   6415   6418     1  0.0000000  0.6508444  3
   6413   6412   6415   6416     1  0.0000000  0.6508444  3
   6413   6412   6415   6417     1  0.0000000  0.6508444  3
   6413   6412   6409   6437     1  0.0000000  1.0460000  1
   6413   6412   6409   6437     1  0.0000000  0.0000000  3
   6414   6412   6415   6418     1  0.0000000  0.6508444  3
   6414   6412   6415   6416     1  0.0000000  0.6508444  3
   6414   6412   6415   6417     1  0.0000000  0.6508444  3
   6414   6412   6409   6437     1  0.0000000  1.0460000  1
   6414   6412   6409   6437     1  0.0000000  0.0000000  3
   6415   6418   6419   6420     1  0.0000000  1.2552000  3
   6415   6418   6419   6421     1  0.0000000  1.2552000  3
   6415   6418   6428   6429     1  0.0000000  1.2552000  3
   6415   6418   6428   6430     1  0.0000000  1.2552000  3
   6416   6415   6418   6419     1  0.0000000  1.2552000  3
   6416   6415   6418   6428     1  0.0000000  1.2552000  3
   6417   6415   6418   6419     1  0.0000000  1.2552000  3
   6417   6415   6418   6428     1  0.0000000  1.2552000  3
   6418   6419   6422   6423     1  0.0000000  0.6508444  3
   6418   6419   6422   6424     1  0.0000000  0.6508444  3
   6418   6428   6431   6432     1  0.0000000  0.6508444  3
   6418   6428   6431   6433     1  0.0000000  0.6508444  3
   6419   6418   6428   6429     1  0.0000000  1.2552000  3
   6419   6418   6428   6430     1  0.0000000  1.2552000  3
   6420   6419   6422   6425     1  0.0000000  0.6508444  3
   6420   6419   6422   6423     1  0.0000000  0.6508444  3
   6420   6419   6422   6424     1  0.0000000  0.6508444  3
   6420   6419   6418   6428     1  0.0000000  1.2552000  3
   6421   6419   6422   6425     1  0.0000000  0.6508444  3
   6421   6419   6422   6423     1  0.0000000  0.6508444  3
   6421   6419   6422   6424     1  0.0000000  0.6508444  3
   6421   6419   6418   6428     1  0.0000000  1.2552000  3
   6423   6422   6425   6426     1  0.0000000  3.3472000  1
   6423   6422   6425   6426     1  0.0000000  0.0000000  2
   6423   6422   6425   6426     1  180.0000771  0.3347200  3
   6423   6422   6425   6427     1  0.0000000  3.3472000  1
   6423   6422   6425   6427     1  0.0000000  0.0000000  2
   6423   6422   6425   6427     1  180.0000771  0.3347200  3
   6424   6422   6425   6426     1  0.0000000  3.3472000  1
   6424   6422   6425   6426     1  0.0000000  0.0000000  2
   6424   6422   6425   6426     1  180.0000771  0.3347200  3
   6424   6422   6425   6427     1  0.0000000  3.3472000  1
   6424   6422   6425   6427     1  0.0000000  0.0000000  2
   6424   6422   6425   6427     1  180.0000771  0.3347200  3
   6429   6428   6431   6434     1  0.0000000  0.6508444  3
   6429   6428   6431   6432     1  0.0000000  0.6508444  3
   6429   6428   6431   6433     1  0.0000000  0.6508444  3
   6430   6428   6431   6434     1  0.0000000  0.6508444  3
   6430   6428   6431   6432     1  0.0000000  0.6508444  3
   6430   6428   6431   6433     1  0.0000000  0.6508444  3
   6432   6431   6434   6435     1  0.0000000  3.3472000  1
   6432   6431   6434   6435     1  0.0000000  0.0000000  2
   6432   6431   6434   6435     1  180.0000771  0.3347200  3
   6432   6431   6434   6436     1  0.0000000  3.3472000  1
   6432   6431   6434   6436     1  0.0000000  0.0000000  2
   6432   6431   6434   6436     1  180.0000771  0.3347200  3
   6433   6431   6434   6435     1  0.0000000  3.3472000  1
   6433   6431   6434   6435     1  0.0000000  0.0000000  2
   6433   6431   6434   6435     1  180.0000771  0.3347200  3
   6433   6431   6434   6436     1  0.0000000  3.3472000  1
   6433   6431   6434   6436     1  0.0000000  0.0000000  2
   6433   6431   6434   6436     1  180.0000771  0.3347200  3
   6438   6441   6444   6445     1  0.0000000  0.6508444  3
   6438   6441   6444   6446     1  0.0000000  0.6508444  3
   6439   6438   6441   6444     1  0.0000000  0.6508444  3
   6439   6438   6441   6442     1  0.0000000  0.6508444  3
   6439   6438   6441   6443     1  0.0000000  0.6508444  3
   6440   6438   6441   6444     1  0.0000000  0.6508444  3
   6440   6438   6441   6442     1  0.0000000  0.6508444  3
   6440   6438   6441   6443     1  0.0000000  0.6508444  3
   6442   6441   6438   6466     1  0.0000000  1.0460000  1
   6442   6441   6438   6466     1  0.0000000  0.0000000  3
   6442   6441   6444   6447     1  0.0000000  0.6508444  3
   6442   6441   6444   6445     1  0.0000000  0.6508444  3
   6442   6441   6444   6446     1  0.0000000  0.6508444  3
   6443   6441   6438   6466     1  0.0000000  1.0460000  1
   6443   6441   6438   6466     1  0.0000000  0.0000000  3
   6443   6441   6444   6447     1  0.0000000  0.6508444  3
   6443   6441   6444   6445     1  0.0000000  0.6508444  3
   6443   6441   6444   6446     1  0.0000000  0.6508444  3
   6444   6447   6448   6449     1  0.0000000  1.2552000  3
   6444   6447   6448   6450     1  0.0000000  1.2552000  3
   6444   6447   6457   6458     1  0.0000000  1.2552000  3
   6444   6447   6457   6459     1  0.0000000  1.2552000  3
   6445   6444   6447   6448     1  0.0000000  1.2552000  3
   6445   6444   6447   6457     1  0.0000000  1.2552000  3
   6446   6444   6447   6448     1  0.0000000  1.2552000  3
   6446   6444   6447   6457     1  0.0000000  1.2552000  3
   6447   6448   6451   6452     1  0.0000000  0.6508444  3
   6447   6448   6451   6453     1  0.0000000  0.6508444  3
   6447   6457   6460   6461     1  0.0000000  0.6508444  3
   6447   6457   6460   6462     1  0.0000000  0.6508444  3
   6448   6447   6457   6458     1  0.0000000  1.2552000  3
   6448   6447   6457   6459     1  0.0000000  1.2552000  3
   6449   6448   6447   6457     1  0.0000000  1.2552000  3
   6449   6448   6451   6454     1  0.0000000  0.6508444  3
   6449   6448   6451   6452     1  0.0000000  0.6508444  3
   6449   6448   6451   6453     1  0.0000000  0.6508444  3
   6450   6448   6447   6457     1  0.0000000  1.2552000  3
   6450   6448   6451   6454     1  0.0000000  0.6508444  3
   6450   6448   6451   6452     1  0.0000000  0.6508444  3
   6450   6448   6451   6453     1  0.0000000  0.6508444  3
   6452   6451   6454   6455     1  0.0000000  3.3472000  1
   6452   6451   6454   6455     1  0.0000000  0.0000000  2
   6452   6451   6454   6455     1  180.0000771  0.3347200  3
   6452   6451   6454   6456     1  0.0000000  3.3472000  1
   6452   6451   6454   6456     1  0.0000000  0.0000000  2
   6452   6451   6454   6456     1  180.0000771  0.3347200  3
   6453   6451   6454   6455     1  0.0000000  3.3472000  1
   6453   6451   6454   6455     1  0.0000000  0.0000000  2
   6453   6451   6454   6455     1  180.0000771  0.3347200  3
   6453   6451   6454   6456     1  0.0000000  3.3472000  1
   6453   6451   6454   6456     1  0.0000000  0.0000000  2
   6453   6451   6454   6456     1  180.0000771  0.3347200  3
   6458   6457   6460   6463     1  0.0000000  0.6508444  3
   6458   6457   6460   6461     1  0.0000000  0.6508444  3
   6458   6457   6460   6462     1  0.0000000  0.6508444  3
   6459   6457   6460   6463     1  0.0000000  0.6508444  3
   6459   6457   6460   6461     1  0.0000000  0.6508444  3
   6459   6457   6460   6462     1  0.0000000  0.6508444  3
   6461   6460   6463   6464     1  0.0000000  3.3472000  1
   6461   6460   6463   6464     1  0.0000000  0.0000000  2
   6461   6460   6463   6464     1  180.0000771  0.3347200  3
   6461   6460   6463   6465     1  0.0000000  3.3472000  1
   6461   6460   6463   6465     1  0.0000000  0.0000000  2
   6461   6460   6463   6465     1  180.0000771  0.3347200  3
   6462   6460   6463   6464     1  0.0000000  3.3472000  1
   6462   6460   6463   6464     1  0.0000000  0.0000000  2
   6462   6460   6463   6464     1  180.0000771  0.3347200  3
   6462   6460   6463   6465     1  0.0000000  3.3472000  1
   6462   6460   6463   6465     1  0.0000000  0.0000000  2
   6462   6460   6463   6465     1  180.0000771  0.3347200  3
   6467   6470   6473   6474     1  0.0000000  0.6508444  3
   6467   6470   6473   6475     1  0.0000000  0.6508444  3
   6468   6467   6470   6473     1  0.0000000  0.6508444  3
   6468   6467   6470   6471     1  0.0000000  0.6508444  3
   6468   6467   6470   6472     1  0.0000000  0.6508444  3
   6469   6467   6470   6473     1  0.0000000  0.6508444  3
   6469   6467   6470   6471     1  0.0000000  0.6508444  3
   6469   6467   6470   6472     1  0.0000000  0.6508444  3
   6471   6470   6473   6476     1  0.0000000  0.6508444  3
   6471   6470   6473   6474     1  0.0000000  0.6508444  3
   6471   6470   6473   6475     1  0.0000000  0.6508444  3
   6471   6470   6467   6495     1  0.0000000  1.0460000  1
   6471   6470   6467   6495     1  0.0000000  0.0000000  3
   6472   6470   6473   6476     1  0.0000000  0.6508444  3
   6472   6470   6473   6474     1  0.0000000  0.6508444  3
   6472   6470   6473   6475     1  0.0000000  0.6508444  3
   6472   6470   6467   6495     1  0.0000000  1.0460000  1
   6472   6470   6467   6495     1  0.0000000  0.0000000  3
   6473   6476   6477   6478     1  0.0000000  1.2552000  3
   6473   6476   6477   6479     1  0.0000000  1.2552000  3
   6473   6476   6486   6487     1  0.0000000  1.2552000  3
   6473   6476   6486   6488     1  0.0000000  1.2552000  3
   6474   6473   6476   6477     1  0.0000000  1.2552000  3
   6474   6473   6476   6486     1  0.0000000  1.2552000  3
   6475   6473   6476   6477     1  0.0000000  1.2552000  3
   6475   6473   6476   6486     1  0.0000000  1.2552000  3
   6476   6477   6480   6481     1  0.0000000  0.6508444  3
   6476   6477   6480   6482     1  0.0000000  0.6508444  3
   6476   6486   6489   6490     1  0.0000000  0.6508444  3
   6476   6486   6489   6491     1  0.0000000  0.6508444  3
   6477   6476   6486   6487     1  0.0000000  1.2552000  3
   6477   6476   6486   6488     1  0.0000000  1.2552000  3
   6478   6477   6480   6483     1  0.0000000  0.6508444  3
   6478   6477   6480   6481     1  0.0000000  0.6508444  3
   6478   6477   6480   6482     1  0.0000000  0.6508444  3
   6478   6477   6476   6486     1  0.0000000  1.2552000  3
   6479   6477   6480   6483     1  0.0000000  0.6508444  3
   6479   6477   6480   6481     1  0.0000000  0.6508444  3
   6479   6477   6480   6482     1  0.0000000  0.6508444  3
   6479   6477   6476   6486     1  0.0000000  1.2552000  3
   6481   6480   6483   6484     1  0.0000000  3.3472000  1
   6481   6480   6483   6484     1  0.0000000  0.0000000  2
   6481   6480   6483   6484     1  180.0000771  0.3347200  3
   6481   6480   6483   6485     1  0.0000000  3.3472000  1
   6481   6480   6483   6485     1  0.0000000  0.0000000  2
   6481   6480   6483   6485     1  180.0000771  0.3347200  3
   6482   6480   6483   6484     1  0.0000000  3.3472000  1
   6482   6480   6483   6484     1  0.0000000  0.0000000  2
   6482   6480   6483   6484     1  180.0000771  0.3347200  3
   6482   6480   6483   6485     1  0.0000000  3.3472000  1
   6482   6480   6483   6485     1  0.0000000  0.0000000  2
   6482   6480   6483   6485     1  180.0000771  0.3347200  3
   6487   6486   6489   6492     1  0.0000000  0.6508444  3
   6487   6486   6489   6490     1  0.0000000  0.6508444  3
   6487   6486   6489   6491     1  0.0000000  0.6508444  3
   6488   6486   6489   6492     1  0.0000000  0.6508444  3
   6488   6486   6489   6490     1  0.0000000  0.6508444  3
   6488   6486   6489   6491     1  0.0000000  0.6508444  3
   6490   6489   6492   6493     1  0.0000000  3.3472000  1
   6490   6489   6492   6493     1  0.0000000  0.0000000  2
   6490   6489   6492   6493     1  180.0000771  0.3347200  3
   6490   6489   6492   6494     1  0.0000000  3.3472000  1
   6490   6489   6492   6494     1  0.0000000  0.0000000  2
   6490   6489   6492   6494     1  180.0000771  0.3347200  3
   6491   6489   6492   6493     1  0.0000000  3.3472000  1
   6491   6489   6492   6493     1  0.0000000  0.0000000  2
   6491   6489   6492   6493     1  180.0000771  0.3347200  3
   6491   6489   6492   6494     1  0.0000000  3.3472000  1
   6491   6489   6492   6494     1  0.0000000  0.0000000  2
   6491   6489   6492   6494     1  180.0000771  0.3347200  3
   6496   6499   6502   6503     1  0.0000000  0.6508444  3
   6496   6499   6502   6504     1  0.0000000  0.6508444  3
   6497   6496   6499   6502     1  0.0000000  0.6508444  3
   6497   6496   6499   6500     1  0.0000000  0.6508444  3
   6497   6496   6499   6501     1  0.0000000  0.6508444  3
   6498   6496   6499   6502     1  0.0000000  0.6508444  3
   6498   6496   6499   6500     1  0.0000000  0.6508444  3
   6498   6496   6499   6501     1  0.0000000  0.6508444  3
   6500   6499   6496   6524     1  0.0000000  1.0460000  1
   6500   6499   6496   6524     1  0.0000000  0.0000000  3
   6500   6499   6502   6505     1  0.0000000  0.6508444  3
   6500   6499   6502   6503     1  0.0000000  0.6508444  3
   6500   6499   6502   6504     1  0.0000000  0.6508444  3
   6501   6499   6496   6524     1  0.0000000  1.0460000  1
   6501   6499   6496   6524     1  0.0000000  0.0000000  3
   6501   6499   6502   6505     1  0.0000000  0.6508444  3
   6501   6499   6502   6503     1  0.0000000  0.6508444  3
   6501   6499   6502   6504     1  0.0000000  0.6508444  3
   6502   6505   6506   6507     1  0.0000000  1.2552000  3
   6502   6505   6506   6508     1  0.0000000  1.2552000  3
   6502   6505   6515   6516     1  0.0000000  1.2552000  3
   6502   6505   6515   6517     1  0.0000000  1.2552000  3
   6503   6502   6505   6506     1  0.0000000  1.2552000  3
   6503   6502   6505   6515     1  0.0000000  1.2552000  3
   6504   6502   6505   6506     1  0.0000000  1.2552000  3
   6504   6502   6505   6515     1  0.0000000  1.2552000  3
   6505   6506   6509   6510     1  0.0000000  0.6508444  3
   6505   6506   6509   6511     1  0.0000000  0.6508444  3
   6505   6515   6518   6519     1  0.0000000  0.6508444  3
   6505   6515   6518   6520     1  0.0000000  0.6508444  3
   6506   6505   6515   6516     1  0.0000000  1.2552000  3
   6506   6505   6515   6517     1  0.0000000  1.2552000  3
   6507   6506   6505   6515     1  0.0000000  1.2552000  3
   6507   6506   6509   6512     1  0.0000000  0.6508444  3
   6507   6506   6509   6510     1  0.0000000  0.6508444  3
   6507   6506   6509   6511     1  0.0000000  0.6508444  3
   6508   6506   6505   6515     1  0.0000000  1.2552000  3
   6508   6506   6509   6512     1  0.0000000  0.6508444  3
   6508   6506   6509   6510     1  0.0000000  0.6508444  3
   6508   6506   6509   6511     1  0.0000000  0.6508444  3
   6510   6509   6512   6513     1  0.0000000  3.3472000  1
   6510   6509   6512   6513     1  0.0000000  0.0000000  2
   6510   6509   6512   6513     1  180.0000771  0.3347200  3
   6510   6509   6512   6514     1  0.0000000  3.3472000  1
   6510   6509   6512   6514     1  0.0000000  0.0000000  2
   6510   6509   6512   6514     1  180.0000771  0.3347200  3
   6511   6509   6512   6513     1  0.0000000  3.3472000  1
   6511   6509   6512   6513     1  0.0000000  0.0000000  2
   6511   6509   6512   6513     1  180.0000771  0.3347200  3
   6511   6509   6512   6514     1  0.0000000  3.3472000  1
   6511   6509   6512   6514     1  0.0000000  0.0000000  2
   6511   6509   6512   6514     1  180.0000771  0.3347200  3
   6516   6515   6518   6521     1  0.0000000  0.6508444  3
   6516   6515   6518   6519     1  0.0000000  0.6508444  3
   6516   6515   6518   6520     1  0.0000000  0.6508444  3
   6517   6515   6518   6521     1  0.0000000  0.6508444  3
   6517   6515   6518   6519     1  0.0000000  0.6508444  3
   6517   6515   6518   6520     1  0.0000000  0.6508444  3
   6519   6518   6521   6522     1  0.0000000  3.3472000  1
   6519   6518   6521   6522     1  0.0000000  0.0000000  2
   6519   6518   6521   6522     1  180.0000771  0.3347200  3
   6519   6518   6521   6523     1  0.0000000  3.3472000  1
   6519   6518   6521   6523     1  0.0000000  0.0000000  2
   6519   6518   6521   6523     1  180.0000771  0.3347200  3
   6520   6518   6521   6522     1  0.0000000  3.3472000  1
   6520   6518   6521   6522     1  0.0000000  0.0000000  2
   6520   6518   6521   6522     1  180.0000771  0.3347200  3
   6520   6518   6521   6523     1  0.0000000  3.3472000  1
   6520   6518   6521   6523     1  0.0000000  0.0000000  2
   6520   6518   6521   6523     1  180.0000771  0.3347200  3
   6525   6528   6531   6532     1  0.0000000  0.6508444  3
   6525   6528   6531   6533     1  0.0000000  0.6508444  3
   6526   6525   6528   6531     1  0.0000000  0.6508444  3
   6526   6525   6528   6529     1  0.0000000  0.6508444  3
   6526   6525   6528   6530     1  0.0000000  0.6508444  3
   6527   6525   6528   6531     1  0.0000000  0.6508444  3
   6527   6525   6528   6529     1  0.0000000  0.6508444  3
   6527   6525   6528   6530     1  0.0000000  0.6508444  3
   6529   6528   6531   6534     1  0.0000000  0.6508444  3
   6529   6528   6531   6532     1  0.0000000  0.6508444  3
   6529   6528   6531   6533     1  0.0000000  0.6508444  3
   6529   6528   6525   6553     1  0.0000000  1.0460000  1
   6529   6528   6525   6553     1  0.0000000  0.0000000  3
   6530   6528   6531   6534     1  0.0000000  0.6508444  3
   6530   6528   6531   6532     1  0.0000000  0.6508444  3
   6530   6528   6531   6533     1  0.0000000  0.6508444  3
   6530   6528   6525   6553     1  0.0000000  1.0460000  1
   6530   6528   6525   6553     1  0.0000000  0.0000000  3
   6531   6534   6535   6536     1  0.0000000  1.2552000  3
   6531   6534   6535   6537     1  0.0000000  1.2552000  3
   6531   6534   6544   6545     1  0.0000000  1.2552000  3
   6531   6534   6544   6546     1  0.0000000  1.2552000  3
   6532   6531   6534   6535     1  0.0000000  1.2552000  3
   6532   6531   6534   6544     1  0.0000000  1.2552000  3
   6533   6531   6534   6535     1  0.0000000  1.2552000  3
   6533   6531   6534   6544     1  0.0000000  1.2552000  3
   6534   6535   6538   6539     1  0.0000000  0.6508444  3
   6534   6535   6538   6540     1  0.0000000  0.6508444  3
   6534   6544   6547   6548     1  0.0000000  0.6508444  3
   6534   6544   6547   6549     1  0.0000000  0.6508444  3
   6535   6534   6544   6545     1  0.0000000  1.2552000  3
   6535   6534   6544   6546     1  0.0000000  1.2552000  3
   6536   6535   6538   6541     1  0.0000000  0.6508444  3
   6536   6535   6538   6539     1  0.0000000  0.6508444  3
   6536   6535   6538   6540     1  0.0000000  0.6508444  3
   6536   6535   6534   6544     1  0.0000000  1.2552000  3
   6537   6535   6538   6541     1  0.0000000  0.6508444  3
   6537   6535   6538   6539     1  0.0000000  0.6508444  3
   6537   6535   6538   6540     1  0.0000000  0.6508444  3
   6537   6535   6534   6544     1  0.0000000  1.2552000  3
   6539   6538   6541   6542     1  0.0000000  3.3472000  1
   6539   6538   6541   6542     1  0.0000000  0.0000000  2
   6539   6538   6541   6542     1  180.0000771  0.3347200  3
   6539   6538   6541   6543     1  0.0000000  3.3472000  1
   6539   6538   6541   6543     1  0.0000000  0.0000000  2
   6539   6538   6541   6543     1  180.0000771  0.3347200  3
   6540   6538   6541   6542     1  0.0000000  3.3472000  1
   6540   6538   6541   6542     1  0.0000000  0.0000000  2
   6540   6538   6541   6542     1  180.0000771  0.3347200  3
   6540   6538   6541   6543     1  0.0000000  3.3472000  1
   6540   6538   6541   6543     1  0.0000000  0.0000000  2
   6540   6538   6541   6543     1  180.0000771  0.3347200  3
   6545   6544   6547   6550     1  0.0000000  0.6508444  3
   6545   6544   6547   6548     1  0.0000000  0.6508444  3
   6545   6544   6547   6549     1  0.0000000  0.6508444  3
   6546   6544   6547   6550     1  0.0000000  0.6508444  3
   6546   6544   6547   6548     1  0.0000000  0.6508444  3
   6546   6544   6547   6549     1  0.0000000  0.6508444  3
   6548   6547   6550   6551     1  0.0000000  3.3472000  1
   6548   6547   6550   6551     1  0.0000000  0.0000000  2
   6548   6547   6550   6551     1  180.0000771  0.3347200  3
   6548   6547   6550   6552     1  0.0000000  3.3472000  1
   6548   6547   6550   6552     1  0.0000000  0.0000000  2
   6548   6547   6550   6552     1  180.0000771  0.3347200  3
   6549   6547   6550   6551     1  0.0000000  3.3472000  1
   6549   6547   6550   6551     1  0.0000000  0.0000000  2
   6549   6547   6550   6551     1  180.0000771  0.3347200  3
   6549   6547   6550   6552     1  0.0000000  3.3472000  1
   6549   6547   6550   6552     1  0.0000000  0.0000000  2
   6549   6547   6550   6552     1  180.0000771  0.3347200  3
   6554   6557   6560   6561     1  0.0000000  0.6508444  3
   6554   6557   6560   6562     1  0.0000000  0.6508444  3
   6555   6554   6557   6560     1  0.0000000  0.6508444  3
   6555   6554   6557   6558     1  0.0000000  0.6508444  3
   6555   6554   6557   6559     1  0.0000000  0.6508444  3
   6556   6554   6557   6560     1  0.0000000  0.6508444  3
   6556   6554   6557   6558     1  0.0000000  0.6508444  3
   6556   6554   6557   6559     1  0.0000000  0.6508444  3
   6558   6557   6554   6582     1  0.0000000  1.0460000  1
   6558   6557   6554   6582     1  0.0000000  0.0000000  3
   6558   6557   6560   6563     1  0.0000000  0.6508444  3
   6558   6557   6560   6561     1  0.0000000  0.6508444  3
   6558   6557   6560   6562     1  0.0000000  0.6508444  3
   6559   6557   6554   6582     1  0.0000000  1.0460000  1
   6559   6557   6554   6582     1  0.0000000  0.0000000  3
   6559   6557   6560   6563     1  0.0000000  0.6508444  3
   6559   6557   6560   6561     1  0.0000000  0.6508444  3
   6559   6557   6560   6562     1  0.0000000  0.6508444  3
   6560   6563   6564   6565     1  0.0000000  1.2552000  3
   6560   6563   6564   6566     1  0.0000000  1.2552000  3
   6560   6563   6573   6574     1  0.0000000  1.2552000  3
   6560   6563   6573   6575     1  0.0000000  1.2552000  3
   6561   6560   6563   6564     1  0.0000000  1.2552000  3
   6561   6560   6563   6573     1  0.0000000  1.2552000  3
   6562   6560   6563   6564     1  0.0000000  1.2552000  3
   6562   6560   6563   6573     1  0.0000000  1.2552000  3
   6563   6564   6567   6568     1  0.0000000  0.6508444  3
   6563   6564   6567   6569     1  0.0000000  0.6508444  3
   6563   6573   6576   6577     1  0.0000000  0.6508444  3
   6563   6573   6576   6578     1  0.0000000  0.6508444  3
   6564   6563   6573   6574     1  0.0000000  1.2552000  3
   6564   6563   6573   6575     1  0.0000000  1.2552000  3
   6565   6564   6563   6573     1  0.0000000  1.2552000  3
   6565   6564   6567   6570     1  0.0000000  0.6508444  3
   6565   6564   6567   6568     1  0.0000000  0.6508444  3
   6565   6564   6567   6569     1  0.0000000  0.6508444  3
   6566   6564   6563   6573     1  0.0000000  1.2552000  3
   6566   6564   6567   6570     1  0.0000000  0.6508444  3
   6566   6564   6567   6568     1  0.0000000  0.6508444  3
   6566   6564   6567   6569     1  0.0000000  0.6508444  3
   6568   6567   6570   6571     1  0.0000000  3.3472000  1
   6568   6567   6570   6571     1  0.0000000  0.0000000  2
   6568   6567   6570   6571     1  180.0000771  0.3347200  3
   6568   6567   6570   6572     1  0.0000000  3.3472000  1
   6568   6567   6570   6572     1  0.0000000  0.0000000  2
   6568   6567   6570   6572     1  180.0000771  0.3347200  3
   6569   6567   6570   6571     1  0.0000000  3.3472000  1
   6569   6567   6570   6571     1  0.0000000  0.0000000  2
   6569   6567   6570   6571     1  180.0000771  0.3347200  3
   6569   6567   6570   6572     1  0.0000000  3.3472000  1
   6569   6567   6570   6572     1  0.0000000  0.0000000  2
   6569   6567   6570   6572     1  180.0000771  0.3347200  3
   6574   6573   6576   6579     1  0.0000000  0.6508444  3
   6574   6573   6576   6577     1  0.0000000  0.6508444  3
   6574   6573   6576   6578     1  0.0000000  0.6508444  3
   6575   6573   6576   6579     1  0.0000000  0.6508444  3
   6575   6573   6576   6577     1  0.0000000  0.6508444  3
   6575   6573   6576   6578     1  0.0000000  0.6508444  3
   6577   6576   6579   6580     1  0.0000000  3.3472000  1
   6577   6576   6579   6580     1  0.0000000  0.0000000  2
   6577   6576   6579   6580     1  180.0000771  0.3347200  3
   6577   6576   6579   6581     1  0.0000000  3.3472000  1
   6577   6576   6579   6581     1  0.0000000  0.0000000  2
   6577   6576   6579   6581     1  180.0000771  0.3347200  3
   6578   6576   6579   6580     1  0.0000000  3.3472000  1
   6578   6576   6579   6580     1  0.0000000  0.0000000  2
   6578   6576   6579   6580     1  180.0000771  0.3347200  3
   6578   6576   6579   6581     1  0.0000000  3.3472000  1
   6578   6576   6579   6581     1  0.0000000  0.0000000  2
   6578   6576   6579   6581     1  180.0000771  0.3347200  3
   6583   6586   6589   6590     1  0.0000000  0.6508444  3
   6583   6586   6589   6591     1  0.0000000  0.6508444  3
   6584   6583   6586   6589     1  0.0000000  0.6508444  3
   6584   6583   6586   6587     1  0.0000000  0.6508444  3
   6584   6583   6586   6588     1  0.0000000  0.6508444  3
   6585   6583   6586   6589     1  0.0000000  0.6508444  3
   6585   6583   6586   6587     1  0.0000000  0.6508444  3
   6585   6583   6586   6588     1  0.0000000  0.6508444  3
   6587   6586   6589   6592     1  0.0000000  0.6508444  3
   6587   6586   6589   6590     1  0.0000000  0.6508444  3
   6587   6586   6589   6591     1  0.0000000  0.6508444  3
   6587   6586   6583   6611     1  0.0000000  1.0460000  1
   6587   6586   6583   6611     1  0.0000000  0.0000000  3
   6588   6586   6589   6592     1  0.0000000  0.6508444  3
   6588   6586   6589   6590     1  0.0000000  0.6508444  3
   6588   6586   6589   6591     1  0.0000000  0.6508444  3
   6588   6586   6583   6611     1  0.0000000  1.0460000  1
   6588   6586   6583   6611     1  0.0000000  0.0000000  3
   6589   6592   6593   6594     1  0.0000000  1.2552000  3
   6589   6592   6593   6595     1  0.0000000  1.2552000  3
   6589   6592   6602   6603     1  0.0000000  1.2552000  3
   6589   6592   6602   6604     1  0.0000000  1.2552000  3
   6590   6589   6592   6593     1  0.0000000  1.2552000  3
   6590   6589   6592   6602     1  0.0000000  1.2552000  3
   6591   6589   6592   6593     1  0.0000000  1.2552000  3
   6591   6589   6592   6602     1  0.0000000  1.2552000  3
   6592   6593   6596   6597     1  0.0000000  0.6508444  3
   6592   6593   6596   6598     1  0.0000000  0.6508444  3
   6592   6602   6605   6606     1  0.0000000  0.6508444  3
   6592   6602   6605   6607     1  0.0000000  0.6508444  3
   6593   6592   6602   6603     1  0.0000000  1.2552000  3
   6593   6592   6602   6604     1  0.0000000  1.2552000  3
   6594   6593   6596   6599     1  0.0000000  0.6508444  3
   6594   6593   6596   6597     1  0.0000000  0.6508444  3
   6594   6593   6596   6598     1  0.0000000  0.6508444  3
   6594   6593   6592   6602     1  0.0000000  1.2552000  3
   6595   6593   6596   6599     1  0.0000000  0.6508444  3
   6595   6593   6596   6597     1  0.0000000  0.6508444  3
   6595   6593   6596   6598     1  0.0000000  0.6508444  3
   6595   6593   6592   6602     1  0.0000000  1.2552000  3
   6597   6596   6599   6600     1  0.0000000  3.3472000  1
   6597   6596   6599   6600     1  0.0000000  0.0000000  2
   6597   6596   6599   6600     1  180.0000771  0.3347200  3
   6597   6596   6599   6601     1  0.0000000  3.3472000  1
   6597   6596   6599   6601     1  0.0000000  0.0000000  2
   6597   6596   6599   6601     1  180.0000771  0.3347200  3
   6598   6596   6599   6600     1  0.0000000  3.3472000  1
   6598   6596   6599   6600     1  0.0000000  0.0000000  2
   6598   6596   6599   6600     1  180.0000771  0.3347200  3
   6598   6596   6599   6601     1  0.0000000  3.3472000  1
   6598   6596   6599   6601     1  0.0000000  0.0000000  2
   6598   6596   6599   6601     1  180.0000771  0.3347200  3
   6603   6602   6605   6608     1  0.0000000  0.6508444  3
   6603   6602   6605   6606     1  0.0000000  0.6508444  3
   6603   6602   6605   6607     1  0.0000000  0.6508444  3
   6604   6602   6605   6608     1  0.0000000  0.6508444  3
   6604   6602   6605   6606     1  0.0000000  0.6508444  3
   6604   6602   6605   6607     1  0.0000000  0.6508444  3
   6606   6605   6608   6609     1  0.0000000  3.3472000  1
   6606   6605   6608   6609     1  0.0000000  0.0000000  2
   6606   6605   6608   6609     1  180.0000771  0.3347200  3
   6606   6605   6608   6610     1  0.0000000  3.3472000  1
   6606   6605   6608   6610     1  0.0000000  0.0000000  2
   6606   6605   6608   6610     1  180.0000771  0.3347200  3
   6607   6605   6608   6609     1  0.0000000  3.3472000  1
   6607   6605   6608   6609     1  0.0000000  0.0000000  2
   6607   6605   6608   6609     1  180.0000771  0.3347200  3
   6607   6605   6608   6610     1  0.0000000  3.3472000  1
   6607   6605   6608   6610     1  0.0000000  0.0000000  2
   6607   6605   6608   6610     1  180.0000771  0.3347200  3
   6612   6615   6618   6619     1  0.0000000  0.6508444  3
   6612   6615   6618   6620     1  0.0000000  0.6508444  3
   6613   6612   6615   6618     1  0.0000000  0.6508444  3
   6613   6612   6615   6616     1  0.0000000  0.6508444  3
   6613   6612   6615   6617     1  0.0000000  0.6508444  3
   6614   6612   6615   6618     1  0.0000000  0.6508444  3
   6614   6612   6615   6616     1  0.0000000  0.6508444  3
   6614   6612   6615   6617     1  0.0000000  0.6508444  3
   6616   6615   6612   6640     1  0.0000000  1.0460000  1
   6616   6615   6612   6640     1  0.0000000  0.0000000  3
   6616   6615   6618   6621     1  0.0000000  0.6508444  3
   6616   6615   6618   6619     1  0.0000000  0.6508444  3
   6616   6615   6618   6620     1  0.0000000  0.6508444  3
   6617   6615   6612   6640     1  0.0000000  1.0460000  1
   6617   6615   6612   6640     1  0.0000000  0.0000000  3
   6617   6615   6618   6621     1  0.0000000  0.6508444  3
   6617   6615   6618   6619     1  0.0000000  0.6508444  3
   6617   6615   6618   6620     1  0.0000000  0.6508444  3
   6618   6621   6622   6623     1  0.0000000  1.2552000  3
   6618   6621   6622   6624     1  0.0000000  1.2552000  3
   6618   6621   6631   6632     1  0.0000000  1.2552000  3
   6618   6621   6631   6633     1  0.0000000  1.2552000  3
   6619   6618   6621   6622     1  0.0000000  1.2552000  3
   6619   6618   6621   6631     1  0.0000000  1.2552000  3
   6620   6618   6621   6622     1  0.0000000  1.2552000  3
   6620   6618   6621   6631     1  0.0000000  1.2552000  3
   6621   6622   6625   6626     1  0.0000000  0.6508444  3
   6621   6622   6625   6627     1  0.0000000  0.6508444  3
   6621   6631   6634   6635     1  0.0000000  0.6508444  3
   6621   6631   6634   6636     1  0.0000000  0.6508444  3
   6622   6621   6631   6632     1  0.0000000  1.2552000  3
   6622   6621   6631   6633     1  0.0000000  1.2552000  3
   6623   6622   6621   6631     1  0.0000000  1.2552000  3
   6623   6622   6625   6628     1  0.0000000  0.6508444  3
   6623   6622   6625   6626     1  0.0000000  0.6508444  3
   6623   6622   6625   6627     1  0.0000000  0.6508444  3
   6624   6622   6621   6631     1  0.0000000  1.2552000  3
   6624   6622   6625   6628     1  0.0000000  0.6508444  3
   6624   6622   6625   6626     1  0.0000000  0.6508444  3
   6624   6622   6625   6627     1  0.0000000  0.6508444  3
   6626   6625   6628   6629     1  0.0000000  3.3472000  1
   6626   6625   6628   6629     1  0.0000000  0.0000000  2
   6626   6625   6628   6629     1  180.0000771  0.3347200  3
   6626   6625   6628   6630     1  0.0000000  3.3472000  1
   6626   6625   6628   6630     1  0.0000000  0.0000000  2
   6626   6625   6628   6630     1  180.0000771  0.3347200  3
   6627   6625   6628   6629     1  0.0000000  3.3472000  1
   6627   6625   6628   6629     1  0.0000000  0.0000000  2
   6627   6625   6628   6629     1  180.0000771  0.3347200  3
   6627   6625   6628   6630     1  0.0000000  3.3472000  1
   6627   6625   6628   6630     1  0.0000000  0.0000000  2
   6627   6625   6628   6630     1  180.0000771  0.3347200  3
   6632   6631   6634   6637     1  0.0000000  0.6508444  3
   6632   6631   6634   6635     1  0.0000000  0.6508444  3
   6632   6631   6634   6636     1  0.0000000  0.6508444  3
   6633   6631   6634   6637     1  0.0000000  0.6508444  3
   6633   6631   6634   6635     1  0.0000000  0.6508444  3
   6633   6631   6634   6636     1  0.0000000  0.6508444  3
   6635   6634   6637   6638     1  0.0000000  3.3472000  1
   6635   6634   6637   6638     1  0.0000000  0.0000000  2
   6635   6634   6637   6638     1  180.0000771  0.3347200  3
   6635   6634   6637   6639     1  0.0000000  3.3472000  1
   6635   6634   6637   6639     1  0.0000000  0.0000000  2
   6635   6634   6637   6639     1  180.0000771  0.3347200  3
   6636   6634   6637   6638     1  0.0000000  3.3472000  1
   6636   6634   6637   6638     1  0.0000000  0.0000000  2
   6636   6634   6637   6638     1  180.0000771  0.3347200  3
   6636   6634   6637   6639     1  0.0000000  3.3472000  1
   6636   6634   6637   6639     1  0.0000000  0.0000000  2
   6636   6634   6637   6639     1  180.0000771  0.3347200  3
   6641   6644   6647   6648     1  0.0000000  0.6508444  3
   6641   6644   6647   6649     1  0.0000000  0.6508444  3
   6642   6641   6644   6647     1  0.0000000  0.6508444  3
   6642   6641   6644   6645     1  0.0000000  0.6508444  3
   6642   6641   6644   6646     1  0.0000000  0.6508444  3
   6643   6641   6644   6647     1  0.0000000  0.6508444  3
   6643   6641   6644   6645     1  0.0000000  0.6508444  3
   6643   6641   6644   6646     1  0.0000000  0.6508444  3
   6645   6644   6647   6650     1  0.0000000  0.6508444  3
   6645   6644   6647   6648     1  0.0000000  0.6508444  3
   6645   6644   6647   6649     1  0.0000000  0.6508444  3
   6645   6644   6641   6669     1  0.0000000  1.0460000  1
   6645   6644   6641   6669     1  0.0000000  0.0000000  3
   6646   6644   6647   6650     1  0.0000000  0.6508444  3
   6646   6644   6647   6648     1  0.0000000  0.6508444  3
   6646   6644   6647   6649     1  0.0000000  0.6508444  3
   6646   6644   6641   6669     1  0.0000000  1.0460000  1
   6646   6644   6641   6669     1  0.0000000  0.0000000  3
   6647   6650   6651   6652     1  0.0000000  1.2552000  3
   6647   6650   6651   6653     1  0.0000000  1.2552000  3
   6647   6650   6660   6661     1  0.0000000  1.2552000  3
   6647   6650   6660   6662     1  0.0000000  1.2552000  3
   6648   6647   6650   6651     1  0.0000000  1.2552000  3
   6648   6647   6650   6660     1  0.0000000  1.2552000  3
   6649   6647   6650   6651     1  0.0000000  1.2552000  3
   6649   6647   6650   6660     1  0.0000000  1.2552000  3
   6650   6651   6654   6655     1  0.0000000  0.6508444  3
   6650   6651   6654   6656     1  0.0000000  0.6508444  3
   6650   6660   6663   6664     1  0.0000000  0.6508444  3
   6650   6660   6663   6665     1  0.0000000  0.6508444  3
   6651   6650   6660   6661     1  0.0000000  1.2552000  3
   6651   6650   6660   6662     1  0.0000000  1.2552000  3
   6652   6651   6654   6657     1  0.0000000  0.6508444  3
   6652   6651   6654   6655     1  0.0000000  0.6508444  3
   6652   6651   6654   6656     1  0.0000000  0.6508444  3
   6652   6651   6650   6660     1  0.0000000  1.2552000  3
   6653   6651   6654   6657     1  0.0000000  0.6508444  3
   6653   6651   6654   6655     1  0.0000000  0.6508444  3
   6653   6651   6654   6656     1  0.0000000  0.6508444  3
   6653   6651   6650   6660     1  0.0000000  1.2552000  3
   6655   6654   6657   6658     1  0.0000000  3.3472000  1
   6655   6654   6657   6658     1  0.0000000  0.0000000  2
   6655   6654   6657   6658     1  180.0000771  0.3347200  3
   6655   6654   6657   6659     1  0.0000000  3.3472000  1
   6655   6654   6657   6659     1  0.0000000  0.0000000  2
   6655   6654   6657   6659     1  180.0000771  0.3347200  3
   6656   6654   6657   6658     1  0.0000000  3.3472000  1
   6656   6654   6657   6658     1  0.0000000  0.0000000  2
   6656   6654   6657   6658     1  180.0000771  0.3347200  3
   6656   6654   6657   6659     1  0.0000000  3.3472000  1
   6656   6654   6657   6659     1  0.0000000  0.0000000  2
   6656   6654   6657   6659     1  180.0000771  0.3347200  3
   6661   6660   6663   6666     1  0.0000000  0.6508444  3
   6661   6660   6663   6664     1  0.0000000  0.6508444  3
   6661   6660   6663   6665     1  0.0000000  0.6508444  3
   6662   6660   6663   6666     1  0.0000000  0.6508444  3
   6662   6660   6663   6664     1  0.0000000  0.6508444  3
   6662   6660   6663   6665     1  0.0000000  0.6508444  3
   6664   6663   6666   6667     1  0.0000000  3.3472000  1
   6664   6663   6666   6667     1  0.0000000  0.0000000  2
   6664   6663   6666   6667     1  180.0000771  0.3347200  3
   6664   6663   6666   6668     1  0.0000000  3.3472000  1
   6664   6663   6666   6668     1  0.0000000  0.0000000  2
   6664   6663   6666   6668     1  180.0000771  0.3347200  3
   6665   6663   6666   6667     1  0.0000000  3.3472000  1
   6665   6663   6666   6667     1  0.0000000  0.0000000  2
   6665   6663   6666   6667     1  180.0000771  0.3347200  3
   6665   6663   6666   6668     1  0.0000000  3.3472000  1
   6665   6663   6666   6668     1  0.0000000  0.0000000  2
   6665   6663   6666   6668     1  180.0000771  0.3347200  3
   6670   6673   6676   6677     1  0.0000000  0.6508444  3
   6670   6673   6676   6678     1  0.0000000  0.6508444  3
   6671   6670   6673   6676     1  0.0000000  0.6508444  3
   6671   6670   6673   6674     1  0.0000000  0.6508444  3
   6671   6670   6673   6675     1  0.0000000  0.6508444  3
   6672   6670   6673   6676     1  0.0000000  0.6508444  3
   6672   6670   6673   6674     1  0.0000000  0.6508444  3
   6672   6670   6673   6675     1  0.0000000  0.6508444  3
   6674   6673   6670   6698     1  0.0000000  1.0460000  1
   6674   6673   6670   6698     1  0.0000000  0.0000000  3
   6674   6673   6676   6679     1  0.0000000  0.6508444  3
   6674   6673   6676   6677     1  0.0000000  0.6508444  3
   6674   6673   6676   6678     1  0.0000000  0.6508444  3
   6675   6673   6670   6698     1  0.0000000  1.0460000  1
   6675   6673   6670   6698     1  0.0000000  0.0000000  3
   6675   6673   6676   6679     1  0.0000000  0.6508444  3
   6675   6673   6676   6677     1  0.0000000  0.6508444  3
   6675   6673   6676   6678     1  0.0000000  0.6508444  3
   6676   6679   6680   6681     1  0.0000000  1.2552000  3
   6676   6679   6680   6682     1  0.0000000  1.2552000  3
   6676   6679   6689   6690     1  0.0000000  1.2552000  3
   6676   6679   6689   6691     1  0.0000000  1.2552000  3
   6677   6676   6679   6680     1  0.0000000  1.2552000  3
   6677   6676   6679   6689     1  0.0000000  1.2552000  3
   6678   6676   6679   6680     1  0.0000000  1.2552000  3
   6678   6676   6679   6689     1  0.0000000  1.2552000  3
   6679   6680   6683   6684     1  0.0000000  0.6508444  3
   6679   6680   6683   6685     1  0.0000000  0.6508444  3
   6679   6689   6692   6693     1  0.0000000  0.6508444  3
   6679   6689   6692   6694     1  0.0000000  0.6508444  3
   6680   6679   6689   6690     1  0.0000000  1.2552000  3
   6680   6679   6689   6691     1  0.0000000  1.2552000  3
   6681   6680   6679   6689     1  0.0000000  1.2552000  3
   6681   6680   6683   6686     1  0.0000000  0.6508444  3
   6681   6680   6683   6684     1  0.0000000  0.6508444  3
   6681   6680   6683   6685     1  0.0000000  0.6508444  3
   6682   6680   6679   6689     1  0.0000000  1.2552000  3
   6682   6680   6683   6686     1  0.0000000  0.6508444  3
   6682   6680   6683   6684     1  0.0000000  0.6508444  3
   6682   6680   6683   6685     1  0.0000000  0.6508444  3
   6684   6683   6686   6687     1  0.0000000  3.3472000  1
   6684   6683   6686   6687     1  0.0000000  0.0000000  2
   6684   6683   6686   6687     1  180.0000771  0.3347200  3
   6684   6683   6686   6688     1  0.0000000  3.3472000  1
   6684   6683   6686   6688     1  0.0000000  0.0000000  2
   6684   6683   6686   6688     1  180.0000771  0.3347200  3
   6685   6683   6686   6687     1  0.0000000  3.3472000  1
   6685   6683   6686   6687     1  0.0000000  0.0000000  2
   6685   6683   6686   6687     1  180.0000771  0.3347200  3
   6685   6683   6686   6688     1  0.0000000  3.3472000  1
   6685   6683   6686   6688     1  0.0000000  0.0000000  2
   6685   6683   6686   6688     1  180.0000771  0.3347200  3
   6690   6689   6692   6695     1  0.0000000  0.6508444  3
   6690   6689   6692   6693     1  0.0000000  0.6508444  3
   6690   6689   6692   6694     1  0.0000000  0.6508444  3
   6691   6689   6692   6695     1  0.0000000  0.6508444  3
   6691   6689   6692   6693     1  0.0000000  0.6508444  3
   6691   6689   6692   6694     1  0.0000000  0.6508444  3
   6693   6692   6695   6696     1  0.0000000  3.3472000  1
   6693   6692   6695   6696     1  0.0000000  0.0000000  2
   6693   6692   6695   6696     1  180.0000771  0.3347200  3
   6693   6692   6695   6697     1  0.0000000  3.3472000  1
   6693   6692   6695   6697     1  0.0000000  0.0000000  2
   6693   6692   6695   6697     1  180.0000771  0.3347200  3
   6694   6692   6695   6696     1  0.0000000  3.3472000  1
   6694   6692   6695   6696     1  0.0000000  0.0000000  2
   6694   6692   6695   6696     1  180.0000771  0.3347200  3
   6694   6692   6695   6697     1  0.0000000  3.3472000  1
   6694   6692   6695   6697     1  0.0000000  0.0000000  2
   6694   6692   6695   6697     1  180.0000771  0.3347200  3
   6699   6702   6705   6706     1  0.0000000  0.6508444  3
   6699   6702   6705   6707     1  0.0000000  0.6508444  3
   6700   6699   6702   6705     1  0.0000000  0.6508444  3
   6700   6699   6702   6703     1  0.0000000  0.6508444  3
   6700   6699   6702   6704     1  0.0000000  0.6508444  3
   6701   6699   6702   6705     1  0.0000000  0.6508444  3
   6701   6699   6702   6703     1  0.0000000  0.6508444  3
   6701   6699   6702   6704     1  0.0000000  0.6508444  3
   6703   6702   6705   6708     1  0.0000000  0.6508444  3
   6703   6702   6705   6706     1  0.0000000  0.6508444  3
   6703   6702   6705   6707     1  0.0000000  0.6508444  3
   6703   6702   6699   6727     1  0.0000000  1.0460000  1
   6703   6702   6699   6727     1  0.0000000  0.0000000  3
   6704   6702   6705   6708     1  0.0000000  0.6508444  3
   6704   6702   6705   6706     1  0.0000000  0.6508444  3
   6704   6702   6705   6707     1  0.0000000  0.6508444  3
   6704   6702   6699   6727     1  0.0000000  1.0460000  1
   6704   6702   6699   6727     1  0.0000000  0.0000000  3
   6705   6708   6709   6710     1  0.0000000  1.2552000  3
   6705   6708   6709   6711     1  0.0000000  1.2552000  3
   6705   6708   6718   6719     1  0.0000000  1.2552000  3
   6705   6708   6718   6720     1  0.0000000  1.2552000  3
   6706   6705   6708   6709     1  0.0000000  1.2552000  3
   6706   6705   6708   6718     1  0.0000000  1.2552000  3
   6707   6705   6708   6709     1  0.0000000  1.2552000  3
   6707   6705   6708   6718     1  0.0000000  1.2552000  3
   6708   6709   6712   6713     1  0.0000000  0.6508444  3
   6708   6709   6712   6714     1  0.0000000  0.6508444  3
   6708   6718   6721   6722     1  0.0000000  0.6508444  3
   6708   6718   6721   6723     1  0.0000000  0.6508444  3
   6709   6708   6718   6719     1  0.0000000  1.2552000  3
   6709   6708   6718   6720     1  0.0000000  1.2552000  3
   6710   6709   6712   6715     1  0.0000000  0.6508444  3
   6710   6709   6712   6713     1  0.0000000  0.6508444  3
   6710   6709   6712   6714     1  0.0000000  0.6508444  3
   6710   6709   6708   6718     1  0.0000000  1.2552000  3
   6711   6709   6712   6715     1  0.0000000  0.6508444  3
   6711   6709   6712   6713     1  0.0000000  0.6508444  3
   6711   6709   6712   6714     1  0.0000000  0.6508444  3
   6711   6709   6708   6718     1  0.0000000  1.2552000  3
   6713   6712   6715   6716     1  0.0000000  3.3472000  1
   6713   6712   6715   6716     1  0.0000000  0.0000000  2
   6713   6712   6715   6716     1  180.0000771  0.3347200  3
   6713   6712   6715   6717     1  0.0000000  3.3472000  1
   6713   6712   6715   6717     1  0.0000000  0.0000000  2
   6713   6712   6715   6717     1  180.0000771  0.3347200  3
   6714   6712   6715   6716     1  0.0000000  3.3472000  1
   6714   6712   6715   6716     1  0.0000000  0.0000000  2
   6714   6712   6715   6716     1  180.0000771  0.3347200  3
   6714   6712   6715   6717     1  0.0000000  3.3472000  1
   6714   6712   6715   6717     1  0.0000000  0.0000000  2
   6714   6712   6715   6717     1  180.0000771  0.3347200  3
   6719   6718   6721   6724     1  0.0000000  0.6508444  3
   6719   6718   6721   6722     1  0.0000000  0.6508444  3
   6719   6718   6721   6723     1  0.0000000  0.6508444  3
   6720   6718   6721   6724     1  0.0000000  0.6508444  3
   6720   6718   6721   6722     1  0.0000000  0.6508444  3
   6720   6718   6721   6723     1  0.0000000  0.6508444  3
   6722   6721   6724   6725     1  0.0000000  3.3472000  1
   6722   6721   6724   6725     1  0.0000000  0.0000000  2
   6722   6721   6724   6725     1  180.0000771  0.3347200  3
   6722   6721   6724   6726     1  0.0000000  3.3472000  1
   6722   6721   6724   6726     1  0.0000000  0.0000000  2
   6722   6721   6724   6726     1  180.0000771  0.3347200  3
   6723   6721   6724   6725     1  0.0000000  3.3472000  1
   6723   6721   6724   6725     1  0.0000000  0.0000000  2
   6723   6721   6724   6725     1  180.0000771  0.3347200  3
   6723   6721   6724   6726     1  0.0000000  3.3472000  1
   6723   6721   6724   6726     1  0.0000000  0.0000000  2
   6723   6721   6724   6726     1  180.0000771  0.3347200  3
   6728   6731   6734   6735     1  0.0000000  0.6508444  3
   6728   6731   6734   6736     1  0.0000000  0.6508444  3
   6729   6728   6731   6734     1  0.0000000  0.6508444  3
   6729   6728   6731   6732     1  0.0000000  0.6508444  3
   6729   6728   6731   6733     1  0.0000000  0.6508444  3
   6730   6728   6731   6734     1  0.0000000  0.6508444  3
   6730   6728   6731   6732     1  0.0000000  0.6508444  3
   6730   6728   6731   6733     1  0.0000000  0.6508444  3
   6732   6731   6728   6756     1  0.0000000  1.0460000  1
   6732   6731   6728   6756     1  0.0000000  0.0000000  3
   6732   6731   6734   6737     1  0.0000000  0.6508444  3
   6732   6731   6734   6735     1  0.0000000  0.6508444  3
   6732   6731   6734   6736     1  0.0000000  0.6508444  3
   6733   6731   6728   6756     1  0.0000000  1.0460000  1
   6733   6731   6728   6756     1  0.0000000  0.0000000  3
   6733   6731   6734   6737     1  0.0000000  0.6508444  3
   6733   6731   6734   6735     1  0.0000000  0.6508444  3
   6733   6731   6734   6736     1  0.0000000  0.6508444  3
   6734   6737   6738   6739     1  0.0000000  1.2552000  3
   6734   6737   6738   6740     1  0.0000000  1.2552000  3
   6734   6737   6747   6748     1  0.0000000  1.2552000  3
   6734   6737   6747   6749     1  0.0000000  1.2552000  3
   6735   6734   6737   6738     1  0.0000000  1.2552000  3
   6735   6734   6737   6747     1  0.0000000  1.2552000  3
   6736   6734   6737   6738     1  0.0000000  1.2552000  3
   6736   6734   6737   6747     1  0.0000000  1.2552000  3
   6737   6738   6741   6742     1  0.0000000  0.6508444  3
   6737   6738   6741   6743     1  0.0000000  0.6508444  3
   6737   6747   6750   6751     1  0.0000000  0.6508444  3
   6737   6747   6750   6752     1  0.0000000  0.6508444  3
   6738   6737   6747   6748     1  0.0000000  1.2552000  3
   6738   6737   6747   6749     1  0.0000000  1.2552000  3
   6739   6738   6737   6747     1  0.0000000  1.2552000  3
   6739   6738   6741   6744     1  0.0000000  0.6508444  3
   6739   6738   6741   6742     1  0.0000000  0.6508444  3
   6739   6738   6741   6743     1  0.0000000  0.6508444  3
   6740   6738   6737   6747     1  0.0000000  1.2552000  3
   6740   6738   6741   6744     1  0.0000000  0.6508444  3
   6740   6738   6741   6742     1  0.0000000  0.6508444  3
   6740   6738   6741   6743     1  0.0000000  0.6508444  3
   6742   6741   6744   6745     1  0.0000000  3.3472000  1
   6742   6741   6744   6745     1  0.0000000  0.0000000  2
   6742   6741   6744   6745     1  180.0000771  0.3347200  3
   6742   6741   6744   6746     1  0.0000000  3.3472000  1
   6742   6741   6744   6746     1  0.0000000  0.0000000  2
   6742   6741   6744   6746     1  180.0000771  0.3347200  3
   6743   6741   6744   6745     1  0.0000000  3.3472000  1
   6743   6741   6744   6745     1  0.0000000  0.0000000  2
   6743   6741   6744   6745     1  180.0000771  0.3347200  3
   6743   6741   6744   6746     1  0.0000000  3.3472000  1
   6743   6741   6744   6746     1  0.0000000  0.0000000  2
   6743   6741   6744   6746     1  180.0000771  0.3347200  3
   6748   6747   6750   6753     1  0.0000000  0.6508444  3
   6748   6747   6750   6751     1  0.0000000  0.6508444  3
   6748   6747   6750   6752     1  0.0000000  0.6508444  3
   6749   6747   6750   6753     1  0.0000000  0.6508444  3
   6749   6747   6750   6751     1  0.0000000  0.6508444  3
   6749   6747   6750   6752     1  0.0000000  0.6508444  3
   6751   6750   6753   6754     1  0.0000000  3.3472000  1
   6751   6750   6753   6754     1  0.0000000  0.0000000  2
   6751   6750   6753   6754     1  180.0000771  0.3347200  3
   6751   6750   6753   6755     1  0.0000000  3.3472000  1
   6751   6750   6753   6755     1  0.0000000  0.0000000  2
   6751   6750   6753   6755     1  180.0000771  0.3347200  3
   6752   6750   6753   6754     1  0.0000000  3.3472000  1
   6752   6750   6753   6754     1  0.0000000  0.0000000  2
   6752   6750   6753   6754     1  180.0000771  0.3347200  3
   6752   6750   6753   6755     1  0.0000000  3.3472000  1
   6752   6750   6753   6755     1  0.0000000  0.0000000  2
   6752   6750   6753   6755     1  180.0000771  0.3347200  3
   6757   6760   6763   6764     1  0.0000000  0.6508444  3
   6757   6760   6763   6765     1  0.0000000  0.6508444  3
   6758   6757   6760   6763     1  0.0000000  0.6508444  3
   6758   6757   6760   6761     1  0.0000000  0.6508444  3
   6758   6757   6760   6762     1  0.0000000  0.6508444  3
   6759   6757   6760   6763     1  0.0000000  0.6508444  3
   6759   6757   6760   6761     1  0.0000000  0.6508444  3
   6759   6757   6760   6762     1  0.0000000  0.6508444  3
   6761   6760   6763   6766     1  0.0000000  0.6508444  3
   6761   6760   6763   6764     1  0.0000000  0.6508444  3
   6761   6760   6763   6765     1  0.0000000  0.6508444  3
   6761   6760   6757   6785     1  0.0000000  1.0460000  1
   6761   6760   6757   6785     1  0.0000000  0.0000000  3
   6762   6760   6763   6766     1  0.0000000  0.6508444  3
   6762   6760   6763   6764     1  0.0000000  0.6508444  3
   6762   6760   6763   6765     1  0.0000000  0.6508444  3
   6762   6760   6757   6785     1  0.0000000  1.0460000  1
   6762   6760   6757   6785     1  0.0000000  0.0000000  3
   6763   6766   6767   6768     1  0.0000000  1.2552000  3
   6763   6766   6767   6769     1  0.0000000  1.2552000  3
   6763   6766   6776   6777     1  0.0000000  1.2552000  3
   6763   6766   6776   6778     1  0.0000000  1.2552000  3
   6764   6763   6766   6767     1  0.0000000  1.2552000  3
   6764   6763   6766   6776     1  0.0000000  1.2552000  3
   6765   6763   6766   6767     1  0.0000000  1.2552000  3
   6765   6763   6766   6776     1  0.0000000  1.2552000  3
   6766   6767   6770   6771     1  0.0000000  0.6508444  3
   6766   6767   6770   6772     1  0.0000000  0.6508444  3
   6766   6776   6779   6780     1  0.0000000  0.6508444  3
   6766   6776   6779   6781     1  0.0000000  0.6508444  3
   6767   6766   6776   6777     1  0.0000000  1.2552000  3
   6767   6766   6776   6778     1  0.0000000  1.2552000  3
   6768   6767   6770   6773     1  0.0000000  0.6508444  3
   6768   6767   6770   6771     1  0.0000000  0.6508444  3
   6768   6767   6770   6772     1  0.0000000  0.6508444  3
   6768   6767   6766   6776     1  0.0000000  1.2552000  3
   6769   6767   6770   6773     1  0.0000000  0.6508444  3
   6769   6767   6770   6771     1  0.0000000  0.6508444  3
   6769   6767   6770   6772     1  0.0000000  0.6508444  3
   6769   6767   6766   6776     1  0.0000000  1.2552000  3
   6771   6770   6773   6774     1  0.0000000  3.3472000  1
   6771   6770   6773   6774     1  0.0000000  0.0000000  2
   6771   6770   6773   6774     1  180.0000771  0.3347200  3
   6771   6770   6773   6775     1  0.0000000  3.3472000  1
   6771   6770   6773   6775     1  0.0000000  0.0000000  2
   6771   6770   6773   6775     1  180.0000771  0.3347200  3
   6772   6770   6773   6774     1  0.0000000  3.3472000  1
   6772   6770   6773   6774     1  0.0000000  0.0000000  2
   6772   6770   6773   6774     1  180.0000771  0.3347200  3
   6772   6770   6773   6775     1  0.0000000  3.3472000  1
   6772   6770   6773   6775     1  0.0000000  0.0000000  2
   6772   6770   6773   6775     1  180.0000771  0.3347200  3
   6777   6776   6779   6782     1  0.0000000  0.6508444  3
   6777   6776   6779   6780     1  0.0000000  0.6508444  3
   6777   6776   6779   6781     1  0.0000000  0.6508444  3
   6778   6776   6779   6782     1  0.0000000  0.6508444  3
   6778   6776   6779   6780     1  0.0000000  0.6508444  3
   6778   6776   6779   6781     1  0.0000000  0.6508444  3
   6780   6779   6782   6783     1  0.0000000  3.3472000  1
   6780   6779   6782   6783     1  0.0000000  0.0000000  2
   6780   6779   6782   6783     1  180.0000771  0.3347200  3
   6780   6779   6782   6784     1  0.0000000  3.3472000  1
   6780   6779   6782   6784     1  0.0000000  0.0000000  2
   6780   6779   6782   6784     1  180.0000771  0.3347200  3
   6781   6779   6782   6783     1  0.0000000  3.3472000  1
   6781   6779   6782   6783     1  0.0000000  0.0000000  2
   6781   6779   6782   6783     1  180.0000771  0.3347200  3
   6781   6779   6782   6784     1  0.0000000  3.3472000  1
   6781   6779   6782   6784     1  0.0000000  0.0000000  2
   6781   6779   6782   6784     1  180.0000771  0.3347200  3
   6786   6789   6792   6793     1  0.0000000  0.6508444  3
   6786   6789   6792   6794     1  0.0000000  0.6508444  3
   6787   6786   6789   6792     1  0.0000000  0.6508444  3
   6787   6786   6789   6790     1  0.0000000  0.6508444  3
   6787   6786   6789   6791     1  0.0000000  0.6508444  3
   6788   6786   6789   6792     1  0.0000000  0.6508444  3
   6788   6786   6789   6790     1  0.0000000  0.6508444  3
   6788   6786   6789   6791     1  0.0000000  0.6508444  3
   6790   6789   6786   6814     1  0.0000000  1.0460000  1
   6790   6789   6786   6814     1  0.0000000  0.0000000  3
   6790   6789   6792   6795     1  0.0000000  0.6508444  3
   6790   6789   6792   6793     1  0.0000000  0.6508444  3
   6790   6789   6792   6794     1  0.0000000  0.6508444  3
   6791   6789   6786   6814     1  0.0000000  1.0460000  1
   6791   6789   6786   6814     1  0.0000000  0.0000000  3
   6791   6789   6792   6795     1  0.0000000  0.6508444  3
   6791   6789   6792   6793     1  0.0000000  0.6508444  3
   6791   6789   6792   6794     1  0.0000000  0.6508444  3
   6792   6795   6796   6797     1  0.0000000  1.2552000  3
   6792   6795   6796   6798     1  0.0000000  1.2552000  3
   6792   6795   6805   6806     1  0.0000000  1.2552000  3
   6792   6795   6805   6807     1  0.0000000  1.2552000  3
   6793   6792   6795   6796     1  0.0000000  1.2552000  3
   6793   6792   6795   6805     1  0.0000000  1.2552000  3
   6794   6792   6795   6796     1  0.0000000  1.2552000  3
   6794   6792   6795   6805     1  0.0000000  1.2552000  3
   6795   6796   6799   6800     1  0.0000000  0.6508444  3
   6795   6796   6799   6801     1  0.0000000  0.6508444  3
   6795   6805   6808   6809     1  0.0000000  0.6508444  3
   6795   6805   6808   6810     1  0.0000000  0.6508444  3
   6796   6795   6805   6806     1  0.0000000  1.2552000  3
   6796   6795   6805   6807     1  0.0000000  1.2552000  3
   6797   6796   6795   6805     1  0.0000000  1.2552000  3
   6797   6796   6799   6802     1  0.0000000  0.6508444  3
   6797   6796   6799   6800     1  0.0000000  0.6508444  3
   6797   6796   6799   6801     1  0.0000000  0.6508444  3
   6798   6796   6795   6805     1  0.0000000  1.2552000  3
   6798   6796   6799   6802     1  0.0000000  0.6508444  3
   6798   6796   6799   6800     1  0.0000000  0.6508444  3
   6798   6796   6799   6801     1  0.0000000  0.6508444  3
   6800   6799   6802   6803     1  0.0000000  3.3472000  1
   6800   6799   6802   6803     1  0.0000000  0.0000000  2
   6800   6799   6802   6803     1  180.0000771  0.3347200  3
   6800   6799   6802   6804     1  0.0000000  3.3472000  1
   6800   6799   6802   6804     1  0.0000000  0.0000000  2
   6800   6799   6802   6804     1  180.0000771  0.3347200  3
   6801   6799   6802   6803     1  0.0000000  3.3472000  1
   6801   6799   6802   6803     1  0.0000000  0.0000000  2
   6801   6799   6802   6803     1  180.0000771  0.3347200  3
   6801   6799   6802   6804     1  0.0000000  3.3472000  1
   6801   6799   6802   6804     1  0.0000000  0.0000000  2
   6801   6799   6802   6804     1  180.0000771  0.3347200  3
   6806   6805   6808   6811     1  0.0000000  0.6508444  3
   6806   6805   6808   6809     1  0.0000000  0.6508444  3
   6806   6805   6808   6810     1  0.0000000  0.6508444  3
   6807   6805   6808   6811     1  0.0000000  0.6508444  3
   6807   6805   6808   6809     1  0.0000000  0.6508444  3
   6807   6805   6808   6810     1  0.0000000  0.6508444  3
   6809   6808   6811   6812     1  0.0000000  3.3472000  1
   6809   6808   6811   6812     1  0.0000000  0.0000000  2
   6809   6808   6811   6812     1  180.0000771  0.3347200  3
   6809   6808   6811   6813     1  0.0000000  3.3472000  1
   6809   6808   6811   6813     1  0.0000000  0.0000000  2
   6809   6808   6811   6813     1  180.0000771  0.3347200  3
   6810   6808   6811   6812     1  0.0000000  3.3472000  1
   6810   6808   6811   6812     1  0.0000000  0.0000000  2
   6810   6808   6811   6812     1  180.0000771  0.3347200  3
   6810   6808   6811   6813     1  0.0000000  3.3472000  1
   6810   6808   6811   6813     1  0.0000000  0.0000000  2
   6810   6808   6811   6813     1  180.0000771  0.3347200  3
   6815   6818   6821   6822     1  0.0000000  0.6508444  3
   6815   6818   6821   6823     1  0.0000000  0.6508444  3
   6816   6815   6818   6821     1  0.0000000  0.6508444  3
   6816   6815   6818   6819     1  0.0000000  0.6508444  3
   6816   6815   6818   6820     1  0.0000000  0.6508444  3
   6817   6815   6818   6821     1  0.0000000  0.6508444  3
   6817   6815   6818   6819     1  0.0000000  0.6508444  3
   6817   6815   6818   6820     1  0.0000000  0.6508444  3
   6819   6818   6821   6824     1  0.0000000  0.6508444  3
   6819   6818   6821   6822     1  0.0000000  0.6508444  3
   6819   6818   6821   6823     1  0.0000000  0.6508444  3
   6819   6818   6815   6843     1  0.0000000  1.0460000  1
   6819   6818   6815   6843     1  0.0000000  0.0000000  3
   6820   6818   6821   6824     1  0.0000000  0.6508444  3
   6820   6818   6821   6822     1  0.0000000  0.6508444  3
   6820   6818   6821   6823     1  0.0000000  0.6508444  3
   6820   6818   6815   6843     1  0.0000000  1.0460000  1
   6820   6818   6815   6843     1  0.0000000  0.0000000  3
   6821   6824   6825   6826     1  0.0000000  1.2552000  3
   6821   6824   6825   6827     1  0.0000000  1.2552000  3
   6821   6824   6834   6835     1  0.0000000  1.2552000  3
   6821   6824   6834   6836     1  0.0000000  1.2552000  3
   6822   6821   6824   6825     1  0.0000000  1.2552000  3
   6822   6821   6824   6834     1  0.0000000  1.2552000  3
   6823   6821   6824   6825     1  0.0000000  1.2552000  3
   6823   6821   6824   6834     1  0.0000000  1.2552000  3
   6824   6825   6828   6829     1  0.0000000  0.6508444  3
   6824   6825   6828   6830     1  0.0000000  0.6508444  3
   6824   6834   6837   6838     1  0.0000000  0.6508444  3
   6824   6834   6837   6839     1  0.0000000  0.6508444  3
   6825   6824   6834   6835     1  0.0000000  1.2552000  3
   6825   6824   6834   6836     1  0.0000000  1.2552000  3
   6826   6825   6828   6831     1  0.0000000  0.6508444  3
   6826   6825   6828   6829     1  0.0000000  0.6508444  3
   6826   6825   6828   6830     1  0.0000000  0.6508444  3
   6826   6825   6824   6834     1  0.0000000  1.2552000  3
   6827   6825   6828   6831     1  0.0000000  0.6508444  3
   6827   6825   6828   6829     1  0.0000000  0.6508444  3
   6827   6825   6828   6830     1  0.0000000  0.6508444  3
   6827   6825   6824   6834     1  0.0000000  1.2552000  3
   6829   6828   6831   6832     1  0.0000000  3.3472000  1
   6829   6828   6831   6832     1  0.0000000  0.0000000  2
   6829   6828   6831   6832     1  180.0000771  0.3347200  3
   6829   6828   6831   6833     1  0.0000000  3.3472000  1
   6829   6828   6831   6833     1  0.0000000  0.0000000  2
   6829   6828   6831   6833     1  180.0000771  0.3347200  3
   6830   6828   6831   6832     1  0.0000000  3.3472000  1
   6830   6828   6831   6832     1  0.0000000  0.0000000  2
   6830   6828   6831   6832     1  180.0000771  0.3347200  3
   6830   6828   6831   6833     1  0.0000000  3.3472000  1
   6830   6828   6831   6833     1  0.0000000  0.0000000  2
   6830   6828   6831   6833     1  180.0000771  0.3347200  3
   6835   6834   6837   6840     1  0.0000000  0.6508444  3
   6835   6834   6837   6838     1  0.0000000  0.6508444  3
   6835   6834   6837   6839     1  0.0000000  0.6508444  3
   6836   6834   6837   6840     1  0.0000000  0.6508444  3
   6836   6834   6837   6838     1  0.0000000  0.6508444  3
   6836   6834   6837   6839     1  0.0000000  0.6508444  3
   6838   6837   6840   6841     1  0.0000000  3.3472000  1
   6838   6837   6840   6841     1  0.0000000  0.0000000  2
   6838   6837   6840   6841     1  180.0000771  0.3347200  3
   6838   6837   6840   6842     1  0.0000000  3.3472000  1
   6838   6837   6840   6842     1  0.0000000  0.0000000  2
   6838   6837   6840   6842     1  180.0000771  0.3347200  3
   6839   6837   6840   6841     1  0.0000000  3.3472000  1
   6839   6837   6840   6841     1  0.0000000  0.0000000  2
   6839   6837   6840   6841     1  180.0000771  0.3347200  3
   6839   6837   6840   6842     1  0.0000000  3.3472000  1
   6839   6837   6840   6842     1  0.0000000  0.0000000  2
   6839   6837   6840   6842     1  180.0000771  0.3347200  3
   6844   6847   6850   6851     1  0.0000000  0.6508444  3
   6844   6847   6850   6852     1  0.0000000  0.6508444  3
   6845   6844   6847   6850     1  0.0000000  0.6508444  3
   6845   6844   6847   6848     1  0.0000000  0.6508444  3
   6845   6844   6847   6849     1  0.0000000  0.6508444  3
   6846   6844   6847   6850     1  0.0000000  0.6508444  3
   6846   6844   6847   6848     1  0.0000000  0.6508444  3
   6846   6844   6847   6849     1  0.0000000  0.6508444  3
   6848   6847   6844   6872     1  0.0000000  1.0460000  1
   6848   6847   6844   6872     1  0.0000000  0.0000000  3
   6848   6847   6850   6853     1  0.0000000  0.6508444  3
   6848   6847   6850   6851     1  0.0000000  0.6508444  3
   6848   6847   6850   6852     1  0.0000000  0.6508444  3
   6849   6847   6844   6872     1  0.0000000  1.0460000  1
   6849   6847   6844   6872     1  0.0000000  0.0000000  3
   6849   6847   6850   6853     1  0.0000000  0.6508444  3
   6849   6847   6850   6851     1  0.0000000  0.6508444  3
   6849   6847   6850   6852     1  0.0000000  0.6508444  3
   6850   6853   6854   6855     1  0.0000000  1.2552000  3
   6850   6853   6854   6856     1  0.0000000  1.2552000  3
   6850   6853   6863   6864     1  0.0000000  1.2552000  3
   6850   6853   6863   6865     1  0.0000000  1.2552000  3
   6851   6850   6853   6854     1  0.0000000  1.2552000  3
   6851   6850   6853   6863     1  0.0000000  1.2552000  3
   6852   6850   6853   6854     1  0.0000000  1.2552000  3
   6852   6850   6853   6863     1  0.0000000  1.2552000  3
   6853   6854   6857   6858     1  0.0000000  0.6508444  3
   6853   6854   6857   6859     1  0.0000000  0.6508444  3
   6853   6863   6866   6867     1  0.0000000  0.6508444  3
   6853   6863   6866   6868     1  0.0000000  0.6508444  3
   6854   6853   6863   6864     1  0.0000000  1.2552000  3
   6854   6853   6863   6865     1  0.0000000  1.2552000  3
   6855   6854   6853   6863     1  0.0000000  1.2552000  3
   6855   6854   6857   6860     1  0.0000000  0.6508444  3
   6855   6854   6857   6858     1  0.0000000  0.6508444  3
   6855   6854   6857   6859     1  0.0000000  0.6508444  3
   6856   6854   6853   6863     1  0.0000000  1.2552000  3
   6856   6854   6857   6860     1  0.0000000  0.6508444  3
   6856   6854   6857   6858     1  0.0000000  0.6508444  3
   6856   6854   6857   6859     1  0.0000000  0.6508444  3
   6858   6857   6860   6861     1  0.0000000  3.3472000  1
   6858   6857   6860   6861     1  0.0000000  0.0000000  2
   6858   6857   6860   6861     1  180.0000771  0.3347200  3
   6858   6857   6860   6862     1  0.0000000  3.3472000  1
   6858   6857   6860   6862     1  0.0000000  0.0000000  2
   6858   6857   6860   6862     1  180.0000771  0.3347200  3
   6859   6857   6860   6861     1  0.0000000  3.3472000  1
   6859   6857   6860   6861     1  0.0000000  0.0000000  2
   6859   6857   6860   6861     1  180.0000771  0.3347200  3
   6859   6857   6860   6862     1  0.0000000  3.3472000  1
   6859   6857   6860   6862     1  0.0000000  0.0000000  2
   6859   6857   6860   6862     1  180.0000771  0.3347200  3
   6864   6863   6866   6869     1  0.0000000  0.6508444  3
   6864   6863   6866   6867     1  0.0000000  0.6508444  3
   6864   6863   6866   6868     1  0.0000000  0.6508444  3
   6865   6863   6866   6869     1  0.0000000  0.6508444  3
   6865   6863   6866   6867     1  0.0000000  0.6508444  3
   6865   6863   6866   6868     1  0.0000000  0.6508444  3
   6867   6866   6869   6870     1  0.0000000  3.3472000  1
   6867   6866   6869   6870     1  0.0000000  0.0000000  2
   6867   6866   6869   6870     1  180.0000771  0.3347200  3
   6867   6866   6869   6871     1  0.0000000  3.3472000  1
   6867   6866   6869   6871     1  0.0000000  0.0000000  2
   6867   6866   6869   6871     1  180.0000771  0.3347200  3
   6868   6866   6869   6870     1  0.0000000  3.3472000  1
   6868   6866   6869   6870     1  0.0000000  0.0000000  2
   6868   6866   6869   6870     1  180.0000771  0.3347200  3
   6868   6866   6869   6871     1  0.0000000  3.3472000  1
   6868   6866   6869   6871     1  0.0000000  0.0000000  2
   6868   6866   6869   6871     1  180.0000771  0.3347200  3
   6873   6876   6879   6880     1  0.0000000  0.6508444  3
   6873   6876   6879   6881     1  0.0000000  0.6508444  3
   6874   6873   6876   6879     1  0.0000000  0.6508444  3
   6874   6873   6876   6877     1  0.0000000  0.6508444  3
   6874   6873   6876   6878     1  0.0000000  0.6508444  3
   6875   6873   6876   6879     1  0.0000000  0.6508444  3
   6875   6873   6876   6877     1  0.0000000  0.6508444  3
   6875   6873   6876   6878     1  0.0000000  0.6508444  3
   6877   6876   6879   6882     1  0.0000000  0.6508444  3
   6877   6876   6879   6880     1  0.0000000  0.6508444  3
   6877   6876   6879   6881     1  0.0000000  0.6508444  3
   6877   6876   6873   6901     1  0.0000000  1.0460000  1
   6877   6876   6873   6901     1  0.0000000  0.0000000  3
   6878   6876   6879   6882     1  0.0000000  0.6508444  3
   6878   6876   6879   6880     1  0.0000000  0.6508444  3
   6878   6876   6879   6881     1  0.0000000  0.6508444  3
   6878   6876   6873   6901     1  0.0000000  1.0460000  1
   6878   6876   6873   6901     1  0.0000000  0.0000000  3
   6879   6882   6883   6884     1  0.0000000  1.2552000  3
   6879   6882   6883   6885     1  0.0000000  1.2552000  3
   6879   6882   6892   6893     1  0.0000000  1.2552000  3
   6879   6882   6892   6894     1  0.0000000  1.2552000  3
   6880   6879   6882   6883     1  0.0000000  1.2552000  3
   6880   6879   6882   6892     1  0.0000000  1.2552000  3
   6881   6879   6882   6883     1  0.0000000  1.2552000  3
   6881   6879   6882   6892     1  0.0000000  1.2552000  3
   6882   6883   6886   6887     1  0.0000000  0.6508444  3
   6882   6883   6886   6888     1  0.0000000  0.6508444  3
   6882   6892   6895   6896     1  0.0000000  0.6508444  3
   6882   6892   6895   6897     1  0.0000000  0.6508444  3
   6883   6882   6892   6893     1  0.0000000  1.2552000  3
   6883   6882   6892   6894     1  0.0000000  1.2552000  3
   6884   6883   6886   6889     1  0.0000000  0.6508444  3
   6884   6883   6886   6887     1  0.0000000  0.6508444  3
   6884   6883   6886   6888     1  0.0000000  0.6508444  3
   6884   6883   6882   6892     1  0.0000000  1.2552000  3
   6885   6883   6886   6889     1  0.0000000  0.6508444  3
   6885   6883   6886   6887     1  0.0000000  0.6508444  3
   6885   6883   6886   6888     1  0.0000000  0.6508444  3
   6885   6883   6882   6892     1  0.0000000  1.2552000  3
   6887   6886   6889   6890     1  0.0000000  3.3472000  1
   6887   6886   6889   6890     1  0.0000000  0.0000000  2
   6887   6886   6889   6890     1  180.0000771  0.3347200  3
   6887   6886   6889   6891     1  0.0000000  3.3472000  1
   6887   6886   6889   6891     1  0.0000000  0.0000000  2
   6887   6886   6889   6891     1  180.0000771  0.3347200  3
   6888   6886   6889   6890     1  0.0000000  3.3472000  1
   6888   6886   6889   6890     1  0.0000000  0.0000000  2
   6888   6886   6889   6890     1  180.0000771  0.3347200  3
   6888   6886   6889   6891     1  0.0000000  3.3472000  1
   6888   6886   6889   6891     1  0.0000000  0.0000000  2
   6888   6886   6889   6891     1  180.0000771  0.3347200  3
   6893   6892   6895   6898     1  0.0000000  0.6508444  3
   6893   6892   6895   6896     1  0.0000000  0.6508444  3
   6893   6892   6895   6897     1  0.0000000  0.6508444  3
   6894   6892   6895   6898     1  0.0000000  0.6508444  3
   6894   6892   6895   6896     1  0.0000000  0.6508444  3
   6894   6892   6895   6897     1  0.0000000  0.6508444  3
   6896   6895   6898   6899     1  0.0000000  3.3472000  1
   6896   6895   6898   6899     1  0.0000000  0.0000000  2
   6896   6895   6898   6899     1  180.0000771  0.3347200  3
   6896   6895   6898   6900     1  0.0000000  3.3472000  1
   6896   6895   6898   6900     1  0.0000000  0.0000000  2
   6896   6895   6898   6900     1  180.0000771  0.3347200  3
   6897   6895   6898   6899     1  0.0000000  3.3472000  1
   6897   6895   6898   6899     1  0.0000000  0.0000000  2
   6897   6895   6898   6899     1  180.0000771  0.3347200  3
   6897   6895   6898   6900     1  0.0000000  3.3472000  1
   6897   6895   6898   6900     1  0.0000000  0.0000000  2
   6897   6895   6898   6900     1  180.0000771  0.3347200  3
   6902   6905   6908   6909     1  0.0000000  0.6508444  3
   6902   6905   6908   6910     1  0.0000000  0.6508444  3
   6903   6902   6905   6908     1  0.0000000  0.6508444  3
   6903   6902   6905   6906     1  0.0000000  0.6508444  3
   6903   6902   6905   6907     1  0.0000000  0.6508444  3
   6904   6902   6905   6908     1  0.0000000  0.6508444  3
   6904   6902   6905   6906     1  0.0000000  0.6508444  3
   6904   6902   6905   6907     1  0.0000000  0.6508444  3
   6906   6905   6902   6930     1  0.0000000  1.0460000  1
   6906   6905   6902   6930     1  0.0000000  0.0000000  3
   6906   6905   6908   6911     1  0.0000000  0.6508444  3
   6906   6905   6908   6909     1  0.0000000  0.6508444  3
   6906   6905   6908   6910     1  0.0000000  0.6508444  3
   6907   6905   6902   6930     1  0.0000000  1.0460000  1
   6907   6905   6902   6930     1  0.0000000  0.0000000  3
   6907   6905   6908   6911     1  0.0000000  0.6508444  3
   6907   6905   6908   6909     1  0.0000000  0.6508444  3
   6907   6905   6908   6910     1  0.0000000  0.6508444  3
   6908   6911   6912   6913     1  0.0000000  1.2552000  3
   6908   6911   6912   6914     1  0.0000000  1.2552000  3
   6908   6911   6921   6922     1  0.0000000  1.2552000  3
   6908   6911   6921   6923     1  0.0000000  1.2552000  3
   6909   6908   6911   6912     1  0.0000000  1.2552000  3
   6909   6908   6911   6921     1  0.0000000  1.2552000  3
   6910   6908   6911   6912     1  0.0000000  1.2552000  3
   6910   6908   6911   6921     1  0.0000000  1.2552000  3
   6911   6912   6915   6916     1  0.0000000  0.6508444  3
   6911   6912   6915   6917     1  0.0000000  0.6508444  3
   6911   6921   6924   6925     1  0.0000000  0.6508444  3
   6911   6921   6924   6926     1  0.0000000  0.6508444  3
   6912   6911   6921   6922     1  0.0000000  1.2552000  3
   6912   6911   6921   6923     1  0.0000000  1.2552000  3
   6913   6912   6911   6921     1  0.0000000  1.2552000  3
   6913   6912   6915   6918     1  0.0000000  0.6508444  3
   6913   6912   6915   6916     1  0.0000000  0.6508444  3
   6913   6912   6915   6917     1  0.0000000  0.6508444  3
   6914   6912   6911   6921     1  0.0000000  1.2552000  3
   6914   6912   6915   6918     1  0.0000000  0.6508444  3
   6914   6912   6915   6916     1  0.0000000  0.6508444  3
   6914   6912   6915   6917     1  0.0000000  0.6508444  3
   6916   6915   6918   6919     1  0.0000000  3.3472000  1
   6916   6915   6918   6919     1  0.0000000  0.0000000  2
   6916   6915   6918   6919     1  180.0000771  0.3347200  3
   6916   6915   6918   6920     1  0.0000000  3.3472000  1
   6916   6915   6918   6920     1  0.0000000  0.0000000  2
   6916   6915   6918   6920     1  180.0000771  0.3347200  3
   6917   6915   6918   6919     1  0.0000000  3.3472000  1
   6917   6915   6918   6919     1  0.0000000  0.0000000  2
   6917   6915   6918   6919     1  180.0000771  0.3347200  3
   6917   6915   6918   6920     1  0.0000000  3.3472000  1
   6917   6915   6918   6920     1  0.0000000  0.0000000  2
   6917   6915   6918   6920     1  180.0000771  0.3347200  3
   6922   6921   6924   6927     1  0.0000000  0.6508444  3
   6922   6921   6924   6925     1  0.0000000  0.6508444  3
   6922   6921   6924   6926     1  0.0000000  0.6508444  3
   6923   6921   6924   6927     1  0.0000000  0.6508444  3
   6923   6921   6924   6925     1  0.0000000  0.6508444  3
   6923   6921   6924   6926     1  0.0000000  0.6508444  3
   6925   6924   6927   6928     1  0.0000000  3.3472000  1
   6925   6924   6927   6928     1  0.0000000  0.0000000  2
   6925   6924   6927   6928     1  180.0000771  0.3347200  3
   6925   6924   6927   6929     1  0.0000000  3.3472000  1
   6925   6924   6927   6929     1  0.0000000  0.0000000  2
   6925   6924   6927   6929     1  180.0000771  0.3347200  3
   6926   6924   6927   6928     1  0.0000000  3.3472000  1
   6926   6924   6927   6928     1  0.0000000  0.0000000  2
   6926   6924   6927   6928     1  180.0000771  0.3347200  3
   6926   6924   6927   6929     1  0.0000000  3.3472000  1
   6926   6924   6927   6929     1  0.0000000  0.0000000  2
   6926   6924   6927   6929     1  180.0000771  0.3347200  3
   6931   6934   6937   6938     1  0.0000000  0.6508444  3
   6931   6934   6937   6939     1  0.0000000  0.6508444  3
   6932   6931   6934   6937     1  0.0000000  0.6508444  3
   6932   6931   6934   6935     1  0.0000000  0.6508444  3
   6932   6931   6934   6936     1  0.0000000  0.6508444  3
   6933   6931   6934   6937     1  0.0000000  0.6508444  3
   6933   6931   6934   6935     1  0.0000000  0.6508444  3
   6933   6931   6934   6936     1  0.0000000  0.6508444  3
   6935   6934   6937   6940     1  0.0000000  0.6508444  3
   6935   6934   6937   6938     1  0.0000000  0.6508444  3
   6935   6934   6937   6939     1  0.0000000  0.6508444  3
   6935   6934   6931   6959     1  0.0000000  1.0460000  1
   6935   6934   6931   6959     1  0.0000000  0.0000000  3
   6936   6934   6937   6940     1  0.0000000  0.6508444  3
   6936   6934   6937   6938     1  0.0000000  0.6508444  3
   6936   6934   6937   6939     1  0.0000000  0.6508444  3
   6936   6934   6931   6959     1  0.0000000  1.0460000  1
   6936   6934   6931   6959     1  0.0000000  0.0000000  3
   6937   6940   6941   6942     1  0.0000000  1.2552000  3
   6937   6940   6941   6943     1  0.0000000  1.2552000  3
   6937   6940   6950   6951     1  0.0000000  1.2552000  3
   6937   6940   6950   6952     1  0.0000000  1.2552000  3
   6938   6937   6940   6941     1  0.0000000  1.2552000  3
   6938   6937   6940   6950     1  0.0000000  1.2552000  3
   6939   6937   6940   6941     1  0.0000000  1.2552000  3
   6939   6937   6940   6950     1  0.0000000  1.2552000  3
   6940   6941   6944   6945     1  0.0000000  0.6508444  3
   6940   6941   6944   6946     1  0.0000000  0.6508444  3
   6940   6950   6953   6954     1  0.0000000  0.6508444  3
   6940   6950   6953   6955     1  0.0000000  0.6508444  3
   6941   6940   6950   6951     1  0.0000000  1.2552000  3
   6941   6940   6950   6952     1  0.0000000  1.2552000  3
   6942   6941   6944   6947     1  0.0000000  0.6508444  3
   6942   6941   6944   6945     1  0.0000000  0.6508444  3
   6942   6941   6944   6946     1  0.0000000  0.6508444  3
   6942   6941   6940   6950     1  0.0000000  1.2552000  3
   6943   6941   6944   6947     1  0.0000000  0.6508444  3
   6943   6941   6944   6945     1  0.0000000  0.6508444  3
   6943   6941   6944   6946     1  0.0000000  0.6508444  3
   6943   6941   6940   6950     1  0.0000000  1.2552000  3
   6945   6944   6947   6948     1  0.0000000  3.3472000  1
   6945   6944   6947   6948     1  0.0000000  0.0000000  2
   6945   6944   6947   6948     1  180.0000771  0.3347200  3
   6945   6944   6947   6949     1  0.0000000  3.3472000  1
   6945   6944   6947   6949     1  0.0000000  0.0000000  2
   6945   6944   6947   6949     1  180.0000771  0.3347200  3
   6946   6944   6947   6948     1  0.0000000  3.3472000  1
   6946   6944   6947   6948     1  0.0000000  0.0000000  2
   6946   6944   6947   6948     1  180.0000771  0.3347200  3
   6946   6944   6947   6949     1  0.0000000  3.3472000  1
   6946   6944   6947   6949     1  0.0000000  0.0000000  2
   6946   6944   6947   6949     1  180.0000771  0.3347200  3
   6951   6950   6953   6956     1  0.0000000  0.6508444  3
   6951   6950   6953   6954     1  0.0000000  0.6508444  3
   6951   6950   6953   6955     1  0.0000000  0.6508444  3
   6952   6950   6953   6956     1  0.0000000  0.6508444  3
   6952   6950   6953   6954     1  0.0000000  0.6508444  3
   6952   6950   6953   6955     1  0.0000000  0.6508444  3
   6954   6953   6956   6957     1  0.0000000  3.3472000  1
   6954   6953   6956   6957     1  0.0000000  0.0000000  2
   6954   6953   6956   6957     1  180.0000771  0.3347200  3
   6954   6953   6956   6958     1  0.0000000  3.3472000  1
   6954   6953   6956   6958     1  0.0000000  0.0000000  2
   6954   6953   6956   6958     1  180.0000771  0.3347200  3
   6955   6953   6956   6957     1  0.0000000  3.3472000  1
   6955   6953   6956   6957     1  0.0000000  0.0000000  2
   6955   6953   6956   6957     1  180.0000771  0.3347200  3
   6955   6953   6956   6958     1  0.0000000  3.3472000  1
   6955   6953   6956   6958     1  0.0000000  0.0000000  2
   6955   6953   6956   6958     1  180.0000771  0.3347200  3
   6960   6963   6966   6967     1  0.0000000  0.6508444  3
   6960   6963   6966   6968     1  0.0000000  0.6508444  3
   6961   6960   6963   6966     1  0.0000000  0.6508444  3
   6961   6960   6963   6964     1  0.0000000  0.6508444  3
   6961   6960   6963   6965     1  0.0000000  0.6508444  3
   6962   6960   6963   6966     1  0.0000000  0.6508444  3
   6962   6960   6963   6964     1  0.0000000  0.6508444  3
   6962   6960   6963   6965     1  0.0000000  0.6508444  3
   6964   6963   6960   6988     1  0.0000000  1.0460000  1
   6964   6963   6960   6988     1  0.0000000  0.0000000  3
   6964   6963   6966   6969     1  0.0000000  0.6508444  3
   6964   6963   6966   6967     1  0.0000000  0.6508444  3
   6964   6963   6966   6968     1  0.0000000  0.6508444  3
   6965   6963   6960   6988     1  0.0000000  1.0460000  1
   6965   6963   6960   6988     1  0.0000000  0.0000000  3
   6965   6963   6966   6969     1  0.0000000  0.6508444  3
   6965   6963   6966   6967     1  0.0000000  0.6508444  3
   6965   6963   6966   6968     1  0.0000000  0.6508444  3
   6966   6969   6970   6971     1  0.0000000  1.2552000  3
   6966   6969   6970   6972     1  0.0000000  1.2552000  3
   6966   6969   6979   6980     1  0.0000000  1.2552000  3
   6966   6969   6979   6981     1  0.0000000  1.2552000  3
   6967   6966   6969   6970     1  0.0000000  1.2552000  3
   6967   6966   6969   6979     1  0.0000000  1.2552000  3
   6968   6966   6969   6970     1  0.0000000  1.2552000  3
   6968   6966   6969   6979     1  0.0000000  1.2552000  3
   6969   6970   6973   6974     1  0.0000000  0.6508444  3
   6969   6970   6973   6975     1  0.0000000  0.6508444  3
   6969   6979   6982   6983     1  0.0000000  0.6508444  3
   6969   6979   6982   6984     1  0.0000000  0.6508444  3
   6970   6969   6979   6980     1  0.0000000  1.2552000  3
   6970   6969   6979   6981     1  0.0000000  1.2552000  3
   6971   6970   6969   6979     1  0.0000000  1.2552000  3
   6971   6970   6973   6976     1  0.0000000  0.6508444  3
   6971   6970   6973   6974     1  0.0000000  0.6508444  3
   6971   6970   6973   6975     1  0.0000000  0.6508444  3
   6972   6970   6969   6979     1  0.0000000  1.2552000  3
   6972   6970   6973   6976     1  0.0000000  0.6508444  3
   6972   6970   6973   6974     1  0.0000000  0.6508444  3
   6972   6970   6973   6975     1  0.0000000  0.6508444  3
   6974   6973   6976   6977     1  0.0000000  3.3472000  1
   6974   6973   6976   6977     1  0.0000000  0.0000000  2
   6974   6973   6976   6977     1  180.0000771  0.3347200  3
   6974   6973   6976   6978     1  0.0000000  3.3472000  1
   6974   6973   6976   6978     1  0.0000000  0.0000000  2
   6974   6973   6976   6978     1  180.0000771  0.3347200  3
   6975   6973   6976   6977     1  0.0000000  3.3472000  1
   6975   6973   6976   6977     1  0.0000000  0.0000000  2
   6975   6973   6976   6977     1  180.0000771  0.3347200  3
   6975   6973   6976   6978     1  0.0000000  3.3472000  1
   6975   6973   6976   6978     1  0.0000000  0.0000000  2
   6975   6973   6976   6978     1  180.0000771  0.3347200  3
   6980   6979   6982   6985     1  0.0000000  0.6508444  3
   6980   6979   6982   6983     1  0.0000000  0.6508444  3
   6980   6979   6982   6984     1  0.0000000  0.6508444  3
   6981   6979   6982   6985     1  0.0000000  0.6508444  3
   6981   6979   6982   6983     1  0.0000000  0.6508444  3
   6981   6979   6982   6984     1  0.0000000  0.6508444  3
   6983   6982   6985   6986     1  0.0000000  3.3472000  1
   6983   6982   6985   6986     1  0.0000000  0.0000000  2
   6983   6982   6985   6986     1  180.0000771  0.3347200  3
   6983   6982   6985   6987     1  0.0000000  3.3472000  1
   6983   6982   6985   6987     1  0.0000000  0.0000000  2
   6983   6982   6985   6987     1  180.0000771  0.3347200  3
   6984   6982   6985   6986     1  0.0000000  3.3472000  1
   6984   6982   6985   6986     1  0.0000000  0.0000000  2
   6984   6982   6985   6986     1  180.0000771  0.3347200  3
   6984   6982   6985   6987     1  0.0000000  3.3472000  1
   6984   6982   6985   6987     1  0.0000000  0.0000000  2
   6984   6982   6985   6987     1  180.0000771  0.3347200  3
   6989   6992   6995   6996     1  0.0000000  0.6508444  3
   6989   6992   6995   6997     1  0.0000000  0.6508444  3
   6990   6989   6992   6995     1  0.0000000  0.6508444  3
   6990   6989   6992   6993     1  0.0000000  0.6508444  3
   6990   6989   6992   6994     1  0.0000000  0.6508444  3
   6991   6989   6992   6995     1  0.0000000  0.6508444  3
   6991   6989   6992   6993     1  0.0000000  0.6508444  3
   6991   6989   6992   6994     1  0.0000000  0.6508444  3
   6993   6992   6995   6998     1  0.0000000  0.6508444  3
   6993   6992   6995   6996     1  0.0000000  0.6508444  3
   6993   6992   6995   6997     1  0.0000000  0.6508444  3
   6993   6992   6989   7017     1  0.0000000  1.0460000  1
   6993   6992   6989   7017     1  0.0000000  0.0000000  3
   6994   6992   6995   6998     1  0.0000000  0.6508444  3
   6994   6992   6995   6996     1  0.0000000  0.6508444  3
   6994   6992   6995   6997     1  0.0000000  0.6508444  3
   6994   6992   6989   7017     1  0.0000000  1.0460000  1
   6994   6992   6989   7017     1  0.0000000  0.0000000  3
   6995   6998   6999   7000     1  0.0000000  1.2552000  3
   6995   6998   6999   7001     1  0.0000000  1.2552000  3
   6995   6998   7008   7009     1  0.0000000  1.2552000  3
   6995   6998   7008   7010     1  0.0000000  1.2552000  3
   6996   6995   6998   6999     1  0.0000000  1.2552000  3
   6996   6995   6998   7008     1  0.0000000  1.2552000  3
   6997   6995   6998   6999     1  0.0000000  1.2552000  3
   6997   6995   6998   7008     1  0.0000000  1.2552000  3
   6998   6999   7002   7003     1  0.0000000  0.6508444  3
   6998   6999   7002   7004     1  0.0000000  0.6508444  3
   6998   7008   7011   7012     1  0.0000000  0.6508444  3
   6998   7008   7011   7013     1  0.0000000  0.6508444  3
   6999   6998   7008   7009     1  0.0000000  1.2552000  3
   6999   6998   7008   7010     1  0.0000000  1.2552000  3
   7000   6999   7002   7005     1  0.0000000  0.6508444  3
   7000   6999   7002   7003     1  0.0000000  0.6508444  3
   7000   6999   7002   7004     1  0.0000000  0.6508444  3
   7000   6999   6998   7008     1  0.0000000  1.2552000  3
   7001   6999   7002   7005     1  0.0000000  0.6508444  3
   7001   6999   7002   7003     1  0.0000000  0.6508444  3
   7001   6999   7002   7004     1  0.0000000  0.6508444  3
   7001   6999   6998   7008     1  0.0000000  1.2552000  3
   7003   7002   7005   7006     1  0.0000000  3.3472000  1
   7003   7002   7005   7006     1  0.0000000  0.0000000  2
   7003   7002   7005   7006     1  180.0000771  0.3347200  3
   7003   7002   7005   7007     1  0.0000000  3.3472000  1
   7003   7002   7005   7007     1  0.0000000  0.0000000  2
   7003   7002   7005   7007     1  180.0000771  0.3347200  3
   7004   7002   7005   7006     1  0.0000000  3.3472000  1
   7004   7002   7005   7006     1  0.0000000  0.0000000  2
   7004   7002   7005   7006     1  180.0000771  0.3347200  3
   7004   7002   7005   7007     1  0.0000000  3.3472000  1
   7004   7002   7005   7007     1  0.0000000  0.0000000  2
   7004   7002   7005   7007     1  180.0000771  0.3347200  3
   7009   7008   7011   7014     1  0.0000000  0.6508444  3
   7009   7008   7011   7012     1  0.0000000  0.6508444  3
   7009   7008   7011   7013     1  0.0000000  0.6508444  3
   7010   7008   7011   7014     1  0.0000000  0.6508444  3
   7010   7008   7011   7012     1  0.0000000  0.6508444  3
   7010   7008   7011   7013     1  0.0000000  0.6508444  3
   7012   7011   7014   7015     1  0.0000000  3.3472000  1
   7012   7011   7014   7015     1  0.0000000  0.0000000  2
   7012   7011   7014   7015     1  180.0000771  0.3347200  3
   7012   7011   7014   7016     1  0.0000000  3.3472000  1
   7012   7011   7014   7016     1  0.0000000  0.0000000  2
   7012   7011   7014   7016     1  180.0000771  0.3347200  3
   7013   7011   7014   7015     1  0.0000000  3.3472000  1
   7013   7011   7014   7015     1  0.0000000  0.0000000  2
   7013   7011   7014   7015     1  180.0000771  0.3347200  3
   7013   7011   7014   7016     1  0.0000000  3.3472000  1
   7013   7011   7014   7016     1  0.0000000  0.0000000  2
   7013   7011   7014   7016     1  180.0000771  0.3347200  3
   7018   7021   7024   7025     1  0.0000000  0.6508444  3
   7018   7021   7024   7026     1  0.0000000  0.6508444  3
   7019   7018   7021   7024     1  0.0000000  0.6508444  3
   7019   7018   7021   7022     1  0.0000000  0.6508444  3
   7019   7018   7021   7023     1  0.0000000  0.6508444  3
   7020   7018   7021   7024     1  0.0000000  0.6508444  3
   7020   7018   7021   7022     1  0.0000000  0.6508444  3
   7020   7018   7021   7023     1  0.0000000  0.6508444  3
   7022   7021   7018   7046     1  0.0000000  1.0460000  1
   7022   7021   7018   7046     1  0.0000000  0.0000000  3
   7022   7021   7024   7027     1  0.0000000  0.6508444  3
   7022   7021   7024   7025     1  0.0000000  0.6508444  3
   7022   7021   7024   7026     1  0.0000000  0.6508444  3
   7023   7021   7018   7046     1  0.0000000  1.0460000  1
   7023   7021   7018   7046     1  0.0000000  0.0000000  3
   7023   7021   7024   7027     1  0.0000000  0.6508444  3
   7023   7021   7024   7025     1  0.0000000  0.6508444  3
   7023   7021   7024   7026     1  0.0000000  0.6508444  3
   7024   7027   7028   7029     1  0.0000000  1.2552000  3
   7024   7027   7028   7030     1  0.0000000  1.2552000  3
   7024   7027   7037   7038     1  0.0000000  1.2552000  3
   7024   7027   7037   7039     1  0.0000000  1.2552000  3
   7025   7024   7027   7028     1  0.0000000  1.2552000  3
   7025   7024   7027   7037     1  0.0000000  1.2552000  3
   7026   7024   7027   7028     1  0.0000000  1.2552000  3
   7026   7024   7027   7037     1  0.0000000  1.2552000  3
   7027   7028   7031   7032     1  0.0000000  0.6508444  3
   7027   7028   7031   7033     1  0.0000000  0.6508444  3
   7027   7037   7040   7041     1  0.0000000  0.6508444  3
   7027   7037   7040   7042     1  0.0000000  0.6508444  3
   7028   7027   7037   7038     1  0.0000000  1.2552000  3
   7028   7027   7037   7039     1  0.0000000  1.2552000  3
   7029   7028   7027   7037     1  0.0000000  1.2552000  3
   7029   7028   7031   7034     1  0.0000000  0.6508444  3
   7029   7028   7031   7032     1  0.0000000  0.6508444  3
   7029   7028   7031   7033     1  0.0000000  0.6508444  3
   7030   7028   7027   7037     1  0.0000000  1.2552000  3
   7030   7028   7031   7034     1  0.0000000  0.6508444  3
   7030   7028   7031   7032     1  0.0000000  0.6508444  3
   7030   7028   7031   7033     1  0.0000000  0.6508444  3
   7032   7031   7034   7035     1  0.0000000  3.3472000  1
   7032   7031   7034   7035     1  0.0000000  0.0000000  2
   7032   7031   7034   7035     1  180.0000771  0.3347200  3
   7032   7031   7034   7036     1  0.0000000  3.3472000  1
   7032   7031   7034   7036     1  0.0000000  0.0000000  2
   7032   7031   7034   7036     1  180.0000771  0.3347200  3
   7033   7031   7034   7035     1  0.0000000  3.3472000  1
   7033   7031   7034   7035     1  0.0000000  0.0000000  2
   7033   7031   7034   7035     1  180.0000771  0.3347200  3
   7033   7031   7034   7036     1  0.0000000  3.3472000  1
   7033   7031   7034   7036     1  0.0000000  0.0000000  2
   7033   7031   7034   7036     1  180.0000771  0.3347200  3
   7038   7037   7040   7043     1  0.0000000  0.6508444  3
   7038   7037   7040   7041     1  0.0000000  0.6508444  3
   7038   7037   7040   7042     1  0.0000000  0.6508444  3
   7039   7037   7040   7043     1  0.0000000  0.6508444  3
   7039   7037   7040   7041     1  0.0000000  0.6508444  3
   7039   7037   7040   7042     1  0.0000000  0.6508444  3
   7041   7040   7043   7044     1  0.0000000  3.3472000  1
   7041   7040   7043   7044     1  0.0000000  0.0000000  2
   7041   7040   7043   7044     1  180.0000771  0.3347200  3
   7041   7040   7043   7045     1  0.0000000  3.3472000  1
   7041   7040   7043   7045     1  0.0000000  0.0000000  2
   7041   7040   7043   7045     1  180.0000771  0.3347200  3
   7042   7040   7043   7044     1  0.0000000  3.3472000  1
   7042   7040   7043   7044     1  0.0000000  0.0000000  2
   7042   7040   7043   7044     1  180.0000771  0.3347200  3
   7042   7040   7043   7045     1  0.0000000  3.3472000  1
   7042   7040   7043   7045     1  0.0000000  0.0000000  2
   7042   7040   7043   7045     1  180.0000771  0.3347200  3
   7047   7050   7053   7054     1  0.0000000  0.6508444  3
   7047   7050   7053   7055     1  0.0000000  0.6508444  3
   7048   7047   7050   7053     1  0.0000000  0.6508444  3
   7048   7047   7050   7051     1  0.0000000  0.6508444  3
   7048   7047   7050   7052     1  0.0000000  0.6508444  3
   7049   7047   7050   7053     1  0.0000000  0.6508444  3
   7049   7047   7050   7051     1  0.0000000  0.6508444  3
   7049   7047   7050   7052     1  0.0000000  0.6508444  3
   7051   7050   7053   7056     1  0.0000000  0.6508444  3
   7051   7050   7053   7054     1  0.0000000  0.6508444  3
   7051   7050   7053   7055     1  0.0000000  0.6508444  3
   7051   7050   7047   7075     1  0.0000000  1.0460000  1
   7051   7050   7047   7075     1  0.0000000  0.0000000  3
   7052   7050   7053   7056     1  0.0000000  0.6508444  3
   7052   7050   7053   7054     1  0.0000000  0.6508444  3
   7052   7050   7053   7055     1  0.0000000  0.6508444  3
   7052   7050   7047   7075     1  0.0000000  1.0460000  1
   7052   7050   7047   7075     1  0.0000000  0.0000000  3
   7053   7056   7057   7058     1  0.0000000  1.2552000  3
   7053   7056   7057   7059     1  0.0000000  1.2552000  3
   7053   7056   7066   7067     1  0.0000000  1.2552000  3
   7053   7056   7066   7068     1  0.0000000  1.2552000  3
   7054   7053   7056   7057     1  0.0000000  1.2552000  3
   7054   7053   7056   7066     1  0.0000000  1.2552000  3
   7055   7053   7056   7057     1  0.0000000  1.2552000  3
   7055   7053   7056   7066     1  0.0000000  1.2552000  3
   7056   7057   7060   7061     1  0.0000000  0.6508444  3
   7056   7057   7060   7062     1  0.0000000  0.6508444  3
   7056   7066   7069   7070     1  0.0000000  0.6508444  3
   7056   7066   7069   7071     1  0.0000000  0.6508444  3
   7057   7056   7066   7067     1  0.0000000  1.2552000  3
   7057   7056   7066   7068     1  0.0000000  1.2552000  3
   7058   7057   7060   7063     1  0.0000000  0.6508444  3
   7058   7057   7060   7061     1  0.0000000  0.6508444  3
   7058   7057   7060   7062     1  0.0000000  0.6508444  3
   7058   7057   7056   7066     1  0.0000000  1.2552000  3
   7059   7057   7060   7063     1  0.0000000  0.6508444  3
   7059   7057   7060   7061     1  0.0000000  0.6508444  3
   7059   7057   7060   7062     1  0.0000000  0.6508444  3
   7059   7057   7056   7066     1  0.0000000  1.2552000  3
   7061   7060   7063   7064     1  0.0000000  3.3472000  1
   7061   7060   7063   7064     1  0.0000000  0.0000000  2
   7061   7060   7063   7064     1  180.0000771  0.3347200  3
   7061   7060   7063   7065     1  0.0000000  3.3472000  1
   7061   7060   7063   7065     1  0.0000000  0.0000000  2
   7061   7060   7063   7065     1  180.0000771  0.3347200  3
   7062   7060   7063   7064     1  0.0000000  3.3472000  1
   7062   7060   7063   7064     1  0.0000000  0.0000000  2
   7062   7060   7063   7064     1  180.0000771  0.3347200  3
   7062   7060   7063   7065     1  0.0000000  3.3472000  1
   7062   7060   7063   7065     1  0.0000000  0.0000000  2
   7062   7060   7063   7065     1  180.0000771  0.3347200  3
   7067   7066   7069   7072     1  0.0000000  0.6508444  3
   7067   7066   7069   7070     1  0.0000000  0.6508444  3
   7067   7066   7069   7071     1  0.0000000  0.6508444  3
   7068   7066   7069   7072     1  0.0000000  0.6508444  3
   7068   7066   7069   7070     1  0.0000000  0.6508444  3
   7068   7066   7069   7071     1  0.0000000  0.6508444  3
   7070   7069   7072   7073     1  0.0000000  3.3472000  1
   7070   7069   7072   7073     1  0.0000000  0.0000000  2
   7070   7069   7072   7073     1  180.0000771  0.3347200  3
   7070   7069   7072   7074     1  0.0000000  3.3472000  1
   7070   7069   7072   7074     1  0.0000000  0.0000000  2
   7070   7069   7072   7074     1  180.0000771  0.3347200  3
   7071   7069   7072   7073     1  0.0000000  3.3472000  1
   7071   7069   7072   7073     1  0.0000000  0.0000000  2
   7071   7069   7072   7073     1  180.0000771  0.3347200  3
   7071   7069   7072   7074     1  0.0000000  3.3472000  1
   7071   7069   7072   7074     1  0.0000000  0.0000000  2
   7071   7069   7072   7074     1  180.0000771  0.3347200  3
   7076   7079   7082   7083     1  0.0000000  0.6508444  3
   7076   7079   7082   7084     1  0.0000000  0.6508444  3
   7077   7076   7079   7082     1  0.0000000  0.6508444  3
   7077   7076   7079   7080     1  0.0000000  0.6508444  3
   7077   7076   7079   7081     1  0.0000000  0.6508444  3
   7078   7076   7079   7082     1  0.0000000  0.6508444  3
   7078   7076   7079   7080     1  0.0000000  0.6508444  3
   7078   7076   7079   7081     1  0.0000000  0.6508444  3
   7080   7079   7076   7104     1  0.0000000  1.0460000  1
   7080   7079   7076   7104     1  0.0000000  0.0000000  3
   7080   7079   7082   7085     1  0.0000000  0.6508444  3
   7080   7079   7082   7083     1  0.0000000  0.6508444  3
   7080   7079   7082   7084     1  0.0000000  0.6508444  3
   7081   7079   7076   7104     1  0.0000000  1.0460000  1
   7081   7079   7076   7104     1  0.0000000  0.0000000  3
   7081   7079   7082   7085     1  0.0000000  0.6508444  3
   7081   7079   7082   7083     1  0.0000000  0.6508444  3
   7081   7079   7082   7084     1  0.0000000  0.6508444  3
   7082   7085   7086   7087     1  0.0000000  1.2552000  3
   7082   7085   7086   7088     1  0.0000000  1.2552000  3
   7082   7085   7095   7096     1  0.0000000  1.2552000  3
   7082   7085   7095   7097     1  0.0000000  1.2552000  3
   7083   7082   7085   7086     1  0.0000000  1.2552000  3
   7083   7082   7085   7095     1  0.0000000  1.2552000  3
   7084   7082   7085   7086     1  0.0000000  1.2552000  3
   7084   7082   7085   7095     1  0.0000000  1.2552000  3
   7085   7086   7089   7090     1  0.0000000  0.6508444  3
   7085   7086   7089   7091     1  0.0000000  0.6508444  3
   7085   7095   7098   7099     1  0.0000000  0.6508444  3
   7085   7095   7098   7100     1  0.0000000  0.6508444  3
   7086   7085   7095   7096     1  0.0000000  1.2552000  3
   7086   7085   7095   7097     1  0.0000000  1.2552000  3
   7087   7086   7085   7095     1  0.0000000  1.2552000  3
   7087   7086   7089   7092     1  0.0000000  0.6508444  3
   7087   7086   7089   7090     1  0.0000000  0.6508444  3
   7087   7086   7089   7091     1  0.0000000  0.6508444  3
   7088   7086   7085   7095     1  0.0000000  1.2552000  3
   7088   7086   7089   7092     1  0.0000000  0.6508444  3
   7088   7086   7089   7090     1  0.0000000  0.6508444  3
   7088   7086   7089   7091     1  0.0000000  0.6508444  3
   7090   7089   7092   7093     1  0.0000000  3.3472000  1
   7090   7089   7092   7093     1  0.0000000  0.0000000  2
   7090   7089   7092   7093     1  180.0000771  0.3347200  3
   7090   7089   7092   7094     1  0.0000000  3.3472000  1
   7090   7089   7092   7094     1  0.0000000  0.0000000  2
   7090   7089   7092   7094     1  180.0000771  0.3347200  3
   7091   7089   7092   7093     1  0.0000000  3.3472000  1
   7091   7089   7092   7093     1  0.0000000  0.0000000  2
   7091   7089   7092   7093     1  180.0000771  0.3347200  3
   7091   7089   7092   7094     1  0.0000000  3.3472000  1
   7091   7089   7092   7094     1  0.0000000  0.0000000  2
   7091   7089   7092   7094     1  180.0000771  0.3347200  3
   7096   7095   7098   7101     1  0.0000000  0.6508444  3
   7096   7095   7098   7099     1  0.0000000  0.6508444  3
   7096   7095   7098   7100     1  0.0000000  0.6508444  3
   7097   7095   7098   7101     1  0.0000000  0.6508444  3
   7097   7095   7098   7099     1  0.0000000  0.6508444  3
   7097   7095   7098   7100     1  0.0000000  0.6508444  3
   7099   7098   7101   7102     1  0.0000000  3.3472000  1
   7099   7098   7101   7102     1  0.0000000  0.0000000  2
   7099   7098   7101   7102     1  180.0000771  0.3347200  3
   7099   7098   7101   7103     1  0.0000000  3.3472000  1
   7099   7098   7101   7103     1  0.0000000  0.0000000  2
   7099   7098   7101   7103     1  180.0000771  0.3347200  3
   7100   7098   7101   7102     1  0.0000000  3.3472000  1
   7100   7098   7101   7102     1  0.0000000  0.0000000  2
   7100   7098   7101   7102     1  180.0000771  0.3347200  3
   7100   7098   7101   7103     1  0.0000000  3.3472000  1
   7100   7098   7101   7103     1  0.0000000  0.0000000  2
   7100   7098   7101   7103     1  180.0000771  0.3347200  3
   7105   7108   7111   7112     1  0.0000000  0.6508444  3
   7105   7108   7111   7113     1  0.0000000  0.6508444  3
   7106   7105   7108   7111     1  0.0000000  0.6508444  3
   7106   7105   7108   7109     1  0.0000000  0.6508444  3
   7106   7105   7108   7110     1  0.0000000  0.6508444  3
   7107   7105   7108   7111     1  0.0000000  0.6508444  3
   7107   7105   7108   7109     1  0.0000000  0.6508444  3
   7107   7105   7108   7110     1  0.0000000  0.6508444  3
   7109   7108   7111   7114     1  0.0000000  0.6508444  3
   7109   7108   7111   7112     1  0.0000000  0.6508444  3
   7109   7108   7111   7113     1  0.0000000  0.6508444  3
   7109   7108   7105   7133     1  0.0000000  1.0460000  1
   7109   7108   7105   7133     1  0.0000000  0.0000000  3
   7110   7108   7111   7114     1  0.0000000  0.6508444  3
   7110   7108   7111   7112     1  0.0000000  0.6508444  3
   7110   7108   7111   7113     1  0.0000000  0.6508444  3
   7110   7108   7105   7133     1  0.0000000  1.0460000  1
   7110   7108   7105   7133     1  0.0000000  0.0000000  3
   7111   7114   7115   7116     1  0.0000000  1.2552000  3
   7111   7114   7115   7117     1  0.0000000  1.2552000  3
   7111   7114   7124   7125     1  0.0000000  1.2552000  3
   7111   7114   7124   7126     1  0.0000000  1.2552000  3
   7112   7111   7114   7115     1  0.0000000  1.2552000  3
   7112   7111   7114   7124     1  0.0000000  1.2552000  3
   7113   7111   7114   7115     1  0.0000000  1.2552000  3
   7113   7111   7114   7124     1  0.0000000  1.2552000  3
   7114   7115   7118   7119     1  0.0000000  0.6508444  3
   7114   7115   7118   7120     1  0.0000000  0.6508444  3
   7114   7124   7127   7128     1  0.0000000  0.6508444  3
   7114   7124   7127   7129     1  0.0000000  0.6508444  3
   7115   7114   7124   7125     1  0.0000000  1.2552000  3
   7115   7114   7124   7126     1  0.0000000  1.2552000  3
   7116   7115   7118   7121     1  0.0000000  0.6508444  3
   7116   7115   7118   7119     1  0.0000000  0.6508444  3
   7116   7115   7118   7120     1  0.0000000  0.6508444  3
   7116   7115   7114   7124     1  0.0000000  1.2552000  3
   7117   7115   7118   7121     1  0.0000000  0.6508444  3
   7117   7115   7118   7119     1  0.0000000  0.6508444  3
   7117   7115   7118   7120     1  0.0000000  0.6508444  3
   7117   7115   7114   7124     1  0.0000000  1.2552000  3
   7119   7118   7121   7122     1  0.0000000  3.3472000  1
   7119   7118   7121   7122     1  0.0000000  0.0000000  2
   7119   7118   7121   7122     1  180.0000771  0.3347200  3
   7119   7118   7121   7123     1  0.0000000  3.3472000  1
   7119   7118   7121   7123     1  0.0000000  0.0000000  2
   7119   7118   7121   7123     1  180.0000771  0.3347200  3
   7120   7118   7121   7122     1  0.0000000  3.3472000  1
   7120   7118   7121   7122     1  0.0000000  0.0000000  2
   7120   7118   7121   7122     1  180.0000771  0.3347200  3
   7120   7118   7121   7123     1  0.0000000  3.3472000  1
   7120   7118   7121   7123     1  0.0000000  0.0000000  2
   7120   7118   7121   7123     1  180.0000771  0.3347200  3
   7125   7124   7127   7130     1  0.0000000  0.6508444  3
   7125   7124   7127   7128     1  0.0000000  0.6508444  3
   7125   7124   7127   7129     1  0.0000000  0.6508444  3
   7126   7124   7127   7130     1  0.0000000  0.6508444  3
   7126   7124   7127   7128     1  0.0000000  0.6508444  3
   7126   7124   7127   7129     1  0.0000000  0.6508444  3
   7128   7127   7130   7131     1  0.0000000  3.3472000  1
   7128   7127   7130   7131     1  0.0000000  0.0000000  2
   7128   7127   7130   7131     1  180.0000771  0.3347200  3
   7128   7127   7130   7132     1  0.0000000  3.3472000  1
   7128   7127   7130   7132     1  0.0000000  0.0000000  2
   7128   7127   7130   7132     1  180.0000771  0.3347200  3
   7129   7127   7130   7131     1  0.0000000  3.3472000  1
   7129   7127   7130   7131     1  0.0000000  0.0000000  2
   7129   7127   7130   7131     1  180.0000771  0.3347200  3
   7129   7127   7130   7132     1  0.0000000  3.3472000  1
   7129   7127   7130   7132     1  0.0000000  0.0000000  2
   7129   7127   7130   7132     1  180.0000771  0.3347200  3
   7134   7137   7140   7141     1  0.0000000  0.6508444  3
   7134   7137   7140   7142     1  0.0000000  0.6508444  3
   7135   7134   7137   7140     1  0.0000000  0.6508444  3
   7135   7134   7137   7138     1  0.0000000  0.6508444  3
   7135   7134   7137   7139     1  0.0000000  0.6508444  3
   7136   7134   7137   7140     1  0.0000000  0.6508444  3
   7136   7134   7137   7138     1  0.0000000  0.6508444  3
   7136   7134   7137   7139     1  0.0000000  0.6508444  3
   7138   7137   7134   7162     1  0.0000000  1.0460000  1
   7138   7137   7134   7162     1  0.0000000  0.0000000  3
   7138   7137   7140   7143     1  0.0000000  0.6508444  3
   7138   7137   7140   7141     1  0.0000000  0.6508444  3
   7138   7137   7140   7142     1  0.0000000  0.6508444  3
   7139   7137   7134   7162     1  0.0000000  1.0460000  1
   7139   7137   7134   7162     1  0.0000000  0.0000000  3
   7139   7137   7140   7143     1  0.0000000  0.6508444  3
   7139   7137   7140   7141     1  0.0000000  0.6508444  3
   7139   7137   7140   7142     1  0.0000000  0.6508444  3
   7140   7143   7144   7145     1  0.0000000  1.2552000  3
   7140   7143   7144   7146     1  0.0000000  1.2552000  3
   7140   7143   7153   7154     1  0.0000000  1.2552000  3
   7140   7143   7153   7155     1  0.0000000  1.2552000  3
   7141   7140   7143   7144     1  0.0000000  1.2552000  3
   7141   7140   7143   7153     1  0.0000000  1.2552000  3
   7142   7140   7143   7144     1  0.0000000  1.2552000  3
   7142   7140   7143   7153     1  0.0000000  1.2552000  3
   7143   7144   7147   7148     1  0.0000000  0.6508444  3
   7143   7144   7147   7149     1  0.0000000  0.6508444  3
   7143   7153   7156   7157     1  0.0000000  0.6508444  3
   7143   7153   7156   7158     1  0.0000000  0.6508444  3
   7144   7143   7153   7154     1  0.0000000  1.2552000  3
   7144   7143   7153   7155     1  0.0000000  1.2552000  3
   7145   7144   7143   7153     1  0.0000000  1.2552000  3
   7145   7144   7147   7150     1  0.0000000  0.6508444  3
   7145   7144   7147   7148     1  0.0000000  0.6508444  3
   7145   7144   7147   7149     1  0.0000000  0.6508444  3
   7146   7144   7143   7153     1  0.0000000  1.2552000  3
   7146   7144   7147   7150     1  0.0000000  0.6508444  3
   7146   7144   7147   7148     1  0.0000000  0.6508444  3
   7146   7144   7147   7149     1  0.0000000  0.6508444  3
   7148   7147   7150   7151     1  0.0000000  3.3472000  1
   7148   7147   7150   7151     1  0.0000000  0.0000000  2
   7148   7147   7150   7151     1  180.0000771  0.3347200  3
   7148   7147   7150   7152     1  0.0000000  3.3472000  1
   7148   7147   7150   7152     1  0.0000000  0.0000000  2
   7148   7147   7150   7152     1  180.0000771  0.3347200  3
   7149   7147   7150   7151     1  0.0000000  3.3472000  1
   7149   7147   7150   7151     1  0.0000000  0.0000000  2
   7149   7147   7150   7151     1  180.0000771  0.3347200  3
   7149   7147   7150   7152     1  0.0000000  3.3472000  1
   7149   7147   7150   7152     1  0.0000000  0.0000000  2
   7149   7147   7150   7152     1  180.0000771  0.3347200  3
   7154   7153   7156   7159     1  0.0000000  0.6508444  3
   7154   7153   7156   7157     1  0.0000000  0.6508444  3
   7154   7153   7156   7158     1  0.0000000  0.6508444  3
   7155   7153   7156   7159     1  0.0000000  0.6508444  3
   7155   7153   7156   7157     1  0.0000000  0.6508444  3
   7155   7153   7156   7158     1  0.0000000  0.6508444  3
   7157   7156   7159   7160     1  0.0000000  3.3472000  1
   7157   7156   7159   7160     1  0.0000000  0.0000000  2
   7157   7156   7159   7160     1  180.0000771  0.3347200  3
   7157   7156   7159   7161     1  0.0000000  3.3472000  1
   7157   7156   7159   7161     1  0.0000000  0.0000000  2
   7157   7156   7159   7161     1  180.0000771  0.3347200  3
   7158   7156   7159   7160     1  0.0000000  3.3472000  1
   7158   7156   7159   7160     1  0.0000000  0.0000000  2
   7158   7156   7159   7160     1  180.0000771  0.3347200  3
   7158   7156   7159   7161     1  0.0000000  3.3472000  1
   7158   7156   7159   7161     1  0.0000000  0.0000000  2
   7158   7156   7159   7161     1  180.0000771  0.3347200  3
   7163   7166   7169   7170     1  0.0000000  0.6508444  3
   7163   7166   7169   7171     1  0.0000000  0.6508444  3
   7164   7163   7166   7169     1  0.0000000  0.6508444  3
   7164   7163   7166   7167     1  0.0000000  0.6508444  3
   7164   7163   7166   7168     1  0.0000000  0.6508444  3
   7165   7163   7166   7169     1  0.0000000  0.6508444  3
   7165   7163   7166   7167     1  0.0000000  0.6508444  3
   7165   7163   7166   7168     1  0.0000000  0.6508444  3
   7167   7166   7169   7172     1  0.0000000  0.6508444  3
   7167   7166   7169   7170     1  0.0000000  0.6508444  3
   7167   7166   7169   7171     1  0.0000000  0.6508444  3
   7167   7166   7163   7191     1  0.0000000  1.0460000  1
   7167   7166   7163   7191     1  0.0000000  0.0000000  3
   7168   7166   7169   7172     1  0.0000000  0.6508444  3
   7168   7166   7169   7170     1  0.0000000  0.6508444  3
   7168   7166   7169   7171     1  0.0000000  0.6508444  3
   7168   7166   7163   7191     1  0.0000000  1.0460000  1
   7168   7166   7163   7191     1  0.0000000  0.0000000  3
   7169   7172   7173   7174     1  0.0000000  1.2552000  3
   7169   7172   7173   7175     1  0.0000000  1.2552000  3
   7169   7172   7182   7183     1  0.0000000  1.2552000  3
   7169   7172   7182   7184     1  0.0000000  1.2552000  3
   7170   7169   7172   7173     1  0.0000000  1.2552000  3
   7170   7169   7172   7182     1  0.0000000  1.2552000  3
   7171   7169   7172   7173     1  0.0000000  1.2552000  3
   7171   7169   7172   7182     1  0.0000000  1.2552000  3
   7172   7173   7176   7177     1  0.0000000  0.6508444  3
   7172   7173   7176   7178     1  0.0000000  0.6508444  3
   7172   7182   7185   7186     1  0.0000000  0.6508444  3
   7172   7182   7185   7187     1  0.0000000  0.6508444  3
   7173   7172   7182   7183     1  0.0000000  1.2552000  3
   7173   7172   7182   7184     1  0.0000000  1.2552000  3
   7174   7173   7176   7179     1  0.0000000  0.6508444  3
   7174   7173   7176   7177     1  0.0000000  0.6508444  3
   7174   7173   7176   7178     1  0.0000000  0.6508444  3
   7174   7173   7172   7182     1  0.0000000  1.2552000  3
   7175   7173   7176   7179     1  0.0000000  0.6508444  3
   7175   7173   7176   7177     1  0.0000000  0.6508444  3
   7175   7173   7176   7178     1  0.0000000  0.6508444  3
   7175   7173   7172   7182     1  0.0000000  1.2552000  3
   7177   7176   7179   7180     1  0.0000000  3.3472000  1
   7177   7176   7179   7180     1  0.0000000  0.0000000  2
   7177   7176   7179   7180     1  180.0000771  0.3347200  3
   7177   7176   7179   7181     1  0.0000000  3.3472000  1
   7177   7176   7179   7181     1  0.0000000  0.0000000  2
   7177   7176   7179   7181     1  180.0000771  0.3347200  3
   7178   7176   7179   7180     1  0.0000000  3.3472000  1
   7178   7176   7179   7180     1  0.0000000  0.0000000  2
   7178   7176   7179   7180     1  180.0000771  0.3347200  3
   7178   7176   7179   7181     1  0.0000000  3.3472000  1
   7178   7176   7179   7181     1  0.0000000  0.0000000  2
   7178   7176   7179   7181     1  180.0000771  0.3347200  3
   7183   7182   7185   7188     1  0.0000000  0.6508444  3
   7183   7182   7185   7186     1  0.0000000  0.6508444  3
   7183   7182   7185   7187     1  0.0000000  0.6508444  3
   7184   7182   7185   7188     1  0.0000000  0.6508444  3
   7184   7182   7185   7186     1  0.0000000  0.6508444  3
   7184   7182   7185   7187     1  0.0000000  0.6508444  3
   7186   7185   7188   7189     1  0.0000000  3.3472000  1
   7186   7185   7188   7189     1  0.0000000  0.0000000  2
   7186   7185   7188   7189     1  180.0000771  0.3347200  3
   7186   7185   7188   7190     1  0.0000000  3.3472000  1
   7186   7185   7188   7190     1  0.0000000  0.0000000  2
   7186   7185   7188   7190     1  180.0000771  0.3347200  3
   7187   7185   7188   7189     1  0.0000000  3.3472000  1
   7187   7185   7188   7189     1  0.0000000  0.0000000  2
   7187   7185   7188   7189     1  180.0000771  0.3347200  3
   7187   7185   7188   7190     1  0.0000000  3.3472000  1
   7187   7185   7188   7190     1  0.0000000  0.0000000  2
   7187   7185   7188   7190     1  180.0000771  0.3347200  3
   7192   7195   7198   7199     1  0.0000000  0.6508444  3
   7192   7195   7198   7200     1  0.0000000  0.6508444  3
   7193   7192   7195   7198     1  0.0000000  0.6508444  3
   7193   7192   7195   7196     1  0.0000000  0.6508444  3
   7193   7192   7195   7197     1  0.0000000  0.6508444  3
   7194   7192   7195   7198     1  0.0000000  0.6508444  3
   7194   7192   7195   7196     1  0.0000000  0.6508444  3
   7194   7192   7195   7197     1  0.0000000  0.6508444  3
   7196   7195   7192   7220     1  0.0000000  1.0460000  1
   7196   7195   7192   7220     1  0.0000000  0.0000000  3
   7196   7195   7198   7201     1  0.0000000  0.6508444  3
   7196   7195   7198   7199     1  0.0000000  0.6508444  3
   7196   7195   7198   7200     1  0.0000000  0.6508444  3
   7197   7195   7192   7220     1  0.0000000  1.0460000  1
   7197   7195   7192   7220     1  0.0000000  0.0000000  3
   7197   7195   7198   7201     1  0.0000000  0.6508444  3
   7197   7195   7198   7199     1  0.0000000  0.6508444  3
   7197   7195   7198   7200     1  0.0000000  0.6508444  3
   7198   7201   7202   7203     1  0.0000000  1.2552000  3
   7198   7201   7202   7204     1  0.0000000  1.2552000  3
   7198   7201   7211   7212     1  0.0000000  1.2552000  3
   7198   7201   7211   7213     1  0.0000000  1.2552000  3
   7199   7198   7201   7202     1  0.0000000  1.2552000  3
   7199   7198   7201   7211     1  0.0000000  1.2552000  3
   7200   7198   7201   7202     1  0.0000000  1.2552000  3
   7200   7198   7201   7211     1  0.0000000  1.2552000  3
   7201   7202   7205   7206     1  0.0000000  0.6508444  3
   7201   7202   7205   7207     1  0.0000000  0.6508444  3
   7201   7211   7214   7215     1  0.0000000  0.6508444  3
   7201   7211   7214   7216     1  0.0000000  0.6508444  3
   7202   7201   7211   7212     1  0.0000000  1.2552000  3
   7202   7201   7211   7213     1  0.0000000  1.2552000  3
   7203   7202   7201   7211     1  0.0000000  1.2552000  3
   7203   7202   7205   7208     1  0.0000000  0.6508444  3
   7203   7202   7205   7206     1  0.0000000  0.6508444  3
   7203   7202   7205   7207     1  0.0000000  0.6508444  3
   7204   7202   7201   7211     1  0.0000000  1.2552000  3
   7204   7202   7205   7208     1  0.0000000  0.6508444  3
   7204   7202   7205   7206     1  0.0000000  0.6508444  3
   7204   7202   7205   7207     1  0.0000000  0.6508444  3
   7206   7205   7208   7209     1  0.0000000  3.3472000  1
   7206   7205   7208   7209     1  0.0000000  0.0000000  2
   7206   7205   7208   7209     1  180.0000771  0.3347200  3
   7206   7205   7208   7210     1  0.0000000  3.3472000  1
   7206   7205   7208   7210     1  0.0000000  0.0000000  2
   7206   7205   7208   7210     1  180.0000771  0.3347200  3
   7207   7205   7208   7209     1  0.0000000  3.3472000  1
   7207   7205   7208   7209     1  0.0000000  0.0000000  2
   7207   7205   7208   7209     1  180.0000771  0.3347200  3
   7207   7205   7208   7210     1  0.0000000  3.3472000  1
   7207   7205   7208   7210     1  0.0000000  0.0000000  2
   7207   7205   7208   7210     1  180.0000771  0.3347200  3
   7212   7211   7214   7217     1  0.0000000  0.6508444  3
   7212   7211   7214   7215     1  0.0000000  0.6508444  3
   7212   7211   7214   7216     1  0.0000000  0.6508444  3
   7213   7211   7214   7217     1  0.0000000  0.6508444  3
   7213   7211   7214   7215     1  0.0000000  0.6508444  3
   7213   7211   7214   7216     1  0.0000000  0.6508444  3
   7215   7214   7217   7218     1  0.0000000  3.3472000  1
   7215   7214   7217   7218     1  0.0000000  0.0000000  2
   7215   7214   7217   7218     1  180.0000771  0.3347200  3
   7215   7214   7217   7219     1  0.0000000  3.3472000  1
   7215   7214   7217   7219     1  0.0000000  0.0000000  2
   7215   7214   7217   7219     1  180.0000771  0.3347200  3
   7216   7214   7217   7218     1  0.0000000  3.3472000  1
   7216   7214   7217   7218     1  0.0000000  0.0000000  2
   7216   7214   7217   7218     1  180.0000771  0.3347200  3
   7216   7214   7217   7219     1  0.0000000  3.3472000  1
   7216   7214   7217   7219     1  0.0000000  0.0000000  2
   7216   7214   7217   7219     1  180.0000771  0.3347200  3
   7221   7224   7227   7228     1  0.0000000  0.6508444  3
   7221   7224   7227   7229     1  0.0000000  0.6508444  3
   7222   7221   7224   7227     1  0.0000000  0.6508444  3
   7222   7221   7224   7225     1  0.0000000  0.6508444  3
   7222   7221   7224   7226     1  0.0000000  0.6508444  3
   7223   7221   7224   7227     1  0.0000000  0.6508444  3
   7223   7221   7224   7225     1  0.0000000  0.6508444  3
   7223   7221   7224   7226     1  0.0000000  0.6508444  3
   7225   7224   7227   7230     1  0.0000000  0.6508444  3
   7225   7224   7227   7228     1  0.0000000  0.6508444  3
   7225   7224   7227   7229     1  0.0000000  0.6508444  3
   7225   7224   7221   7249     1  0.0000000  1.0460000  1
   7225   7224   7221   7249     1  0.0000000  0.0000000  3
   7226   7224   7227   7230     1  0.0000000  0.6508444  3
   7226   7224   7227   7228     1  0.0000000  0.6508444  3
   7226   7224   7227   7229     1  0.0000000  0.6508444  3
   7226   7224   7221   7249     1  0.0000000  1.0460000  1
   7226   7224   7221   7249     1  0.0000000  0.0000000  3
   7227   7230   7231   7232     1  0.0000000  1.2552000  3
   7227   7230   7231   7233     1  0.0000000  1.2552000  3
   7227   7230   7240   7241     1  0.0000000  1.2552000  3
   7227   7230   7240   7242     1  0.0000000  1.2552000  3
   7228   7227   7230   7231     1  0.0000000  1.2552000  3
   7228   7227   7230   7240     1  0.0000000  1.2552000  3
   7229   7227   7230   7231     1  0.0000000  1.2552000  3
   7229   7227   7230   7240     1  0.0000000  1.2552000  3
   7230   7231   7234   7235     1  0.0000000  0.6508444  3
   7230   7231   7234   7236     1  0.0000000  0.6508444  3
   7230   7240   7243   7244     1  0.0000000  0.6508444  3
   7230   7240   7243   7245     1  0.0000000  0.6508444  3
   7231   7230   7240   7241     1  0.0000000  1.2552000  3
   7231   7230   7240   7242     1  0.0000000  1.2552000  3
   7232   7231   7234   7237     1  0.0000000  0.6508444  3
   7232   7231   7234   7235     1  0.0000000  0.6508444  3
   7232   7231   7234   7236     1  0.0000000  0.6508444  3
   7232   7231   7230   7240     1  0.0000000  1.2552000  3
   7233   7231   7234   7237     1  0.0000000  0.6508444  3
   7233   7231   7234   7235     1  0.0000000  0.6508444  3
   7233   7231   7234   7236     1  0.0000000  0.6508444  3
   7233   7231   7230   7240     1  0.0000000  1.2552000  3
   7235   7234   7237   7238     1  0.0000000  3.3472000  1
   7235   7234   7237   7238     1  0.0000000  0.0000000  2
   7235   7234   7237   7238     1  180.0000771  0.3347200  3
   7235   7234   7237   7239     1  0.0000000  3.3472000  1
   7235   7234   7237   7239     1  0.0000000  0.0000000  2
   7235   7234   7237   7239     1  180.0000771  0.3347200  3
   7236   7234   7237   7238     1  0.0000000  3.3472000  1
   7236   7234   7237   7238     1  0.0000000  0.0000000  2
   7236   7234   7237   7238     1  180.0000771  0.3347200  3
   7236   7234   7237   7239     1  0.0000000  3.3472000  1
   7236   7234   7237   7239     1  0.0000000  0.0000000  2
   7236   7234   7237   7239     1  180.0000771  0.3347200  3
   7241   7240   7243   7246     1  0.0000000  0.6508444  3
   7241   7240   7243   7244     1  0.0000000  0.6508444  3
   7241   7240   7243   7245     1  0.0000000  0.6508444  3
   7242   7240   7243   7246     1  0.0000000  0.6508444  3
   7242   7240   7243   7244     1  0.0000000  0.6508444  3
   7242   7240   7243   7245     1  0.0000000  0.6508444  3
   7244   7243   7246   7247     1  0.0000000  3.3472000  1
   7244   7243   7246   7247     1  0.0000000  0.0000000  2
   7244   7243   7246   7247     1  180.0000771  0.3347200  3
   7244   7243   7246   7248     1  0.0000000  3.3472000  1
   7244   7243   7246   7248     1  0.0000000  0.0000000  2
   7244   7243   7246   7248     1  180.0000771  0.3347200  3
   7245   7243   7246   7247     1  0.0000000  3.3472000  1
   7245   7243   7246   7247     1  0.0000000  0.0000000  2
   7245   7243   7246   7247     1  180.0000771  0.3347200  3
   7245   7243   7246   7248     1  0.0000000  3.3472000  1
   7245   7243   7246   7248     1  0.0000000  0.0000000  2
   7245   7243   7246   7248     1  180.0000771  0.3347200  3
   7250   7253   7256   7257     1  0.0000000  0.6508444  3
   7250   7253   7256   7258     1  0.0000000  0.6508444  3
   7251   7250   7253   7256     1  0.0000000  0.6508444  3
   7251   7250   7253   7254     1  0.0000000  0.6508444  3
   7251   7250   7253   7255     1  0.0000000  0.6508444  3
   7252   7250   7253   7256     1  0.0000000  0.6508444  3
   7252   7250   7253   7254     1  0.0000000  0.6508444  3
   7252   7250   7253   7255     1  0.0000000  0.6508444  3
   7254   7253   7250   7278     1  0.0000000  1.0460000  1
   7254   7253   7250   7278     1  0.0000000  0.0000000  3
   7254   7253   7256   7259     1  0.0000000  0.6508444  3
   7254   7253   7256   7257     1  0.0000000  0.6508444  3
   7254   7253   7256   7258     1  0.0000000  0.6508444  3
   7255   7253   7250   7278     1  0.0000000  1.0460000  1
   7255   7253   7250   7278     1  0.0000000  0.0000000  3
   7255   7253   7256   7259     1  0.0000000  0.6508444  3
   7255   7253   7256   7257     1  0.0000000  0.6508444  3
   7255   7253   7256   7258     1  0.0000000  0.6508444  3
   7256   7259   7260   7261     1  0.0000000  1.2552000  3
   7256   7259   7260   7262     1  0.0000000  1.2552000  3
   7256   7259   7269   7270     1  0.0000000  1.2552000  3
   7256   7259   7269   7271     1  0.0000000  1.2552000  3
   7257   7256   7259   7260     1  0.0000000  1.2552000  3
   7257   7256   7259   7269     1  0.0000000  1.2552000  3
   7258   7256   7259   7260     1  0.0000000  1.2552000  3
   7258   7256   7259   7269     1  0.0000000  1.2552000  3
   7259   7260   7263   7264     1  0.0000000  0.6508444  3
   7259   7260   7263   7265     1  0.0000000  0.6508444  3
   7259   7269   7272   7273     1  0.0000000  0.6508444  3
   7259   7269   7272   7274     1  0.0000000  0.6508444  3
   7260   7259   7269   7270     1  0.0000000  1.2552000  3
   7260   7259   7269   7271     1  0.0000000  1.2552000  3
   7261   7260   7259   7269     1  0.0000000  1.2552000  3
   7261   7260   7263   7266     1  0.0000000  0.6508444  3
   7261   7260   7263   7264     1  0.0000000  0.6508444  3
   7261   7260   7263   7265     1  0.0000000  0.6508444  3
   7262   7260   7259   7269     1  0.0000000  1.2552000  3
   7262   7260   7263   7266     1  0.0000000  0.6508444  3
   7262   7260   7263   7264     1  0.0000000  0.6508444  3
   7262   7260   7263   7265     1  0.0000000  0.6508444  3
   7264   7263   7266   7267     1  0.0000000  3.3472000  1
   7264   7263   7266   7267     1  0.0000000  0.0000000  2
   7264   7263   7266   7267     1  180.0000771  0.3347200  3
   7264   7263   7266   7268     1  0.0000000  3.3472000  1
   7264   7263   7266   7268     1  0.0000000  0.0000000  2
   7264   7263   7266   7268     1  180.0000771  0.3347200  3
   7265   7263   7266   7267     1  0.0000000  3.3472000  1
   7265   7263   7266   7267     1  0.0000000  0.0000000  2
   7265   7263   7266   7267     1  180.0000771  0.3347200  3
   7265   7263   7266   7268     1  0.0000000  3.3472000  1
   7265   7263   7266   7268     1  0.0000000  0.0000000  2
   7265   7263   7266   7268     1  180.0000771  0.3347200  3
   7270   7269   7272   7275     1  0.0000000  0.6508444  3
   7270   7269   7272   7273     1  0.0000000  0.6508444  3
   7270   7269   7272   7274     1  0.0000000  0.6508444  3
   7271   7269   7272   7275     1  0.0000000  0.6508444  3
   7271   7269   7272   7273     1  0.0000000  0.6508444  3
   7271   7269   7272   7274     1  0.0000000  0.6508444  3
   7273   7272   7275   7276     1  0.0000000  3.3472000  1
   7273   7272   7275   7276     1  0.0000000  0.0000000  2
   7273   7272   7275   7276     1  180.0000771  0.3347200  3
   7273   7272   7275   7277     1  0.0000000  3.3472000  1
   7273   7272   7275   7277     1  0.0000000  0.0000000  2
   7273   7272   7275   7277     1  180.0000771  0.3347200  3
   7274   7272   7275   7276     1  0.0000000  3.3472000  1
   7274   7272   7275   7276     1  0.0000000  0.0000000  2
   7274   7272   7275   7276     1  180.0000771  0.3347200  3
   7274   7272   7275   7277     1  0.0000000  3.3472000  1
   7274   7272   7275   7277     1  0.0000000  0.0000000  2
   7274   7272   7275   7277     1  180.0000771  0.3347200  3
   7279   7282   7285   7286     1  0.0000000  0.6508444  3
   7279   7282   7285   7287     1  0.0000000  0.6508444  3
   7280   7279   7282   7285     1  0.0000000  0.6508444  3
   7280   7279   7282   7283     1  0.0000000  0.6508444  3
   7280   7279   7282   7284     1  0.0000000  0.6508444  3
   7281   7279   7282   7285     1  0.0000000  0.6508444  3
   7281   7279   7282   7283     1  0.0000000  0.6508444  3
   7281   7279   7282   7284     1  0.0000000  0.6508444  3
   7283   7282   7285   7288     1  0.0000000  0.6508444  3
   7283   7282   7285   7286     1  0.0000000  0.6508444  3
   7283   7282   7285   7287     1  0.0000000  0.6508444  3
   7283   7282   7279   7307     1  0.0000000  1.0460000  1
   7283   7282   7279   7307     1  0.0000000  0.0000000  3
   7284   7282   7285   7288     1  0.0000000  0.6508444  3
   7284   7282   7285   7286     1  0.0000000  0.6508444  3
   7284   7282   7285   7287     1  0.0000000  0.6508444  3
   7284   7282   7279   7307     1  0.0000000  1.0460000  1
   7284   7282   7279   7307     1  0.0000000  0.0000000  3
   7285   7288   7289   7290     1  0.0000000  1.2552000  3
   7285   7288   7289   7291     1  0.0000000  1.2552000  3
   7285   7288   7298   7299     1  0.0000000  1.2552000  3
   7285   7288   7298   7300     1  0.0000000  1.2552000  3
   7286   7285   7288   7289     1  0.0000000  1.2552000  3
   7286   7285   7288   7298     1  0.0000000  1.2552000  3
   7287   7285   7288   7289     1  0.0000000  1.2552000  3
   7287   7285   7288   7298     1  0.0000000  1.2552000  3
   7288   7289   7292   7293     1  0.0000000  0.6508444  3
   7288   7289   7292   7294     1  0.0000000  0.6508444  3
   7288   7298   7301   7302     1  0.0000000  0.6508444  3
   7288   7298   7301   7303     1  0.0000000  0.6508444  3
   7289   7288   7298   7299     1  0.0000000  1.2552000  3
   7289   7288   7298   7300     1  0.0000000  1.2552000  3
   7290   7289   7292   7295     1  0.0000000  0.6508444  3
   7290   7289   7292   7293     1  0.0000000  0.6508444  3
   7290   7289   7292   7294     1  0.0000000  0.6508444  3
   7290   7289   7288   7298     1  0.0000000  1.2552000  3
   7291   7289   7292   7295     1  0.0000000  0.6508444  3
   7291   7289   7292   7293     1  0.0000000  0.6508444  3
   7291   7289   7292   7294     1  0.0000000  0.6508444  3
   7291   7289   7288   7298     1  0.0000000  1.2552000  3
   7293   7292   7295   7296     1  0.0000000  3.3472000  1
   7293   7292   7295   7296     1  0.0000000  0.0000000  2
   7293   7292   7295   7296     1  180.0000771  0.3347200  3
   7293   7292   7295   7297     1  0.0000000  3.3472000  1
   7293   7292   7295   7297     1  0.0000000  0.0000000  2
   7293   7292   7295   7297     1  180.0000771  0.3347200  3
   7294   7292   7295   7296     1  0.0000000  3.3472000  1
   7294   7292   7295   7296     1  0.0000000  0.0000000  2
   7294   7292   7295   7296     1  180.0000771  0.3347200  3
   7294   7292   7295   7297     1  0.0000000  3.3472000  1
   7294   7292   7295   7297     1  0.0000000  0.0000000  2
   7294   7292   7295   7297     1  180.0000771  0.3347200  3
   7299   7298   7301   7304     1  0.0000000  0.6508444  3
   7299   7298   7301   7302     1  0.0000000  0.6508444  3
   7299   7298   7301   7303     1  0.0000000  0.6508444  3
   7300   7298   7301   7304     1  0.0000000  0.6508444  3
   7300   7298   7301   7302     1  0.0000000  0.6508444  3
   7300   7298   7301   7303     1  0.0000000  0.6508444  3
   7302   7301   7304   7305     1  0.0000000  3.3472000  1
   7302   7301   7304   7305     1  0.0000000  0.0000000  2
   7302   7301   7304   7305     1  180.0000771  0.3347200  3
   7302   7301   7304   7306     1  0.0000000  3.3472000  1
   7302   7301   7304   7306     1  0.0000000  0.0000000  2
   7302   7301   7304   7306     1  180.0000771  0.3347200  3
   7303   7301   7304   7305     1  0.0000000  3.3472000  1
   7303   7301   7304   7305     1  0.0000000  0.0000000  2
   7303   7301   7304   7305     1  180.0000771  0.3347200  3
   7303   7301   7304   7306     1  0.0000000  3.3472000  1
   7303   7301   7304   7306     1  0.0000000  0.0000000  2
   7303   7301   7304   7306     1  180.0000771  0.3347200  3
   7308   7311   7314   7315     1  0.0000000  0.6508444  3
   7308   7311   7314   7316     1  0.0000000  0.6508444  3
   7309   7308   7311   7314     1  0.0000000  0.6508444  3
   7309   7308   7311   7312     1  0.0000000  0.6508444  3
   7309   7308   7311   7313     1  0.0000000  0.6508444  3
   7310   7308   7311   7314     1  0.0000000  0.6508444  3
   7310   7308   7311   7312     1  0.0000000  0.6508444  3
   7310   7308   7311   7313     1  0.0000000  0.6508444  3
   7312   7311   7308   7336     1  0.0000000  1.0460000  1
   7312   7311   7308   7336     1  0.0000000  0.0000000  3
   7312   7311   7314   7317     1  0.0000000  0.6508444  3
   7312   7311   7314   7315     1  0.0000000  0.6508444  3
   7312   7311   7314   7316     1  0.0000000  0.6508444  3
   7313   7311   7308   7336     1  0.0000000  1.0460000  1
   7313   7311   7308   7336     1  0.0000000  0.0000000  3
   7313   7311   7314   7317     1  0.0000000  0.6508444  3
   7313   7311   7314   7315     1  0.0000000  0.6508444  3
   7313   7311   7314   7316     1  0.0000000  0.6508444  3
   7314   7317   7318   7319     1  0.0000000  1.2552000  3
   7314   7317   7318   7320     1  0.0000000  1.2552000  3
   7314   7317   7327   7328     1  0.0000000  1.2552000  3
   7314   7317   7327   7329     1  0.0000000  1.2552000  3
   7315   7314   7317   7318     1  0.0000000  1.2552000  3
   7315   7314   7317   7327     1  0.0000000  1.2552000  3
   7316   7314   7317   7318     1  0.0000000  1.2552000  3
   7316   7314   7317   7327     1  0.0000000  1.2552000  3
   7317   7318   7321   7322     1  0.0000000  0.6508444  3
   7317   7318   7321   7323     1  0.0000000  0.6508444  3
   7317   7327   7330   7331     1  0.0000000  0.6508444  3
   7317   7327   7330   7332     1  0.0000000  0.6508444  3
   7318   7317   7327   7328     1  0.0000000  1.2552000  3
   7318   7317   7327   7329     1  0.0000000  1.2552000  3
   7319   7318   7317   7327     1  0.0000000  1.2552000  3
   7319   7318   7321   7324     1  0.0000000  0.6508444  3
   7319   7318   7321   7322     1  0.0000000  0.6508444  3
   7319   7318   7321   7323     1  0.0000000  0.6508444  3
   7320   7318   7317   7327     1  0.0000000  1.2552000  3
   7320   7318   7321   7324     1  0.0000000  0.6508444  3
   7320   7318   7321   7322     1  0.0000000  0.6508444  3
   7320   7318   7321   7323     1  0.0000000  0.6508444  3
   7322   7321   7324   7325     1  0.0000000  3.3472000  1
   7322   7321   7324   7325     1  0.0000000  0.0000000  2
   7322   7321   7324   7325     1  180.0000771  0.3347200  3
   7322   7321   7324   7326     1  0.0000000  3.3472000  1
   7322   7321   7324   7326     1  0.0000000  0.0000000  2
   7322   7321   7324   7326     1  180.0000771  0.3347200  3
   7323   7321   7324   7325     1  0.0000000  3.3472000  1
   7323   7321   7324   7325     1  0.0000000  0.0000000  2
   7323   7321   7324   7325     1  180.0000771  0.3347200  3
   7323   7321   7324   7326     1  0.0000000  3.3472000  1
   7323   7321   7324   7326     1  0.0000000  0.0000000  2
   7323   7321   7324   7326     1  180.0000771  0.3347200  3
   7328   7327   7330   7333     1  0.0000000  0.6508444  3
   7328   7327   7330   7331     1  0.0000000  0.6508444  3
   7328   7327   7330   7332     1  0.0000000  0.6508444  3
   7329   7327   7330   7333     1  0.0000000  0.6508444  3
   7329   7327   7330   7331     1  0.0000000  0.6508444  3
   7329   7327   7330   7332     1  0.0000000  0.6508444  3
   7331   7330   7333   7334     1  0.0000000  3.3472000  1
   7331   7330   7333   7334     1  0.0000000  0.0000000  2
   7331   7330   7333   7334     1  180.0000771  0.3347200  3
   7331   7330   7333   7335     1  0.0000000  3.3472000  1
   7331   7330   7333   7335     1  0.0000000  0.0000000  2
   7331   7330   7333   7335     1  180.0000771  0.3347200  3
   7332   7330   7333   7334     1  0.0000000  3.3472000  1
   7332   7330   7333   7334     1  0.0000000  0.0000000  2
   7332   7330   7333   7334     1  180.0000771  0.3347200  3
   7332   7330   7333   7335     1  0.0000000  3.3472000  1
   7332   7330   7333   7335     1  0.0000000  0.0000000  2
   7332   7330   7333   7335     1  180.0000771  0.3347200  3
   7337   7340   7343   7344     1  0.0000000  0.6508444  3
   7337   7340   7343   7345     1  0.0000000  0.6508444  3
   7338   7337   7340   7343     1  0.0000000  0.6508444  3
   7338   7337   7340   7341     1  0.0000000  0.6508444  3
   7338   7337   7340   7342     1  0.0000000  0.6508444  3
   7339   7337   7340   7343     1  0.0000000  0.6508444  3
   7339   7337   7340   7341     1  0.0000000  0.6508444  3
   7339   7337   7340   7342     1  0.0000000  0.6508444  3
   7341   7340   7343   7346     1  0.0000000  0.6508444  3
   7341   7340   7343   7344     1  0.0000000  0.6508444  3
   7341   7340   7343   7345     1  0.0000000  0.6508444  3
   7341   7340   7337   7365     1  0.0000000  1.0460000  1
   7341   7340   7337   7365     1  0.0000000  0.0000000  3
   7342   7340   7343   7346     1  0.0000000  0.6508444  3
   7342   7340   7343   7344     1  0.0000000  0.6508444  3
   7342   7340   7343   7345     1  0.0000000  0.6508444  3
   7342   7340   7337   7365     1  0.0000000  1.0460000  1
   7342   7340   7337   7365     1  0.0000000  0.0000000  3
   7343   7346   7347   7348     1  0.0000000  1.2552000  3
   7343   7346   7347   7349     1  0.0000000  1.2552000  3
   7343   7346   7356   7357     1  0.0000000  1.2552000  3
   7343   7346   7356   7358     1  0.0000000  1.2552000  3
   7344   7343   7346   7347     1  0.0000000  1.2552000  3
   7344   7343   7346   7356     1  0.0000000  1.2552000  3
   7345   7343   7346   7347     1  0.0000000  1.2552000  3
   7345   7343   7346   7356     1  0.0000000  1.2552000  3
   7346   7347   7350   7351     1  0.0000000  0.6508444  3
   7346   7347   7350   7352     1  0.0000000  0.6508444  3
   7346   7356   7359   7360     1  0.0000000  0.6508444  3
   7346   7356   7359   7361     1  0.0000000  0.6508444  3
   7347   7346   7356   7357     1  0.0000000  1.2552000  3
   7347   7346   7356   7358     1  0.0000000  1.2552000  3
   7348   7347   7350   7353     1  0.0000000  0.6508444  3
   7348   7347   7350   7351     1  0.0000000  0.6508444  3
   7348   7347   7350   7352     1  0.0000000  0.6508444  3
   7348   7347   7346   7356     1  0.0000000  1.2552000  3
   7349   7347   7350   7353     1  0.0000000  0.6508444  3
   7349   7347   7350   7351     1  0.0000000  0.6508444  3
   7349   7347   7350   7352     1  0.0000000  0.6508444  3
   7349   7347   7346   7356     1  0.0000000  1.2552000  3
   7351   7350   7353   7354     1  0.0000000  3.3472000  1
   7351   7350   7353   7354     1  0.0000000  0.0000000  2
   7351   7350   7353   7354     1  180.0000771  0.3347200  3
   7351   7350   7353   7355     1  0.0000000  3.3472000  1
   7351   7350   7353   7355     1  0.0000000  0.0000000  2
   7351   7350   7353   7355     1  180.0000771  0.3347200  3
   7352   7350   7353   7354     1  0.0000000  3.3472000  1
   7352   7350   7353   7354     1  0.0000000  0.0000000  2
   7352   7350   7353   7354     1  180.0000771  0.3347200  3
   7352   7350   7353   7355     1  0.0000000  3.3472000  1
   7352   7350   7353   7355     1  0.0000000  0.0000000  2
   7352   7350   7353   7355     1  180.0000771  0.3347200  3
   7357   7356   7359   7362     1  0.0000000  0.6508444  3
   7357   7356   7359   7360     1  0.0000000  0.6508444  3
   7357   7356   7359   7361     1  0.0000000  0.6508444  3
   7358   7356   7359   7362     1  0.0000000  0.6508444  3
   7358   7356   7359   7360     1  0.0000000  0.6508444  3
   7358   7356   7359   7361     1  0.0000000  0.6508444  3
   7360   7359   7362   7363     1  0.0000000  3.3472000  1
   7360   7359   7362   7363     1  0.0000000  0.0000000  2
   7360   7359   7362   7363     1  180.0000771  0.3347200  3
   7360   7359   7362   7364     1  0.0000000  3.3472000  1
   7360   7359   7362   7364     1  0.0000000  0.0000000  2
   7360   7359   7362   7364     1  180.0000771  0.3347200  3
   7361   7359   7362   7363     1  0.0000000  3.3472000  1
   7361   7359   7362   7363     1  0.0000000  0.0000000  2
   7361   7359   7362   7363     1  180.0000771  0.3347200  3
   7361   7359   7362   7364     1  0.0000000  3.3472000  1
   7361   7359   7362   7364     1  0.0000000  0.0000000  2
   7361   7359   7362   7364     1  180.0000771  0.3347200  3

;[ system ]
;; Name
;Generic title
;
;[ molecules ]
;; Compound       #mols
;g6.5ocore_petim   1              1
